G2Pncore-PETIM in water
30794
    1aaa     N1    1   4.786   5.212   5.009 -0.1198  0.6860  0.0275
    1aaa     C1    2   4.754   5.357   5.019 -0.3315 -0.9935 -0.2331
    1aaa     H1    3   4.833   5.399   5.081 -2.5896  0.7347  1.7062
    1aaa     H2    4   4.761   5.398   4.918  0.5520 -0.6427 -0.0388
    1aaa     C2    5   4.669   5.134   4.946  0.2171  0.0017 -0.4908
    1aaa     H3    6   4.573   5.170   4.983 -0.8120 -1.8160 -1.2570
    1aaa     H4    7   4.666   5.168   4.843 -1.7175  2.2948  0.2254
    1aaa     C3    8   4.910   5.197   4.921 -0.1530 -0.0470  0.6607
    1aaa     H5    9   4.924   5.094   4.890  2.0187  1.0852 -2.6664
    1aaa     H6   10   4.893   5.250   4.827 -0.8460 -0.8751  0.3093
    1aaa     C4   11   5.042   5.246   4.978 -0.6245  0.8163 -0.2682
    1aaa     H7   12   5.042   5.355   4.987  1.4992  0.7182  1.6661
    1aaa     H8   13   5.056   5.212   5.081 -2.0000  0.6171 -0.1280
    1aaa     C5   14   4.621   5.405   5.083  0.2416 -0.2591  0.6700
    1aaa     H9   15   4.628   5.512   5.109  1.7500 -0.4295  1.0364
    1aaa    H10   16   4.542   5.395   5.008 -0.1387  2.3303  0.6103
    1aaa     C6   17   4.667   4.978   4.958  0.1528 -0.3864 -0.1860
    1aaa    H11   18   4.745   4.941   4.891 -1.4868 -0.2868 -2.2375
    1aaa    H12   19   4.698   4.957   5.061  1.1492 -0.3923 -0.4760
    1aaa     C7   20   4.525   4.919   4.933 -0.2435  0.0975  0.1786
    1aaa    H13   21   4.463   4.956   5.016  0.6788  0.0762  0.8848
    1aaa    H14   22   4.489   4.968   4.841 -0.8642  0.8708  0.8126
    1aaa     C8   23   5.154   5.209   4.892 -0.1850  0.0318  0.6057
    1aaa    H15   24   5.245   5.212   4.952 -0.9833  1.9205  1.8448
    1aaa    H16   25   5.137   5.107   4.856  1.0142  0.8645 -2.6051
    1aaa     C9   26   4.593   5.318   5.214  0.1891  0.0206  0.2802
    1aaa    H17   27   4.597   5.209   5.201 -0.1713  0.1436 -1.0912
    1aaa    H18   28   4.674   5.338   5.285 -0.9632  2.7230  0.9406
    1aaa    H19   29   4.806   5.178   5.105  1.7999  0.4572 -0.4025
    2bbb     N1   30   4.525   4.391   4.718 -0.2637  0.6088  0.1303
    2bbb     C1   31   4.401   4.291   4.695 -0.7664  0.0128  0.4255
    2bbb     H1   32   4.328   4.340   4.631  0.7649  0.2326 -1.2307
    2bbb     H2   33   4.363   4.290   4.797  3.5877  3.0230  2.4077
    2bbb     C2   34   4.604   4.396   4.587 -0.4456 -0.4904 -0.1871
    2bbb     H3   35   4.530   4.417   4.510  0.7226  1.2213 -0.9007
    2bbb     H4   36   4.629   4.295   4.552  0.7145 -0.0111 -0.7903
    2bbb     C3   37   4.471   4.534   4.729 -0.2720  0.0087 -0.5182
    2bbb     H5   38   4.419   4.570   4.640 -1.2945 -0.0414  0.0479
    2bbb     H6   39   4.561   4.595   4.739 -0.8009  0.7768 -0.2888
    2bbb     C4   40   4.398   4.574   4.861  0.1170  0.7440 -0.0272
    2bbb     H7   41   4.439   4.531   4.954  0.8863  0.4273 -0.5040
    2bbb     H8   42   4.296   4.535   4.846 -0.2027  1.7094 -0.4564
    2bbb     C5   43   4.427   4.151   4.642 -0.4987  0.1301  0.2577
    2bbb     H9   44   4.509   4.115   4.706  0.4991  2.4666  0.3686
    2bbb    H10   45   4.479   4.151   4.546 -0.5292  5.1976 -0.0266
    2bbb     C6   46   4.727   4.484   4.588 -0.0790 -0.3775 -0.2783
    2bbb    H11   47   4.755   4.505   4.692 -2.2976 -0.4769  0.3871
    2bbb    H12   48   4.685   4.579   4.555 -0.8175 -0.1885  1.1610
    2bbb     C7   49   4.392   4.718   4.886  0.3629 -0.9784  0.4767
    2bbb    H13   50   4.314   4.734   4.962  2.0609  0.0560  2.0940
    2bbb    H14   51   4.368   4.773   4.795 -1.6739 -2.0535  0.3176
    2bbb     C8   52   4.852   4.429   4.511  0.9088 -0.2740  0.1698
    2bbb    H15   53   4.820   4.412   4.407 -1.4162 -2.0344  1.1113
    2bbb    H16   54   4.931   4.506   4.513  0.3776  0.2607  1.0950
    2bbb     C9   55   4.300   4.058   4.649  0.0002 -0.0249  0.0732
    2bbb    H17   56   4.281   4.064   4.757  4.8546 -2.1613  1.3167
    2bbb    H18   57   4.315   3.951   4.630 -0.5209 -0.0934  0.0181
    2bbb     O1   58   4.523   4.778   4.931 -0.2511 -0.0285  0.1080
    2bbb    H19   59   4.594   4.361   4.789  1.4128  0.1170 -1.6106
    3bbb     N1   60   5.403   5.335   4.663 -0.4136  0.0458  0.0191
    3bbb     C1   61   5.516   5.232   4.689  0.0335 -0.3533 -0.0669
    3bbb     H1   62   5.579   5.269   4.771  0.9950 -1.4053 -0.3063
    3bbb     H2   63   5.576   5.223   4.598  0.6133 -3.4719  0.5324
    3bbb     C2   64   5.457   5.474   4.632  0.2878 -0.3665 -0.4447
    3bbb     H3   65   5.372   5.541   4.640  0.3761 -0.4921  2.1638
    3bbb     H4   66   5.501   5.466   4.532  1.9187  1.6705  0.0257
    3bbb     C3   67   5.313   5.301   4.543 -0.1830 -0.2255  0.2368
    3bbb     H5   68   5.312   5.192   4.552  3.3697 -0.2782  1.7760
    3bbb     H6   69   5.363   5.333   4.451  2.3081 -0.2481  1.4990
    3bbb     C4   70   5.169   5.366   4.553 -0.0143  0.8503 -0.7997
    3bbb     H7   71   5.118   5.342   4.459  1.3634 -0.7950 -1.1890
    3bbb     H8   72   5.169   5.475   4.548  0.4813  0.9030  0.1889
    3bbb     C5   73   5.474   5.087   4.722  0.4147 -0.6834 -0.2211
    3bbb     H9   74   5.414   5.038   4.644 -0.3595 -0.2321  0.0814
    3bbb    H10   75   5.397   5.096   4.800  0.1507 -1.7036 -0.3511
    3bbb     C6   76   5.560   5.547   4.721  0.4853  0.1676 -0.0202
    3bbb    H11   77   5.651   5.489   4.739  1.0221  0.3161 -2.0091
    3bbb    H12   78   5.514   5.570   4.818  0.0866 -3.4061  0.7806
    3bbb     C7   79   5.090   5.304   4.672  0.3567 -0.2372 -0.4317
    3bbb    H13   80   5.061   5.201   4.647  0.5966 -0.9800  2.0559
    3bbb    H14   81   4.995   5.359   4.678  0.3079 -0.4434  1.5903
    3bbb     C8   82   5.590   5.678   4.640  0.1531  0.2764 -0.4452
    3bbb    H15   83   5.579   5.663   4.532  1.5171 -0.6013 -0.4897
    3bbb    H16   84   5.515   5.751   4.671  2.4899  1.7751  2.0721
    3bbb     C9   85   5.589   4.996   4.778 -0.3070  0.5545  0.9268
    3bbb    H17   86   5.669   4.984   4.704 -0.1520 -0.1490  1.2007
    3bbb    H18   87   5.548   4.895   4.791  0.3387  0.3837  1.7668
    3bbb     O1   88   5.173   5.305   4.790 -0.1189 -0.2672  0.4933
    3bbb    H19   89   5.347   5.331   4.749  2.0599 -0.3670  1.7077
    4bbb     N1   90   4.237   5.565   5.613 -0.3116 -0.0618  0.2573
    4bbb     C1   91   4.295   5.678   5.695 -0.1421 -0.5152 -0.4216
    4bbb     H1   92   4.342   5.629   5.780 -1.3590 -2.1136 -0.6065
    4bbb     H2   93   4.214   5.736   5.738 -1.9136 -1.4421 -2.2980
    4bbb     C2   94   4.146   5.625   5.511  0.6860 -0.1583 -0.7207
    4bbb     H3   95   4.158   5.571   5.417 -0.5912 -1.4674 -0.1649
    4bbb     H4   96   4.188   5.723   5.488 -0.9180  0.8380  0.3905
    4bbb     C3   97   4.340   5.472   5.546  0.3574 -0.5590 -0.5973
    4bbb     H5   98   4.414   5.431   5.615  3.2662  2.5631 -1.5795
    4bbb     H6   99   4.401   5.534   5.480 -1.1906  0.1788 -1.3670
    4bbb     C4  100   4.289   5.358   5.451 -0.7524 -0.6905 -0.0779
    4bbb     H7  101   4.229   5.396   5.368  0.2961  0.7312 -0.2207
    4bbb     H8  102   4.233   5.275   5.496 -1.4662 -0.3399 -0.3028
    4bbb     C5  103   4.393   5.773   5.622  0.0599 -0.1399 -0.0338
    4bbb     H9  104   4.346   5.813   5.531 -0.8431  1.4402  1.0847
    4bbb    H10  105   4.480   5.722   5.576 -0.8150  0.2042 -2.2206
    4bbb     C6  106   3.999   5.628   5.555 -0.6919  0.0189 -0.2735
    4bbb    H11  107   3.958   5.717   5.505  0.9432  0.0405 -1.6572
    4bbb    H12  108   4.006   5.657   5.661  1.0548  1.8718 -0.8252
    4bbb     C7  109   4.415   5.296   5.388  0.5803  0.4655 -0.8924
    4bbb    H13  110   4.408   5.188   5.368 -0.3044  0.5154 -0.8672
    4bbb    H14  111   4.492   5.302   5.466  1.5806 -2.2377 -1.5415
    4bbb     C8  112   3.927   5.498   5.529  0.7489 -0.0273  0.2695
    4bbb    H15  113   3.990   5.409   5.540 -1.2040 -1.5494 -0.1949
    4bbb    H16  114   3.855   5.493   5.611  0.2127 -1.3462 -0.2457
    4bbb     C9  115   4.439   5.890   5.711 -0.2930 -0.7142  0.4755
    4bbb    H17  116   4.490   5.961   5.645  2.4815 -0.9439  2.1971
    4bbb    H18  117   4.519   5.856   5.779  1.1351 -0.8955 -1.2360
    4bbb     O1  118   4.466   5.365   5.272 -0.0422 -0.2177  0.3819
    4bbb    H19  119   4.184   5.513   5.685  0.8643  0.5653  1.6336
    5bbb     N1  120   4.947   4.123   4.172  0.5858  0.0218  0.1861
    5bbb     C1  121   4.870   3.997   4.220 -0.3847 -0.6359 -0.5905
    5bbb     H1  122   4.763   4.016   4.206 -0.6424  1.7291  3.0849
    5bbb     H2  123   4.885   3.981   4.327 -0.9805 -0.6608 -0.5049
    5bbb     C2  124   4.883   4.188   4.046  0.1317  0.1972  0.2381
    5bbb     H3  125   4.796   4.247   4.077 -0.4015 -0.9907  1.0803
    5bbb     H4  126   4.848   4.111   3.978  0.8045  0.7625 -0.7771
    5bbb     C3  127   4.945   4.221   4.283  0.4231 -0.3835 -0.3250
    5bbb     H5  128   4.838   4.226   4.303 -0.0261  2.6827 -2.8406
    5bbb     H6  129   4.976   4.317   4.242 -1.2566  0.2568 -0.1502
    5bbb     C4  130   5.036   4.178   4.397 -0.3669  1.2128  0.2174
    5bbb     H7  131   5.140   4.181   4.362 -0.6392  1.3979 -0.6229
    5bbb     H8  132   5.026   4.073   4.428 -1.3923  1.1416 -0.3121
    5bbb     C5  133   4.902   3.873   4.143 -0.5838  0.8867 -0.2130
    5bbb     H9  134   5.001   3.851   4.184 -0.5826  0.7497 -0.2906
    5bbb    H10  135   4.906   3.887   4.035 -0.1030 -1.5431 -0.5703
    5bbb     C6  136   4.974   4.274   3.954 -0.1996 -0.5088 -0.0205
    5bbb    H11  137   5.061   4.212   3.928  0.5151  0.1152  0.8201
    5bbb    H12  138   5.013   4.358   4.012  0.9852 -0.3292 -1.0378
    5bbb     C7  139   5.040   4.267   4.523  0.0050 -0.1382 -0.8085
    5bbb    H13  140   5.094   4.360   4.502  0.1756 -0.4435 -1.7978
    5bbb    H14  141   5.087   4.211   4.605 -1.3103 -0.4290 -0.2297
    5bbb     C8  142   4.915   4.304   3.815 -0.6444  0.2516 -0.1602
    5bbb    H15  143   4.991   4.344   3.748 -2.0168  0.9492 -1.3450
    5bbb    H16  144   4.873   4.209   3.779  0.8627 -0.5285  0.0674
    5bbb     C9  145   4.803   3.757   4.180 -0.2122  0.0663  0.2029
    5bbb    H17  146   4.707   3.777   4.129  0.8284 -0.2064 -1.9945
    5bbb    H18  147   4.784   3.752   4.288  1.2705 -1.6318  0.4288
    5bbb     O1  148   4.903   4.311   4.570  0.3257 -0.3907 -0.6381
    5bbb    H19  149   5.041   4.094   4.141  0.4133  0.9956 -1.3191
    6bbb     N1  150   3.910   3.707   4.478  0.0311  0.3714 -0.2553
    6bbb     C1  151   3.893   3.571   4.538  0.0387  0.0159  1.0530
    6bbb     H1  152   3.848   3.506   4.463  0.9330  0.0741  0.4563
    6bbb     H2  153   3.833   3.584   4.628 -0.9704  0.4343  0.3400
    6bbb     C2  154   3.775   3.767   4.439 -0.1002  0.0676 -0.0880
    6bbb     H3  155   3.784   3.875   4.429 -0.4509  0.1890  0.8132
    6bbb     H4  156   3.718   3.752   4.531  1.5099  1.6347  1.2569
    6bbb     C3  157   3.968   3.804   4.577 -0.5955  0.3803  0.1273
    6bbb     H5  158   4.036   3.747   4.642 -0.1566  0.9805  0.2031
    6bbb     H6  159   3.896   3.847   4.647 -0.5718  0.1927  0.2676
    6bbb     C4  160   4.038   3.928   4.512 -0.2532 -0.1494  0.2436
    6bbb     H7  161   3.969   3.965   4.434 -0.4053 -1.0270 -0.0514
    6bbb     H8  162   4.130   3.904   4.458 -0.5084 -1.7482  0.4721
    6bbb     C5  163   4.029   3.490   4.567 -0.1847  0.2450  0.3957
    6bbb     H9  164   4.105   3.551   4.618 -0.0629  0.6389 -0.2416
    6bbb    H10  165   4.079   3.450   4.479 -2.4328  0.0038 -0.8552
    6bbb     C6  166   3.707   3.724   4.306  0.6980  0.3468  0.7476
    6bbb    H11  167   3.680   3.618   4.306 -2.4123  1.0341 -0.2462
    6bbb    H12  168   3.778   3.730   4.223  0.4519 -1.0324  0.4118
    6bbb     C7  169   4.061   4.046   4.608 -0.2865  0.2970  0.9886
    6bbb    H13  170   4.072   4.012   4.711  1.9169 -0.9231  0.4105
    6bbb    H14  171   3.975   4.114   4.611 -0.1309  0.4867  1.1412
    6bbb     C8  172   3.579   3.807   4.283  0.4366 -0.1578  0.5653
    6bbb    H15  173   3.607   3.906   4.322  0.5376 -0.1862  0.5655
    6bbb    H16  174   3.571   3.822   4.175 -0.0999  1.6285  0.8155
    6bbb     C9  175   3.999   3.365   4.651  0.0148 -0.3096 -0.5124
    6bbb    H17  176   3.950   3.390   4.746 -0.9190 -0.5536 -0.9258
    6bbb    H18  177   4.094   3.321   4.685 -0.3359 -1.2052 -0.6659
    6bbb     O1  178   4.188   4.106   4.570 -0.3445  0.3287 -0.2209
    6bbb    H19  179   3.971   3.687   4.397 -0.6582  0.3765 -0.7843
    7bbb     N1  180   6.005   5.673   4.628 -0.0219 -0.3005  0.0862
    7bbb     C1  181   6.074   5.567   4.542  0.2995  0.0363 -0.4863
    7bbb     H1  182   6.013   5.553   4.453  0.9306  0.3068 -0.9730
    7bbb     H2  183   6.077   5.476   4.602 -1.1150 -0.2380 -0.8005
    7bbb     C2  184   6.079   5.707   4.752  0.4298  0.5288  0.8167
    7bbb     H3  185   6.018   5.767   4.819 -0.9624  0.8150 -0.6708
    7bbb     H4  186   6.175   5.748   4.719  0.9387 -1.0302  0.2360
    7bbb     C3  187   5.987   5.791   4.531  0.0807  1.1759 -0.5983
    7bbb     H5  188   5.960   5.748   4.435 -1.9095 -0.9757  0.7833
    7bbb     H6  189   6.086   5.835   4.525  1.9245 -2.6895 -1.6400
    7bbb     C4  190   5.883   5.892   4.570  0.0330  1.2108  0.2449
    7bbb     H7  191   5.891   5.979   4.505  0.9143  0.8078 -0.2026
    7bbb     H8  192   5.896   5.924   4.674  1.8650  1.3138  0.0075
    7bbb     C5  193   6.219   5.585   4.484 -0.0233 -0.4887  0.2105
    7bbb     H9  194   6.290   5.581   4.567 -2.3130  0.9173  2.3821
    7bbb    H10  195   6.225   5.688   4.445  0.0689  0.6590  3.0283
    7bbb     C6  196   6.121   5.587   4.834 -0.2245  0.0573 -0.0272
    7bbb    H11  197   6.181   5.516   4.775 -0.7130  0.6436 -1.2634
    7bbb    H12  198   6.027   5.536   4.859  1.4296 -2.0565  2.3818
    7bbb     C7  199   5.737   5.832   4.565 -1.0327 -0.4782  0.0458
    7bbb    H13  200   5.723   5.799   4.461 -0.0803  1.1382 -0.6407
    7bbb    H14  201   5.670   5.918   4.571  0.6454  0.7785  1.8973
    7bbb     C8  202   6.201   5.608   4.965 -0.1112 -0.5454  0.2036
    7bbb    H15  203   6.136   5.646   5.045  0.4742  1.3612 -0.1707
    7bbb    H16  204   6.245   5.514   4.997 -0.4075 -0.5661  0.5581
    7bbb     C9  205   6.259   5.488   4.371  0.2156 -0.5653  0.4360
    7bbb    H17  206   6.293   5.396   4.421  0.6693 -1.5897 -1.6658
    7bbb    H18  207   6.344   5.534   4.321  0.4425 -1.3352  0.1053
    7bbb     O1  208   5.720   5.730   4.664 -0.0217 -0.0147  0.0779
    7bbb    H19  209   5.908   5.648   4.652 -0.4121 -0.1929 -1.3027
    8bbb     N1  210   5.701   4.866   5.189 -0.1439  0.0761  0.4143
    8bbb     C1  211   5.836   4.798   5.218 -0.5394 -0.0889  0.0815
    8bbb     H1  212   5.905   4.854   5.155 -0.9162  2.2989  1.6524
    8bbb     H2  213   5.813   4.701   5.172 -2.6460  0.4216 -0.0364
    8bbb     C2  214   5.601   4.831   5.292  0.3354  0.5266 -0.5449
    8bbb     H3  215   5.526   4.910   5.290  1.1694  1.6562  3.5790
    8bbb     H4  216   5.653   4.847   5.387  2.8422  0.1669 -1.7655
    8bbb     C3  217   5.713   5.019   5.188  0.1564  0.0259  0.8445
    8bbb     H5  218   5.752   5.057   5.282  1.2363 -1.4287  1.0234
    8bbb     H6  219   5.610   5.054   5.178 -0.4955 -2.0781 -0.5234
    8bbb     C4  220   5.802   5.079   5.074  0.9529  0.4952 -1.1502
    8bbb     H7  221   5.905   5.065   5.107  0.3386 -1.0564  0.2170
    8bbb     H8  222   5.781   5.186   5.068 -1.2855  0.3360  1.6430
    8bbb     C5  223   5.910   4.802   5.355  0.0619 -0.9726 -0.1790
    8bbb     H9  224   5.836   4.777   5.432 -2.1096  0.9759 -1.4862
    8bbb    H10  225   5.934   4.908   5.370 -1.3475 -0.5420 -0.7313
    8bbb     C6  226   5.535   4.689   5.288 -0.2188  0.2821 -0.2141
    8bbb    H11  227   5.604   4.610   5.319 -0.5984 -0.1772 -0.5231
    8bbb    H12  228   5.503   4.677   5.184 -2.9699  2.0521  0.3293
    8bbb     C7  229   5.770   5.029   4.932 -0.6939  0.0657 -0.3211
    8bbb    H13  230   5.787   4.921   4.920 -0.7180  0.2011 -1.7729
    8bbb    H14  231   5.830   5.078   4.854 -1.9887  0.4889 -1.0882
    8bbb     C8  232   5.400   4.684   5.372 -0.4274  0.6232  0.1691
    8bbb    H15  233   5.313   4.728   5.322  0.5749 -0.6364 -2.9128
    8bbb    H16  234   5.367   4.580   5.385 -0.2423  0.2619 -1.9742
    8bbb     C9  235   6.039   4.717   5.357 -0.3774 -0.0170  0.1675
    8bbb    H17  236   6.089   4.709   5.455  0.5183 -1.2765 -0.3725
    8bbb    H18  237   6.102   4.748   5.273 -0.7373 -0.7776 -0.3967
    8bbb     O1  238   5.638   5.062   4.897  0.5112 -1.0369  0.4315
    8bbb    H19  239   5.669   4.827   5.099 -0.4910  2.3758 -0.5297
    9bbb     N1  240   3.502   5.391   5.080 -0.2787  0.1976 -0.1503
    9bbb     C1  241   3.597   5.365   4.959 -0.3669 -0.0923  0.4625
    9bbb     H1  242   3.641   5.265   4.960  0.0700  0.1010  0.9967
    9bbb     H2  243   3.685   5.428   4.972  0.1149 -0.3775 -1.1859
    9bbb     C2  244   3.395   5.278   5.074 -0.3671 -0.1666 -0.1128
    9bbb     H3  245   3.421   5.200   5.146  3.0968  2.9596  2.3987
    9bbb     H4  246   3.401   5.230   4.976  1.7102 -2.4262  0.9995
    9bbb     C3  247   3.567   5.367   5.217 -0.0868 -0.1954 -0.9469
    9bbb     H5  248   3.614   5.269   5.213  0.1314 -0.1255 -0.2883
    9bbb     H6  249   3.495   5.378   5.297  1.2636 -0.1932  0.3161
    9bbb     C4  250   3.689   5.452   5.258 -0.5045 -0.1046  0.6131
    9bbb     H7  251   3.670   5.557   5.233  1.1450 -0.3412 -2.0211
    9bbb     H8  252   3.769   5.428   5.187 -0.5166  1.0786  0.1734
    9bbb     C5  253   3.528   5.396   4.820  0.1261  0.3055 -0.0706
    9bbb     H9  254   3.469   5.486   4.837 -0.2483  0.2654 -1.1081
    9bbb    H10  255   3.457   5.314   4.801 -0.5050  1.3208 -2.4989
    9bbb     C6  256   3.253   5.336   5.094  0.4712  0.5196 -0.2780
    9bbb    H11  257   3.233   5.403   5.009  1.0075  1.2826  0.1797
    9bbb    H12  258   3.236   5.384   5.191 -0.9155 -0.4088 -0.0271
    9bbb     C7  259   3.735   5.451   5.402  0.0730 -0.0334 -0.3356
    9bbb    H13  260   3.743   5.351   5.446  0.5504  0.3085  0.3801
    9bbb    H14  261   3.672   5.514   5.465  1.3066  0.8019  0.1134
    9bbb     C8  262   3.151   5.225   5.087 -0.3955 -0.1354  0.5675
    9bbb    H15  263   3.051   5.270   5.094 -0.7500 -0.7529 -0.3357
    9bbb    H16  264   3.157   5.174   4.990 -2.3982 -0.3105  0.4816
    9bbb     C9  265   3.631   5.396   4.704  0.1481 -0.1779 -0.6343
    9bbb    H17  266   3.718   5.331   4.717  1.6289  1.7627 -0.2317
    9bbb    H18  267   3.684   5.491   4.691  1.7101 -1.0574 -0.8969
    9bbb     O1  268   3.862   5.510   5.398 -0.9602 -0.0245  0.2682
    9bbb    H19  269   3.457   5.482   5.067 -3.0818 -0.8576  1.3590
   10bbb     N1  270   4.340   5.952   6.158  0.6937  0.0673  0.5830
   10bbb     C1  271   4.361   6.062   6.261 -0.2911 -0.2709  0.3348
   10bbb     H1  272   4.371   6.155   6.205 -2.2810 -0.3988 -0.3213
   10bbb     H2  273   4.461   6.032   6.293 -0.5406  0.6378  2.0870
   10bbb     C2  274   4.312   5.813   6.223 -0.3360 -0.1303  0.2628
   10bbb     H3  275   4.205   5.799   6.238 -0.4615 -0.1201 -0.5422
   10bbb     H4  276   4.365   5.816   6.318  0.0083  0.0787  0.0670
   10bbb     C3  277   4.228   5.994   6.062  0.2523 -0.0478 -0.0223
   10bbb     H5  278   4.133   5.998   6.117 -0.7550 -0.2791 -1.6583
   10bbb     H6  279   4.215   5.913   5.990  1.4844 -3.2895  3.0901
   10bbb     C4  280   4.260   6.106   5.968 -1.3151 -0.4921  0.4444
   10bbb     H7  281   4.281   6.201   6.018 -2.0410  0.4840 -1.0323
   10bbb     H8  282   4.167   6.123   5.912 -0.8214 -0.4655 -0.3900
   10bbb     C5  283   4.262   6.077   6.378  0.6609 -0.4642 -0.1716
   10bbb     H9  284   4.282   5.994   6.447  0.3309  0.6212  1.2769
   10bbb    H10  285   4.158   6.073   6.342 -0.4179  2.5900  2.2060
   10bbb     C6  286   4.344   5.690   6.135  0.5655 -0.3740  0.0148
   10bbb    H11  287   4.445   5.716   6.102 -0.4544  4.3201 -0.1133
   10bbb    H12  288   4.277   5.683   6.049  0.4061 -3.0180  0.2610
   10bbb     C7  289   4.366   6.070   5.856  0.2471 -0.0083 -0.0108
   10bbb    H13  290   4.466   6.065   5.900 -0.1610 -0.9247  0.8328
   10bbb    H14  291   4.381   6.152   5.784  2.3747 -0.4887 -0.1620
   10bbb     C8  292   4.350   5.559   6.212 -0.0082 -0.3431  0.0408
   10bbb    H15  293   4.394   5.481   6.149 -3.0393 -0.3625 -2.2553
   10bbb    H16  294   4.405   5.571   6.307 -2.0171  2.3429  0.9883
   10bbb     C9  295   4.266   6.217   6.451  0.3606 -0.2869 -0.4299
   10bbb    H17  296   4.184   6.224   6.524  1.9918  1.4173  1.3297
   10bbb    H18  297   4.247   6.301   6.383  2.7541 -1.0401 -2.1471
   10bbb     O1  298   4.331   5.944   5.782 -0.2264 -0.3220 -0.0049
   10bbb    H19  299   4.425   5.948   6.100 -0.4804 -0.5064 -1.1848
   11ccc     C1  300   4.551   4.579   3.890 -0.0487 -0.2059  0.0906
   11ccc     H1  301   4.624   4.660   3.894 -0.0948 -0.2151  1.7445
   11ccc     H2  302   4.551   4.533   3.989  1.8059  1.4852  0.9456
   11ccc     C2  303   4.582   4.457   3.793 -0.0520 -1.4561 -0.4920
   11ccc     H3  304   4.486   4.416   3.759 -0.7899  0.2110 -0.5630
   11ccc     H4  305   4.635   4.501   3.708  1.8362 -0.5430  1.0694
   11ccc     C3  306   4.666   4.348   3.857  0.1873 -0.2755 -0.5751
   11ccc     H5  307   4.642   4.250   3.814 -1.6480 -1.8874  3.6145
   11ccc     H6  308   4.657   4.335   3.965  0.2144 -1.8309 -0.7245
   11ccc     N1  309   4.410   4.635   3.872 -0.3684 -0.1335 -0.6574
   11ccc     H7  310   4.338   4.578   3.919 -2.0843  3.4413  1.4895
   11ccc     H8  311   4.406   4.732   3.907 -0.8266  0.6456 -2.7132
   11ccc     O1  312   4.799   4.393   3.822 -0.2562 -0.0916  0.3674
   11ccc    H17  313   4.398   4.648   3.770  1.9364  0.7234 -0.8670
   12ccc     C1  314   4.993   3.387   4.184  0.5481 -0.1422 -0.6753
   12ccc     H1  315   5.058   3.470   4.154  1.9520 -1.3625 -1.1070
   12ccc     H2  316   5.040   3.294   4.154 -0.5426 -1.2608  0.9455
   12ccc     C2  317   4.861   3.395   4.100 -0.3665  0.1577 -0.5319
   12ccc     H3  318   4.887   3.391   3.993 -1.5201  0.8011 -0.8541
   12ccc     H4  319   4.801   3.306   4.123 -1.4520  0.8761 -0.5388
   12ccc     C3  320   4.780   3.520   4.128  0.4690  0.2568  0.5625
   12ccc     H5  321   4.720   3.507   4.219 -2.0425 -0.0414 -1.0405
   12ccc     H6  322   4.710   3.534   4.045  0.4509  1.5505  0.7861
   12ccc     N1  323   4.983   3.385   4.342 -0.0090 -0.2511  0.6844
   12ccc     H7  324   4.935   3.467   4.383  0.6208 -1.0301  3.2025
   12ccc     H8  325   4.923   3.308   4.377  1.0780 -0.4894  2.1627
   12ccc     O1  326   4.865   3.637   4.137 -0.1378  0.8951 -0.2190
   12ccc    H17  327   5.076   3.366   4.382  0.3043 -2.7815 -0.9928
   13ccc     C1  328   3.212   3.603   4.312  0.6453 -0.3382  0.6885
   13ccc     H1  329   3.298   3.538   4.331  2.4217  2.2762  2.1477
   13ccc     H2  330   3.209   3.632   4.207  0.3876  1.5752  1.1947
   13ccc     C2  331   3.233   3.732   4.382 -0.1693 -0.0077 -0.1824
   13ccc     H3  332   3.138   3.786   4.369 -0.3316 -0.1693  0.3168
   13ccc     H4  333   3.256   3.706   4.486  1.1062 -3.5672 -1.2251
   13ccc     C3  334   3.349   3.825   4.323 -0.4550  0.3933 -0.7321
   13ccc     H5  335   3.352   3.921   4.375 -0.0507 -0.5775  1.1161
   13ccc     H6  336   3.342   3.836   4.214 -1.9070 -1.1371 -0.8358
   13ccc     N1  337   3.084   3.535   4.355  0.5035  0.0513 -0.6609
   13ccc     H7  338   3.078   3.444   4.308 -2.2631  0.8283 -2.0354
   13ccc     H8  339   3.083   3.526   4.458  1.6725 -0.0519 -0.6368
   13ccc     O1  340   3.467   3.752   4.344 -0.5677  0.1104  0.1396
   13ccc    H17  341   3.004   3.594   4.330  0.9469  1.0569  0.1795
   14ccc     C1  342   3.713   2.973   4.606 -0.1552 -0.2119 -0.5192
   14ccc     H1  343   3.720   2.953   4.713 -0.6772 -5.0278 -1.1535
   14ccc     H2  344   3.772   2.900   4.551 -1.5897 -0.8566 -1.2655
   14ccc     C2  345   3.759   3.111   4.569  0.2136  0.8296 -0.1500
   14ccc     H3  346   3.768   3.100   4.460  0.2620 -2.9067  0.1053
   14ccc     H4  347   3.684   3.187   4.596  0.8009  0.4910  2.7718
   14ccc     C3  348   3.895   3.150   4.630  0.1388 -0.2154 -0.5464
   14ccc     H5  349   3.972   3.073   4.616 -1.8639 -2.2671 -0.7847
   14ccc     H6  350   3.892   3.162   4.739 -2.1574 -2.3278 -0.3019
   14ccc     N1  351   3.559   2.957   4.574 -0.5298 -0.4760  0.2462
   14ccc     H7  352   3.502   3.000   4.649 -0.7585 -2.3156  1.2050
   14ccc     H8  353   3.522   2.982   4.482 -0.6921 -1.0441  0.1523
   14ccc     O1  354   3.932   3.277   4.568  0.9335  0.1491  0.0378
   14ccc    H17  355   3.538   2.856   4.580 -0.7756 -0.5105 -1.0449
   15ccc     C1  356   6.571   5.931   5.058  0.0134  0.6900 -0.8466
   15ccc     H1  357   6.646   5.851   5.060  1.8535  2.3391 -0.0971
   15ccc     H2  358   6.551   5.947   5.164  1.1958 -0.1210 -0.4725
   15ccc     C2  359   6.437   5.895   4.999  0.7225 -0.5668 -0.2107
   15ccc     H3  360   6.368   5.979   5.008  0.9240 -0.3707 -0.4742
   15ccc     H4  361   6.460   5.885   4.893 -2.1099 -0.1822 -0.9213
   15ccc     C3  362   6.358   5.778   5.050  0.5685  0.0325 -0.6489
   15ccc     H5  363   6.280   5.804   5.123  2.7916  0.9334  1.5964
   15ccc     H6  364   6.428   5.706   5.094  0.5370 -0.0043 -0.6590
   15ccc     N1  365   6.638   6.041   4.991  0.2813 -0.0836 -0.5517
   15ccc     H7  366   6.681   5.999   4.907  1.1423  1.5181 -0.9661
   15ccc     H8  367   6.567   6.112   4.966 -0.0822 -0.7477 -1.4551
   15ccc     O1  368   6.296   5.717   4.937  0.6256 -0.0121 -0.7264
   15ccc    H17  369   6.708   6.093   5.046  1.7970 -1.4780 -1.0729
   16ccc     C1  370   5.924   5.340   4.126 -0.8041 -0.1051  0.0442
   16ccc     H1  371   5.910   5.448   4.135  0.3524  0.1816 -1.2428
   16ccc     H2  372   5.899   5.281   4.214 -2.6456 -1.0120 -1.0290
   16ccc     C2  373   6.068   5.313   4.086  0.2776 -0.3128  0.1262
   16ccc     H3  374   6.079   5.211   4.049 -0.0671  0.3379 -1.8853
   16ccc     H4  375   6.077   5.381   4.000 -0.7927 -0.5606 -0.1869
   16ccc     C3  376   6.180   5.342   4.190  0.5105  0.0395  0.7782
   16ccc     H5  377   6.274   5.347   4.134  1.0403  2.2170  1.7570
   16ccc     H6  378   6.189   5.253   4.253 -1.4215  2.0872  4.3058
   16ccc     N1  379   5.818   5.312   4.019 -0.4630  0.5288 -0.3073
   16ccc     H7  380   5.806   5.213   3.995 -2.7011  1.2573 -2.6939
   16ccc     H8  381   5.726   5.345   4.052  0.2876 -0.2800  2.8779
   16ccc     O1  382   6.149   5.468   4.273  0.6392  0.8029  0.0979
   16ccc    H17  383   5.848   5.359   3.932 -1.6364  1.2318 -0.3580
   17ccc     C1  384   5.355   4.779   5.812  0.2328  0.2742 -0.5420
   17ccc     H1  385   5.283   4.840   5.758 -0.3494 -0.0092 -0.0970
   17ccc     H2  386   5.386   4.825   5.906  2.4599 -0.4259 -0.8653
   17ccc     C2  387   5.482   4.755   5.730  0.0147  0.0451 -0.2479
   17ccc     H3  388   5.531   4.849   5.701 -0.3912  0.9237  1.7701
   17ccc     H4  389   5.551   4.702   5.797 -1.2479 -1.6873 -0.2520
   17ccc     C3  390   5.464   4.663   5.616  0.8397  0.5538  0.1301
   17ccc     H5  391   5.394   4.581   5.637 -0.1296  1.3457  0.0472
   17ccc     H6  392   5.557   4.608   5.593 -0.9651 -2.2805 -0.8686
   17ccc     N1  393   5.279   4.655   5.861 -0.3588 -0.2390  0.2360
   17ccc     H7  394   5.334   4.597   5.927 -0.5799 -2.7049 -1.5939
   17ccc     H8  395   5.194   4.685   5.912  1.0112  1.1487  1.8199
   17ccc     O1  396   5.410   4.741   5.503 -0.1295 -0.2035  0.1146
   17ccc    H17  397   5.244   4.599   5.782 -1.1644 -1.0509  1.1373
   18ccc     C1  398   6.270   4.338   5.229 -0.6083 -1.0576 -0.8800
   18ccc     H1  399   6.293   4.316   5.125  1.6648 -2.7111 -0.1180
   18ccc     H2  400   6.212   4.256   5.272 -0.6562 -1.2522 -1.3120
   18ccc     C2  401   6.181   4.470   5.230 -0.0406 -0.0745  0.4253
   18ccc     H3  402   6.248   4.557   5.221 -1.1934  1.0687  2.2095
   18ccc     H4  403   6.109   4.467   5.148 -0.0213 -0.4015  0.4198
   18ccc     C3  404   6.095   4.480   5.359  0.1878 -0.1112  0.1443
   18ccc     H5  405   6.151   4.509   5.449  0.7778 -0.5783 -0.0694
   18ccc     H6  406   6.046   4.386   5.388  0.4357 -0.1850  0.3254
   18ccc     N1  407   6.414   4.337   5.297 -0.3422 -0.9649  0.2153
   18ccc     H7  408   6.439   4.240   5.320 -1.1913 -0.4030  4.2830
   18ccc     H8  409   6.478   4.375   5.226 -0.9753  0.1500  0.2043
   18ccc     O1  410   5.990   4.588   5.334 -0.4064  0.2998  0.1870
   18ccc    H17  411   6.414   4.387   5.387  1.1850 -0.5077 -0.0138
   19ccc     C1  412   3.305   4.866   5.117  0.5899 -0.3401 -0.3346
   19ccc     H1  413   3.292   4.777   5.178 -0.7863 -1.6203 -2.3757
   19ccc     H2  414   3.355   4.944   5.175 -0.5728 -0.3192  0.6753
   19ccc     C2  415   3.156   4.911   5.086  0.2955  0.0519 -0.0101
   19ccc     H3  416   3.141   4.943   4.982  1.1279 -1.4909 -0.6338
   19ccc     H4  417   3.100   4.817   5.098  1.8618 -0.9481 -0.2774
   19ccc     C3  418   3.100   5.008   5.193  0.3484 -0.1460 -0.3289
   19ccc     H5  419   3.102   4.947   5.284 -1.2885  0.4226  0.1149
   19ccc     H6  420   2.995   5.027   5.171 -0.2137 -1.5117  0.9892
   19ccc     N1  421   3.397   4.831   5.001  0.0679 -0.3135 -0.1676
   19ccc     H7  422   3.342   4.819   4.914  0.2598 -3.3731  0.0298
   19ccc     H8  423   3.453   4.917   4.991  0.7002 -0.2793  2.7623
   19ccc     O1  424   3.168   5.134   5.204  0.6742 -0.5602  0.2816
   19ccc    H17  425   3.453   4.744   5.006 -1.5620 -1.7269 -3.2286
   20ccc     C1  426   3.466   5.446   4.304 -0.1492 -0.3354 -0.5972
   20ccc     H1  427   3.530   5.523   4.262  1.1839 -0.9894  0.1810
   20ccc     H2  428   3.418   5.483   4.395  1.0914 -2.4940  1.0336
   20ccc     C2  429   3.549   5.314   4.338  0.5812 -0.2938 -0.4683
   20ccc     H3  430   3.469   5.239   4.344  0.1877  0.2094  0.8760
   20ccc     H4  431   3.616   5.285   4.257 -0.2276 -2.8115 -0.3220
   20ccc     C3  432   3.636   5.332   4.472 -0.1276 -0.3374  0.3668
   20ccc     H5  433   3.715   5.405   4.453  0.0061 -1.2918 -3.6887
   20ccc     H6  434   3.687   5.237   4.492 -0.2692 -0.3567  0.6554
   20ccc     N1  435   3.369   5.429   4.193 -1.1953  0.7978 -0.8258
   20ccc     H7  436   3.415   5.376   4.117  0.1725  0.2787  0.3236
   20ccc     H8  437   3.291   5.372   4.230 -1.7933  2.4346  0.5513
   20ccc     O1  438   3.557   5.370   4.585  0.2123  0.2745  0.3482
   20ccc    H17  439   3.337   5.521   4.159  1.3261  1.4984 -1.4992
   21ccc     C1  440   3.978   5.454   6.414  0.0896 -0.7179  0.1690
   21ccc     H1  441   3.903   5.526   6.379 -0.4639 -1.3234  0.0838
   21ccc     H2  442   4.051   5.510   6.472  3.9146 -2.0028 -3.0049
   21ccc     C2  443   4.039   5.371   6.292 -0.6663  0.2090  0.3391
   21ccc     H3  444   4.008   5.267   6.308  1.0257 -0.5530 -1.0488
   21ccc     H4  445   3.977   5.403   6.208 -0.4578 -1.1213 -0.3556
   21ccc     C3  446   4.189   5.385   6.276 -0.1625  0.6086  0.9272
   21ccc     H5  447   4.236   5.327   6.195  1.5544  1.5393  1.2138
   21ccc     H6  448   4.233   5.358   6.373 -2.2531 -1.3869  1.4203
   21ccc     N1  449   3.895   5.376   6.510  0.3039  0.0938  0.2119
   21ccc     H7  450   3.955   5.312   6.564 -0.9537 -0.8616  0.5446
   21ccc     H8  451   3.854   5.441   6.579  0.9639 -0.0915  0.7852
   21ccc     O1  452   4.217   5.522   6.243  0.3475 -0.0706  0.5392
   21ccc    H17  453   3.823   5.316   6.467  0.6824 -2.5626  2.9105
   22ccc     C1  454   4.612   6.225   6.725  0.2499 -0.1528 -0.5712
   22ccc     H1  455   4.609   6.134   6.666  3.0488 -1.9449  1.7604
   22ccc     H2  456   4.563   6.188   6.816 -1.0083 -1.1189 -1.6066
   22ccc     C2  457   4.550   6.348   6.657 -0.0677 -0.2466 -0.2864
   22ccc     H3  458   4.547   6.426   6.735 -1.1611  0.7085 -1.2520
   22ccc     H4  459   4.611   6.386   6.575 -0.3768 -0.2496 -0.5176
   22ccc     C3  460   4.401   6.328   6.624  0.1397  0.5529  0.5053
   22ccc     H5  461   4.361   6.422   6.584 -1.5502  0.0413  0.8945
   22ccc     H6  462   4.342   6.294   6.710  0.3988 -0.8001  0.1590
   22ccc     N1  463   4.757   6.233   6.761  0.4760  0.0629  0.2051
   22ccc     H7  464   4.773   6.296   6.841 -1.8187  3.0205 -1.4624
   22ccc     H8  465   4.788   6.142   6.798 -0.5837 -0.4092 -0.0256
   22ccc     O1  466   4.386   6.227   6.517 -0.6267 -0.5413 -0.2135
   22ccc    H17  467   4.819   6.254   6.682 -1.3707 -3.3232 -2.3863
   23SOL     OW  468   2.524   0.845   5.258  0.6400 -0.1593  0.1837
   23SOL    HW1  469   2.533   0.877   5.168  2.0559  0.9874  0.6913
   23SOL    HW2  470   2.435   0.869   5.283  0.5360  0.3372 -0.6257
   24SOL     OW  471   2.527   1.305   4.936  0.3905 -0.6447 -0.2055
   24SOL    HW1  472   2.459   1.258   4.889 -0.7393 -1.0624  1.7242
   24SOL    HW2  473   2.534   1.390   4.892 -0.2842 -1.1716 -1.3500
   25SOL     OW  474   5.574   6.446   0.718  0.0438  0.1568 -0.0918
   25SOL    HW1  475   5.525   6.429   0.799 -0.4146  1.8013  0.0007
   25SOL    HW2  476   5.507   6.475   0.656  0.7310  1.3027 -0.3135
   26SOL     OW  477   5.641   4.230   0.447 -0.2136 -0.4379  0.4472
   26SOL    HW1  478   5.661   4.137   0.457  0.3097 -0.3028  0.6560
   26SOL    HW2  479   5.716   4.276   0.485 -0.5999  0.0698  0.6146
   27SOL     OW  480   1.723   0.876   1.432  0.5119 -0.0630  0.1178
   27SOL    HW1  481   1.702   0.787   1.460  0.5135 -0.4996 -1.2106
   27SOL    HW2  482   1.641   0.910   1.396 -0.0493  1.2523  2.4795
   28SOL     OW  483   1.632   4.642   4.962  0.4931  0.8528  0.5500
   28SOL    HW1  484   1.584   4.598   5.032 -1.6204  1.5865 -0.3413
   28SOL    HW2  485   1.688   4.705   5.006  1.6444 -0.9006  1.7082
   29SOL     OW  486   6.648   4.761   1.568  0.2210  0.8515 -0.1634
   29SOL    HW1  487   6.712   4.696   1.538 -0.1938  0.6130 -0.5488
   29SOL    HW2  488   6.563   4.718   1.557 -0.0268  1.2659  0.0832
   30SOL     OW  489   5.490   3.531   2.457  0.1272  0.4837  0.5830
   30SOL    HW1  490   5.413   3.481   2.485  0.5391 -0.0507  0.7895
   30SOL    HW2  491   5.457   3.619   2.440 -0.7041  0.0168 -0.2726
   31SOL     OW  492   3.198   6.610   0.170 -0.3541 -0.5133  0.5141
   31SOL    HW1  493   3.266   6.677   0.164 -1.3641  0.3946 -2.1478
   31SOL    HW2  494   3.121   6.650   0.129 -1.8648 -2.2968  1.4528
   32SOL     OW  495   2.021   3.439   4.479 -0.1632  0.2424 -0.5020
   32SOL    HW1  496   2.079   3.506   4.445  0.3110 -0.7165 -1.6300
   32SOL    HW2  497   2.038   3.439   4.574  2.3113 -0.5707 -0.8724
   33SOL     OW  498   0.923   5.605   4.411 -0.3605 -0.4359  0.3757
   33SOL    HW1  499   0.848   5.650   4.373 -0.1690 -0.1553  0.3294
   33SOL    HW2  500   0.887   5.562   4.489 -0.7063 -0.8425 -0.0040
   34SOL     OW  501   4.780   0.005   2.892 -0.3094 -0.3787  0.1361
   34SOL    HW1  502   4.796   0.055   2.812 -2.1621 -1.2088 -0.8202
   34SOL    HW2  503   4.863  -0.040   2.909  0.9543  1.8558  0.2502
   35SOL     OW  504   0.724   0.909   6.685  0.1770  0.6388  0.2968
   35SOL    HW1  505   0.636   0.879   6.708 -0.0311  0.1442 -1.0684
   35SOL    HW2  506   0.719   0.930   6.592  0.4418  4.4291  0.9510
   36SOL     OW  507   0.314   2.240   3.288  0.5659  0.0735 -0.5891
   36SOL    HW1  508   0.286   2.305   3.224  0.2824  0.4316 -0.1141
   36SOL    HW2  509   0.233   2.208   3.327  0.7086 -0.5046 -0.7534
   37SOL     OW  510   2.790   2.399   1.296  0.1380  0.2023  0.6409
   37SOL    HW1  511   2.792   2.409   1.201  0.5281 -0.4987  0.5699
   37SOL    HW2  512   2.873   2.358   1.317  0.3655  1.0114  1.3708
   38SOL     OW  513   4.194   5.129   1.014 -0.4064 -0.1898 -0.3889
   38SOL    HW1  514   4.155   5.163   0.933 -0.5200  0.2652 -0.1487
   38SOL    HW2  515   4.121   5.127   1.076 -0.2860 -0.3903 -0.2558
   39SOL     OW  516   3.073   4.199   5.727  0.3026 -0.3172 -0.8864
   39SOL    HW1  517   3.047   4.107   5.737  2.6448 -0.9450  0.1782
   39SOL    HW2  518   3.078   4.232   5.817  0.0760  0.7085 -1.2367
   40SOL     OW  519   2.154   1.115   1.951 -0.5586  0.2530  0.2645
   40SOL    HW1  520   2.128   1.049   1.886 -2.7403 -0.3636  1.6571
   40SOL    HW2  521   2.147   1.198   1.905 -0.8317 -0.2547 -0.6345
   41SOL     OW  522   6.698   0.997   5.871  0.6764  0.2982 -0.3616
   41SOL    HW1  523   6.682   1.090   5.882 -2.0476  0.0035 -0.9098
   41SOL    HW2  524   6.778   0.979   5.921 -1.1896  2.1090  3.8004
   42SOL     OW  525   1.198   2.254   1.698 -0.5811 -0.2147  0.2727
   42SOL    HW1  526   1.181   2.222   1.787  0.0362 -1.7004 -0.1139
   42SOL    HW2  527   1.187   2.177   1.642 -0.1401  0.5112 -0.8450
   43SOL     OW  528   5.166   1.243   1.647 -0.5470  0.0050  0.1315
   43SOL    HW1  529   5.113   1.323   1.639 -0.6766 -0.1134 -0.1825
   43SOL    HW2  530   5.232   1.251   1.578 -0.6716 -0.2448 -0.0178
   44SOL     OW  531   1.817   3.147   2.245  0.2768 -0.3544 -0.6156
   44SOL    HW1  532   1.821   3.072   2.304 -0.8763 -0.5150 -0.7323
   44SOL    HW2  533   1.906   3.183   2.247  0.9412 -1.8874 -0.7907
   45SOL     OW  534   5.465   3.538   4.049 -0.3800 -0.6546 -0.0818
   45SOL    HW1  535   5.500   3.534   4.138  0.4618  0.5029 -0.3286
   45SOL    HW2  536   5.504   3.618   4.012 -0.4553 -1.2893 -1.5948
   46SOL     OW  537   4.111   4.803   5.917 -0.4495 -0.3962  0.1127
   46SOL    HW1  538   4.194   4.835   5.953 -1.6676  1.5670  1.3674
   46SOL    HW2  539   4.110   4.710   5.940  1.6206 -0.6130 -0.4458
   47SOL     OW  540   5.139   6.397   5.489 -0.2867  0.0180 -0.1895
   47SOL    HW1  541   5.173   6.387   5.577 -1.6799 -1.0968  0.2497
   47SOL    HW2  542   5.093   6.481   5.490  1.3907  0.9978 -0.4795
   48SOL     OW  543   0.936   3.556   3.399 -0.4734  0.1073  0.4880
   48SOL    HW1  544   0.961   3.514   3.317  0.8344 -0.1886  1.0099
   48SOL    HW2  545   0.933   3.649   3.378  0.1552  0.0586  0.1759
   49SOL     OW  546   3.609   5.972   5.774  0.2481  0.0920  0.0308
   49SOL    HW1  547   3.563   6.040   5.725 -1.8221 -0.2234  1.3997
   49SOL    HW2  548   3.673   6.020   5.827 -1.1067  1.0115  0.8988
   50SOL     OW  549   4.877   0.539   6.658  0.1103  0.2767 -1.0024
   50SOL    HW1  550   4.918   0.607   6.713 -2.0831  0.5060  0.4630
   50SOL    HW2  551   4.950   0.501   6.610  1.5705  3.0291 -1.1796
   51SOL     OW  552   5.370   1.323   2.923 -0.3441  0.2732 -0.1137
   51SOL    HW1  553   5.292   1.372   2.898 -0.1636  0.3764 -0.4744
   51SOL    HW2  554   5.341   1.232   2.928 -0.2219  0.1477 -1.4075
   52SOL     OW  555   2.303   3.725   2.761 -0.1274  0.4069 -0.0549
   52SOL    HW1  556   2.260   3.694   2.681  0.8027  1.9008 -1.1927
   52SOL    HW2  557   2.253   3.803   2.786 -0.2093  0.1352  0.6594
   53SOL     OW  558   4.669   1.627   5.329  0.2174 -0.5959  0.0848
   53SOL    HW1  559   4.624   1.667   5.255 -1.0984 -0.0519  1.1309
   53SOL    HW2  560   4.761   1.626   5.304 -0.2358 -0.7822 -1.6965
   54SOL     OW  561   1.985   5.942   0.673 -0.2063 -0.3315  0.1607
   54SOL    HW1  562   1.896   5.908   0.670 -0.3263 -0.0125  0.0737
   54SOL    HW2  563   2.032   5.882   0.731 -0.4107 -0.6532  0.0011
   55SOL     OW  564   2.422   5.672   6.053  0.1907 -0.0470  0.0523
   55SOL    HW1  565   2.452   5.752   6.096  0.1266 -0.5389  1.0504
   55SOL    HW2  566   2.330   5.665   6.078  0.1826 -0.4033 -0.0731
   56SOL     OW  567   1.544   2.024   6.426  0.6901  0.0922  0.0369
   56SOL    HW1  568   1.481   2.048   6.494 -0.5553  1.0701 -1.4091
   56SOL    HW2  569   1.566   1.933   6.444 -1.2984 -0.3343  0.4556
   57SOL     OW  570   1.993   6.457   5.502 -0.0564  0.3568 -0.3298
   57SOL    HW1  571   1.971   6.543   5.465  0.7913  0.5761 -0.3456
   57SOL    HW2  572   2.082   6.467   5.535 -0.1315 -0.3795  0.1199
   58SOL     OW  573   3.748   1.024   2.939 -0.2561 -0.8669  0.2939
   58SOL    HW1  574   3.756   1.042   3.033  0.1372  1.5035 -0.1247
   58SOL    HW2  575   3.654   1.032   2.921 -0.2346 -0.4513  0.3500
   59SOL     OW  576   6.255   5.436   5.478 -0.0335  0.1852  0.1642
   59SOL    HW1  577   6.171   5.478   5.463  0.6231  1.0363 -1.4220
   59SOL    HW2  578   6.313   5.475   5.412  1.8769  0.3918  1.8736
   60SOL     OW  579   4.340   6.522   4.116  0.2377 -0.3264 -0.5656
   60SOL    HW1  580   4.289   6.571   4.181  0.4526  0.8105 -1.2313
   60SOL    HW2  581   4.283   6.450   4.090  0.3823 -1.2038  1.3319
   61SOL     OW  582   3.364   0.388   0.494  0.1573 -0.3622 -0.2741
   61SOL    HW1  583   3.390   0.311   0.442  1.0825 -0.6325  0.5712
   61SOL    HW2  584   3.390   0.462   0.440  1.8331 -0.6355  0.1103
   62SOL     OW  585   6.523   1.026   1.364  0.1732 -0.7104  0.1872
   62SOL    HW1  586   6.443   0.998   1.408  0.5931 -0.0793  1.3870
   62SOL    HW2  587   6.594   0.981   1.411  0.5935 -0.5263 -0.2519
   63SOL     OW  588   1.802   3.187   5.506 -0.5499 -0.3236 -0.0604
   63SOL    HW1  589   1.733   3.252   5.493 -0.7183 -0.6615 -0.9188
   63SOL    HW2  590   1.883   3.235   5.494 -0.6819 -0.3558 -1.1740
   64SOL     OW  591   1.167   5.071   6.475  0.2347 -0.1091  0.5482
   64SOL    HW1  592   1.195   5.137   6.411  0.8403  0.1209  1.0341
   64SOL    HW2  593   1.100   5.020   6.430  1.2960 -0.5478 -0.5947
   65SOL     OW  594   6.704   3.347   2.720  0.0586 -0.0479  0.4294
   65SOL    HW1  595   6.746   3.280   2.775 -0.5650 -0.7907  0.0284
   65SOL    HW2  596   6.775   3.405   2.694  0.4160  0.1850  1.8123
   66SOL     OW  597   5.110   1.146   6.654 -0.1043 -0.0828 -0.0428
   66SOL    HW1  598   5.069   1.202   6.588 -0.8652 -0.2604  0.2757
   66SOL    HW2  599   5.043   1.133   6.720  0.5609 -0.1444  0.6332
   67SOL     OW  600   3.801   3.358   4.305  0.6195 -0.7241  0.4585
   67SOL    HW1  601   3.710   3.348   4.332  0.3421  1.0554  0.3319
   67SOL    HW2  602   3.818   3.283   4.247 -1.9826  0.8111 -2.6206
   68SOL     OW  603   2.407   6.269   5.298 -0.4805  0.0185 -0.6714
   68SOL    HW1  604   2.352   6.348   5.298 -1.6542 -0.7608 -0.8208
   68SOL    HW2  605   2.453   6.271   5.381 -0.2440  1.0262 -0.8138
   69SOL     OW  606   5.059   4.819   5.836 -0.1981 -0.3938 -0.0596
   69SOL    HW1  607   5.013   4.858   5.761  0.0667 -2.6289 -1.4709
   69SOL    HW2  608   5.006   4.742   5.859  0.6685 -0.7138  0.9249
   70SOL     OW  609   2.064   0.541   4.959  0.5297 -0.0527  0.0831
   70SOL    HW1  610   1.979   0.535   5.002 -0.0894 -0.7836 -1.1872
   70SOL    HW2  611   2.108   0.614   5.003 -1.6116  1.8097 -0.6853
   71SOL     OW  612   1.347   1.305   1.008 -0.2585  0.2512  0.2067
   71SOL    HW1  613   1.322   1.221   1.046 -0.8607 -0.2653 -1.2766
   71SOL    HW2  614   1.311   1.304   0.920  0.6263  1.6404 -0.2116
   72SOL     OW  615   3.045   2.475   1.644  0.1137  0.4136 -0.3867
   72SOL    HW1  616   3.053   2.557   1.595  0.8638 -0.2049 -1.3161
   72SOL    HW2  617   3.105   2.485   1.718  0.1603  0.7178 -0.4647
   73SOL     OW  618   2.800   0.085   1.263  0.5462  0.1512 -0.4862
   73SOL    HW1  619   2.885   0.062   1.227  0.9468  0.0374  0.5080
   73SOL    HW2  620   2.814   0.088   1.357 -1.0961 -2.3221 -0.0638
   74SOL     OW  621   5.103   1.517   1.553 -0.2150 -0.1676 -0.2770
   74SOL    HW1  622   5.078   1.456   1.484 -0.1245  0.0470 -0.4995
   74SOL    HW2  623   5.133   1.595   1.507  0.1093 -0.1261  0.0025
   75SOL     OW  624   4.640   4.400   6.776 -0.1263  0.3327  0.1088
   75SOL    HW1  625   4.678   4.351   6.848  0.2962 -3.1668 -2.2797
   75SOL    HW2  626   4.554   4.428   6.810  0.7056  0.3069  2.4545
   76SOL     OW  627   1.170   3.394   1.008  0.1228  0.1140 -0.7951
   76SOL    HW1  628   1.200   3.356   1.090  1.5322 -0.0666 -1.3621
   76SOL    HW2  629   1.154   3.318   0.951  1.3659  0.2771 -1.4026
   77SOL     OW  630   4.690   3.992   5.130 -0.3684  0.3231  0.4461
   77SOL    HW1  631   4.646   4.056   5.185 -0.4059  2.4268 -1.8604
   77SOL    HW2  632   4.780   4.024   5.124 -0.1809 -0.2903 -0.1148
   78SOL     OW  633   2.690   5.162   4.630  0.7280  0.6969  0.2510
   78SOL    HW1  634   2.698   5.104   4.706 -1.5316  0.0604  0.0809
   78SOL    HW2  635   2.780   5.188   4.610  1.7916 -2.1464  0.7990
   79SOL     OW  636   0.841   3.068   4.490  0.0549  0.2547  0.0912
   79SOL    HW1  637   0.920   3.016   4.478 -0.4986 -1.0920  1.8207
   79SOL    HW2  638   0.779   3.033   4.426 -0.8347 -2.4605  2.2428
   80SOL     OW  639   6.714   1.446   3.787  0.0114 -0.0140  0.2322
   80SOL    HW1  640   6.618   1.448   3.797 -0.0878 -0.5731 -0.5723
   80SOL    HW2  641   6.738   1.538   3.775 -0.4156  0.1336  0.4500
   81SOL     OW  642   6.093   1.779   6.155  0.0521  0.3049  0.2070
   81SOL    HW1  643   6.153   1.732   6.098 -1.3488 -4.7773  2.3982
   81SOL    HW2  644   6.147   1.808   6.229  0.9440  2.4720 -1.1964
   82SOL     OW  645   5.085   2.164   6.757  0.5023  0.1894  0.1098
   82SOL    HW1  646   5.084   2.068   6.755 -0.6616  0.1859 -0.7853
   82SOL    HW2  647   5.153   2.188   6.694  0.5259 -0.0618  0.0361
   83SOL     OW  648   2.770   0.094   3.983 -0.2531  0.0693 -0.2527
   83SOL    HW1  649   2.713   0.095   4.060 -0.5762 -0.4881 -0.4778
   83SOL    HW2  650   2.712   0.113   3.910 -0.1131 -0.2886 -0.4589
   84SOL     OW  651   2.733   4.550   1.939  0.0007  0.2498  0.2097
   84SOL    HW1  652   2.764   4.551   1.849  1.7648  1.1089  0.7976
   84SOL    HW2  653   2.637   4.546   1.931  0.1254  0.3350 -1.6817
   85SOL     OW  654   6.187   1.256   0.701  0.1930 -0.1515 -0.7394
   85SOL    HW1  655   6.179   1.240   0.607 -2.4445 -2.1376 -0.2910
   85SOL    HW2  656   6.236   1.180   0.733  0.8253  0.3724 -0.4560
   86SOL     OW  657   2.821   2.114   2.590  0.2409 -0.1155 -0.3692
   86SOL    HW1  658   2.907   2.149   2.568 -0.1077  0.1740 -1.3375
   86SOL    HW2  659   2.781   2.180   2.647  1.6558 -1.4575  2.3811
   87SOL     OW  660   6.350   4.231   2.231 -0.6306  0.0212  0.0845
   87SOL    HW1  661   6.381   4.321   2.228  0.5825 -0.3726  0.0399
   87SOL    HW2  662   6.312   4.216   2.144 -2.2891  0.9489  0.6115
   88SOL     OW  663   0.723   6.099   1.156  0.2208 -0.7095  0.4056
   88SOL    HW1  664   0.769   6.163   1.211 -1.0403  0.0026  0.6703
   88SOL    HW2  665   0.719   6.020   1.211  1.6243 -1.0000  0.1454
   89SOL     OW  666   1.994   3.811   4.271  0.2650  0.3883  0.5179
   89SOL    HW1  667   2.066   3.854   4.316  1.0221 -0.1624 -0.1437
   89SOL    HW2  668   1.935   3.783   4.342  1.9767 -1.4840  1.3331
   90SOL     OW  669   6.414   1.231   2.965  0.6326 -0.2966  0.1842
   90SOL    HW1  670   6.510   1.241   2.966  0.6901 -0.6125  2.6779
   90SOL    HW2  671   6.384   1.282   3.040 -1.3887  1.2678 -1.5702
   91SOL     OW  672   0.591   3.383   6.704  0.2752 -0.1077  0.4147
   91SOL    HW1  673   0.564   3.470   6.732  1.2426  0.4955 -0.5022
   91SOL    HW2  674   0.631   3.345   6.783 -2.0899 -0.6075  1.4798
   92SOL     OW  675   3.667   6.254   0.256  0.0653 -0.1315 -0.0757
   92SOL    HW1  676   3.723   6.307   0.312  0.5102 -2.0863  1.3822
   92SOL    HW2  677   3.579   6.263   0.294 -0.3569  1.3955 -1.2531
   93SOL     OW  678   2.078   1.393   1.003 -0.3607 -0.0491  0.1905
   93SOL    HW1  679   2.149   1.374   1.064  0.7038 -1.2964 -1.3395
   93SOL    HW2  680   2.070   1.488   1.003 -0.3281 -0.0126  2.1414
   94SOL     OW  681   4.734   4.691   6.688 -0.1599 -0.4617 -0.5098
   94SOL    HW1  682   4.780   4.771   6.665 -0.1356 -0.1049  0.6977
   94SOL    HW2  683   4.753   4.678   6.781 -0.1061 -1.9136 -0.6944
   95SOL     OW  684   4.782   4.690   0.184 -0.7945  0.2224  0.6495
   95SOL    HW1  685   4.857   4.704   0.242 -0.2857  0.2976 -0.0106
   95SOL    HW2  686   4.715   4.653   0.240 -0.2228  0.0460  1.2314
   96SOL     OW  687   0.040   2.495   3.113 -0.6107 -0.1388  0.8966
   96SOL    HW1  688   0.054   2.404   3.087  0.7786  0.4088 -0.4018
   96SOL    HW2  689  -0.022   2.529   3.049 -2.7118 -0.6479  2.5405
   97SOL     OW  690   4.647   0.186   6.182 -0.4242 -0.1885  0.1343
   97SOL    HW1  691   4.709   0.258   6.171 -2.5493  1.8524  0.6503
   97SOL    HW2  692   4.567   0.217   6.140 -1.1572 -2.7117 -0.5076
   98SOL     OW  693   3.859   3.070   5.584 -0.4097  0.2527 -0.2478
   98SOL    HW1  694   3.806   3.138   5.543 -0.2531  0.8683  0.5456
   98SOL    HW2  695   3.812   3.047   5.665  0.2425  0.4149  0.1889
   99SOL     OW  696   6.183   6.454   5.284  0.7635 -1.1771 -0.5318
   99SOL    HW1  697   6.181   6.420   5.195 -0.5038 -0.1935 -0.9107
   99SOL    HW2  698   6.168   6.378   5.339 -1.7014 -1.3613 -1.3470
  100SOL     OW  699   0.218   4.841   6.259 -0.1291  0.1207 -0.4324
  100SOL    HW1  700   0.277   4.905   6.219 -0.9050  0.3818 -1.1669
  100SOL    HW2  701   0.273   4.764   6.273  1.0047  1.1414  1.0845
  101SOL     OW  702   0.911   5.582   2.085 -0.4794  0.7098  0.1616
  101SOL    HW1  703   0.941   5.671   2.106  0.1884  0.3715  0.6275
  101SOL    HW2  704   0.819   5.594   2.060 -0.7048  1.3904  1.2684
  102SOL     OW  705   3.125   1.086   6.381 -0.2961 -0.1440  0.1765
  102SOL    HW1  706   3.064   1.050   6.317  0.6654 -0.3236 -0.6699
  102SOL    HW2  707   3.195   1.125   6.328  0.3261  0.0557  1.1164
  103SOL     OW  708   5.636   5.444   5.176 -0.6463 -0.0975 -0.1696
  103SOL    HW1  709   5.614   5.508   5.243  0.5849  1.1563 -0.9105
  103SOL    HW2  710   5.724   5.469   5.147 -0.9113 -0.9646 -1.8368
  104SOL     OW  711   1.634   3.804   3.111 -0.2030  0.5617 -0.0780
  104SOL    HW1  712   1.715   3.854   3.126 -1.4034  3.1622 -1.6364
  104SOL    HW2  713   1.649   3.759   3.028  0.2069 -0.2492  0.4261
  105SOL     OW  714   0.258   3.154   2.253 -0.0662  0.5329  0.0784
  105SOL    HW1  715   0.200   3.200   2.192 -0.4108 -3.8894 -3.4526
  105SOL    HW2  716   0.200   3.099   2.305  0.6540 -0.5511 -0.2403
  106SOL     OW  717   5.550   5.800   0.152  0.6537  0.0325 -0.5143
  106SOL    HW1  718   5.522   5.720   0.197 -0.3110  0.1326 -0.9058
  106SOL    HW2  719   5.619   5.772   0.092  0.9868 -0.3328  0.0340
  107SOL     OW  720   4.371   4.412   5.546  0.2350 -0.8298  0.1023
  107SOL    HW1  721   4.422   4.459   5.480 -1.2749  0.3844 -0.2678
  107SOL    HW2  722   4.288   4.394   5.503 -0.6202 -0.3945  1.5183
  108SOL     OW  723   0.012   5.706   1.557  0.4249  0.1057 -0.3987
  108SOL    HW1  724  -0.077   5.740   1.548 -0.0062 -1.2239 -1.5767
  108SOL    HW2  725   0.067   5.774   1.520 -0.4458 -0.4947 -3.0083
  109SOL     OW  726   3.640   4.297   6.346  0.6149 -0.1556  0.1456
  109SOL    HW1  727   3.683   4.379   6.370 -1.5177  1.5549 -1.5075
  109SOL    HW2  728   3.557   4.298   6.394 -0.0391 -0.6617 -0.9485
  110SOL     OW  729   2.567   3.671   5.334 -0.0025 -0.2336 -0.5459
  110SOL    HW1  730   2.601   3.583   5.353  0.2394  0.2866  1.7876
  110SOL    HW2  731   2.645   3.722   5.312  0.2049 -0.0499  0.5566
  111SOL     OW  732   4.877   2.499   3.171 -0.4545 -0.4063 -0.0702
  111SOL    HW1  733   4.822   2.577   3.165  0.7884  0.5701  0.7161
  111SOL    HW2  734   4.872   2.459   3.084 -0.3012  1.1291 -0.8152
  112SOL     OW  735   4.039   3.382   5.097 -0.4417 -0.6081  0.3855
  112SOL    HW1  736   3.965   3.432   5.130 -0.7069 -0.4685 -0.3995
  112SOL    HW2  737   4.033   3.298   5.142 -1.6531 -0.9560 -0.3948
  113SOL     OW  738   2.883   3.049   0.735 -0.2181 -0.1430  0.5026
  113SOL    HW1  739   2.811   3.001   0.694  0.1141 -0.8518  0.7318
  113SOL    HW2  740   2.932   3.087   0.662  0.6582 -1.8087  0.1865
  114SOL     OW  741   5.640   2.551   4.802  0.3030 -0.2159  0.2679
  114SOL    HW1  742   5.668   2.633   4.762  1.7920 -0.7999  0.0427
  114SOL    HW2  743   5.717   2.494   4.797 -0.0896 -0.9931  2.1283
  115SOL     OW  744   2.705   1.766   4.893  0.1148 -0.0573 -0.0504
  115SOL    HW1  745   2.794   1.756   4.859 -0.3921 -1.3020 -1.1236
  115SOL    HW2  746   2.672   1.845   4.851  0.7118  0.4235  0.3708
  116SOL     OW  747   6.215   2.471   3.467 -0.2474  0.2251 -0.0102
  116SOL    HW1  748   6.241   2.428   3.549 -0.1865 -0.3051 -0.3017
  116SOL    HW2  749   6.237   2.563   3.480 -1.1452  0.3162  0.9418
  117SOL     OW  750   1.544   6.192   4.731  0.5131 -0.0557 -0.1860
  117SOL    HW1  751   1.558   6.259   4.798  0.5622  0.3002 -0.5489
  117SOL    HW2  752   1.627   6.187   4.684  0.6583 -0.7028  0.1336
  118SOL     OW  753   3.398   6.157   1.135  0.1751  0.3894  0.5502
  118SOL    HW1  754   3.405   6.063   1.148  1.1260 -0.4435 -4.1146
  118SOL    HW2  755   3.467   6.194   1.190 -1.2352 -1.2881  3.7295
  119SOL     OW  756   5.243   3.224   0.737  0.0273 -0.0054  0.0312
  119SOL    HW1  757   5.199   3.282   0.799 -1.0133 -1.0242  0.2795
  119SOL    HW2  758   5.336   3.247   0.744 -0.1179  0.1501  1.6973
  120SOL     OW  759   4.821   3.409   5.531 -0.6848  0.5794 -0.4979
  120SOL    HW1  760   4.745   3.380   5.582 -1.3695  0.9614 -1.2903
  120SOL    HW2  761   4.809   3.368   5.445  0.1392  0.4449 -0.5569
  121SOL     OW  762   2.868   4.480   0.041 -0.5279 -0.1865 -0.3863
  121SOL    HW1  763   2.809   4.508   0.111  1.9155  3.6108  0.4590
  121SOL    HW2  764   2.842   4.531  -0.035 -0.3214 -0.8856 -0.9381
  122SOL     OW  765   1.163   5.638   6.521 -0.2270 -0.0857  0.1206
  122SOL    HW1  766   1.185   5.547   6.501  1.4695  0.2737  0.1806
  122SOL    HW2  767   1.094   5.660   6.459 -0.8303 -1.4592  0.2509
  123SOL     OW  768   0.710   4.513   5.847  0.2791 -0.4105  0.6163
  123SOL    HW1  769   0.702   4.427   5.888 -0.3743 -0.0552  1.2549
  123SOL    HW2  770   0.720   4.574   5.920 -0.2263  0.1603  0.2211
  124SOL     OW  771   6.502   5.197   5.337 -0.5003 -0.7290 -0.1122
  124SOL    HW1  772   6.542   5.276   5.371  1.8070 -1.8531  0.0021
  124SOL    HW2  773   6.443   5.167   5.406 -0.4297  0.1863  0.3533
  125SOL     OW  774   5.411   0.147   3.162  0.3937  0.2676  0.3015
  125SOL    HW1  775   5.342   0.190   3.112  0.5771  1.1906  0.8000
  125SOL    HW2  776   5.413   0.057   3.130  0.0594  0.6587 -0.8587
  126SOL     OW  777   1.948   1.596   4.139 -0.0930 -0.6657 -0.0298
  126SOL    HW1  778   1.884   1.534   4.104 -0.2300 -1.2158  1.1565
  126SOL    HW2  779   1.904   1.636   4.214  0.6000 -0.3397  0.2091
  127SOL     OW  780   2.941   1.901   6.414 -0.0789  0.1077  0.0185
  127SOL    HW1  781   2.976   1.812   6.414  2.9109  1.1571  0.2994
  127SOL    HW2  782   2.931   1.923   6.506 -0.9535  0.0433 -0.0520
  128SOL     OW  783   2.696   2.088   3.204 -0.2714  0.0393 -0.3466
  128SOL    HW1  784   2.618   2.034   3.190 -0.8376 -0.8019  4.4356
  128SOL    HW2  785   2.769   2.026   3.202 -0.4948 -0.3161  1.2928
  129SOL     OW  786   4.325   0.982   1.451 -0.3177  0.2270  0.2045
  129SOL    HW1  787   4.314   0.929   1.372 -0.4769  1.5038 -0.6651
  129SOL    HW2  788   4.349   0.920   1.519 -0.7517 -0.9831 -0.7161
  130SOL     OW  789   3.994   0.216   0.950  0.4716 -0.4491 -0.1979
  130SOL    HW1  790   3.952   0.224   0.865 -0.7068 -0.7515  0.3323
  130SOL    HW2  791   3.922   0.213   1.012  1.3202  0.6909  0.9066
  131SOL     OW  792   5.370   3.394   5.034 -0.1247 -0.4280 -1.2846
  131SOL    HW1  793   5.345   3.361   4.948  1.1139  2.1215 -2.7409
  131SOL    HW2  794   5.296   3.449   5.061  0.1161 -0.0234 -1.4398
  132SOL     OW  795   2.478   3.428   0.513  0.7061 -0.3909  0.3444
  132SOL    HW1  796   2.456   3.361   0.448  0.5125 -0.2938  0.3105
  132SOL    HW2  797   2.559   3.396   0.553  1.0011 -0.2962 -0.1637
  133SOL     OW  798   2.597   2.256   4.751  0.0116  0.0959 -0.4363
  133SOL    HW1  799   2.668   2.298   4.703  1.9361 -1.5714  0.8061
  133SOL    HW2  800   2.568   2.323   4.814  0.8734  0.6213 -0.5750
  134SOL     OW  801   3.735   3.273   3.293 -0.0903  0.6718 -0.0418
  134SOL    HW1  802   3.649   3.263   3.252  0.1637  0.0695 -0.4419
  134SOL    HW2  803   3.797   3.250   3.224  0.3607  0.0128  0.5688
  135SOL     OW  804   2.136   2.754   3.271 -0.2755  0.1766 -0.1113
  135SOL    HW1  805   2.093   2.786   3.350  1.1219  1.7374  0.0665
  135SOL    HW2  806   2.111   2.662   3.266  0.1899 -0.1604  2.5585
  136SOL     OW  807   1.827   2.382   4.063  0.0364 -0.0553  0.5484
  136SOL    HW1  808   1.806   2.333   4.143  3.3334 -1.3314  0.7946
  136SOL    HW2  809   1.757   2.448   4.056 -2.4639 -2.3082  2.3333
  137SOL     OW  810   6.205   1.805   6.666 -0.6028  0.0541  0.0893
  137SOL    HW1  811   6.167   1.746   6.601 -0.7916  0.6106 -0.3148
  137SOL    HW2  812   6.202   1.891   6.625  4.4062 -0.2437 -1.5186
  138SOL     OW  813   2.046   5.430   3.986 -0.5778  0.2927  0.2074
  138SOL    HW1  814   2.076   5.515   4.018  0.3983 -0.1087  0.4384
  138SOL    HW2  815   2.098   5.367   4.037  1.0299 -0.3969 -2.1082
  139SOL     OW  816   6.697   4.730   5.236 -0.1400 -0.0899  0.5276
  139SOL    HW1  817   6.689   4.793   5.165 -1.2345 -0.4805  0.2934
  139SOL    HW2  818   6.732   4.780   5.309  2.0671  0.0987 -0.5675
  140SOL     OW  819   1.342   2.437   4.521  0.1150 -0.4185 -0.0434
  140SOL    HW1  820   1.357   2.431   4.427 -0.1628  1.7750 -0.2936
  140SOL    HW2  821   1.247   2.447   4.530  0.0982 -1.0028  0.5086
  141SOL     OW  822   2.536   6.252   4.684 -0.3118 -0.1890 -0.1414
  141SOL    HW1  823   2.529   6.203   4.601 -0.8374 -0.6503  0.1669
  141SOL    HW2  824   2.618   6.222   4.722 -0.3137 -0.3483 -0.2609
  142SOL     OW  825   0.985   3.154   0.318 -0.2136  0.2777 -0.6039
  142SOL    HW1  826   0.983   3.098   0.241  0.8437 -0.6562  0.0273
  142SOL    HW2  827   1.061   3.125   0.368 -1.6525 -0.0878  1.5047
  143SOL     OW  828   1.193   1.309   5.700  0.0427 -0.0996 -0.2722
  143SOL    HW1  829   1.171   1.383   5.758  0.1007  0.8793 -1.4693
  143SOL    HW2  830   1.239   1.248   5.757 -0.3705  0.5904  0.8530
  144SOL     OW  831   4.331   1.854   1.068  0.4551 -0.4631 -0.5033
  144SOL    HW1  832   4.298   1.800   0.996 -0.6888 -1.4860  0.7323
  144SOL    HW2  833   4.263   1.919   1.082  0.9132  0.0569 -0.6696
  145SOL     OW  834   5.484   1.084   5.180 -0.0386 -0.2733 -0.3363
  145SOL    HW1  835   5.488   0.989   5.167 -2.5555 -0.7774  1.6202
  145SOL    HW2  836   5.421   1.115   5.115  0.2262 -0.0725 -0.4962
  146SOL     OW  837   1.705   4.758   6.408 -0.0414 -0.2100 -0.2625
  146SOL    HW1  838   1.719   4.780   6.500 -0.7320  1.2131 -0.4751
  146SOL    HW2  839   1.611   4.742   6.401  0.0380 -0.5276 -0.6904
  147SOL     OW  840   0.066   6.630   6.499 -0.6163  0.7657 -0.6594
  147SOL    HW1  841  -0.011   6.685   6.483 -1.5435 -0.5725 -1.0269
  147SOL    HW2  842   0.032   6.556   6.551  0.7475  0.9349  0.5386
  148SOL     OW  843   5.313   1.148   0.637 -0.3436  0.2437 -0.6121
  148SOL    HW1  844   5.335   1.062   0.600  0.5305 -1.1356  2.7725
  148SOL    HW2  845   5.397   1.195   0.639  0.0173 -0.4039  1.1673
  149SOL     OW  846   3.992   1.668   1.976 -1.1618 -0.1539  0.8067
  149SOL    HW1  847   4.054   1.741   1.975  3.2638 -3.4418 -1.6688
  149SOL    HW2  848   4.004   1.627   2.061 -0.5386 -0.2188  0.6946
  150SOL     OW  849   6.435   6.148   5.493 -0.7629 -0.2067 -0.5347
  150SOL    HW1  850   6.496   6.074   5.489 -2.3356 -1.7106  1.1948
  150SOL    HW2  851   6.411   6.164   5.402  0.9167 -0.6604 -1.1030
  151SOL     OW  852   0.909   2.209   3.288  0.1843  0.0669  0.8341
  151SOL    HW1  853   0.908   2.114   3.285  0.6928  0.0620 -1.9464
  151SOL    HW2  854   0.991   2.231   3.332 -0.0072 -0.7547  1.6272
  152SOL     OW  855   3.176   0.117   1.334 -0.0772  0.1487  0.5826
  152SOL    HW1  856   3.123   0.162   1.400 -0.9303 -0.7635  0.5458
  152SOL    HW2  857   3.114   0.097   1.264  0.5292 -0.1116  0.1129
  153SOL     OW  858   5.086   6.620   5.852  0.1588  0.1807 -0.4114
  153SOL    HW1  859   5.164   6.640   5.904 -0.3831 -1.1430  1.0111
  153SOL    HW2  860   5.074   6.525   5.862 -0.0639 -0.1233 -2.9079
  154SOL     OW  861   4.334   1.650   6.598 -0.4303  0.3541  0.1541
  154SOL    HW1  862   4.419   1.695   6.604 -1.2412  2.0085 -0.2960
  154SOL    HW2  863   4.338   1.603   6.514 -0.2413  1.0466 -0.2316
  155SOL     OW  864   0.429   0.361   6.601 -0.1848  0.3035 -0.2479
  155SOL    HW1  865   0.441   0.451   6.632  1.1174 -0.3756  1.2978
  155SOL    HW2  866   0.447   0.366   6.507  0.4658  1.5588 -0.0793
  156SOL     OW  867   6.024   3.348   1.010  0.2414  0.3117 -0.4854
  156SOL    HW1  868   6.076   3.333   0.930 -0.1970  1.3678 -0.9823
  156SOL    HW2  869   6.085   3.333   1.081  0.7217 -0.3644 -1.0226
  157SOL     OW  870   0.022   5.582   5.793  0.2158 -0.4568  0.1445
  157SOL    HW1  871  -0.039   5.567   5.866 -0.0525  1.4819  0.3707
  157SOL    HW2  872  -0.035   5.596   5.717  0.3400  1.1892  0.3234
  158SOL     OW  873   2.515   3.697   1.420 -0.4333 -0.1573 -0.4035
  158SOL    HW1  874   2.535   3.617   1.468 -1.4786  1.2311  2.6576
  158SOL    HW2  875   2.460   3.668   1.347  0.1768 -2.3188 -0.0778
  159SOL     OW  876   1.603   3.962   4.739  0.0344  0.1053 -0.4540
  159SOL    HW1  877   1.567   3.874   4.723 -0.0172  0.2380 -1.0922
  159SOL    HW2  878   1.685   3.945   4.785 -0.7723 -0.2024  0.9316
  160SOL     OW  879   4.663   5.126   2.225  0.3876 -0.3389  0.1322
  160SOL    HW1  880   4.572   5.127   2.253 -1.0919 -0.3706 -3.9988
  160SOL    HW2  881   4.710   5.173   2.295 -3.1768  1.9896  1.2473
  161SOL     OW  882   3.271   4.883   4.375  0.2730  0.1893 -0.4857
  161SOL    HW1  883   3.228   4.950   4.322 -0.6139  0.9034  1.0545
  161SOL    HW2  884   3.276   4.806   4.318 -1.2384  0.7226 -1.3866
  162SOL     OW  885   1.845   0.366   4.769  0.0902  0.6569 -0.2951
  162SOL    HW1  886   1.927   0.317   4.766 -1.1774 -1.6468  0.8006
  162SOL    HW2  887   1.841   0.401   4.858 -0.6255 -0.1634 -0.0033
  163SOL     OW  888   3.157   0.848   1.328  1.1003  0.4833 -0.3783
  163SOL    HW1  889   3.134   0.941   1.334 -1.0884 -0.0178 -0.2182
  163SOL    HW2  890   3.154   0.828   1.235  2.9333  0.8362 -0.5558
  164SOL     OW  891   1.172   0.601   3.887  0.0317  0.1373  0.6035
  164SOL    HW1  892   1.131   0.619   3.802  1.7500  0.7923 -0.1197
  164SOL    HW2  893   1.142   0.672   3.944 -0.1035  0.4161  0.1848
  165SOL     OW  894   6.344   5.707   0.564  0.2066  0.2736 -0.5036
  165SOL    HW1  895   6.263   5.700   0.614  0.8704  1.5189  0.8312
  165SOL    HW2  896   6.392   5.627   0.585  0.1815  0.4705  0.3439
  166SOL     OW  897   1.586   0.805   3.685  0.1008  0.0191  0.8343
  166SOL    HW1  898   1.563   0.766   3.601  0.7074  1.0360  0.1771
  166SOL    HW2  899   1.505   0.846   3.715 -0.4694 -1.4570  1.4018
  167SOL     OW  900   5.875   0.757   6.060  0.0607 -0.4998 -0.2589
  167SOL    HW1  901   5.898   0.846   6.033  0.5402 -0.4316  0.3500
  167SOL    HW2  902   5.847   0.714   5.979  0.8834 -0.1275 -0.7588
  168SOL     OW  903   4.390   1.792   5.309  0.8072 -0.3132 -0.2282
  168SOL    HW1  904   4.346   1.869   5.345  0.3432 -0.5307 -0.3205
  168SOL    HW2  905   4.367   1.721   5.370  0.5719 -0.5425 -0.5852
  169SOL     OW  906   0.641   1.259   3.522 -0.1994 -0.0349  0.1977
  169SOL    HW1  907   0.718   1.315   3.510 -0.1304 -0.4222 -1.3011
  169SOL    HW2  908   0.574   1.296   3.464  0.1854 -2.0630 -1.6690
  170SOL     OW  909   3.918   5.422   4.865 -0.2204  0.7582  0.3955
  170SOL    HW1  910   3.969   5.388   4.791 -0.6997  1.5263 -0.3060
  170SOL    HW2  911   3.983   5.458   4.925  0.1688  0.2093  0.3106
  171SOL     OW  912   0.436   6.354   3.336  0.0132 -0.3005  0.2982
  171SOL    HW1  913   0.531   6.349   3.335  0.0364 -0.0050  0.7798
  171SOL    HW2  914   0.415   6.438   3.295  0.0300  0.3572  1.5835
  172SOL     OW  915   1.059   1.268   4.830  0.2805  0.1138 -0.1954
  172SOL    HW1  916   1.112   1.224   4.896 -0.9685 -3.0963 -1.1492
  172SOL    HW2  917   0.998   1.322   4.880  2.3650  1.4764  1.0086
  173SOL     OW  918   5.664   3.972   2.419 -0.1305  0.1686 -0.6112
  173SOL    HW1  919   5.587   3.995   2.470 -0.1023  1.2785 -1.0294
  173SOL    HW2  920   5.738   4.007   2.470  0.1650 -1.3647  0.0597
  174SOL     OW  921   3.610   6.220   6.696  0.8432 -0.4179  0.3996
  174SOL    HW1  922   3.621   6.167   6.616 -4.0886  0.2968 -1.0910
  174SOL    HW2  923   3.584   6.156   6.763 -0.4137 -0.5278 -0.1475
  175SOL     OW  924   1.345   4.975   1.950 -0.9693  0.0755  0.2417
  175SOL    HW1  925   1.264   5.006   1.991 -0.2964 -0.8297  2.4226
  175SOL    HW2  926   1.360   4.889   1.988  1.2666  0.4248  0.3078
  176SOL     OW  927   4.508   4.998   6.657  0.0923 -0.5044  0.1890
  176SOL    HW1  928   4.578   5.048   6.700 -2.0011  2.1588  0.8034
  176SOL    HW2  929   4.509   5.029   6.567 -1.0560  0.5509  0.5121
  177SOL     OW  930   2.568   3.125   1.542  0.1815 -0.0700 -0.0462
  177SOL    HW1  931   2.596   3.071   1.616 -0.1718  0.6098  0.5962
  177SOL    HW2  932   2.475   3.104   1.531  0.2489 -0.2158 -0.3358
  178SOL     OW  933   3.988   1.091   3.587 -0.0669  0.0506 -0.4430
  178SOL    HW1  934   3.928   1.020   3.567  0.0778 -0.1833 -0.0531
  178SOL    HW2  935   4.033   1.063   3.667 -0.1104  0.6355 -0.2069
  179SOL     OW  936   4.747   5.801   2.300  0.3351 -0.0571 -0.1918
  179SOL    HW1  937   4.677   5.737   2.298 -0.1232  0.3938 -3.1969
  179SOL    HW2  938   4.812   5.768   2.238  0.6743  1.6899 -0.8361
  180SOL     OW  939   6.262   5.417   1.098 -0.3439  0.4156 -0.3759
  180SOL    HW1  940   6.192   5.398   1.160  0.3213  0.9153  0.5350
  180SOL    HW2  941   6.217   5.423   1.013 -1.1687 -0.8838 -0.0580
  181SOL     OW  942   3.524   2.296   5.242  0.4479  0.2016  0.2455
  181SOL    HW1  943   3.491   2.376   5.283  0.7587  0.5478 -0.1760
  181SOL    HW2  944   3.498   2.304   5.150 -0.7831 -0.8508  0.4738
  182SOL     OW  945   1.278   2.746   4.402 -0.0266  0.0297 -0.4976
  182SOL    HW1  946   1.265   2.754   4.307 -0.6719  0.4191 -0.3893
  182SOL    HW2  947   1.369   2.718   4.412  1.0991  3.0279 -1.1399
  183SOL     OW  948   0.005   6.130   1.977  0.2288 -0.1163 -0.4347
  183SOL    HW1  949   0.023   6.036   1.972 -0.4206 -0.4826  2.3733
  183SOL    HW2  950   0.063   6.162   2.046 -0.2659  1.3571 -0.6611
  184SOL     OW  951   2.111   0.894   3.387  0.1924  0.2074 -0.4766
  184SOL    HW1  952   2.038   0.854   3.434 -1.9415  3.0792 -1.0614
  184SOL    HW2  953   2.091   0.879   3.294  1.1259 -0.1891 -0.6204
  185SOL     OW  954   1.006   6.541   4.782 -0.1615 -0.2669 -0.1887
  185SOL    HW1  955   1.091   6.506   4.808  0.8340  0.8749 -1.7194
  185SOL    HW2  956   1.014   6.636   4.796 -1.2116 -0.1436 -0.3008
  186SOL     OW  957   3.189   6.023   2.117  0.2737 -0.0946 -0.1611
  186SOL    HW1  958   3.108   5.989   2.155  0.9419 -1.6453 -0.0066
  186SOL    HW2  959   3.240   5.944   2.098  1.1520  0.7848 -1.5962
  187SOL     OW  960   3.103   5.891   5.658  0.0579 -0.0888 -0.1575
  187SOL    HW1  961   3.159   5.953   5.610 -0.0509  0.6643  0.6526
  187SOL    HW2  962   3.156   5.864   5.733 -0.2691 -0.1913  0.0403
  188SOL     OW  963   4.371   0.407   4.454  0.0350 -0.2621 -0.3013
  188SOL    HW1  964   4.346   0.490   4.495  1.5697  0.0801  0.0245
  188SOL    HW2  965   4.347   0.340   4.517  2.0383  0.2355  1.1025
  189SOL     OW  966   5.543   0.005   0.741  0.0480  0.2531  0.1002
  189SOL    HW1  967   5.529   0.044   0.654  0.6685  1.2554  0.4272
  189SOL    HW2  968   5.456  -0.024   0.768 -0.3714  1.0428 -0.3553
  190SOL     OW  969   5.160   4.006   5.430 -0.2843 -0.0990  0.0069
  190SOL    HW1  970   5.145   4.091   5.389  0.8209  0.3321  0.4615
  190SOL    HW2  971   5.243   3.976   5.394  0.4206  0.0230  1.4688
  191SOL     OW  972   0.107   6.295   2.227  0.0571 -0.4229 -0.4740
  191SOL    HW1  973   0.026   6.337   2.257  0.9685  0.7868  0.4094
  191SOL    HW2  974   0.150   6.362   2.174  1.5647 -0.1547  0.9932
  192SOL     OW  975   1.781   2.357   2.412 -0.5539  0.0782 -0.3104
  192SOL    HW1  976   1.699   2.327   2.373 -0.7490  0.2825 -0.0559
  192SOL    HW2  977   1.837   2.377   2.337 -0.3289 -1.1539 -0.4884
  193SOL     OW  978   5.516   4.988   3.655 -0.2685  0.4532  0.1758
  193SOL    HW1  979   5.552   4.996   3.743  0.7755  1.1408 -0.3005
  193SOL    HW2  980   5.483   4.898   3.651 -0.0236  0.3103  1.1500
  194SOL     OW  981   2.697   2.242   5.773  0.5140 -0.5224 -0.2308
  194SOL    HW1  982   2.681   2.278   5.686  1.3374 -2.0479 -1.0641
  194SOL    HW2  983   2.610   2.230   5.811  0.0483 -1.2785 -1.4741
  195SOL     OW  984   6.721   0.299   3.122  0.1200 -0.1644  0.2212
  195SOL    HW1  985   6.790   0.243   3.158  0.4680  1.2446  1.8667
  195SOL    HW2  986   6.749   0.388   3.142 -1.6630  0.4980 -0.0429
  196SOL     OW  987   0.432   6.582   2.900 -0.6566 -0.0917 -0.8257
  196SOL    HW1  988   0.394   6.502   2.865  0.6686 -0.8824 -0.5589
  196SOL    HW2  989   0.428   6.572   2.995 -0.1178 -0.0456 -0.7904
  197SOL     OW  990   3.721   0.299   1.809 -0.2174  0.4214  0.1962
  197SOL    HW1  991   3.761   0.268   1.890 -0.6943  1.9751  1.0540
  197SOL    HW2  992   3.685   0.220   1.769  0.2400 -0.4136  1.3692
  198SOL     OW  993   6.068   6.481   0.069 -0.0721  0.0787 -0.3842
  198SOL    HW1  994   5.974   6.463   0.069 -0.2730  0.9683  0.8423
  198SOL    HW2  995   6.109   6.395   0.082 -0.6299 -0.4874 -2.0986
  199SOL     OW  996   6.402   3.162   3.369 -0.0761 -0.4919 -0.4312
  199SOL    HW1  997   6.440   3.210   3.296  0.6843  0.8046  0.7667
  199SOL    HW2  998   6.471   3.100   3.395  0.0061 -0.3202 -0.2390
  200SOL     OW  999   4.203   2.140   3.670  0.0882  0.0589  0.3001
  200SOL    HW1 1000   4.207   2.060   3.722 -0.4506 -1.0815 -1.3107
  200SOL    HW2 1001   4.290   2.150   3.632  0.3367  0.6038  1.0023
  201SOL     OW 1002   6.533   4.099   3.618  0.6056 -0.2316 -0.3026
  201SOL    HW1 1003   6.464   4.166   3.611  0.6851 -0.2375 -1.2123
  201SOL    HW2 1004   6.587   4.129   3.691  1.0923  1.1408 -1.1812
  202SOL     OW 1005   1.741   1.550   5.669  0.1606 -0.0116  0.3411
  202SOL    HW1 1006   1.825   1.592   5.686  0.6862 -0.7429 -0.3321
  202SOL    HW2 1007   1.746   1.466   5.715 -0.9436  0.6868  1.8154
  203SOL     OW 1008   5.730   6.213   4.824  0.3143 -0.3346  0.0967
  203SOL    HW1 1009   5.720   6.306   4.804 -1.1038 -0.5412 -0.2399
  203SOL    HW2 1010   5.710   6.169   4.741 -0.5753 -0.9956  0.6547
  204SOL     OW 1011   5.447   0.877   1.391  0.3343  0.3698 -0.4753
  204SOL    HW1 1012   5.510   0.866   1.320  0.6907  0.1247 -0.1290
  204SOL    HW2 1013   5.463   0.802   1.449  1.7707  1.8543  1.1749
  205SOL     OW 1014   0.643   6.089   3.567 -0.8364  0.2761  0.4800
  205SOL    HW1 1015   0.688   6.173   3.568 -2.2551  1.1977 -2.0674
  205SOL    HW2 1016   0.568   6.101   3.625 -1.3906  1.0372 -0.3692
  206SOL     OW 1017   6.097   2.776   0.153 -0.1798  0.1218 -0.0577
  206SOL    HW1 1018   6.103   2.704   0.216 -0.1687  0.6954  0.6209
  206SOL    HW2 1019   6.140   2.849   0.198 -0.4638  0.6277 -0.6080
  207SOL     OW 1020   6.738   3.281   1.699  0.6099 -0.0459  0.4506
  207SOL    HW1 1021   6.800   3.346   1.731  0.5403 -0.4083  1.3715
  207SOL    HW2 1022   6.792   3.211   1.662  0.6640  1.0130 -1.5867
  208SOL     OW 1023   4.647   5.825   4.464 -0.5686 -0.8078 -0.3584
  208SOL    HW1 1024   4.634   5.909   4.421 -2.1288 -0.8987 -0.1118
  208SOL    HW2 1025   4.663   5.847   4.555  2.2032 -0.6474 -0.7914
  209SOL     OW 1026   0.751   2.336   5.287  0.4183 -0.1284 -0.4929
  209SOL    HW1 1027   0.747   2.241   5.278  2.0120 -0.4232  1.1927
  209SOL    HW2 1028   0.834   2.361   5.245  0.4124  0.3985 -0.2045
  210SOL     OW 1029   4.287   1.603   5.507  0.1354  0.2693 -0.0437
  210SOL    HW1 1030   4.256   1.512   5.511  1.0102 -0.0222  0.3559
  210SOL    HW2 1031   4.354   1.608   5.574 -0.0136  1.2661  0.0409
  211SOL     OW 1032   2.644   5.136   0.234 -0.2415 -0.4426 -0.9366
  211SOL    HW1 1033   2.632   5.112   0.325 -1.5850 -0.6160 -1.1279
  211SOL    HW2 1034   2.675   5.226   0.237 -0.9967 -0.1858 -0.3023
  212SOL     OW 1035   3.693   3.165   3.888 -0.0817 -0.0629 -0.0662
  212SOL    HW1 1036   3.671   3.082   3.845 -1.6239  0.5164 -0.4368
  212SOL    HW2 1037   3.629   3.172   3.959  2.6374 -1.2100  2.7366
  213SOL     OW 1038   2.149   2.815   3.958 -0.1239 -0.4185 -0.0530
  213SOL    HW1 1039   2.116   2.766   4.033  1.1134  0.0771  0.8477
  213SOL    HW2 1040   2.239   2.782   3.945  0.8272  1.6941  0.7217
  214SOL     OW 1041   2.581   5.530   0.023  0.4124 -0.5071 -0.0369
  214SOL    HW1 1042   2.522   5.554   0.094 -1.0787 -0.8681 -1.0963
  214SOL    HW2 1043   2.587   5.609  -0.031  1.4404 -0.2730  0.3881
  215SOL     OW 1044   6.631   0.795   0.198  0.4177  0.1603  0.3384
  215SOL    HW1 1045   6.602   0.714   0.240  1.0559 -0.2246  0.0494
  215SOL    HW2 1046   6.682   0.840   0.265  2.7785 -1.1868 -0.4348
  216SOL     OW 1047   1.239   3.053   0.595  0.6769 -0.0166  0.5994
  216SOL    HW1 1048   1.214   3.121   0.658  1.3368  1.0121 -0.2175
  216SOL    HW2 1049   1.293   2.993   0.646 -2.1088 -1.5117  2.0387
  217SOL     OW 1050   1.457   4.010   2.023 -0.4084 -0.1210 -0.2394
  217SOL    HW1 1051   1.492   3.921   2.031 -0.2725 -0.0465 -0.0022
  217SOL    HW2 1052   1.440   4.038   2.113 -0.0677  0.2459 -0.2886
  218SOL     OW 1053   4.662   1.623   2.222 -0.0785  0.5259 -0.7950
  218SOL    HW1 1054   4.605   1.555   2.257  0.3043 -1.3288 -3.4484
  218SOL    HW2 1055   4.602   1.692   2.193 -0.6441  0.4088  0.0782
  219SOL     OW 1056   1.409   5.703   0.797 -0.2627  0.0011  0.1080
  219SOL    HW1 1057   1.487   5.753   0.821  0.3247 -0.9092  0.1753
  219SOL    HW2 1058   1.356   5.763   0.745  1.8641 -0.1977 -2.5070
  220SOL     OW 1059   6.208   6.728   1.421 -0.4316  0.2241 -0.7215
  220SOL    HW1 1060   6.219   6.677   1.502 -1.0452  2.8907  1.1897
  220SOL    HW2 1061   6.159   6.670   1.363 -0.7344 -1.5023  1.1449
  221SOL     OW 1062   4.190   1.209   1.127 -0.6037 -0.1194  0.2639
  221SOL    HW1 1063   4.246   1.260   1.068 -0.2357 -0.1645  0.5725
  221SOL    HW2 1064   4.159   1.136   1.073 -1.5430  0.6935 -0.3290
  222SOL     OW 1065   6.217   0.751   4.081 -0.3898  0.1698 -0.3282
  222SOL    HW1 1066   6.227   0.843   4.056 -1.8435 -0.0235 -1.7972
  222SOL    HW2 1067   6.282   0.738   4.150  0.4332  2.0655 -0.6729
  223SOL     OW 1068   4.890   3.195   3.841  0.3083  0.0746  0.0928
  223SOL    HW1 1069   4.869   3.102   3.841 -0.5558  0.2309  1.4712
  223SOL    HW2 1070   4.805   3.238   3.834  0.6639  0.7544 -0.1118
  224SOL     OW 1071   5.551   1.112   4.424  0.4875  0.0529  0.0731
  224SOL    HW1 1072   5.583   1.142   4.339  1.4105  0.5862  0.5912
  224SOL    HW2 1073   5.460   1.139   4.426  0.8375  1.3583 -0.1682
  225SOL     OW 1074   5.483   3.152   2.362  0.5584 -0.1658 -0.1268
  225SOL    HW1 1075   5.496   3.218   2.430  1.0918  0.1699 -0.5460
  225SOL    HW2 1076   5.489   3.069   2.408  1.5069  0.0432  0.1511
  226SOL     OW 1077   1.423   1.581   4.078 -0.1974 -0.7098 -0.7309
  226SOL    HW1 1078   1.439   1.674   4.096  0.0284 -0.6775 -1.0804
  226SOL    HW2 1079   1.445   1.537   4.159 -1.3915 -0.3530 -0.1862
  227SOL     OW 1080   5.574   2.660   4.487  0.4015  0.5821 -0.4191
  227SOL    HW1 1081   5.598   2.684   4.577  0.8281  1.1150 -0.6663
  227SOL    HW2 1082   5.481   2.682   4.480  0.0725 -0.5330  0.2371
  228SOL     OW 1083   0.050   1.354   4.059 -0.0942  0.0660 -0.3701
  228SOL    HW1 1084  -0.035   1.380   4.095  0.1584  2.9422 -1.6041
  228SOL    HW2 1085   0.040   1.364   3.964  1.3251 -0.5595 -0.6130
  229SOL     OW 1086   0.905   4.021   6.616 -0.0870 -0.0214 -0.1306
  229SOL    HW1 1087   0.863   4.105   6.596  1.0977  0.6608  0.0838
  229SOL    HW2 1088   0.971   4.012   6.547  0.4886 -0.2517  0.4418
  230SOL     OW 1089   3.466   4.980   3.662  0.5527 -0.6397 -0.4458
  230SOL    HW1 1090   3.540   4.935   3.620 -0.5462 -1.1443 -1.9564
  230SOL    HW2 1091   3.393   4.918   3.654 -0.5530  0.6714 -0.9391
  231SOL     OW 1092   6.213   3.256   2.712 -0.1215  0.1828  0.3059
  231SOL    HW1 1093   6.245   3.188   2.772  1.8796  1.7004  1.0705
  231SOL    HW2 1094   6.152   3.308   2.764  0.5103  0.6306  0.6172
  232SOL     OW 1095   0.648   4.186   0.901  0.1240 -0.4806 -0.6639
  232SOL    HW1 1096   0.655   4.170   0.995 -0.8806  0.7580 -0.3492
  232SOL    HW2 1097   0.644   4.099   0.862  1.1772 -1.0125  0.3777
  233SOL     OW 1098   5.642   0.440   0.374 -0.3411 -0.4826  0.2104
  233SOL    HW1 1099   5.628   0.455   0.281 -0.6115  2.4325  0.6096
  233SOL    HW2 1100   5.562   0.473   0.416  0.5657  0.1573  1.5414
  234SOL     OW 1101   3.172   0.298   3.793 -0.7853 -0.0944  0.3500
  234SOL    HW1 1102   3.227   0.249   3.853  0.4054 -0.7346 -1.2205
  234SOL    HW2 1103   3.092   0.246   3.785 -1.4367  0.5329  2.1497
  235SOL     OW 1104   3.188   6.645   6.453  0.1273  0.7519  0.1167
  235SOL    HW1 1105   3.265   6.614   6.406 -0.6522 -0.9082 -0.1460
  235SOL    HW2 1106   3.186   6.592   6.533  0.1233  1.8884  0.8963
  236SOL     OW 1107   2.149   1.667   0.354  0.6231  0.1376  0.0478
  236SOL    HW1 1108   2.094   1.635   0.426  0.2365 -1.6032 -0.9701
  236SOL    HW2 1109   2.113   1.753   0.333  0.5055  0.5193  1.6601
  237SOL     OW 1110   4.209   0.583   0.664  0.0196  0.0118  0.5073
  237SOL    HW1 1111   4.219   0.502   0.714  2.2122 -0.4075 -0.5277
  237SOL    HW2 1112   4.158   0.558   0.587 -0.3274 -0.1084  0.7722
  238SOL     OW 1113   5.247   4.787   3.066 -0.2303  0.3874  0.2158
  238SOL    HW1 1114   5.333   4.821   3.092 -0.0921 -0.8219  1.4782
  238SOL    HW2 1115   5.185   4.855   3.091  0.3059  1.0445 -0.2180
  239SOL     OW 1116   3.531   3.254   2.615  0.1957  0.0033  0.0847
  239SOL    HW1 1117   3.450   3.260   2.564 -0.0357 -0.2725  0.4189
  239SOL    HW2 1118   3.511   3.298   2.698  0.2759 -0.3603  0.3025
  240SOL     OW 1119   3.149   4.604   5.394  0.1088 -0.1390 -0.2218
  240SOL    HW1 1120   3.173   4.551   5.470 -0.7928 -0.7270 -0.3323
  240SOL    HW2 1121   3.149   4.694   5.427 -2.1963 -0.5151  1.0377
  241SOL     OW 1122   0.286   0.195   6.089 -0.2822  0.4574 -0.0002
  241SOL    HW1 1123   0.245   0.148   6.017  1.7624 -0.9758 -0.3084
  241SOL    HW2 1124   0.213   0.223   6.144 -1.7018 -1.3363 -0.8756
  242SOL     OW 1125   0.454   6.711   4.411  0.0817 -0.8095  0.2319
  242SOL    HW1 1126   0.471   6.805   4.403 -0.5582 -0.8146 -1.5557
  242SOL    HW2 1127   0.369   6.698   4.369 -0.6859 -1.9452  2.0473
  243SOL     OW 1128   4.733   4.646   1.716 -0.3944  0.6474  0.0407
  243SOL    HW1 1129   4.687   4.720   1.756 -0.0654  0.8159  0.1052
  243SOL    HW2 1130   4.726   4.575   1.781 -1.0592  0.4929 -0.1909
  244SOL     OW 1131   1.819   1.700   4.822  0.2830 -0.4318 -0.3076
  244SOL    HW1 1132   1.859   1.638   4.883  0.8955  0.3544  0.1017
  244SOL    HW2 1133   1.856   1.676   4.737  3.1492  1.4178  0.2925
  245SOL     OW 1134   1.015   1.429   4.540  0.2821  0.4733  0.2003
  245SOL    HW1 1135   0.962   1.440   4.619  0.1907 -0.9232  0.3558
  245SOL    HW2 1136   1.040   1.519   4.515 -1.6413  1.1298  0.4609
  246SOL     OW 1137   3.865   0.866   1.658 -0.1157  0.9626 -0.3748
  246SOL    HW1 1138   3.927   0.811   1.610  0.0409  1.2642 -0.5188
  246SOL    HW2 1139   3.780   0.827   1.642  0.1398 -0.1218  0.7152
  247SOL     OW 1140   3.637   6.626   2.254 -0.6373  0.5191  0.7441
  247SOL    HW1 1141   3.638   6.694   2.322  0.3246  1.9796 -0.6577
  247SOL    HW2 1142   3.725   6.628   2.217 -0.6861 -1.3149  0.4456
  248SOL     OW 1143   6.176   5.071   1.999 -0.5512  0.2108  0.1890
  248SOL    HW1 1144   6.255   5.098   2.046  0.9216 -0.5911 -1.6947
  248SOL    HW2 1145   6.104   5.099   2.056  1.0660  0.5081  2.2236
  249SOL     OW 1146   5.377   6.058   2.809  0.5402 -0.1099  0.5610
  249SOL    HW1 1147   5.377   5.981   2.753 -1.6031  0.6270 -0.5416
  249SOL    HW2 1148   5.335   6.029   2.890 -1.3344  0.1117 -0.2791
  250SOL     OW 1149   4.331   4.146   0.491  0.1426  0.1112 -0.0437
  250SOL    HW1 1150   4.258   4.119   0.436  0.8647 -0.0920 -0.9256
  250SOL    HW2 1151   4.305   4.232   0.526 -0.8539 -0.3262  0.3152
  251SOL     OW 1152   1.933   2.396   6.242 -0.5438 -0.1375 -0.0241
  251SOL    HW1 1153   1.842   2.369   6.232 -0.3567 -0.5634 -0.5838
  251SOL    HW2 1154   1.968   2.336   6.308 -1.2738  1.5023  2.0032
  252SOL     OW 1155   0.207   4.097   1.429  0.1035  0.4002  0.4372
  252SOL    HW1 1156   0.239   4.134   1.347  3.4897 -1.5158  0.6849
  252SOL    HW2 1157   0.260   4.141   1.496 -0.8664  0.1741  1.3734
  253SOL     OW 1158   3.202   4.019   2.851 -0.1980  0.1610 -0.0510
  253SOL    HW1 1159   3.158   4.070   2.783  0.1774  1.3456  0.5667
  253SOL    HW2 1160   3.135   4.003   2.917 -0.5270 -0.8727 -0.6107
  254SOL     OW 1161   5.756   4.070   1.289 -0.3134  0.0254  0.1800
  254SOL    HW1 1162   5.717   4.138   1.345  0.0883  1.4650 -1.2021
  254SOL    HW2 1163   5.707   4.077   1.207  0.1348 -0.9712 -0.1789
  255SOL     OW 1164   1.793   5.743   2.251  0.0841 -0.4392  0.1315
  255SOL    HW1 1165   1.879   5.702   2.248 -0.5601 -1.7935 -1.2306
  255SOL    HW2 1166   1.735   5.675   2.286 -0.5032  0.3431  0.7267
  256SOL     OW 1167   4.169   6.318   4.107  0.3810  0.6496  0.7160
  256SOL    HW1 1168   4.144   6.310   4.199  0.7443 -2.3364  0.6430
  256SOL    HW2 1169   4.086   6.324   4.060  0.0052 -1.3863  1.0382
  257SOL     OW 1170   2.668   3.915   2.061 -0.0991  0.8176 -0.4190
  257SOL    HW1 1171   2.715   3.930   1.979 -1.2658 -2.2987 -1.8453
  257SOL    HW2 1172   2.609   3.990   2.069  0.1272  1.2771 -2.3999
  258SOL     OW 1173   3.735   3.991   3.158 -0.2445  0.0809  0.3404
  258SOL    HW1 1174   3.793   4.063   3.130  0.2666 -0.9204 -1.3119
  258SOL    HW2 1175   3.653   4.006   3.111 -0.2477 -0.2348  0.2427
  259SOL     OW 1176   4.510   4.296   0.297 -0.5172  0.1731  0.0136
  259SOL    HW1 1177   4.427   4.318   0.340 -1.1853  2.3079 -2.0956
  259SOL    HW2 1178   4.484   4.260   0.212  0.7533 -2.2289  0.5545
  260SOL     OW 1179   4.737   4.917   2.589  0.3866  0.4538  0.1134
  260SOL    HW1 1180   4.661   4.859   2.586  1.0845 -0.5397  0.8341
  260SOL    HW2 1181   4.797   4.875   2.651  1.3610  1.4127 -0.1395
  261SOL     OW 1182   2.124   4.160   0.315  0.2208  0.4257 -0.4988
  261SOL    HW1 1183   2.116   4.071   0.281 -0.8972  0.0338  0.7018
  261SOL    HW2 1184   2.107   4.217   0.241 -1.8972 -0.3849 -0.6871
  262SOL     OW 1185   0.785   5.539   0.856  0.1548 -0.1657 -0.6322
  262SOL    HW1 1186   0.807   5.631   0.873 -0.5801 -0.1906  0.5786
  262SOL    HW2 1187   0.796   5.496   0.941 -1.8396 -0.7155 -0.5957
  263SOL     OW 1188   2.274   5.900   3.098  0.1550 -0.3022  0.3760
  263SOL    HW1 1189   2.341   5.870   3.160 -0.2949  0.5338  1.3001
  263SOL    HW2 1190   2.264   5.827   3.037  0.1610 -1.4202  1.6581
  264SOL     OW 1191   3.787   0.490   0.993  0.0965 -0.6808  0.4336
  264SOL    HW1 1192   3.810   0.497   1.086 -0.2408  0.0535  0.4709
  264SOL    HW2 1193   3.836   0.560   0.951 -1.2089  0.2197  0.3552
  265SOL     OW 1194   6.510   2.432   6.615 -0.0400  0.0546 -0.2616
  265SOL    HW1 1195   6.579   2.394   6.669  0.1074  0.7049  0.0210
  265SOL    HW2 1196   6.554   2.458   6.535  0.1261  0.8159  0.0708
  266SOL     OW 1197   5.357   6.286   4.992 -0.5200 -0.1588 -0.3476
  266SOL    HW1 1198   5.368   6.210   4.935 -0.5742 -0.1342 -0.3902
  266SOL    HW2 1199   5.409   6.265   5.069 -1.0220 -0.5046 -0.0981
  267SOL     OW 1200   5.471   4.712   3.656 -0.1917 -0.2983  0.2932
  267SOL    HW1 1201   5.563   4.697   3.681 -0.5815 -0.8733  1.4900
  267SOL    HW2 1202   5.463   4.672   3.569  0.8018  0.1735 -0.0273
  268SOL     OW 1203   6.331   3.310   0.171 -0.0769  0.3867 -0.2287
  268SOL    HW1 1204   6.426   3.303   0.160  0.1099 -1.3853  1.8232
  268SOL    HW2 1205   6.298   3.326   0.083  2.0921  0.8082 -1.0352
  269SOL     OW 1206   5.351   3.941   0.370  0.5795 -0.3251  0.1210
  269SOL    HW1 1207   5.339   3.954   0.276  0.8437 -2.2542 -0.2132
  269SOL    HW2 1208   5.326   3.850   0.385  2.4915 -0.6721  1.5496
  270SOL     OW 1209   2.429   4.055   2.516  0.5846 -0.1071 -0.1915
  270SOL    HW1 1210   2.496   4.030   2.452  0.0825 -1.1215 -0.3358
  270SOL    HW2 1211   2.364   3.985   2.511  0.2434  0.1058  1.0094
  271SOL     OW 1212   5.933   5.336   6.315  0.0763  0.1251 -0.4848
  271SOL    HW1 1213   6.011   5.390   6.322  1.6311 -2.0812 -0.0359
  271SOL    HW2 1214   5.864   5.398   6.286  1.6601  2.3371  0.2094
  272SOL     OW 1215   2.184   5.295   1.317  0.0246  0.0257 -0.3466
  272SOL    HW1 1216   2.106   5.341   1.348  1.2196  1.0690  1.2167
  272SOL    HW2 1217   2.187   5.215   1.370  0.1904  0.1512 -0.1640
  273SOL     OW 1218   6.411   3.638   6.016 -0.0353 -0.7638  0.1501
  273SOL    HW1 1219   6.413   3.681   6.101 -0.4176  0.0579 -0.2451
  273SOL    HW2 1220   6.343   3.684   5.967  1.3655 -0.0535 -1.1962
  274SOL     OW 1221   0.871   2.325   4.243 -0.6460  0.0188  0.2840
  274SOL    HW1 1222   0.787   2.353   4.278 -0.4817  2.3639 -0.9794
  274SOL    HW2 1223   0.916   2.285   4.317 -2.1366  0.4529  1.4716
  275SOL     OW 1224   4.584   4.803   6.125 -0.3739  0.3003 -0.4524
  275SOL    HW1 1225   4.564   4.893   6.149  0.1964 -0.3326  2.9347
  275SOL    HW2 1226   4.503   4.755   6.145 -0.6924  0.0125 -2.2805
  276SOL     OW 1227   0.849   5.956   4.682  0.1938  0.0107 -0.1552
  276SOL    HW1 1228   0.833   5.864   4.704  0.5362 -0.0493 -0.1560
  276SOL    HW2 1229   0.855   5.957   4.586  1.7298 -0.2286 -0.0941
  277SOL     OW 1230   1.891   6.595   2.219 -0.4167  0.0824 -0.4082
  277SOL    HW1 1231   1.811   6.645   2.204 -0.2332 -0.0516 -2.1505
  277SOL    HW2 1232   1.936   6.640   2.290 -1.5628  0.7531 -0.0965
  278SOL     OW 1233   6.086   5.930   6.766 -0.1341  0.5623 -0.0079
  278SOL    HW1 1234   6.175   5.906   6.740  0.3851  0.8492  1.3940
  278SOL    HW2 1235   6.079   6.023   6.747  0.3862  0.8644  1.1588
  279SOL     OW 1236   3.403   5.960   6.661 -0.0418 -0.7503 -0.4179
  279SOL    HW1 1237   3.485   6.000   6.630 -0.4741 -0.1228 -0.7699
  279SOL    HW2 1238   3.417   5.866   6.650  1.2526 -0.7625  1.0562
  280SOL     OW 1239   3.426   1.432   0.552  0.3930 -0.2428  0.2458
  280SOL    HW1 1240   3.350   1.468   0.597  0.1169 -2.2880  1.5656
  280SOL    HW2 1241   3.393   1.407   0.466 -0.1915 -0.2161  0.4562
  281SOL     OW 1242   0.819   6.618   2.183 -0.2674  0.7331 -0.3515
  281SOL    HW1 1243   0.784   6.707   2.177 -1.5919  0.1450 -2.1944
  281SOL    HW2 1244   0.912   6.630   2.201 -0.8036  2.4211  1.6864
  282SOL     OW 1245   6.076   3.998   3.066 -0.0936 -0.1125 -0.0631
  282SOL    HW1 1246   6.046   4.030   3.151 -0.3363  1.4422 -0.7056
  282SOL    HW2 1247   6.152   3.944   3.086 -0.2272  0.1202  1.1482
  283SOL     OW 1248   1.570   0.963   2.694  0.3442  0.4841  0.3588
  283SOL    HW1 1249   1.634   0.931   2.758  1.2933 -0.4730 -1.0244
  283SOL    HW2 1250   1.545   0.886   2.644 -2.2477  0.7602  1.0928
  284SOL     OW 1251   4.854   1.745   3.680 -0.5266 -0.1290 -0.6447
  284SOL    HW1 1252   4.824   1.825   3.638 -3.8770 -0.6048  0.5296
  284SOL    HW2 1253   4.802   1.738   3.760  2.5056 -1.4788  1.4158
  285SOL     OW 1254   2.651   6.110   1.178  0.1750 -0.6999  0.3096
  285SOL    HW1 1255   2.609   6.040   1.228 -0.4103 -0.7398 -0.2190
  285SOL    HW2 1256   2.609   6.190   1.209  0.6187 -0.6102  0.6869
  286SOL     OW 1257   4.375   1.822   2.748  0.6866  0.0763  0.0804
  286SOL    HW1 1258   4.379   1.787   2.659  1.0812  0.6675 -0.1376
  286SOL    HW2 1259   4.464   1.854   2.765  0.4838  0.4214  0.4984
  287SOL     OW 1260   2.070   5.204   3.299  0.6767  1.0485 -0.4792
  287SOL    HW1 1261   2.039   5.287   3.333  0.4368  0.3502  1.0574
  287SOL    HW2 1262   2.091   5.222   3.207 -0.0311  2.6133 -0.3549
  288SOL     OW 1263   6.690   3.740   0.593  0.2135 -0.1858  0.5607
  288SOL    HW1 1264   6.639   3.819   0.574  1.2879  0.3286 -0.3330
  288SOL    HW2 1265   6.628   3.680   0.634 -1.2086  0.2698 -0.8208
  289SOL     OW 1266   5.364   2.241   4.402  0.0126  0.7509 -0.7323
  289SOL    HW1 1267   5.368   2.168   4.341 -0.1941 -0.7904  0.9937
  289SOL    HW2 1268   5.274   2.273   4.397 -0.8910 -1.2850  0.7759
  290SOL     OW 1269   4.311   2.912   4.150  0.2622  0.1079  0.4204
  290SOL    HW1 1270   4.257   2.948   4.221  0.6141  1.5248 -0.0088
  290SOL    HW2 1271   4.250   2.858   4.099 -0.3981  0.4718  0.8075
  291SOL     OW 1272   5.826   1.982   4.585  0.0797 -0.0652  0.4062
  291SOL    HW1 1273   5.864   2.028   4.510 -0.5597  0.2242  0.2462
  291SOL    HW2 1274   5.737   1.960   4.556  0.1703 -0.8502  0.7106
  292SOL     OW 1275   5.601   5.539   0.749  0.4370 -0.1625 -0.8867
  292SOL    HW1 1276   5.647   5.494   0.820 -0.8654  0.4933  0.4312
  292SOL    HW2 1277   5.577   5.469   0.688  0.2746 -0.9563  0.0684
  293SOL     OW 1278   1.384   2.632   0.858  0.0330 -0.8003  0.0518
  293SOL    HW1 1279   1.444   2.631   0.784  1.0944 -0.9151  0.8816
  293SOL    HW2 1280   1.297   2.645   0.819  0.5282 -1.1280 -1.2182
  294SOL     OW 1281   5.892   6.252   5.893 -0.0315  0.4396 -0.1007
  294SOL    HW1 1282   5.797   6.242   5.888 -0.2373  2.6034 -1.8931
  294SOL    HW2 1283   5.908   6.293   5.977 -0.8794  1.6222 -0.5009
  295SOL     OW 1284   2.562   6.108   4.451 -0.0819 -0.2391 -0.4026
  295SOL    HW1 1285   2.511   6.152   4.383 -1.0337 -0.7549 -0.0283
  295SOL    HW2 1286   2.505   6.039   4.483  0.2506  0.1608  1.1193
  296SOL     OW 1287   5.381   6.008   3.943 -0.2044  0.2410  0.3737
  296SOL    HW1 1288   5.348   5.946   3.878 -0.4628  0.5922  0.1640
  296SOL    HW2 1289   5.336   6.090   3.923  0.1896  0.5178  0.5987
  297SOL     OW 1290   5.852   6.373   6.148 -0.3286 -0.3568  0.0022
  297SOL    HW1 1291   5.805   6.439   6.199 -0.4342  0.8095 -1.5526
  297SOL    HW2 1292   5.942   6.378   6.181 -0.3190  0.6206 -0.1495
  298SOL     OW 1293   5.849   1.256   0.182 -0.1197  0.0866 -0.2079
  298SOL    HW1 1294   5.821   1.201   0.109  1.3860 -2.1672  0.8155
  298SOL    HW2 1295   5.944   1.256   0.178 -0.0341  0.7721  1.1674
  299SOL     OW 1296   3.789   6.367   4.541 -0.1910  0.5569 -0.1060
  299SOL    HW1 1297   3.782   6.321   4.624 -1.2052  1.8263  0.5355
  299SOL    HW2 1298   3.721   6.328   4.486  1.0203 -0.8692 -0.6878
  300SOL     OW 1299   0.159   1.102   6.613 -0.4516  0.2202 -0.0864
  300SOL    HW1 1300   0.071   1.066   6.624 -0.4925 -0.3845 -2.0773
  300SOL    HW2 1301   0.205   1.075   6.693 -2.0167  0.4996  0.9687
  301SOL     OW 1302   3.152   5.428   2.536 -0.6250 -0.3552 -0.6581
  301SOL    HW1 1303   3.175   5.504   2.482 -0.1911 -0.7799 -1.0785
  301SOL    HW2 1304   3.058   5.416   2.520 -0.2766 -1.1960 -2.2823
  302SOL     OW 1305   3.390   0.072   1.021 -0.0364 -0.3119 -0.1844
  302SOL    HW1 1306   3.422   0.126   1.093 -1.0498 -0.5957  0.5080
  302SOL    HW2 1307   3.350   0.135   0.960  0.0687 -0.1460 -0.0833
  303SOL     OW 1308   3.900   5.783   0.226 -0.0628 -0.1756 -0.3070
  303SOL    HW1 1309   3.876   5.693   0.205  0.6086 -0.6773  0.9687
  303SOL    HW2 1310   3.857   5.801   0.309 -0.6396  0.8928 -0.8125
  304SOL     OW 1311   1.978   1.234   2.542  0.1229  0.7594  0.6136
  304SOL    HW1 1312   1.895   1.205   2.579 -0.3620  1.5757  0.1923
  304SOL    HW2 1313   1.962   1.241   2.448 -0.0242  3.0549  0.7503
  305SOL     OW 1314   0.347   4.201   4.478 -0.0252 -0.1703 -0.2025
  305SOL    HW1 1315   0.408   4.148   4.427  0.8326  0.1469  0.4794
  305SOL    HW2 1316   0.296   4.249   4.412  1.3645  0.5736 -0.7818
  306SOL     OW 1317   4.642   2.392   2.551  0.5494 -0.3461  0.1179
  306SOL    HW1 1318   4.546   2.398   2.544  0.2117 -2.7723  1.4377
  306SOL    HW2 1319   4.672   2.390   2.460 -0.5246  1.4060 -0.3315
  307SOL     OW 1320   2.740   4.757   0.849  0.1723 -0.4534 -0.7240
  307SOL    HW1 1321   2.809   4.779   0.787  1.4423  1.0076  1.0816
  307SOL    HW2 1322   2.687   4.837   0.855  0.0006 -0.6115 -0.0298
  308SOL     OW 1323   1.878   1.638   2.075  0.5328  0.2429 -0.0592
  308SOL    HW1 1324   1.898   1.678   1.990 -1.1330 -0.8272 -1.0207
  308SOL    HW2 1325   1.879   1.712   2.136  2.9830  0.8612 -0.7252
  309SOL     OW 1326   2.506   0.448   2.997  0.6545  0.0493  0.4062
  309SOL    HW1 1327   2.446   0.406   3.060 -1.7083  1.1573 -0.9804
  309SOL    HW2 1328   2.559   0.376   2.963 -1.1631 -1.3206  0.3497
  310SOL     OW 1329   4.934   0.116   4.618  0.3469  0.1759  0.0173
  310SOL    HW1 1330   4.996   0.163   4.673 -0.2376  0.8262  0.1454
  310SOL    HW2 1331   4.848   0.145   4.649 -0.0276 -0.8911  0.0081
  311SOL     OW 1332   2.844   4.888   4.422  0.9329  0.2496  0.3134
  311SOL    HW1 1333   2.873   4.976   4.443 -0.6047  0.8887 -0.0942
  311SOL    HW2 1334   2.851   4.882   4.327 -2.3302  1.2938 -0.1209
  312SOL     OW 1335   2.358   5.671   0.734 -0.2001 -0.4739  0.3418
  312SOL    HW1 1336   2.280   5.679   0.788  0.2407 -1.6234  1.2032
  312SOL    HW2 1337   2.427   5.715   0.785 -0.4562  1.5288 -0.9140
  313SOL     OW 1338   2.473   2.108   4.316 -0.7773 -0.0963  0.3083
  313SOL    HW1 1339   2.441   2.137   4.401 -1.9987  0.6693 -0.3769
  313SOL    HW2 1340   2.568   2.101   4.327 -0.9078 -0.0083  1.7120
  314SOL     OW 1341   3.693   3.107   6.437 -0.1651 -0.0673  0.7371
  314SOL    HW1 1342   3.618   3.061   6.398  0.2266  1.2467 -1.7664
  314SOL    HW2 1343   3.673   3.199   6.425  1.1154  0.3453  1.5841
  315SOL     OW 1344   6.112   0.295   4.327  1.0177  0.1275 -0.1660
  315SOL    HW1 1345   6.159   0.375   4.350  2.4863 -0.9981  0.9586
  315SOL    HW2 1346   6.021   0.312   4.354  1.2144  1.5406 -0.3221
  316SOL     OW 1347   1.567   3.493   5.026 -0.6941 -0.0631 -0.2586
  316SOL    HW1 1348   1.629   3.437   4.979 -0.1236  1.3950 -1.3223
  316SOL    HW2 1349   1.622   3.541   5.089 -0.6540  1.3437 -1.3048
  317SOL     OW 1350   2.476   4.040   5.947 -0.1547  0.7683 -0.0102
  317SOL    HW1 1351   2.501   3.973   5.883 -2.8109 -1.3822  1.0525
  317SOL    HW2 1352   2.406   4.089   5.904  0.6438  1.8508 -0.1318
  318SOL     OW 1353   2.391   0.037   1.979  0.3204 -0.5231  0.0120
  318SOL    HW1 1354   2.377   0.131   1.972 -0.8740 -0.7612 -1.1202
  318SOL    HW2 1355   2.483   0.024   1.956  0.0930  0.2291 -1.4103
  319SOL     OW 1356   4.351   2.429   0.579 -0.2161 -0.3692  0.0854
  319SOL    HW1 1357   4.412   2.371   0.624 -1.6025 -1.6138  0.4205
  319SOL    HW2 1358   4.268   2.417   0.624 -1.2718 -0.4730 -1.7817
  320SOL     OW 1359   2.532   4.724   6.386  0.2950 -0.3706 -0.2568
  320SOL    HW1 1360   2.481   4.805   6.379  1.5378  0.6191  1.3308
  320SOL    HW2 1361   2.566   4.725   6.475  0.8801 -2.3422 -0.4193
  321SOL     OW 1362   2.795   6.238   3.201 -0.0274 -0.7662 -0.5466
  321SOL    HW1 1363   2.735   6.208   3.269  1.4643 -1.1152  0.6735
  321SOL    HW2 1364   2.881   6.208   3.230  0.9446  0.9047 -1.5355
  322SOL     OW 1365   1.984   2.365   4.895  0.0478  0.4353  0.2110
  322SOL    HW1 1366   1.905   2.381   4.843 -0.6432  3.2430  1.8960
  322SOL    HW2 1367   1.955   2.375   4.986  2.0657  0.1897  0.9321
  323SOL     OW 1368   5.949   0.019   3.304  0.3923  0.4751 -0.0189
  323SOL    HW1 1369   5.855   0.009   3.289  0.2117  1.8320  0.0939
  323SOL    HW2 1370   5.956   0.041   3.396  0.6472  2.0832 -0.3865
  324SOL     OW 1371   4.998   6.597   6.511  0.1427  0.2729 -0.1938
  324SOL    HW1 1372   5.092   6.617   6.519 -0.0485  0.9409  0.4419
  324SOL    HW2 1373   4.990   6.507   6.542  0.7475 -0.2069 -1.3781
  325SOL     OW 1374   0.944   3.227   1.893 -0.1202 -0.0479 -0.3604
  325SOL    HW1 1375   0.873   3.219   1.956 -0.0073  0.6454 -0.1432
  325SOL    HW2 1376   0.996   3.301   1.923  1.0701 -0.9331 -0.1542
  326SOL     OW 1377   3.412   0.263   4.978 -0.1108 -0.1605 -0.8126
  326SOL    HW1 1378   3.409   0.173   5.008  0.1657  0.4159  1.0754
  326SOL    HW2 1379   3.321   0.294   4.986 -0.0162  0.0267 -0.4057
  327SOL     OW 1380   6.390   6.348   1.197 -0.0061  0.4635  0.0392
  327SOL    HW1 1381   6.330   6.324   1.267  0.9504 -0.1560  0.6640
  327SOL    HW2 1382   6.333   6.375   1.125 -1.0267 -0.1528  0.6004
  328SOL     OW 1383   3.373   1.217   1.371 -0.8866 -0.1095  0.0865
  328SOL    HW1 1384   3.362   1.172   1.455 -1.0277  2.4991  1.5823
  328SOL    HW2 1385   3.443   1.281   1.387 -1.0911  0.6363 -1.7276
  329SOL     OW 1386   0.432   4.377   4.844 -0.6441  0.1922 -0.1532
  329SOL    HW1 1387   0.356   4.336   4.804 -0.2138 -1.8157  0.9600
  329SOL    HW2 1388   0.421   4.363   4.938  0.4791  0.9516  0.1169
  330SOL     OW 1389   0.111   3.424   2.544  0.1830  0.2155  0.3234
  330SOL    HW1 1390   0.168   3.497   2.522  0.8306 -1.1983 -3.2457
  330SOL    HW2 1391   0.162   3.372   2.606  1.3465  0.7526 -0.1556
  331SOL     OW 1392   5.575   3.398   0.054 -0.0661  0.4695  0.2589
  331SOL    HW1 1393   5.529   3.337   0.112  1.1060  1.3563  2.2372
  331SOL    HW2 1394   5.589   3.349  -0.027  0.6442 -1.8459  1.6819
  332SOL     OW 1395   5.967   5.161   6.559 -0.4664  0.6990 -0.6249
  332SOL    HW1 1396   5.919   5.237   6.591 -0.0727  1.0348 -0.8160
  332SOL    HW2 1397   5.930   5.144   6.472 -1.1025  0.1758 -0.2598
  333SOL     OW 1398   4.228   5.632   0.375  0.2654  0.3010 -0.3200
  333SOL    HW1 1399   4.138   5.625   0.407  0.1055 -0.4706 -0.9040
  333SOL    HW2 1400   4.263   5.543   0.381  1.1489  0.6782  0.3229
  334SOL     OW 1401   0.465   5.262   6.422  0.4922 -0.0812  0.1049
  334SOL    HW1 1402   0.513   5.344   6.437 -0.1174  0.4069 -0.5446
  334SOL    HW2 1403   0.474   5.247   6.328 -0.7543  0.1062 -0.0537
  335SOL     OW 1404   1.415   3.876   4.086  0.3823 -0.1331 -0.4374
  335SOL    HW1 1405   1.505   3.909   4.089 -0.5390  2.6493 -0.1961
  335SOL    HW2 1406   1.397   3.864   3.993  0.7671  0.0544 -0.5414
  336SOL     OW 1407   1.897   0.968   0.230  0.5529  0.3778  0.5642
  336SOL    HW1 1408   1.880   0.891   0.284  1.2494  1.0576  1.7922
  336SOL    HW2 1409   1.985   0.995   0.254 -0.5672  3.0538  2.0920
  337SOL     OW 1410   0.840   2.244   0.848 -0.3416  0.3574 -0.1438
  337SOL    HW1 1411   0.783   2.318   0.869 -0.7586  0.1364 -0.4965
  337SOL    HW2 1412   0.872   2.214   0.933 -3.4256 -1.6633  0.4736
  338SOL     OW 1413   5.742   5.802   0.790  0.0046 -0.2872 -0.1845
  338SOL    HW1 1414   5.694   5.721   0.806  0.1737 -0.1250  1.2637
  338SOL    HW2 1415   5.795   5.783   0.713 -0.0058 -1.5333  0.0893
  339SOL     OW 1416   1.967   2.364   0.510  0.8697  0.6432  0.2255
  339SOL    HW1 1417   2.019   2.284   0.519 -2.3552 -1.5349  1.6121
  339SOL    HW2 1418   1.926   2.356   0.423  0.1025  0.4710  0.5954
  340SOL     OW 1419   2.397   6.591   0.974 -0.4900  0.6318 -0.0083
  340SOL    HW1 1420   2.332   6.567   0.909 -0.1433 -0.6146  0.0865
  340SOL    HW2 1421   2.348   6.638   1.041 -1.0599  0.8328 -0.5616
  341SOL     OW 1422   5.365   0.026   1.546  0.1409 -0.7797 -0.1603
  341SOL    HW1 1423   5.426   0.051   1.477  2.6682  0.9358  2.4321
  341SOL    HW2 1424   5.291   0.086   1.535  1.6575  1.2546  0.0375
  342SOL     OW 1425   0.216   0.826   4.002 -0.4342 -0.3592  0.1830
  342SOL    HW1 1426   0.173   0.890   4.058  0.8705 -0.1198  0.9464
  342SOL    HW2 1427   0.307   0.824   4.032 -0.2110 -1.8391 -0.4835
  343SOL     OW 1428   4.020   1.673   4.287 -0.7668  0.6750  0.4948
  343SOL    HW1 1429   4.025   1.710   4.375 -0.1260 -0.9004  1.1599
  343SOL    HW2 1430   4.110   1.646   4.267 -1.3592 -1.5860  0.5839
  344SOL     OW 1431   1.658   1.723   5.222  0.4392 -0.0707  0.0954
  344SOL    HW1 1432   1.601   1.646   5.228  1.3712 -0.7327  0.7700
  344SOL    HW2 1433   1.646   1.754   5.133 -1.9266  0.5772  0.5561
  345SOL     OW 1434   5.676   5.985   5.378  0.2945 -0.2641 -0.4468
  345SOL    HW1 1435   5.631   5.952   5.300  0.1380 -0.4672 -0.2751
  345SOL    HW2 1436   5.605   6.013   5.436  0.4609  2.6197 -1.5137
  346SOL     OW 1437   3.742   2.021   0.723  0.2242  0.6686  0.3008
  346SOL    HW1 1438   3.715   2.078   0.651  0.6534  2.2898  1.3484
  346SOL    HW2 1439   3.778   2.081   0.789  1.4877 -0.8983  1.1362
  347SOL     OW 1440   1.221   4.314   5.638 -0.1849 -0.1889 -0.3322
  347SOL    HW1 1441   1.205   4.246   5.571  0.2153  2.3445 -3.2183
  347SOL    HW2 1442   1.134   4.332   5.674 -0.7157 -0.4107 -1.4430
  348SOL     OW 1443   0.193   2.008   2.472  0.4462 -0.5657  0.2428
  348SOL    HW1 1444   0.169   1.939   2.409  1.3431 -1.3597  0.7480
  348SOL    HW2 1445   0.248   2.067   2.421  1.0953 -1.1565  0.2448
  349SOL     OW 1446   1.489   5.472   4.906 -0.2622  0.0109  0.2980
  349SOL    HW1 1447   1.416   5.452   4.849  0.8530 -0.0381 -1.1700
  349SOL    HW2 1448   1.495   5.567   4.906 -1.4946  0.1338  1.9996
  350SOL     OW 1449   1.170   3.058   4.902 -0.1338 -0.0175  0.4030
  350SOL    HW1 1450   1.098   3.044   4.964 -0.6734 -3.5539 -0.7513
  350SOL    HW2 1451   1.244   3.009   4.939 -0.1565 -1.3052 -1.1143
  351SOL     OW 1452   2.435   0.849   2.739 -0.1580 -0.0901 -0.5695
  351SOL    HW1 1453   2.418   0.800   2.819  1.1389  0.4233  0.0473
  351SOL    HW2 1454   2.456   0.938   2.769  0.3447  0.1060 -1.4811
  352SOL     OW 1455   5.991   0.523   5.682  0.6842 -0.2507  0.1476
  352SOL    HW1 1456   5.998   0.464   5.606 -3.2610 -0.8837  0.0427
  352SOL    HW2 1457   6.006   0.610   5.646 -1.7675 -0.4616 -1.6644
  353SOL     OW 1458   5.441   2.869   5.899 -0.1611 -0.2024  0.4368
  353SOL    HW1 1459   5.441   2.960   5.929 -1.5175 -0.2877  0.7447
  353SOL    HW2 1460   5.521   2.832   5.936  0.3820  0.8314  0.3640
  354SOL     OW 1461   0.560   6.448   6.163 -0.0492  0.3146 -0.0553
  354SOL    HW1 1462   0.587   6.540   6.158  0.4516  0.2360  1.0602
  354SOL    HW2 1463   0.516   6.440   6.247 -1.3198 -0.1694 -0.7385
  355SOL     OW 1464   1.523   0.976   0.231  0.4802  0.0817 -0.0380
  355SOL    HW1 1465   1.572   0.977   0.313  0.4874  0.9723 -0.0454
  355SOL    HW2 1466   1.454   1.041   0.243  0.7333  0.5228 -0.8814
  356SOL     OW 1467   0.744   5.772   4.337  0.7914  0.0449  0.3204
  356SOL    HW1 1468   0.775   5.857   4.367  3.4061 -0.6030 -0.2545
  356SOL    HW2 1469   0.675   5.748   4.399  0.5526  2.1886  0.9673
  357SOL     OW 1470   1.148   4.606   2.142 -0.4779  0.5366 -0.3716
  357SOL    HW1 1471   1.240   4.591   2.121 -0.3394 -0.7972  0.9747
  357SOL    HW2 1472   1.122   4.527   2.190 -1.5842  2.0347  1.6140
  358SOL     OW 1473   2.945   0.363   3.593 -0.4010  0.0511 -0.4203
  358SOL    HW1 1474   2.870   0.385   3.649 -1.8736  0.4064 -2.4252
  358SOL    HW2 1475   2.951   0.267   3.600  0.3658  0.1962  1.4130
  359SOL     OW 1476   2.985   3.385   0.606 -0.6923  0.6013  0.1189
  359SOL    HW1 1477   3.003   3.301   0.564  0.8151 -0.2730  2.3189
  359SOL    HW2 1478   2.901   3.373   0.649 -1.2993  0.8454 -0.9525
  360SOL     OW 1479   5.669   5.942   3.983 -0.4265 -0.5511  0.0042
  360SOL    HW1 1480   5.700   6.012   3.925 -0.2352 -0.0894  0.6435
  360SOL    HW2 1481   5.574   5.948   3.980 -0.4158 -0.4977 -0.2254
  361SOL     OW 1482   4.958   4.278   1.026  0.0982  0.3683  0.1070
  361SOL    HW1 1483   5.001   4.355   1.062  0.0797 -0.1871  1.3684
  361SOL    HW2 1484   4.939   4.301   0.935  1.7430  1.1485 -0.0660
  362SOL     OW 1485   5.603   3.959   0.449 -0.3863  0.0289 -0.0603
  362SOL    HW1 1486   5.511   3.966   0.424 -0.7016 -1.5835  0.5534
  362SOL    HW2 1487   5.608   3.881   0.503  1.5392 -0.5398 -0.9571
  363SOL     OW 1488   3.961   5.334   4.432  0.1989 -0.0954  0.4240
  363SOL    HW1 1489   4.052   5.333   4.401  0.4700 -0.4609  1.2105
  363SOL    HW2 1490   3.913   5.383   4.365  1.1526  0.9564  0.4861
  364SOL     OW 1491   1.654   1.493   2.144  0.4188 -0.0263  0.1287
  364SOL    HW1 1492   1.585   1.468   2.084  1.6048 -1.3468 -0.7516
  364SOL    HW2 1493   1.724   1.526   2.087  0.5239  1.3612  1.0005
  365SOL     OW 1494   5.869   3.878   0.421  0.3470 -0.4366  0.2010
  365SOL    HW1 1495   5.781   3.900   0.390  0.0828 -0.9870  0.5362
  365SOL    HW2 1496   5.888   3.793   0.380  0.0405 -1.1139  1.4179
  366SOL     OW 1497   0.506   0.587   5.892  0.3860 -0.0029  0.2855
  366SOL    HW1 1498   0.575   0.604   5.956 -0.9348  1.4891  1.3955
  366SOL    HW2 1499   0.484   0.495   5.905  0.2659  0.2231  1.8814
  367SOL     OW 1500   6.169   1.252   0.424 -0.6903 -0.1718 -0.0017
  367SOL    HW1 1501   6.116   1.331   0.413 -0.3857  0.4529  2.3653
  367SOL    HW2 1502   6.177   1.216   0.336  2.5952  4.6662 -2.1520
  368SOL     OW 1503   1.766   4.165   6.131 -0.1710 -0.0002 -0.2969
  368SOL    HW1 1504   1.753   4.217   6.210  0.3020  0.2259 -0.3634
  368SOL    HW2 1505   1.853   4.191   6.099  0.3418 -1.2548 -0.0004
  369SOL     OW 1506   2.316   3.085   3.440  0.1785  0.2852  0.5440
  369SOL    HW1 1507   2.263   3.105   3.517  0.9423  2.1805  0.6326
  369SOL    HW2 1508   2.393   3.039   3.475  0.2134  0.5604  0.8339
  370SOL     OW 1509   0.461   3.271   5.315 -0.2404 -0.4060 -0.6222
  370SOL    HW1 1510   0.432   3.273   5.406  1.1031 -1.9189 -0.1177
  370SOL    HW2 1511   0.392   3.224   5.269 -0.8897  0.2996 -0.4063
  371SOL     OW 1512   1.261   2.014   5.506  0.4234 -0.0223  0.1880
  371SOL    HW1 1513   1.300   2.099   5.489  0.3311 -0.1612 -0.8419
  371SOL    HW2 1514   1.327   1.951   5.478 -0.0620 -0.2649 -0.4592
  372SOL     OW 1515   2.695   1.494   0.758 -0.0524  0.3240  0.1041
  372SOL    HW1 1516   2.691   1.477   0.664  0.6644 -1.5396  0.3612
  372SOL    HW2 1517   2.620   1.447   0.794  1.4541 -1.7541  0.7496
  373SOL     OW 1518   0.025   2.702   2.351  0.0413  0.6546 -0.6442
  373SOL    HW1 1519   0.101   2.679   2.297 -0.4826 -1.0408 -0.7235
  373SOL    HW2 1520  -0.046   2.648   2.317 -0.2711 -0.6743  1.8243
  374SOL     OW 1521   0.425   4.494   3.410  0.0096  0.2015  0.1592
  374SOL    HW1 1522   0.360   4.430   3.438  0.2819 -0.7616 -1.3196
  374SOL    HW2 1523   0.388   4.578   3.436 -0.3448 -0.5234  2.1591
  375SOL     OW 1524   2.262   5.962   4.340 -0.4166 -0.2267 -0.5141
  375SOL    HW1 1525   2.181   6.011   4.328  1.0501  2.3788 -0.4205
  375SOL    HW2 1526   2.312   5.979   4.260  0.4069 -1.1052 -0.2106
  376SOL     OW 1527   0.674   4.409   5.611  0.0038 -0.1177 -0.0826
  376SOL    HW1 1528   0.579   4.393   5.609  0.2184 -1.6636  0.9232
  376SOL    HW2 1529   0.688   4.453   5.695  0.4036 -1.5655  0.6246
  377SOL     OW 1530   6.047   6.572   0.484 -0.4047  0.0726  0.3761
  377SOL    HW1 1531   5.960   6.593   0.451 -0.5198  0.4751  0.9063
  377SOL    HW2 1532   6.079   6.655   0.520  0.0312 -0.1656  0.5411
  378SOL     OW 1533   6.455   1.623   3.222  0.3313  0.0123 -0.2006
  378SOL    HW1 1534   6.412   1.650   3.141 -1.8038 -0.3474  0.7477
  378SOL    HW2 1535   6.450   1.700   3.279 -1.8437 -0.9221  0.9706
  379SOL     OW 1536   1.340   6.625   2.787 -0.8814  0.1616 -0.1294
  379SOL    HW1 1537   1.287   6.583   2.720  0.4154 -0.0822 -1.0307
  379SOL    HW2 1538   1.317   6.580   2.868 -1.1254 -0.7876 -0.7138
  380SOL     OW 1539   0.949   4.888   0.653  0.0462  0.1857  0.0389
  380SOL    HW1 1540   0.895   4.935   0.589  0.7032  0.9697  0.0560
  380SOL    HW2 1541   0.954   4.946   0.728 -0.5544 -0.6464  0.7493
  381SOL     OW 1542   6.690   4.153   6.091 -0.1832  0.2879 -0.2208
  381SOL    HW1 1543   6.596   4.156   6.077 -0.3485  0.8848  0.9453
  381SOL    HW2 1544   6.728   4.165   6.004 -1.1749  1.1241 -0.5460
  382SOL     OW 1545   2.891   5.561   3.352 -0.2290 -0.1490 -0.7924
  382SOL    HW1 1546   2.942   5.638   3.380 -1.3809  0.5545 -0.5754
  382SOL    HW2 1547   2.938   5.527   3.277 -0.0027  1.1135 -1.2440
  383SOL     OW 1548   5.683   2.839   6.321  0.7373 -0.5804 -0.0362
  383SOL    HW1 1549   5.615   2.822   6.387  0.8739  1.2743  0.6528
  383SOL    HW2 1550   5.757   2.785   6.348 -0.4406 -2.7706 -0.8906
  384SOL     OW 1551   6.328   0.237   3.166  0.1353  0.1819  0.4525
  384SOL    HW1 1552   6.282   0.258   3.247  2.3194  1.3625  1.4779
  384SOL    HW2 1553   6.313   0.313   3.109  1.4926  1.0018  1.1404
  385SOL     OW 1554   6.451   1.502   3.719 -0.5048  0.0419  0.0696
  385SOL    HW1 1555   6.367   1.537   3.749  0.0155  0.3149  1.2810
  385SOL    HW2 1556   6.465   1.544   3.635 -0.5506  1.7296  0.8591
  386SOL     OW 1557   2.106   0.287   4.862  0.3035  0.0072  0.2174
  386SOL    HW1 1558   2.104   0.355   4.930  1.3454 -0.1846  0.4482
  386SOL    HW2 1559   2.030   0.232   4.881 -0.8765  1.3892 -0.2886
  387SOL     OW 1560   0.169   1.230   1.941  1.4144 -0.1930  0.5140
  387SOL    HW1 1561   0.232   1.232   2.013  1.2139 -1.0655  0.7352
  387SOL    HW2 1562   0.137   1.320   1.933  2.4803  0.2018  0.5807
  388SOL     OW 1563   1.657   0.347   1.453  0.1508  0.4881 -0.0867
  388SOL    HW1 1564   1.654   0.291   1.530 -2.1213  0.9435  0.2352
  388SOL    HW2 1565   1.588   0.312   1.396  1.0791  0.8128 -1.4619
  389SOL     OW 1566   6.285   0.719   5.653 -0.0482  0.1598 -0.3761
  389SOL    HW1 1567   6.342   0.679   5.719 -1.0216 -0.5306  0.0625
  389SOL    HW2 1568   6.345   0.746   5.583  0.7348 -1.4382 -0.3633
  390SOL     OW 1569   6.285   4.579   2.993 -0.4390  0.1254 -0.0773
  390SOL    HW1 1570   6.204   4.557   2.947 -0.5929  0.2791  0.1131
  390SOL    HW2 1571   6.296   4.509   3.058  0.3110 -0.6288 -1.0011
  391SOL     OW 1572   2.860   3.722   4.338 -0.5137 -0.5256  0.5414
  391SOL    HW1 1573   2.893   3.811   4.352 -0.7419 -0.3894  0.2216
  391SOL    HW2 1574   2.782   3.734   4.284 -0.2779 -0.9622  0.0989
  392SOL     OW 1575   5.415   2.089   0.139 -0.2642 -0.8342 -0.0634
  392SOL    HW1 1576   5.498   2.072   0.183  0.6412 -0.5983 -1.5898
  392SOL    HW2 1577   5.360   2.013   0.160  0.5320 -1.2609  0.5021
  393SOL     OW 1578   5.964   4.496   1.466 -0.5499 -0.9030  0.5132
  393SOL    HW1 1579   6.019   4.573   1.452  0.6003 -1.5977  0.9822
  393SOL    HW2 1580   5.891   4.527   1.519  0.3513 -0.2955  1.4391
  394SOL     OW 1581   2.531   3.690   0.419 -0.3240  0.5858  0.6183
  394SOL    HW1 1582   2.504   3.603   0.447  0.3803  0.2972  0.4142
  394SOL    HW2 1583   2.513   3.746   0.494 -1.5690  0.4243  0.4613
  395SOL     OW 1584   3.410   3.493   0.762  0.0889  0.1379 -0.0626
  395SOL    HW1 1585   3.366   3.484   0.677 -0.3003 -0.6932  0.2128
  395SOL    HW2 1586   3.433   3.403   0.787 -0.9428  0.2109  1.2951
  396SOL     OW 1587   0.929   4.977   6.351 -0.0385 -0.2043 -0.1379
  396SOL    HW1 1588   0.882   5.041   6.403 -1.1437 -1.4907  0.5294
  396SOL    HW2 1589   0.873   4.899   6.354  1.2312 -1.1833 -0.9425
  397SOL     OW 1590   5.908   1.734   4.732  0.4776 -0.0632 -1.0377
  397SOL    HW1 1591   5.848   1.738   4.807  0.1992  0.3815 -1.2789
  397SOL    HW2 1592   5.891   1.814   4.683  1.6266  0.3203 -0.8461
  398SOL     OW 1593   0.578   4.119   0.112  0.1812  0.3886  0.6449
  398SOL    HW1 1594   0.624   4.175   0.175 -0.6788  0.5875  1.1138
  398SOL    HW2 1595   0.534   4.054   0.166  2.6805 -1.9859  0.0361
  399SOL     OW 1596   0.658   0.930   6.409  0.0419  0.8354  0.6693
  399SOL    HW1 1597   0.740   0.880   6.408 -0.4296  0.0364  1.0255
  399SOL    HW2 1598   0.592   0.867   6.379 -0.6094  1.1590  1.4190
  400SOL     OW 1599   2.319   2.815   3.667 -0.1629 -0.1784  0.4285
  400SOL    HW1 1600   2.228   2.791   3.681 -0.3354 -1.4485 -2.2951
  400SOL    HW2 1601   2.368   2.763   3.730 -1.2071 -0.4691  1.0187
  401SOL     OW 1602   6.639   5.655   5.593 -0.3922 -0.1623 -0.0928
  401SOL    HW1 1603   6.562   5.711   5.585 -0.5255 -0.3188  0.0930
  401SOL    HW2 1604   6.693   5.678   5.517 -0.1847  0.6152  0.2770
  402SOL     OW 1605   2.035   6.213   5.376  1.0357  0.0157 -0.0748
  402SOL    HW1 1606   1.988   6.245   5.299 -0.0724  0.4483  0.7494
  402SOL    HW2 1607   2.014   6.277   5.445  1.9778 -0.3750  0.5968
  403SOL     OW 1608   3.523   3.012   0.454 -0.2041 -0.1389 -0.3671
  403SOL    HW1 1609   3.446   2.968   0.417 -0.9177  2.1395 -1.7708
  403SOL    HW2 1610   3.505   3.105   0.445  2.8812  0.5098 -1.1325
  404SOL     OW 1611   0.345   2.149   1.366  0.0121 -0.2050 -0.1514
  404SOL    HW1 1612   0.348   2.172   1.273  0.0770  1.4936  0.2320
  404SOL    HW2 1613   0.334   2.233   1.411 -2.1032 -1.1689  1.2902
  405SOL     OW 1614   4.793   0.875   5.137  0.6852 -0.5316 -0.6724
  405SOL    HW1 1615   4.705   0.849   5.110  0.1831  0.8574 -0.4135
  405SOL    HW2 1616   4.811   0.820   5.213  0.1054 -0.9155 -0.8033
  406SOL     OW 1617   2.288   0.122   2.852 -0.3086  0.0823  0.1809
  406SOL    HW1 1618   2.223   0.054   2.835 -1.3662  1.2290 -0.5528
  406SOL    HW2 1619   2.327   0.140   2.767  0.7465 -0.3434  0.5569
  407SOL     OW 1620   3.340   6.367   5.870  0.4901  0.1437 -0.1510
  407SOL    HW1 1621   3.332   6.440   5.931  0.5824  0.6591 -0.7415
  407SOL    HW2 1622   3.418   6.319   5.899  1.1200  0.9638 -0.4608
  408SOL     OW 1623   1.178   0.061   1.591  0.2129  0.5463 -0.2208
  408SOL    HW1 1624   1.235   0.035   1.663  0.1904  0.7261 -0.1365
  408SOL    HW2 1625   1.191  -0.006   1.524 -2.4012 -1.6793  1.2861
  409SOL     OW 1626   1.147   6.168   0.073 -1.0575 -0.2416  0.1491
  409SOL    HW1 1627   1.125   6.173   0.167 -1.5098  1.3606 -0.0110
  409SOL    HW2 1628   1.242   6.157   0.071 -1.0895 -0.6952  0.7994
  410SOL     OW 1629   0.841   3.596   0.791 -0.5165 -0.0288  0.1566
  410SOL    HW1 1630   0.859   3.597   0.885  0.1811  1.6579  0.0480
  410SOL    HW2 1631   0.748   3.575   0.784 -0.8092  0.7782  1.2914
  411SOL     OW 1632   4.370   1.389   5.015  0.4701 -0.2744 -0.9195
  411SOL    HW1 1633   4.334   1.473   5.044 -0.1155 -0.8784  0.1681
  411SOL    HW2 1634   4.304   1.325   5.040  1.5908 -1.2402 -0.3061
  412SOL     OW 1635   5.501   3.934   3.370 -0.2416  0.2691  0.1399
  412SOL    HW1 1636   5.514   3.942   3.276  2.1557  1.2411  0.4717
  412SOL    HW2 1637   5.534   3.847   3.391  1.2895  0.8577  0.3150
  413SOL     OW 1638   3.509   5.693   6.663  0.2425  0.1380  0.5507
  413SOL    HW1 1639   3.491   5.686   6.757  1.5568 -2.0166  0.7110
  413SOL    HW2 1640   3.602   5.717   6.658 -0.3881  2.7412 -0.2561
  414SOL     OW 1641   3.187   4.296   3.862 -0.4800 -0.4368 -0.0987
  414SOL    HW1 1642   3.184   4.315   3.768 -0.6760 -2.0876 -0.4587
  414SOL    HW2 1643   3.111   4.240   3.877  1.5752 -3.3361  0.2560
  415SOL     OW 1644   5.695   3.646   6.158  0.2396  0.5508  0.2959
  415SOL    HW1 1645   5.766   3.627   6.097 -0.3032 -0.1701 -0.1278
  415SOL    HW2 1646   5.696   3.573   6.221 -0.8429 -0.1107 -0.4013
  416SOL     OW 1647   6.246   4.807   3.351  0.1693 -0.0115 -0.0058
  416SOL    HW1 1648   6.277   4.896   3.365 -4.3751  2.0029 -1.1537
  416SOL    HW2 1649   6.223   4.776   3.439 -0.1340  0.7883  0.2070
  417SOL     OW 1650   6.638   3.471   5.999 -0.4100  0.5991 -0.3220
  417SOL    HW1 1651   6.678   3.547   5.957 -2.4470  2.5118  0.9595
  417SOL    HW2 1652   6.551   3.502   6.026 -0.9427 -1.9087  1.1365
  418SOL     OW 1653   4.153   5.736   4.100 -0.0854 -0.4114  0.2547
  418SOL    HW1 1654   4.188   5.740   4.011 -1.4892  0.3791 -0.2918
  418SOL    HW2 1655   4.093   5.811   4.106 -0.4442 -0.7808  1.6775
  419SOL     OW 1656   2.205   5.252   5.302 -0.0370 -0.0064  0.3921
  419SOL    HW1 1657   2.229   5.166   5.269 -1.8661 -0.5876  0.4406
  419SOL    HW2 1658   2.145   5.287   5.235 -0.6886  0.4731  1.2061
  420SOL     OW 1659   1.032   1.678   3.283  0.1271 -0.5736  0.1929
  420SOL    HW1 1660   1.123   1.681   3.313  0.0474  0.1651  0.3651
  420SOL    HW2 1661   1.019   1.586   3.257  1.1466 -0.5168 -0.5688
  421SOL     OW 1662   3.059   0.401   5.500 -0.0662  0.1043 -0.9950
  421SOL    HW1 1663   3.029   0.430   5.414  0.8205  0.1587 -1.3011
  421SOL    HW2 1664   2.981   0.364   5.541 -1.5396  3.6590 -0.2183
  422SOL     OW 1665   0.579   2.783   6.315 -0.1316  0.4962  0.5621
  422SOL    HW1 1666   0.579   2.864   6.264 -1.8171  0.4646  0.4828
  422SOL    HW2 1667   0.557   2.715   6.252 -2.3979  0.4731  1.3148
  423SOL     OW 1668   1.761   3.363   4.826 -0.2595 -0.3386  0.5951
  423SOL    HW1 1669   1.823   3.292   4.844  0.5881  0.2529  0.1024
  423SOL    HW2 1670   1.808   3.442   4.851 -0.9447  0.0999  0.5114
  424SOL     OW 1671   6.150   3.236   0.583 -0.1503  0.6576  0.0689
  424SOL    HW1 1672   6.103   3.317   0.605 -0.9080  0.3610 -0.4032
  424SOL    HW2 1673   6.083   3.168   0.590  0.6813 -0.0666  1.3272
  425SOL     OW 1674   3.979   2.049   2.244  0.3776  0.2960  0.0713
  425SOL    HW1 1675   3.984   2.003   2.328 -0.2533  0.6736  0.3310
  425SOL    HW2 1676   4.028   1.994   2.183  0.6003 -0.1323  0.6252
  426SOL     OW 1677   6.443   4.076   1.403  0.0283 -0.3042  0.0187
  426SOL    HW1 1678   6.374   4.010   1.409  0.8202 -1.0400  1.6347
  426SOL    HW2 1679   6.523   4.024   1.388  0.3877  0.4597 -0.8108
  427SOL     OW 1680   6.737   0.266   4.218 -0.9686 -0.4692 -0.3453
  427SOL    HW1 1681   6.643   0.257   4.233 -1.0612 -0.9509 -1.2092
  427SOL    HW2 1682   6.747   0.267   4.123 -0.0394 -1.0647 -0.2664
  428SOL     OW 1683   5.659   5.571   1.984  0.3337  0.0835 -0.0408
  428SOL    HW1 1684   5.617   5.564   2.069 -1.3417  1.8421 -0.6390
  428SOL    HW2 1685   5.699   5.486   1.969  0.5645 -0.2928  2.4271
  429SOL     OW 1686   5.823   3.663   1.169  0.3567 -0.5371 -0.2403
  429SOL    HW1 1687   5.876   3.742   1.180 -0.1663 -0.2126  0.0033
  429SOL    HW2 1688   5.854   3.624   1.087  1.1919 -0.5305  0.0653
  430SOL     OW 1689   4.009   3.956   5.577  0.3298  0.2246  0.3184
  430SOL    HW1 1690   3.924   3.945   5.619  0.5769  1.1035  1.0905
  430SOL    HW2 1691   4.011   3.891   5.507 -0.4909 -0.6057  1.0553
  431SOL     OW 1692   0.925   3.724   3.929 -0.3536  0.1247  0.0596
  431SOL    HW1 1693   0.979   3.765   3.996  0.6889 -2.1869  0.7434
  431SOL    HW2 1694   0.857   3.788   3.910 -0.8358  0.7984  3.5046
  432SOL     OW 1695   3.448   4.257   0.469 -0.3688 -0.1913 -0.0714
  432SOL    HW1 1696   3.429   4.178   0.520  2.8463  0.2192  1.9933
  432SOL    HW2 1697   3.466   4.225   0.380 -0.9233 -1.5381  0.2816
  433SOL     OW 1698   1.126   4.646   6.339  0.2848  0.2553 -0.2751
  433SOL    HW1 1699   1.143   4.731   6.297 -0.2302  0.1356 -0.7432
  433SOL    HW2 1700   1.059   4.666   6.405  2.2359  0.7478  1.6407
  434SOL     OW 1701   1.946   5.347   2.938 -0.6315 -0.1914  0.0270
  434SOL    HW1 1702   1.955   5.318   2.847 -0.6221  0.2067 -0.1038
  434SOL    HW2 1703   2.022   5.311   2.982  0.6476  1.5490 -0.6437
  435SOL     OW 1704   0.917   6.095   2.711 -0.3439 -1.1321  0.7193
  435SOL    HW1 1705   0.925   6.158   2.640  1.1734 -0.7530  1.2097
  435SOL    HW2 1706   0.872   6.020   2.671  2.4719 -1.8817 -1.3012
  436SOL     OW 1707   1.310   0.483   1.880 -0.0631 -0.0179 -0.5142
  436SOL    HW1 1708   1.245   0.413   1.888  0.0085 -0.0004  0.2854
  436SOL    HW2 1709   1.382   0.444   1.831 -0.2753 -0.3143 -0.5922
  437SOL     OW 1710   3.345   3.776   6.451 -0.1013 -0.3084 -0.7330
  437SOL    HW1 1711   3.365   3.696   6.498  1.0451 -0.0075 -0.6744
  437SOL    HW2 1712   3.301   3.832   6.515  0.2234 -0.4111 -0.4236
  438SOL     OW 1713   5.788   6.668   0.700  0.2428 -0.3065 -0.4657
  438SOL    HW1 1714   5.788   6.656   0.605  2.1668 -0.6304 -0.4580
  438SOL    HW2 1715   5.704   6.711   0.719  0.1345  0.4216 -2.3934
  439SOL     OW 1716   5.520   2.554   4.100 -0.2858  0.1385 -0.3201
  439SOL    HW1 1717   5.538   2.510   4.184 -0.7730  0.3668 -0.0929
  439SOL    HW2 1718   5.425   2.563   4.098 -0.3086 -0.2439 -1.0940
  440SOL     OW 1719   1.720   4.810   6.681  0.0959 -0.1490 -0.3414
  440SOL    HW1 1720   1.810   4.829   6.706  0.3214 -0.1011 -1.1536
  440SOL    HW2 1721   1.666   4.864   6.739  0.6317  0.6814 -0.6020
  441SOL     OW 1722   4.738   5.187   2.474 -0.0972  0.5107  0.0146
  441SOL    HW1 1723   4.670   5.241   2.514  0.8847  1.2251  0.7572
  441SOL    HW2 1724   4.759   5.121   2.540 -0.5080 -0.1156 -0.4635
  442SOL     OW 1725   6.274   0.786   0.262 -0.1021  0.0150  0.0362
  442SOL    HW1 1726   6.215   0.824   0.327  0.2474 -0.6954  0.7819
  442SOL    HW2 1727   6.318   0.861   0.222 -2.4470  0.6735 -1.4960
  443SOL     OW 1728   5.874   1.053   4.146  0.1391  0.3308  0.0855
  443SOL    HW1 1729   5.798   1.095   4.187  1.0704  1.0916  1.0991
  443SOL    HW2 1730   5.949   1.106   4.175  1.1482 -0.8836 -0.2145
  444SOL     OW 1731   0.543   0.096   6.648  0.0289  0.5124 -0.1814
  444SOL    HW1 1732   0.473   0.061   6.593  0.2703 -0.6340  0.2200
  444SOL    HW2 1733   0.525   0.190   6.653 -2.4357  0.0401  1.2293
  445SOL     OW 1734   1.923   3.790   2.074  0.1715  0.0601  0.2484
  445SOL    HW1 1735   1.878   3.722   2.125 -1.2844  0.1975 -0.8016
  445SOL    HW2 1736   1.925   3.866   2.132  0.7392 -0.5042  0.9908
  446SOL     OW 1737   6.780   5.277   0.701  0.6255  0.0832 -0.0259
  446SOL    HW1 1738   6.778   5.372   0.709  1.1504  0.0436  0.6145
  446SOL    HW2 1739   6.712   5.246   0.761  0.5204  0.0460 -0.1629
  447SOL     OW 1740   2.502   4.484   3.923 -0.3814 -0.1351 -0.2054
  447SOL    HW1 1741   2.564   4.411   3.914 -1.4066 -0.8714 -1.9092
  447SOL    HW2 1742   2.430   4.461   3.864 -0.9262  2.0877 -0.4962
  448SOL     OW 1743   6.578   0.060   5.777  0.4596 -0.5870  0.0611
  448SOL    HW1 1744   6.589   0.154   5.788 -1.5663 -0.4648  1.7525
  448SOL    HW2 1745   6.554   0.048   5.686  0.9106  0.4974 -0.2106
  449SOL     OW 1746   4.073   1.201   6.239 -0.2538 -0.1733  0.3852
  449SOL    HW1 1747   4.110   1.131   6.292 -1.3550 -0.4602  0.8011
  449SOL    HW2 1748   4.013   1.157   6.179 -0.2992  0.3220  0.0573
  450SOL     OW 1749   3.547   3.791   1.379  1.1444 -0.1935  0.0998
  450SOL    HW1 1750   3.612   3.722   1.387  1.5391  0.1626 -0.0151
  450SOL    HW2 1751   3.502   3.791   1.464  1.1392 -0.5922  0.0973
  451SOL     OW 1752   2.407   0.910   4.151  0.0073 -0.4989  0.6879
  451SOL    HW1 1753   2.470   0.896   4.080 -1.3061  1.2505 -0.9350
  451SOL    HW2 1754   2.338   0.846   4.135 -0.4762  0.1539  0.1449
  452SOL     OW 1755   1.497   5.079   5.864  0.0818  0.1582 -0.1016
  452SOL    HW1 1756   1.444   5.159   5.862  2.0351  1.5312 -0.2447
  452SOL    HW2 1757   1.543   5.084   5.948 -0.7410 -1.5275  0.4839
  453SOL     OW 1758   3.967   0.575   6.234  0.0085 -0.0604 -0.3773
  453SOL    HW1 1759   3.997   0.514   6.166 -1.1258 -1.2134  0.1107
  453SOL    HW2 1760   3.955   0.520   6.312 -0.2106  0.9493  0.3174
  454SOL     OW 1761   6.592   2.930   4.148 -0.2116 -0.3291  0.2075
  454SOL    HW1 1762   6.582   2.852   4.203  1.6017 -0.1059  0.9096
  454SOL    HW2 1763   6.650   2.988   4.198  0.0748  0.6309 -1.1756
  455SOL     OW 1764   0.640   2.738   1.187 -0.5939  0.1665 -0.1004
  455SOL    HW1 1765   0.699   2.751   1.113  0.0999  2.5380  0.7833
  455SOL    HW2 1766   0.671   2.658   1.228  1.9224  1.2055  0.1934
  456SOL     OW 1767   3.545   1.064   0.565  0.2753 -0.5472 -0.1871
  456SOL    HW1 1768   3.597   1.134   0.526 -0.7769  0.1237 -0.4267
  456SOL    HW2 1769   3.519   1.098   0.651  2.8771 -2.1524  1.3680
  457SOL     OW 1770   2.107   1.083   0.996 -0.4758  0.1272  0.1969
  457SOL    HW1 1771   2.149   1.148   1.053  1.1131 -1.1185  0.5243
  457SOL    HW2 1772   2.023   1.065   1.038 -0.9125  1.8959  0.1254
  458SOL     OW 1773   4.741   1.319   5.030  0.1329 -0.0226 -0.2561
  458SOL    HW1 1774   4.683   1.260   4.982 -1.2408  0.8610  0.2661
  458SOL    HW2 1775   4.711   1.406   5.007  0.1850  0.4316  1.2980
  459SOL     OW 1776   3.181   2.660   4.793  0.8709 -0.6641 -0.1127
  459SOL    HW1 1777   3.264   2.648   4.840  0.1359  1.1463  1.8404
  459SOL    HW2 1778   3.115   2.663   4.862 -0.9580 -2.4811 -1.6399
  460SOL     OW 1779   3.903   3.474   2.009  0.4495  0.4969 -0.1950
  460SOL    HW1 1780   3.824   3.528   2.000 -0.0937 -0.2046  0.1925
  460SOL    HW2 1781   3.971   3.534   2.039 -0.5282  0.7076  1.8003
  461SOL     OW 1782   3.073   5.602   5.989 -0.4416 -0.0036 -0.1906
  461SOL    HW1 1783   3.137   5.668   5.963  0.0684  0.1089  1.2726
  461SOL    HW2 1784   3.107   5.566   6.071 -2.5939  0.5679  1.0287
  462SOL     OW 1785   6.049   3.831   2.124 -0.0702  0.1104  0.3093
  462SOL    HW1 1786   6.032   3.755   2.070  1.0052 -0.0854  0.2170
  462SOL    HW2 1787   5.963   3.872   2.137 -0.4167 -0.1179 -1.1051
  463SOL     OW 1788   0.316   1.604   5.537  0.1002  0.1237  0.1131
  463SOL    HW1 1789   0.347   1.514   5.528  0.3759  0.2613 -0.3459
  463SOL    HW2 1790   0.395   1.656   5.554  0.2095  0.5376 -1.5149
  464SOL     OW 1791   3.228   0.789   2.415 -0.7484 -0.0084 -0.1432
  464SOL    HW1 1792   3.320   0.809   2.399 -1.1052  1.9874  0.0392
  464SOL    HW2 1793   3.217   0.800   2.510 -1.3301  0.5606 -0.2689
  465SOL     OW 1794   6.504   2.914   6.185  0.0314  0.2832  0.2622
  465SOL    HW1 1795   6.465   2.972   6.251  1.0504 -2.3104  3.3929
  465SOL    HW2 1796   6.595   2.942   6.180 -0.1665  0.8328 -0.5627
  466SOL     OW 1797   0.464   4.095   3.757  0.2378 -0.1990 -0.1034
  466SOL    HW1 1798   0.435   4.121   3.844  1.1982  1.7627 -0.3091
  466SOL    HW2 1799   0.510   4.172   3.723 -2.0850  0.0004 -3.2888
  467SOL     OW 1800   4.329   6.760   3.474  0.0583 -0.1601  0.3176
  467SOL    HW1 1801   4.276   6.790   3.400  0.8512 -0.0838 -0.2400
  467SOL    HW2 1802   4.387   6.694   3.436  0.0616 -0.5708  1.0088
  468SOL     OW 1803   2.399   2.574   5.230 -0.3205 -0.1681 -0.6528
  468SOL    HW1 1804   2.378   2.572   5.136 -0.0141 -0.3649 -0.7191
  468SOL    HW2 1805   2.359   2.494   5.264 -0.6047  0.0037 -0.5742
  469SOL     OW 1806   2.259   2.885   1.769 -0.0352  0.2867  0.3310
  469SOL    HW1 1807   2.319   2.839   1.827 -0.0839  0.4877  0.5414
  469SOL    HW2 1808   2.202   2.934   1.828 -1.9450 -1.7241  0.2979
  470SOL     OW 1809   1.672   1.895   0.973 -0.3053  0.0919  0.8387
  470SOL    HW1 1810   1.597   1.836   0.972  0.3777 -0.9413  3.4255
  470SOL    HW2 1811   1.715   1.878   1.056  2.4486  1.1194 -0.2523
  471SOL     OW 1812   0.042   4.671   0.680  0.0666 -0.4735 -0.3156
  471SOL    HW1 1813   0.045   4.763   0.707 -0.0881 -0.3338 -0.7597
  471SOL    HW2 1814   0.132   4.650   0.655  0.1403 -0.4990 -0.0246
  472SOL     OW 1815   4.240   3.328   5.518 -0.0386  0.4118 -0.4696
  472SOL    HW1 1816   4.280   3.327   5.431 -0.4727  0.8914 -0.6827
  472SOL    HW2 1817   4.311   3.306   5.578  0.2770  0.1264 -0.9406
  473SOL     OW 1818   1.535   6.593   6.150  0.5317 -0.4894 -0.1622
  473SOL    HW1 1819   1.594   6.541   6.204  1.7075  0.5342 -0.4121
  473SOL    HW2 1820   1.458   6.606   6.205  1.1478 -0.5949  0.7498
  474SOL     OW 1821   5.041   3.162   3.389  0.8500 -0.4274  0.6332
  474SOL    HW1 1822   5.072   3.220   3.458  0.3983 -2.1342  2.3524
  474SOL    HW2 1823   4.956   3.132   3.419 -0.3303  0.3490 -1.6838
  475SOL     OW 1824   3.228   1.151   3.280  0.0230  0.1104 -0.2877
  475SOL    HW1 1825   3.249   1.092   3.353 -1.6084  0.3392  0.4223
  475SOL    HW2 1826   3.303   1.210   3.275  0.6572 -0.6005  0.4874
  476SOL     OW 1827   4.551   3.678   1.346  0.9620 -0.1169  0.3200
  476SOL    HW1 1828   4.625   3.629   1.383 -0.3503 -2.1930  0.3536
  476SOL    HW2 1829   4.474   3.644   1.393 -0.2682  0.3578 -1.2704
  477SOL     OW 1830   1.560   2.368   0.873 -0.2149  0.9088 -0.1236
  477SOL    HW1 1831   1.612   2.368   0.793 -1.9882  0.7252 -1.3383
  477SOL    HW2 1832   1.581   2.451   0.915  0.0710  1.4318 -1.2546
  478SOL     OW 1833   1.128   2.453   3.865 -0.0559 -0.1244 -0.0281
  478SOL    HW1 1834   1.176   2.530   3.837  0.0481 -0.1774  0.0066
  478SOL    HW2 1835   1.036   2.478   3.857 -0.0277  0.4058  1.0804
  479SOL     OW 1836   6.231   0.012   3.037  0.0286  0.1126  0.7020
  479SOL    HW1 1837   6.282  -0.057   3.080  1.7098  1.2826  0.6756
  479SOL    HW2 1838   6.249   0.091   3.088 -0.5084  0.8773 -0.2472
  480SOL     OW 1839   5.697   1.654   5.125  0.3074  0.2326 -0.6354
  480SOL    HW1 1840   5.708   1.660   5.220 -0.9768 -1.8884 -0.2877
  480SOL    HW2 1841   5.741   1.573   5.101 -1.2366 -0.3986 -1.4795
  481SOL     OW 1842   0.365   2.409   1.443 -0.8257  0.2230 -0.7995
  481SOL    HW1 1843   0.311   2.486   1.429 -2.2132 -0.6852 -0.6613
  481SOL    HW2 1844   0.438   2.440   1.497 -0.6925  1.6741 -1.7654
  482SOL     OW 1845   6.277   5.335   1.476 -0.3091  0.2333  0.4825
  482SOL    HW1 1846   6.300   5.290   1.558  1.1357  1.4627  0.8084
  482SOL    HW2 1847   6.336   5.410   1.474 -0.8521  0.6426 -1.3345
  483SOL     OW 1848   4.433   0.882   4.158  0.0881  0.2244  0.2460
  483SOL    HW1 1849   4.363   0.831   4.120  0.7351  0.2575 -1.0451
  483SOL    HW2 1850   4.391   0.933   4.228 -0.6292 -1.7441  1.3109
  484SOL     OW 1851   0.408   0.327   0.123 -0.3610 -0.4130  0.0922
  484SOL    HW1 1852   0.426   0.412   0.163  0.4546 -1.0058  1.0257
  484SOL    HW2 1853   0.391   0.347   0.031 -0.9821  0.8382  0.4516
  485SOL     OW 1854   3.557   3.551   2.559  0.6328  0.3559 -0.2454
  485SOL    HW1 1855   3.589   3.615   2.496  0.5146  0.3997 -0.2613
  485SOL    HW2 1856   3.480   3.512   2.516  1.6979 -1.0408 -1.0042
  486SOL     OW 1857   3.412   0.315   1.807 -0.3810  0.2240 -0.0301
  486SOL    HW1 1858   3.446   0.254   1.873 -0.0661  0.1055 -0.3021
  486SOL    HW2 1859   3.427   0.271   1.724  0.9466  1.1741 -0.3220
  487SOL     OW 1860   1.517   1.334   6.504  0.0429 -0.0436  0.3347
  487SOL    HW1 1861   1.425   1.344   6.481  0.0246  1.7723  1.0599
  487SOL    HW2 1862   1.564   1.384   6.437  0.6882 -2.1509 -0.9237
  488SOL     OW 1863   4.118   4.000   2.272 -0.1342 -0.1160  0.4987
  488SOL    HW1 1864   4.196   4.043   2.236 -0.7634  0.4195 -0.2509
  488SOL    HW2 1865   4.046   4.059   2.252 -1.0543 -1.5504 -0.6751
  489SOL     OW 1866   6.182   6.104   4.782  0.0525  0.6294 -0.4726
  489SOL    HW1 1867   6.135   6.062   4.854  1.0147 -0.3350 -0.3769
  489SOL    HW2 1868   6.116   6.158   4.738 -0.7856  0.4314  0.5109
  490SOL     OW 1869   2.886   1.075   0.928  0.5835 -0.5711 -0.5025
  490SOL    HW1 1870   2.907   1.162   0.894 -0.3920 -0.6034 -1.2436
  490SOL    HW2 1871   2.815   1.044   0.871  1.5785 -2.2700 -0.8810
  491SOL     OW 1872   5.425   0.075   2.021  0.3723  0.2407 -0.3190
  491SOL    HW1 1873   5.339   0.035   2.035  0.6921 -0.6679 -0.8405
  491SOL    HW2 1874   5.448   0.050   1.931  1.9838 -1.0850  0.4132
  492SOL     OW 1875   1.013   5.371   1.963 -0.1290 -0.1324 -0.0967
  492SOL    HW1 1876   0.997   5.460   1.996  0.8840  0.4857 -1.1778
  492SOL    HW2 1877   0.941   5.356   1.901 -1.0132 -0.5902  1.0021
  493SOL     OW 1878   0.945   6.362   5.915  0.2507  0.1830 -0.4220
  493SOL    HW1 1879   0.853   6.351   5.939  0.3054  1.7156  0.5846
  493SOL    HW2 1880   0.982   6.274   5.925 -1.0920 -0.4603 -0.8634
  494SOL     OW 1881   3.320   6.032   5.270  0.0442  0.0479  0.0541
  494SOL    HW1 1882   3.294   6.050   5.360 -1.2935  0.7079 -0.4377
  494SOL    HW2 1883   3.355   5.943   5.272 -0.4217 -0.1267  1.1382
  495SOL     OW 1884   5.062   2.653   1.055 -0.4928 -0.5062 -0.1947
  495SOL    HW1 1885   5.033   2.681   0.968  2.6056  0.9782 -0.9092
  495SOL    HW2 1886   5.139   2.598   1.038 -0.6577 -1.3527  1.5873
  496SOL     OW 1887   1.490   3.247   3.530 -0.1152 -0.1535  0.0488
  496SOL    HW1 1888   1.485   3.342   3.542 -0.2959 -0.3566  1.8656
  496SOL    HW2 1889   1.403   3.222   3.498 -0.6007  0.1228  1.1055
  497SOL     OW 1890   2.346   3.336   3.328  0.5771  0.1290  0.5019
  497SOL    HW1 1891   2.334   3.246   3.358  2.4814 -0.0882  0.7234
  497SOL    HW2 1892   2.439   3.341   3.304  0.0472  1.4365 -1.5391
  498SOL     OW 1893   3.216   1.912   1.578  0.2116  0.7743 -0.8880
  498SOL    HW1 1894   3.241   1.935   1.668  0.3374  0.5844 -0.8742
  498SOL    HW2 1895   3.131   1.955   1.566 -0.2811  0.0051 -0.3305
  499SOL     OW 1896   0.685   2.896   4.304 -0.2560 -0.1126  0.1363
  499SOL    HW1 1897   0.714   2.877   4.215  0.6282 -0.7895  0.5478
  499SOL    HW2 1898   0.714   2.820   4.355 -2.2628 -0.5583  0.7059
  500SOL     OW 1899   3.253   3.320   1.667 -0.0520 -0.8180 -0.4215
  500SOL    HW1 1900   3.221   3.237   1.631  1.1901 -1.4135 -0.2026
  500SOL    HW2 1901   3.336   3.297   1.709 -0.6165  0.1840  1.3208
  501SOL     OW 1902   5.715   0.848   5.552 -0.0825 -0.0196 -0.2208
  501SOL    HW1 1903   5.659   0.911   5.507 -2.0351 -0.6355  1.1889
  501SOL    HW2 1904   5.786   0.830   5.490 -1.2970  0.9903 -2.0075
  502SOL     OW 1905   4.331   0.264   1.251  0.1990  0.0988 -0.0399
  502SOL    HW1 1906   4.313   0.173   1.274  1.5511 -0.0114  0.7000
  502SOL    HW2 1907   4.392   0.258   1.177  0.4156  0.3925  0.1129
  503SOL     OW 1908   5.541   0.367   3.261 -0.1869  0.3687  0.1924
  503SOL    HW1 1909   5.519   0.282   3.221 -0.2613  0.9157 -0.9779
  503SOL    HW2 1910   5.561   0.424   3.186  2.0793  0.7952  1.0391
  504SOL     OW 1911   0.521   3.870   6.098  0.3920  0.1853 -0.1306
  504SOL    HW1 1912   0.510   3.775   6.110 -1.7742  0.4002 -0.0690
  504SOL    HW2 1913   0.533   3.904   6.187  0.4472  0.0495 -0.0860
  505SOL     OW 1914   2.663   3.778   4.154 -0.0154 -0.6738  0.8264
  505SOL    HW1 1915   2.605   3.847   4.121  0.3804 -0.5791  0.3246
  505SOL    HW2 1916   2.623   3.696   4.123  0.3564 -0.5844  0.1071
  506SOL     OW 1917   5.071   3.547   5.448  0.0436  0.2646 -0.3228
  506SOL    HW1 1918   5.126   3.490   5.395 -0.6961 -0.5920 -0.1823
  506SOL    HW2 1919   4.990   3.498   5.461 -0.5721  1.2994 -0.1100
  507SOL     OW 1920   4.699   4.507   2.461  0.4320  0.3002 -0.2418
  507SOL    HW1 1921   4.680   4.556   2.541 -1.7964 -1.5740  0.4940
  507SOL    HW2 1922   4.790   4.526   2.442  1.1669  0.5490  2.9727
  508SOL     OW 1923   3.252   0.393   3.566 -0.6089  0.5277 -0.6511
  508SOL    HW1 1924   3.170   0.436   3.541  0.5105  2.7643 -0.6883
  508SOL    HW2 1925   3.236   0.360   3.654 -1.5409  0.9808 -0.6350
  509SOL     OW 1926   3.110   6.189   4.706  0.1791  0.2396  0.5590
  509SOL    HW1 1927   3.189   6.228   4.668  0.6599 -0.3743  0.9099
  509SOL    HW2 1928   3.092   6.113   4.651  0.0254  0.1819  0.6867
  510SOL     OW 1929   2.404   5.912   6.152 -0.1670 -0.2708 -0.1899
  510SOL    HW1 1930   2.353   5.919   6.233 -0.9023 -1.1619 -0.5632
  510SOL    HW2 1931   2.351   5.956   6.086 -0.9189 -1.9698 -0.7735
  511SOL     OW 1932   1.480   1.519   3.391  0.5536 -0.2986  0.2145
  511SOL    HW1 1933   1.464   1.470   3.472  1.6672  0.6014  1.0094
  511SOL    HW2 1934   1.472   1.611   3.417 -1.9537  0.0202 -1.3495
  512SOL     OW 1935   1.144   3.653   5.580 -0.4089 -0.3837 -0.1901
  512SOL    HW1 1936   1.048   3.650   5.577 -0.4438 -2.2508  0.8476
  512SOL    HW2 1937   1.166   3.611   5.663  1.3310 -1.0460 -0.9340
  513SOL     OW 1938   6.133   3.722   1.490 -0.4176 -0.6020  0.6617
  513SOL    HW1 1939   6.111   3.700   1.580 -1.2600 -0.9901  0.3778
  513SOL    HW2 1940   6.084   3.658   1.437 -0.0610 -0.2873 -0.0711
  514SOL     OW 1941   4.296   1.705   0.266  0.4214  0.1992  0.1720
  514SOL    HW1 1942   4.365   1.639   0.270  0.7610  0.5673  0.4819
  514SOL    HW2 1943   4.239   1.683   0.340 -0.8578 -1.2376 -1.1543
  515SOL     OW 1944   2.150   1.783   5.679  0.1913  0.5930 -0.8068
  515SOL    HW1 1945   2.228   1.803   5.730 -0.0246  0.2607 -0.3426
  515SOL    HW2 1946   2.081   1.768   5.744 -0.1363  0.3661 -1.1975
  516SOL     OW 1947   2.675   0.344   0.615  0.2920 -0.0344  0.1140
  516SOL    HW1 1948   2.742   0.330   0.682  0.5026 -0.3939 -0.1662
  516SOL    HW2 1949   2.725   0.373   0.538 -0.0455  1.4357  0.4254
  517SOL     OW 1950   0.915   0.137   1.648 -0.5087  0.2843 -0.2270
  517SOL    HW1 1951   1.001   0.136   1.607 -0.9778  1.0517 -1.2515
  517SOL    HW2 1952   0.862   0.076   1.597 -0.8565  0.5799 -0.2267
  518SOL     OW 1953   6.230   4.033   3.785  0.1439 -0.2253  0.0142
  518SOL    HW1 1954   6.278   4.080   3.854  0.9049  0.3451 -0.8870
  518SOL    HW2 1955   6.196   4.102   3.728  1.2266 -0.7282 -1.2990
  519SOL     OW 1956   2.352   6.078   3.824  0.2744  0.0998  0.0973
  519SOL    HW1 1957   2.312   6.157   3.860  1.3275  0.3325  0.8325
  519SOL    HW2 1958   2.446   6.091   3.836  0.5837 -0.4957 -1.4061
  520SOL     OW 1959   2.862   6.337   1.543 -0.3726  0.1089 -0.1070
  520SOL    HW1 1960   2.900   6.348   1.630 -1.0079  2.1899 -0.0462
  520SOL    HW2 1961   2.897   6.253   1.512  2.0956  0.6155  1.0326
  521SOL     OW 1962   6.566   1.439   3.398  0.0290 -0.0550  0.2062
  521SOL    HW1 1963   6.646   1.489   3.410  0.3457 -0.9474  2.2011
  521SOL    HW2 1964   6.524   1.479   3.322  3.0594 -0.5026 -1.8771
  522SOL     OW 1965   1.502   5.244   1.255  0.5903  0.4352 -0.0448
  522SOL    HW1 1966   1.516   5.192   1.334 -1.1171 -0.4272 -0.2612
  522SOL    HW2 1967   1.585   5.240   1.208  1.4659  0.5431  1.4567
  523SOL     OW 1968   2.695   3.200   6.331 -0.0372 -0.0435  0.1055
  523SOL    HW1 1969   2.642   3.279   6.347 -1.3090 -1.2019  2.0301
  523SOL    HW2 1970   2.634   3.128   6.343  1.2042 -1.3784 -1.2228
  524SOL     OW 1971   4.232   3.487   1.714 -0.1478  0.3235 -0.0668
  524SOL    HW1 1972   4.304   3.544   1.689  1.3198 -1.4911 -0.2339
  524SOL    HW2 1973   4.235   3.415   1.650 -0.8100 -0.8232  1.1356
  525SOL     OW 1974   2.041   6.027   3.244  0.0735 -0.4705  0.1910
  525SOL    HW1 1975   2.022   6.120   3.232  0.4431 -0.3617  0.4277
  525SOL    HW2 1976   2.124   6.014   3.197 -0.5756 -0.9451 -0.8782
  526SOL     OW 1977   3.843   2.752   1.452  0.2821  0.0251 -0.5765
  526SOL    HW1 1978   3.901   2.777   1.523 -0.2168 -1.6387  0.4966
  526SOL    HW2 1979   3.895   2.694   1.397 -0.6828 -2.8113  1.2838
  527SOL     OW 1980   2.532   1.685   3.797 -0.7348 -0.3821 -0.1786
  527SOL    HW1 1981   2.587   1.756   3.766 -1.7191  0.7060  0.4880
  527SOL    HW2 1982   2.559   1.670   3.888 -1.0775 -0.2893 -0.0569
  528SOL     OW 1983   2.720   5.199   5.775 -0.4795  0.6965 -0.4410
  528SOL    HW1 1984   2.696   5.279   5.728  0.9579 -0.3055 -3.0436
  528SOL    HW2 1985   2.803   5.220   5.817  0.3114  0.3968 -1.7880
  529SOL     OW 1986   5.764   3.074   6.191 -0.5569  0.0458  0.3389
  529SOL    HW1 1987   5.720   3.000   6.233  0.4058 -1.5525 -1.3016
  529SOL    HW2 1988   5.720   3.082   6.106 -1.1521  1.8966  0.7903
  530SOL     OW 1989   5.106   2.757   6.328 -0.1301 -0.2049 -0.5686
  530SOL    HW1 1990   5.146   2.841   6.350 -1.9271  0.4593  0.4303
  530SOL    HW2 1991   5.059   2.773   6.246  0.5277 -0.5917 -1.0246
  531SOL     OW 1992   4.499   6.516   3.753 -0.0962 -0.0961 -0.0840
  531SOL    HW1 1993   4.442   6.460   3.700 -0.8334  1.1132 -0.6427
  531SOL    HW2 1994   4.581   6.468   3.761 -1.1401 -1.8430  0.6234
  532SOL     OW 1995   4.596   0.701   6.007  0.4275 -0.0180 -0.0985
  532SOL    HW1 1996   4.567   0.777   6.058  0.0022  0.2288 -0.7051
  532SOL    HW2 1997   4.659   0.737   5.945  1.0564 -0.3444  0.3393
  533SOL     OW 1998   6.007   4.602   3.807 -0.6159 -0.4334  0.2527
  533SOL    HW1 1999   6.017   4.524   3.861  0.8273  0.1038  0.8128
  533SOL    HW2 2000   5.984   4.671   3.869  2.1516  0.4326  0.4458
  534SOL     OW 2001   4.604   3.460   0.798  0.5741 -0.3742 -0.1497
  534SOL    HW1 2002   4.551   3.518   0.852  0.8422  0.1449 -0.4378
  534SOL    HW2 2003   4.556   3.454   0.715 -0.0395 -1.4787  0.2576
  535SOL     OW 2004   6.173   2.043   6.557  0.2577 -0.9478  0.2814
  535SOL    HW1 2005   6.171   2.095   6.638  0.7269 -2.3951  1.2604
  535SOL    HW2 2006   6.087   2.059   6.517  0.4815  0.7766  0.3784
  536SOL     OW 2007   3.095   1.967   6.170 -0.8610  0.1912  0.3026
  536SOL    HW1 2008   3.127   1.878   6.155 -2.3349 -0.2582 -0.3698
  536SOL    HW2 2009   3.048   1.961   6.254 -2.4319 -0.1245 -0.5584
  537SOL     OW 2010   3.948   0.655   5.855 -0.2263  0.5218 -0.0900
  537SOL    HW1 2011   3.991   0.606   5.786 -0.6540 -1.0667  0.7268
  537SOL    HW2 2012   3.910   0.731   5.811 -0.1179 -0.2280 -1.5212
  538SOL     OW 2013   1.207   0.315   1.485 -0.2941  0.0395  0.4038
  538SOL    HW1 2014   1.205   0.225   1.517 -1.5105  0.3578  1.2804
  538SOL    HW2 2015   1.231   0.308   1.392  0.4632 -1.1057  0.6678
  539SOL     OW 2016   2.593   0.271   0.900  0.1547 -0.3488 -0.6819
  539SOL    HW1 2017   2.515   0.323   0.915  1.3141  1.2199  0.1402
  539SOL    HW2 2018   2.628   0.304   0.817 -0.1813 -1.2458 -1.1975
  540SOL     OW 2019   1.337   3.742   1.366  0.3322  0.0207 -0.1975
  540SOL    HW1 2020   1.344   3.677   1.436  1.1710  1.1378  0.8188
  540SOL    HW2 2021   1.287   3.813   1.406  0.8229  0.6800 -0.7289
  541SOL     OW 2022   2.039   1.428   5.449 -0.1520 -0.1254 -0.6290
  541SOL    HW1 2023   2.047   1.443   5.543 -0.8945 -0.5099 -0.4977
  541SOL    HW2 2024   2.005   1.339   5.441  3.7212 -1.7589 -1.3825
  542SOL     OW 2025   5.694   0.829   2.956 -0.0407 -0.1990 -0.0217
  542SOL    HW1 2026   5.695   0.913   2.910 -0.2275 -0.5122 -0.6085
  542SOL    HW2 2027   5.758   0.776   2.909 -1.3668 -1.0453 -0.9160
  543SOL     OW 2028   6.174   1.822   1.368  0.0120  0.5318  0.0985
  543SOL    HW1 2029   6.112   1.873   1.316  0.8632  1.4623 -0.0246
  543SOL    HW2 2030   6.183   1.739   1.320  0.0919  1.0266 -0.7662
  544SOL     OW 2031   4.988   4.850   2.322 -0.1480 -0.6668  0.0946
  544SOL    HW1 2032   5.019   4.841   2.412 -1.6523 -1.2535  0.5838
  544SOL    HW2 2033   4.994   4.944   2.303  0.7097 -0.6163  0.5987
  545SOL     OW 2034   4.154   0.966   2.039 -0.1324  0.1681  0.6399
  545SOL    HW1 2035   4.186   1.055   2.052  1.2072 -0.2868  0.5240
  545SOL    HW2 2036   4.070   0.965   2.086  0.9219  0.8313  2.6683
  546SOL     OW 2037   3.209   3.528   1.010 -0.3046  0.4098 -0.2496
  546SOL    HW1 2038   3.224   3.498   0.920  0.7494  0.0912  0.0101
  546SOL    HW2 2039   3.218   3.623   1.005  0.0456  0.3697 -0.4308
  547SOL     OW 2040   0.206   1.830   1.172  0.1738 -0.6844 -0.1937
  547SOL    HW1 2041   0.157   1.781   1.106  0.1606 -0.3074 -0.4687
  547SOL    HW2 2042   0.294   1.838   1.135  0.2458 -0.7268 -0.0331
  548SOL     OW 2043   3.171   1.085   3.005  1.1445 -0.3527 -0.1967
  548SOL    HW1 2044   3.100   1.146   2.984 -0.1470 -0.8438  2.2597
  548SOL    HW2 2045   3.174   1.085   3.101  2.2437 -2.8690 -0.1531
  549SOL     OW 2046   3.955   3.899   6.476 -0.2922  0.2603 -0.2688
  549SOL    HW1 2047   4.029   3.942   6.518  1.3078 -1.0908 -1.5470
  549SOL    HW2 2048   3.878   3.931   6.523  1.2250  0.1150  2.5066
  550SOL     OW 2049   3.950   4.195   2.207 -0.1097  0.1538  0.7162
  550SOL    HW1 2050   3.963   4.247   2.287  0.2362 -0.6013  1.1593
  550SOL    HW2 2051   4.020   4.223   2.149 -0.3094  0.6417  0.6988
  551SOL     OW 2052   4.724   5.635   2.999  0.1866  0.5764 -0.3532
  551SOL    HW1 2053   4.742   5.704   2.936 -0.1684 -0.9412 -2.1825
  551SOL    HW2 2054   4.734   5.553   2.951 -0.2289 -0.6618  1.5177
  552SOL     OW 2055   3.130   6.692   0.462 -0.4343 -0.1468  0.0289
  552SOL    HW1 2056   3.210   6.729   0.426 -0.2544 -1.1764 -0.6699
  552SOL    HW2 2057   3.142   6.697   0.557 -0.2017  1.0630 -0.0416
  553SOL     OW 2058   3.292   1.508   2.174 -0.1352 -0.3209 -0.1146
  553SOL    HW1 2059   3.378   1.523   2.135 -0.2505  2.3153  0.4448
  553SOL    HW2 2060   3.231   1.521   2.102 -0.1151 -2.2791 -0.5317
  554SOL     OW 2061   2.875   2.282   1.643  0.3174 -0.6532 -0.1094
  554SOL    HW1 2062   2.943   2.348   1.655  1.3792 -1.8194  0.3848
  554SOL    HW2 2063   2.911   2.221   1.578 -1.0649 -0.2420 -1.3283
  555SOL     OW 2064   1.733   3.204   4.039 -0.4964 -0.3980 -0.6694
  555SOL    HW1 2065   1.661   3.209   3.976 -1.7511  1.6928  0.7691
  555SOL    HW2 2066   1.803   3.256   4.000  0.1825 -2.1609 -1.9263
  556SOL     OW 2067   0.052   5.941   6.029 -0.2322 -0.3160  0.5158
  556SOL    HW1 2068   0.025   5.852   6.053 -0.9015 -0.0457  0.7566
  556SOL    HW2 2069   0.120   5.963   6.093 -0.6162 -0.3519  0.9344
  557SOL     OW 2070   4.144   0.117   1.789 -0.4255  0.2516  0.4820
  557SOL    HW1 2071   4.169   0.065   1.866  0.2882  0.5381  0.4491
  557SOL    HW2 2072   4.126   0.053   1.721 -0.2859  0.0232  0.6593
  558SOL     OW 2073   3.114   3.348   3.848  0.2292 -1.1682  0.6085
  558SOL    HW1 2074   3.125   3.282   3.917  0.1458  0.2923  2.0767
  558SOL    HW2 2075   3.038   3.398   3.875  0.6965 -0.0306 -0.1168
  559SOL     OW 2076   0.804   4.125   6.230 -0.2996 -0.2305 -0.1964
  559SOL    HW1 2077   0.886   4.078   6.214  0.0832  0.4014 -0.1059
  559SOL    HW2 2078   0.737   4.056   6.230  0.1846 -0.7110 -0.6020
  560SOL     OW 2079   3.012   6.613   3.116 -0.2153 -0.1631  0.6124
  560SOL    HW1 2080   2.936   6.627   3.173  0.1036  1.4934  0.6728
  560SOL    HW2 2081   2.980   6.636   3.029  0.4273  1.4839  0.7693
  561SOL     OW 2082   2.737   2.950   4.610  0.1386 -0.1811 -0.0325
  561SOL    HW1 2083   2.702   3.038   4.595  0.5903  0.3442  1.7917
  561SOL    HW2 2084   2.666   2.902   4.652  0.2546 -0.3528 -0.0281
  562SOL     OW 2085   2.996   1.053   4.564 -0.3068 -0.1852  0.8399
  562SOL    HW1 2086   3.082   1.025   4.597  0.1901  0.8206  0.4537
  562SOL    HW2 2087   2.988   1.144   4.592 -0.5035  0.2537 -0.5248
  563SOL     OW 2088   3.116   5.570   3.627  0.3912  0.2210  0.1626
  563SOL    HW1 2089   3.089   5.639   3.566  2.1251  0.7113 -0.1162
  563SOL    HW2 2090   3.200   5.539   3.591  0.3984 -0.9546  1.1474
  564SOL     OW 2091   2.850   3.133   4.156  0.2635 -0.4241  0.4090
  564SOL    HW1 2092   2.820   3.050   4.193  1.5023 -1.8141 -1.5186
  564SOL    HW2 2093   2.801   3.141   4.074  0.2747  0.7037  0.4924
  565SOL     OW 2094   1.983   3.759   6.747 -0.5010  0.6091  0.5132
  565SOL    HW1 2095   1.934   3.722   6.820 -0.1686 -0.2452  0.3234
  565SOL    HW2 2096   2.075   3.739   6.766 -0.5117 -1.0554 -0.8623
  566SOL     OW 2097   3.116   4.254   3.046 -0.1114  0.3550  0.3269
  566SOL    HW1 2098   3.064   4.193   3.099  0.0143  1.0399  1.2631
  566SOL    HW2 2099   3.051   4.307   2.999 -0.2190 -0.7332 -0.7900
  567SOL     OW 2100   4.515   0.984   6.119  0.7032  0.1643  0.2669
  567SOL    HW1 2101   4.557   1.069   6.135 -0.6602  0.6059  1.7679
  567SOL    HW2 2102   4.436   1.004   6.069  1.4331 -0.4980 -1.2320
  568SOL     OW 2103   4.499   4.986   5.824  0.1667 -0.5723  0.4122
  568SOL    HW1 2104   4.559   4.912   5.827  2.0111  0.8392  0.2178
  568SOL    HW2 2105   4.515   5.033   5.905 -1.3821 -0.6458  0.7879
  569SOL     OW 2106   3.989   5.280   6.751 -0.0114 -0.5668 -0.1750
  569SOL    HW1 2107   3.952   5.262   6.838  0.0564 -1.2508 -0.2781
  569SOL    HW2 2108   4.071   5.326   6.769 -1.3625  1.9537  0.0352
  570SOL     OW 2109   1.014   0.177   0.001  0.3960  0.2509 -0.2524
  570SOL    HW1 2110   1.061   0.215   0.075  0.6572 -1.7503  0.6497
  570SOL    HW2 2111   1.067   0.199  -0.075  0.7954  1.2223  0.2845
  571SOL     OW 2112   3.539   3.365   4.346  0.6559 -0.3934 -0.1561
  571SOL    HW1 2113   3.466   3.386   4.405 -0.5062 -2.5882 -0.6926
  571SOL    HW2 2114   3.517   3.409   4.264  0.6804  0.1124  0.1040
  572SOL     OW 2115   1.078   2.383   2.380  0.0756  0.1509 -0.1497
  572SOL    HW1 2116   1.054   2.322   2.450  2.8634 -0.1729  0.6417
  572SOL    HW2 2117   1.094   2.328   2.304  0.3118  0.1271 -0.0847
  573SOL     OW 2118   6.569   5.308   0.895  0.3035  0.1098  0.0103
  573SOL    HW1 2119   6.520   5.254   0.957  0.5744  1.5123  1.5434
  573SOL    HW2 2120   6.503   5.366   0.856 -0.4496 -2.7321 -3.4869
  574SOL     OW 2121   0.091   3.524   1.788  0.0748  0.4090  0.0843
  574SOL    HW1 2122   0.064   3.615   1.804  0.8339  0.3056  2.2340
  574SOL    HW2 2123   0.134   3.497   1.869 -3.4093 -3.1080  1.0551
  575SOL     OW 2124   6.773   4.552   6.163  0.2676 -0.2033  0.1842
  575SOL    HW1 2125   6.809   4.641   6.165  0.9923 -0.4862  0.4478
  575SOL    HW2 2126   6.679   4.564   6.156  0.1151  0.6564  2.6190
  576SOL     OW 2127   2.313   1.414   5.304  0.3976 -0.1243  0.0154
  576SOL    HW1 2128   2.373   1.407   5.378 -0.7030  0.3909  0.9949
  576SOL    HW2 2129   2.229   1.434   5.343 -0.6032 -1.5587 -1.2688
  577SOL     OW 2130   1.107   5.025   0.052 -0.1273  0.2943 -0.6841
  577SOL    HW1 2131   1.095   4.972   0.131 -0.8172 -0.0312 -1.0002
  577SOL    HW2 2132   1.170   5.092   0.078 -1.7284  1.3454  0.6996
  578SOL     OW 2133   5.733   2.229   4.237 -0.3132 -0.4232 -0.5099
  578SOL    HW1 2134   5.680   2.150   4.239  0.2177 -0.7892 -0.9202
  578SOL    HW2 2135   5.675   2.297   4.273 -0.7351 -1.0073 -0.0717
  579SOL     OW 2136   2.247   4.262   1.061  0.1478  0.6669  0.1425
  579SOL    HW1 2137   2.242   4.232   1.152  0.7819  0.7645  0.2170
  579SOL    HW2 2138   2.206   4.348   1.062  1.8091  1.4932  0.7293
  580SOL     OW 2139   3.976   0.600   4.108 -0.0271 -0.6551  0.2966
  580SOL    HW1 2140   4.046   0.543   4.138 -0.0440 -0.3728  0.8813
  580SOL    HW2 2141   3.941   0.556   4.031 -0.6862 -1.9427  1.2953
  581SOL     OW 2142   5.687   1.247   4.206  0.1704  0.2690 -0.1232
  581SOL    HW1 2143   5.767   1.286   4.240  0.6129 -0.6345 -0.0855
  581SOL    HW2 2144   5.624   1.318   4.204 -0.1100  0.2879  3.2489
  582SOL     OW 2145   5.955   3.607   1.977 -0.1435  0.1545  0.2242
  582SOL    HW1 2146   5.968   3.522   1.936  1.2545 -0.1071  1.1393
  582SOL    HW2 2147   5.860   3.622   1.973 -0.3348 -1.1699 -0.4677
  583SOL     OW 2148   4.207   3.271   1.897  0.0841  0.4347  0.6054
  583SOL    HW1 2149   4.162   3.336   1.843 -1.5926 -0.1706  1.2216
  583SOL    HW2 2150   4.294   3.309   1.911  0.5159  0.7513 -2.2243
  584SOL     OW 2151   3.860   2.555   2.099 -0.0652  0.1500  0.1608
  584SOL    HW1 2152   3.795   2.559   2.169 -0.6171 -1.1015 -0.2523
  584SOL    HW2 2153   3.897   2.466   2.105 -0.0429  0.0547 -1.0569
  585SOL     OW 2154   3.433   3.807   0.207 -1.3139  0.0992 -0.0131
  585SOL    HW1 2155   3.416   3.712   0.202  1.7909 -0.5831  0.2179
  585SOL    HW2 2156   3.415   3.830   0.298  0.6611 -0.9767  0.7079
  586SOL     OW 2157   2.775   5.157   2.057 -0.0776 -0.0501  0.4373
  586SOL    HW1 2158   2.777   5.094   2.128  2.2483 -0.6383 -0.0651
  586SOL    HW2 2159   2.706   5.126   1.999  0.3568 -1.5921  0.7011
  587SOL     OW 2160   0.569   6.101   2.378 -0.0043  0.5454 -0.0479
  587SOL    HW1 2161   0.627   6.043   2.427 -1.3905  0.4874  1.6081
  587SOL    HW2 2162   0.627   6.170   2.344  1.0745  0.3452  1.3099
  588SOL     OW 2163   1.207   3.150   5.518 -0.4452 -0.4636 -0.6800
  588SOL    HW1 2164   1.264   3.076   5.540 -2.8184 -2.0332  0.5745
  588SOL    HW2 2165   1.253   3.194   5.446  1.4090 -2.7152 -1.0259
  589SOL     OW 2166   5.936   6.300   4.963 -0.8290  0.1724 -0.0487
  589SOL    HW1 2167   5.872   6.254   4.908  0.5251 -2.2774  0.2962
  589SOL    HW2 2168   5.905   6.287   5.053 -1.2431  1.3044 -0.0084
  590SOL     OW 2169   0.860   2.078   4.763 -0.1786  0.9617 -0.8156
  590SOL    HW1 2170   0.797   2.126   4.816 -0.0720  0.7746 -0.5123
  590SOL    HW2 2171   0.900   2.016   4.825 -0.4157  0.3896 -1.2234
  591SOL     OW 2172   4.077   3.721   5.429  0.8366 -0.3722  0.2807
  591SOL    HW1 2173   4.148   3.724   5.364  0.6844 -0.3032  0.1151
  591SOL    HW2 2174   4.113   3.670   5.502  1.4433  0.5875  0.6671
  592SOL     OW 2175   0.802   3.229   4.799  0.0537 -0.6978 -0.1769
  592SOL    HW1 2176   0.845   3.269   4.875  0.6394  0.6942 -1.1972
  592SOL    HW2 2177   0.865   3.240   4.728 -1.3074 -0.0625 -1.3406
  593SOL     OW 2178   4.479   5.415   5.894  0.5600 -0.3741 -0.2593
  593SOL    HW1 2179   4.494   5.326   5.927 -2.1347 -1.1082 -0.7398
  593SOL    HW2 2180   4.384   5.421   5.886  0.7702  1.9881 -1.8503
  594SOL     OW 2181   6.410   5.590   2.148 -0.6805 -0.6284 -0.5424
  594SOL    HW1 2182   6.357   5.565   2.073  2.0042 -0.0273 -2.8306
  594SOL    HW2 2183   6.449   5.674   2.123  1.3696 -1.0748  0.8769
  595SOL     OW 2184   3.430   2.734   6.060  0.0192  0.1955  0.0166
  595SOL    HW1 2185   3.431   2.826   6.035 -0.0525  0.2703  0.2810
  595SOL    HW2 2186   3.365   2.694   6.002  1.6561 -0.1560 -1.6465
  596SOL     OW 2187   3.288   3.562   0.133 -0.0981  0.2707  0.6205
  596SOL    HW1 2188   3.204   3.578   0.177 -0.7498 -0.2992 -0.3670
  596SOL    HW2 2189   3.316   3.477   0.165 -0.0165  0.3574  0.7776
  597SOL     OW 2190   6.705   6.414   0.145 -0.1240  0.0753 -0.7084
  597SOL    HW1 2191   6.636   6.465   0.189  0.7140  1.0816 -0.4986
  597SOL    HW2 2192   6.785   6.463   0.163  0.3627  0.1345 -2.7644
  598SOL     OW 2193   0.573   5.653   1.301  0.8964  0.3173 -0.6597
  598SOL    HW1 2194   0.596   5.745   1.311 -0.6153  0.5725  1.0623
  598SOL    HW2 2195   0.617   5.625   1.221  0.9779  2.6584 -1.4981
  599SOL     OW 2196   2.572   5.915   0.961 -0.1738 -0.2563  0.4607
  599SOL    HW1 2197   2.592   5.998   1.005  1.4519 -0.8312  0.8779
  599SOL    HW2 2198   2.620   5.920   0.879  1.3483 -1.4439  1.2290
  600SOL     OW 2199   4.180   5.457   5.893  0.7268  0.1604 -0.0128
  600SOL    HW1 2200   4.152   5.371   5.923 -2.6400  0.9871 -0.4173
  600SOL    HW2 2201   4.125   5.518   5.942 -0.8597  1.7985 -3.5286
  601SOL     OW 2202   2.507   3.773   6.440  0.3429  0.2352 -0.3914
  601SOL    HW1 2203   2.502   3.752   6.347  1.4230 -0.4756 -0.3123
  601SOL    HW2 2204   2.423   3.746   6.476  0.4367 -0.8310 -0.9217
  602SOL     OW 2205   1.985   2.492   1.752 -0.2489 -0.0109  0.3374
  602SOL    HW1 2206   2.061   2.536   1.715  0.5371 -1.3367  0.3444
  602SOL    HW2 2207   2.011   2.470   1.841 -0.9520  0.2626  0.6182
  603SOL     OW 2208   1.388   6.052   2.421  0.0511 -0.1344  0.0559
  603SOL    HW1 2209   1.439   5.974   2.400  1.6573  1.1948 -1.3009
  603SOL    HW2 2210   1.325   6.060   2.350  1.2886  0.8891 -0.9903
  604SOL     OW 2211   5.805   4.062   0.905  0.5846  0.2090  0.1051
  604SOL    HW1 2212   5.840   3.994   0.847 -0.4600 -1.1483  0.9904
  604SOL    HW2 2213   5.842   4.042   0.991 -0.7778 -0.0810  0.6509
  605SOL     OW 2214   4.154   0.536   3.240  0.1824  0.4107  0.2257
  605SOL    HW1 2215   4.086   0.549   3.174  0.8461  0.3246 -0.5083
  605SOL    HW2 2216   4.236   0.538   3.189  0.7287  0.5945  1.0885
  606SOL     OW 2217   0.789   4.454   4.302  0.0594  0.6833  0.1735
  606SOL    HW1 2218   0.823   4.425   4.218  0.9424  0.7818  0.4849
  606SOL    HW2 2219   0.696   4.432   4.300 -0.1261  1.4823 -1.1751
  607SOL     OW 2220   2.937   4.704   3.824 -0.1905  0.3503 -0.7544
  607SOL    HW1 2221   2.866   4.698   3.888  0.0991 -0.0089 -0.4654
  607SOL    HW2 2222   2.892   4.716   3.740 -0.5362  2.8027 -0.2765
  608SOL     OW 2223   0.747   3.189   2.078 -0.2603  0.4930 -0.2938
  608SOL    HW1 2224   0.795   3.139   2.145  1.0564 -0.2581 -1.7361
  608SOL    HW2 2225   0.697   3.253   2.128  1.6664  0.8076  1.3707
  609SOL     OW 2226   2.171   2.394   4.303  0.5549  0.0812  0.0825
  609SOL    HW1 2227   2.192   2.469   4.359  0.3579  0.1632  0.0477
  609SOL    HW2 2228   2.079   2.375   4.322  0.0719  0.9637 -1.1810
  610SOL     OW 2229   3.066   2.762   5.592 -0.2421 -0.1797  0.2980
  610SOL    HW1 2230   3.010   2.774   5.515 -2.0041  0.0272  1.5547
  610SOL    HW2 2231   3.056   2.670   5.615  0.6992 -0.3689 -0.0049
  611SOL     OW 2232   3.086   5.743   2.766 -0.3058  0.1474 -0.0013
  611SOL    HW1 2233   3.050   5.768   2.681  1.6175  0.5369 -0.7509
  611SOL    HW2 2234   3.029   5.785   2.830 -1.2607  0.5851 -1.1142
  612SOL     OW 2235   2.719   4.273   4.655  0.4292 -0.1179  0.1616
  612SOL    HW1 2236   2.795   4.218   4.675  0.8081  0.2157 -0.3249
  612SOL    HW2 2237   2.695   4.248   4.566 -1.4276 -1.8204  1.0781
  613SOL     OW 2238   1.093   2.753   0.191 -0.3403 -0.3539 -0.1810
  613SOL    HW1 2239   1.027   2.746   0.123 -0.9246  0.8018  0.2333
  613SOL    HW2 2240   1.093   2.846   0.215 -0.8959 -0.8725  2.1056
  614SOL     OW 2241   6.001   3.441   4.937  0.4383  0.2910 -0.6988
  614SOL    HW1 2242   6.060   3.515   4.940  0.0866  0.5840  1.9218
  614SOL    HW2 2243   6.010   3.400   5.023 -1.0682 -1.3436 -1.2503
  615SOL     OW 2244   3.751   3.409   3.779  0.5258 -0.2262  0.3411
  615SOL    HW1 2245   3.845   3.396   3.793  0.3911 -1.5153  0.1776
  615SOL    HW2 2246   3.710   3.332   3.818 -0.3741 -0.2714 -0.6344
  616SOL     OW 2247   5.877   4.833   3.533  0.1153  0.1133 -0.3576
  616SOL    HW1 2248   5.970   4.854   3.545  0.8610 -2.5446 -0.6460
  616SOL    HW2 2249   5.846   4.812   3.621  0.4146 -1.0303 -0.5002
  617SOL     OW 2250   5.527   3.776   3.918 -0.7275 -0.2922 -0.0033
  617SOL    HW1 2251   5.623   3.779   3.926 -0.7956 -1.6783  2.2962
  617SOL    HW2 2252   5.500   3.868   3.918  0.4854  0.1044  1.5326
  618SOL     OW 2253   3.210   5.273   4.390  0.2370  0.2324  0.2770
  618SOL    HW1 2254   3.241   5.253   4.478  1.0891 -0.9583 -0.2682
  618SOL    HW2 2255   3.144   5.342   4.403 -0.2669 -0.4996  1.9150
  619SOL     OW 2256   3.413   3.566   6.658  0.5348 -0.6148 -0.0060
  619SOL    HW1 2257   3.472   3.639   6.677 -0.7551  0.4067  0.3059
  619SOL    HW2 2258   3.380   3.540   6.744  1.5560 -2.1055 -0.0378
  620SOL     OW 2259   2.085   2.692   3.694  0.4333  0.0619  0.1407
  620SOL    HW1 2260   2.029   2.655   3.763  1.8410 -2.0688  0.2204
  620SOL    HW2 2261   2.107   2.617   3.638  1.8715  1.1583 -0.8214
  621SOL     OW 2262   1.658   1.899   2.157 -0.4272 -0.1181  0.4572
  621SOL    HW1 2263   1.747   1.889   2.189 -1.0011  0.1161  2.2783
  621SOL    HW2 2264   1.652   1.990   2.129 -0.2124 -0.0167  0.7378
  622SOL     OW 2265   0.538   4.534   0.254 -0.8360 -0.4106 -0.7061
  622SOL    HW1 2266   0.486   4.454   0.243 -0.3198 -1.0045  0.9081
  622SOL    HW2 2267   0.503   4.594   0.188 -1.8503 -1.6501 -1.3527
  623SOL     OW 2268   5.749   5.143   0.306 -0.0886 -0.2545 -0.7335
  623SOL    HW1 2269   5.690   5.164   0.379  0.6683 -0.5814 -0.0177
  623SOL    HW2 2270   5.721   5.056   0.277  1.2950 -1.3130  0.9269
  624SOL     OW 2271   3.258   5.669   0.378 -0.0564  0.1790 -0.2079
  624SOL    HW1 2272   3.331   5.656   0.439  0.6625 -2.4513 -1.4494
  624SOL    HW2 2273   3.192   5.715   0.429  0.7526 -1.2956  2.3798
  625SOL     OW 2274   1.839   3.363   3.842 -0.1902 -0.4480  0.6916
  625SOL    HW1 2275   1.822   3.292   3.780 -1.9049  0.2402  0.2977
  625SOL    HW2 2276   1.934   3.363   3.854 -0.1694 -3.0323  1.0053
  626SOL     OW 2277   0.822   4.826   1.160 -0.2398 -0.3658 -0.8723
  626SOL    HW1 2278   0.783   4.912   1.175  0.4563 -0.2295  0.2553
  626SOL    HW2 2279   0.767   4.786   1.092 -1.3648  0.4399 -0.4607
  627SOL     OW 2280   6.679   4.811   0.250  0.0965  0.0476  0.3183
  627SOL    HW1 2281   6.599   4.853   0.218  0.0435 -1.0288 -1.0477
  627SOL    HW2 2282   6.747   4.836   0.187 -0.0543 -2.2816 -0.8600
  628SOL     OW 2283   1.838   2.342   6.643  0.1565  0.2701  0.2505
  628SOL    HW1 2284   1.744   2.330   6.657  0.2093 -0.2915  0.1773
  628SOL    HW2 2285   1.844   2.399   6.566 -0.1233  0.7443  0.5777
  629SOL     OW 2286   3.793   5.453   2.501 -0.5928 -0.0034 -0.1221
  629SOL    HW1 2287   3.790   5.419   2.412  0.6206  0.3594 -0.3124
  629SOL    HW2 2288   3.704   5.441   2.534 -1.0478 -0.1676 -1.3657
  630SOL     OW 2289   2.997   1.541   6.676  0.3751  0.1243 -0.3903
  630SOL    HW1 2290   3.028   1.453   6.659  1.6948  0.8050 -1.7712
  630SOL    HW2 2291   2.977   1.577   6.589 -0.5834  1.0371  0.1772
  631SOL     OW 2292   4.055   3.544   4.012 -0.5390  0.3200 -0.2450
  631SOL    HW1 2293   4.095   3.461   4.035 -0.6608  0.4940  0.6225
  631SOL    HW2 2294   4.092   3.566   3.926 -0.3338 -0.5087 -0.3736
  632SOL     OW 2295   3.117   2.549   0.111  0.0777 -0.0327  0.0842
  632SOL    HW1 2296   3.115   2.642   0.134 -1.1582  0.2104 -0.9231
  632SOL    HW2 2297   3.210   2.529   0.100  0.2780  1.7339 -2.1341
  633SOL     OW 2298   0.203   3.766   6.736  0.8081 -0.5106  0.1150
  633SOL    HW1 2299   0.115   3.784   6.770  0.1675  0.3064 -1.8257
  633SOL    HW2 2300   0.229   3.684   6.778  0.5406  0.8588  3.2623
  634SOL     OW 2301   4.990   0.424   2.506  1.0892 -0.1498  0.7364
  634SOL    HW1 2302   5.052   0.497   2.497  1.0279  0.0558  1.8533
  634SOL    HW2 2303   5.023   0.357   2.447  0.6130  1.1285 -1.0938
  635SOL     OW 2304   5.399   0.310   1.671  0.6318 -0.0847 -0.2667
  635SOL    HW1 2305   5.339   0.344   1.737  2.5094  0.6197  1.1747
  635SOL    HW2 2306   5.343   0.287   1.597 -1.4857 -0.3089  1.3115
  636SOL     OW 2307   6.529   0.209   0.756 -0.1985  0.4315  0.1004
  636SOL    HW1 2308   6.466   0.269   0.795 -0.3721  0.5415 -0.3528
  636SOL    HW2 2309   6.500   0.197   0.666 -1.6800 -2.3434  0.8073
  637SOL     OW 2310   0.704   4.588   2.850  0.2921 -0.1123  0.0124
  637SOL    HW1 2311   0.765   4.593   2.924 -0.9611  2.3347  1.0237
  637SOL    HW2 2312   0.746   4.639   2.781 -0.4553  1.4849  0.6738
  638SOL     OW 2313   2.134   2.158   0.492 -0.0949  0.2323  1.2097
  638SOL    HW1 2314   2.149   2.115   0.408  1.4745  1.4695  0.8126
  638SOL    HW2 2315   2.178   2.101   0.556 -1.1927 -0.6499  1.2049
  639SOL     OW 2316   3.747   4.263   0.227 -0.3192 -0.1239 -0.7854
  639SOL    HW1 2317   3.827   4.297   0.266 -0.6907  0.7556 -0.7652
  639SOL    HW2 2318   3.680   4.327   0.250 -0.4500  0.7545 -3.3530
  640SOL     OW 2319   2.596   2.136   3.702  0.1385 -0.4370  0.6187
  640SOL    HW1 2320   2.666   2.196   3.728 -0.4844  1.3313 -1.4346
  640SOL    HW2 2321   2.521   2.162   3.755  0.1112  0.0437  0.3526
  641SOL     OW 2322   3.467   0.743   1.076  0.4865 -0.0842 -0.0787
  641SOL    HW1 2323   3.527   0.778   1.141  1.9055 -0.0462 -1.3468
  641SOL    HW2 2324   3.503   0.772   0.992 -0.2003 -1.7220 -0.9875
  642SOL     OW 2325   6.264   4.190   5.736  1.2469 -0.1255 -0.6143
  642SOL    HW1 2326   6.283   4.179   5.643  1.0577 -0.7169 -0.5842
  642SOL    HW2 2327   6.234   4.281   5.744  1.3011 -0.0609 -1.1199
  643SOL     OW 2328   4.384   0.398   2.202  0.1433 -0.3937 -0.5447
  643SOL    HW1 2329   4.378   0.486   2.164 -1.1261 -0.9352 -1.6562
  643SOL    HW2 2330   4.336   0.404   2.285  0.4313  0.0484 -0.4028
  644SOL     OW 2331   6.008   0.643   4.976  0.2328  0.0532  0.5457
  644SOL    HW1 2332   6.077   0.679   5.032  0.1604  0.1384  0.5812
  644SOL    HW2 2333   5.956   0.587   5.033  1.5579 -1.7706  0.0380
  645SOL     OW 2334   1.013   3.801   4.164 -0.6985  0.4566 -0.3501
  645SOL    HW1 2335   0.934   3.792   4.217 -1.0115 -0.0399 -0.8885
  645SOL    HW2 2336   1.070   3.730   4.193  1.1028  2.7823  2.5514
  646SOL     OW 2337   2.763   2.372   3.028  0.5676  0.5676 -0.7860
  646SOL    HW1 2338   2.678   2.353   2.989  0.5063 -0.8863 -0.0111
  646SOL    HW2 2339   2.747   2.446   3.086 -0.2601  0.0990 -0.3963
  647SOL     OW 2340   0.728   3.100   3.929 -0.1619  0.2629 -0.0130
  647SOL    HW1 2341   0.744   3.044   4.005  0.0997  1.9288  1.2188
  647SOL    HW2 2342   0.806   3.090   3.874  0.4371  0.3473  0.8060
  648SOL     OW 2343   0.612   1.077   5.877 -0.1004  0.3453  0.2739
  648SOL    HW1 2344   0.683   1.035   5.925  0.8588  0.2617 -1.1573
  648SOL    HW2 2345   0.534   1.027   5.900  0.0953  0.9866  2.5889
  649SOL     OW 2346   6.713   0.415   3.677  0.0972 -0.4908  0.2185
  649SOL    HW1 2347   6.641   0.388   3.620 -0.7106 -0.6790  1.2845
  649SOL    HW2 2348   6.735   0.503   3.648 -2.8012  0.9273  1.9007
  650SOL     OW 2349   0.687   6.212   3.238 -0.1602  0.1696 -0.1693
  650SOL    HW1 2350   0.716   6.240   3.325  0.8303 -2.4659  0.4324
  650SOL    HW2 2351   0.766   6.217   3.184  0.4088 -2.5605  0.3000
  651SOL     OW 2352   2.776   4.379   3.606  0.0068 -0.0361 -0.0902
  651SOL    HW1 2353   2.692   4.384   3.562 -0.1011  1.1057  0.2038
  651SOL    HW2 2354   2.839   4.415   3.543 -0.0267  0.8550  0.3646
  652SOL     OW 2355   1.751   5.946   1.591  0.1718  0.2902  0.8170
  652SOL    HW1 2356   1.718   6.015   1.534  0.1767 -0.2245  0.1782
  652SOL    HW2 2357   1.674   5.911   1.635 -0.1519 -0.7960 -0.5434
  653SOL     OW 2358   4.291   1.570   4.271 -0.4206  0.4821 -0.2531
  653SOL    HW1 2359   4.360   1.573   4.205 -0.5651  2.0105 -0.3504
  653SOL    HW2 2360   4.336   1.542   4.351  0.4632  2.1029 -0.1549
  654SOL     OW 2361   4.652   5.417   4.219  0.3023 -0.2477  0.5850
  654SOL    HW1 2362   4.663   5.512   4.229 -2.1388  0.2431 -0.4131
  654SOL    HW2 2363   4.691   5.397   4.134 -0.0229  0.0755  0.3541
  655SOL     OW 2364   3.530   3.570   1.941  0.2260 -0.0761  0.4140
  655SOL    HW1 2365   3.581   3.547   1.863  0.8329  1.8907  0.1826
  655SOL    HW2 2366   3.593   3.611   2.000 -0.1326 -1.8980  2.1867
  656SOL     OW 2367   4.677   2.342   4.504  0.2021  0.0665  0.2595
  656SOL    HW1 2368   4.727   2.261   4.512 -0.4252 -0.5865 -1.8610
  656SOL    HW2 2369   4.592   2.315   4.468  0.4177  1.7569 -1.7161
  657SOL     OW 2370   1.255   0.933   0.512 -0.6882 -0.2597 -0.0295
  657SOL    HW1 2371   1.224   0.899   0.428 -3.6160  0.5653  0.6050
  657SOL    HW2 2372   1.230   1.025   0.511 -0.2206 -0.0948  1.5103
  658SOL     OW 2373   0.989   1.864   6.273 -0.2578  0.9336  0.6509
  658SOL    HW1 2374   0.975   1.870   6.178 -2.2965  0.5651  0.9042
  658SOL    HW2 2375   0.911   1.821   6.307  1.4773 -1.1434  2.2538
  659SOL     OW 2376   2.312   2.880   6.324 -0.8407  0.1059 -0.2976
  659SOL    HW1 2377   2.394   2.923   6.348 -1.2549 -0.1783  1.8091
  659SOL    HW2 2378   2.244   2.944   6.344 -1.1781  0.2891 -1.9045
  660SOL     OW 2379   0.759   4.217   5.857  0.2943  0.2073  0.0546
  660SOL    HW1 2380   0.766   4.134   5.904  1.5714  0.3172  0.0938
  660SOL    HW2 2381   0.667   4.222   5.831  0.3391 -1.6139 -0.6451
  661SOL     OW 2382   5.089   1.103   0.193 -0.6605 -0.3244  0.1844
  661SOL    HW1 2383   5.155   1.164   0.225 -0.8102 -0.9239  1.6958
  661SOL    HW2 2384   5.133   1.018   0.193  0.0246 -0.1091 -3.2822
  662SOL     OW 2385   0.516   4.145   1.412 -0.2322 -0.1693 -0.0414
  662SOL    HW1 2386   0.484   4.221   1.459 -2.0506 -1.1154  0.3600
  662SOL    HW2 2387   0.571   4.099   1.476 -1.6052 -0.7465  0.7848
  663SOL     OW 2388   1.594   5.998   5.386  0.1651 -0.3166 -0.7168
  663SOL    HW1 2389   1.503   5.975   5.367  0.0009  0.6697 -1.1917
  663SOL    HW2 2390   1.641   5.980   5.305  0.0871  0.6757 -1.0004
  664SOL     OW 2391   1.856   0.801   1.657 -0.1656 -0.0349 -0.0740
  664SOL    HW1 2392   1.820   0.867   1.598  0.6218 -0.0431 -0.5769
  664SOL    HW2 2393   1.919   0.753   1.604  2.0603  1.2513  1.2617
  665SOL     OW 2394   0.371   3.599   5.693  0.0530  0.0466  0.2925
  665SOL    HW1 2395   0.339   3.688   5.708 -0.7778 -0.4635  1.7460
  665SOL    HW2 2396   0.323   3.545   5.756  0.5342 -1.4388 -0.5661
  666SOL     OW 2397   3.660   3.061   0.919  0.2754  0.0660  0.0551
  666SOL    HW1 2398   3.580   3.062   0.971 -0.5229  2.7700 -1.0488
  666SOL    HW2 2399   3.731   3.069   0.983 -0.5026  0.3204  0.9017
  667SOL     OW 2400   4.454   3.373   1.977  0.2212 -0.3240  0.3560
  667SOL    HW1 2401   4.522   3.326   2.024  2.0183  0.4754 -1.3111
  667SOL    HW2 2402   4.501   3.440   1.926 -1.7977  0.2781 -0.8544
  668SOL     OW 2403   3.985   5.597   3.486  0.3543  0.2564  0.0565
  668SOL    HW1 2404   3.927   5.673   3.496  0.6891  0.6454 -0.8611
  668SOL    HW2 2405   3.940   5.541   3.423  1.4449  1.0562 -1.4808
  669SOL     OW 2406   2.889   4.910   0.642 -0.4766 -0.1589  0.4742
  669SOL    HW1 2407   2.975   4.869   0.641 -0.3066  0.1334  1.5199
  669SOL    HW2 2408   2.842   4.869   0.570  0.3749 -0.6689  0.1901
  670SOL     OW 2409   6.675   3.961   6.255 -0.2967 -0.4432  0.2416
  670SOL    HW1 2410   6.669   4.033   6.192 -0.1817 -0.4475  0.2240
  670SOL    HW2 2411   6.722   3.999   6.329 -1.5603 -0.0638  0.8819
  671SOL     OW 2412   1.157   5.260   1.744  0.2251 -0.2473 -0.3225
  671SOL    HW1 2413   1.184   5.194   1.680 -0.1336  0.6430 -1.4371
  671SOL    HW2 2414   1.112   5.211   1.813  2.8343 -1.5265  0.5709
  672SOL     OW 2415   4.710   6.677   2.343  0.1012  0.1551  0.1235
  672SOL    HW1 2416   4.779   6.743   2.341  0.0293  0.3514  2.1918
  672SOL    HW2 2417   4.677   6.678   2.433 -2.0171 -0.5484 -0.5649
  673SOL     OW 2418   4.491   0.223   6.766 -0.2317  0.9839 -0.2776
  673SOL    HW1 2419   4.556   0.293   6.773 -1.6146  2.2481  0.7022
  673SOL    HW2 2420   4.439   0.244   6.689  1.1265 -0.6229 -1.7036
  674SOL     OW 2421   3.934   5.907   4.067  0.8903  0.4676  1.0145
  674SOL    HW1 2422   3.872   5.834   4.063  0.5767  0.7793 -0.6366
  674SOL    HW2 2423   3.890   5.979   4.021  1.4947  1.4932  1.9571
  675SOL     OW 2424   0.404   6.574   1.712  0.2985 -0.1898 -0.7230
  675SOL    HW1 2425   0.323   6.616   1.683  1.2719 -0.4903 -4.4191
  675SOL    HW2 2426   0.462   6.646   1.735 -1.1220  0.0132  2.7906
  676SOL     OW 2427   0.497   6.422   5.736  0.6159  0.3247  0.4651
  676SOL    HW1 2428   0.483   6.516   5.726 -2.2694 -0.0086  0.6540
  676SOL    HW2 2429   0.499   6.387   5.647 -0.1671  0.3453  0.4391
  677SOL     OW 2430   1.356   3.872   3.152 -0.0617 -0.0438 -0.0601
  677SOL    HW1 2431   1.445   3.860   3.120 -0.4519  0.9910 -1.6832
  677SOL    HW2 2432   1.359   3.847   3.244  1.9344  0.1454 -0.0401
  678SOL     OW 2433   1.503   6.706   3.078 -0.4026 -0.1072 -0.1242
  678SOL    HW1 2434   1.487   6.618   3.114 -0.1008  0.4644  1.5174
  678SOL    HW2 2435   1.417   6.748   3.079 -0.4563 -0.2102 -0.4128
  679SOL     OW 2436   4.950   1.079   3.186  0.1332  0.3513 -0.2352
  679SOL    HW1 2437   4.965   1.003   3.131  1.0845 -0.0409  0.5388
  679SOL    HW2 2438   5.033   1.092   3.233  0.5061  2.7303 -1.3952
  680SOL     OW 2439   3.633   3.683   0.478 -0.3898 -0.1502  0.1327
  680SOL    HW1 2440   3.693   3.623   0.522 -0.5533 -1.1710 -0.9534
  680SOL    HW2 2441   3.670   3.693   0.390 -0.7388  0.8045  0.0854
  681SOL     OW 2442   4.281   1.005   5.986  0.1591 -0.6803  0.6379
  681SOL    HW1 2443   4.280   0.909   5.981 -0.0526 -0.6869  0.7612
  681SOL    HW2 2444   4.199   1.026   6.030 -2.2187 -0.2151 -3.4557
  682SOL     OW 2445   5.817   4.755   4.535 -0.3664  0.0034 -0.4595
  682SOL    HW1 2446   5.830   4.722   4.623 -0.1061  1.0647 -0.0802
  682SOL    HW2 2447   5.870   4.699   4.479 -0.5472 -0.6849  0.0541
  683SOL     OW 2448   2.170   5.526   6.474 -0.1443 -0.1759  0.6387
  683SOL    HW1 2449   2.092   5.476   6.448  0.1607 -0.0874 -0.4869
  683SOL    HW2 2450   2.161   5.537   6.568 -1.9542  0.6072  0.4126
  684SOL     OW 2451   2.221   0.690   4.096  0.1385 -0.0822  0.6299
  684SOL    HW1 2452   2.132   0.705   4.062  0.2289 -0.6468  0.1434
  684SOL    HW2 2453   2.243   0.601   4.070  0.3936 -0.3811  1.7768
  685SOL     OW 2454   5.366   6.212   2.135  0.3925  0.0711 -0.0747
  685SOL    HW1 2455   5.285   6.235   2.088  0.9370  0.8972 -0.6321
  685SOL    HW2 2456   5.420   6.168   2.069  1.2884  1.5106 -0.3433
  686SOL     OW 2457   5.508   3.978   1.116 -0.3958  0.2566  0.2537
  686SOL    HW1 2458   5.458   4.040   1.064  3.1862  2.6496 -0.7154
  686SOL    HW2 2459   5.491   4.003   1.207 -1.8943  0.1218  0.0355
  687SOL     OW 2460   4.266   3.305   1.522 -0.2677 -0.4647 -0.2299
  687SOL    HW1 2461   4.204   3.233   1.533  0.9766 -1.4355  0.6629
  687SOL    HW2 2462   4.346   3.276   1.566  0.4147  1.2883 -0.2086
  688SOL     OW 2463   5.429   3.592   5.984  0.2838  0.1106 -0.0936
  688SOL    HW1 2464   5.367   3.660   5.958 -1.6682 -1.6052 -0.1193
  688SOL    HW2 2465   5.506   3.640   6.014 -0.3853  2.2934 -1.6482
  689SOL     OW 2466   6.216   2.402   5.939  0.2137 -0.7331  0.1462
  689SOL    HW1 2467   6.292   2.348   5.919  0.1058 -0.3120 -1.5961
  689SOL    HW2 2468   6.141   2.346   5.920  0.1063 -0.3230 -0.6934
  690SOL     OW 2469   5.343   5.386   1.957  0.3258  0.1551  0.1347
  690SOL    HW1 2470   5.379   5.305   1.994  0.8059 -1.0528 -2.6958
  690SOL    HW2 2471   5.417   5.429   1.916 -0.2587  1.1701  0.1170
  691SOL     OW 2472   1.295   0.090   5.801 -0.0923 -0.0489  0.4853
  691SOL    HW1 2473   1.285   0.072   5.895  0.5653  2.3795  1.0839
  691SOL    HW2 2474   1.389   0.101   5.788 -0.2626  0.6315 -0.2445
  692SOL     OW 2475   6.094   5.150   5.843  0.2226 -0.0875 -0.1254
  692SOL    HW1 2476   6.147   5.226   5.821  1.6276 -0.6632  1.0317
  692SOL    HW2 2477   6.094   5.096   5.764 -1.3369  1.3651 -1.1681
  693SOL     OW 2478   2.342   5.041   1.837  0.2290 -0.1245  0.6553
  693SOL    HW1 2479   2.292   4.988   1.775  0.6519  0.3382 -0.0950
  693SOL    HW2 2480   2.334   5.131   1.804  1.6938 -0.0532  0.3976
  694SOL     OW 2481   3.479   0.678   2.091 -0.1707 -0.0187 -0.3962
  694SOL    HW1 2482   3.497   0.644   2.004 -0.4784 -1.7980  0.1987
  694SOL    HW2 2483   3.384   0.666   2.102  0.0509 -0.9748  0.6320
  695SOL     OW 2484   5.909   4.297   3.435 -0.3793 -0.3950  0.4441
  695SOL    HW1 2485   5.820   4.312   3.404 -0.9690 -1.7543  1.4411
  695SOL    HW2 2486   5.955   4.379   3.415 -0.9497 -0.7518 -3.0518
  696SOL     OW 2487   2.070   5.737   4.505  0.0546 -0.1915 -0.2268
  696SOL    HW1 2488   2.010   5.810   4.489 -0.2267 -0.5125 -0.6672
  696SOL    HW2 2489   2.046   5.672   4.439  0.3670 -0.6445  0.1024
  697SOL     OW 2490   2.546   5.300   6.516  0.3722 -0.2410  0.2629
  697SOL    HW1 2491   2.612   5.362   6.485  1.9021 -2.6056 -1.6317
  697SOL    HW2 2492   2.567   5.287   6.609  1.6789  0.1447  0.0446
  698SOL     OW 2493   2.524   2.979   3.573  0.0631  0.7092 -0.3462
  698SOL    HW1 2494   2.607   2.932   3.585 -0.2461 -0.0028 -0.9564
  698SOL    HW2 2495   2.457   2.914   3.591 -0.3808  1.3103  0.2482
  699SOL     OW 2496   6.144   3.156   5.946 -0.2358 -0.1840  0.1567
  699SOL    HW1 2497   6.126   3.203   5.864 -0.1483  2.0553  1.3226
  699SOL    HW2 2498   6.224   3.195   5.979  0.3760 -1.8790  0.7682
  700SOL     OW 2499   0.236   1.689   3.806 -0.2337 -0.2626 -0.0557
  700SOL    HW1 2500   0.142   1.682   3.789 -0.0117  0.9069 -2.1022
  700SOL    HW2 2501   0.276   1.626   3.747  0.3983  1.4721 -1.5741
  701SOL     OW 2502   5.643   0.615   5.001  0.6747 -0.1143 -0.3178
  701SOL    HW1 2503   5.723   0.578   5.037 -0.4346 -1.2601  1.1134
  701SOL    HW2 2504   5.664   0.632   4.909  2.7134  0.1581  0.1484
  702SOL     OW 2505   6.561   6.100   1.481 -0.4189 -0.2005  0.0360
  702SOL    HW1 2506   6.595   6.058   1.559  0.0781  0.9524  0.4657
  702SOL    HW2 2507   6.563   6.032   1.414  1.7873 -0.4633  0.3028
  703SOL     OW 2508   5.518   6.149   2.375 -0.0757  0.2920 -0.1805
  703SOL    HW1 2509   5.478   6.101   2.304 -3.4963  1.0922  1.0189
  703SOL    HW2 2510   5.491   6.240   2.362  1.5296  0.9381  0.6526
  704SOL     OW 2511   2.796   2.747   2.541  1.0134 -0.4080  0.0461
  704SOL    HW1 2512   2.759   2.835   2.547  0.0703 -0.8151  0.4626
  704SOL    HW2 2513   2.890   2.759   2.550  1.0280  0.6974 -1.3679
  705SOL     OW 2514   3.134   5.701   5.333 -0.2767  0.0964  0.0238
  705SOL    HW1 2515   3.210   5.742   5.376 -0.9721  0.0636  1.3541
  705SOL    HW2 2516   3.074   5.774   5.317 -0.2825  0.0153 -0.3251
  706SOL     OW 2517   0.482   0.908   0.774 -0.1893 -0.4528  0.1587
  706SOL    HW1 2518   0.395   0.923   0.738 -0.6107  2.9921  2.2047
  706SOL    HW2 2519   0.467   0.854   0.851 -0.4869 -0.1470  0.3180
  707SOL     OW 2520   4.145   5.877   3.579  0.1179 -0.1361 -0.0540
  707SOL    HW1 2521   4.113   5.944   3.639 -0.1747 -0.5076  0.2086
  707SOL    HW2 2522   4.071   5.859   3.521  0.6897  0.9141 -1.1704
  708SOL     OW 2523   0.128   5.475   4.164  0.0430 -0.0269  0.0525
  708SOL    HW1 2524   0.106   5.487   4.257 -1.4441 -1.0039 -0.1413
  708SOL    HW2 2525   0.195   5.407   4.164  0.7893  0.6955  0.4662
  709SOL     OW 2526   0.504   2.788   5.384  0.2702  0.2403  0.0746
  709SOL    HW1 2527   0.559   2.829   5.317  0.7525  0.0979  0.3789
  709SOL    HW2 2528   0.551   2.709   5.409  0.0598  0.2535  0.5286
  710SOL     OW 2529   0.766   0.640   2.626  0.2353  0.3509 -1.0428
  710SOL    HW1 2530   0.859   0.635   2.649  0.4437  0.4487 -1.8094
  710SOL    HW2 2531   0.763   0.706   2.556 -0.0687 -1.2012 -2.5689
  711SOL     OW 2532   5.769   6.726   5.668 -0.7439  0.2730  0.2743
  711SOL    HW1 2533   5.723   6.683   5.740  0.1179 -0.3107  0.4843
  711SOL    HW2 2534   5.758   6.666   5.594 -1.4853  0.7919 -0.0537
  712SOL     OW 2535   4.850   0.160   2.693 -0.2162 -0.2134 -0.1014
  712SOL    HW1 2536   4.838   0.125   2.605  1.0884 -4.0965  1.0500
  712SOL    HW2 2537   4.942   0.187   2.695 -0.3057  0.0873  0.0294
  713SOL     OW 2538   3.829   1.645   2.532  0.3285  0.3302  0.6021
  713SOL    HW1 2539   3.803   1.563   2.574  0.5327  0.2230  0.5243
  713SOL    HW2 2540   3.925   1.641   2.530  0.3075 -0.2105 -0.9465
  714SOL     OW 2541   6.130   5.542   6.126  0.3946 -0.4721 -0.4199
  714SOL    HW1 2542   6.120   5.627   6.169 -1.0246 -0.6433 -0.3680
  714SOL    HW2 2543   6.205   5.501   6.169 -0.0340  0.0098  0.8177
  715SOL     OW 2544   5.644   2.965   1.055  0.4233 -0.3355  0.6792
  715SOL    HW1 2545   5.715   3.026   1.032 -0.7490  0.9911  0.4190
  715SOL    HW2 2546   5.685   2.901   1.113  1.7322  0.6508  0.8847
  716SOL     OW 2547   6.043   5.704   1.425  0.7636 -0.3545 -0.3070
  716SOL    HW1 2548   6.041   5.616   1.463 -1.2616  0.0548  0.7026
  716SOL    HW2 2549   5.962   5.709   1.373  0.2508  1.2522  0.5807
  717SOL     OW 2550   1.116   4.368   0.282 -0.3681  0.2506 -0.1530
  717SOL    HW1 2551   1.061   4.315   0.223 -1.2744 -0.4295  1.2370
  717SOL    HW2 2552   1.134   4.448   0.233 -2.3053  0.3256 -0.8403
  718SOL     OW 2553   1.166   3.080   5.875 -0.0306  0.0259 -0.2247
  718SOL    HW1 2554   1.100   3.087   5.806  0.0522 -0.3847 -0.3435
  718SOL    HW2 2555   1.250   3.078   5.829  0.0847  0.7638 -0.0645
  719SOL     OW 2556   1.325   1.931   0.383  0.0259  0.3661 -0.3359
  719SOL    HW1 2557   1.387   1.871   0.342  0.5185  0.8336 -0.2823
  719SOL    HW2 2558   1.268   1.874   0.435  0.8911  0.0046  0.2383
  720SOL     OW 2559   5.609   2.112   1.774 -0.2613 -0.2484  0.1415
  720SOL    HW1 2560   5.589   2.066   1.692  1.8356 -0.8237 -0.0883
  720SOL    HW2 2561   5.527   2.158   1.795 -1.1849 -0.9149 -1.7071
  721SOL     OW 2562   4.824   2.772   5.490 -0.0794  0.8234 -0.3155
  721SOL    HW1 2563   4.865   2.742   5.571 -3.8132  1.1635  1.9108
  721SOL    HW2 2564   4.846   2.865   5.484 -0.3085  0.9513  0.7039
  722SOL     OW 2565   4.153   0.379   3.720  0.1893 -0.0516 -0.2621
  722SOL    HW1 2566   4.136   0.357   3.628 -0.4906 -1.1131  0.0975
  722SOL    HW2 2567   4.248   0.394   3.724  0.1628  0.4253 -1.2142
  723SOL     OW 2568   0.173   6.767   3.248 -0.0043 -0.5079  0.0648
  723SOL    HW1 2569   0.198   6.772   3.340  2.5960  1.2006 -0.6271
  723SOL    HW2 2570   0.184   6.856   3.215 -1.0825 -1.0239 -1.8700
  724SOL     OW 2571   6.740   0.240   0.544  0.4847 -0.2802 -0.6325
  724SOL    HW1 2572   6.711   0.319   0.498  1.4805  1.4933  1.5960
  724SOL    HW2 2573   6.833   0.255   0.561  0.4766 -1.4975  0.6579
  725SOL     OW 2574   6.065   0.866   2.175 -0.7690 -0.2252  0.1609
  725SOL    HW1 2575   6.067   0.842   2.268 -2.6526  1.2221  0.6341
  725SOL    HW2 2576   6.153   0.898   2.157 -1.0897  2.1277  2.2707
  726SOL     OW 2577   2.638   1.977   2.037  0.4711 -0.2012 -0.7377
  726SOL    HW1 2578   2.577   2.050   2.051 -0.7552 -1.2551 -0.3342
  726SOL    HW2 2579   2.701   1.984   2.109 -0.0471  0.0720 -0.3015
  727SOL     OW 2580   4.107   0.393   1.364 -0.0120  0.0665 -0.2369
  727SOL    HW1 2581   4.055   0.314   1.380 -0.4368  0.5104  0.6559
  727SOL    HW2 2582   4.176   0.365   1.305  0.3010 -1.1590  0.6774
  728SOL     OW 2583   5.115   2.343   2.757 -0.1152  0.2624  0.0668
  728SOL    HW1 2584   5.125   2.279   2.687  0.2400  1.4395 -1.0040
  728SOL    HW2 2585   5.023   2.369   2.753 -0.4835 -0.8057  1.0944
  729SOL     OW 2586   1.011   5.953   6.737  0.0006 -0.0050  0.1276
  729SOL    HW1 2587   1.088   5.988   6.783  1.3369 -1.0102 -1.2397
  729SOL    HW2 2588   0.947   5.938   6.807  0.9549  1.0410  1.2863
  730SOL     OW 2589   1.115   5.689   2.374 -0.3111 -0.6298 -0.0035
  730SOL    HW1 2590   1.131   5.761   2.435  0.1571  1.0181 -2.0004
  730SOL    HW2 2591   1.025   5.700   2.346  0.0017 -0.3494 -0.9098
  731SOL     OW 2592   2.033   6.127   4.693 -0.4843 -0.2675 -0.2523
  731SOL    HW1 2593   2.087   6.195   4.734  0.0078 -0.3726 -0.7227
  731SOL    HW2 2594   2.058   6.046   4.738 -1.8713  0.0032  1.0907
  732SOL     OW 2595   0.119   4.812   5.832  0.1133  0.2414 -0.0639
  732SOL    HW1 2596   0.082   4.837   5.917  0.5503  0.7526 -0.0179
  732SOL    HW2 2597   0.043   4.808   5.774 -0.6158 -2.6894  0.8748
  733SOL     OW 2598   1.970   1.401   1.961 -0.3154  0.1682 -0.4341
  733SOL    HW1 2599   1.922   1.464   2.014 -0.3702  0.1734 -0.4882
  733SOL    HW2 2600   1.945   1.316   1.997 -0.3907  0.1695 -0.4820
  734SOL     OW 2601   6.591   0.878   6.474  0.3238  0.2260  0.1811
  734SOL    HW1 2602   6.662   0.816   6.491 -0.1879 -0.0838  1.3106
  734SOL    HW2 2603   6.552   0.849   6.392  1.3015  0.2214 -0.2938
  735SOL     OW 2604   1.302   4.451   5.427  0.4815 -0.3334  0.6193
  735SOL    HW1 2605   1.257   4.438   5.510 -0.2549 -0.8510  0.1498
  735SOL    HW2 2606   1.327   4.363   5.398 -1.0507 -0.3824 -0.6681
  736SOL     OW 2607   1.025   5.843   1.177  0.0899  1.0447  0.6566
  736SOL    HW1 2608   1.056   5.932   1.161 -0.6488  0.7939 -2.8137
  736SOL    HW2 2609   1.091   5.787   1.136 -1.5773  0.2603 -1.1456
  737SOL     OW 2610   6.232   4.720   3.974  0.2003  0.3159  0.2524
  737SOL    HW1 2611   6.310   4.761   3.936 -0.6436  1.6912 -0.0550
  737SOL    HW2 2612   6.163   4.785   3.963 -1.2452 -1.2537 -0.3967
  738SOL     OW 2613   2.122   1.242   4.649 -0.1046 -0.1798  0.2586
  738SOL    HW1 2614   2.048   1.203   4.696  0.0227  0.5932  1.1191
  738SOL    HW2 2615   2.081   1.296   4.581 -0.2932 -1.0772 -0.3506
  739SOL     OW 2616   2.647   5.661   2.770  0.4990  0.3149  0.2190
  739SOL    HW1 2617   2.556   5.645   2.792  0.5171 -0.1490 -0.0354
  739SOL    HW2 2618   2.646   5.681   2.676  0.9808 -2.8000 -0.5751
  740SOL     OW 2619   2.295   6.545   0.076  0.2812 -0.3970  0.2145
  740SOL    HW1 2620   2.326   6.495   0.001 -1.2180 -2.0715  0.6358
  740SOL    HW2 2621   2.362   6.612   0.090  0.8725 -0.3803 -2.2462
  741SOL     OW 2622   2.923   1.508   0.330 -0.1915 -0.1399  0.2502
  741SOL    HW1 2623   2.970   1.436   0.370 -1.5490 -0.6928  0.9148
  741SOL    HW2 2624   2.896   1.475   0.244  0.2381  0.0209  0.0507
  742SOL     OW 2625   1.281   1.077   4.738  0.2662 -0.3092 -0.2492
  742SOL    HW1 2626   1.230   1.152   4.709 -0.3334 -0.7087 -0.2501
  742SOL    HW2 2627   1.219   1.004   4.737 -0.5325  0.0414  4.4070
  743SOL     OW 2628   3.543   5.935   3.510  0.1418 -0.1191  0.0825
  743SOL    HW1 2629   3.523   5.977   3.595 -0.7150  1.2861 -0.7603
  743SOL    HW2 2630   3.483   5.861   3.506  2.6440 -2.4853  2.2288
  744SOL     OW 2631   3.195   1.093   0.760 -0.3901 -0.1024 -0.4164
  744SOL    HW1 2632   3.281   1.121   0.790  0.1248 -2.2663  0.3652
  744SOL    HW2 2633   3.138   1.105   0.836 -0.3723 -0.2873 -0.3725
  745SOL     OW 2634   5.474   4.273   2.689 -0.1074 -0.3378 -0.5009
  745SOL    HW1 2635   5.489   4.247   2.779 -0.2318 -0.9394 -0.6477
  745SOL    HW2 2636   5.444   4.193   2.645 -1.0912  0.1919 -0.8275
  746SOL     OW 2637   5.333   0.172   5.969  0.0850  0.5781  0.2226
  746SOL    HW1 2638   5.329   0.182   5.874  1.1013 -0.7041  0.0047
  746SOL    HW2 2639   5.396   0.238   5.997  0.2841  0.5301 -0.0944
  747SOL     OW 2640   5.570   3.439   4.584  0.2582 -0.1816  0.2533
  747SOL    HW1 2641   5.644   3.498   4.599  2.0464 -2.3461  0.4334
  747SOL    HW2 2642   5.532   3.426   4.671  0.5085 -0.1223  0.3729
  748SOL     OW 2643   0.948   5.510   2.719  0.8549  0.5098  0.5012
  748SOL    HW1 2644   0.928   5.586   2.774 -0.0801  0.0273  0.8478
  748SOL    HW2 2645   0.950   5.437   2.780 -2.1915 -0.3724 -0.3179
  749SOL     OW 2646   4.547   2.251   0.719  0.2827  0.2935 -0.1325
  749SOL    HW1 2647   4.629   2.273   0.674  0.8832  0.1572  0.8805
  749SOL    HW2 2648   4.570   2.178   0.776 -1.2818 -2.0197 -2.2209
  750SOL     OW 2649   4.175   6.089   1.847 -0.3688 -0.4720 -0.0711
  750SOL    HW1 2650   4.102   6.082   1.909 -0.7221 -0.4512 -0.4751
  750SOL    HW2 2651   4.139   6.055   1.765  0.0480 -0.3636 -0.2987
  751SOL     OW 2652   0.532   2.311   4.647 -0.3666 -0.2476 -0.2894
  751SOL    HW1 2653   0.587   2.284   4.720 -0.2379 -0.0595 -0.3196
  751SOL    HW2 2654   0.466   2.369   4.686  0.1443  0.4440 -0.4441
  752SOL     OW 2655   3.758   0.247   5.976  0.4346  0.4946 -0.7797
  752SOL    HW1 2656   3.851   0.224   5.982 -0.0013 -1.1125  0.5682
  752SOL    HW2 2657   3.757   0.341   5.962  2.2613  0.5670 -0.6575
  753SOL     OW 2658   5.779   1.647   3.944  0.0110  0.1053  0.1045
  753SOL    HW1 2659   5.774   1.686   3.857  2.1127  2.6610  1.0216
  753SOL    HW2 2660   5.855   1.588   3.939  2.2606  2.7502  0.9836
  754SOL     OW 2661   2.081   0.345   4.417 -0.3954  0.8032 -0.2404
  754SOL    HW1 2662   2.029   0.309   4.345 -0.1651  2.2937 -1.2055
  754SOL    HW2 2663   2.152   0.283   4.430  0.0519  0.9379 -1.9102
  755SOL     OW 2664   6.104   5.575   2.795  1.0531 -0.2810  0.5329
  755SOL    HW1 2665   6.073   5.636   2.729 -0.8906 -1.3945  0.3418
  755SOL    HW2 2666   6.184   5.616   2.830  1.9336  0.5070 -2.1828
  756SOL     OW 2667   0.219   1.251   1.481 -0.2717  0.3232 -0.0239
  756SOL    HW1 2668   0.222   1.343   1.456  1.7809  0.7267  1.5060
  756SOL    HW2 2669   0.138   1.242   1.531 -0.8147  1.1164 -0.7277
  757SOL     OW 2670   0.701   2.268   0.364 -0.3515 -0.3222  0.3123
  757SOL    HW1 2671   0.715   2.363   0.366  1.2220 -0.5385  0.9576
  757SOL    HW2 2672   0.760   2.234   0.431  0.6056 -1.9390 -1.2577
  758SOL     OW 2673   2.014   1.424   5.717 -0.2207  0.1230 -0.4635
  758SOL    HW1 2674   2.004   1.331   5.699  1.1198  0.1258 -1.3472
  758SOL    HW2 2675   1.981   1.435   5.806 -0.9403 -1.0738 -0.5534
  759SOL     OW 2676   2.571   1.361   6.094 -0.4175  0.3758 -0.4887
  759SOL    HW1 2677   2.533   1.443   6.124  2.2749  1.3104  0.6595
  759SOL    HW2 2678   2.541   1.296   6.159 -1.0047  0.8149 -0.3079
  760SOL     OW 2679   5.863   2.880   1.216 -0.0548 -0.7181 -0.6539
  760SOL    HW1 2680   5.930   2.855   1.152 -0.4292  0.6731 -1.6434
  760SOL    HW2 2681   5.866   2.811   1.282  0.9525 -1.7496 -1.7194
  761SOL     OW 2682   5.486   6.046   3.467  1.0164  0.0443 -0.0096
  761SOL    HW1 2683   5.578   6.067   3.484  1.9709 -1.2440 -2.8994
  761SOL    HW2 2684   5.475   5.956   3.496  0.8570 -0.0153 -0.2473
  762SOL     OW 2685   2.372   2.657   5.984  0.2725 -0.2864 -0.1302
  762SOL    HW1 2686   2.337   2.662   5.895  1.1503 -0.8311 -0.5255
  762SOL    HW2 2687   2.329   2.581   6.023  1.2101 -1.1467 -0.7213
  763SOL     OW 2688   4.816   2.319   2.976 -0.0467 -0.2181  0.1782
  763SOL    HW1 2689   4.723   2.333   2.960  0.4202 -0.0384 -2.9519
  763SOL    HW2 2690   4.837   2.238   2.930  1.3561 -0.3322  0.9329
  764SOL     OW 2691   5.317   2.302   5.125 -0.2223  0.6011  0.0065
  764SOL    HW1 2692   5.375   2.371   5.157  0.3781 -0.5246  1.5140
  764SOL    HW2 2693   5.229   2.332   5.146 -0.0437  1.3885 -0.3639
  765SOL     OW 2694   3.729   5.791   2.214  0.0505 -0.0094 -0.3509
  765SOL    HW1 2695   3.756   5.829   2.130  0.7939  0.1776 -0.0406
  765SOL    HW2 2696   3.646   5.835   2.234  0.7285  1.2500 -0.1588
  766SOL     OW 2697   2.297   5.246   6.113  0.1460 -0.3507 -0.5664
  766SOL    HW1 2698   2.214   5.228   6.155 -0.8864  0.9706 -1.9214
  766SOL    HW2 2699   2.350   5.289   6.180 -0.3651 -0.9273  0.2158
  767SOL     OW 2700   2.806   0.634   2.813  0.4449 -0.2344  0.2681
  767SOL    HW1 2701   2.743   0.586   2.866  0.1036 -0.1640 -0.0731
  767SOL    HW2 2702   2.754   0.698   2.766  0.5991 -0.9468 -0.9092
  768SOL     OW 2703   5.613   0.056   2.194  0.3758  0.2623 -0.9033
  768SOL    HW1 2704   5.595   0.139   2.238  0.0007  0.7774 -1.9677
  768SOL    HW2 2705   5.550   0.054   2.122  1.7659  0.0867 -2.1807
  769SOL     OW 2706   3.459   6.457   5.574 -0.2163 -0.4149  0.1778
  769SOL    HW1 2707   3.535   6.442   5.630 -0.2786 -0.0662  0.3613
  769SOL    HW2 2708   3.410   6.526   5.618  0.0906  0.3573 -0.6563
  770SOL     OW 2709   2.970   5.309   3.525 -0.6157 -0.0720 -0.1976
  770SOL    HW1 2710   2.881   5.289   3.555  1.2266 -2.6096  4.6524
  770SOL    HW2 2711   2.986   5.398   3.554 -0.8454 -0.4792  1.2726
  771SOL     OW 2712   4.781   0.616   0.498 -0.4113 -0.0569  0.3597
  771SOL    HW1 2713   4.843   0.618   0.572  0.7869  0.0671 -0.6245
  771SOL    HW2 2714   4.748   0.526   0.498 -1.3733  0.2618  1.7928
  772SOL     OW 2715   0.045   5.676   6.144  0.1343  0.5876 -0.2713
  772SOL    HW1 2716   0.001   5.718   6.218 -1.0032 -0.9473 -0.0204
  772SOL    HW2 2717   0.128   5.645   6.181  0.1075  0.8843  0.0485
  773SOL     OW 2718   5.524   4.785   1.849  0.3273 -0.3290 -0.5111
  773SOL    HW1 2719   5.544   4.709   1.903  4.9393  0.3416 -0.9304
  773SOL    HW2 2720   5.469   4.840   1.905 -0.4951 -2.4810  0.9529
  774SOL     OW 2721   2.156   0.126   1.629  0.5996  0.1929  0.3851
  774SOL    HW1 2722   2.231   0.142   1.572 -0.0369  0.0327 -0.5055
  774SOL    HW2 2723   2.102   0.063   1.582  0.5056 -0.6553  1.5736
  775SOL     OW 2724   3.051   3.047   5.307 -0.1443  0.1011 -0.1062
  775SOL    HW1 2725   3.133   3.092   5.287 -0.2035 -0.0625 -0.7416
  775SOL    HW2 2726   3.052   2.969   5.251 -0.2899 -0.4010  0.5869
  776SOL     OW 2727   6.610   6.006   1.721  0.2564 -0.1943  0.0967
  776SOL    HW1 2728   6.539   5.966   1.771 -0.4304  1.4562  0.4906
  776SOL    HW2 2729   6.684   6.008   1.782 -0.7785  2.4789  1.4154
  777SOL     OW 2730   1.446   1.985   4.664 -0.0469  0.0563 -0.3562
  777SOL    HW1 2731   1.428   1.912   4.724  0.6557  0.3122  0.1855
  777SOL    HW2 2732   1.516   1.953   4.608 -1.3623 -0.5413 -1.7280
  778SOL     OW 2733   5.343   0.109   3.470 -0.2228  0.3260 -0.0021
  778SOL    HW1 2734   5.316   0.182   3.414  0.0462  0.1069 -0.4283
  778SOL    HW2 2735   5.318   0.135   3.558 -1.8531  0.1498 -0.3679
  779SOL     OW 2736   6.732   3.304   3.129 -0.2062  0.5688 -0.2378
  779SOL    HW1 2737   6.739   3.379   3.070  0.4603  0.5972 -0.1371
  779SOL    HW2 2738   6.733   3.342   3.216  1.7872  0.3872 -0.1246
  780SOL     OW 2739   4.072   4.682   2.498 -0.2303  0.3823 -0.2308
  780SOL    HW1 2740   4.155   4.651   2.535  0.3766  1.8607 -0.3184
  780SOL    HW2 2741   4.096   4.748   2.434 -1.4141 -0.3028 -1.4566
  781SOL     OW 2742   6.679   1.361   4.491 -0.4084  0.6051  0.6119
  781SOL    HW1 2743   6.751   1.395   4.543 -0.2265  0.6729  0.3182
  781SOL    HW2 2744   6.715   1.351   4.403 -0.4630 -0.3177  0.6844
  782SOL     OW 2745   3.829   0.890   3.513  0.6599  0.9474 -0.0040
  782SOL    HW1 2746   3.746   0.844   3.522  0.2883  1.7125  0.5152
  782SOL    HW2 2747   3.894   0.820   3.505 -0.1524  0.3467 -1.6683
  783SOL     OW 2748   5.589   3.074   3.443 -0.5186  0.0168  0.3560
  783SOL    HW1 2749   5.625   3.008   3.383 -1.8820  0.1743 -0.7023
  783SOL    HW2 2750   5.666   3.118   3.479  0.3674 -0.4211 -0.9044
  784SOL     OW 2751   2.320   3.112   5.559 -0.1996  0.0225  0.1604
  784SOL    HW1 2752   2.262   3.062   5.502  0.2093 -1.1497  0.7383
  784SOL    HW2 2753   2.289   3.094   5.647  0.8689 -0.4049  0.4654
  785SOL     OW 2754   1.758   5.904   4.126 -0.3061  0.4043  0.2372
  785SOL    HW1 2755   1.738   5.870   4.213 -1.2994 -0.6080 -0.3613
  785SOL    HW2 2756   1.808   5.985   4.142 -0.1485  0.0308  1.7214
  786SOL     OW 2757   1.033   5.426   0.697  0.4212  0.3459 -0.4980
  786SOL    HW1 2758   1.010   5.464   0.781 -0.7864  2.2444 -1.6004
  786SOL    HW2 2759   0.951   5.389   0.664  0.8023 -0.0820 -0.9830
  787SOL     OW 2760   0.707   5.273   3.833 -0.0046  0.2810 -0.4128
  787SOL    HW1 2761   0.729   5.196   3.885  2.0365  0.8527 -0.3721
  787SOL    HW2 2762   0.627   5.307   3.873  0.9266  0.1054  1.6971
  788SOL     OW 2763   6.745   4.032   4.464  0.0081 -0.1897  0.4641
  788SOL    HW1 2764   6.714   4.120   4.486  2.3943  1.1040 -0.9804
  788SOL    HW2 2765   6.796   4.006   4.540  0.7943  0.4577  0.1690
  789SOL     OW 2766   4.385   4.482   0.078 -0.2116  0.3950  0.3781
  789SOL    HW1 2767   4.347   4.462   0.163 -1.3648  0.7982 -0.0251
  789SOL    HW2 2768   4.338   4.561   0.049 -0.4172 -0.2028 -0.9837
  790SOL     OW 2769   2.049   5.864   5.857  0.1386  0.3015 -0.3547
  790SOL    HW1 2770   2.125   5.813   5.827  0.8143  1.2066 -0.2112
  790SOL    HW2 2771   2.038   5.931   5.790  0.2061  0.9012  0.2238
  791SOL     OW 2772   3.383   1.549   6.085  0.5598 -0.0262 -0.0135
  791SOL    HW1 2773   3.408   1.520   6.172  0.7428 -0.1839 -0.1167
  791SOL    HW2 2774   3.461   1.532   6.031  0.4368  0.0375 -0.2128
  792SOL     OW 2775   1.713   5.628   1.466  0.9536  0.2831  0.0912
  792SOL    HW1 2776   1.778   5.570   1.428  0.3838 -0.3471  0.0428
  792SOL    HW2 2777   1.709   5.602   1.558  0.8005  0.3431  0.1022
  793SOL     OW 2778   2.097   0.497   4.665  0.1419 -0.3193 -0.0435
  793SOL    HW1 2779   2.119   0.523   4.755  0.2295  0.0625 -0.1724
  793SOL    HW2 2780   2.134   0.409   4.656  1.2738  0.1431 -0.1165
  794SOL     OW 2781   6.402   3.485   0.983  0.5128 -0.3239 -0.1256
  794SOL    HW1 2782   6.466   3.422   1.015 -0.5146 -1.2160  0.2245
  794SOL    HW2 2783   6.318   3.450   1.011 -0.1243  0.9205 -0.4178
  795SOL     OW 2784   0.121   3.128   6.420 -0.3394 -0.0495  0.3832
  795SOL    HW1 2785   0.164   3.160   6.499  1.7562 -0.3720 -0.5575
  795SOL    HW2 2786   0.047   3.187   6.408 -0.0400  0.7093  1.9503
  796SOL     OW 2787   4.218   6.593   6.041 -0.0599  0.0619  0.3384
  796SOL    HW1 2788   4.128   6.623   6.057 -0.3129  0.4806 -1.5986
  796SOL    HW2 2789   4.265   6.673   6.016  0.2285 -0.5020 -1.0187
  797SOL     OW 2790   2.503   5.707   2.531  0.4295  0.3862  0.3547
  797SOL    HW1 2791   2.538   5.633   2.481  0.4589 -0.1268  1.1177
  797SOL    HW2 2792   2.557   5.782   2.504  1.2175 -0.1180  0.4763
  798SOL     OW 2793   5.400   4.286   4.230 -0.1570 -0.2178  0.3325
  798SOL    HW1 2794   5.367   4.317   4.314 -1.8043  0.8768 -0.6660
  798SOL    HW2 2795   5.349   4.334   4.165  1.4276 -0.6608 -1.3075
  799SOL     OW 2796   3.881   5.581   2.827  0.3282  0.2170 -0.5135
  799SOL    HW1 2797   3.914   5.589   2.737  0.9293  0.4106 -0.2798
  799SOL    HW2 2798   3.877   5.487   2.842  2.5646  0.1580  0.0810
  800SOL     OW 2799   6.137   5.795   2.109  0.3727  0.2231 -0.1074
  800SOL    HW1 2800   6.165   5.781   2.019 -0.1488 -0.5623 -0.1554
  800SOL    HW2 2801   6.045   5.768   2.110  0.4632 -0.0774  0.7345
  801SOL     OW 2802   6.449   5.823   5.482  0.1355  0.1145 -0.0138
  801SOL    HW1 2803   6.376   5.811   5.542  0.0163 -3.8303 -0.6764
  801SOL    HW2 2804   6.411   5.867   5.406 -1.1471 -0.3857  0.3134
  802SOL     OW 2805   3.360   6.293   6.287  0.0908  0.2340  0.1448
  802SOL    HW1 2806   3.429   6.230   6.265 -2.4150 -2.6841  0.0021
  802SOL    HW2 2807   3.318   6.257   6.364 -3.0013  0.3217 -1.3597
  803SOL     OW 2808   3.900   1.994   5.807  0.0762 -0.4541  0.6991
  803SOL    HW1 2809   3.957   2.053   5.855  0.3081 -1.9500  2.3500
  803SOL    HW2 2810   3.946   1.911   5.805  0.0601 -0.5159 -2.1608
  804SOL     OW 2811   5.709   1.275   3.900 -0.6213 -0.2687  0.3079
  804SOL    HW1 2812   5.672   1.254   3.986 -1.9279 -0.9313 -0.3874
  804SOL    HW2 2813   5.665   1.356   3.875  0.7810  0.6907  0.8356
  805SOL     OW 2814   0.380   4.216   1.651  0.1044  0.0523 -0.3944
  805SOL    HW1 2815   0.338   4.302   1.648  0.6401  0.3997  1.1515
  805SOL    HW2 2816   0.345   4.175   1.730  1.5794 -0.2130  0.1494
  806SOL     OW 2817   5.604   5.854   5.731 -0.1567 -0.4380  0.4648
  806SOL    HW1 2818   5.662   5.930   5.719  0.7529 -1.3053 -0.8439
  806SOL    HW2 2819   5.523   5.891   5.768  0.0697  1.2446 -0.6398
  807SOL     OW 2820   5.194   6.637   1.680 -0.2404  0.0101 -0.1185
  807SOL    HW1 2821   5.122   6.649   1.617 -0.2456 -0.3271 -0.1789
  807SOL    HW2 2822   5.270   6.678   1.638  0.1837 -1.7132 -1.1338
  808SOL     OW 2823   0.782   6.556   0.817 -0.3988 -0.0272  0.6455
  808SOL    HW1 2824   0.702   6.606   0.808 -1.2546 -1.2730  1.0076
  808SOL    HW2 2825   0.852   6.621   0.824 -1.2073  1.0717 -1.0065
  809SOL     OW 2826   0.511   6.259   2.600  0.0401 -0.1006 -0.1975
  809SOL    HW1 2827   0.537   6.207   2.525  1.0399  1.0375 -0.6833
  809SOL    HW2 2828   0.559   6.342   2.590 -0.9877  0.6730  0.8683
  810SOL     OW 2829   0.736   2.670   2.979  0.4508 -0.6124  0.4741
  810SOL    HW1 2830   0.793   2.687   3.054  0.2867 -1.2022  0.7478
  810SOL    HW2 2831   0.650   2.700   3.007  0.5356 -0.1437  0.2355
  811SOL     OW 2832   0.913   1.935   3.191 -0.6935  0.1858  0.4856
  811SOL    HW1 2833   0.957   1.850   3.198  1.6453  1.3074  0.6636
  811SOL    HW2 2834   0.820   1.916   3.203 -0.2219 -2.3069  0.6755
  812SOL     OW 2835   5.834   0.373   2.906  0.0088  0.4058  0.4101
  812SOL    HW1 2836   5.824   0.294   2.852 -0.3843  0.6625  0.1071
  812SOL    HW2 2837   5.873   0.341   2.987  2.2835  0.2605 -0.6693
  813SOL     OW 2838   3.423   3.742   1.147 -0.1024 -0.0409 -0.7466
  813SOL    HW1 2839   3.491   3.769   1.208  0.4354 -2.4622 -0.1544
  813SOL    HW2 2840   3.343   3.739   1.201  0.3309 -1.9669 -0.1202
  814SOL     OW 2841   3.298   3.015   2.765  0.4290 -0.1226  0.5702
  814SOL    HW1 2842   3.358   3.009   2.690  1.6481  0.3896  1.4605
  814SOL    HW2 2843   3.313   2.934   2.814 -0.0132 -0.2403  0.5124
  815SOL     OW 2844   5.998   3.744   5.729 -0.6405 -0.5256  0.1368
  815SOL    HW1 2845   5.958   3.774   5.647  1.5847  0.0885 -0.8127
  815SOL    HW2 2846   6.017   3.651   5.714 -0.6820 -0.5369  0.1536
  816SOL     OW 2847   4.939   6.646   1.545  0.0136 -0.1309 -0.7314
  816SOL    HW1 2848   4.879   6.716   1.568  0.7094  0.4230 -0.5658
  816SOL    HW2 2849   4.938   6.643   1.449 -1.0396 -0.8074 -0.7097
  817SOL     OW 2850   3.248   3.130   2.464  0.3160  0.5194 -0.0370
  817SOL    HW1 2851   3.260   3.035   2.467 -0.4393  0.3941 -0.6237
  817SOL    HW2 2852   3.213   3.147   2.376 -1.9543  1.0266  0.8932
  818SOL     OW 2853   3.567   5.999   0.448  0.8365  0.2537 -0.1358
  818SOL    HW1 2854   3.524   6.084   0.462  0.9283  0.2455  0.2004
  818SOL    HW2 2855   3.522   5.962   0.372 -0.9475 -0.5300  1.2221
  819SOL     OW 2856   5.892   0.744   5.308 -0.4378  0.4873 -0.1003
  819SOL    HW1 2857   5.883   0.663   5.258  0.9249  0.6547 -0.6723
  819SOL    HW2 2858   5.980   0.739   5.346 -0.8280  1.1181  0.9311
  820SOL     OW 2859   2.155   0.126   4.161  0.5639  0.1406  0.1747
  820SOL    HW1 2860   2.110   0.193   4.109 -0.6955  0.9633  2.2036
  820SOL    HW2 2861   2.218   0.087   4.101 -0.3639  1.4789 -1.7559
  821SOL     OW 2862   5.470   6.273   6.200 -0.2406  0.2447  0.0914
  821SOL    HW1 2863   5.379   6.288   6.175 -0.5876 -1.4453  0.2463
  821SOL    HW2 2864   5.491   6.344   6.260 -1.3304  0.8716 -0.2522
  822SOL     OW 2865   3.610   2.319   0.835 -0.2821 -0.1895 -0.1558
  822SOL    HW1 2866   3.608   2.412   0.857 -0.2756 -0.0722 -0.6381
  822SOL    HW2 2867   3.698   2.304   0.800  0.2040 -0.6876  1.2117
  823SOL     OW 2868   1.591   5.883   6.071  0.0845 -0.3262 -0.1435
  823SOL    HW1 2869   1.606   5.925   5.987 -0.3535 -1.3207 -0.7304
  823SOL    HW2 2870   1.499   5.857   6.069  0.8030 -3.1820 -0.6978
  824SOL     OW 2871   1.539   1.471   0.164  0.4509 -0.2871 -0.0659
  824SOL    HW1 2872   1.466   1.480   0.225  1.6825 -0.1232  1.4397
  824SOL    HW2 2873   1.515   1.398   0.108 -0.4251 -0.8750  1.0461
  825SOL     OW 2874   1.261   0.987   1.111 -0.1539 -0.3462 -0.2243
  825SOL    HW1 2875   1.218   1.055   1.162 -0.2651 -0.8098  0.3128
  825SOL    HW2 2876   1.190   0.938   1.069 -0.0235  0.8783 -1.9716
  826SOL     OW 2877   2.487   6.046   1.746 -0.0673 -0.5062  0.6756
  826SOL    HW1 2878   2.485   6.066   1.652  1.9068 -2.0057  0.2605
  826SOL    HW2 2879   2.427   5.972   1.756 -0.1682 -0.4369  0.5906
  827SOL     OW 2880   5.716   2.106   6.008  0.4090  0.1907  1.1187
  827SOL    HW1 2881   5.722   2.170   6.078 -0.5856  0.0159  1.3783
  827SOL    HW2 2882   5.804   2.069   6.001  1.3297  2.4326  0.1234
  828SOL     OW 2883   1.442   5.070   0.574  0.0213  0.0965 -0.0243
  828SOL    HW1 2884   1.347   5.056   0.583  0.0660  0.6555  1.8415
  828SOL    HW2 2885   1.480   4.984   0.586 -0.2498 -0.2886 -1.6465
  829SOL     OW 2886   3.305   1.075   6.723 -0.0497 -0.0596 -0.2044
  829SOL    HW1 2887   3.327   1.161   6.687 -1.0912  1.3352  2.2047
  829SOL    HW2 2888   3.366   1.063   6.796 -1.8780  0.2051  1.4891
  830SOL     OW 2889   6.043   3.643   4.581 -0.0815  0.3503 -0.4021
  830SOL    HW1 2890   6.135   3.653   4.607 -0.1457 -0.6950  0.2649
  830SOL    HW2 2891   5.995   3.702   4.638  0.1300  0.6101 -0.4887
  831SOL     OW 2892   5.574   6.399   2.927  0.0056  0.3698  0.4404
  831SOL    HW1 2893   5.564   6.404   2.832 -1.7757  2.4430  0.6875
  831SOL    HW2 2894   5.639   6.466   2.948 -1.0921  1.3397  0.8407
  832SOL     OW 2895   4.723   5.115   1.955 -0.5230  0.2248 -0.3366
  832SOL    HW1 2896   4.698   5.122   2.047  0.4049  1.6108 -0.1652
  832SOL    HW2 2897   4.696   5.027   1.929 -2.4151  0.4264  0.7590
  833SOL     OW 2898   5.912   5.351   5.636  0.4040  1.3418 -0.3988
  833SOL    HW1 2899   5.981   5.327   5.698  0.3527  0.1555 -0.7753
  833SOL    HW2 2900   5.894   5.443   5.655  2.5499  1.8938 -0.7320
  834SOL     OW 2901   6.780   0.666   3.572  0.1396 -0.0214  0.3010
  834SOL    HW1 2902   6.749   0.756   3.560  0.3814  0.1139  0.6619
  834SOL    HW2 2903   6.869   0.666   3.537 -0.7853 -0.8151 -2.2484
  835SOL     OW 2904   5.484   1.505   3.301  1.0046 -0.0968 -0.1513
  835SOL    HW1 2905   5.468   1.456   3.381  2.0897 -1.1386 -0.5504
  835SOL    HW2 2906   5.407   1.489   3.247 -0.8286  2.4106  1.4721
  836SOL     OW 2907   2.929   5.010   6.431  1.0936 -0.3304  0.7518
  836SOL    HW1 2908   2.871   5.085   6.417 -0.3646 -1.3476  1.1255
  836SOL    HW2 2909   2.900   4.972   6.513  0.6891 -2.2693 -0.2335
  837SOL     OW 2910   6.341   1.605   4.848 -0.0411  0.6647  0.0405
  837SOL    HW1 2911   6.254   1.569   4.861  0.4702 -0.0384  1.8549
  837SOL    HW2 2912   6.335   1.655   4.766 -1.5737 -1.0766 -0.9881
  838SOL     OW 2913   5.253   3.420   2.509 -0.2370 -0.3013  0.4503
  838SOL    HW1 2914   5.168   3.442   2.549  0.1455 -1.2266  1.8690
  838SOL    HW2 2915   5.293   3.360   2.572  1.2564 -0.2820 -0.4536
  839SOL     OW 2916   2.918   0.858   2.128  0.1866 -0.0262 -0.4277
  839SOL    HW1 2917   2.836   0.892   2.162 -0.4418 -0.8778 -1.0329
  839SOL    HW2 2918   2.931   0.775   2.174 -0.2087 -0.7445 -1.5687
  840SOL     OW 2919   2.458   4.379   5.643  0.1614  0.2997  0.4889
  840SOL    HW1 2920   2.488   4.342   5.560 -0.4204  1.6897 -0.3805
  840SOL    HW2 2921   2.477   4.472   5.636  0.6097  0.3677  2.1695
  841SOL     OW 2922   5.929   5.202   5.407  0.2379 -0.3797 -0.6132
  841SOL    HW1 2923   5.858   5.138   5.415 -1.9956  2.1325  1.7531
  841SOL    HW2 2924   5.928   5.249   5.491  3.4086  1.1380 -1.2784
  842SOL     OW 2925   1.528   6.412   1.715 -0.0658  0.4917  0.0593
  842SOL    HW1 2926   1.487   6.366   1.788 -0.4249  0.6693 -0.0312
  842SOL    HW2 2927   1.617   6.431   1.747 -0.0782  0.1822  0.2843
  843SOL     OW 2928   1.393   6.043   2.740 -0.6001  0.4518  0.1970
  843SOL    HW1 2929   1.311   6.004   2.770 -0.5354  0.2409  0.1007
  843SOL    HW2 2930   1.382   6.052   2.645  0.2198 -1.3667 -0.1201
  844SOL     OW 2931   6.123   1.770   0.250 -0.7890 -0.1835 -0.7581
  844SOL    HW1 2932   6.101   1.835   0.316 -0.1391  1.1226 -1.7875
  844SOL    HW2 2933   6.175   1.818   0.185  0.6373 -1.9654 -1.0134
  845SOL     OW 2934   0.157   0.395   1.819  0.3188 -0.7201  0.3200
  845SOL    HW1 2935   0.101   0.319   1.835 -1.3597  1.0010  3.6642
  845SOL    HW2 2936   0.105   0.451   1.762  1.5232 -1.8864 -2.0770
  846SOL     OW 2937   1.617   5.602   3.576  0.1367  0.2702 -0.1164
  846SOL    HW1 2938   1.535   5.635   3.614  0.1503 -0.3976  0.5224
  846SOL    HW2 2939   1.603   5.507   3.569  0.5231  0.2674 -0.8415
  847SOL     OW 2940   4.937   3.189   1.292 -0.1068  0.0183 -0.3014
  847SOL    HW1 2941   4.975   3.223   1.211  0.5916  0.3105  0.1452
  847SOL    HW2 2942   4.971   3.099   1.298 -0.2910 -0.0598 -0.4145
  848SOL     OW 2943   4.432   2.213   4.634 -0.0231 -0.2976 -0.4789
  848SOL    HW1 2944   4.428   2.291   4.579 -0.9184  1.2712  1.7058
  848SOL    HW2 2945   4.372   2.151   4.591  1.0014  0.0139 -2.4552
  849SOL     OW 2946   5.353   2.796   2.663 -0.2419  0.4047 -0.2545
  849SOL    HW1 2947   5.261   2.822   2.673 -1.3013 -1.9369 -2.6761
  849SOL    HW2 2948   5.355   2.705   2.692  1.1116  0.1789 -0.9996
  850SOL     OW 2949   3.090   5.772   3.123 -0.1396 -0.2312 -0.4809
  850SOL    HW1 2950   3.123   5.861   3.109  0.4774 -0.2794  0.5829
  850SOL    HW2 2951   3.068   5.769   3.216 -0.1269 -1.2074 -0.5044
  851SOL     OW 2952   6.102   3.652   3.108 -0.4153 -0.0411  0.1202
  851SOL    HW1 2953   6.173   3.618   3.054  1.1413  2.1586  0.6652
  851SOL    HW2 2954   6.126   3.629   3.197 -0.6490  0.2604  0.2637
  852SOL     OW 2955   0.469   2.265   2.813  0.1665  0.3741  0.9749
  852SOL    HW1 2956   0.418   2.294   2.888 -3.6493 -0.5933 -0.9892
  852SOL    HW2 2957   0.482   2.344   2.760 -0.6426  0.3893  0.7923
  853SOL     OW 2958   1.885   0.805   6.599  0.1770  0.1198 -0.1080
  853SOL    HW1 2959   1.977   0.811   6.573 -0.1104 -0.4352 -1.3178
  853SOL    HW2 2960   1.883   0.741   6.670  0.7761  0.4308  0.1881
  854SOL     OW 2961   0.040   2.576   3.371 -0.4924  0.4395 -0.5733
  854SOL    HW1 2962   0.071   2.552   3.283 -0.7510 -0.4029 -0.4428
  854SOL    HW2 2963   0.118   2.577   3.425 -0.5871 -1.2185 -0.3467
  855SOL     OW 2964   2.340   5.866   1.080  0.2267  0.1802  0.8103
  855SOL    HW1 2965   2.416   5.874   1.022 -2.0738  1.4455 -2.2648
  855SOL    HW2 2966   2.322   5.772   1.084 -0.1009  0.1057 -1.3999
  856SOL     OW 2967   2.082   2.836   5.671  0.3584  0.0487 -0.4329
  856SOL    HW1 2968   2.125   2.845   5.586 -1.1973 -0.2296 -1.2821
  856SOL    HW2 2969   1.993   2.866   5.657 -0.7799 -2.6402  0.3306
  857SOL     OW 2970   4.838   1.164   0.173  0.1733  0.3168 -0.2495
  857SOL    HW1 2971   4.933   1.152   0.184  0.2003 -0.0562 -0.8782
  857SOL    HW2 2972   4.828   1.194   0.083 -0.3115  0.3119 -0.1980
  858SOL     OW 2973   5.812   4.716   3.297  0.7319 -0.0124  0.3103
  858SOL    HW1 2974   5.852   4.742   3.380  1.9348  1.1311 -0.5709
  858SOL    HW2 2975   5.886   4.716   3.235 -0.3232  0.3172 -0.9886
  859SOL     OW 2976   3.157   3.094   1.519 -0.2661 -0.3979  0.4303
  859SOL    HW1 2977   3.165   3.109   1.425  0.7714 -1.3421  0.3426
  859SOL    HW2 2978   3.076   3.044   1.528 -0.8110  0.4114  0.1429
  860SOL     OW 2979   3.442   2.408   3.341  0.0996  0.4515 -0.7906
  860SOL    HW1 2980   3.519   2.374   3.386 -1.2859  1.9026  3.0703
  860SOL    HW2 2981   3.369   2.361   3.381 -1.2728  2.2600 -1.0758
  861SOL     OW 2982   6.780   0.722   5.982 -0.4516 -0.1329 -0.8570
  861SOL    HW1 2983   6.809   0.747   6.070 -3.4204 -0.3004  0.2937
  861SOL    HW2 2984   6.848   0.662   5.950  0.9380  0.2924  1.1157
  862SOL     OW 2985   2.532   3.150   4.465 -0.6921  0.3191  0.1508
  862SOL    HW1 2986   2.525   3.062   4.429 -0.1592  0.2738  0.1550
  862SOL    HW2 2987   2.453   3.195   4.435 -0.9994 -0.1782  0.2065
  863SOL     OW 2988   1.969   4.458   5.762 -0.3969 -0.1991 -0.4883
  863SOL    HW1 2989   1.914   4.484   5.688 -1.2204 -2.4301 -0.7102
  863SOL    HW2 2990   1.929   4.501   5.838  0.3881  2.0217 -1.2491
  864SOL     OW 2991   3.015   4.241   1.277  0.2036 -0.4305  0.3844
  864SOL    HW1 2992   2.976   4.319   1.238  0.4948 -0.1814  0.5879
  864SOL    HW2 2993   2.940   4.187   1.303  0.0032 -0.5291 -0.3652
  865SOL     OW 2994   1.091   0.890   4.764 -0.2604  0.2702 -0.2775
  865SOL    HW1 2995   1.064   0.890   4.856  0.1843  1.9185 -0.1180
  865SOL    HW2 2996   1.023   0.940   4.719 -0.0462  0.1828 -0.7009
  866SOL     OW 2997   2.997   5.052   1.339  0.8480  0.3225 -0.0804
  866SOL    HW1 2998   2.953   5.060   1.423 -1.2122 -0.0803 -1.0632
  866SOL    HW2 2999   3.034   5.139   1.322 -2.6715  1.8395 -0.7947
  867SOL     OW 3000   6.644   0.029   1.599 -0.9139  0.1301 -0.0067
  867SOL    HW1 3001   6.581  -0.041   1.618 -0.2247 -0.3746  0.4928
  867SOL    HW2 3002   6.636   0.044   1.505 -2.2349  0.5368  0.1561
  868SOL     OW 3003   0.372   5.620   2.263  0.3138  0.4012  0.7067
  868SOL    HW1 3004   0.316   5.697   2.266 -0.2156  0.0027  1.7502
  868SOL    HW2 3005   0.387   5.604   2.170 -0.0685  1.4001  0.4679
  869SOL     OW 3006   3.725   6.275   0.678 -0.0632  0.5391  0.1417
  869SOL    HW1 3007   3.709   6.356   0.725 -0.8758  1.4844 -1.6472
  869SOL    HW2 3008   3.761   6.304   0.594 -0.4078 -0.9483 -0.5473
  870SOL     OW 3009   5.959   4.505   1.062 -0.1534  0.0182  0.5613
  870SOL    HW1 3010   5.922   4.589   1.089 -1.3721 -0.6886  1.1720
  870SOL    HW2 3011   5.977   4.459   1.143  0.6370 -0.2767  0.2307
  871SOL     OW 3012   4.968   5.428   3.529 -0.0858  0.2761 -0.4118
  871SOL    HW1 3013   4.909   5.389   3.463 -0.7613  1.0961 -0.3072
  871SOL    HW2 3014   5.028   5.357   3.552 -0.2797 -0.2286 -1.4006
  872SOL     OW 3015   0.372   5.874   5.356 -0.2041 -0.0087 -0.1361
  872SOL    HW1 3016   0.431   5.948   5.371  1.9629 -1.1366 -2.3703
  872SOL    HW2 3017   0.402   5.807   5.418 -1.6780  0.6493  1.3594
  873SOL     OW 3018   1.112   1.164   1.577 -0.0128 -0.2066  0.5146
  873SOL    HW1 3019   1.179   1.143   1.642  0.6434 -0.9137 -0.3551
  873SOL    HW2 3020   1.067   1.241   1.612 -1.1825 -1.8338  2.8828
  874SOL     OW 3021   0.003   1.189   3.677 -0.3353  0.0935 -0.1945
  874SOL    HW1 3022   0.039   1.274   3.702  0.9641 -0.7976  1.1729
  874SOL    HW2 3023  -0.035   1.155   3.759  0.0372 -1.0396 -0.4783
  875SOL     OW 3024   2.001   6.022   2.810 -0.0545 -0.5205 -0.3102
  875SOL    HW1 3025   1.919   6.040   2.763 -0.7393 -1.7073  0.3825
  875SOL    HW2 3026   2.024   6.106   2.850 -0.4350  0.0516 -1.2517
  876SOL     OW 3027   4.700   4.087   6.342  0.0688  0.0226  0.5737
  876SOL    HW1 3028   4.668   4.177   6.337  0.8311  0.2663 -0.2983
  876SOL    HW2 3029   4.792   4.096   6.367 -0.2396 -0.6114  2.0266
  877SOL     OW 3030   4.694   5.183   1.033  0.0121 -0.4021  0.0207
  877SOL    HW1 3031   4.752   5.249   1.071 -1.9157  1.5616 -0.2361
  877SOL    HW2 3032   4.631   5.233   0.981  0.6399 -2.7419 -3.2819
  878SOL     OW 3033   4.449   3.488   3.517  0.2668 -0.1267 -0.2801
  878SOL    HW1 3034   4.389   3.557   3.491  0.7596  0.4851  0.1805
  878SOL    HW2 3035   4.533   3.512   3.477  0.8099  0.3508  1.0824
  879SOL     OW 3036   3.031   6.206   2.702  0.2099 -0.3309 -0.6421
  879SOL    HW1 3037   3.065   6.276   2.757 -0.8567 -0.4679  0.2313
  879SOL    HW2 3038   2.968   6.249   2.645 -1.3038 -0.7180  0.6781
  880SOL     OW 3039   3.328   0.112   2.363 -0.5464  0.3466 -0.2161
  880SOL    HW1 3040   3.275   0.101   2.285 -0.2605  1.2665 -0.5626
  880SOL    HW2 3041   3.372   0.197   2.350  0.1098  0.1430  0.5777
  881SOL     OW 3042   5.544   3.507   4.323 -0.3440  0.5954  0.1723
  881SOL    HW1 3043   5.544   3.467   4.410 -3.3326  0.9954  0.4517
  881SOL    HW2 3044   5.580   3.594   4.336  0.6982  0.1022  0.6840
  882SOL     OW 3045   0.557   5.455   3.062 -0.1374 -0.0815  0.2263
  882SOL    HW1 3046   0.618   5.466   2.989 -1.4969 -0.2518 -0.9828
  882SOL    HW2 3047   0.607   5.406   3.128  0.8014 -0.8811 -1.0221
  883SOL     OW 3048   0.182   2.271   3.717 -0.0734 -0.2935 -0.4054
  883SOL    HW1 3049   0.203   2.349   3.667  1.8585 -0.4693  0.0752
  883SOL    HW2 3050   0.255   2.260   3.778 -2.2027 -0.2222  2.3612
  884SOL     OW 3051   0.157   5.914   1.440 -0.1259 -0.4269 -0.1185
  884SOL    HW1 3052   0.181   5.852   1.371  0.1784 -0.0088 -0.3872
  884SOL    HW2 3053   0.122   5.989   1.394 -2.6995 -1.2926  0.2593
  885SOL     OW 3054   4.764   2.622   1.699 -0.1021  0.3795  0.1530
  885SOL    HW1 3055   4.824   2.548   1.691  0.3140  0.5965  1.2101
  885SOL    HW2 3056   4.818   2.694   1.732 -1.1789  0.2479  2.3243
  886SOL     OW 3057   3.700   3.725   2.095 -0.3651  0.0236 -0.1430
  886SOL    HW1 3058   3.709   3.820   2.103  0.8000  0.0120 -0.9427
  886SOL    HW2 3059   3.689   3.694   2.184 -0.1942  0.8698  0.1836
  887SOL     OW 3060   5.466   4.508   6.704  0.2982  0.1199 -0.2699
  887SOL    HW1 3061   5.509   4.577   6.654  0.6885 -0.4414 -0.7265
  887SOL    HW2 3062   5.385   4.548   6.736  1.2363  1.2647  0.7847
  888SOL     OW 3063   3.575   3.278   5.928 -0.0917  0.6497 -0.5526
  888SOL    HW1 3064   3.551   3.186   5.934 -0.8777  0.9283  1.2000
  888SOL    HW2 3065   3.639   3.291   5.998 -1.4995  1.8590  0.5492
  889SOL     OW 3066   5.108   2.891   1.195  0.3086  0.5844  0.3225
  889SOL    HW1 3067   5.175   2.941   1.148 -1.1747  1.8672 -0.5200
  889SOL    HW2 3068   5.099   2.810   1.145  2.1258 -0.2211  1.2058
  890SOL     OW 3069   1.390   0.549   1.380 -0.5535  0.2070 -0.0659
  890SOL    HW1 3070   1.322   0.614   1.359 -1.4138 -0.4124  0.7284
  890SOL    HW2 3071   1.346   0.486   1.436 -0.0710 -1.7234 -1.7390
  891SOL     OW 3072   6.586   5.465   4.732 -0.1553 -0.6218 -0.4208
  891SOL    HW1 3073   6.534   5.417   4.797  0.9733 -2.5793 -0.8645
  891SOL    HW2 3074   6.537   5.545   4.716 -0.4394 -0.0114  2.8787
  892SOL     OW 3075   1.617   6.771   4.923  0.2923  0.8822  0.3365
  892SOL    HW1 3076   1.704   6.775   4.883 -0.1495 -1.4263 -0.9987
  892SOL    HW2 3077   1.634   6.755   5.016  1.3059  0.2295  0.0571
  893SOL     OW 3078   4.563   1.355   6.446 -0.2000 -0.6034 -0.4657
  893SOL    HW1 3079   4.604   1.439   6.428  0.6794 -0.8880  0.1493
  893SOL    HW2 3080   4.557   1.351   6.542 -0.9852 -0.8911 -0.5190
  894SOL     OW 3081   6.367   2.969   5.233  0.6356 -0.0181 -0.3352
  894SOL    HW1 3082   6.462   2.957   5.236  0.5192 -0.8355  0.6638
  894SOL    HW2 3083   6.351   3.021   5.154  2.0119  1.1785  0.1369
  895SOL     OW 3084   2.075   1.821   3.976 -0.0487 -0.8569 -0.0248
  895SOL    HW1 3085   2.085   1.744   4.032  0.3422  0.0211  1.1462
  895SOL    HW2 3086   2.165   1.848   3.957 -0.1833 -0.8963 -0.7461
  896SOL     OW 3087   6.211   4.488   5.728 -0.4450  0.1569 -0.7084
  896SOL    HW1 3088   6.119   4.507   5.713 -0.1782  2.4786  0.1323
  896SOL    HW2 3089   6.215   4.459   5.819 -0.4455 -1.0697 -1.0768
  897SOL     OW 3090   6.629   3.944   2.160  0.1091  0.1569 -0.1231
  897SOL    HW1 3091   6.574   3.973   2.087 -0.4222 -1.0729 -0.2297
  897SOL    HW2 3092   6.590   3.863   2.189  1.5680 -0.4926  0.1392
  898SOL     OW 3093   0.039   1.535   4.673  0.5577 -0.7495 -0.0606
  898SOL    HW1 3094  -0.023   1.604   4.696  1.2045 -0.4297  0.7541
  898SOL    HW2 3095   0.125   1.576   4.681  0.9399 -1.5831  0.2082
  899SOL     OW 3096   6.439   6.608   6.762 -0.2089  0.2276  0.0635
  899SOL    HW1 3097   6.510   6.657   6.805 -1.3311  1.5776  0.4449
  899SOL    HW2 3098   6.369   6.605   6.827 -0.5456 -1.0252 -0.3356
  900SOL     OW 3099   3.001   6.449   1.807  0.5586 -0.5800 -0.2281
  900SOL    HW1 3100   3.056   6.391   1.860  0.8170 -0.9456 -0.8806
  900SOL    HW2 3101   3.062   6.496   1.750  0.1897 -1.3416 -1.3006
  901SOL     OW 3102   5.980   2.263   5.936  0.2732  0.2004 -1.1026
  901SOL    HW1 3103   5.930   2.327   5.986  0.7902  0.7909 -1.3218
  901SOL    HW2 3104   5.969   2.181   5.983 -0.3722  0.4587 -0.7979
  902SOL     OW 3105   1.331   5.819   3.450  0.6237  0.1239  0.0035
  902SOL    HW1 3106   1.426   5.825   3.443  0.5777  1.3818  0.2794
  902SOL    HW2 3107   1.304   5.904   3.483 -0.5751 -0.3325  0.2410
  903SOL     OW 3108   5.371   3.993   0.084 -0.5050  0.4945  1.0284
  903SOL    HW1 3109   5.432   4.066   0.074  0.9581 -0.8175 -0.0486
  903SOL    HW2 3110   5.305   4.007   0.016  1.5892 -0.8529 -1.4536
  904SOL     OW 3111   5.177   1.871   6.312 -0.1917  0.2319  0.0449
  904SOL    HW1 3112   5.137   1.865   6.225 -2.6700 -0.3810  1.1143
  904SOL    HW2 3113   5.103   1.890   6.371  1.0299 -1.2969  2.2560
  905SOL     OW 3114   3.769   3.600   1.120  0.4671  0.1894 -0.3702
  905SOL    HW1 3115   3.702   3.627   1.057 -1.1329 -0.5460  0.9281
  905SOL    HW2 3116   3.795   3.513   1.090 -0.7746 -0.4454  0.2740
  906SOL     OW 3117   5.055   2.062   4.040  0.3129 -0.2625  0.3295
  906SOL    HW1 3118   5.147   2.061   4.014  0.2483 -1.3823  0.0935
  906SOL    HW2 3119   5.025   2.150   4.017  1.0298 -0.2474 -0.6338
  907SOL     OW 3120   5.516   0.979   1.763 -0.3050  1.4075  0.5079
  907SOL    HW1 3121   5.564   0.907   1.805 -0.6380  0.8567 -0.0377
  907SOL    HW2 3122   5.477   0.940   1.685 -0.0066  2.3238 -0.1240
  908SOL     OW 3123   3.057   2.189   2.462 -0.1583 -0.6104  0.1849
  908SOL    HW1 3124   3.043   2.214   2.371  1.0240 -2.5188 -0.5729
  908SOL    HW2 3125   3.093   2.268   2.503 -0.3212  0.1592 -1.0827
  909SOL     OW 3126   4.822   0.781   3.243 -0.4440  0.1765  0.0192
  909SOL    HW1 3127   4.916   0.798   3.244 -0.5102  0.5847 -0.4156
  909SOL    HW2 3128   4.798   0.776   3.335  0.2134 -1.1657  0.1384
  910SOL     OW 3129   5.417   4.303   3.270 -0.3988 -0.3227 -0.8738
  910SOL    HW1 3130   5.393   4.262   3.187 -1.5747  0.0028 -0.7183
  910SOL    HW2 3131   5.386   4.394   3.262  1.9659  0.5360 -1.1312
  911SOL     OW 3132   1.558   3.082   1.595 -0.3418  0.3235 -0.2735
  911SOL    HW1 3133   1.520   3.080   1.683 -1.4072 -1.2043 -0.7167
  911SOL    HW2 3134   1.606   3.000   1.588 -0.7067  0.1832 -1.2878
  912SOL     OW 3135   2.968   2.277   5.810 -0.1466 -0.1559  0.0728
  912SOL    HW1 3136   2.873   2.290   5.808  0.0319  2.7950  2.8513
  912SOL    HW2 3137   2.983   2.222   5.887  0.4540 -0.0734  0.0164
  913SOL     OW 3138   2.598   0.627   1.046 -0.0312  0.3875 -0.1196
  913SOL    HW1 3139   2.543   0.549   1.037  3.2756 -2.1506 -0.3694
  913SOL    HW2 3140   2.571   0.684   0.974 -0.0374 -2.3476 -2.4501
  914SOL     OW 3141   1.811   1.845   6.661 -0.0752 -0.4323 -0.0985
  914SOL    HW1 3142   1.885   1.895   6.625  0.3005  0.4106  1.7686
  914SOL    HW2 3143   1.850   1.762   6.689  0.3972  0.4035  1.8064
  915SOL     OW 3144   1.673   6.356   3.649  0.6364 -0.1943 -0.1528
  915SOL    HW1 3145   1.649   6.447   3.628  0.4952 -0.1773  0.0746
  915SOL    HW2 3146   1.759   6.362   3.689  0.5286 -0.1381  0.0686
  916SOL     OW 3147   6.661   1.963   3.622 -0.4194  0.0752 -0.3560
  916SOL    HW1 3148   6.674   2.049   3.662  0.8292 -0.7525  1.1269
  916SOL    HW2 3149   6.737   1.952   3.565  1.0603 -1.1899  1.7057
  917SOL     OW 3150   0.407   0.700   0.947 -0.5188 -0.6232 -0.0309
  917SOL    HW1 3151   0.332   0.660   0.903 -0.3837 -1.8159  0.7712
  917SOL    HW2 3152   0.372   0.732   1.030 -0.3861 -0.1161 -0.1712
  918SOL     OW 3153   5.035   4.190   5.664 -0.0393  0.2231 -0.3288
  918SOL    HW1 3154   4.989   4.120   5.618 -1.6915  1.4335 -0.6096
  918SOL    HW2 3155   5.090   4.231   5.598  1.3557 -1.1085 -0.0398
  919SOL     OW 3156   2.310   5.851   5.707  0.0078 -0.2320  0.5419
  919SOL    HW1 3157   2.388   5.816   5.751 -0.9083 -0.6853  1.8466
  919SOL    HW2 3158   2.289   5.787   5.640  0.4311 -0.3925  0.5599
  920SOL     OW 3159   2.614   0.801   0.029  0.2465  0.5685  0.4209
  920SOL    HW1 3160   2.690   0.847  -0.007  1.7930 -0.9374  1.5839
  920SOL    HW2 3161   2.617   0.715  -0.013 -1.7996  0.9890 -0.6983
  921SOL     OW 3162   0.580   0.291   4.044  0.3142  0.3260 -0.5583
  921SOL    HW1 3163   0.512   0.349   4.010  0.2600  0.7530  0.2635
  921SOL    HW2 3164   0.612   0.244   3.967 -1.9782 -1.0466 -0.7582
  922SOL     OW 3165   1.005   1.814   1.884  0.2185 -0.1892 -0.1208
  922SOL    HW1 3166   0.937   1.766   1.838 -0.1796 -0.8913  1.1492
  922SOL    HW2 3167   1.009   1.773   1.971 -0.2215  2.1590  1.0680
  923SOL     OW 3168   2.624   2.649   6.132 -0.0450 -0.0438  0.1692
  923SOL    HW1 3169   2.535   2.636   6.099  0.1332  0.0237 -0.3519
  923SOL    HW2 3170   2.650   2.734   6.097  1.0654 -1.0566 -1.6345
  924SOL     OW 3171   3.901   5.898   6.085 -0.4181 -0.1491 -0.1995
  924SOL    HW1 3172   3.810   5.878   6.062 -0.9360 -0.3373  1.8864
  924SOL    HW2 3173   3.909   5.874   6.177  1.1666  1.8137  0.2360
  925SOL     OW 3174   5.306   1.525   4.115  0.0360 -0.3208  0.4700
  925SOL    HW1 3175   5.238   1.458   4.108  1.2327 -1.4803 -0.6282
  925SOL    HW2 3176   5.273   1.598   4.064  0.3546 -1.5709 -1.6556
  926SOL     OW 3177   0.846   5.731   2.400  0.4471  0.0640 -0.4321
  926SOL    HW1 3178   0.786   5.763   2.333 -1.4864  0.1264  1.2416
  926SOL    HW2 3179   0.801   5.657   2.441  2.0953 -0.7484  0.0331
  927SOL     OW 3180   4.374   5.577   1.414 -0.7298  0.7606  0.1790
  927SOL    HW1 3181   4.444   5.518   1.387 -1.6797  0.5580 -2.1288
  927SOL    HW2 3182   4.414   5.634   1.479  1.0546 -0.4688  0.2410
  928SOL     OW 3183   3.494   1.507   3.911  0.3321 -0.0391 -0.2231
  928SOL    HW1 3184   3.555   1.494   3.838 -0.4482  0.8618 -1.0589
  928SOL    HW2 3185   3.500   1.426   3.962  0.3590 -0.9969 -1.6867
  929SOL     OW 3186   0.137   1.507   1.880  0.0076 -0.3405 -0.1344
  929SOL    HW1 3187   0.096   1.584   1.921  0.3351  1.0285 -2.1940
  929SOL    HW2 3188   0.231   1.520   1.896  0.0838 -0.1487 -0.7225
  930SOL     OW 3189   2.835   6.245   2.494 -0.1260  0.2829  0.2197
  930SOL    HW1 3190   2.811   6.325   2.448 -0.8148  0.4474  0.8464
  930SOL    HW2 3191   2.755   6.219   2.541 -0.0401 -0.9944 -0.2911
  931SOL     OW 3192   4.661   4.837   1.939 -1.0408 -0.1432 -0.9315
  931SOL    HW1 3193   4.571   4.839   1.905 -1.6121  1.2709  0.5214
  931SOL    HW2 3194   4.668   4.753   1.983 -2.3020  0.4303  0.4597
  932SOL     OW 3195   4.032   2.622   5.787  0.5465  0.0160 -0.6585
  932SOL    HW1 3196   4.049   2.538   5.831 -0.4131 -0.5093 -1.2553
  932SOL    HW2 3197   4.047   2.688   5.855  0.4345 -0.7003  0.0827
  933SOL     OW 3198   2.464   6.385   6.701 -1.0357 -0.4932  0.1342
  933SOL    HW1 3199   2.551   6.399   6.738 -1.0397  0.9032 -0.3276
  933SOL    HW2 3200   2.479   6.331   6.624 -0.2805  1.4054 -1.1172
  934SOL     OW 3201   1.245   0.669   1.117 -0.2446 -0.2846 -0.4756
  934SOL    HW1 3202   1.183   0.740   1.132 -0.8985 -0.9052 -0.1944
  934SOL    HW2 3203   1.195   0.603   1.071  0.3764 -0.5448 -0.7841
  935SOL     OW 3204   6.359   3.485   3.618 -0.3116 -0.4872 -0.1202
  935SOL    HW1 3205   6.367   3.535   3.699 -0.9677  0.9754 -0.9022
  935SOL    HW2 3206   6.437   3.510   3.568  0.3688 -1.8018  0.2577
  936SOL     OW 3207   1.646   1.075   5.566 -0.1611  0.0180 -0.0221
  936SOL    HW1 3208   1.590   1.133   5.617 -0.4156 -0.5705  0.3872
  936SOL    HW2 3209   1.735   1.093   5.597  0.0566  1.8852 -1.5895
  937SOL     OW 3210   5.918   3.624   0.283 -0.2501  0.0143 -0.2373
  937SOL    HW1 3211   5.990   3.579   0.239  0.7225  0.5528  0.7922
  937SOL    HW2 3212   5.846   3.560   0.280  0.9221 -1.4131  0.6791
  938SOL     OW 3213   5.142   2.245   3.024  0.4586  0.1813  0.2304
  938SOL    HW1 3214   5.139   2.296   2.943  1.2740 -0.2274 -0.0753
  938SOL    HW2 3215   5.130   2.310   3.094  0.6458  0.6702 -0.1843
  939SOL     OW 3216   0.272   6.413   4.016  0.1105 -0.3323  0.1891
  939SOL    HW1 3217   0.241   6.370   4.096  1.0393 -1.7809 -0.2060
  939SOL    HW2 3218   0.194   6.419   3.960  0.1146 -2.2785 -0.0672
  940SOL     OW 3219   1.209   4.100   5.123 -0.7644  0.0106 -0.1422
  940SOL    HW1 3220   1.227   4.027   5.064  0.2256  0.8234 -0.8737
  940SOL    HW2 3221   1.268   4.170   5.094  1.3788 -0.2328  3.0706
  941SOL     OW 3222   5.545   1.817   2.114  0.9599 -0.5180  0.1667
  941SOL    HW1 3223   5.620   1.785   2.063  0.7648 -1.5189  0.5057
  941SOL    HW2 3224   5.552   1.773   2.198  0.5928  0.2130  0.5920
  942SOL     OW 3225   5.945   1.194   3.828  0.4892  0.0896 -0.1425
  942SOL    HW1 3226   5.853   1.199   3.853  0.0625 -1.4805 -1.2483
  942SOL    HW2 3227   5.945   1.205   3.733  1.2815 -1.2131 -0.3230
  943SOL     OW 3228   4.905   1.054   3.497 -0.2735  0.5335 -0.1771
  943SOL    HW1 3229   4.904   1.068   3.402  0.5295  0.2445 -0.2359
  943SOL    HW2 3230   4.826   1.099   3.529 -1.4659 -0.7517 -1.1674
  944SOL     OW 3231   4.023   1.900   2.516 -0.3558 -0.5621  0.3984
  944SOL    HW1 3232   4.071   1.964   2.569 -2.2830 -0.0820  1.6328
  944SOL    HW2 3233   4.077   1.821   2.521  0.4185  0.0104  1.5851
  945SOL     OW 3234   0.163   5.992   5.168 -0.0870  0.1114 -0.6952
  945SOL    HW1 3235   0.232   5.976   5.232 -0.1380 -1.7865 -1.0551
  945SOL    HW2 3236   0.117   6.069   5.201  3.0261  2.3798 -1.2057
  946SOL     OW 3237   1.326   4.551   2.507 -0.4247  0.5477 -0.3339
  946SOL    HW1 3238   1.240   4.590   2.520 -0.4806  0.8173 -1.3806
  946SOL    HW2 3239   1.387   4.625   2.513 -0.2792  0.3858  0.2269
  947SOL     OW 3240   2.716   4.662   4.033  0.1002  0.6495 -0.3569
  947SOL    HW1 3241   2.644   4.602   4.016  0.4594  0.3387 -0.8049
  947SOL    HW2 3242   2.781   4.609   4.079 -0.8790  1.4827  2.1615
  948SOL     OW 3243   2.866   4.927   6.038 -0.2065  0.3345 -0.1635
  948SOL    HW1 3244   2.793   4.982   6.066 -0.8447 -0.1488 -0.8514
  948SOL    HW2 3245   2.825   4.849   6.002  0.6142  0.4812 -1.4792
  949SOL     OW 3246   0.104   2.153   3.476  0.3801  0.0510  0.0300
  949SOL    HW1 3247   0.009   2.161   3.466  0.0802 -3.1659 -0.6739
  949SOL    HW2 3248   0.121   2.178   3.567 -1.2167  0.0026  0.3669
  950SOL     OW 3249   4.876   5.788   5.738 -0.3659 -0.3585 -0.4017
  950SOL    HW1 3250   4.937   5.765   5.809 -0.2429 -0.4911 -0.5497
  950SOL    HW2 3251   4.828   5.863   5.772  0.3575  0.1876 -0.5486
  951SOL     OW 3252   2.347   1.460   5.795  0.2064  1.1600 -0.3164
  951SOL    HW1 3253   2.253   1.443   5.796  0.3967 -0.0019  0.4195
  951SOL    HW2 3254   2.359   1.535   5.853 -0.1780  0.6915  0.3844
  952SOL     OW 3255   0.026   6.513   0.753  0.4175  0.1622  0.2603
  952SOL    HW1 3256   0.043   6.601   0.786  0.2288  0.3822 -0.2129
  952SOL    HW2 3257   0.030   6.457   0.830  1.3380  0.4703  0.4551
  953SOL     OW 3258   3.757   2.913   6.641  0.0363  0.7159  0.6491
  953SOL    HW1 3259   3.671   2.930   6.678 -0.9016  0.4262 -1.2449
  953SOL    HW2 3260   3.751   2.946   6.551  1.2225 -1.1328 -0.1690
  954SOL     OW 3261   2.094   2.380   5.346  0.1664 -0.0673 -0.0619
  954SOL    HW1 3262   2.173   2.352   5.300  0.7048  2.0929 -0.5727
  954SOL    HW2 3263   2.122   2.397   5.435  0.1641  0.1183 -0.0944
  955SOL     OW 3264   4.824   6.320   5.466 -0.0191  0.1831 -0.2041
  955SOL    HW1 3265   4.902   6.292   5.417  1.0769  1.1886  0.8977
  955SOL    HW2 3266   4.802   6.405   5.428 -0.4136  0.0323 -0.3178
  956SOL     OW 3267   2.570   1.666   4.072 -0.1052 -0.0228  0.6272
  956SOL    HW1 3268   2.476   1.646   4.081 -0.4495  1.2710  0.1791
  956SOL    HW2 3269   2.592   1.711   4.154 -0.2299  0.8913  0.1721
  957SOL     OW 3270   3.911   0.260   5.591  0.1903  0.3843  0.1142
  957SOL    HW1 3271   3.825   0.274   5.552  0.2685 -0.1694 -0.2606
  957SOL    HW2 3272   3.967   0.325   5.549 -0.0993  0.9675  0.5912
  958SOL     OW 3273   1.321   1.579   0.323  0.3304 -0.0723  0.2335
  958SOL    HW1 3274   1.272   1.636   0.264 -0.5620  0.3689  1.3582
  958SOL    HW2 3275   1.260   1.510   0.347  0.5072  0.0236  1.0051
  959SOL     OW 3276   4.658   1.864   2.703  0.1696 -0.3734 -0.2276
  959SOL    HW1 3277   4.654   1.937   2.641  3.0063  1.1784  1.2113
  959SOL    HW2 3278   4.715   1.799   2.661 -1.4217 -1.3235 -1.0106
  960SOL     OW 3279   2.309   2.106   0.924 -0.1804  0.3457 -0.6950
  960SOL    HW1 3280   2.217   2.111   0.901  0.3439  1.6592 -2.8276
  960SOL    HW2 3281   2.318   2.159   1.003 -1.1642  0.6465 -0.7772
  961SOL     OW 3282   3.113   0.196   2.527 -0.5368  0.3539 -0.2494
  961SOL    HW1 3283   3.130   0.112   2.570 -2.9003 -0.6296 -1.0569
  961SOL    HW2 3284   3.192   0.214   2.477  0.8711 -0.2522  1.6489
  962SOL     OW 3285   6.140   2.336   2.093 -0.1271  0.1410  0.6392
  962SOL    HW1 3286   6.212   2.274   2.079 -0.3948  0.0744 -0.5095
  962SOL    HW2 3287   6.064   2.294   2.054 -0.4825  0.8452  0.5593
  963SOL     OW 3288   3.268   5.687   4.098 -0.0018 -0.3336 -0.0111
  963SOL    HW1 3289   3.193   5.698   4.156 -0.0138  0.5568 -0.1775
  963SOL    HW2 3290   3.231   5.691   4.010  0.1910 -0.2226 -0.0903
  964SOL     OW 3291   2.428   2.792   5.389  0.5870  0.4667 -0.5943
  964SOL    HW1 3292   2.343   2.832   5.404  0.4533  0.4391 -1.2731
  964SOL    HW2 3293   2.410   2.713   5.340  1.0476  0.7553 -1.2430
  965SOL     OW 3294   5.290   5.222   0.768 -0.1132 -0.0709  0.6198
  965SOL    HW1 3295   5.228   5.286   0.801 -0.4852 -0.5470  0.8599
  965SOL    HW2 3296   5.236   5.161   0.717  0.3816  0.4125 -0.5352
  966SOL     OW 3297   0.123   1.774   2.303  0.2287  0.6107 -0.4275
  966SOL    HW1 3298   0.166   1.690   2.321  1.3342  1.8116  3.5669
  966SOL    HW2 3299   0.031   1.760   2.327  0.1421  0.2433 -0.9605
  967SOL     OW 3300   4.215   3.205   2.867  0.3063 -0.5288  0.6373
  967SOL    HW1 3301   4.310   3.213   2.869  0.3009  0.2000 -0.7329
  967SOL    HW2 3302   4.183   3.294   2.881 -0.1706 -0.6956  0.6483
  968SOL     OW 3303   5.500   4.228   0.029 -0.4936  0.1442  0.3763
  968SOL    HW1 3304   5.494   4.303  -0.030 -0.2268 -0.6377 -0.6828
  968SOL    HW2 3305   5.499   4.266   0.117  0.7007  1.4719 -0.1351
  969SOL     OW 3306   2.824   6.261   5.167 -0.0690 -0.0179  0.6488
  969SOL    HW1 3307   2.792   6.241   5.079  1.2964  0.3642  0.0545
  969SOL    HW2 3308   2.867   6.346   5.159  2.0068 -0.9600  1.1724
  970SOL     OW 3309   5.498   5.349   0.600  0.0468  0.2712 -0.4449
  970SOL    HW1 3310   5.506   5.284   0.530  1.3127  0.8998 -0.9245
  970SOL    HW2 3311   5.432   5.313   0.659  1.1737 -1.7729 -0.3315
  971SOL     OW 3312   2.157   3.799   1.400  0.4638  0.4172  0.3246
  971SOL    HW1 3313   2.206   3.731   1.355  0.4106  0.8949 -0.4744
  971SOL    HW2 3314   2.207   3.817   1.480  2.0728  1.4948 -0.8763
  972SOL     OW 3315   6.226   4.754   5.992 -0.2605 -0.0887  0.4045
  972SOL    HW1 3316   6.179   4.837   6.001 -1.4346 -0.7010  0.0848
  972SOL    HW2 3317   6.182   4.694   6.052 -1.1704 -1.1947 -1.2642
  973SOL     OW 3318   4.616   2.621   5.226  0.1065  0.4597 -0.3151
  973SOL    HW1 3319   4.674   2.558   5.184  0.7411  1.4386 -0.9671
  973SOL    HW2 3320   4.529   2.601   5.191  0.4808  0.6615 -1.4169
  974SOL     OW 3321   0.166   5.717   3.439  0.2926  0.4422 -0.1327
  974SOL    HW1 3322   0.146   5.708   3.345  0.2650 -0.5507 -0.0414
  974SOL    HW2 3323   0.253   5.679   3.448  0.4871  0.9526  0.1773
  975SOL     OW 3324   4.707   0.357   5.244 -0.1540  0.3091  0.3715
  975SOL    HW1 3325   4.675   0.405   5.320  2.5592  0.8437  1.3152
  975SOL    HW2 3326   4.752   0.423   5.191  0.0485 -0.4765 -0.4629
  976SOL     OW 3327   2.459   1.126   4.439  0.1689 -0.1774 -0.2132
  976SOL    HW1 3328   2.487   1.113   4.349 -0.5214 -1.0054 -0.3132
  976SOL    HW2 3329   2.536   1.103   4.492  0.3343 -0.4184 -0.5579
  977SOL     OW 3330   4.974   1.868   1.429 -0.3919  0.1940 -0.1093
  977SOL    HW1 3331   5.061   1.850   1.465 -0.4287 -3.0992 -1.3462
  977SOL    HW2 3332   4.967   1.809   1.354 -2.8610  2.0146 -1.4223
  978SOL     OW 3333   4.469   3.860   1.541  0.0915 -0.5388 -0.1851
  978SOL    HW1 3334   4.503   3.845   1.453  0.6801 -0.7068  0.0692
  978SOL    HW2 3335   4.516   3.937   1.572  0.1613 -0.7085  0.1314
  979SOL     OW 3336   5.077   1.505   0.241 -0.2113  0.0574 -0.2610
  979SOL    HW1 3337   5.105   1.478   0.154  1.1882 -0.2189  0.2502
  979SOL    HW2 3338   5.120   1.444   0.300 -1.1668  0.2226  0.6360
  980SOL     OW 3339   2.645   0.645   1.313 -0.0016 -0.5166  0.0365
  980SOL    HW1 3340   2.717   0.708   1.310  0.7290 -1.2859  0.5555
  980SOL    HW2 3341   2.633   0.618   1.222  2.0009 -2.0999  0.1487
  981SOL     OW 3342   2.759   6.660   3.741  0.4601  0.4689 -0.2464
  981SOL    HW1 3343   2.824   6.730   3.729  0.1088  0.4341 -2.9684
  981SOL    HW2 3344   2.790   6.589   3.685 -0.1005 -0.9630  1.1687
  982SOL     OW 3345   1.739   4.876   5.094  0.4116 -0.7640 -0.3345
  982SOL    HW1 3346   1.756   4.965   5.125  0.6630 -0.4244 -1.4242
  982SOL    HW2 3347   1.826   4.839   5.077  0.2962 -1.1146 -0.1868
  983SOL     OW 3348   1.454   3.086   0.272 -0.6705 -0.1181  0.0032
  983SOL    HW1 3349   1.536   3.044   0.299 -0.4480 -0.3794 -1.0402
  983SOL    HW2 3350   1.386   3.021   0.292 -0.4924 -0.3670 -0.1919
  984SOL     OW 3351   6.320   2.361   4.843 -0.4213 -0.7578  0.4928
  984SOL    HW1 3352   6.382   2.289   4.829  0.0690 -0.5429  1.5102
  984SOL    HW2 3353   6.374   2.437   4.863 -1.0069 -0.6528  1.7734
  985SOL     OW 3354   4.950   1.650   5.589  0.5853  0.5078  0.1047
  985SOL    HW1 3355   5.012   1.583   5.616  0.8829  0.1815 -1.2850
  985SOL    HW2 3356   4.872   1.600   5.563  0.7847  0.6777 -0.8694
  986SOL     OW 3357   3.573   0.628   5.356  0.4192  0.4500  0.0872
  986SOL    HW1 3358   3.662   0.629   5.393 -0.2257  1.0126  1.7587
  986SOL    HW2 3359   3.533   0.708   5.390 -1.3792 -0.8156  1.1115
  987SOL     OW 3360   4.684   3.966   0.294  0.1316  0.2691 -0.7281
  987SOL    HW1 3361   4.678   3.983   0.388 -2.7346  0.6767 -0.8934
  987SOL    HW2 3362   4.616   4.021   0.256  1.5038  0.4238 -3.1171
  988SOL     OW 3363   4.332   5.118   0.105 -0.1068  0.0776  0.4586
  988SOL    HW1 3364   4.419   5.158   0.112 -1.1685  2.5690  0.4979
  988SOL    HW2 3365   4.332   5.076   0.019  0.4727  1.8797 -0.4745
  989SOL     OW 3366   0.696   3.933   6.764 -0.5589  0.1213 -0.1183
  989SOL    HW1 3367   0.778   3.950   6.717 -0.1261 -1.9585 -0.1947
  989SOL    HW2 3368   0.674   4.018   6.803  3.4729  0.1631  2.7715
  990SOL     OW 3369   3.304   3.671   6.174 -0.0568  0.6047 -0.1484
  990SOL    HW1 3370   3.320   3.615   6.098  0.8227 -1.1894  1.2595
  990SOL    HW2 3371   3.218   3.644   6.205  0.4720 -0.2046  0.6760
  991SOL     OW 3372   1.390   3.721   0.619 -0.4506  0.0249 -0.1727
  991SOL    HW1 3373   1.348   3.663   0.683 -0.2231 -0.5839 -0.5628
  991SOL    HW2 3374   1.483   3.717   0.641 -0.5382  1.0681  0.4472
  992SOL     OW 3375   0.376   2.183   2.314 -0.0979  0.0056  0.0053
  992SOL    HW1 3376   0.404   2.274   2.318  2.2972 -0.6979  0.3412
  992SOL    HW2 3377   0.346   2.172   2.223 -1.5028  1.3674  0.2558
  993SOL     OW 3378   1.134   3.386   4.923 -0.3968  0.1394  0.4952
  993SOL    HW1 3379   1.150   3.300   4.885  0.1434  0.6832 -0.5409
  993SOL    HW2 3380   1.068   3.426   4.867 -1.5900 -0.0580  1.7069
  994SOL     OW 3381   3.253   2.150   6.343  0.5998  0.7035  0.1915
  994SOL    HW1 3382   3.220   2.148   6.433  0.7114 -1.6642  0.2634
  994SOL    HW2 3383   3.206   2.222   6.302  0.1927  1.5334  2.0193
  995SOL     OW 3384   6.063   3.195   3.402 -0.1115  0.4002  0.1909
  995SOL    HW1 3385   6.143   3.154   3.436 -1.1121 -0.3714  1.7363
  995SOL    HW2 3386   6.076   3.289   3.418  0.2651  0.2313  0.9420
  996SOL     OW 3387   3.485   1.317   2.057  0.2768  0.1207 -0.1367
  996SOL    HW1 3388   3.495   1.411   2.072 -1.3335  0.6516 -2.0317
  996SOL    HW2 3389   3.485   1.307   1.962 -0.3130 -1.7006  0.0068
  997SOL     OW 3390   2.983   3.610   6.605  0.3633 -0.4731  0.4064
  997SOL    HW1 3391   2.890   3.590   6.620  0.6325 -1.8159  0.4187
  997SOL    HW2 3392   2.990   3.703   6.624 -0.7805 -0.5658  1.4759
  998SOL     OW 3393   1.151   1.445   2.741 -0.2265 -0.4737  0.3667
  998SOL    HW1 3394   1.213   1.456   2.814  0.8200  1.4930 -0.7278
  998SOL    HW2 3395   1.204   1.459   2.663 -1.8032 -0.0397 -0.6705
  999SOL     OW 3396   6.150   1.686   0.661 -0.5663  0.1798  0.2365
  999SOL    HW1 3397   6.209   1.761   0.674 -0.9950  0.4282  0.8461
  999SOL    HW2 3398   6.163   1.660   0.570  1.1350 -0.3490  0.6015
 1000SOL     OW 3399   3.317   1.011   0.410  0.0863 -0.1738  0.1426
 1000SOL    HW1 3400   3.389   1.003   0.472 -0.3064 -0.5970  0.5455
 1000SOL    HW2 3401   3.240   1.026   0.464 -0.2832 -0.6903 -0.2342
 1001SOL     OW 3402   3.107   2.280   4.373 -0.0390 -0.1802  0.0913
 1001SOL    HW1 3403   3.081   2.330   4.450 -0.0177 -0.9874  0.6357
 1001SOL    HW2 3404   3.125   2.347   4.307  1.2491  0.6138  1.1814
 1002SOL     OW 3405   5.359   1.810   2.973 -0.0770 -0.0900 -0.6525
 1002SOL    HW1 3406   5.446   1.781   2.947 -0.6976 -0.3533 -2.5212
 1002SOL    HW2 3407   5.364   1.906   2.972 -0.2683 -0.0692 -2.5247
 1003SOL     OW 3408   4.341   6.060   0.192  0.2564 -0.2838 -0.5346
 1003SOL    HW1 3409   4.413   6.065   0.129 -0.4713 -0.8616 -1.4581
 1003SOL    HW2 3410   4.301   5.975   0.176  0.6270 -0.8627  1.4086
 1004SOL     OW 3411   3.800   4.662   0.151 -0.2645  0.4037  0.1435
 1004SOL    HW1 3412   3.784   4.626   0.238 -1.2298 -0.8026 -0.4896
 1004SOL    HW2 3413   3.761   4.749   0.153 -1.6544 -0.1897  0.4797
 1005SOL     OW 3414   1.030   0.412   5.770  0.2952  0.1010 -0.1888
 1005SOL    HW1 3415   1.056   0.360   5.693  0.7059 -0.6407  0.4415
 1005SOL    HW2 3416   1.001   0.347   5.834 -0.5987  0.7519  0.0817
 1006SOL     OW 3417   1.555   5.743   5.007 -0.4088  0.2024 -0.0606
 1006SOL    HW1 3418   1.552   5.773   4.916 -0.5845 -1.2747 -0.5790
 1006SOL    HW2 3419   1.624   5.794   5.048  0.8751 -0.3010 -1.5051
 1007SOL     OW 3420   2.443   3.900   3.666  0.4049  0.2694  0.2417
 1007SOL    HW1 3421   2.361   3.931   3.703 -0.6850 -1.3533 -0.6880
 1007SOL    HW2 3422   2.495   3.980   3.652 -0.7442  1.2629  1.4256
 1008SOL     OW 3423   6.451   0.250   4.318 -0.0327 -0.5788 -0.1176
 1008SOL    HW1 3424   6.401   0.331   4.324 -1.6595 -1.4860 -0.6754
 1008SOL    HW2 3425   6.396   0.192   4.265  0.6988 -2.3142  0.9296
 1009SOL     OW 3426   4.061   5.005   6.136 -0.2570  0.2148 -0.5883
 1009SOL    HW1 3427   4.028   4.918   6.113  1.3027 -0.5534 -0.0675
 1009SOL    HW2 3428   3.983   5.057   6.150 -1.2976 -0.3321 -3.5310
 1010SOL     OW 3429   3.199   3.790   3.645  0.9360 -0.5314  0.2790
 1010SOL    HW1 3430   3.251   3.832   3.714  0.5133 -1.4804  1.1927
 1010SOL    HW2 3431   3.196   3.698   3.670 -1.2031 -0.5076  0.2524
 1011SOL     OW 3432   2.681   5.689   3.181 -0.1031  0.1076 -0.4322
 1011SOL    HW1 3433   2.707   5.746   3.109 -0.8560  0.2406 -0.6006
 1011SOL    HW2 3434   2.740   5.713   3.253 -2.0122  2.9743  0.3730
 1012SOL     OW 3435   1.978   2.774   1.970 -0.2509 -0.0823  0.0566
 1012SOL    HW1 3436   1.938   2.759   2.056 -1.1293  0.4810 -0.2439
 1012SOL    HW2 3437   1.951   2.698   1.918 -0.0360 -0.2326  0.1618
 1013SOL     OW 3438   4.157   4.905   4.662  0.1520  0.8271  0.0691
 1013SOL    HW1 3439   4.132   4.973   4.600 -1.8264  1.7109  1.7377
 1013SOL    HW2 3440   4.140   4.943   4.748 -0.7756 -1.6684  1.0803
 1014SOL     OW 3441   3.743   4.882   5.429  0.0444  0.6408  0.0123
 1014SOL    HW1 3442   3.810   4.815   5.446 -0.2011 -0.3071 -2.3805
 1014SOL    HW2 3443   3.664   4.847   5.470  0.3185  0.3106  0.2682
 1015SOL     OW 3444   2.339   5.680   4.323  0.0517 -0.3321 -0.3391
 1015SOL    HW1 3445   2.328   5.775   4.335  1.7588 -0.0401 -0.8425
 1015SOL    HW2 3446   2.404   5.655   4.389 -1.4296 -1.4592  0.7691
 1016SOL     OW 3447   4.025   4.698   4.549  0.0145  0.3670 -0.3744
 1016SOL    HW1 3448   3.931   4.712   4.556  0.0582 -0.0962  1.9356
 1016SOL    HW2 3449   4.065   4.770   4.598  0.6204 -1.6356  2.3227
 1017SOL     OW 3450   2.497   0.925   3.794 -0.2393 -0.1240  0.3397
 1017SOL    HW1 3451   2.533   0.959   3.712  0.1610 -0.6774  0.2841
 1017SOL    HW2 3452   2.440   0.995   3.826 -1.8874 -0.6106 -1.3605
 1018SOL     OW 3453   2.389   5.608   4.755 -0.5161 -0.0218 -0.1413
 1018SOL    HW1 3454   2.295   5.624   4.765 -0.3871  0.6550  0.0744
 1018SOL    HW2 3455   2.426   5.634   4.840  0.0404  1.1563 -0.7263
 1019SOL     OW 3456   1.238   3.035   1.762  0.0707  0.3583 -0.2214
 1019SOL    HW1 3457   1.309   2.996   1.814 -0.1988 -0.8730 -0.7366
 1019SOL    HW2 3458   1.222   3.119   1.803  0.1284 -0.4057  1.4647
 1020SOL     OW 3459   3.703   5.363   3.518 -0.1280 -0.1830 -0.1710
 1020SOL    HW1 3460   3.624   5.378   3.569 -0.0972  1.4400 -0.5420
 1020SOL    HW2 3461   3.683   5.287   3.464 -0.9960 -0.5038  0.5828
 1021SOL     OW 3462   3.405   5.475   1.275  0.3485  0.7001 -0.3346
 1021SOL    HW1 3463   3.384   5.450   1.364 -1.2332 -0.3083 -0.9549
 1021SOL    HW2 3464   3.326   5.518   1.242  1.0155  1.3537 -1.1520
 1022SOL     OW 3465   0.260   5.057   2.619  0.0546 -0.7661 -0.5841
 1022SOL    HW1 3466   0.300   4.984   2.572  0.1091 -0.8441 -0.4177
 1022SOL    HW2 3467   0.171   5.027   2.640 -2.0124  1.1440 -5.2177
 1023SOL     OW 3468   6.524   0.007   5.463  0.3835  0.2298  0.0295
 1023SOL    HW1 3469   6.500   0.035   5.375  1.8445  1.9508  0.1095
 1023SOL    HW2 3470   6.484  -0.079   5.473  0.5025 -0.1820 -2.4597
 1024SOL     OW 3471   6.354   6.528   3.915 -0.0377  1.0806  0.2866
 1024SOL    HW1 3472   6.410   6.604   3.900 -0.9008  1.6173 -0.2728
 1024SOL    HW2 3473   6.410   6.453   3.896  0.8024  1.5725  0.7692
 1025SOL     OW 3474   0.752   2.766   0.918  0.1160 -0.6102 -0.3317
 1025SOL    HW1 3475   0.816   2.725   0.859 -0.2765 -0.1619 -1.0819
 1025SOL    HW2 3476   0.671   2.770   0.867  0.0338  0.6905 -0.1271
 1026SOL     OW 3477   1.652   3.320   0.004  0.4059  0.1750  0.2871
 1026SOL    HW1 3478   1.642   3.380  -0.070 -0.8546  0.6366  0.8063
 1026SOL    HW2 3479   1.567   3.276   0.011  0.4661  0.2135  1.5107
 1027SOL     OW 3480   5.106   3.699   2.789 -0.0991 -0.8958 -0.8416
 1027SOL    HW1 3481   5.103   3.795   2.791 -0.2832 -0.9035 -0.6974
 1027SOL    HW2 3482   5.191   3.678   2.750  0.9043 -0.6653  1.0637
 1028SOL     OW 3483   4.183   6.286   3.027  0.1147 -0.1239 -0.3961
 1028SOL    HW1 3484   4.196   6.248   2.940  0.2533 -1.0353  0.0105
 1028SOL    HW2 3485   4.109   6.237   3.064 -1.2207  1.5523 -0.7159
 1029SOL     OW 3486   4.531   6.317   4.159  0.4608  0.0091 -0.2166
 1029SOL    HW1 3487   4.486   6.381   4.104 -1.1636  0.2115  1.2609
 1029SOL    HW2 3488   4.554   6.246   4.099 -0.6847  0.4880 -1.2619
 1030SOL     OW 3489   5.755   3.147   5.245  0.1609  0.1065  0.3294
 1030SOL    HW1 3490   5.842   3.109   5.254  0.0326  0.1052  2.0072
 1030SOL    HW2 3491   5.696   3.082   5.284 -0.5785  0.1828 -0.6192
 1031SOL     OW 3492   4.720   3.199   1.987 -0.0861  0.2234 -0.1250
 1031SOL    HW1 3493   4.670   3.142   1.929  1.4922 -0.2000 -1.1497
 1031SOL    HW2 3494   4.805   3.208   1.944  0.7865  0.7650  1.6101
 1032SOL     OW 3495   6.134   1.528   3.718  0.0813  0.2678  0.6049
 1032SOL    HW1 3496   6.067   1.491   3.660 -0.8450  0.8102  1.2953
 1032SOL    HW2 3497   6.092   1.534   3.803  1.2975 -0.1405  1.2582
 1033SOL     OW 3498   3.604   4.667   2.736 -0.0144  0.3286  0.1627
 1033SOL    HW1 3499   3.518   4.709   2.735  0.8121  2.0867 -1.0562
 1033SOL    HW2 3500   3.611   4.626   2.649  0.2991  0.0149  0.3349
 1034SOL     OW 3501   4.660   6.102   2.283  0.0001  0.1257 -0.0295
 1034SOL    HW1 3502   4.680   6.008   2.291 -0.2015  0.0776 -0.0928
 1034SOL    HW2 3503   4.737   6.138   2.238 -1.0677 -0.4724 -2.4795
 1035SOL     OW 3504   2.065   0.903   4.785  0.5970 -0.3165 -0.0042
 1035SOL    HW1 3505   2.090   0.863   4.702 -1.3191 -0.4909 -0.5331
 1035SOL    HW2 3506   2.031   0.990   4.761  2.7496  0.8572  0.9258
 1036SOL     OW 3507   5.236   3.113   6.671 -0.0216  0.3312 -0.2130
 1036SOL    HW1 3508   5.257   3.190   6.723 -0.9363  0.0988  0.5309
 1036SOL    HW2 3509   5.240   3.144   6.580  0.2567  1.0840  0.0457
 1037SOL     OW 3510   1.375   4.746   3.949 -0.5632 -0.3585 -0.6841
 1037SOL    HW1 3511   1.301   4.696   3.914 -1.3086 -2.0543  2.8643
 1037SOL    HW2 3512   1.442   4.680   3.968 -0.0582  0.4968  0.6455
 1038SOL     OW 3513   4.620   3.022   1.161 -0.4379  0.3042 -0.0641
 1038SOL    HW1 3514   4.662   2.994   1.243 -1.1507  1.8763  0.8895
 1038SOL    HW2 3515   4.623   2.944   1.105  2.0184 -0.1993  0.6389
 1039SOL     OW 3516   3.023   6.109   3.303  0.5749  0.5753 -0.3361
 1039SOL    HW1 3517   3.048   6.095   3.211 -1.5210 -0.1882 -0.8426
 1039SOL    HW2 3518   3.006   6.021   3.337  0.6870  0.9024  0.5912
 1040SOL     OW 3519   2.709   4.288   3.887  0.0162  0.5201  0.0684
 1040SOL    HW1 3520   2.714   4.259   3.796 -1.9810  0.1908  0.0169
 1040SOL    HW2 3521   2.796   4.273   3.922  0.2344 -1.4103 -1.1802
 1041SOL     OW 3522   2.564   6.156   1.997  0.5898 -0.8600 -0.3250
 1041SOL    HW1 3523   2.554   6.118   1.909  0.6107 -0.8969 -0.3114
 1041SOL    HW2 3524   2.592   6.246   1.981  0.6356 -0.8795 -0.3557
 1042SOL     OW 3525   0.744   3.608   5.504 -0.2171  0.6471 -0.5764
 1042SOL    HW1 3526   0.828   3.566   5.487 -0.3540 -0.1366  0.5479
 1042SOL    HW2 3527   0.683   3.565   5.444 -0.4939 -1.3552  0.9989
 1043SOL     OW 3528   5.958   5.381   5.972  0.0013 -0.3996  0.0970
 1043SOL    HW1 3529   5.988   5.449   6.033 -1.6645  0.8899 -0.4430
 1043SOL    HW2 3530   5.992   5.299   6.009  1.2233  0.5957  1.3179
 1044SOL     OW 3531   5.563   6.536   2.670  0.5927 -0.1337 -0.0379
 1044SOL    HW1 3532   5.635   6.518   2.610  1.0812  0.9554  0.1938
 1044SOL    HW2 3533   5.501   6.465   2.655  0.2334  0.6071 -2.5834
 1045SOL     OW 3534   6.088   1.838   0.979  0.6169  0.2085  0.7250
 1045SOL    HW1 3535   6.078   1.900   0.907  2.1682 -1.0047 -0.6085
 1045SOL    HW2 3536   6.080   1.891   1.058 -0.4383  1.6938 -0.3293
 1046SOL     OW 3537   3.658   4.281   0.925 -0.0692 -0.1654  0.3796
 1046SOL    HW1 3538   3.619   4.252   1.007  1.4101  2.3552  2.1036
 1046SOL    HW2 3539   3.714   4.209   0.898 -1.5028 -1.5256  0.8584
 1047SOL     OW 3540   4.754   1.725   2.479  0.3364 -0.1813 -0.1118
 1047SOL    HW1 3541   4.748   1.741   2.385  0.1195  1.0395  0.0896
 1047SOL    HW2 3542   4.749   1.630   2.488 -0.9719 -0.2546 -1.2530
 1048SOL     OW 3543   2.523   1.084   2.492  0.1213  0.1568 -0.3712
 1048SOL    HW1 3544   2.612   1.112   2.470  0.4553 -0.7122 -0.1659
 1048SOL    HW2 3545   2.507   1.121   2.579  0.7253 -0.6157  0.0905
 1049SOL     OW 3546   3.829   3.717   3.124 -0.4127 -0.1197  0.1231
 1049SOL    HW1 3547   3.803   3.808   3.133 -0.2820 -0.1349  0.6475
 1049SOL    HW2 3548   3.767   3.668   3.178  0.7527 -0.1480  1.4986
 1050SOL     OW 3549   6.344   0.737   3.553  0.1018 -0.6081 -0.6115
 1050SOL    HW1 3550   6.278   0.742   3.622 -0.0024 -1.9493 -0.5932
 1050SOL    HW2 3551   6.428   0.746   3.599 -0.0176 -0.0813 -0.4931
 1051SOL     OW 3552   6.117   4.283   0.312  0.0633  0.0318  0.2389
 1051SOL    HW1 3553   6.076   4.273   0.226 -1.5805  2.0945  0.7088
 1051SOL    HW2 3554   6.107   4.198   0.353 -0.6249 -0.5098 -0.9820
 1052SOL     OW 3555   4.685   4.540   1.990 -0.5926 -0.0772  0.1151
 1052SOL    HW1 3556   4.591   4.550   1.978 -0.6715  0.3453  0.9870
 1052SOL    HW2 3557   4.693   4.485   2.068 -0.1128 -0.7325 -0.3837
 1053SOL     OW 3558   6.671   1.881   0.931  0.3913 -0.4215 -0.2819
 1053SOL    HW1 3559   6.621   1.932   0.996 -0.3844 -0.4839 -0.8206
 1053SOL    HW2 3560   6.610   1.814   0.901  1.2735 -1.4312  0.1091
 1054SOL     OW 3561   3.166   6.767   5.413  0.3383  0.1654 -0.6172
 1054SOL    HW1 3562   3.224   6.816   5.472 -0.1163  2.8903 -2.2736
 1054SOL    HW2 3563   3.122   6.704   5.471  2.8344 -0.0914  1.1755
 1055SOL     OW 3564   5.109   4.838   1.985 -0.1959  0.2009 -0.2335
 1055SOL    HW1 3565   5.186   4.894   1.991  0.9476 -1.3684  0.4105
 1055SOL    HW2 3566   5.083   4.823   2.076 -0.7362  0.0135 -0.4169
 1056SOL     OW 3567   0.026   5.847   2.956  0.2722  0.2545 -0.1399
 1056SOL    HW1 3568   0.020   5.803   3.041 -0.3520  1.1746  0.3043
 1056SOL    HW2 3569   0.028   5.940   2.976  2.2137  0.4601 -1.0476
 1057SOL     OW 3570   3.501   0.851   2.432  0.1005  0.0711  0.5052
 1057SOL    HW1 3571   3.562   0.812   2.369  2.6008  0.8061  2.3110
 1057SOL    HW2 3572   3.537   0.938   2.450 -1.4020  0.4703  1.8222
 1058SOL     OW 3573   5.756   4.258   2.026  0.1085 -0.3113 -0.0983
 1058SOL    HW1 3574   5.841   4.234   1.988  0.3431 -0.8142  0.7140
 1058SOL    HW2 3575   5.779   4.313   2.101 -0.2845 -0.4159  0.1016
 1059SOL     OW 3576   4.968   4.057   5.150 -0.4231  0.6568  0.0325
 1059SOL    HW1 3577   5.054   4.064   5.110 -1.2078 -0.7510 -2.0631
 1059SOL    HW2 3578   4.970   3.975   5.199 -0.7757  0.2430 -0.6292
 1060SOL     OW 3579   5.614   6.451   3.564  0.0433  0.1075 -0.2594
 1060SOL    HW1 3580   5.581   6.529   3.607  1.3741  1.3727 -1.4446
 1060SOL    HW2 3581   5.694   6.428   3.613  1.5653  1.5556 -1.9458
 1061SOL     OW 3582   1.275   6.166   3.321  0.4696  0.4252  0.5560
 1061SOL    HW1 3583   1.222   6.122   3.255  0.8505 -0.3429  0.7587
 1061SOL    HW2 3584   1.351   6.199   3.273  0.9540 -0.4941  0.6720
 1062SOL     OW 3585   5.066   1.162   2.460  0.4532  0.0425  0.4102
 1062SOL    HW1 3586   5.153   1.200   2.473 -0.2193  1.8592 -0.0275
 1062SOL    HW2 3587   5.032   1.207   2.382 -0.1137 -2.0883 -0.6649
 1063SOL     OW 3588   3.107   5.551   3.893  0.3053  0.1041 -0.4322
 1063SOL    HW1 3589   3.094   5.573   3.801 -2.1006  1.8497  0.2053
 1063SOL    HW2 3590   3.121   5.457   3.894  2.6185  0.3093 -2.7065
 1064SOL     OW 3591   6.310   3.376   6.684  0.3291 -0.4970  0.3299
 1064SOL    HW1 3592   6.357   3.453   6.654  1.3215 -0.7805  1.1295
 1064SOL    HW2 3593   6.363   3.302   6.654 -1.1911 -0.9565 -1.4438
 1065SOL     OW 3594   1.712   3.623   2.212  0.8408 -0.2836  0.0064
 1065SOL    HW1 3595   1.655   3.547   2.224  0.7742 -0.2507 -0.0962
 1065SOL    HW2 3596   1.716   3.665   2.298  0.7459 -0.3113  0.0242
 1066SOL     OW 3597   1.835   1.641   3.895  0.1503  0.8019  0.1479
 1066SOL    HW1 3598   1.860   1.563   3.846  0.2311 -0.2313  1.7573
 1066SOL    HW2 3599   1.914   1.666   3.943  0.2344  2.1178 -0.6314
 1067SOL     OW 3600   6.010   4.056   3.322 -0.1453 -0.4676 -0.3207
 1067SOL    HW1 3601   5.994   4.128   3.382  2.1144 -1.1205  1.2121
 1067SOL    HW2 3602   5.970   3.980   3.364  1.7270 -0.9904  0.6087
 1068SOL     OW 3603   1.626   3.556   1.348  0.2450  0.3141 -0.0107
 1068SOL    HW1 3604   1.628   3.649   1.328 -0.5673  0.3034 -0.1831
 1068SOL    HW2 3605   1.663   3.514   1.271  2.0640  0.5560  0.6714
 1069SOL     OW 3606   1.094   1.439   5.966 -0.1834 -0.0306  0.4377
 1069SOL    HW1 3607   1.015   1.491   5.979  0.0888  0.7336 -0.8293
 1069SOL    HW2 3608   1.107   1.394   6.049 -2.1494 -0.4547  0.5601
 1070SOL     OW 3609   0.789   0.980   3.876  0.3851 -0.0936  0.0939
 1070SOL    HW1 3610   0.706   1.008   3.836  0.3431 -0.8340 -0.3493
 1070SOL    HW2 3611   0.793   1.029   3.958  0.3702  1.2924 -0.7038
 1071SOL     OW 3612   4.054   2.689   3.569  0.0024  0.1775  0.4016
 1071SOL    HW1 3613   4.075   2.777   3.600 -1.1437  0.6950 -0.2211
 1071SOL    HW2 3614   4.071   2.632   3.644  1.0567  0.8790  0.7125
 1072SOL     OW 3615   3.959   6.210   2.103  0.2237  0.0647  0.2985
 1072SOL    HW1 3616   3.885   6.271   2.096 -1.2397 -1.4157  1.7911
 1072SOL    HW2 3617   4.012   6.245   2.175 -0.6622 -0.4315  1.2180
 1073SOL     OW 3618   6.461   1.148   1.662 -0.2232  0.0654 -0.3637
 1073SOL    HW1 3619   6.395   1.090   1.624  2.7744 -1.4609 -3.8686
 1073SOL    HW2 3620   6.484   1.209   1.592  1.0140  1.5956  1.2492
 1074SOL     OW 3621   5.410   3.891   5.362  0.4477 -0.0151  0.7534
 1074SOL    HW1 3622   5.410   3.804   5.322  0.0908 -0.0573  0.8386
 1074SOL    HW2 3623   5.444   3.877   5.450  2.5400  0.2890  0.0498
 1075SOL     OW 3624   3.242   0.717   1.851 -0.1188  0.2615 -0.0800
 1075SOL    HW1 3625   3.312   0.659   1.822 -0.7797 -0.6354  0.0689
 1075SOL    HW2 3626   3.168   0.695   1.794 -0.9565 -0.4057  1.2137
 1076SOL     OW 3627   2.373   3.334   6.276  0.0971 -0.0535  0.1595
 1076SOL    HW1 3628   2.303   3.336   6.341  0.3593  0.8302  0.4275
 1076SOL    HW2 3629   2.330   3.307   6.195 -0.3726 -0.4463  0.5381
 1077SOL     OW 3630   4.173   0.862   4.637  0.0110 -0.1602 -0.0583
 1077SOL    HW1 3631   4.100   0.846   4.697  0.6073  0.3968  0.8542
 1077SOL    HW2 3632   4.174   0.957   4.625  1.0664 -0.0624  0.6085
 1078SOL     OW 3633   2.507   0.827   3.218 -0.4314  0.5100  0.3677
 1078SOL    HW1 3634   2.500   0.912   3.175  0.1082  1.4496  2.0416
 1078SOL    HW2 3635   2.440   0.773   3.176  1.3631  0.6621 -3.0278
 1079SOL     OW 3636   3.337   0.114   1.608 -0.1299 -0.9300  0.2231
 1079SOL    HW1 3637   3.294   0.157   1.534 -0.6549 -1.1439  0.3979
 1079SOL    HW2 3638   3.381   0.038   1.569 -0.3863 -1.0288  0.1253
 1080SOL     OW 3639   1.576   2.104   3.614  0.0193 -0.8222  0.0105
 1080SOL    HW1 3640   1.617   2.183   3.579  0.0735 -1.2873 -1.0402
 1080SOL    HW2 3641   1.534   2.064   3.538 -0.3801 -1.5710  0.6132
 1081SOL     OW 3642   0.096   3.526   3.566 -0.0857  0.1380 -0.6180
 1081SOL    HW1 3643   0.132   3.437   3.573 -0.4054 -0.0630 -1.5034
 1081SOL    HW2 3644   0.015   3.522   3.617  0.2343  0.1132 -0.0950
 1082SOL     OW 3645   1.416   6.172   0.125 -0.0753 -0.2397 -0.1872
 1082SOL    HW1 3646   1.501   6.203   0.094  0.4312 -1.8455 -0.4909
 1082SOL    HW2 3647   1.412   6.199   0.216  0.4646  0.4425 -0.3577
 1083SOL     OW 3648   6.462   4.309   1.240 -0.0842 -0.6573 -0.1929
 1083SOL    HW1 3649   6.392   4.314   1.175  0.1854 -1.5889 -0.5790
 1083SOL    HW2 3650   6.437   4.234   1.295  0.2051 -0.5055  0.1467
 1084SOL     OW 3651   4.964   0.778   6.762 -0.1610  0.2719  0.7900
 1084SOL    HW1 3652   5.047   0.824   6.776 -0.8542  1.3454  1.5829
 1084SOL    HW2 3653   4.938   0.803   6.673  2.0286 -2.9165 -0.9639
 1085SOL     OW 3654   3.168   4.458   4.379  0.1024 -0.0787  0.0683
 1085SOL    HW1 3655   3.078   4.449   4.347 -0.5044  0.9856  1.3534
 1085SOL    HW2 3656   3.203   4.533   4.331  0.8392 -1.4013 -1.5135
 1086SOL     OW 3657   2.141   0.860   2.102  0.2026  0.0480  0.1520
 1086SOL    HW1 3658   2.074   0.891   2.163  0.4547  0.2179  0.3454
 1086SOL    HW2 3659   2.150   0.767   2.121  0.3627  0.1243  0.4532
 1087SOL     OW 3660   1.888   5.430   6.074 -0.0010  0.2446 -0.7802
 1087SOL    HW1 3661   1.843   5.422   6.159  1.2992  0.7738 -0.0096
 1087SOL    HW2 3662   1.852   5.509   6.035 -1.0540 -0.3376 -1.0150
 1088SOL     OW 3663   5.788   1.484   0.001 -0.0767  0.2218 -0.1498
 1088SOL    HW1 3664   5.868   1.446  -0.037 -0.2068  0.0458 -0.2499
 1088SOL    HW2 3665   5.801   1.476   0.095  0.2064  0.5730 -0.1551
 1089SOL     OW 3666   4.701   5.260   1.727  0.2065  0.1243  0.2323
 1089SOL    HW1 3667   4.769   5.247   1.660 -1.1727 -1.2271 -0.9749
 1089SOL    HW2 3668   4.738   5.220   1.806  1.9224  1.8734  0.4057
 1090SOL     OW 3669   5.516   2.655   6.715 -0.0472 -0.2336  0.4115
 1090SOL    HW1 3670   5.586   2.593   6.736  1.4864  0.5877 -1.8488
 1090SOL    HW2 3671   5.443   2.599   6.687  1.0146 -1.1165 -0.7555
 1091SOL     OW 3672   2.440   6.663   5.804 -0.0517  0.1897 -0.0486
 1091SOL    HW1 3673   2.374   6.658   5.873 -1.2694  2.5775 -0.9254
 1091SOL    HW2 3674   2.503   6.728   5.835  2.2025 -2.2773  0.9155
 1092SOL     OW 3675   2.937   0.142   1.821  0.9969  0.0092 -0.4613
 1092SOL    HW1 3676   3.003   0.209   1.835 -0.7160  1.5821  0.4594
 1092SOL    HW2 3677   2.858   0.176   1.864 -0.5578 -1.5727 -1.9018
 1093SOL     OW 3678   4.338   0.650   2.070 -0.4698  0.0727  0.3812
 1093SOL    HW1 3679   4.285   0.663   2.149 -1.1214  0.0307 -0.0446
 1093SOL    HW2 3680   4.287   0.689   2.000  0.5796  1.0219  0.1269
 1094SOL     OW 3681   5.438   4.351   4.505  1.2486 -0.0732 -0.5206
 1094SOL    HW1 3682   5.516   4.391   4.467 -0.3152  3.8945  0.0070
 1094SOL    HW2 3683   5.439   4.380   4.597  0.0992 -1.5439 -0.0043
 1095SOL     OW 3684   4.383   6.049   3.702 -0.3162  0.0212  0.9557
 1095SOL    HW1 3685   4.363   6.001   3.621 -0.5906 -0.0572  1.0697
 1095SOL    HW2 3686   4.463   6.097   3.682  0.6317 -1.3893  1.2023
 1096SOL     OW 3687   0.663   6.346   5.937 -0.4365 -0.0178  0.2112
 1096SOL    HW1 3688   0.598   6.378   5.874  0.2694  2.6613  0.7410
 1096SOL    HW2 3689   0.653   6.404   6.013  1.0092 -1.0532  1.2353
 1097SOL     OW 3690   1.447   5.456   5.911 -0.0882 -0.0210 -0.2463
 1097SOL    HW1 3691   1.382   5.386   5.919 -0.5748  0.5167  0.6780
 1097SOL    HW2 3692   1.478   5.471   6.001 -0.5923  1.4957 -0.2888
 1098SOL     OW 3693   2.438   2.031   0.076 -0.2447  0.3050  0.4927
 1098SOL    HW1 3694   2.445   1.942   0.111 -0.0004  0.4369  0.7816
 1098SOL    HW2 3695   2.351   2.033   0.036  0.6776 -0.8495 -1.7346
 1099SOL     OW 3696   2.277   0.786   6.059 -0.0187 -0.5344  0.4037
 1099SOL    HW1 3697   2.355   0.800   6.005 -0.0122 -0.4664  0.4309
 1099SOL    HW2 3698   2.204   0.813   6.002  0.1084  1.3131  1.0576
 1100SOL     OW 3699   3.345   4.248   3.334 -0.1891  0.1239  0.3024
 1100SOL    HW1 3700   3.376   4.227   3.246 -0.1705  0.5137  0.2139
 1100SOL    HW2 3701   3.399   4.194   3.392 -0.5774 -0.5511  0.0475
 1101SOL     OW 3702   1.088   6.625   6.036  0.4699 -0.2936 -0.0255
 1101SOL    HW1 3703   1.158   6.689   6.031 -0.7004  1.1039  0.5372
 1101SOL    HW2 3704   1.129   6.546   6.071  1.9152  0.1955 -0.5728
 1102SOL     OW 3705   2.505   2.979   4.764  0.4466 -0.0348 -0.3288
 1102SOL    HW1 3706   2.557   3.041   4.816 -0.6290  0.0230  0.7084
 1102SOL    HW2 3707   2.475   2.914   4.827  1.0404 -1.2948 -1.3009
 1103SOL     OW 3708   6.039   3.734   6.097 -0.0699  0.1792 -0.2243
 1103SOL    HW1 3709   5.981   3.660   6.081  0.3374  0.4130 -3.3626
 1103SOL    HW2 3710   6.109   3.725   6.032  0.9062  2.3840  0.4205
 1104SOL     OW 3711   6.279   3.572   1.926 -0.3769 -0.3760 -0.2884
 1104SOL    HW1 3712   6.369   3.590   1.900 -1.0562  1.8330 -1.3821
 1104SOL    HW2 3713   6.280   3.580   2.022  0.8711 -2.0123 -0.1330
 1105SOL     OW 3714   3.069   3.373   6.154 -0.2238 -0.3268 -0.2114
 1105SOL    HW1 3715   3.024   3.444   6.199  1.2089  0.5662 -0.1243
 1105SOL    HW2 3716   2.999   3.321   6.116 -1.3497  0.5734  0.5476
 1106SOL     OW 3717   2.257   5.197   1.070 -0.1889  0.0583  0.5001
 1106SOL    HW1 3718   2.263   5.249   0.990 -1.4864 -1.1242 -0.4200
 1106SOL    HW2 3719   2.258   5.262   1.141 -0.7814  1.2780 -0.5560
 1107SOL     OW 3720   3.547   4.866   0.038 -0.0180  0.1392 -0.9301
 1107SOL    HW1 3721   3.461   4.860  -0.003 -1.4296  0.1987  1.7966
 1107SOL    HW2 3722   3.576   4.956   0.020 -0.9094  0.3821 -1.1822
 1108SOL     OW 3723   3.338   1.316   0.320  0.1042  0.0790 -0.9380
 1108SOL    HW1 3724   3.298   1.230   0.330  0.0437  0.2318  0.3360
 1108SOL    HW2 3725   3.303   1.351   0.239 -0.7287 -0.6446 -0.8924
 1109SOL     OW 3726   6.167   0.400   1.075 -0.2397  0.3801  0.4179
 1109SOL    HW1 3727   6.213   0.336   1.129 -0.1345  0.4571  0.4196
 1109SOL    HW2 3728   6.166   0.480   1.127  0.7761  0.7548 -0.1111
 1110SOL     OW 3729   1.749   3.197   3.660  0.0269  0.5101 -0.2775
 1110SOL    HW1 3730   1.770   3.104   3.654 -2.1090  0.0438 -1.5817
 1110SOL    HW2 3731   1.654   3.201   3.646 -0.2337  2.7348  1.4961
 1111SOL     OW 3732   1.062   5.066   2.757  0.0108 -0.3206 -0.1094
 1111SOL    HW1 3733   1.053   5.100   2.668 -1.8469 -1.3340 -0.3541
 1111SOL    HW2 3734   1.015   5.129   2.812  1.6908  0.6444  0.2837
 1112SOL     OW 3735   6.417   4.334   3.547 -0.2080  0.1549 -0.0321
 1112SOL    HW1 3736   6.486   4.373   3.493  0.2606 -0.0003  0.4413
 1112SOL    HW2 3737   6.403   4.399   3.617  0.0847 -0.1976  0.3642
 1113SOL     OW 3738   4.731   4.363   6.159  0.3520  0.8130  0.4238
 1113SOL    HW1 3739   4.765   4.452   6.166 -1.5677  1.8176 -1.7334
 1113SOL    HW2 3740   4.643   4.373   6.122  0.3845 -1.9902 -0.6930
 1114SOL     OW 3741   3.486   4.488   4.229  0.4511  0.1768  0.7429
 1114SOL    HW1 3742   3.457   4.448   4.311 -0.6992 -0.1154  0.2164
 1114SOL    HW2 3743   3.474   4.419   4.164  1.0031  0.5238  0.2704
 1115SOL     OW 3744   3.279   0.489   2.579 -0.3621  0.1690  0.6687
 1115SOL    HW1 3745   3.200   0.542   2.593  0.5660  1.5159  1.0897
 1115SOL    HW2 3746   3.280   0.428   2.652  0.5632  2.2246  2.4982
 1116SOL     OW 3747   3.824   5.168   6.137  0.0878 -0.4318  0.5521
 1116SOL    HW1 3748   3.765   5.228   6.185  0.1814  0.4283 -0.3688
 1116SOL    HW2 3749   3.766   5.101   6.102 -0.3707  0.3928 -0.3220
 1117SOL     OW 3750   0.996   4.336   2.827 -0.2010 -0.1000  0.2159
 1117SOL    HW1 3751   1.073   4.326   2.772  0.4169 -1.0235  1.2074
 1117SOL    HW2 3752   1.028   4.381   2.905 -0.8929  0.4809  0.1690
 1118SOL     OW 3753   4.737   3.744   5.471  0.5459  0.1727 -0.5792
 1118SOL    HW1 3754   4.754   3.713   5.382 -0.5704  0.6261 -0.9685
 1118SOL    HW2 3755   4.647   3.718   5.489  0.3675  1.1147 -0.0351
 1119SOL     OW 3756   0.995   0.928   1.314 -0.0781 -0.4960 -0.8984
 1119SOL    HW1 3757   1.019   1.011   1.272 -0.3854 -1.4047 -2.9784
 1119SOL    HW2 3758   0.902   0.917   1.295 -0.3971 -0.6479  0.6128
 1120SOL     OW 3759   0.061   1.276   3.205 -0.3147 -0.1055 -0.0991
 1120SOL    HW1 3760   0.040   1.226   3.284  0.0658 -0.6514 -0.3343
 1120SOL    HW2 3761   0.156   1.281   3.204 -0.3213  0.0116 -0.4536
 1121SOL     OW 3762   3.285   5.858   0.766 -0.1463 -0.2416 -0.0667
 1121SOL    HW1 3763   3.231   5.900   0.698 -0.5446 -0.7476 -0.0673
 1121SOL    HW2 3764   3.357   5.919   0.779  1.6275 -1.4691 -3.0934
 1122SOL     OW 3765   1.821   0.685   6.342  0.3019  0.0693 -0.0392
 1122SOL    HW1 3766   1.841   0.716   6.431  1.7898  0.4775 -0.5006
 1122SOL    HW2 3767   1.895   0.712   6.289 -0.5891 -0.1270 -1.4452
 1123SOL     OW 3768   5.628   6.557   2.198 -0.1805  0.1980 -0.6988
 1123SOL    HW1 3769   5.609   6.556   2.104  0.3690  1.9866 -0.8570
 1123SOL    HW2 3770   5.613   6.647   2.225  1.6867  0.2087  0.5039
 1124SOL     OW 3771   0.094   2.046   1.311  0.2729 -0.0817  0.1705
 1124SOL    HW1 3772   0.115   1.962   1.270  0.5932 -0.2270  0.6256
 1124SOL    HW2 3773   0.178   2.081   1.339 -0.0056 -0.3740  1.4412
 1125SOL     OW 3774   3.912   3.554   2.930  0.5082 -0.5211  0.0067
 1125SOL    HW1 3775   3.912   3.592   2.843  1.9370 -2.4561 -0.9139
 1125SOL    HW2 3776   3.884   3.626   2.988  1.8981  1.5406 -1.7234
 1126SOL     OW 3777   4.346   1.598   3.112  0.1909 -0.0509 -0.1280
 1126SOL    HW1 3778   4.284   1.597   3.040 -1.8149 -0.6109  1.4940
 1126SOL    HW2 3779   4.348   1.689   3.142  0.3136  0.0007 -0.2891
 1127SOL     OW 3780   6.511   3.341   2.288 -0.1070 -0.1167  0.0612
 1127SOL    HW1 3781   6.460   3.373   2.362 -0.5389  1.1397 -0.7365
 1127SOL    HW2 3782   6.446   3.324   2.220  0.4631  1.0349 -0.8101
 1128SOL     OW 3783   6.042   5.314   1.236  0.5541  0.1768  0.0314
 1128SOL    HW1 3784   6.028   5.229   1.278  0.4860  0.4417  0.5427
 1128SOL    HW2 3785   6.029   5.378   1.305  1.0922  0.5849 -0.2344
 1129SOL     OW 3786   6.569   2.686   5.832  0.7307 -0.1843 -0.1660
 1129SOL    HW1 3787   6.496   2.748   5.820 -0.1622 -1.3685 -1.2073
 1129SOL    HW2 3788   6.647   2.737   5.811  0.2272  1.1214  0.9655
 1130SOL     OW 3789   2.013   1.160   5.611 -0.4076  0.5087 -0.0734
 1130SOL    HW1 3790   2.006   1.072   5.573 -2.6289  0.1021  1.1581
 1130SOL    HW2 3791   2.041   1.145   5.701  0.5948  1.1942 -0.2520
 1131SOL     OW 3792   3.383   5.740   6.436  0.5003  0.3416 -0.2445
 1131SOL    HW1 3793   3.428   5.698   6.509  1.1842 -0.8671 -1.3168
 1131SOL    HW2 3794   3.452   5.778   6.382  0.4068 -2.0221 -2.2100
 1132SOL     OW 3795   5.670   4.458   4.401 -0.6037 -1.0181  0.5112
 1132SOL    HW1 3796   5.732   4.483   4.470 -1.0234  1.4680  0.0774
 1132SOL    HW2 3797   5.722   4.463   4.320 -1.3887  1.8254  0.0513
 1133SOL     OW 3798   5.329   0.598   4.256 -0.3833  0.4120  0.8399
 1133SOL    HW1 3799   5.325   0.604   4.160 -0.8276  0.7041  0.8741
 1133SOL    HW2 3800   5.402   0.538   4.273  0.3365  1.1253  0.3398
 1134SOL     OW 3801   2.922   5.321   2.867  0.3368  0.4685  0.3354
 1134SOL    HW1 3802   3.009   5.284   2.883  0.1059 -0.4022 -0.3087
 1134SOL    HW2 3803   2.939   5.408   2.832  0.9480  0.3855  0.4073
 1135SOL     OW 3804   2.476   2.656   4.588  1.0778 -0.1957  0.6054
 1135SOL    HW1 3805   2.457   2.680   4.678 -1.6318  0.6486 -0.0997
 1135SOL    HW2 3806   2.399   2.608   4.558  1.2919  0.7074 -1.6409
 1136SOL     OW 3807   0.767   6.477   1.960  0.1781  0.1514  0.5792
 1136SOL    HW1 3808   0.681   6.503   1.928  0.3247  0.2947  0.2964
 1136SOL    HW2 3809   0.779   6.526   2.042  0.2638  0.6332  0.2819
 1137SOL     OW 3810   6.300   5.076   3.378  0.1079 -0.2462 -0.1398
 1137SOL    HW1 3811   6.375   5.135   3.390  0.2370 -0.4408  0.0079
 1137SOL    HW2 3812   6.234   5.110   3.439  0.5202 -0.8228  0.6517
 1138SOL     OW 3813   6.717   2.241   4.618 -0.3249 -0.3156  0.4852
 1138SOL    HW1 3814   6.746   2.202   4.536 -0.4570 -1.2507  0.8771
 1138SOL    HW2 3815   6.796   2.278   4.657 -0.5119  1.6463 -0.8354
 1139SOL     OW 3816   5.636   4.176   4.861  0.2546  0.4220  0.1403
 1139SOL    HW1 3817   5.698   4.138   4.922 -0.9519 -0.7414  0.6965
 1139SOL    HW2 3818   5.630   4.112   4.790 -0.5564  0.3488  0.2682
 1140SOL     OW 3819   1.628   5.639   5.815  0.3569 -0.2294  0.2061
 1140SOL    HW1 3820   1.574   5.566   5.843  0.0136 -0.3020 -0.6105
 1140SOL    HW2 3821   1.571   5.716   5.824  0.4579 -0.1689  0.3248
 1141SOL     OW 3822   2.586   0.782   4.410 -0.2837  0.1370 -0.0761
 1141SOL    HW1 3823   2.617   0.833   4.336 -1.2464 -0.3297 -0.8099
 1141SOL    HW2 3824   2.632   0.698   4.402 -0.8622 -0.1421 -0.5131
 1142SOL     OW 3825   1.499   3.334   1.852  0.2703  0.3381  0.2394
 1142SOL    HW1 3826   1.583   3.363   1.817  0.3317 -0.2765 -0.1510
 1142SOL    HW2 3827   1.520   3.294   1.936  0.3992  0.0512  0.0754
 1143SOL     OW 3828   2.763   0.454   3.788 -0.1147  0.4020  0.3288
 1143SOL    HW1 3829   2.727   0.523   3.732 -0.6315 -1.2065 -1.4236
 1143SOL    HW2 3830   2.701   0.446   3.860 -0.4885  1.1731  0.1006
 1144SOL     OW 3831   4.123   2.218   5.059 -0.2419 -0.0033  0.0166
 1144SOL    HW1 3832   4.091   2.303   5.090 -1.0800  0.0297 -0.9084
 1144SOL    HW2 3833   4.045   2.170   5.034  0.1488 -1.4068  1.3550
 1145SOL     OW 3834   2.018   3.373   5.240 -0.2393 -0.2822 -0.4553
 1145SOL    HW1 3835   1.990   3.415   5.321  0.2025  2.0746 -1.4236
 1145SOL    HW2 3836   1.938   3.338   5.202 -0.5598 -0.7591  0.6217
 1146SOL     OW 3837   6.132   2.751   2.669 -0.3265  0.2339  0.6204
 1146SOL    HW1 3838   6.046   2.757   2.627 -0.4224  0.4360  0.8421
 1146SOL    HW2 3839   6.159   2.660   2.655 -0.1927  0.3921 -0.1899
 1147SOL     OW 3840   3.346   5.817   1.589 -0.5319  0.1385  0.4712
 1147SOL    HW1 3841   3.262   5.809   1.544 -2.4013  0.3092  3.6313
 1147SOL    HW2 3842   3.338   5.897   1.642  1.8361  0.4363  0.5054
 1148SOL     OW 3843   5.204   0.289   3.038  0.1646 -0.0289  0.5142
 1148SOL    HW1 3844   5.179   0.373   3.077 -1.1917  0.3046 -0.9780
 1148SOL    HW2 3845   5.134   0.229   3.065  0.3840 -0.3323  0.4127
 1149SOL     OW 3846   5.872   5.713   5.438  0.2031  0.6170  0.2105
 1149SOL    HW1 3847   5.786   5.708   5.396  0.4961  1.3633 -0.5216
 1149SOL    HW2 3848   5.885   5.807   5.454  0.8246  0.4954  0.4361
 1150SOL     OW 3849   5.216   3.757   5.927 -0.1795  0.2582 -0.1055
 1150SOL    HW1 3850   5.121   3.761   5.912 -0.5036 -1.0234  1.3636
 1150SOL    HW2 3851   5.233   3.826   5.991 -0.3540 -0.3238  0.5844
 1151SOL     OW 3852   4.553   2.250   5.219  0.2991  0.0649 -0.2738
 1151SOL    HW1 3853   4.641   2.287   5.211  0.7095 -0.9589 -0.6026
 1151SOL    HW2 3854   4.495   2.323   5.199  1.1210  0.1567 -2.6817
 1152SOL     OW 3855   4.523   5.100   4.088 -0.7120 -0.2918 -0.1234
 1152SOL    HW1 3856   4.522   5.188   4.050  0.0354 -0.4194 -0.4491
 1152SOL    HW2 3857   4.500   5.114   4.180  0.9408  0.4487  0.2201
 1153SOL     OW 3858   0.597   0.627   4.352  0.1150 -0.3513 -0.6900
 1153SOL    HW1 3859   0.692   0.637   4.339  0.3941 -1.7994  0.0478
 1153SOL    HW2 3860   0.563   0.606   4.265  0.2979  1.1067 -1.1523
 1154SOL     OW 3861   1.361   5.308   2.009  0.1394 -0.4219 -0.1074
 1154SOL    HW1 3862   1.288   5.276   1.957  0.0013 -0.3324  0.0301
 1154SOL    HW2 3863   1.435   5.310   1.949 -0.0911 -0.0118 -0.3834
 1155SOL     OW 3864   2.201   2.293   5.788  0.1138  0.0268  0.0293
 1155SOL    HW1 3865   2.182   2.334   5.873 -0.1197  0.4484 -0.2264
 1155SOL    HW2 3866   2.120   2.301   5.738  0.8997  1.7709 -1.0424
 1156SOL     OW 3867   5.507   0.187   3.955 -0.0848 -0.6596 -0.4251
 1156SOL    HW1 3868   5.422   0.215   3.921 -0.0962  0.7946  0.7093
 1156SOL    HW2 3869   5.485   0.123   4.024 -0.1527 -1.7077 -1.3862
 1157SOL     OW 3870   2.574   1.315   4.164 -0.3469  0.3532  0.3405
 1157SOL    HW1 3871   2.603   1.243   4.108  0.7055  1.4229 -0.5533
 1157SOL    HW2 3872   2.480   1.322   4.147 -0.1467  0.2979 -0.9140
 1158SOL     OW 3873   2.710   2.750   1.979  0.3796  0.0663  0.2636
 1158SOL    HW1 3874   2.777   2.733   1.912  0.8809 -0.1845  0.8187
 1158SOL    HW2 3875   2.760   2.769   2.058 -0.1646 -2.4861  1.3186
 1159SOL     OW 3876   5.911   5.808   3.018  0.3202 -0.2220  0.4250
 1159SOL    HW1 3877   5.897   5.902   3.026  1.2163  0.0057 -0.6471
 1159SOL    HW2 3878   6.005   5.797   3.009  0.3962 -1.3522  1.9679
 1160SOL     OW 3879   1.651   0.156   1.659  0.1598 -0.6987  0.3154
 1160SOL    HW1 3880   1.611   0.071   1.640  0.1388 -0.5080 -0.5144
 1160SOL    HW2 3881   1.720   0.137   1.723  0.6134 -1.4357 -0.3853
 1161SOL     OW 3882   1.948   5.181   5.443 -0.2048  0.3335 -0.1747
 1161SOL    HW1 3883   1.908   5.226   5.518 -0.5874 -0.6774  0.2577
 1161SOL    HW2 3884   2.041   5.202   5.450  0.0426 -1.0364  1.5917
 1162SOL     OW 3885   0.263   1.517   2.369  0.2402 -0.0382  0.2851
 1162SOL    HW1 3886   0.307   1.483   2.292  1.2160 -1.3161  1.3607
 1162SOL    HW2 3887   0.333   1.532   2.433 -0.6524 -0.1545  1.3272
 1163SOL     OW 3888   5.339   5.438   0.020 -0.0803  0.2095 -0.1239
 1163SOL    HW1 3889   5.310   5.489  -0.056  0.6318  1.2443  0.2757
 1163SOL    HW2 3890   5.300   5.481   0.095  0.8840  0.4530  0.2604
 1164SOL     OW 3891   5.787   2.059   6.756  0.2260  0.3400  0.0193
 1164SOL    HW1 3892   5.858   2.123   6.764  1.0247 -0.5514  0.1715
 1164SOL    HW2 3893   5.770   2.053   6.662  1.6009 -0.7597 -0.1927
 1165SOL     OW 3894   0.992   1.675   1.004 -0.4107  0.3718 -0.0845
 1165SOL    HW1 3895   0.904   1.662   1.041 -0.9324  1.0919 -1.0273
 1165SOL    HW2 3896   0.981   1.746   0.940  0.9922  0.9108  0.2354
 1166SOL     OW 3897   0.781   3.199   6.148 -0.4179  0.1446 -0.3296
 1166SOL    HW1 3898   0.740   3.237   6.070 -0.2206  2.7802  0.7692
 1166SOL    HW2 3899   0.857   3.254   6.164  0.1922 -1.0735  1.0765
 1167SOL     OW 3900   4.104   5.377   4.676  0.1509  0.2673 -0.2101
 1167SOL    HW1 3901   4.049   5.348   4.603  1.5461 -0.0910 -1.1714
 1167SOL    HW2 3902   4.150   5.454   4.643  1.3109 -0.2963  0.0302
 1168SOL     OW 3903   3.292   5.108   3.446  0.1782 -0.2832  0.6103
 1168SOL    HW1 3904   3.347   5.094   3.523  0.0286 -0.0791  0.7551
 1168SOL    HW2 3905   3.203   5.093   3.477  0.2941 -3.6239 -0.2955
 1169SOL     OW 3906   1.363   4.808   0.606  0.0581  0.0060 -0.2341
 1169SOL    HW1 3907   1.272   4.797   0.632  0.7429 -0.0745  2.3922
 1169SOL    HW2 3908   1.401   4.721   0.611  0.1733 -0.1044 -2.0736
 1170SOL     OW 3909   5.455   6.449   4.120 -0.4221  0.0607  0.6442
 1170SOL    HW1 3910   5.381   6.413   4.071 -1.5077  1.1673  1.3963
 1170SOL    HW2 3911   5.425   6.536   4.147  1.1482  0.5107  1.0170
 1171SOL     OW 3912   0.315   4.334   5.089 -0.0585 -0.0344  0.3059
 1171SOL    HW1 3913   0.324   4.239   5.098  0.4239  0.1201  1.7062
 1171SOL    HW2 3914   0.228   4.353   5.124  0.0979  0.1059  0.6216
 1172SOL     OW 3915   4.513   2.149   2.166  0.1785  0.3142 -0.4830
 1172SOL    HW1 3916   4.602   2.142   2.199 -0.4758 -3.3822  0.8588
 1172SOL    HW2 3917   4.515   2.107   2.080 -0.2601  0.3794 -0.5325
 1173SOL     OW 3918   3.997   2.249   6.168 -0.0713  0.0942 -0.8255
 1173SOL    HW1 3919   3.954   2.329   6.197 -0.9451 -0.0916 -1.5803
 1173SOL    HW2 3920   3.946   2.178   6.207  0.4732 -0.1149 -0.4713
 1174SOL     OW 3921   0.794   5.073   3.989 -0.1411  0.5653 -0.2325
 1174SOL    HW1 3922   0.785   4.984   3.955 -0.5481  0.5185 -0.0043
 1174SOL    HW2 3923   0.805   5.063   4.083 -1.6355  0.8109 -0.0047
 1175SOL     OW 3924   4.030   3.481   6.005  0.1906  0.1295  0.2499
 1175SOL    HW1 3925   3.969   3.534   5.953 -2.2962 -2.6144  0.0752
 1175SOL    HW2 3926   3.978   3.452   6.081  1.2278 -2.3135  0.1315
 1176SOL     OW 3927   3.551   1.294   5.491  0.4094 -0.3559  0.2981
 1176SOL    HW1 3928   3.642   1.264   5.497  1.4288  2.3223 -0.2163
 1176SOL    HW2 3929   3.511   1.267   5.573  2.8309  1.7360  2.3593
 1177SOL     OW 3930   1.908   6.206   6.164  0.0376  0.1577 -0.3774
 1177SOL    HW1 3931   1.958   6.130   6.134 -3.5522 -2.3172 -0.7192
 1177SOL    HW2 3932   1.914   6.203   6.259  1.1676  0.3917 -0.4332
 1178SOL     OW 3933   5.388   2.577   5.155  0.4817  0.0732 -0.2285
 1178SOL    HW1 3934   5.468   2.619   5.184  0.6865 -1.2328  1.2762
 1178SOL    HW2 3935   5.318   2.624   5.201  0.5152  0.2183 -0.3253
 1179SOL     OW 3936   3.894   3.597   5.776 -0.2521  0.5326 -0.2601
 1179SOL    HW1 3937   3.881   3.692   5.774  0.2358  0.6386  0.8263
 1179SOL    HW2 3938   3.952   3.579   5.702 -0.8073  0.9900 -0.8251
 1180SOL     OW 3939   0.801   2.775   4.914 -0.4409  0.1863 -0.4465
 1180SOL    HW1 3940   0.711   2.753   4.936 -0.8991  1.9812 -0.3794
 1180SOL    HW2 3941   0.794   2.851   4.856  1.0563  1.2576  0.7126
 1181SOL     OW 3942   0.720   4.185   0.358 -0.1132  0.1972 -0.0269
 1181SOL    HW1 3943   0.787   4.247   0.388 -0.2015  0.3800 -0.2016
 1181SOL    HW2 3944   0.764   4.100   0.359 -0.0647  0.2221  0.4621
 1182SOL     OW 3945   4.236   4.519   5.174  0.1618  0.0160 -0.0993
 1182SOL    HW1 3946   4.174   4.578   5.130 -0.9481 -0.4437  0.7731
 1182SOL    HW2 3947   4.320   4.564   5.169 -0.2406  0.6843 -1.2916
 1183SOL     OW 3948   1.793   2.927   3.680 -0.4773  0.1729  0.7394
 1183SOL    HW1 3949   1.767   2.846   3.723 -2.3535  0.0239 -0.5674
 1183SOL    HW2 3950   1.858   2.965   3.739  0.8168 -2.4753  1.1612
 1184SOL     OW 3951   4.926   1.707   1.196 -0.1613 -0.3974 -0.0237
 1184SOL    HW1 3952   4.858   1.750   1.144  1.6106  1.1938 -1.1600
 1184SOL    HW2 3953   4.942   1.625   1.150 -1.2345 -0.7696  0.2286
 1185SOL     OW 3954   0.590   1.333   5.997  0.2681 -0.2914 -0.8989
 1185SOL    HW1 3955   0.556   1.383   5.923  0.0954 -1.1050 -1.3915
 1185SOL    HW2 3956   0.595   1.243   5.964 -0.3642 -0.7734  0.2579
 1186SOL     OW 3957   4.690   5.720   1.519 -0.4264  0.3171 -0.2424
 1186SOL    HW1 3958   4.726   5.808   1.529  1.2466 -0.1440 -1.5993
 1186SOL    HW2 3959   4.597   5.729   1.536 -0.4610  2.5504 -1.3325
 1187SOL     OW 3960   0.072   3.403   6.205 -0.4559  0.1427 -0.1278
 1187SOL    HW1 3961   0.032   3.375   6.287 -0.7193  1.8957  0.3947
 1187SOL    HW2 3962  -0.002   3.425   6.148 -0.3006  1.3520  0.0946
 1188SOL     OW 3963   5.141   5.644   3.999 -0.0368  0.5593  0.2203
 1188SOL    HW1 3964   5.171   5.709   3.936  1.3178  0.5076  0.7592
 1188SOL    HW2 3965   5.152   5.560   3.954  2.7011  0.3560  1.0528
 1189SOL     OW 3966   6.102   0.520   3.506  0.2202 -0.1950  0.2784
 1189SOL    HW1 3967   6.049   0.590   3.545  1.8061  1.0362  0.3355
 1189SOL    HW2 3968   6.118   0.550   3.417 -0.5236 -1.3614 -0.2733
 1190SOL     OW 3969   3.245   2.258   5.185  0.2693 -0.3960  0.4988
 1190SOL    HW1 3970   3.169   2.201   5.174  0.3659 -0.1446 -2.1986
 1190SOL    HW2 3971   3.278   2.271   5.096  1.9296  1.5907  1.3269
 1191SOL     OW 3972   1.657   6.670   0.981 -0.1721  0.1787  0.5733
 1191SOL    HW1 3973   1.740   6.631   1.010  1.6048 -0.4432 -4.3250
 1191SOL    HW2 3974   1.668   6.764   0.997  1.8653  0.1806 -0.4535
 1192SOL     OW 3975   5.076   4.547   4.740  0.2554  0.1746  0.2843
 1192SOL    HW1 3976   5.114   4.597   4.667 -1.4536  0.5841 -0.3967
 1192SOL    HW2 3977   4.990   4.588   4.753 -1.3824 -2.7300 -0.5058
 1193SOL     OW 3978   5.757   2.168   3.869  0.3921 -0.0616 -0.7180
 1193SOL    HW1 3979   5.842   2.211   3.859  0.1964  0.5300  0.0238
 1193SOL    HW2 3980   5.771   2.102   3.937 -0.0938  1.0957  0.5557
 1194SOL     OW 3981   0.145   5.551   4.986  0.5774 -0.1749  0.1941
 1194SOL    HW1 3982   0.224   5.537   5.038  2.2608  0.7902 -1.9676
 1194SOL    HW2 3983   0.134   5.646   4.982 -1.6217 -0.2791  1.6669
 1195SOL     OW 3984   3.428   3.879   2.308 -0.1983  0.2262 -0.0611
 1195SOL    HW1 3985   3.371   3.806   2.283  1.1422 -0.5300 -1.0520
 1195SOL    HW2 3986   3.391   3.911   2.390 -1.7558 -0.5356 -0.4278
 1196SOL     OW 3987   5.927   4.258   0.089  0.2285 -0.2314  0.4008
 1196SOL    HW1 3988   5.987   4.279   0.018 -1.6848  0.5177 -1.0551
 1196SOL    HW2 3989   5.874   4.185   0.056 -0.6504  0.0852  1.0585
 1197SOL     OW 3990   6.689   2.867   0.824  0.0804 -0.5184  0.1642
 1197SOL    HW1 3991   6.764   2.807   0.831 -1.3125 -2.8346 -2.6597
 1197SOL    HW2 3992   6.632   2.842   0.897  1.6947  0.9555  2.0599
 1198SOL     OW 3993   1.114   3.309   0.017  0.0990  0.6792 -0.0116
 1198SOL    HW1 3994   1.076   3.335   0.101 -0.5287 -0.1229 -0.0263
 1198SOL    HW2 3995   1.047   3.333  -0.048  0.3831  0.8776 -0.2332
 1199SOL     OW 3996   5.026   0.053   1.810 -0.3050 -0.9519 -0.5380
 1199SOL    HW1 3997   5.101   0.002   1.780 -0.4171 -0.2861 -2.0334
 1199SOL    HW2 3998   5.054   0.091   1.893  1.1253 -0.4610 -1.2166
 1200SOL     OW 3999   2.868   4.668   4.607 -0.0907  0.5805 -0.0315
 1200SOL    HW1 4000   2.824   4.587   4.579 -0.2177  0.1215  1.4349
 1200SOL    HW2 4001   2.836   4.734   4.545 -2.0544  0.0473  0.3434
 1201SOL     OW 4002   4.556   5.368   1.466 -0.5620  0.1344  0.4862
 1201SOL    HW1 4003   4.556   5.288   1.414 -0.7595  1.8323 -2.4128
 1201SOL    HW2 4004   4.609   5.348   1.543 -0.4042 -2.6556 -0.2574
 1202SOL     OW 4005   3.738   0.524   3.193 -0.2600  0.0141  0.2028
 1202SOL    HW1 4006   3.715   0.568   3.275 -0.2368  0.0330  0.1992
 1202SOL    HW2 4007   3.655   0.487   3.161 -0.2210 -0.2101  0.3623
 1203SOL     OW 4008   1.706   2.295   3.471  0.0955  0.0866 -0.5584
 1203SOL    HW1 4009   1.788   2.248   3.461  0.6830  1.1541 -0.9014
 1203SOL    HW2 4010   1.661   2.283   3.387 -0.4737 -1.1554 -0.0978
 1204SOL     OW 4011   6.411   0.047   6.501 -0.9251  0.5456 -0.0824
 1204SOL    HW1 4012   6.396  -0.017   6.431 -2.2460  1.0967 -0.3283
 1204SOL    HW2 4013   6.507   0.051   6.509 -0.8019 -1.4416 -0.0513
 1205SOL     OW 4014   0.376   2.833   3.996 -0.4284 -0.5678  0.4475
 1205SOL    HW1 4015   0.397   2.908   3.940  0.0267  0.5287  2.0317
 1205SOL    HW2 4016   0.313   2.782   3.944  1.2075 -0.5198 -1.7521
 1206SOL     OW 4017   2.719   1.713   0.005 -1.1532  0.3446 -0.0268
 1206SOL    HW1 4018   2.723   1.620   0.029  0.4040  0.9364  2.4426
 1206SOL    HW2 4019   2.713   1.713  -0.090 -1.7145 -2.2781 -0.0815
 1207SOL     OW 4020   3.633   0.735   4.698 -0.1441 -0.7378 -0.3227
 1207SOL    HW1 4021   3.660   0.801   4.635  0.8220  0.3271  1.1240
 1207SOL    HW2 4022   3.705   0.672   4.698  1.3481  0.8074  1.7446
 1208SOL     OW 4023   4.478   1.404   2.994 -0.5658  0.0134  0.5786
 1208SOL    HW1 4024   4.500   1.464   2.923  0.1227 -0.6146  0.2552
 1208SOL    HW2 4025   4.414   1.452   3.047 -0.1492  0.9617  0.2336
 1209SOL     OW 4026   5.316   1.320   5.149  0.0549 -0.5925 -0.2381
 1209SOL    HW1 4027   5.223   1.338   5.163  0.0964 -0.5025 -0.0877
 1209SOL    HW2 4028   5.361   1.363   5.222  0.1996 -0.7861 -0.2123
 1210SOL     OW 4029   1.856   5.710   5.972  0.4471  0.2495  0.2137
 1210SOL    HW1 4030   1.912   5.776   5.932 -0.0997  1.0826  0.8040
 1210SOL    HW2 4031   1.769   5.729   5.939  0.3634 -0.5219 -0.0366
 1211SOL     OW 4032   6.770   1.719   3.254  0.1913 -0.0924  0.3210
 1211SOL    HW1 4033   6.822   1.797   3.273 -0.1845 -0.0732  1.3414
 1211SOL    HW2 4034   6.680   1.744   3.275  0.0996 -0.8726  0.9058
 1212SOL     OW 4035   0.004   2.223   4.967 -0.4133  0.2180  0.3024
 1212SOL    HW1 4036   0.037   2.163   5.033 -0.4192 -0.8828 -0.6658
 1212SOL    HW2 4037   0.071   2.225   4.899 -1.7022 -1.0809 -1.0960
 1213SOL     OW 4038   2.256   3.741   6.767  0.5472  0.2731  0.0358
 1213SOL    HW1 4039   2.310   3.776   6.838 -0.9206  2.9809 -0.0456
 1213SOL    HW2 4040   2.294   3.779   6.688  1.2396 -1.4858 -0.5042
 1214SOL     OW 4041   0.020   3.553   0.252  0.3799  0.2187 -0.7790
 1214SOL    HW1 4042   0.048   3.590   0.335 -1.6983  1.4241 -0.5477
 1214SOL    HW2 4043   0.016   3.459   0.267 -2.1035  0.5689  1.2284
 1215SOL     OW 4044   1.148   4.585   6.659 -0.3967  0.0838 -0.3892
 1215SOL    HW1 4045   1.060   4.583   6.621 -0.9089  1.9737  0.5771
 1215SOL    HW2 4046   1.175   4.677   6.652  2.1659 -0.6864 -2.0363
 1216SOL     OW 4047   5.550   5.289   1.679  0.2174  0.0625  0.0780
 1216SOL    HW1 4048   5.607   5.237   1.623 -1.2458 -1.5637  0.0259
 1216SOL    HW2 4049   5.467   5.295   1.631 -1.0910 -1.3994  2.0165
 1217SOL     OW 4050   1.383   5.893   5.224 -0.4637  0.0394  0.4484
 1217SOL    HW1 4051   1.413   5.841   5.149 -0.1799  0.7771  0.0373
 1217SOL    HW2 4052   1.370   5.981   5.188  1.3560  0.8476  1.6207
 1218SOL     OW 4053   1.256   1.441   5.469  0.2504 -0.4420  0.3506
 1218SOL    HW1 4054   1.213   1.386   5.534 -1.4924 -0.3254 -0.6368
 1218SOL    HW2 4055   1.339   1.465   5.510 -1.0513  0.2323  2.8706
 1219SOL     OW 4056   0.954   4.138   2.119  0.3876 -0.3046 -0.2022
 1219SOL    HW1 4057   0.915   4.094   2.043 -1.2395  1.5470 -0.5105
 1219SOL    HW2 4058   0.950   4.073   2.189  0.4798 -1.5206 -1.2829
 1220SOL     OW 4059   6.597   4.961   4.880  0.5528  0.5664  0.0924
 1220SOL    HW1 4060   6.678   4.912   4.867 -0.3167 -0.6589 -0.8903
 1220SOL    HW2 4061   6.594   4.976   4.974  1.5185 -0.0746  0.2449
 1221SOL     OW 4062   5.529   6.659   1.822  0.1209 -0.9379 -0.3367
 1221SOL    HW1 4063   5.504   6.598   1.891  2.1528 -1.8571 -0.3116
 1221SOL    HW2 4064   5.490   6.622   1.743 -4.0634  1.2873  0.4498
 1222SOL     OW 4065   6.721   4.377   1.288  0.7728  0.0315 -0.0848
 1222SOL    HW1 4066   6.627   4.382   1.273  0.6877 -0.2916  0.3238
 1222SOL    HW2 4067   6.733   4.297   1.339  1.4046 -0.5743 -1.1708
 1223SOL     OW 4068   4.239   5.394   0.062 -0.0876  0.3508 -0.8437
 1223SOL    HW1 4069   4.262   5.302   0.071 -0.5194  0.2995 -0.2488
 1223SOL    HW2 4070   4.265   5.434   0.145  1.2227  1.0227 -1.5315
 1224SOL     OW 4071   1.821   6.038   6.566 -0.3145 -0.2274  0.1121
 1224SOL    HW1 4072   1.751   5.997   6.616 -1.5762 -1.4371 -2.4709
 1224SOL    HW2 4073   1.891   5.972   6.563 -1.0188 -0.9609 -1.2497
 1225SOL     OW 4074   1.435   1.790   3.458 -0.2015  0.3705  0.4818
 1225SOL    HW1 4075   1.427   1.825   3.546  1.0310  1.3844  0.2177
 1225SOL    HW2 4076   1.394   1.855   3.402  0.5365  0.5771  0.1603
 1226SOL     OW 4077   5.253   2.330   6.569 -0.0292 -0.1533 -0.4811
 1226SOL    HW1 4078   5.267   2.340   6.475  1.8423  0.6166 -0.1678
 1226SOL    HW2 4079   5.231   2.419   6.599 -0.4161 -0.3543 -0.1629
 1227SOL     OW 4080   6.495   4.871   6.142  0.2478  0.1305  0.2815
 1227SOL    HW1 4081   6.435   4.816   6.091 -0.1125  0.5111  0.2919
 1227SOL    HW2 4082   6.444   4.949   6.163  1.3555  1.3843 -1.4162
 1228SOL     OW 4083   6.456   4.703   4.690 -0.1419  0.4784 -0.3559
 1228SOL    HW1 4084   6.491   4.788   4.664  0.0019  0.4098 -0.3853
 1228SOL    HW2 4085   6.362   4.709   4.671 -0.3116  0.9946  0.5844
 1229SOL     OW 4086   1.544   0.432   5.103  0.1532  0.6460  0.1072
 1229SOL    HW1 4087   1.481   0.432   5.175  0.9865  0.1763  0.8564
 1229SOL    HW2 4088   1.496   0.395   5.029 -0.6526  0.9389  0.4786
 1230SOL     OW 4089   1.379   1.207   0.275  0.5568 -0.1533 -1.0395
 1230SOL    HW1 4090   1.340   1.288   0.243  0.6993  0.3606  0.0403
 1230SOL    HW2 4091   1.392   1.222   0.369 -0.9557 -2.0298 -0.4638
 1231SOL     OW 4092   2.294   3.735   5.313 -0.7252 -0.1814 -0.1707
 1231SOL    HW1 4093   2.251   3.708   5.232 -0.1837 -2.2134  0.1751
 1231SOL    HW2 4094   2.384   3.704   5.304 -0.1752  1.1238  0.4937
 1232SOL     OW 4095   5.962   3.029   0.638  0.4718 -0.5103  0.5528
 1232SOL    HW1 4096   5.984   2.998   0.550 -0.7070  1.3954 -0.4770
 1232SOL    HW2 4097   5.968   2.951   0.693 -0.5724 -2.1785 -1.5419
 1233SOL     OW 4098   4.117   6.731   2.205 -0.1864  0.1153  0.0360
 1233SOL    HW1 4099   4.140   6.641   2.227  0.5840 -0.3080 -2.2588
 1233SOL    HW2 4100   4.162   6.784   2.271  4.0271 -0.9288 -1.6127
 1234SOL     OW 4101   0.792   4.581   4.675 -0.5088 -0.4253 -0.2703
 1234SOL    HW1 4102   0.792   4.544   4.764 -0.1160 -0.3291 -0.2245
 1234SOL    HW2 4103   0.721   4.536   4.630 -0.6006 -0.6011  0.0439
 1235SOL     OW 4104   0.427   4.746   4.365  0.3493  0.5229  0.0244
 1235SOL    HW1 4105   0.447   4.798   4.288  3.2176 -0.8899 -0.3400
 1235SOL    HW2 4106   0.454   4.800   4.439  0.6078  0.6719 -0.1782
 1236SOL     OW 4107   3.998   5.150   5.640  0.4178 -0.5597 -0.1841
 1236SOL    HW1 4108   3.967   5.194   5.718  0.1336  0.6324 -0.9445
 1236SOL    HW2 4109   4.089   5.128   5.658  0.5157  0.2060  0.2613
 1237SOL     OW 4110   5.631   3.288   6.549 -0.1121 -0.3109 -0.4238
 1237SOL    HW1 4111   5.709   3.240   6.576  0.8127  0.4993 -1.6039
 1237SOL    HW2 4112   5.662   3.353   6.487 -1.2299  2.2369  1.4906
 1238SOL     OW 4113   6.358   1.044   0.763  0.1251  0.0965  0.7251
 1238SOL    HW1 4114   6.429   1.043   0.700  1.2233  1.7012  1.8520
 1238SOL    HW2 4115   6.397   1.012   0.844 -0.2857  1.4079  1.4764
 1239SOL     OW 4116   1.541   4.551   1.274 -0.1491 -0.0757 -0.3550
 1239SOL    HW1 4117   1.512   4.576   1.186  0.9422  0.8061 -0.4922
 1239SOL    HW2 4118   1.463   4.560   1.328 -0.5873  0.4290 -1.0447
 1240SOL     OW 4119   1.074   2.309   1.368 -0.5627 -0.4705 -0.3222
 1240SOL    HW1 4120   1.108   2.238   1.422  0.3000 -0.1327 -0.3930
 1240SOL    HW2 4121   1.152   2.352   1.333 -1.0758  0.1942 -0.6906
 1241SOL     OW 4122   1.883   1.463   3.249  0.3297  0.1198  0.0358
 1241SOL    HW1 4123   1.872   1.534   3.311  0.3316 -0.5699  0.8403
 1241SOL    HW2 4124   1.838   1.388   3.289  3.6209 -1.4423  1.1142
 1242SOL     OW 4125   5.365   1.810   5.925  0.1116  0.4442 -0.7421
 1242SOL    HW1 4126   5.367   1.893   5.972  0.8169  0.8291 -1.4188
 1242SOL    HW2 4127   5.405   1.747   5.985 -1.1785  0.4007  0.0982
 1243SOL     OW 4128   1.269   1.192   0.761 -0.1647 -0.1304  0.2040
 1243SOL    HW1 4129   1.329   1.196   0.686 -0.6260  1.1676 -0.1247
 1243SOL    HW2 4130   1.182   1.188   0.721 -0.3774 -0.3529  0.6856
 1244SOL     OW 4131   6.506   4.085   6.472  0.2804 -0.0791 -0.1933
 1244SOL    HW1 4132   6.539   4.007   6.428  0.7212 -0.0008 -0.0097
 1244SOL    HW2 4133   6.568   4.154   6.449 -1.0329  0.6502 -1.7834
 1245SOL     OW 4134   1.051   2.188   6.052  0.0419  0.0352  0.4184
 1245SOL    HW1 4135   1.128   2.234   6.083  0.9564 -2.6541  2.5606
 1245SOL    HW2 4136   1.084   2.105   6.018 -1.8170 -0.8651  0.6490
 1246SOL     OW 4137   2.455   2.213   5.898 -0.1223 -0.0687  0.3861
 1246SOL    HW1 4138   2.376   2.227   5.847  1.3244  1.6253 -1.5955
 1246SOL    HW2 4139   2.429   2.231   5.989 -1.7721  1.4741 -0.3382
 1247SOL     OW 4140   1.698   2.248   1.384 -0.3145 -0.1014 -0.7247
 1247SOL    HW1 4141   1.610   2.223   1.413 -0.0315 -0.6960 -0.3535
 1247SOL    HW2 4142   1.696   2.237   1.289 -0.9659  0.9506 -0.8461
 1248SOL     OW 4143   3.153   3.878   1.072 -0.5845  0.8664 -1.4037
 1248SOL    HW1 4144   3.077   3.935   1.067 -0.8655  0.4285 -2.6950
 1248SOL    HW2 4145   3.228   3.935   1.053 -0.5537  1.3172 -0.0279
 1249SOL     OW 4146   0.746   1.833   5.311  0.8421 -0.2013  0.3443
 1249SOL    HW1 4147   0.738   1.796   5.399  0.2748 -0.6435  0.1135
 1249SOL    HW2 4148   0.837   1.860   5.305  0.7729  0.2975  1.2476
 1250SOL     OW 4149   1.524   1.191   4.226  1.0816 -0.2418  0.5653
 1250SOL    HW1 4150   1.547   1.132   4.298 -0.8648  0.0765  1.5039
 1250SOL    HW2 4151   1.429   1.183   4.217  1.4620 -2.6986 -4.1910
 1251SOL     OW 4152   4.129   6.472   1.829  0.3052  0.2985  0.2632
 1251SOL    HW1 4153   4.181   6.553   1.832  0.3828  0.2512  0.1627
 1251SOL    HW2 4154   4.169   6.415   1.894  1.6349 -0.5058 -1.1911
 1252SOL     OW 4155   2.536   3.965   5.204 -0.0204  0.2930  0.1540
 1252SOL    HW1 4156   2.471   4.018   5.158 -0.8165 -0.2728  0.6017
 1252SOL    HW2 4157   2.489   3.926   5.277  1.0418  0.5449  1.0028
 1253SOL     OW 4158   6.046   6.241   4.109 -0.1766  0.2626 -0.5648
 1253SOL    HW1 4159   6.018   6.200   4.027  0.6508  0.4949 -0.9782
 1253SOL    HW2 4160   6.078   6.327   4.083 -3.1917  1.8254  0.4461
 1254SOL     OW 4161   3.660   1.588   3.677 -0.1047  0.4418 -0.4869
 1254SOL    HW1 4162   3.740   1.538   3.662 -0.0336  0.0063  1.1376
 1254SOL    HW2 4163   3.690   1.670   3.717 -0.4992 -0.0621  0.8889
 1255SOL     OW 4164   2.373   4.008   4.344 -1.2805  0.0059 -0.5965
 1255SOL    HW1 4165   2.366   4.079   4.408  0.5514 -1.5654  1.5172
 1255SOL    HW2 4166   2.421   4.047   4.271  0.2645  0.8458  0.7937
 1256SOL     OW 4167   6.036   6.498   2.186  0.1713 -0.3426 -0.1782
 1256SOL    HW1 4168   5.945   6.525   2.174  0.7598  1.5603 -0.7996
 1256SOL    HW2 4169   6.078   6.518   2.102  1.2209 -0.9409  0.1873
 1257SOL     OW 4170   1.467   2.474   0.366 -0.1478 -0.2778 -0.0485
 1257SOL    HW1 4171   1.548   2.482   0.417  0.0754 -1.7300 -0.1230
 1257SOL    HW2 4172   1.455   2.380   0.355  0.1140 -0.0771 -3.1290
 1258SOL     OW 4173   6.710   5.256   4.198 -0.3773  0.5003 -0.2882
 1258SOL    HW1 4174   6.726   5.268   4.292 -2.2253  1.0565 -0.0057
 1258SOL    HW2 4175   6.760   5.327   4.157  0.9646 -0.1299  0.1979
 1259SOL     OW 4176   3.810   1.328   4.260 -0.0142 -0.0130  0.6969
 1259SOL    HW1 4177   3.757   1.251   4.239 -0.0689  0.2946 -0.3071
 1259SOL    HW2 4178   3.891   1.291   4.296  0.5573 -0.6139 -1.1267
 1260SOL     OW 4179   1.193   2.022   1.866  0.3898  0.2106 -0.6985
 1260SOL    HW1 4180   1.125   1.955   1.868 -0.5212  1.1088  0.6862
 1260SOL    HW2 4181   1.275   1.973   1.861 -0.2526 -1.0252  0.1623
 1261SOL     OW 4182   0.399   3.740   6.512  0.1360 -0.1824  0.3821
 1261SOL    HW1 4183   0.383   3.775   6.600  0.1815 -0.2043  0.3992
 1261SOL    HW2 4184   0.323   3.768   6.461  1.6999  2.8912 -0.4968
 1262SOL     OW 4185   5.039   3.996   3.270  0.4456  0.2790  0.0675
 1262SOL    HW1 4186   5.001   3.946   3.197  0.5832  0.1567  0.0788
 1262SOL    HW2 4187   5.129   4.014   3.243 -0.1982  2.3803 -0.8760
 1263SOL     OW 4188   3.084   4.470   5.652 -0.4686  0.0238  0.0563
 1263SOL    HW1 4189   3.074   4.377   5.670  0.0296 -0.3685 -1.5323
 1263SOL    HW2 4190   2.995   4.505   5.653 -0.8279 -0.8249 -1.0223
 1264SOL     OW 4191   4.276   3.346   6.036  0.1827 -0.1587 -0.3852
 1264SOL    HW1 4192   4.328   3.427   6.027 -0.1248  0.3186  1.5997
 1264SOL    HW2 4193   4.185   3.376   6.032  0.0553 -0.2359  1.1760
 1265SOL     OW 4194   0.576   2.614   6.769  0.1275  0.1132 -0.1495
 1265SOL    HW1 4195   0.633   2.583   6.699  1.5789  0.3035  0.9090
 1265SOL    HW2 4196   0.499   2.558   6.763 -0.4125  0.9734 -2.7163
 1266SOL     OW 4197   6.367   2.447   4.225 -0.5506 -0.5505 -0.1162
 1266SOL    HW1 4198   6.358   2.435   4.319 -1.5672  0.5962 -0.0451
 1266SOL    HW2 4199   6.443   2.393   4.201 -0.7831 -1.5115  1.2031
 1267SOL     OW 4200   5.779   6.637   4.931  0.1196 -0.3482 -0.7583
 1267SOL    HW1 4201   5.737   6.723   4.921  0.9052  0.1410 -0.0034
 1267SOL    HW2 4202   5.871   6.657   4.948  0.3400 -1.3485 -0.7237
 1268SOL     OW 4203   0.938   5.820   5.382 -0.3530  0.0522  0.0362
 1268SOL    HW1 4204   0.948   5.725   5.375 -0.3755 -0.1255  1.9741
 1268SOL    HW2 4205   1.016   5.850   5.428  0.1259  1.1429 -1.4023
 1269SOL     OW 4206   0.981   0.856   5.704  0.2044  0.2019 -0.4180
 1269SOL    HW1 4207   1.073   0.835   5.690 -0.0067 -1.7484  0.6407
 1269SOL    HW2 4208   0.957   0.804   5.781 -1.7394  0.7882 -0.5805
 1270SOL     OW 4209   6.324   0.893   2.149 -0.4495 -0.3423 -0.0870
 1270SOL    HW1 4210   6.417   0.868   2.144 -0.0290  0.8590  1.1483
 1270SOL    HW2 4211   6.310   0.914   2.241 -1.7252  0.3601 -0.4257
 1271SOL     OW 4212   3.398   0.812   4.834  0.1676  0.0316 -0.4746
 1271SOL    HW1 4213   3.484   0.806   4.793  0.9364 -0.8314  1.1615
 1271SOL    HW2 4214   3.358   0.727   4.817  0.7208 -0.5471  0.9696
 1272SOL     OW 4215   4.220   3.101   4.840 -0.6803  0.0043  0.0875
 1272SOL    HW1 4216   4.237   3.026   4.783  0.4882  0.0230  0.3930
 1272SOL    HW2 4217   4.132   3.084   4.875 -0.5079 -1.1525  0.0195
 1273SOL     OW 4218   4.269   5.909   2.449  0.2157  0.0032 -0.0340
 1273SOL    HW1 4219   4.203   5.916   2.381 -0.3383  0.2291  0.5240
 1273SOL    HW2 4220   4.325   5.837   2.420 -1.4716 -1.5939  0.4916
 1274SOL     OW 4221   0.544   4.695   5.987  0.4866  0.0063  0.0792
 1274SOL    HW1 4222   0.500   4.751   6.051  1.2141 -0.2978  0.8651
 1274SOL    HW2 4223   0.480   4.628   5.965  0.3134 -0.0291  0.6853
 1275SOL     OW 4224   4.047   1.416   5.075  0.0158  0.5679  0.2365
 1275SOL    HW1 4225   4.086   1.329   5.080  1.3224  1.0251 -1.3059
 1275SOL    HW2 4226   4.117   1.476   5.101  0.1250  1.3384 -1.6655
 1276SOL     OW 4227   5.184   0.444   1.764  0.8143  0.1256  0.7274
 1276SOL    HW1 4228   5.089   0.435   1.767  0.6169  1.8099  0.4780
 1276SOL    HW2 4229   5.202   0.519   1.820  1.8615  0.7052 -0.3497
 1277SOL     OW 4230   6.494   5.956   0.889  0.2226  0.4576 -0.1856
 1277SOL    HW1 4231   6.565   5.900   0.920 -0.2660 -1.0824 -1.6485
 1277SOL    HW2 4232   6.505   6.039   0.936  0.8907 -0.8955  2.2009
 1278SOL     OW 4233   3.806   5.307   2.878  0.4138 -0.4349  0.1783
 1278SOL    HW1 4234   3.824   5.221   2.916 -0.9987 -0.2123  1.4457
 1278SOL    HW2 4235   3.724   5.296   2.830 -0.0167  0.2892  0.7293
 1279SOL     OW 4236   5.461   2.771   3.669 -0.4921 -0.3300 -0.7802
 1279SOL    HW1 4237   5.528   2.763   3.737  0.4802  2.3174 -1.3273
 1279SOL    HW2 4238   5.380   2.787   3.717 -0.3398 -1.2199 -0.1955
 1280SOL     OW 4239   4.962   3.664   5.700  0.4837  0.0437  0.2700
 1280SOL    HW1 4240   4.921   3.616   5.628  0.3861 -0.9996  0.9884
 1280SOL    HW2 4241   4.957   3.756   5.675  0.9803 -0.3409 -1.3182
 1281SOL     OW 4242   5.050   6.150   0.020  0.3966 -0.0717 -0.7215
 1281SOL    HW1 4243   5.075   6.165   0.111 -2.4574 -1.9722  0.5045
 1281SOL    HW2 4244   5.103   6.074  -0.007 -0.0059 -0.5988 -0.0416
 1282SOL     OW 4245   3.635   2.699   5.279 -0.3765 -0.3461  0.3913
 1282SOL    HW1 4246   3.564   2.647   5.316  0.0244 -2.2666 -1.3431
 1282SOL    HW2 4247   3.597   2.739   5.201  0.0096 -0.0861  0.3358
 1283SOL     OW 4248   1.338   6.060   1.610  0.0001  0.0413 -0.1687
 1283SOL    HW1 4249   1.361   6.134   1.554 -1.0820  0.7266  0.2506
 1283SOL    HW2 4250   1.410   5.998   1.600 -0.3089 -0.0193 -2.5675
 1284SOL     OW 4251   3.702   1.460   0.716  0.3696  0.7679 -0.3461
 1284SOL    HW1 4252   3.637   1.443   0.647 -0.0716 -0.6279  0.3565
 1284SOL    HW2 4253   3.669   1.537   0.762 -1.6569 -0.7254  0.9037
 1285SOL     OW 4254   6.242   0.950   4.337  0.9290 -0.0403  0.2624
 1285SOL    HW1 4255   6.165   0.995   4.302 -0.3579 -1.5395  1.0402
 1285SOL    HW2 4256   6.258   0.992   4.422 -1.1275 -1.8264  1.6413
 1286SOL     OW 4257   3.890   2.163   1.891  0.3454 -0.2960  0.0929
 1286SOL    HW1 4258   3.850   2.245   1.861  0.1258 -0.7927 -1.0282
 1286SOL    HW2 4259   3.819   2.115   1.933  0.2417 -0.3087 -0.0943
 1287SOL     OW 4260   6.598   0.126   4.512 -0.3048 -0.9858 -0.0598
 1287SOL    HW1 4261   6.531   0.149   4.448 -0.6461  1.0474  0.9514
 1287SOL    HW2 4262   6.680   0.129   4.463 -0.5807  0.3419 -0.4725
 1288SOL     OW 4263   4.921   6.200   5.193  0.1571 -0.1819  0.0148
 1288SOL    HW1 4264   4.929   6.241   5.107  1.2662  1.1587  0.6990
 1288SOL    HW2 4265   4.906   6.108   5.175  1.7118 -0.1696 -1.6525
 1289SOL     OW 4266   2.410   4.222   2.180 -0.3707  0.0280 -0.5797
 1289SOL    HW1 4267   2.371   4.214   2.093 -1.4045  0.2274 -0.1437
 1289SOL    HW2 4268   2.430   4.315   2.189 -2.0742  0.3555  0.1396
 1290SOL     OW 4269   6.480   3.536   6.564 -0.2387 -0.4710  0.0062
 1290SOL    HW1 4270   6.525   3.584   6.495  1.0082 -2.2365 -0.4714
 1290SOL    HW2 4271   6.538   3.542   6.639 -1.7469  1.7344  1.1190
 1291SOL     OW 4272   0.277   6.292   5.879 -0.1491  0.0983 -0.3311
 1291SOL    HW1 4273   0.224   6.367   5.908  0.7434  0.1713  1.2452
 1291SOL    HW2 4274   0.352   6.332   5.835 -1.1114  0.0099 -2.1180
 1292SOL     OW 4275   0.493   4.080   0.438  0.4662  0.0117 -0.4242
 1292SOL    HW1 4276   0.573   4.122   0.410  0.4987  0.6362  0.5654
 1292SOL    HW2 4277   0.489   4.094   0.532 -0.4282 -0.6582 -0.3361
 1293SOL     OW 4278   3.965   5.160   5.132 -0.4343  0.3010 -0.1276
 1293SOL    HW1 4279   3.907   5.092   5.097  0.2633  0.9163 -2.7092
 1293SOL    HW2 4280   3.946   5.161   5.226 -2.6051 -1.3905 -0.4458
 1294SOL     OW 4281   5.090   1.334   1.344 -0.4302 -0.1995  0.0189
 1294SOL    HW1 4282   5.148   1.258   1.342 -0.9785 -0.6363 -2.5248
 1294SOL    HW2 4283   5.002   1.296   1.342 -0.7190  0.3902 -2.9782
 1295SOL     OW 4284   1.172   4.661   1.672 -0.0394 -0.1321 -0.5720
 1295SOL    HW1 4285   1.162   4.619   1.757 -0.8276 -1.5487 -1.3315
 1295SOL    HW2 4286   1.104   4.729   1.670  0.9328  0.9276  0.4696
 1296SOL     OW 4287   5.123   1.687   3.073  0.2489 -0.4503  0.3431
 1296SOL    HW1 4288   5.114   1.624   3.001  0.0351 -0.6173  0.5158
 1296SOL    HW2 4289   5.189   1.749   3.042 -0.5859  0.0724 -0.4222
 1297SOL     OW 4290   2.920   5.730   1.083  0.7584  0.7529 -0.4090
 1297SOL    HW1 4291   2.928   5.644   1.043 -0.0173  0.6133 -0.2913
 1297SOL    HW2 4292   2.931   5.714   1.177  2.2580  1.0324 -0.5164
 1298SOL     OW 4293   1.199   4.013   4.192 -0.2917 -0.0594  0.0869
 1298SOL    HW1 4294   1.262   3.953   4.152 -0.4237  2.7287 -5.2232
 1298SOL    HW2 4295   1.114   3.972   4.178 -0.2317  0.3410 -1.7603
 1299SOL     OW 4296   4.990   6.637   0.845 -0.2909 -0.2325 -0.1640
 1299SOL    HW1 4297   4.958   6.720   0.880  0.1953 -0.9045  2.0776
 1299SOL    HW2 4298   4.951   6.630   0.758 -0.2431  2.3780 -0.4804
 1300SOL     OW 4299   3.065   4.974   3.520  0.1527  0.5991  0.1991
 1300SOL    HW1 4300   3.021   5.014   3.594  0.6003 -1.0786  1.4152
 1300SOL    HW2 4301   3.120   4.906   3.558  0.0985 -0.5851 -1.7035
 1301SOL     OW 4302   1.135   2.025   5.129  0.0389 -0.6500  0.6878
 1301SOL    HW1 4303   1.213   2.074   5.155 -0.0296 -1.4040  2.4249
 1301SOL    HW2 4304   1.092   2.003   5.212 -1.5749 -0.9826 -0.1982
 1302SOL     OW 4305   1.780   5.656   6.475  0.1321  0.1561 -0.1327
 1302SOL    HW1 4306   1.777   5.675   6.381 -1.9322  1.4469  0.1011
 1302SOL    HW2 4307   1.733   5.730   6.515  0.7260 -0.4985  1.8898
 1303SOL     OW 4308   3.953   2.090   0.158 -0.0830  0.0788  0.3579
 1303SOL    HW1 4309   3.915   2.014   0.114  0.6175  0.8853 -1.7934
 1303SOL    HW2 4310   4.044   2.065   0.176  0.5853  0.8245 -1.6755
 1304SOL     OW 4311   4.537   2.159   5.490  0.0674 -0.0333  1.1412
 1304SOL    HW1 4312   4.543   2.187   5.399  0.2652 -1.4916  0.6911
 1304SOL    HW2 4313   4.622   2.182   5.527  0.4166 -0.4974  0.6391
 1305SOL     OW 4314   3.988   4.650   0.492 -0.0669 -0.1145 -0.0535
 1305SOL    HW1 4315   3.990   4.692   0.578 -0.8933 -1.0588  0.4447
 1305SOL    HW2 4316   4.028   4.715   0.433 -3.3279  2.4034  0.2369
 1306SOL     OW 4317   0.650   4.053   2.063 -0.3717  0.4392 -0.2294
 1306SOL    HW1 4318   0.637   3.970   2.108  1.8419 -0.1398 -0.5482
 1306SOL    HW2 4319   0.726   4.038   2.007  0.6205  2.9314  0.3339
 1307SOL     OW 4320   4.625   2.056   0.922  0.0710  0.3151  0.0202
 1307SOL    HW1 4321   4.706   2.089   0.960 -0.0699  0.6484  0.0333
 1307SOL    HW2 4322   4.625   1.962   0.942  1.3743 -0.0966 -1.6108
 1308SOL     OW 4323   1.328   5.408   2.799  0.1925 -0.2054  0.5084
 1308SOL    HW1 4324   1.374   5.373   2.876  2.4518 -0.1606 -0.7380
 1308SOL    HW2 4325   1.296   5.494   2.828  0.6523 -0.3541  1.5226
 1309SOL     OW 4326   4.604   4.718   3.071 -0.4142 -0.4976  0.3480
 1309SOL    HW1 4327   4.681   4.663   3.084 -0.2563  0.0451  1.8840
 1309SOL    HW2 4328   4.627   4.773   2.996  0.5466 -0.5828  0.5651
 1310SOL     OW 4329   5.049   6.671   4.562 -0.5059  0.2729 -0.8593
 1310SOL    HW1 4330   4.991   6.741   4.594  0.4546  0.3406  0.8220
 1310SOL    HW2 4331   5.122   6.717   4.522  1.1292  0.4048  1.9896
 1311SOL     OW 4332   0.199   3.912   0.783 -0.3718  0.9241  0.8325
 1311SOL    HW1 4333   0.219   3.822   0.809 -2.7440  0.8130  2.7106
 1311SOL    HW2 4334   0.112   3.906   0.742  0.6821  2.0204 -1.7922
 1312SOL     OW 4335   1.996   2.051   1.752  0.0343 -0.2631  0.2158
 1312SOL    HW1 4336   1.915   2.101   1.748 -0.2254 -0.7480 -0.7964
 1312SOL    HW2 4337   2.050   2.086   1.682  0.1862 -0.8151  0.0479
 1313SOL     OW 4338   4.402   1.798   1.484  0.3202 -0.2685  0.6773
 1313SOL    HW1 4339   4.400   1.892   1.464  0.3002 -0.5209 -0.5396
 1313SOL    HW2 4340   4.331   1.785   1.547  0.1578  0.4790  0.6528
 1314SOL     OW 4341   5.073   3.878   2.311  0.3217 -0.0742 -0.2048
 1314SOL    HW1 4342   5.103   3.940   2.378  3.2741  0.2533 -1.6392
 1314SOL    HW2 4343   5.100   3.919   2.228  0.0300 -2.0955 -1.3511
 1315SOL     OW 4344   1.293   5.223   6.269  0.3337  0.1900 -0.0280
 1315SOL    HW1 4345   1.280   5.138   6.226  1.2000  0.1745 -0.2786
 1315SOL    HW2 4346   1.274   5.288   6.201  4.0714  0.1744 -1.2985
 1316SOL     OW 4347   4.535   2.463   5.539 -0.4138 -0.1666  0.5007
 1316SOL    HW1 4348   4.459   2.412   5.513  1.0592 -1.6766 -1.1338
 1316SOL    HW2 4349   4.576   2.411   5.608 -0.4803  0.2921  0.8879
 1317SOL     OW 4350   3.306   2.388   3.866  0.6470 -0.4797  0.1297
 1317SOL    HW1 4351   3.342   2.476   3.881  1.6247 -0.7111 -0.7495
 1317SOL    HW2 4352   3.262   2.367   3.948  0.7377  0.6727  0.5011
 1318SOL     OW 4353   1.804   3.625   3.277 -0.0101 -0.2889 -0.1305
 1318SOL    HW1 4354   1.822   3.553   3.216 -0.1439  1.1738 -1.9859
 1318SOL    HW2 4355   1.843   3.702   3.236  0.8040  0.6185  2.1633
 1319SOL     OW 4356   5.697   1.327   1.827 -1.0764 -0.2881  0.1337
 1319SOL    HW1 4357   5.666   1.401   1.881 -0.3985 -0.1183  0.2957
 1319SOL    HW2 4358   5.652   1.251   1.864 -1.1102 -0.0815  0.5281
 1320SOL     OW 4359   5.324   1.414   2.271 -0.1479 -0.2424  0.6463
 1320SOL    HW1 4360   5.304   1.329   2.233 -2.0612  0.6497 -0.4710
 1320SOL    HW2 4361   5.306   1.476   2.201  0.7746  1.1392  1.5853
 1321SOL     OW 4362   6.258   2.941   2.090 -0.2773 -0.4218  0.3522
 1321SOL    HW1 4363   6.337   2.909   2.046 -1.7229 -2.8873 -0.6116
 1321SOL    HW2 4364   6.278   2.935   2.183  1.2785  0.7224  0.1292
 1322SOL     OW 4365   4.155   0.382   1.738  0.1073 -0.0483  0.2012
 1322SOL    HW1 4366   4.158   0.288   1.756 -1.9655 -0.0748  0.5719
 1322SOL    HW2 4367   4.106   0.389   1.656 -1.9441  0.7991  1.4320
 1323SOL     OW 4368   5.799   1.790   0.256  0.5578  0.1419  0.1072
 1323SOL    HW1 4369   5.894   1.792   0.272  0.7631 -0.1579 -0.9733
 1323SOL    HW2 4370   5.768   1.716   0.308  1.1230 -0.5068 -0.4387
 1324SOL     OW 4371   5.004   2.468   5.979 -0.3676  0.4396 -0.2807
 1324SOL    HW1 4372   5.021   2.525   5.904  0.3868  0.0407 -0.4289
 1324SOL    HW2 4373   5.010   2.380   5.943 -0.5758  0.2569  0.1356
 1325SOL     OW 4374   4.396   3.001   0.669 -0.1903 -0.5731 -0.3075
 1325SOL    HW1 4375   4.368   3.079   0.620 -0.6444  0.8808  2.1078
 1325SOL    HW2 4376   4.315   2.954   0.689 -0.5543  0.9336  2.2737
 1326SOL     OW 4377   0.009   5.621   0.226  0.3055 -0.1611  0.1910
 1326SOL    HW1 4378   0.045   5.687   0.286  0.5838  0.8046 -1.0103
 1326SOL    HW2 4379  -0.057   5.575   0.278  0.9627  0.2374  1.4185
 1327SOL     OW 4380   3.726   4.954   2.379 -0.2496 -0.0860 -0.1570
 1327SOL    HW1 4381   3.643   4.935   2.334 -1.8239  0.1545  2.4627
 1327SOL    HW2 4382   3.779   4.998   2.312 -2.1623 -0.3453 -1.9705
 1328SOL     OW 4383   3.248   2.816   1.316 -0.4563  0.0787 -0.0537
 1328SOL    HW1 4384   3.156   2.835   1.296 -1.7211 -2.4191  2.5707
 1328SOL    HW2 4385   3.286   2.791   1.232 -2.1901  1.0841 -1.2047
 1329SOL     OW 4386   3.935   2.374   4.578  0.1868  0.2044  0.3035
 1329SOL    HW1 4387   3.856   2.347   4.530  0.7878  2.1391 -1.9684
 1329SOL    HW2 4388   4.005   2.369   4.513  1.8021 -0.4875  1.9986
 1330SOL     OW 4389   3.371   4.760   2.734  0.2787  0.1210  0.8131
 1330SOL    HW1 4390   3.336   4.843   2.766  0.2493  1.4503 -2.2815
 1330SOL    HW2 4391   3.295   4.717   2.694  0.5421 -0.8789  1.3559
 1331SOL     OW 4392   0.557   0.939   4.652  0.0043 -0.9594  0.2766
 1331SOL    HW1 4393   0.646   0.904   4.641  0.6151  0.0488  1.5593
 1331SOL    HW2 4394   0.504   0.891   4.590  1.6076 -1.0404 -1.1236
 1332SOL     OW 4395   0.226   5.270   3.685 -0.0047 -0.0845 -0.2021
 1332SOL    HW1 4396   0.284   5.206   3.643  0.7547 -0.1701  0.9328
 1332SOL    HW2 4397   0.172   5.304   3.613 -0.6205 -2.1727 -0.7971
 1333SOL     OW 4398   6.323   2.742   3.531 -0.2666 -0.1054 -0.5353
 1333SOL    HW1 4399   6.308   2.835   3.551 -0.3469  0.1271 -1.6000
 1333SOL    HW2 4400   6.303   2.697   3.613 -0.2269  0.8129  0.0049
 1334SOL     OW 4401   6.536   2.189   4.801 -0.3252 -0.3825  0.1756
 1334SOL    HW1 4402   6.597   2.203   4.873 -0.3156  0.0067  0.0930
 1334SOL    HW2 4403   6.585   2.212   4.722 -0.1686 -1.3103 -0.0047
 1335SOL     OW 4404   1.029   4.037   6.108 -0.2804  0.3997  0.9645
 1335SOL    HW1 4405   1.076   4.114   6.075 -0.7088 -0.3485 -1.6846
 1335SOL    HW2 4406   1.096   3.983   6.149 -0.1480  2.6149  4.0271
 1336SOL     OW 4407   5.904   3.573   0.928 -0.2023  0.3683 -0.9987
 1336SOL    HW1 4408   5.923   3.481   0.945 -0.6016  0.3042 -0.8900
 1336SOL    HW2 4409   5.986   3.609   0.894  0.4486  0.3598  0.5102
 1337SOL     OW 4410   0.306   5.448   6.624 -0.1542  0.3705 -0.0480
 1337SOL    HW1 4411   0.399   5.452   6.648 -0.3268 -0.4091  0.7905
 1337SOL    HW2 4412   0.259   5.451   6.707 -0.8129 -1.1024 -0.3387
 1338SOL     OW 4413   6.532   3.525   5.210  0.0482  0.1136 -0.4536
 1338SOL    HW1 4414   6.515   3.614   5.177  1.0444  0.2421 -0.6584
 1338SOL    HW2 4415   6.627   3.519   5.215 -0.0313 -0.4796  0.8702
 1339SOL     OW 4416   2.713   5.422   3.099  0.8200 -0.2924  0.1473
 1339SOL    HW1 4417   2.804   5.413   3.072  0.4921 -0.4760 -0.9559
 1339SOL    HW2 4418   2.707   5.510   3.136  1.5530 -0.4675  0.7037
 1340SOL     OW 4419   2.847   6.383   6.327  0.1889 -0.2974  0.4631
 1340SOL    HW1 4420   2.868   6.338   6.408 -0.7522 -0.5568  0.5737
 1340SOL    HW2 4421   2.874   6.473   6.341  1.5625 -0.6897  0.4508
 1341SOL     OW 4422   1.431   4.193   4.263 -0.1959  0.4378 -0.0568
 1341SOL    HW1 4423   1.346   4.150   4.265  0.2454 -0.4603  2.0344
 1341SOL    HW2 4424   1.483   4.147   4.329  0.9411  2.9416  0.9207
 1342SOL     OW 4425   5.389   1.247   6.189 -0.1666  0.3802 -0.2730
 1342SOL    HW1 4426   5.371   1.157   6.163 -1.3846  0.6563 -0.5035
 1342SOL    HW2 4427   5.455   1.241   6.257 -0.8852 -0.7531  0.3550
 1343SOL     OW 4428   4.158   0.601   6.614 -0.4510  0.2393  0.3454
 1343SOL    HW1 4429   4.115   0.531   6.664  0.2405 -0.0746  0.5056
 1343SOL    HW2 4430   4.235   0.560   6.576 -0.7244  0.5995 -0.6151
 1344SOL     OW 4431   5.240   3.148   3.121  0.3591  0.7901  0.3097
 1344SOL    HW1 4432   5.191   3.170   3.200 -0.0886  0.1910  0.2066
 1344SOL    HW2 4433   5.332   3.158   3.146  0.4279 -2.5894  1.9729
 1345SOL     OW 4434   1.347   1.979   2.929  0.5991 -0.2608 -0.3602
 1345SOL    HW1 4435   1.320   1.892   2.899  1.1022 -1.8445  3.2857
 1345SOL    HW2 4436   1.438   1.987   2.901  0.3137 -0.4905 -1.4227
 1346SOL     OW 4437   2.291   3.690   3.040  0.4930  0.5557 -0.4016
 1346SOL    HW1 4438   2.259   3.771   2.999  1.3768  1.9383  1.5229
 1346SOL    HW2 4439   2.380   3.680   3.006 -0.0374 -0.3780 -1.6267
 1347SOL     OW 4440   0.145   5.595   1.789 -0.0544 -0.1412  0.0116
 1347SOL    HW1 4441   0.202   5.525   1.757 -0.3209 -0.3782  0.0468
 1347SOL    HW2 4442   0.098   5.625   1.712  0.1492  0.0799 -0.0241
 1348SOL     OW 4443   0.962   0.172   1.255 -0.0097  0.2682  0.2053
 1348SOL    HW1 4444   0.902   0.238   1.289 -1.1858 -0.4715 -0.3736
 1348SOL    HW2 4445   1.042   0.221   1.233 -0.3266  1.2351  1.1451
 1349SOL     OW 4446   5.351   6.061   4.778  0.1540 -0.3205 -0.1114
 1349SOL    HW1 4447   5.397   5.991   4.731  0.7235  0.2382 -0.3828
 1349SOL    HW2 4448   5.309   6.113   4.710  1.1524  0.6154 -0.0361
 1350SOL     OW 4449   0.075   3.495   1.020  0.0958 -0.0209 -0.0353
 1350SOL    HW1 4450   0.047   3.426   1.081 -0.6190  1.5578  1.5331
 1350SOL    HW2 4451   0.029   3.475   0.939 -1.1394 -0.7000  0.7878
 1351SOL     OW 4452   4.513   6.462   2.243 -0.1590 -0.1902 -0.0251
 1351SOL    HW1 4453   4.547   6.543   2.281  1.1260  0.1847 -1.8311
 1351SOL    HW2 4454   4.520   6.475   2.148  0.0238 -2.3716 -0.3663
 1352SOL     OW 4455   0.097   0.203   5.895  1.0491  0.2821  0.0502
 1352SOL    HW1 4456   0.009   0.228   5.868  1.5091  0.1975 -1.6532
 1352SOL    HW2 4457   0.141   0.286   5.914  0.8663  0.3838  0.0320
 1353SOL     OW 4458   1.067   6.210   0.738  0.0978  0.2981 -0.3222
 1353SOL    HW1 4459   1.081   6.173   0.651  0.8417 -2.7009  0.9427
 1353SOL    HW2 4460   1.155   6.234   0.769  0.0445 -0.1020  0.1602
 1354SOL     OW 4461   2.898   6.587   0.345  0.2210  0.3183 -0.4010
 1354SOL    HW1 4462   2.893   6.492   0.346 -0.6350  0.3541 -0.7246
 1354SOL    HW2 4463   2.985   6.607   0.380 -1.0119 -0.4796  3.6569
 1355SOL     OW 4464   1.150   5.445   3.095 -0.3649  0.1497 -0.2981
 1355SOL    HW1 4465   1.175   5.500   3.021  0.7286  0.0049 -0.0484
 1355SOL    HW2 4466   1.148   5.505   3.170 -0.1013  0.0340 -0.1974
 1356SOL     OW 4467   1.856   1.605   3.029 -0.0491  0.2230 -0.0449
 1356SOL    HW1 4468   1.855   1.562   3.115 -0.7384  1.5155  0.6275
 1356SOL    HW2 4469   1.778   1.662   3.030  1.0508  1.8076 -0.7183
 1357SOL     OW 4470   6.203   3.815   2.816 -0.0389  0.1013 -0.2856
 1357SOL    HW1 4471   6.285   3.811   2.769 -0.0717  1.5977 -0.5131
 1357SOL    HW2 4472   6.195   3.729   2.857  1.2090 -0.3565 -0.9472
 1358SOL     OW 4473   2.492   1.357   3.846 -0.1445  0.1566  0.1649
 1358SOL    HW1 4474   2.571   1.389   3.803  0.9456 -1.9341  0.4609
 1358SOL    HW2 4475   2.456   1.433   3.891  2.2364  0.9685  0.8223
 1359SOL     OW 4476   3.631   1.641   1.536  0.1254 -0.2832 -1.0437
 1359SOL    HW1 4477   3.696   1.595   1.482  1.3392  0.4455 -0.2510
 1359SOL    HW2 4478   3.564   1.575   1.553  0.7204 -1.1044 -1.7672
 1360SOL     OW 4479   6.275   3.728   6.264 -0.6577  0.0540  0.3384
 1360SOL    HW1 4480   6.277   3.766   6.352  0.5344 -0.6225  0.6223
 1360SOL    HW2 4481   6.186   3.745   6.233 -0.7581  1.2880  1.2287
 1361SOL     OW 4482   4.076   4.034   0.729 -0.2254 -0.0456 -0.2927
 1361SOL    HW1 4483   4.061   3.960   0.670  1.2004  0.3020 -1.1211
 1361SOL    HW2 4484   4.053   4.111   0.677 -0.4867  0.1759  0.1448
 1362SOL     OW 4485   5.500   4.648   0.424  0.1798 -0.4123 -0.0460
 1362SOL    HW1 4486   5.556   4.587   0.376  0.0334 -1.9227  1.5772
 1362SOL    HW2 4487   5.448   4.692   0.357  0.7844 -1.6005 -1.3315
 1363SOL     OW 4488   0.885   0.510   0.198  0.0103  0.5401  0.3346
 1363SOL    HW1 4489   0.978   0.486   0.189  0.4274  1.7832  1.0828
 1363SOL    HW2 4490   0.873   0.582   0.136 -0.4715  0.3584  0.2157
 1364SOL     OW 4491   6.690   5.790   6.512 -0.3304 -0.1072  0.0076
 1364SOL    HW1 4492   6.783   5.791   6.536 -0.7279 -0.0466  1.6689
 1364SOL    HW2 4493   6.647   5.838   6.582 -1.7862 -1.2852 -0.0407
 1365SOL     OW 4494   6.517   6.302   1.850  0.1781 -0.1900 -0.2145
 1365SOL    HW1 4495   6.598   6.252   1.839  0.9113  0.8747  0.1654
 1365SOL    HW2 4496   6.547   6.390   1.873 -1.0871  0.3163 -0.4534
 1366SOL     OW 4497   0.141   4.126   4.067 -0.2520  0.0102  0.3092
 1366SOL    HW1 4498   0.160   4.106   4.158  2.9892 -1.3101 -0.5044
 1366SOL    HW2 4499   0.224   4.158   4.032 -1.1648 -0.3260 -2.4018
 1367SOL     OW 4500   6.182   2.983   3.243 -0.0566  0.2061 -0.0600
 1367SOL    HW1 4501   6.101   2.935   3.263  0.2336 -0.0897  0.4268
 1367SOL    HW2 4502   6.193   3.042   3.317  0.7350 -0.5020  0.3978
 1368SOL     OW 4503   1.191   2.209   0.864 -0.4922 -0.2610  0.7001
 1368SOL    HW1 4504   1.256   2.235   0.930 -0.4497  1.3479  0.0580
 1368SOL    HW2 4505   1.112   2.192   0.914 -0.1351 -0.2334  1.2859
 1369SOL     OW 4506   4.551   4.860   0.149  0.6028  0.3999  0.2115
 1369SOL    HW1 4507   4.546   4.920   0.075  0.0599 -1.0330 -0.9660
 1369SOL    HW2 4508   4.640   4.826   0.147  1.0548  1.4481  1.1560
 1370SOL     OW 4509   6.394   5.962   1.908 -0.1571 -0.3416 -0.0619
 1370SOL    HW1 4510   6.439   5.915   1.978 -0.6228  1.6421  1.6802
 1370SOL    HW2 4511   6.326   5.902   1.879  0.6763 -1.5981  0.5063
 1371SOL     OW 4512   0.248   3.544   5.242  0.0579 -0.0594 -0.3333
 1371SOL    HW1 4513   0.187   3.606   5.201 -0.2371 -0.3593 -0.3595
 1371SOL    HW2 4514   0.310   3.599   5.289 -0.4675  0.2477  0.0188
 1372SOL     OW 4515   6.449   4.447   4.214  0.0140  0.0990  0.1487
 1372SOL    HW1 4516   6.425   4.536   4.238  0.8491  0.2182  0.5583
 1372SOL    HW2 4517   6.389   4.425   4.143 -2.1057 -0.0480  1.8896
 1373SOL     OW 4518   4.238   1.044   2.400  0.2482  0.0702  0.4795
 1373SOL    HW1 4519   4.154   0.998   2.396  0.3068 -0.1498  1.4403
 1373SOL    HW2 4520   4.252   1.059   2.494  1.2078  0.2365  0.3164
 1374SOL     OW 4521   5.420   3.414   1.439  0.0678 -0.2912 -0.3022
 1374SOL    HW1 4522   5.486   3.474   1.405  0.1079 -0.6813 -0.9282
 1374SOL    HW2 4523   5.415   3.344   1.374 -2.2899  0.6691 -1.2750
 1375SOL     OW 4524   5.436   6.073   5.558 -0.1618 -0.2573 -0.4982
 1375SOL    HW1 4525   5.442   6.088   5.652 -2.5188 -0.3984 -0.2595
 1375SOL    HW2 4526   5.344   6.050   5.543  0.0739  0.0712 -2.8829
 1376SOL     OW 4527   4.957   0.922   2.384 -0.5380  0.4451  0.1810
 1376SOL    HW1 4528   4.904   0.878   2.450 -2.3312 -0.1663 -1.5587
 1376SOL    HW2 4529   4.953   1.015   2.409 -0.0662  0.1034  1.6378
 1377SOL     OW 4530   1.417   0.816   5.424  0.6911 -0.0405  0.2732
 1377SOL    HW1 4531   1.379   0.883   5.481  1.6970  1.6191 -0.9257
 1377SOL    HW2 4532   1.499   0.791   5.467  1.2517  0.9160 -0.2155
 1378SOL     OW 4533   5.091   5.699   2.390  0.2455 -0.2208  0.5271
 1378SOL    HW1 4534   5.164   5.638   2.402  0.3282 -0.5154 -1.1809
 1378SOL    HW2 4535   5.030   5.678   2.460  1.9832  0.3563  2.3185
 1379SOL     OW 4536   1.297   4.332   0.894  0.3540  0.1334  0.2495
 1379SOL    HW1 4537   1.206   4.350   0.918  0.4364  0.5778  0.2340
 1379SOL    HW2 4538   1.290   4.262   0.829  0.0707 -0.3350  0.7734
 1380SOL     OW 4539   1.236   6.412   5.258  0.3023 -0.3515 -0.1261
 1380SOL    HW1 4540   1.303   6.473   5.226 -0.7714 -0.1526 -2.1716
 1380SOL    HW2 4541   1.270   6.381   5.342  1.7229  1.6914  0.1331
 1381SOL     OW 4542   4.525   0.282   2.955  0.2484  0.6358  0.2743
 1381SOL    HW1 4543   4.509   0.188   2.961 -0.6983  0.7538 -0.2861
 1381SOL    HW2 4544   4.621   0.290   2.949  0.3537 -0.2628  0.6673
 1382SOL     OW 4545   2.285   3.121   0.898  0.2003  0.2538 -0.8494
 1382SOL    HW1 4546   2.285   3.179   0.974 -0.1911  1.5912 -1.8378
 1382SOL    HW2 4547   2.194   3.094   0.888 -0.3402  2.4679 -2.5581
 1383SOL     OW 4548   6.663   4.589   0.463  0.1298  0.3432  0.5174
 1383SOL    HW1 4549   6.709   4.610   0.544  2.2676 -0.8469 -0.3039
 1383SOL    HW2 4550   6.646   4.673   0.422 -0.8550  0.9561  2.0859
 1384SOL     OW 4551   1.237   4.805   0.936 -0.2521 -0.5024  0.0654
 1384SOL    HW1 4552   1.158   4.852   0.963  0.4889 -0.0849  1.6602
 1384SOL    HW2 4553   1.305   4.871   0.935  0.2366 -1.0046 -0.5639
 1385SOL     OW 4554   0.088   3.572   3.043  0.4313  0.3057  0.4909
 1385SOL    HW1 4555   0.126   3.644   3.092  0.6754 -0.5833  1.6535
 1385SOL    HW2 4556   0.149   3.499   3.054  0.2354 -0.0805 -0.7202
 1386SOL     OW 4557   0.637   3.653   3.300 -0.6148 -0.8764 -0.5668
 1386SOL    HW1 4558   0.596   3.570   3.277 -1.5970  0.0909 -2.5653
 1386SOL    HW2 4559   0.707   3.664   3.235 -0.7714  0.0491 -0.5926
 1387SOL     OW 4560   0.098   0.848   2.021  0.3695 -0.2138  0.4410
 1387SOL    HW1 4561   0.135   0.897   1.948 -0.4008  1.1428  0.9346
 1387SOL    HW2 4562   0.081   0.761   1.985  1.2485  0.0186 -0.6051
 1388SOL     OW 4563   0.256   1.304   5.742  0.4378 -0.2276  0.8111
 1388SOL    HW1 4564   0.315   1.363   5.790 -1.8854  0.0287  3.5951
 1388SOL    HW2 4565   0.214   1.252   5.809 -1.9754 -0.9301 -1.1052
 1389SOL     OW 4566   2.954   3.132   3.711  0.0146  0.0261  0.3120
 1389SOL    HW1 4567   2.947   3.147   3.616 -1.1714  0.3385  0.4336
 1389SOL    HW2 4568   3.038   3.171   3.735  1.5887 -2.3058 -1.0237
 1390SOL     OW 4569   6.158   0.059   2.783 -0.3268  0.3767  0.1522
 1390SOL    HW1 4570   6.221   0.025   2.719 -0.7332  0.8671 -0.5217
 1390SOL    HW2 4571   6.187   0.023   2.867 -0.2609 -0.9219 -0.4182
 1391SOL     OW 4572   4.842   5.265   1.507 -0.4156  0.3234 -0.7819
 1391SOL    HW1 4573   4.801   5.213   1.438 -1.1458  2.1710 -1.7913
 1391SOL    HW2 4574   4.865   5.348   1.465  1.2397  0.6459  0.6381
 1392SOL     OW 4575   2.015   3.578   4.715  0.0294 -0.0352  0.0771
 1392SOL    HW1 4576   1.933   3.627   4.713 -0.0318 -0.1476 -0.1265
 1392SOL    HW2 4577   2.060   3.611   4.793  0.0390  0.4276 -0.1177
 1393SOL     OW 4578   2.833   0.840   1.280 -0.3078  0.2269 -0.3177
 1393SOL    HW1 4579   2.856   0.928   1.248 -0.2922  1.9457  3.7599
 1393SOL    HW2 4580   2.905   0.784   1.250  0.7509  2.0549 -1.3486
 1394SOL     OW 4581   1.353   5.395   1.663  0.5391 -0.2376  0.1562
 1394SOL    HW1 4582   1.281   5.358   1.714 -0.4058  1.7558  0.3586
 1394SOL    HW2 4583   1.428   5.391   1.722  0.5695 -1.9904  0.0749
 1395SOL     OW 4584   1.407   5.072   3.619  0.1985 -0.2703 -0.3555
 1395SOL    HW1 4585   1.373   5.059   3.530  0.5749 -2.6042 -0.2238
 1395SOL    HW2 4586   1.408   4.984   3.657 -1.9242  0.8545  2.7194
 1396SOL     OW 4587   1.794   2.515   1.502  0.3876 -0.3503  0.1540
 1396SOL    HW1 4588   1.860   2.493   1.567  0.1762 -1.4622  0.0115
 1396SOL    HW2 4589   1.743   2.435   1.491 -0.8481  0.4218  0.1012
 1397SOL     OW 4590   2.973   2.750   3.401  0.1531 -0.1931  0.2166
 1397SOL    HW1 4591   2.988   2.714   3.314 -1.6045  0.1954 -0.2779
 1397SOL    HW2 4592   2.884   2.784   3.398  0.5664  1.1202  1.7326
 1398SOL     OW 4593   4.075   3.203   4.299 -0.6188 -0.1793 -0.0051
 1398SOL    HW1 4594   3.994   3.170   4.261  0.3106 -0.3734 -1.9421
 1398SOL    HW2 4595   4.085   3.291   4.263  0.3661 -0.4242 -0.3755
 1399SOL     OW 4596   4.814   3.107   5.394  0.5278 -0.2879 -0.3315
 1399SOL    HW1 4597   4.864   3.101   5.476 -0.7633  0.8770  0.5816
 1399SOL    HW2 4598   4.732   3.062   5.413  0.0249  0.4062 -0.8207
 1400SOL     OW 4599   1.565   4.258   5.465  0.0650  0.4428  0.1426
 1400SOL    HW1 4600   1.508   4.235   5.538 -1.0488  0.7018 -0.6118
 1400SOL    HW2 4601   1.642   4.202   5.476 -1.8057 -2.5975 -0.7040
 1401SOL     OW 4602   1.110   5.199   4.307  0.2987  0.0187  0.7907
 1401SOL    HW1 4603   1.129   5.271   4.247 -0.3563  0.1668  0.7602
 1401SOL    HW2 4604   1.196   5.172   4.340  0.5122  1.1316  1.1684
 1402SOL     OW 4605   0.616   0.609   4.704  0.4284  0.5683 -0.4212
 1402SOL    HW1 4606   0.521   0.617   4.696  0.3985  0.4712 -0.1483
 1402SOL    HW2 4607   0.633   0.516   4.691  0.5853  0.7325 -1.5101
 1403SOL     OW 4608   0.117   6.674   2.643 -0.1611  0.4797 -0.2762
 1403SOL    HW1 4609   0.157   6.603   2.694 -0.3490  0.1536 -0.5743
 1403SOL    HW2 4610   0.147   6.658   2.553 -0.2123  0.7745 -0.3449
 1404SOL     OW 4611   3.284   2.708   2.743 -0.5827  0.2888 -0.3806
 1404SOL    HW1 4612   3.367   2.693   2.788 -0.0534  1.9687 -0.7299
 1404SOL    HW2 4613   3.220   2.661   2.795  0.6901 -1.8216 -0.6044
 1405SOL     OW 4614   1.537   4.680   5.707  0.0427  0.6081  0.0391
 1405SOL    HW1 4615   1.528   4.667   5.612 -1.3842 -1.9538  0.4320
 1405SOL    HW2 4616   1.453   4.650   5.742  0.4513  1.7632  2.1207
 1406SOL     OW 4617   2.304   5.137   6.490 -0.2375 -0.3468 -0.0816
 1406SOL    HW1 4618   2.331   5.053   6.454 -0.7681 -1.4198  1.8807
 1406SOL    HW2 4619   2.386   5.179   6.516  0.1033  0.1999 -1.9075
 1407SOL     OW 4620   2.986   5.854   2.228  0.6705  0.0534 -0.2092
 1407SOL    HW1 4621   2.980   5.925   2.292  1.2555 -0.3091  0.2643
 1407SOL    HW2 4622   2.954   5.777   2.274  2.3601 -0.4967  0.1341
 1408SOL     OW 4623   6.257   1.860   6.356  0.0945 -0.2224  0.2758
 1408SOL    HW1 4624   6.245   1.910   6.437 -1.5309 -0.7702  0.4238
 1408SOL    HW2 4625   6.267   1.769   6.386 -0.0276 -0.3652 -0.1172
 1409SOL     OW 4626   0.077   4.846   0.060 -0.5396 -0.3406 -1.0572
 1409SOL    HW1 4627   0.153   4.796   0.086 -1.3842  0.4536  4.0904
 1409SOL    HW2 4628   0.112   4.932   0.036  0.3523  0.1881  1.7465
 1410SOL     OW 4629   2.047   1.151   3.770  0.3460  0.1096  0.0231
 1410SOL    HW1 4630   1.965   1.113   3.739  0.0197  0.4022  0.5202
 1410SOL    HW2 4631   2.068   1.220   3.707 -0.4563  0.8902  0.6017
 1411SOL     OW 4632   4.343   0.195   4.041  0.1882 -0.4576  0.0049
 1411SOL    HW1 4633   4.339   0.291   4.038  0.1174 -0.4765 -0.5663
 1411SOL    HW2 4634   4.283   0.166   3.973  1.2940 -0.8865 -0.8218
 1412SOL     OW 4635   0.625   5.904   5.000 -0.0631 -0.1377  0.2924
 1412SOL    HW1 4636   0.641   5.898   5.094  0.4352  0.0780  0.2228
 1412SOL    HW2 4637   0.671   5.829   4.963 -1.1608 -0.8586  0.3189
 1413SOL     OW 4638   3.738   3.478   6.161 -0.2423  0.3370  0.9254
 1413SOL    HW1 4639   3.679   3.527   6.104  0.9127  0.1260 -0.5132
 1413SOL    HW2 4640   3.680   3.429   6.219 -1.4427  1.8864  1.1076
 1414SOL     OW 4641   5.747   1.734   1.107 -0.5528 -0.4005  0.6710
 1414SOL    HW1 4642   5.700   1.739   1.024  1.0904 -1.2438 -0.3729
 1414SOL    HW2 4643   5.782   1.822   1.120  1.8789 -0.9613 -1.2772
 1415SOL     OW 4644   1.959   0.346   2.442 -0.0747 -0.3999 -0.5196
 1415SOL    HW1 4645   2.022   0.347   2.514 -0.1491  0.9518 -0.4473
 1415SOL    HW2 4646   1.945   0.438   2.421 -1.3436 -0.7071 -1.1411
 1416SOL     OW 4647   6.744   1.796   1.696 -0.5706 -0.0042 -0.3210
 1416SOL    HW1 4648   6.669   1.854   1.685 -0.4542 -0.0215 -1.3354
 1416SOL    HW2 4649   6.736   1.761   1.784 -1.4521  0.4219 -0.2311
 1417SOL     OW 4650   1.545   3.861   1.754 -0.5445  0.4415 -0.1278
 1417SOL    HW1 4651   1.465   3.812   1.736 -1.6524  1.2411  2.2358
 1417SOL    HW2 4652   1.566   3.840   1.845  1.9171  0.3346 -0.6502
 1418SOL     OW 4653   6.383   4.603   6.672  0.1128 -0.0397  0.5471
 1418SOL    HW1 4654   6.450   4.642   6.616  0.7105 -1.0799  0.5152
 1418SOL    HW2 4655   6.363   4.518   6.631 -1.1083  0.1701  0.6514
 1419SOL     OW 4656   1.090   0.503   1.663 -0.4472  0.0550  0.1860
 1419SOL    HW1 4657   1.135   0.444   1.603 -0.1180 -0.9957  1.4037
 1419SOL    HW2 4658   1.063   0.446   1.736 -1.5424  1.1310  0.6526
 1420SOL     OW 4659   4.139   0.716   1.882 -0.0357 -0.1494  0.0140
 1420SOL    HW1 4660   4.120   0.787   1.942 -1.3999 -0.7466  0.3391
 1420SOL    HW2 4661   4.098   0.639   1.922 -0.1498 -0.7512 -1.2047
 1421SOL     OW 4662   0.158   5.935   4.671  0.5133 -0.0375  0.3284
 1421SOL    HW1 4663   0.166   5.898   4.583 -0.1177  0.0391  0.2375
 1421SOL    HW2 4664   0.242   5.978   4.687  1.7019 -2.3617  0.8299
 1422SOL     OW 4665   5.313   4.700   4.990 -0.3946  0.5489 -0.0927
 1422SOL    HW1 4666   5.308   4.796   4.992 -0.8416  0.5196  1.1471
 1422SOL    HW2 4667   5.402   4.681   4.961 -0.6318  1.3250 -1.4059
 1423SOL     OW 4668   5.076   5.201   0.128  0.3557 -0.0256  0.2211
 1423SOL    HW1 4669   5.034   5.210   0.213  0.4860 -1.6174  0.4804
 1423SOL    HW2 4670   5.119   5.285   0.113 -0.7000  0.7075  1.1418
 1424SOL     OW 4671   5.054   1.937   0.746 -0.4359 -0.8040  0.4432
 1424SOL    HW1 4672   5.095   1.939   0.660  0.1073 -0.2773  0.7094
 1424SOL    HW2 4673   5.022   1.847   0.755  0.0320 -1.0267 -0.0558
 1425SOL     OW 4674   1.931   4.031   0.625 -0.8021  0.1388  0.1368
 1425SOL    HW1 4675   2.001   4.092   0.603  0.2036 -1.0092 -0.0132
 1425SOL    HW2 4676   1.870   4.082   0.678  1.4229  0.5993  2.4765
 1426SOL     OW 4677   1.106   3.822   0.098 -0.0723  0.6591  0.3947
 1426SOL    HW1 4678   1.156   3.797   0.021 -0.0421  0.3369  0.5171
 1426SOL    HW2 4679   1.035   3.757   0.103 -0.6462  1.2453  0.0867
 1427SOL     OW 4680   2.769   3.839   5.251  0.1402  0.2508  0.2493
 1427SOL    HW1 4681   2.696   3.881   5.205  0.0155 -1.2380 -0.9703
 1427SOL    HW2 4682   2.847   3.879   5.213  0.0795 -1.5943 -2.0470
 1428SOL     OW 4683   1.626   3.878   2.626 -0.2969  0.1610 -0.0888
 1428SOL    HW1 4684   1.631   3.800   2.681  1.5839  2.4890  3.4861
 1428SOL    HW2 4685   1.704   3.874   2.570  0.0400 -0.3240  0.4066
 1429SOL     OW 4686   5.285   5.774   4.773 -0.4543  0.1149  0.3287
 1429SOL    HW1 4687   5.204   5.723   4.775 -0.5121  0.0611 -1.4091
 1429SOL    HW2 4688   5.313   5.780   4.864 -1.6220 -1.1374  0.7939
 1430SOL     OW 4689   3.945   3.391   1.730 -0.4597  0.4570 -0.1459
 1430SOL    HW1 4690   3.932   3.334   1.806 -1.6882 -0.7494 -1.2201
 1430SOL    HW2 4691   3.943   3.480   1.767 -0.9002 -0.0987  1.2520
 1431SOL     OW 4692   6.506   5.809   1.533 -0.4696  0.0305  0.1253
 1431SOL    HW1 4693   6.501   5.751   1.608  2.1784  1.2638  1.3732
 1431SOL    HW2 4694   6.535   5.893   1.568 -0.5718  1.0944 -2.1004
 1432SOL     OW 4695   1.531   5.497   6.176  0.5798 -0.5501 -0.3747
 1432SOL    HW1 4696   1.536   5.451   6.260  1.4432 -0.8529 -0.5851
 1432SOL    HW2 4697   1.599   5.565   6.182  0.1675 -0.1180 -0.5568
 1433SOL     OW 4698   4.908   0.560   5.940  0.6315 -0.1280  0.8618
 1433SOL    HW1 4699   4.880   0.506   6.013 -4.5673 -0.7675 -1.1747
 1433SOL    HW2 4700   4.874   0.647   5.960 -0.3406 -0.1775 -0.4452
 1434SOL     OW 4701   6.769   4.789   2.042 -0.4215  0.6181 -0.7748
 1434SOL    HW1 4702   6.821   4.733   2.099 -0.9674  0.6753 -0.2000
 1434SOL    HW2 4703   6.766   4.743   1.958 -0.0772  0.2538 -0.5900
 1435SOL     OW 4704   6.774   0.042   5.525 -0.0820 -0.4815 -0.1319
 1435SOL    HW1 4705   6.683   0.023   5.500 -0.7343 -0.2873  1.8941
 1435SOL    HW2 4706   6.805  -0.038   5.567 -0.5191  0.4877  2.2303
 1436SOL     OW 4707   6.258   3.604   2.219 -0.1395  0.0695 -0.1921
 1436SOL    HW1 4708   6.191   3.535   2.218 -1.2175  1.0406  0.8669
 1436SOL    HW2 4709   6.246   3.647   2.304  0.6371  1.4302 -0.7465
 1437SOL     OW 4710   3.011   2.525   5.699  0.6226 -0.5243 -0.3514
 1437SOL    HW1 4711   3.022   2.437   5.735  0.7945  0.1054  1.2188
 1437SOL    HW2 4712   2.917   2.543   5.709  0.9297  0.2796  1.3835
 1438SOL     OW 4713   0.381   5.765   5.622  0.0608  0.1697  0.0441
 1438SOL    HW1 4714   0.372   5.768   5.717 -1.5980  0.9086 -0.1141
 1438SOL    HW2 4715   0.297   5.794   5.588  0.1800 -1.3029 -1.6748
 1439SOL     OW 4716   6.565   4.159   5.162 -0.7035 -0.0606  0.2945
 1439SOL    HW1 4717   6.577   4.086   5.223  0.1378 -0.7339 -0.6419
 1439SOL    HW2 4718   6.606   4.129   5.080  0.5570  1.8520  0.1760
 1440SOL     OW 4719   1.400   2.889   3.736  0.5790  0.2065 -0.0705
 1440SOL    HW1 4720   1.424   2.918   3.648  1.2375 -0.6845 -0.1987
 1440SOL    HW2 4721   1.481   2.858   3.775 -0.0428 -1.3896  0.0615
 1441SOL     OW 4722   1.828   3.047   0.744 -0.4009 -0.0296 -0.7302
 1441SOL    HW1 4723   1.886   3.070   0.817 -0.7685  1.0872 -0.7640
 1441SOL    HW2 4724   1.820   2.952   0.748  2.4739 -0.4258 -1.5042
 1442SOL     OW 4725   4.960   0.023   3.890  0.3273  0.6114 -0.1115
 1442SOL    HW1 4726   4.890   0.029   3.955  0.3321  0.8321 -0.1267
 1442SOL    HW2 4727   4.936  -0.053   3.836  0.9441 -0.3264  0.8816
 1443SOL     OW 4728   4.040   0.478   1.957 -0.7209 -0.1196 -0.0388
 1443SOL    HW1 4729   4.091   0.432   1.890  1.1189  0.8956  0.6031
 1443SOL    HW2 4730   4.061   0.433   2.039  1.6986  2.1150  0.7273
 1444SOL     OW 4731   4.366   3.640   5.639  0.1358 -0.0723 -0.2050
 1444SOL    HW1 4732   4.421   3.717   5.653 -0.8291  0.5914  0.0317
 1444SOL    HW2 4733   4.421   3.581   5.586  0.8468  0.8185 -0.4950
 1445SOL     OW 4734   5.331   1.860   4.040 -0.2651  0.0939  0.2919
 1445SOL    HW1 4735   5.351   1.953   4.055 -0.7920  0.2201  0.2392
 1445SOL    HW2 4736   5.381   1.837   3.961  0.4137  0.1418  0.6951
 1446SOL     OW 4737   2.016   2.968   0.948 -0.2855 -0.2710 -0.2120
 1446SOL    HW1 4738   1.992   2.893   1.002  0.2911 -2.4412 -2.7073
 1446SOL    HW2 4739   1.990   3.044   0.999 -0.4462 -2.1156  2.7164
 1447SOL     OW 4740   5.284   1.165   2.174  0.6387  0.1745 -0.1249
 1447SOL    HW1 4741   5.228   1.094   2.206  0.1100  0.7511  0.2423
 1447SOL    HW2 4742   5.258   1.176   2.083  0.8553 -0.2202 -0.2408
 1448SOL     OW 4743   2.968   0.103   3.770 -0.0855 -0.7413 -0.2165
 1448SOL    HW1 4744   2.908   0.095   3.844  0.3520 -0.2418  0.2092
 1448SOL    HW2 4745   3.001   0.015   3.756 -0.7814 -0.9902 -0.3455
 1449SOL     OW 4746   0.654   6.699   6.231 -0.2797 -0.3499  0.0165
 1449SOL    HW1 4747   0.746   6.724   6.242 -0.4135 -0.7395  2.5195
 1449SOL    HW2 4748   0.605   6.773   6.267 -0.8299 -1.3952  1.5267
 1450SOL     OW 4749   0.812   0.433   6.182  0.3610  0.1502 -0.0560
 1450SOL    HW1 4750   0.722   0.408   6.202  0.6974 -1.2596 -0.1942
 1450SOL    HW2 4751   0.811   0.528   6.180 -1.1509  0.1484 -0.1880
 1451SOL     OW 4752   2.471   6.555   4.676  1.1131  0.2409  0.1737
 1451SOL    HW1 4753   2.443   6.629   4.730 -0.5017  0.6259 -1.1340
 1451SOL    HW2 4754   2.535   6.509   4.731  1.1073  1.7919  1.5696
 1452SOL     OW 4755   5.998   6.213   2.832 -0.0178 -0.4933 -0.0799
 1452SOL    HW1 4756   5.928   6.161   2.792 -0.6975  0.0918  0.3196
 1452SOL    HW2 4757   6.074   6.155   2.832 -0.4431 -1.0673 -0.7177
 1453SOL     OW 4758   3.393   5.902   1.198  0.1075 -0.3842 -0.7952
 1453SOL    HW1 4759   3.443   5.853   1.262  0.4704 -1.2955 -1.7451
 1453SOL    HW2 4760   3.371   5.838   1.130  0.7085  0.7701 -2.1404
 1454SOL     OW 4761   0.344   2.489   6.714 -0.3783 -0.6094  0.1069
 1454SOL    HW1 4762   0.259   2.532   6.704  0.3064  0.5127 -1.2027
 1454SOL    HW2 4763   0.365   2.458   6.626  1.1728  0.3347  0.1130
 1455SOL     OW 4764   3.745   2.391   1.814  0.6125  0.9391  0.1864
 1455SOL    HW1 4765   3.794   2.434   1.744  0.9803  0.1751 -0.0354
 1455SOL    HW2 4766   3.686   2.459   1.847 -1.7340  0.5758 -2.8289
 1456SOL     OW 4767   0.592   1.517   6.501  0.2632 -0.4547 -0.2892
 1456SOL    HW1 4768   0.557   1.479   6.582  2.3799  0.2713  1.0546
 1456SOL    HW2 4769   0.556   1.463   6.431 -1.0319 -1.5856  1.1847
 1457SOL     OW 4770   0.368   1.721   5.896  0.0614  0.1144 -0.3224
 1457SOL    HW1 4771   0.307   1.751   5.964  0.2090  0.1609 -0.2094
 1457SOL    HW2 4772   0.415   1.799   5.870  1.6109 -0.2619  1.1410
 1458SOL     OW 4773   4.553   1.188   4.230  0.2775  0.1719  0.1199
 1458SOL    HW1 4774   4.464   1.177   4.263  0.9631 -1.0607  1.6366
 1458SOL    HW2 4775   4.580   1.274   4.262 -0.4687  0.7263 -0.6779
 1459SOL     OW 4776   5.112   1.501   1.117 -0.0898  0.9828  0.3495
 1459SOL    HW1 4777   5.191   1.447   1.105 -0.0430  0.6376  2.0805
 1459SOL    HW2 4778   5.096   1.500   1.211 -1.4387  2.1100  0.1558
 1460SOL     OW 4779   3.897   2.366   4.276  0.0561 -0.6014  0.2512
 1460SOL    HW1 4780   3.916   2.276   4.303  0.0676  0.3602  4.0142
 1460SOL    HW2 4781   3.810   2.384   4.311 -0.9930  0.1961 -2.5087
 1461SOL     OW 4782   4.152   2.688   4.033 -0.4803 -0.5581 -0.1362
 1461SOL    HW1 4783   4.095   2.704   4.108  2.0964  1.2036  1.6150
 1461SOL    HW2 4784   4.192   2.603   4.051  0.0687 -0.1784  0.4792
 1462SOL     OW 4785   2.489   5.995   2.860 -0.0208 -0.0963 -0.1173
 1462SOL    HW1 4786   2.562   5.961   2.913  0.2451 -0.0972 -0.4737
 1462SOL    HW2 4787   2.411   5.975   2.911  0.3140  1.1651  0.9373
 1463SOL     OW 4788   3.808   1.241   5.115  0.1220  0.1974 -0.3871
 1463SOL    HW1 4789   3.818   1.186   5.192 -1.1722 -2.2481 -1.8434
 1463SOL    HW2 4790   3.747   1.194   5.059  0.3717  2.2573 -2.5782
 1464SOL     OW 4791   5.659   5.550   5.641 -0.2065  0.1929 -0.1980
 1464SOL    HW1 4792   5.668   5.560   5.736 -0.2849 -1.3579  0.0037
 1464SOL    HW2 4793   5.696   5.630   5.605  0.4318  0.5311  1.1259
 1465SOL     OW 4794   0.108   0.050   5.281 -0.2760 -0.1772  0.4516
 1465SOL    HW1 4795   0.063   0.043   5.365  0.3448  0.1182  0.8216
 1465SOL    HW2 4796   0.146   0.138   5.283  0.0307 -0.3005  0.0081
 1466SOL     OW 4797   3.543   0.021   2.719  0.0094  0.6645 -0.1202
 1466SOL    HW1 4798   3.541  -0.073   2.700 -0.1482  0.7044 -0.3035
 1466SOL    HW2 4799   3.564   0.026   2.813  1.0263  0.4792 -0.3345
 1467SOL     OW 4800   5.987   1.351   1.772 -0.0684  0.0893  1.0036
 1467SOL    HW1 4801   5.917   1.354   1.708 -0.8145 -1.3167  1.7084
 1467SOL    HW2 4802   6.066   1.335   1.720 -0.2818  1.3821  0.2370
 1468SOL     OW 4803   2.228   1.001   5.683 -0.0287  0.2346 -0.2293
 1468SOL    HW1 4804   2.254   1.088   5.653 -0.4913  1.1185  1.7495
 1468SOL    HW2 4805   2.275   0.941   5.626  1.3645  1.7728 -0.7928
 1469SOL     OW 4806   1.236   2.294   5.812  0.3449  0.3052 -0.3478
 1469SOL    HW1 4807   1.177   2.362   5.846  2.2527  1.6292  0.4973
 1469SOL    HW2 4808   1.305   2.287   5.879  1.2526 -1.0314 -1.3834
 1470SOL     OW 4809   3.471   1.747   0.812  0.0613 -0.2590 -0.1502
 1470SOL    HW1 4810   3.445   1.826   0.859  2.4445 -0.1826  1.1759
 1470SOL    HW2 4811   3.393   1.691   0.815 -1.5487  1.8068 -0.7443
 1471SOL     OW 4812   3.660   5.242   6.380 -0.2435 -0.1276  0.1109
 1471SOL    HW1 4813   3.594   5.306   6.405  1.1136  0.9926  0.9550
 1471SOL    HW2 4814   3.612   5.159   6.376 -2.0287  0.8769 -0.9016
 1472SOL     OW 4815   2.059   3.938   0.183 -0.5131  0.5223 -0.2078
 1472SOL    HW1 4816   2.033   3.960   0.094  0.3133  0.6363 -0.4320
 1472SOL    HW2 4817   2.064   3.842   0.184 -0.8316  0.5072 -0.1970
 1473SOL     OW 4818   4.768   1.927   3.991 -0.0298 -0.1403 -0.0230
 1473SOL    HW1 4819   4.711   1.906   3.917 -2.0746  0.4898  1.2924
 1473SOL    HW2 4820   4.789   2.020   3.979 -2.8737  0.8166  1.6991
 1474SOL     OW 4821   1.248   3.225   4.671  0.8268  0.2629  0.2237
 1474SOL    HW1 4822   1.282   3.195   4.587  2.2275 -0.5538  1.0443
 1474SOL    HW2 4823   1.224   3.145   4.718 -0.0884  0.7152  0.5512
 1475SOL     OW 4824   3.994   4.697   4.856 -0.3420 -0.0673  0.1039
 1475SOL    HW1 4825   3.934   4.702   4.782  2.3003  0.1551 -2.2091
 1475SOL    HW2 4826   4.043   4.615   4.842  0.0777 -0.1482  1.7696
 1476SOL     OW 4827   3.016   3.563   1.881 -0.2244  0.0939 -0.3004
 1476SOL    HW1 4828   2.979   3.507   1.949 -0.1959 -0.5232 -0.7922
 1476SOL    HW2 4829   3.110   3.563   1.899 -0.0528 -1.1020 -1.0823
 1477SOL     OW 4830   1.873   1.212   3.468 -0.0918 -0.2450 -0.1184
 1477SOL    HW1 4831   1.789   1.256   3.449  0.2301 -0.2904 -1.8184
 1477SOL    HW2 4832   1.873   1.136   3.411  0.1136 -1.5729  1.5802
 1478SOL     OW 4833   3.856   5.687   3.935 -0.0957  0.6753  0.2012
 1478SOL    HW1 4834   3.844   5.764   3.879  1.1928  0.5497 -0.2831
 1478SOL    HW2 4835   3.909   5.627   3.882 -1.3620 -0.7064  0.4432
 1479SOL     OW 4836   5.290   4.427   5.076  0.2452 -0.1624  0.3936
 1479SOL    HW1 4837   5.300   4.521   5.066  0.9190 -0.2825 -0.1851
 1479SOL    HW2 4838   5.280   4.394   4.987  0.9326 -0.7272  0.5132
 1480SOL     OW 4839   4.383   6.535   4.547  0.0955 -0.1674  0.0000
 1480SOL    HW1 4840   4.454   6.499   4.493 -1.1759 -0.6095 -1.4310
 1480SOL    HW2 4841   4.303   6.509   4.503 -1.0530 -0.9807  2.3884
 1481SOL     OW 4842   3.864   1.271   4.713 -0.3130 -0.1667 -0.1223
 1481SOL    HW1 4843   3.875   1.355   4.757  0.6234 -0.3596  0.0304
 1481SOL    HW2 4844   3.953   1.242   4.693 -0.6675 -0.6094 -1.1621
 1482SOL     OW 4845   1.295   3.947   3.435  0.4373  0.0456 -0.7032
 1482SOL    HW1 4846   1.200   3.950   3.432  0.4960  1.1653 -1.8471
 1482SOL    HW2 4847   1.323   4.037   3.424  1.6305 -0.0938  0.7926
 1483SOL     OW 4848   1.805   0.107   2.521  0.8685  0.1935  0.7143
 1483SOL    HW1 4849   1.850   0.022   2.521 -0.3139 -0.4860 -1.0747
 1483SOL    HW2 4850   1.871   0.169   2.490  1.1035 -0.4937 -0.2204
 1484SOL     OW 4851   4.609   1.564   3.219 -0.3612 -0.4518  0.4736
 1484SOL    HW1 4852   4.652   1.573   3.134 -0.2768  1.7016  0.6833
 1484SOL    HW2 4853   4.517   1.585   3.202 -0.6510 -1.5105  0.6661
 1485SOL     OW 4854   5.356   4.000   6.379 -0.1225 -0.4785  0.5617
 1485SOL    HW1 4855   5.412   3.959   6.446  0.6222  1.2165  1.0241
 1485SOL    HW2 4856   5.306   4.066   6.426  0.0599  0.4201 -0.4664
 1486SOL     OW 4857   5.050   4.235   0.255  0.0986 -0.1255  0.0226
 1486SOL    HW1 4858   5.089   4.275   0.332 -0.2556 -0.4505  0.3782
 1486SOL    HW2 4859   5.021   4.308   0.201  0.5987  0.1044  0.0669
 1487SOL     OW 4860   1.475   1.534   3.052 -0.4423  0.5720 -0.1544
 1487SOL    HW1 4861   1.503   1.534   3.143 -1.4336  2.9643  0.2229
 1487SOL    HW2 4862   1.506   1.618   3.017  0.0033 -0.3164 -2.0951
 1488SOL     OW 4863   2.397   2.213   4.562  0.6990  0.5146  0.0122
 1488SOL    HW1 4864   2.457   2.215   4.637 -1.5796  1.4947  1.9701
 1488SOL    HW2 4865   2.310   2.224   4.602 -0.7905 -0.7979 -2.6627
 1489SOL     OW 4866   2.591   4.638   0.674  0.0431  0.0373  0.0779
 1489SOL    HW1 4867   2.506   4.657   0.713  0.6844  2.1881  0.6241
 1489SOL    HW2 4868   2.654   4.672   0.738  1.1766  2.0946 -1.9609
 1490SOL     OW 4869   4.669   5.057   0.660 -0.4346  0.3065 -0.4950
 1490SOL    HW1 4870   4.686   5.148   0.636  2.0579 -0.4017 -1.7782
 1490SOL    HW2 4871   4.690   5.007   0.581 -2.5176 -1.3885 -0.0790
 1491SOL     OW 4872   5.221   6.220   2.433 -0.0138  0.7609 -0.7290
 1491SOL    HW1 4873   5.166   6.143   2.417 -0.3237  0.8272 -0.0558
 1491SOL    HW2 4874   5.265   6.237   2.350 -0.8729  0.5852 -1.2305
 1492SOL     OW 4875   4.911   4.436   1.427  0.1791  0.2329 -0.1433
 1492SOL    HW1 4876   4.953   4.458   1.344 -0.2602 -1.7074 -0.9366
 1492SOL    HW2 4877   4.823   4.473   1.420 -0.0873 -0.5032 -0.8644
 1493SOL     OW 4878   0.256   5.141   0.839 -0.3938 -0.1466 -0.0036
 1493SOL    HW1 4879   0.189   5.166   0.902  0.3014  2.5733 -0.2326
 1493SOL    HW2 4880   0.213   5.147   0.753  0.5474  3.9963 -0.3911
 1494SOL     OW 4881   2.373   0.229   5.412 -0.7744 -0.3380  0.1736
 1494SOL    HW1 4882   2.352   0.140   5.442  0.9154 -0.7900  0.1227
 1494SOL    HW2 4883   2.423   0.267   5.483  2.1207 -0.9476 -1.3993
 1495SOL     OW 4884   0.836   3.010   3.556  0.7504 -0.1590 -0.2554
 1495SOL    HW1 4885   0.930   3.010   3.538  1.2300  0.2425  1.8637
 1495SOL    HW2 4886   0.812   3.103   3.556  0.7909 -0.1282  0.9994
 1496SOL     OW 4887   0.302   1.332   0.798 -0.3928 -0.4401 -0.5918
 1496SOL    HW1 4888   0.311   1.427   0.799  2.6211 -0.6271 -1.4059
 1496SOL    HW2 4889   0.269   1.311   0.711  1.5255 -0.2473 -1.3993
 1497SOL     OW 4890   1.302   3.325   5.335 -0.8049  0.1263  0.5781
 1497SOL    HW1 4891   1.336   3.310   5.247 -1.2604  0.7735  0.2772
 1497SOL    HW2 4892   1.296   3.421   5.341  1.9728  0.2933  2.3748
 1498SOL     OW 4893   2.710   1.271   2.098  0.3358  0.4774 -0.2980
 1498SOL    HW1 4894   2.678   1.263   2.188 -1.1082  0.7394 -0.7703
 1498SOL    HW2 4895   2.786   1.330   2.105  0.9673 -0.4182  0.8871
 1499SOL     OW 4896   6.259   4.307   3.094 -0.2759  0.4427  0.2589
 1499SOL    HW1 4897   6.303   4.255   3.027  0.1167  0.4842  0.4806
 1499SOL    HW2 4898   6.288   4.269   3.177 -4.4236 -2.7799  0.5238
 1500SOL     OW 4899   0.266   4.132   1.895  0.3529  0.5960  0.3519
 1500SOL    HW1 4900   0.327   4.181   1.950  0.6108  0.2228  0.3972
 1500SOL    HW2 4901   0.223   4.071   1.954  0.2292  0.5754  0.2415
 1501SOL     OW 4902   0.929   1.244   2.942 -0.1561  0.1473 -0.0546
 1501SOL    HW1 4903   0.960   1.179   3.005  0.5225  0.5798  0.0730
 1501SOL    HW2 4904   0.847   1.275   2.979  0.8864  1.3748  1.3603
 1502SOL     OW 4905   4.647   5.773   1.980 -0.1890 -0.0030 -0.0094
 1502SOL    HW1 4906   4.668   5.728   1.899  0.6056 -0.7370  0.5849
 1502SOL    HW2 4907   4.720   5.834   1.994  0.1788 -0.5698  0.6311
 1503SOL     OW 4908   3.859   3.672   2.668  0.4088 -0.2049  0.2535
 1503SOL    HW1 4909   3.895   3.761   2.663 -2.3876  1.1677  2.2175
 1503SOL    HW2 4910   3.774   3.678   2.624  0.7212 -2.3417 -0.7952
 1504SOL     OW 4911   3.715   1.265   6.137  0.1156 -0.0007 -0.3363
 1504SOL    HW1 4912   3.749   1.354   6.146 -0.2320  0.1351 -0.3311
 1504SOL    HW2 4913   3.697   1.237   6.227  0.6251 -0.2345 -0.3096
 1505SOL     OW 4914   1.462   1.506   5.616 -0.1012 -0.4395  0.8095
 1505SOL    HW1 4915   1.535   1.567   5.626  0.0931 -0.5365  0.0392
 1505SOL    HW2 4916   1.392   1.544   5.669  0.5120 -0.3611  1.5808
 1506SOL     OW 4917   2.862   5.053   3.741  0.0707 -0.0898 -0.2263
 1506SOL    HW1 4918   2.776   5.095   3.749 -0.3138 -1.0138  0.7133
 1506SOL    HW2 4919   2.844   4.970   3.696  0.4949 -0.2154 -0.1682
 1507SOL     OW 4920   3.720   2.984   0.667  0.7208 -0.0344  0.3488
 1507SOL    HW1 4921   3.675   3.017   0.745  1.1953  2.5623 -0.3777
 1507SOL    HW2 4922   3.656   2.994   0.597  0.9984 -0.4208  0.0369
 1508SOL     OW 4923   2.793   1.451   3.524  0.5501 -0.6764 -0.1624
 1508SOL    HW1 4924   2.818   1.366   3.560  1.4060 -0.3008  0.1401
 1508SOL    HW2 4925   2.849   1.514   3.569  2.0806 -0.2350 -2.5420
 1509SOL     OW 4926   5.043   2.740   1.651  0.7055 -0.3447 -0.0875
 1509SOL    HW1 4927   5.062   2.833   1.658 -1.7676  0.1569  0.7627
 1509SOL    HW2 4928   5.017   2.728   1.560  2.7660 -0.6249 -0.6897
 1510SOL     OW 4929   4.189   1.876   5.738  0.6017  0.1082  0.4230
 1510SOL    HW1 4930   4.280   1.868   5.710  0.6740 -0.1975  0.7430
 1510SOL    HW2 4931   4.171   1.795   5.784 -0.2384 -0.4152 -0.7871
 1511SOL     OW 4932   0.898   0.499   4.985  0.0968 -0.5410 -0.2304
 1511SOL    HW1 4933   0.802   0.507   4.985  0.2437  2.5337 -0.0618
 1511SOL    HW2 4934   0.928   0.577   4.938  2.5563  0.2764  2.4424
 1512SOL     OW 4935   3.606   1.304   6.646 -0.4639 -0.4415 -0.4265
 1512SOL    HW1 4936   3.701   1.311   6.631 -0.6667 -0.6730 -1.9311
 1512SOL    HW2 4937   3.589   1.210   6.647 -0.3867 -0.5063  2.0898
 1513SOL     OW 4938   5.668   2.796   6.054  0.1441  0.0355  0.5093
 1513SOL    HW1 4939   5.738   2.851   6.020  1.8567 -0.8203  2.4239
 1513SOL    HW2 4940   5.666   2.815   6.148 -0.6975 -1.5472  0.8508
 1514SOL     OW 4941   0.947   1.407   1.265  0.2654  0.1024 -0.4999
 1514SOL    HW1 4942   0.932   1.444   1.178 -0.8848 -0.7575 -0.6825
 1514SOL    HW2 4943   0.860   1.404   1.305  0.4682 -1.5152 -0.1392
 1515SOL     OW 4944   1.771   0.417   1.011  0.0180 -0.0694 -0.8559
 1515SOL    HW1 4945   1.734   0.504   1.025 -0.3689  0.0545 -2.4720
 1515SOL    HW2 4946   1.866   0.432   1.011 -0.0118  0.1820 -0.2011
 1516SOL     OW 4947   3.068   2.772   1.853 -0.0121  0.5828  0.3137
 1516SOL    HW1 4948   3.133   2.826   1.807 -0.5931  1.4899  0.5367
 1516SOL    HW2 4949   3.030   2.831   1.918  1.0258 -0.7591  2.2338
 1517SOL     OW 4950   1.093   5.109   2.021 -0.6694 -0.8188  0.4651
 1517SOL    HW1 4951   1.012   5.064   1.997 -0.0120 -0.8135 -2.1473
 1517SOL    HW2 4952   1.073   5.201   2.008 -0.4069 -0.7757  0.3770
 1518SOL     OW 4953   2.496   1.248   0.495  0.6575  0.0946  0.1599
 1518SOL    HW1 4954   2.461   1.175   0.546  2.2361  0.1270  1.3717
 1518SOL    HW2 4955   2.442   1.323   0.520 -0.5713 -0.5025 -0.6186
 1519SOL     OW 4956   0.424   5.979   2.827  0.4977 -0.4538  0.3514
 1519SOL    HW1 4957   0.457   6.019   2.908 -1.1971  0.5431  0.5933
 1519SOL    HW2 4958   0.503   5.957   2.778  1.5761 -0.9408  2.1907
 1520SOL     OW 4959   5.631   4.116   2.870  0.0277  0.3060  0.4987
 1520SOL    HW1 4960   5.631   4.026   2.840 -2.6154  0.4319 -0.0715
 1520SOL    HW2 4961   5.706   4.121   2.931  0.7610 -1.9803 -0.1282
 1521SOL     OW 4962   5.830   1.700   5.379 -0.3759  0.0034 -0.7807
 1521SOL    HW1 4963   5.921   1.674   5.393 -0.8382 -1.0025  0.5323
 1521SOL    HW2 4964   5.836   1.788   5.341  1.1269  0.6694  0.8293
 1522SOL     OW 4965   3.666   2.294   6.134  0.1571  0.5180  0.0398
 1522SOL    HW1 4966   3.654   2.389   6.128 -0.5354  0.3682 -1.3064
 1522SOL    HW2 4967   3.673   2.277   6.228 -0.5698  1.8013  0.3576
 1523SOL     OW 4968   6.588   5.784   4.376  0.9628  0.6068 -0.7534
 1523SOL    HW1 4969   6.575   5.785   4.471  3.0637 -0.0199 -0.4183
 1523SOL    HW2 4970   6.526   5.849   4.343 -1.4919 -0.7672  0.7872
 1524SOL     OW 4971   0.691   3.238   6.471  0.3222 -0.1795  0.1100
 1524SOL    HW1 4972   0.622   3.184   6.433 -2.4647  1.2686  2.6993
 1524SOL    HW2 4973   0.665   3.251   6.563  1.5004  4.2756  0.0752
 1525SOL     OW 4974   3.445   2.301   3.002  0.0261 -0.1607  0.2816
 1525SOL    HW1 4975   3.469   2.378   2.949 -2.0061  1.3178  1.3564
 1525SOL    HW2 4976   3.503   2.306   3.078  0.8777 -0.5291 -0.3366
 1526SOL     OW 4977   3.274   0.238   5.523  0.3880 -0.0562 -0.0161
 1526SOL    HW1 4978   3.187   0.276   5.515 -0.1424 -1.0954  0.5955
 1526SOL    HW2 4979   3.320   0.266   5.444  0.1118  2.0037  0.4938
 1527SOL     OW 4980   3.638   2.578   0.903 -0.4971 -0.2229  0.5024
 1527SOL    HW1 4981   3.560   2.568   0.958 -0.9009  0.0914 -0.0016
 1527SOL    HW2 4982   3.604   2.602   0.817  0.1322 -0.6636  0.1216
 1528SOL     OW 4983   2.183   5.314   3.060 -0.1887  0.5337 -0.6621
 1528SOL    HW1 4984   2.264   5.322   3.111 -0.4791 -3.4690  0.7310
 1528SOL    HW2 4985   2.211   5.278   2.976 -0.4347 -0.6327 -0.2636
 1529SOL     OW 4986   6.462   0.873   4.189 -0.3374  0.4797 -0.5112
 1529SOL    HW1 4987   6.503   0.957   4.167  0.9573 -0.2101 -0.8022
 1529SOL    HW2 4988   6.389   0.897   4.247  0.6619  1.7330  0.2881
 1530SOL     OW 4989   6.183   1.385   4.637  0.0348  0.9010  0.3414
 1530SOL    HW1 4990   6.157   1.318   4.701 -0.7874  1.2301  0.3556
 1530SOL    HW2 4991   6.277   1.371   4.626  0.2340  0.9212  1.7433
 1531SOL     OW 4992   2.866   6.412   5.861  0.4223  0.5953 -0.5701
 1531SOL    HW1 4993   2.807   6.345   5.897  0.9145  1.0346  1.1665
 1531SOL    HW2 4994   2.905   6.370   5.784  0.9801 -1.2938  0.6506
 1532SOL     OW 4995   5.529   0.258   6.152  0.1610 -0.5051 -0.0637
 1532SOL    HW1 4996   5.600   0.259   6.088 -0.4470 -2.3748 -0.8165
 1532SOL    HW2 4997   5.560   0.198   6.220 -1.2265 -2.4987 -1.1036
 1533SOL     OW 4998   4.422   5.267   0.926 -0.6470  0.2191 -0.2393
 1533SOL    HW1 4999   4.448   5.341   0.981  0.2909 -0.1046 -0.2449
 1533SOL    HW2 5000   4.354   5.223   0.977  1.9135 -1.5523  1.8985
 1534SOL     OW 5001   0.546   0.195   4.283  0.2846 -0.0607  0.4963
 1534SOL    HW1 5002   0.635   0.194   4.317  0.6799  0.5748 -0.4822
 1534SOL    HW2 5003   0.554   0.229   4.194 -1.1311  1.6929  0.9878
 1535SOL     OW 5004   0.876   3.389   6.613  0.1797  0.3590 -0.0384
 1535SOL    HW1 5005   0.888   3.478   6.580 -0.0816  0.8054  1.0472
 1535SOL    HW2 5006   0.820   3.347   6.547 -0.3871  1.2460 -0.1389
 1536SOL     OW 5007   4.241   3.396   3.143  0.3559 -0.0188  0.4821
 1536SOL    HW1 5008   4.254   3.410   3.049  0.4249  1.7407  0.7071
 1536SOL    HW2 5009   4.322   3.429   3.183  0.7953 -1.7844  1.1137
 1537SOL     OW 5010   4.322   3.364   4.770  0.1982 -0.2038 -0.0708
 1537SOL    HW1 5011   4.279   3.430   4.825  0.5192  0.0980 -0.1788
 1537SOL    HW2 5012   4.284   3.281   4.799 -1.4863  0.1550 -1.0870
 1538SOL     OW 5013   6.620   4.422   3.139 -0.7112  0.1506 -0.0889
 1538SOL    HW1 5014   6.609   4.338   3.183  0.1070 -0.2819 -0.6792
 1538SOL    HW2 5015   6.557   4.480   3.182 -0.1060 -0.3119  1.4732
 1539SOL     OW 5016   0.492   2.429   3.508 -0.2041 -0.1213  0.3013
 1539SOL    HW1 5017   0.579   2.404   3.537 -0.0854 -0.3440 -0.2404
 1539SOL    HW2 5018   0.464   2.359   3.450  0.0749  0.9006 -1.1317
 1540SOL     OW 5019   3.088   4.251   0.884  0.0698  0.3218  0.2353
 1540SOL    HW1 5020   2.998   4.250   0.918 -0.5892 -1.1705 -1.3721
 1540SOL    HW2 5021   3.139   4.205   0.951 -0.8578 -0.9930  0.0878
 1541SOL     OW 5022   6.028   6.571   3.130 -0.0836 -0.8715 -0.1522
 1541SOL    HW1 5023   6.023   6.616   3.215 -2.0048 -0.0774 -0.6237
 1541SOL    HW2 5024   6.103   6.612   3.086 -0.3754  0.2457  0.3367
 1542SOL     OW 5025   0.065   6.089   3.139 -0.7394  0.1580 -0.2884
 1542SOL    HW1 5026   0.135   6.112   3.200 -1.1413 -1.3333  0.7786
 1542SOL    HW2 5027  -0.010   6.070   3.194 -1.1558 -1.0922 -1.2327
 1543SOL     OW 5028   3.749   1.734   0.828 -0.1759 -0.0561  0.1055
 1543SOL    HW1 5029   3.782   1.803   0.771  0.3467 -2.3113 -2.5176
 1543SOL    HW2 5030   3.655   1.751   0.835 -0.0490  0.9112 -0.4898
 1544SOL     OW 5031   0.766   5.894   0.519  0.1444  0.5021  0.4872
 1544SOL    HW1 5032   0.749   5.983   0.488  0.1531  0.2438 -0.2574
 1544SOL    HW2 5033   0.682   5.849   0.513 -0.5535  1.1694  3.3805
 1545SOL     OW 5034   2.362   2.948   1.430 -0.3153 -0.5682  0.8449
 1545SOL    HW1 5035   2.330   2.932   1.341  1.0777  1.0611  0.0123
 1545SOL    HW2 5036   2.401   2.864   1.456 -1.5535 -1.3415  0.3071
 1546SOL     OW 5037   4.520   1.557   4.122  0.3668 -0.6622  0.1000
 1546SOL    HW1 5038   4.604   1.553   4.167  1.6877 -1.7928 -2.2997
 1546SOL    HW2 5039   4.511   1.471   4.080 -1.2796 -0.0306 -0.9503
 1547SOL     OW 5040   4.710   4.038   6.748  0.2553  0.6312 -0.0916
 1547SOL    HW1 5041   4.775   4.058   6.815 -0.6014 -1.7896  1.6262
 1547SOL    HW2 5042   4.627   4.067   6.787 -0.5464 -2.6837  1.0188
 1548SOL     OW 5043   2.028   4.158   2.456  0.2653 -0.1531 -0.4596
 1548SOL    HW1 5044   1.989   4.156   2.544  0.8645  0.2325 -0.1840
 1548SOL    HW2 5045   2.005   4.244   2.422  1.2533  0.2573 -0.1172
 1549SOL     OW 5046   4.317   0.249   4.686  0.0654 -0.1210 -0.0803
 1549SOL    HW1 5047   4.241   0.195   4.706  0.6076 -1.1634 -0.7130
 1549SOL    HW2 5048   4.381   0.226   4.753  0.2580 -0.1826 -0.2844
 1550SOL     OW 5049   4.619   1.888   0.311  0.4164  0.1291  0.8871
 1550SOL    HW1 5050   4.684   1.948   0.348 -0.1108  0.5827  1.0957
 1550SOL    HW2 5051   4.589   1.836   0.386 -0.8385  1.2214  1.1853
 1551SOL     OW 5052   3.990   3.165   1.581 -0.2873  0.4240 -0.1686
 1551SOL    HW1 5053   4.041   3.124   1.651  1.4716  1.4678 -0.7602
 1551SOL    HW2 5054   3.967   3.252   1.616  1.2564  1.2518 -1.1040
 1552SOL     OW 5055   0.678   2.283   3.767 -0.3449 -0.9083  0.7657
 1552SOL    HW1 5056   0.620   2.253   3.697 -1.1362 -0.1048  1.0660
 1552SOL    HW2 5057   0.632   2.356   3.808  2.4656  2.3667 -1.3944
 1553SOL     OW 5058   6.455   5.407   5.179 -0.3651  0.0055 -0.2296
 1553SOL    HW1 5059   6.547   5.432   5.188  0.2349 -1.2787 -2.1100
 1553SOL    HW2 5060   6.439   5.347   5.252  0.8816 -1.2155 -0.9014
 1554SOL     OW 5061   2.672   3.149   2.097  0.4574  0.1587 -0.3293
 1554SOL    HW1 5062   2.670   3.157   2.002  3.7770 -0.7856 -0.5993
 1554SOL    HW2 5063   2.690   3.237   2.129  1.0722  0.1638 -0.6937
 1555SOL     OW 5064   2.156   4.693   5.743  0.2916 -0.4704  0.5172
 1555SOL    HW1 5065   2.105   4.612   5.739 -0.9322  0.3072 -1.2286
 1555SOL    HW2 5066   2.093   4.758   5.775 -0.1471  0.6695 -2.4008
 1556SOL     OW 5067   2.727   3.707   1.233  0.0998  0.3254 -0.2193
 1556SOL    HW1 5068   2.814   3.680   1.263  0.0636  1.9774  1.5864
 1556SOL    HW2 5069   2.678   3.722   1.314 -1.1403  1.6467 -1.1688
 1557SOL     OW 5070   3.745   5.466   1.924 -0.1265 -0.1339  0.2223
 1557SOL    HW1 5071   3.768   5.450   2.015 -0.5209 -1.8757  0.0404
 1557SOL    HW2 5072   3.720   5.380   1.890 -2.3054  0.8551 -0.8722
 1558SOL     OW 5073   5.998   2.556   5.096  0.0676  0.3546 -0.0441
 1558SOL    HW1 5074   6.054   2.619   5.142  2.1317 -0.3709 -1.3962
 1558SOL    HW2 5075   6.052   2.525   5.024 -2.6569  0.6897 -2.3970
 1559SOL     OW 5076   0.348   2.533   5.061 -0.2596  1.1450  0.5709
 1559SOL    HW1 5077   0.409   2.511   5.132 -1.3134 -0.9771  0.9014
 1559SOL    HW2 5078   0.265   2.552   5.105 -1.6989 -2.8400 -0.0133
 1560SOL     OW 5079   5.656   1.321   0.998 -0.1314 -0.1175  0.4866
 1560SOL    HW1 5080   5.735   1.270   1.018 -0.0097  0.1243  0.6239
 1560SOL    HW2 5081   5.680   1.411   1.020 -1.2095 -0.3308  2.8471
 1561SOL     OW 5082   6.374   3.981   6.112 -0.1903 -0.0215  0.3118
 1561SOL    HW1 5083   6.392   3.907   6.169  0.1131  0.6205  1.0718
 1561SOL    HW2 5084   6.287   4.011   6.138 -0.4494 -0.3134 -0.2182
 1562SOL     OW 5085   3.950   1.708   5.578  0.1996  0.2317  0.3284
 1562SOL    HW1 5086   4.038   1.687   5.547  1.3824  2.2362  2.0633
 1562SOL    HW2 5087   3.919   1.775   5.517 -0.3297 -0.7377 -0.5044
 1563SOL     OW 5088   1.940   0.641   0.025 -0.5150  0.2740 -0.0303
 1563SOL    HW1 5089   2.027   0.614   0.052  0.0880  0.9622 -1.2131
 1563SOL    HW2 5090   1.885   0.626   0.102  0.2897 -1.7587  0.2172
 1564SOL     OW 5091   0.536   0.816   5.101  0.0826 -0.7089 -0.0359
 1564SOL    HW1 5092   0.447   0.832   5.069  0.2919 -2.1839 -1.4924
 1564SOL    HW2 5093   0.539   0.860   5.186 -2.4558 -1.6389  0.6349
 1565SOL     OW 5094   1.400   2.995   2.451 -0.0918  0.6281 -0.7164
 1565SOL    HW1 5095   1.331   2.937   2.482  0.8338 -0.2488 -0.2252
 1565SOL    HW2 5096   1.444   2.946   2.382 -0.1090  1.2789 -1.2045
 1566SOL     OW 5097   1.727   0.186   0.197  0.0988  0.1996 -0.2629
 1566SOL    HW1 5098   1.822   0.174   0.199  0.3767  1.7493 -1.8948
 1566SOL    HW2 5099   1.702   0.193   0.289  1.2787 -1.9685  0.2936
 1567SOL     OW 5100   2.757   1.489   5.820  0.7884  0.0959  0.3981
 1567SOL    HW1 5101   2.757   1.395   5.807  0.5881  0.3099 -1.3893
 1567SOL    HW2 5102   2.716   1.502   5.905 -1.5119 -1.3029 -0.4153
 1568SOL     OW 5103   3.094   2.872   0.833  0.0615  0.2991  0.2783
 1568SOL    HW1 5104   3.041   2.802   0.796 -1.7310  2.3623 -1.3466
 1568SOL    HW2 5105   3.031   2.930   0.875  0.7721  3.1780 -2.2547
 1569SOL     OW 5106   0.193   4.607   5.006 -0.5082 -0.1734  0.4053
 1569SOL    HW1 5107   0.125   4.540   5.003 -1.4390  0.6682  1.7803
 1569SOL    HW2 5108   0.275   4.558   5.003 -1.1654 -1.3129  0.4098
 1570SOL     OW 5109   2.078   1.677   1.019 -0.7696 -0.2865 -0.2855
 1570SOL    HW1 5110   2.173   1.679   1.033 -0.8964  1.2415  0.5757
 1570SOL    HW2 5111   2.042   1.727   1.092 -2.0358  1.6574 -2.1032
 1571SOL     OW 5112   1.950   6.072   3.497 -0.1518  0.1156  0.6400
 1571SOL    HW1 5113   1.989   6.030   3.421 -0.5158 -1.8659  1.4814
 1571SOL    HW2 5114   1.858   6.046   3.495 -0.4885  1.1995  1.0142
 1572SOL     OW 5115   4.649   3.195   5.660 -0.3785 -0.2798  0.1960
 1572SOL    HW1 5116   4.655   3.103   5.686 -0.1215 -0.4452 -0.4454
 1572SOL    HW2 5117   4.555   3.215   5.665 -0.2952 -0.0885  1.9534
 1573SOL     OW 5118   4.489   5.036   3.434  0.1074  0.5273 -0.6000
 1573SOL    HW1 5119   4.497   5.127   3.463 -0.5522  0.1456  0.8281
 1573SOL    HW2 5120   4.415   5.002   3.482  0.9179 -1.0557 -0.4259
 1574SOL     OW 5121   1.438   6.522   4.150  0.2235  0.5403  0.1213
 1574SOL    HW1 5122   1.472   6.445   4.104 -0.6579  0.8310 -1.0474
 1574SOL    HW2 5123   1.506   6.589   4.137 -0.1105  0.6864 -0.9688
 1575SOL     OW 5124   1.481   3.859   3.641  0.0179 -0.2545 -0.0104
 1575SOL    HW1 5125   1.559   3.846   3.587 -0.4169 -1.1832 -0.4246
 1575SOL    HW2 5126   1.417   3.897   3.581  1.0466  3.5895  0.9986
 1576SOL     OW 5127   0.833   2.039   3.603  0.0127 -0.1931  0.1424
 1576SOL    HW1 5128   0.816   1.957   3.557  0.8337 -0.8745  1.0205
 1576SOL    HW2 5129   0.842   2.014   3.694 -0.3555  0.9735  0.5204
 1577SOL     OW 5130   4.699   6.354   4.460 -0.3622 -0.0365 -0.0353
 1577SOL    HW1 5131   4.752   6.391   4.390  0.3281  1.3488  1.1750
 1577SOL    HW2 5132   4.674   6.267   4.427  0.4067  0.3411 -1.7412
 1578SOL     OW 5133   0.979   1.271   5.274  0.2792 -0.1404  0.2094
 1578SOL    HW1 5134   0.958   1.364   5.284 -2.2718 -0.4326 -1.3026
 1578SOL    HW2 5135   1.026   1.266   5.190 -1.5318 -0.3441 -0.8671
 1579SOL     OW 5136   5.928   4.511   5.660 -0.1634  0.8606 -0.1225
 1579SOL    HW1 5137   5.858   4.483   5.600 -0.3434 -0.0907  0.5021
 1579SOL    HW2 5138   5.881   4.555   5.731 -0.2414 -0.4862  0.7038
 1580SOL     OW 5139   4.665   0.640   6.290 -0.1277  0.8735  0.2542
 1580SOL    HW1 5140   4.705   0.554   6.282 -1.9316 -0.0922  1.1282
 1580SOL    HW2 5141   4.645   0.666   6.200 -0.0648  0.1329  0.0251
 1581SOL     OW 5142   3.485   3.375   0.296  0.3659 -0.0133  0.2337
 1581SOL    HW1 5143   3.563   3.406   0.250  0.5280 -0.7936 -0.0369
 1581SOL    HW2 5144   3.519   3.339   0.378  0.0761  1.4150  1.0269
 1582SOL     OW 5145   5.941   0.680   2.019  0.0722  0.0271  0.1159
 1582SOL    HW1 5146   5.944   0.763   2.067 -0.2208  0.8800 -1.2779
 1582SOL    HW2 5147   6.008   0.626   2.059  2.1837  1.9287 -0.6711
 1583SOL     OW 5148   0.400   0.886   1.659 -0.0545  0.4417  0.4686
 1583SOL    HW1 5149   0.479   0.850   1.699 -0.0404  0.0271  0.0773
 1583SOL    HW2 5150   0.418   0.980   1.649  0.5801  0.2623 -0.0715
 1584SOL     OW 5151   0.024   4.959   5.345 -0.7767  0.0179  0.0445
 1584SOL    HW1 5152   0.120   4.959   5.346 -0.7728  0.6527  0.1578
 1584SOL    HW2 5153  -0.001   5.023   5.412 -1.2608  0.9364 -0.9896
 1585SOL     OW 5154   6.246   6.695   4.699 -0.3259 -0.4138 -0.3596
 1585SOL    HW1 5155   6.233   6.729   4.610  0.7610 -0.0475 -0.3971
 1585SOL    HW2 5156   6.320   6.745   4.733 -1.0316 -0.2195  0.9431
 1586SOL     OW 5157   0.202   1.787   2.686  0.1731 -0.0536  0.5259
 1586SOL    HW1 5158   0.234   1.843   2.616  0.5026  0.9215  1.4241
 1586SOL    HW2 5159   0.232   1.699   2.663  2.1349  0.5768  0.5260
 1587SOL     OW 5160   0.034   0.954   2.913 -0.4513  0.2943  0.3304
 1587SOL    HW1 5161  -0.007   1.018   2.970 -2.7910 -1.4705  0.7837
 1587SOL    HW2 5162   0.004   0.977   2.825 -0.7601  0.2006  0.4113
 1588SOL     OW 5163   5.003   0.048   5.691 -0.3944  0.1700  0.5129
 1588SOL    HW1 5164   4.977  -0.003   5.615 -2.1803  1.0303  0.4903
 1588SOL    HW2 5165   5.034  -0.017   5.754 -1.1883 -0.8003 -0.0647
 1589SOL     OW 5166   2.248   5.862   3.961 -0.4428 -0.0623  0.3653
 1589SOL    HW1 5167   2.286   5.945   3.931  2.3632 -2.2453 -2.7952
 1589SOL    HW2 5168   2.172   5.849   3.904  0.1220 -0.4505 -0.3010
 1590SOL     OW 5169   4.909   0.054   2.427 -0.0407 -0.2999 -0.1148
 1590SOL    HW1 5170   4.921   0.085   2.337 -1.3618  1.5228  0.2825
 1590SOL    HW2 5171   4.994   0.017   2.451  0.4572 -0.4736 -1.9616
 1591SOL     OW 5172   4.875   5.729   6.567 -0.1976  0.3154  0.2940
 1591SOL    HW1 5173   4.860   5.681   6.649  0.1649  0.2733  0.3352
 1591SOL    HW2 5174   4.930   5.670   6.515  0.9054  0.9956  0.6488
 1592SOL     OW 5175   5.646   2.478   3.004  0.2883 -0.2673 -0.7025
 1592SOL    HW1 5176   5.621   2.386   3.019  1.3189 -0.5142 -0.4543
 1592SOL    HW2 5177   5.565   2.519   2.973 -0.0153 -1.4351 -1.5513
 1593SOL     OW 5178   1.077   2.455   4.523  0.2081 -0.2958 -0.3618
 1593SOL    HW1 5179   0.997   2.505   4.506  0.6104  0.5171  0.0752
 1593SOL    HW2 5180   1.101   2.479   4.613 -0.0861 -1.9873  0.1945
 1594SOL     OW 5181   6.032   1.435   4.414  0.4811 -0.1129  1.0965
 1594SOL    HW1 5182   5.945   1.447   4.452  1.1277  2.2788  2.0481
 1594SOL    HW2 5183   6.091   1.437   4.489  1.5172  1.0624  0.2975
 1595SOL     OW 5184   6.077   2.353   1.499  0.5188  0.2334 -0.8623
 1595SOL    HW1 5185   6.110   2.276   1.545  0.0057  0.6984  0.3343
 1595SOL    HW2 5186   5.984   2.337   1.488  0.2407  1.0404  0.1816
 1596SOL     OW 5187   4.416   3.463   3.805 -0.5684  0.0292 -0.3124
 1596SOL    HW1 5188   4.436   3.441   3.714 -0.9844 -1.2015 -0.1309
 1596SOL    HW2 5189   4.455   3.392   3.856 -1.8004 -0.1968  0.3403
 1597SOL     OW 5190   5.861   3.361   1.414 -0.6996 -0.0543 -0.0724
 1597SOL    HW1 5191   5.820   3.443   1.387  0.8153  0.4394 -0.9969
 1597SOL    HW2 5192   5.839   3.299   1.345  0.2799  0.2834 -0.7114
 1598SOL     OW 5193   5.338   2.099   6.343 -0.4715 -0.0253  0.3443
 1598SOL    HW1 5194   5.400   2.097   6.270  1.0235 -1.2711  1.5792
 1598SOL    HW2 5195   5.309   2.008   6.351 -1.7490  0.3679  0.4190
 1599SOL     OW 5196   5.007   5.159   1.679 -0.0552  0.7184 -0.7613
 1599SOL    HW1 5197   4.954   5.200   1.611 -0.5733  0.7675 -0.3411
 1599SOL    HW2 5198   5.001   5.065   1.661 -0.5318  0.7054 -0.5462
 1600SOL     OW 5199   5.714   5.272   1.901 -0.4850  0.1005 -0.2953
 1600SOL    HW1 5200   5.646   5.283   1.835 -1.7914  0.2929  1.0204
 1600SOL    HW2 5201   5.729   5.178   1.905 -1.5521 -0.0647  0.2160
 1601SOL     OW 5202   2.923   5.471   0.947 -0.0936 -0.4922 -0.0392
 1601SOL    HW1 5203   2.899   5.379   0.946 -0.8720 -0.2910 -0.5100
 1601SOL    HW2 5204   2.939   5.493   0.855  3.4991 -0.9936  0.3256
 1602SOL     OW 5205   5.796   5.034   1.214 -0.3627  0.2427 -0.5172
 1602SOL    HW1 5206   5.709   5.068   1.235 -0.0662 -0.3102  1.9765
 1602SOL    HW2 5207   5.851   5.064   1.286  1.2501 -0.4579 -1.4022
 1603SOL     OW 5208   1.007   3.401   5.874 -0.3834  0.5075  0.1205
 1603SOL    HW1 5209   1.004   3.310   5.846  0.9856  0.4141  0.2308
 1603SOL    HW2 5210   0.915   3.427   5.881 -0.9258 -1.6435  2.5676
 1604SOL     OW 5211   3.965   6.560   0.306  0.2366 -0.0634  0.2810
 1604SOL    HW1 5212   3.943   6.598   0.221  2.5815 -0.4021 -0.5800
 1604SOL    HW2 5213   4.012   6.629   0.353  0.2259 -0.3313  0.6959
 1605SOL     OW 5214   4.950   3.159   3.091 -0.4124 -0.1473  0.1514
 1605SOL    HW1 5215   4.984   3.101   3.023 -1.9437 -1.4423  0.4463
 1605SOL    HW2 5216   4.943   3.104   3.169  0.2887  1.0413  1.1017
 1606SOL     OW 5217   0.810   4.593   0.218  0.3346  0.3169  0.4325
 1606SOL    HW1 5218   0.720   4.560   0.219 -0.2063  1.6619 -0.5842
 1606SOL    HW2 5219   0.863   4.518   0.193 -0.4793 -0.5255  1.1592
 1607SOL     OW 5220   4.433   4.515   1.700 -0.1018  0.3936 -0.4939
 1607SOL    HW1 5221   4.476   4.589   1.742 -1.0313  0.5150  0.2822
 1607SOL    HW2 5222   4.364   4.554   1.646  0.3104  0.1646 -1.2011
 1608SOL     OW 5223   3.504   6.616   1.581 -0.2264  0.8796 -0.3095
 1608SOL    HW1 5224   3.482   6.649   1.494  0.2161 -0.8744 -1.1172
 1608SOL    HW2 5225   3.460   6.531   1.587  2.4074 -0.5677 -0.1597
 1609SOL     OW 5226   6.042   4.575   2.221 -0.1074 -0.0215  0.2692
 1609SOL    HW1 5227   6.127   4.568   2.177 -0.2304 -1.1384  0.1759
 1609SOL    HW2 5228   6.007   4.659   2.192  0.2227 -0.3100 -1.0660
 1610SOL     OW 5229   2.123   1.114   6.166  0.2837  0.1946  0.0488
 1610SOL    HW1 5230   2.108   1.160   6.248 -0.3279 -0.7919  0.5089
 1610SOL    HW2 5231   2.209   1.072   6.178 -0.5605 -1.3805  0.9052
 1611SOL     OW 5232   5.440   2.120   2.343  0.4011 -0.6297  0.1911
 1611SOL    HW1 5233   5.364   2.176   2.324  0.8020 -0.2039 -0.2004
 1611SOL    HW2 5234   5.514   2.167   2.304  0.7329 -1.5010 -0.2437
 1612SOL     OW 5235   4.174   0.486   4.785 -0.0023  0.4615  0.1888
 1612SOL    HW1 5236   4.219   0.402   4.789  0.3620  0.6610  0.3068
 1612SOL    HW2 5237   4.094   0.472   4.837  0.4422  0.4211  0.8698
 1613SOL     OW 5238   4.088   1.701   6.482  0.0078  0.3228 -0.0607
 1613SOL    HW1 5239   4.013   1.643   6.500  1.2495 -0.9626  1.2615
 1613SOL    HW2 5240   4.148   1.685   6.555  3.1098 -1.3277 -2.7040
 1614SOL     OW 5241   6.481   3.500   2.634 -0.5622 -0.3162  0.3188
 1614SOL    HW1 5242   6.542   3.440   2.677 -0.0132  0.8206  1.1576
 1614SOL    HW2 5243   6.435   3.445   2.570 -0.1619 -1.6577  1.1404
 1615SOL     OW 5244   6.760   3.116   6.163  0.2704  0.2616  1.0602
 1615SOL    HW1 5245   6.837   3.173   6.165 -0.2433  0.9482  1.9731
 1615SOL    HW2 5246   6.766   3.065   6.243  0.5372 -0.7357  0.4189
 1616SOL     OW 5247   4.188   1.203   5.141  0.3061 -0.2805 -0.0380
 1616SOL    HW1 5248   4.150   1.126   5.098  2.0458 -1.6940  0.8054
 1616SOL    HW2 5249   4.198   1.177   5.232  1.7776  0.5804  0.0761
 1617SOL     OW 5250   2.628   2.530   0.159  0.6670 -0.4382  0.0073
 1617SOL    HW1 5251   2.674   2.553   0.078  0.3688 -0.2344 -0.1063
 1617SOL    HW2 5252   2.693   2.546   0.228  0.3941  1.0357 -0.0372
 1618SOL     OW 5253   1.036   4.399   4.684 -0.1267 -0.0998 -0.4365
 1618SOL    HW1 5254   1.120   4.428   4.647 -0.6840 -0.5908 -2.1979
 1618SOL    HW2 5255   1.039   4.427   4.775  1.0383  1.8593 -1.0128
 1619SOL     OW 5256   0.457   1.376   6.706 -0.6750 -0.0135  0.2568
 1619SOL    HW1 5257   0.365   1.388   6.681 -0.6136 -1.2545 -0.6557
 1619SOL    HW2 5258   0.454   1.358   6.800 -1.0376  3.2475  0.9958
 1620SOL     OW 5259   4.086   3.801   2.440 -0.0646  0.2981  0.4961
 1620SOL    HW1 5260   4.077   3.881   2.388 -2.3248  0.9408  1.7352
 1620SOL    HW2 5261   4.049   3.732   2.386 -3.4493  1.1467  1.5139
 1621SOL     OW 5262   0.844   0.095   6.495 -0.0528 -0.1193 -0.0642
 1621SOL    HW1 5263   0.827   0.093   6.589  1.8973 -0.5018  0.3183
 1621SOL    HW2 5264   0.853   0.189   6.475  2.3282 -0.1009  0.7447
 1622SOL     OW 5265   0.977   3.697   6.136 -0.1223  0.1738  0.2653
 1622SOL    HW1 5266   0.926   3.659   6.065 -0.3009  0.7531  0.0780
 1622SOL    HW2 5267   1.068   3.692   6.106 -0.2473  0.9931 -0.2921
 1623SOL     OW 5268   3.202   2.662   5.888 -0.0063  0.4058 -0.1612
 1623SOL    HW1 5269   3.132   2.642   5.827 -0.2237  0.5327  0.0460
 1623SOL    HW2 5270   3.158   2.679   5.971  0.3559 -0.9058  0.3304
 1624SOL     OW 5271   5.324   0.726   2.932 -0.2965  0.1805  0.0892
 1624SOL    HW1 5272   5.279   0.643   2.948 -1.0386  0.9052  2.1278
 1624SOL    HW2 5273   5.279   0.763   2.856 -1.3476 -0.3557  0.4200
 1625SOL     OW 5274   2.252   6.168   1.524 -0.0973 -0.3204 -0.1812
 1625SOL    HW1 5275   2.331   6.117   1.505  0.9808  0.3305  2.1504
 1625SOL    HW2 5276   2.217   6.130   1.605  0.3606  2.0551  1.2661
 1626SOL     OW 5277   4.352   4.109   0.820 -0.2963  0.1858 -0.2039
 1626SOL    HW1 5278   4.354   4.191   0.771 -0.1838 -0.5505 -1.4566
 1626SOL    HW2 5279   4.268   4.069   0.797 -1.3401  0.9039  2.0615
 1627SOL     OW 5280   6.559   1.315   0.581 -0.6483  0.3467  0.7306
 1627SOL    HW1 5281   6.569   1.311   0.676 -0.3065  0.0967  0.6862
 1627SOL    HW2 5282   6.529   1.228   0.555  0.1487  0.1308  0.5119
 1628SOL     OW 5283   4.450   4.340   3.346 -0.1535 -0.2563 -0.7259
 1628SOL    HW1 5284   4.509   4.273   3.380  1.0610  1.4620  0.6946
 1628SOL    HW2 5285   4.457   4.412   3.407 -0.5635  1.6474 -2.7861
 1629SOL     OW 5286   6.183   3.857   0.937  0.7130 -0.2018  0.1967
 1629SOL    HW1 5287   6.142   3.796   0.876  0.7013  1.3582 -1.4495
 1629SOL    HW2 5288   6.209   3.931   0.882  2.0742  0.6216  1.8689
 1630SOL     OW 5289   2.332   5.309   0.640  0.0865 -0.2672  0.3205
 1630SOL    HW1 5290   2.362   5.383   0.588 -0.6931  0.3885  0.7809
 1630SOL    HW2 5291   2.305   5.243   0.576  1.5342 -0.4847 -0.0973
 1631SOL     OW 5292   0.041   5.138   5.560  0.3878  0.2888  0.3589
 1631SOL    HW1 5293   0.025   5.132   5.654  1.3220  0.1016  0.5162
 1631SOL    HW2 5294   0.115   5.198   5.551  0.8606 -0.3540 -0.1894
 1632SOL     OW 5295   1.905   4.164   6.494 -0.3964  0.1882 -0.2080
 1632SOL    HW1 5296   1.862   4.081   6.474  1.5903 -1.1005  0.6070
 1632SOL    HW2 5297   1.956   4.184   6.415  0.1819 -0.0929  0.0856
 1633SOL     OW 5298   1.664   6.719   5.173 -0.1953 -0.4148 -0.2670
 1633SOL    HW1 5299   1.626   6.761   5.251 -2.8127 -1.5443 -0.8298
 1633SOL    HW2 5300   1.758   6.738   5.179 -0.6190  1.4671  1.9375
 1634SOL     OW 5301   3.435   0.074   3.156 -0.5905 -0.7667  0.4579
 1634SOL    HW1 5302   3.443   0.162   3.192 -0.6817 -0.7229  0.3748
 1634SOL    HW2 5303   3.361   0.035   3.202 -0.9785 -0.5592  0.0255
 1635SOL     OW 5304   4.630   2.825   1.934  0.0284  0.0869  0.6031
 1635SOL    HW1 5305   4.671   2.777   1.862 -1.1030  1.5035 -1.0759
 1635SOL    HW2 5306   4.559   2.768   1.964  0.2692 -0.3502  0.3479
 1636SOL     OW 5307   0.530   1.259   4.659 -0.2151 -0.4214 -0.2107
 1636SOL    HW1 5308   0.485   1.175   4.666 -0.7181 -0.1631 -0.2614
 1636SOL    HW2 5309   0.605   1.251   4.717 -1.8524  0.1027  2.1745
 1637SOL     OW 5310   5.013   2.669   0.086  0.0901 -0.2125 -0.3233
 1637SOL    HW1 5311   4.959   2.652   0.009 -0.9609 -1.0521  0.5728
 1637SOL    HW2 5312   5.020   2.764   0.090  0.1046 -0.1558 -1.4039
 1638SOL     OW 5313   0.502   2.745   0.392  0.1990 -0.2233 -0.5889
 1638SOL    HW1 5314   0.431   2.692   0.426  0.0123  0.3999  0.0258
 1638SOL    HW2 5315   0.484   2.834   0.424  1.7052 -0.2016  0.3386
 1639SOL     OW 5316   5.200   4.985   5.490  0.0048 -0.1886  0.0138
 1639SOL    HW1 5317   5.207   5.038   5.569  0.0446 -3.0883  2.0758
 1639SOL    HW2 5318   5.108   4.990   5.466  0.3728  2.6241 -1.3272
 1640SOL     OW 5319   6.227   0.090   4.464 -0.2569 -0.2536 -0.0008
 1640SOL    HW1 5320   6.173   0.133   4.399 -0.3888 -0.3583  0.0376
 1640SOL    HW2 5321   6.250   0.159   4.527  0.0650 -0.1022 -0.2820
 1641SOL     OW 5322   6.009   1.298   5.880 -0.4155 -0.8707 -0.5919
 1641SOL    HW1 5323   5.984   1.321   5.790 -1.2323 -0.3441 -0.2368
 1641SOL    HW2 5324   6.087   1.243   5.869 -0.1531 -0.3283 -1.5986
 1642SOL     OW 5325   0.988   6.300   1.639  0.1170 -0.0404  0.1796
 1642SOL    HW1 5326   1.028   6.359   1.703  1.5101 -1.3290  0.5427
 1642SOL    HW2 5327   1.024   6.328   1.555 -0.5791  0.7008  0.1040
 1643SOL     OW 5328   1.634   3.195   1.128  0.5324  0.6368  0.5032
 1643SOL    HW1 5329   1.612   3.288   1.126  2.1606  1.0661  1.1808
 1643SOL    HW2 5330   1.584   3.160   1.201  0.9567  1.2783  1.1131
 1644SOL     OW 5331   3.099   4.665   2.600 -0.6074 -0.0384  0.2165
 1644SOL    HW1 5332   3.084   4.707   2.515 -1.1587  0.3785  0.5051
 1644SOL    HW2 5333   3.052   4.721   2.662  1.8370  1.0852  1.1547
 1645SOL     OW 5334   4.350   5.303   4.841 -0.3193  0.1708 -0.7819
 1645SOL    HW1 5335   4.323   5.390   4.869 -0.5494  0.4355 -1.8037
 1645SOL    HW2 5336   4.347   5.250   4.922 -0.9250  0.9163 -0.3042
 1646SOL     OW 5337   3.444   4.710   0.667 -0.1600 -0.5918  0.2083
 1646SOL    HW1 5338   3.535   4.720   0.640  0.1527  2.0555  1.8382
 1646SOL    HW2 5339   3.396   4.701   0.585  1.4951 -1.8103 -0.6998
 1647SOL     OW 5340   6.270   1.540   2.390 -0.5295 -0.3737  0.0068
 1647SOL    HW1 5341   6.237   1.561   2.477  1.6725 -0.0058  0.8007
 1647SOL    HW2 5342   6.260   1.445   2.382 -0.8160 -0.3968  0.6213
 1648SOL     OW 5343   5.118   4.579   1.297 -0.4078  0.0156  1.0789
 1648SOL    HW1 5344   5.212   4.570   1.278 -0.5132  0.7783  0.1264
 1648SOL    HW2 5345   5.115   4.636   1.374 -0.0753 -0.5538  1.5240
 1649SOL     OW 5346   2.518   0.550   5.941  0.4393  0.0650 -0.4182
 1649SOL    HW1 5347   2.446   0.516   5.888  2.7935 -2.5941 -2.1954
 1649SOL    HW2 5348   2.500   0.518   6.029 -0.8646  0.0339 -0.6735
 1650SOL     OW 5349   5.226   2.611   6.666  0.0429  0.1685  0.6287
 1650SOL    HW1 5350   5.235   2.696   6.622 -0.3242  0.0707  0.3599
 1650SOL    HW2 5351   5.158   2.626   6.731 -0.3010 -0.0229  0.3161
 1651SOL     OW 5352   5.927   4.835   2.162  0.2317 -0.0688  0.2385
 1651SOL    HW1 5353   5.839   4.872   2.153  0.1848  0.1492  1.4586
 1651SOL    HW2 5354   5.971   4.893   2.224  0.3681 -1.6498  1.7183
 1652SOL     OW 5355   0.690   5.334   5.122  0.0095  0.1925  0.2461
 1652SOL    HW1 5356   0.698   5.265   5.188  1.9028 -0.1784 -0.3111
 1652SOL    HW2 5357   0.623   5.300   5.061  1.0529 -1.2909 -0.1357
 1653SOL     OW 5358   6.389   3.102   6.336  0.1805 -0.4143 -0.2798
 1653SOL    HW1 5359   6.407   3.135   6.423  0.2028  1.8524 -1.0808
 1653SOL    HW2 5360   6.294   3.088   6.335 -0.1167  1.4525 -0.4682
 1654SOL     OW 5361   0.214   2.988   0.206  0.2604  0.2082  0.1351
 1654SOL    HW1 5362   0.253   2.903   0.188  0.8636  0.7039 -1.0204
 1654SOL    HW2 5363   0.121   2.976   0.189 -0.0054 -0.7242  1.9483
 1655SOL     OW 5364   5.145   0.743   3.630  0.4136 -0.5266  0.3903
 1655SOL    HW1 5365   5.061   0.739   3.676  0.9515 -3.4650  1.3082
 1655SOL    HW2 5366   5.170   0.836   3.635 -2.5379  0.3857  0.4147
 1656SOL     OW 5367   4.054   3.708   4.226 -0.2412 -0.0038 -0.4739
 1656SOL    HW1 5368   4.021   3.667   4.146 -1.0865  2.1578 -1.3301
 1656SOL    HW2 5369   4.029   3.800   4.217  0.3756  0.4614  1.9211
 1657SOL     OW 5370   4.191   0.076   3.235  0.4306  0.4504 -0.3135
 1657SOL    HW1 5371   4.115   0.135   3.234 -1.6805 -2.0392 -2.2060
 1657SOL    HW2 5372   4.231   0.088   3.149 -0.3793 -1.1875 -0.9548
 1658SOL     OW 5373   5.894   5.429   2.325  0.2700  0.1103 -0.0493
 1658SOL    HW1 5374   5.914   5.347   2.279 -0.0827  0.6062 -1.1193
 1658SOL    HW2 5375   5.980   5.466   2.344  0.4554 -0.9766  1.3417
 1659SOL     OW 5376   0.893   4.038   1.183 -0.1394  0.5201  0.0216
 1659SOL    HW1 5377   0.816   3.991   1.152 -1.9117  2.3199  1.4394
 1659SOL    HW2 5378   0.945   4.052   1.104 -0.8439 -1.4122 -0.8546
 1660SOL     OW 5379   2.954   3.914   6.607 -0.2465 -0.3800  0.0508
 1660SOL    HW1 5380   2.997   3.964   6.538 -0.9310 -0.5811 -0.5329
 1660SOL    HW2 5381   2.861   3.920   6.587 -0.5574  0.5581  1.6369
 1661SOL     OW 5382   1.765   2.611   1.012  0.2091 -0.0899  0.2019
 1661SOL    HW1 5383   1.768   2.636   1.105  0.1350 -2.3817  0.8922
 1661SOL    HW2 5384   1.849   2.567   0.997  0.0775 -0.0321 -0.7328
 1662SOL     OW 5385   3.653   5.157   0.013 -0.4153 -0.0202  0.4366
 1662SOL    HW1 5386   3.607   5.231  -0.028 -2.3900 -1.7573 -0.6734
 1662SOL    HW2 5387   3.707   5.120  -0.056 -2.1476 -1.6830 -0.1178
 1663SOL     OW 5388   2.261   4.045   3.881 -0.5581 -0.4579 -0.0137
 1663SOL    HW1 5389   2.234   4.070   3.970 -2.7948 -0.5867 -0.5994
 1663SOL    HW2 5390   2.271   4.128   3.835 -2.4296 -0.4210 -0.4300
 1664SOL     OW 5391   0.738   0.369   2.504  0.3828  0.4103 -0.1308
 1664SOL    HW1 5392   0.774   0.430   2.567  0.4711 -0.5373  0.7580
 1664SOL    HW2 5393   0.647   0.396   2.493 -0.5493 -1.2098  2.7571
 1665SOL     OW 5394   6.154   1.253   4.010  0.3103 -0.2205 -0.0477
 1665SOL    HW1 5395   6.202   1.170   4.009 -0.5758 -0.7483 -1.1350
 1665SOL    HW2 5396   6.068   1.232   3.973  0.0143  1.1585 -0.2082
 1666SOL     OW 5397   2.571   2.722   2.923  0.3579 -0.3868 -0.0260
 1666SOL    HW1 5398   2.542   2.723   2.832  0.5739 -1.0985 -0.1126
 1666SOL    HW2 5399   2.494   2.745   2.974  0.1214 -0.4247 -0.3656
 1667SOL     OW 5400   4.934   2.129   5.257 -0.0874 -0.0979 -0.5114
 1667SOL    HW1 5401   5.003   2.078   5.301  0.6981  1.6706  0.4005
 1667SOL    HW2 5402   4.957   2.220   5.275 -4.3210  0.6759  2.5667
 1668SOL     OW 5403   6.700   5.644   2.288  0.4858 -0.0907  0.7837
 1668SOL    HW1 5404   6.708   5.662   2.381  0.1666 -0.0364  0.8005
 1668SOL    HW2 5405   6.709   5.549   2.281 -2.3062 -0.4587  1.1891
 1669SOL     OW 5406   3.585   1.363   0.186  0.2733  0.3721 -0.9145
 1669SOL    HW1 5407   3.505   1.338   0.232  0.3261  1.4741 -0.1914
 1669SOL    HW2 5408   3.574   1.326   0.098 -0.6718 -0.1541 -0.5945
 1670SOL     OW 5409   0.345   6.227   6.134 -0.3897  0.3567 -0.9205
 1670SOL    HW1 5410   0.305   6.248   6.050 -0.3543  2.1122 -0.5452
 1670SOL    HW2 5411   0.439   6.229   6.117 -0.3680  1.1841 -0.7699
 1671SOL     OW 5412   3.670   2.700   5.543  0.5764  0.5472  0.5588
 1671SOL    HW1 5413   3.580   2.671   5.558 -0.0194  1.8517 -0.2336
 1671SOL    HW2 5414   3.675   2.713   5.448  1.7508  0.0694  0.5419
 1672SOL     OW 5415   4.822   3.904   2.755 -0.1139 -0.1131  0.2204
 1672SOL    HW1 5416   4.757   3.974   2.761 -0.2823 -0.1792 -0.6129
 1672SOL    HW2 5417   4.896   3.944   2.709  0.1579 -0.2234  0.5635
 1673SOL     OW 5418   1.017   2.754   4.520  0.8303  0.2759 -0.0397
 1673SOL    HW1 5419   1.046   2.712   4.601 -0.0804  1.4921  0.9687
 1673SOL    HW2 5420   1.096   2.793   4.483  1.0245  1.0196  1.1066
 1674SOL     OW 5421   5.479   1.209   1.195 -0.3350 -0.3896  0.2024
 1674SOL    HW1 5422   5.533   1.259   1.133  0.1538 -0.7995  0.2942
 1674SOL    HW2 5423   5.533   1.134   1.219 -0.5182 -0.2291  1.1473
 1675SOL     OW 5424   1.023   0.013   1.898 -0.5777 -0.8234  0.1525
 1675SOL    HW1 5425   0.972   0.036   1.821 -0.8122 -0.2108  0.4883
 1675SOL    HW2 5426   1.046   0.097   1.938  1.2747 -1.0490 -0.3640
 1676SOL     OW 5427   2.264   0.381   0.470  0.4806  0.1665 -0.5156
 1676SOL    HW1 5428   2.287   0.297   0.432  0.3256  0.4657 -1.2726
 1676SOL    HW2 5429   2.186   0.364   0.523  1.8433 -0.6647  1.3148
 1677SOL     OW 5430   6.129   0.359   2.780  0.0222  0.2991  0.0797
 1677SOL    HW1 5431   6.221   0.354   2.755  0.1721  0.5996  0.5588
 1677SOL    HW2 5432   6.112   0.276   2.825 -0.1950 -0.1539 -0.8174
 1678SOL     OW 5433   2.061   3.025   4.989  0.1955 -0.1632 -0.4385
 1678SOL    HW1 5434   2.033   3.112   4.960  1.4760  0.3078 -0.3311
 1678SOL    HW2 5435   2.102   2.986   4.912 -0.7711 -0.8747 -0.6161
 1679SOL     OW 5436   3.193   6.752   1.799  0.2132  0.4115 -1.0467
 1679SOL    HW1 5437   3.104   6.787   1.797  1.0623  3.0337  1.3048
 1679SOL    HW2 5438   3.247   6.823   1.764  1.6922  0.3152  0.8737
 1680SOL     OW 5439   5.229   2.237   2.248 -0.0342 -0.2943 -0.4835
 1680SOL    HW1 5440   5.219   2.332   2.242 -0.4913 -0.3681 -0.9906
 1680SOL    HW2 5441   5.139   2.204   2.239 -0.1691 -0.6821  1.7101
 1681SOL     OW 5442   6.486   5.063   0.291  0.5989  0.4594  0.4113
 1681SOL    HW1 5443   6.475   5.082   0.198  0.4358  0.1467  0.3668
 1681SOL    HW2 5444   6.397   5.063   0.326  0.7318  1.9102  0.8351
 1682SOL     OW 5445   5.167   4.059   2.137 -0.0528 -0.0973  0.0980
 1682SOL    HW1 5446   5.187   4.146   2.173 -1.0213  0.4426 -0.6307
 1682SOL    HW2 5447   5.244   4.037   2.084  0.0877  0.4385  0.0685
 1683SOL     OW 5448   4.016   2.232   0.524 -0.1897 -0.4714 -0.4581
 1683SOL    HW1 5449   4.076   2.175   0.476  0.8371  0.3020 -0.1264
 1683SOL    HW2 5450   3.938   2.237   0.469  0.0596 -1.4723 -0.9103
 1684SOL     OW 5451   6.361   3.829   4.183 -0.2199  0.3258 -0.1460
 1684SOL    HW1 5452   6.414   3.901   4.149 -1.8144  1.6948  0.1035
 1684SOL    HW2 5453   6.419   3.780   4.240  0.5018  2.4445  1.0423
 1685SOL     OW 5454   1.760   5.036   2.482  0.1488  0.2937 -0.4971
 1685SOL    HW1 5455   1.733   5.009   2.569 -0.2124 -2.2408 -1.3257
 1685SOL    HW2 5456   1.856   5.030   2.483  0.0938 -0.6805 -0.5471
 1686SOL     OW 5457   2.860   4.697   2.108  0.9529 -0.1240 -0.1295
 1686SOL    HW1 5458   2.828   4.616   2.069  0.3976  0.1328 -0.2164
 1686SOL    HW2 5459   2.956   4.689   2.106  0.9142 -0.4652 -0.7880
 1687SOL     OW 5460   6.016   3.429   2.869  0.6702  0.5275 -0.4799
 1687SOL    HW1 5461   5.924   3.413   2.891  0.9021 -0.1217  0.0459
 1687SOL    HW2 5462   6.037   3.510   2.916  0.2085  1.0193 -1.0922
 1688SOL     OW 5463   5.244   5.041   6.473  0.1430  0.5663  0.0461
 1688SOL    HW1 5464   5.208   5.038   6.562 -2.7160  2.6448 -0.8922
 1688SOL    HW2 5465   5.215   4.960   6.432  0.5240  0.1142  0.6512
 1689SOL     OW 5466   3.551   2.476   2.836  0.1919 -0.0662 -0.3566
 1689SOL    HW1 5467   3.610   2.427   2.779  2.2114  1.2000  0.5072
 1689SOL    HW2 5468   3.568   2.568   2.815 -0.7369  0.3644  0.6583
 1690SOL     OW 5469   3.449   3.427   5.103  0.4333 -0.2514 -0.4872
 1690SOL    HW1 5470   3.474   3.510   5.144  0.8056  0.4237 -2.0155
 1690SOL    HW2 5471   3.360   3.441   5.071  0.0029 -0.8996  0.3889
 1691SOL     OW 5472   0.219   1.539   4.947 -0.3476  0.0642  0.1761
 1691SOL    HW1 5473   0.254   1.455   4.979  0.1253  0.4214  0.6175
 1691SOL    HW2 5474   0.134   1.517   4.911 -0.2924 -0.5892  0.4216
 1692SOL     OW 5475   4.433   4.868   1.550 -0.3547 -0.1733 -0.5023
 1692SOL    HW1 5476   4.338   4.877   1.543 -0.3885 -0.8917 -1.1310
 1692SOL    HW2 5477   4.466   4.905   1.469  0.1390  2.8490  0.9536
 1693SOL     OW 5478   1.772   4.817   6.099  0.1535  0.0608  0.1861
 1693SOL    HW1 5479   1.790   4.750   6.034 -0.2526 -0.1910  0.3308
 1693SOL    HW2 5480   1.838   4.884   6.083  0.7823 -0.5323  0.2734
 1694SOL     OW 5481   4.214   1.588   3.916 -0.5239  0.5542 -0.2689
 1694SOL    HW1 5482   4.165   1.561   3.838 -1.4376 -0.6544  0.6765
 1694SOL    HW2 5483   4.274   1.516   3.932 -0.8789  0.4414  0.5781
 1695SOL     OW 5484   2.135   2.308   2.563 -0.1340  0.5866 -0.1321
 1695SOL    HW1 5485   2.134   2.381   2.502  0.2963  0.3089 -0.4771
 1695SOL    HW2 5486   2.107   2.233   2.511 -0.1538  0.4259  0.1100
 1696SOL     OW 5487   3.015   1.417   5.317 -0.2806  0.5339 -0.7041
 1696SOL    HW1 5488   3.086   1.381   5.370 -1.5085 -0.8168  0.0845
 1696SOL    HW2 5489   2.994   1.348   5.255  0.1604  1.5562 -2.0655
 1697SOL     OW 5490   5.394   0.430   2.545 -0.2964  0.3876  0.1565
 1697SOL    HW1 5491   5.408   0.425   2.639  1.5308  1.2285 -0.0129
 1697SOL    HW2 5492   5.312   0.479   2.535 -2.6294 -2.9717  1.2780
 1698SOL     OW 5493   3.699   4.317   1.794 -0.1516  0.2652 -0.5280
 1698SOL    HW1 5494   3.720   4.293   1.884 -2.3004  0.3962  0.0659
 1698SOL    HW2 5495   3.783   4.323   1.750  0.8717 -0.9676  1.1756
 1699SOL     OW 5496   3.530   0.168   4.336 -0.2007 -0.3939 -0.4182
 1699SOL    HW1 5497   3.496   0.255   4.317  0.4829 -0.1653 -0.6345
 1699SOL    HW2 5498   3.585   0.180   4.414 -1.0737 -0.8683  0.2814
 1700SOL     OW 5499   3.809   1.526   6.175  0.3257 -0.8229 -0.1758
 1700SOL    HW1 5500   3.782   1.507   6.265  0.3778 -0.3236 -0.0512
 1700SOL    HW2 5501   3.904   1.514   6.175  0.1693 -2.1957 -0.5171
 1701SOL     OW 5502   4.674   0.874   1.944  0.3669  0.8730  0.8136
 1701SOL    HW1 5503   4.619   0.830   2.010  1.7166 -0.8237  0.8706
 1701SOL    HW2 5504   4.757   0.889   1.989  0.7505  1.2189 -0.0114
 1702SOL     OW 5505   3.240   6.101   5.535  0.1809  0.7583 -0.2838
 1702SOL    HW1 5506   3.277   6.113   5.622  2.0245  0.8250 -1.0330
 1702SOL    HW2 5507   3.217   6.189   5.506  1.3533  0.9759 -0.5942
 1703SOL     OW 5508   1.253   0.067   6.076 -0.7737  0.4272 -0.0111
 1703SOL    HW1 5509   1.248   0.007   6.151  2.3430  0.8150  0.6703
 1703SOL    HW2 5510   1.309   0.138   6.107  0.3173  0.7736 -2.5695
 1704SOL     OW 5511   0.144   2.284   6.171  0.3027 -0.5882 -0.6281
 1704SOL    HW1 5512   0.091   2.249   6.243  0.0557  1.4551  0.2300
 1704SOL    HW2 5513   0.214   2.333   6.213  1.6757 -1.4550 -1.7855
 1705SOL     OW 5514   6.304   1.790   3.060  0.4267 -0.3288 -0.3832
 1705SOL    HW1 5515   6.258   1.858   3.110  0.5119  0.2252 -1.0384
 1705SOL    HW2 5516   6.384   1.833   3.030  1.2597 -1.2016  0.5145
 1706SOL     OW 5517   2.338   1.366   6.490  0.2658  0.1164  0.1778
 1706SOL    HW1 5518   2.272   1.381   6.559 -0.5303  0.7385 -0.6863
 1706SOL    HW2 5519   2.386   1.289   6.519 -0.0656  0.3499  1.4191
 1707SOL     OW 5520   5.052   6.248   1.018  0.3025 -0.2138  0.4842
 1707SOL    HW1 5521   4.986   6.192   0.978 -0.3640  1.1052 -0.3374
 1707SOL    HW2 5522   5.096   6.192   1.082  0.1403 -1.8673 -0.7939
 1708SOL     OW 5523   3.687   0.523   4.012  0.0512  0.3457  0.0369
 1708SOL    HW1 5524   3.764   0.519   3.955  0.4576  0.4409  0.5648
 1708SOL    HW2 5525   3.711   0.471   4.088 -1.3283 -1.6482 -0.8209
 1709SOL     OW 5526   2.096   5.960   6.170 -0.4628 -0.4580  0.1064
 1709SOL    HW1 5527   2.097   5.879   6.220  1.1887  0.1211  1.0724
 1709SOL    HW2 5528   2.090   5.932   6.079 -0.6758 -1.6215  0.4676
 1710SOL     OW 5529   3.485   2.061   5.617 -0.8348 -0.5453  0.3655
 1710SOL    HW1 5530   3.390   2.062   5.608 -0.6622 -0.2115 -1.9035
 1710SOL    HW2 5531   3.516   2.015   5.539  0.8259 -2.2350  1.9052
 1711SOL     OW 5532   5.548   1.154   6.560  0.3043 -0.0498 -0.1705
 1711SOL    HW1 5533   5.616   1.205   6.515 -0.3713 -1.2551 -2.7517
 1711SOL    HW2 5534   5.505   1.217   6.618  0.5786  1.9301 -1.9813
 1712SOL     OW 5535   2.050   6.028   2.412 -0.3403  0.8967  0.5534
 1712SOL    HW1 5536   1.957   6.010   2.398 -0.1621 -0.6091  1.0862
 1712SOL    HW2 5537   2.072   6.091   2.344 -1.1543 -0.7283 -1.3268
 1713SOL     OW 5538   5.736   3.485   4.955  0.6090  0.3699  1.0342
 1713SOL    HW1 5539   5.824   3.453   4.936 -0.1133 -0.3646 -1.5341
 1713SOL    HW2 5540   5.719   3.549   4.886 -2.2434 -2.3896 -1.1169
 1714SOL     OW 5541   3.866   5.957   1.391 -0.2382  0.4003  0.2843
 1714SOL    HW1 5542   3.835   6.034   1.437  1.3522  1.1098  0.2243
 1714SOL    HW2 5543   3.951   5.982   1.354  0.6719 -1.5700  0.8606
 1715SOL     OW 5544   0.177   0.069   1.869 -0.2897 -0.2435  0.1513
 1715SOL    HW1 5545   0.178   0.032   1.781  0.2413 -1.1677  0.5208
 1715SOL    HW2 5546   0.107   0.134   1.868  1.7488  2.1621 -1.9003
 1716SOL     OW 5547   1.881   0.423   2.795 -0.0022  0.0554 -0.3426
 1716SOL    HW1 5548   1.955   0.387   2.746 -0.1834  1.7507 -1.9598
 1716SOL    HW2 5549   1.914   0.505   2.833  0.2556 -1.3738  2.8472
 1717SOL     OW 5550   2.346   2.312   5.279 -0.0133 -0.5334  0.5530
 1717SOL    HW1 5551   2.345   2.256   5.201  0.1808 -0.7987  0.7389
 1717SOL    HW2 5552   2.377   2.255   5.349  2.0325  0.2470  0.3730
 1718SOL     OW 5553   2.107   3.109   5.219  0.0427  0.1899  0.4231
 1718SOL    HW1 5554   2.091   3.063   5.137  0.9879 -1.3899  1.0815
 1718SOL    HW2 5555   2.075   3.198   5.203 -2.8351 -0.9060 -0.5480
 1719SOL     OW 5556   0.448   1.882   1.061 -0.0676  0.1734  0.0490
 1719SOL    HW1 5557   0.452   1.889   0.965  1.2300 -0.5709  0.0195
 1719SOL    HW2 5558   0.539   1.891   1.089 -0.1581 -1.5244  1.0421
 1720SOL     OW 5559   3.610   2.494   3.568 -0.6547  0.7004  0.0048
 1720SOL    HW1 5560   3.613   2.531   3.480 -0.0217 -2.7472 -1.6105
 1720SOL    HW2 5561   3.523   2.454   3.574 -1.0412  1.6619  1.3829
 1721SOL     OW 5562   4.007   6.295   3.330 -0.4273  0.2772  0.0468
 1721SOL    HW1 5563   3.950   6.244   3.387 -0.5807 -0.9153 -1.1424
 1721SOL    HW2 5564   3.979   6.274   3.241  0.8962  0.8012 -0.5306
 1722SOL     OW 5565   1.269   4.725   4.771 -0.9314  0.5672  0.0989
 1722SOL    HW1 5566   1.226   4.661   4.829 -3.1960 -0.4488 -2.4826
 1722SOL    HW2 5567   1.301   4.673   4.698  2.8807  1.6672  0.7930
 1723SOL     OW 5568   0.458   6.401   4.870 -0.2711 -0.1427  0.4807
 1723SOL    HW1 5569   0.495   6.338   4.807 -0.3203  0.4959 -0.2011
 1723SOL    HW2 5570   0.530   6.418   4.931  0.1541  0.0918 -0.0720
 1724SOL     OW 5571   2.523   4.349   5.936  0.4281 -0.1775 -0.1318
 1724SOL    HW1 5572   2.470   4.358   5.857 -0.2684  0.7631  0.4341
 1724SOL    HW2 5573   2.548   4.256   5.937 -1.3745 -0.6943 -0.2980
 1725SOL     OW 5574   2.561   6.578   1.237 -0.9689  0.0587  0.1594
 1725SOL    HW1 5575   2.583   6.540   1.323 -1.2091  0.9266  0.6201
 1725SOL    HW2 5576   2.614   6.529   1.175  0.6856  0.6532  1.0128
 1726SOL     OW 5577   1.017   6.267   6.194  0.8114 -0.1402  0.2462
 1726SOL    HW1 5578   1.057   6.333   6.137  0.9045 -1.5779 -1.4049
 1726SOL    HW2 5579   1.083   6.251   6.262  0.9807  1.0732  0.4006
 1727SOL     OW 5580   0.944   2.521   1.091  0.2252  0.8737 -0.4198
 1727SOL    HW1 5581   0.976   2.587   1.030 -2.2606  4.2871  1.6106
 1727SOL    HW2 5582   0.952   2.562   1.177 -2.7051 -0.8776  0.8548
 1728SOL     OW 5583   1.860   4.367   2.325 -0.0895 -0.0029  0.4248
 1728SOL    HW1 5584   1.790   4.301   2.323  0.3432 -0.4555 -0.4074
 1728SOL    HW2 5585   1.818   4.448   2.297 -0.2208 -0.3451 -0.4016
 1729SOL     OW 5586   0.704   3.815   4.809  0.3979 -0.1245  0.3809
 1729SOL    HW1 5587   0.798   3.818   4.791  0.4009 -1.0038  0.1950
 1729SOL    HW2 5588   0.692   3.738   4.865 -0.2115 -0.0474  0.3704
 1730SOL     OW 5589   2.971   3.654   2.742  0.4757  0.2489 -0.1153
 1730SOL    HW1 5590   2.996   3.711   2.670 -0.4346  1.5314  0.5480
 1730SOL    HW2 5591   2.887   3.617   2.715 -0.3253  1.4490  0.6407
 1731SOL     OW 5592   1.149   3.897   1.487  0.5961  0.1233  0.0536
 1731SOL    HW1 5593   1.077   3.860   1.436 -1.2238 -0.8555  3.0617
 1731SOL    HW2 5594   1.122   3.987   1.504  1.5002  0.6444 -1.1610
 1732SOL     OW 5595   1.187   4.186   0.683 -0.2420 -0.3409 -0.0451
 1732SOL    HW1 5596   1.231   4.202   0.599 -2.8437  0.8234 -1.2971
 1732SOL    HW2 5597   1.146   4.100   0.672  1.5467 -1.4162  1.1141
 1733SOL     OW 5598   6.146   2.115   5.604  0.0173  0.0485  0.0732
 1733SOL    HW1 5599   6.183   2.100   5.691 -0.2572  0.2275  0.2235
 1733SOL    HW2 5600   6.179   2.042   5.551 -0.0848 -0.2471  0.4101
 1734SOL     OW 5601   6.314   2.207   1.834  0.2072 -0.2002  0.2980
 1734SOL    HW1 5602   6.345   2.165   1.914  0.8687  3.2099  2.0422
 1734SOL    HW2 5603   6.389   2.257   1.803 -0.5160 -0.2176 -1.5881
 1735SOL     OW 5604   3.546   3.808   6.728  0.0114  0.0046  0.2210
 1735SOL    HW1 5605   3.518   3.827   6.818 -0.5103 -0.7272  0.2197
 1735SOL    HW2 5606   3.466   3.815   6.676  0.5087  1.5834 -0.3948
 1736SOL     OW 5607   6.510   2.671   5.216  0.0077 -0.5789  0.4112
 1736SOL    HW1 5608   6.550   2.584   5.216  1.0674 -0.2031 -2.3567
 1736SOL    HW2 5609   6.434   2.663   5.158 -0.2931  0.1804  0.6791
 1737SOL     OW 5610   4.663   5.697   4.892 -0.3995  1.2427 -0.0954
 1737SOL    HW1 5611   4.590   5.755   4.915 -0.2981  1.2841  0.1285
 1737SOL    HW2 5612   4.717   5.749   4.833 -0.6879  1.1195 -0.4742
 1738SOL     OW 5613   6.133   4.330   2.755  0.2212  0.3802 -0.0216
 1738SOL    HW1 5614   6.093   4.244   2.758 -0.3653  0.3457 -3.7428
 1738SOL    HW2 5615   6.060   4.391   2.760  0.3179  0.5431 -0.5494
 1739SOL     OW 5616   3.003   5.470   3.104 -0.1384  0.7253 -0.1755
 1739SOL    HW1 5617   3.051   5.542   3.065 -2.6752  1.6184 -1.8852
 1739SOL    HW2 5618   3.014   5.397   3.042  1.4752 -0.0749  0.9808
 1740SOL     OW 5619   1.031   1.706   4.473  0.0006 -0.6512  0.3546
 1740SOL    HW1 5620   1.042   1.682   4.381  0.3563 -1.8378  0.6846
 1740SOL    HW2 5621   0.975   1.784   4.472 -1.5929 -1.7605 -0.7664
 1741SOL     OW 5622   2.201   5.326   1.940  0.3210 -0.2972  0.4190
 1741SOL    HW1 5623   2.162   5.408   1.972 -2.0155 -1.4008  0.6121
 1741SOL    HW2 5624   2.283   5.318   1.989  0.4843  1.7653  0.5846
 1742SOL     OW 5625   2.270   2.611   6.363  0.1884 -0.2583 -0.2086
 1742SOL    HW1 5626   2.283   2.704   6.346  0.3318 -0.3501 -0.6095
 1742SOL    HW2 5627   2.342   2.587   6.421 -1.0987  0.3727  1.7233
 1743SOL     OW 5628   4.833   0.006   4.978  0.0093  0.4816 -0.3042
 1743SOL    HW1 5629   4.916   0.013   4.932 -0.5030  1.3778 -1.1345
 1743SOL    HW2 5630   4.849   0.045   5.064  0.0713  2.0032 -0.9877
 1744SOL     OW 5631   3.165   4.973   6.242  0.2273  0.6156  0.4049
 1744SOL    HW1 5632   3.137   5.031   6.171 -2.3084  0.9116  1.5415
 1744SOL    HW2 5633   3.105   4.993   6.314  2.0609 -0.3913  2.3075
 1745SOL     OW 5634   5.844   3.120   3.020 -0.2663 -0.8255  0.3375
 1745SOL    HW1 5635   5.939   3.118   3.033 -0.0362 -1.8422 -1.1967
 1745SOL    HW2 5636   5.821   3.029   3.001 -0.9746 -0.0798 -2.8100
 1746SOL     OW 5637   5.467   3.208   0.255  0.1536  0.2287 -0.2915
 1746SOL    HW1 5638   5.419   3.135   0.215  0.9789 -0.7657  0.4781
 1746SOL    HW2 5639   5.414   3.234   0.330 -0.8190  1.3423 -1.3199
 1747SOL     OW 5640   1.498   1.229   4.816 -0.4883 -0.2290  0.2010
 1747SOL    HW1 5641   1.413   1.186   4.810 -1.8848  2.5746 -2.5276
 1747SOL    HW2 5642   1.540   1.211   4.731  0.1755  1.1712  0.2044
 1748SOL     OW 5643   0.000   6.438   1.006 -0.0402  0.0419 -0.1770
 1748SOL    HW1 5644   0.056   6.443   1.084  0.1452  4.3960 -0.3373
 1748SOL    HW2 5645  -0.080   6.483   1.031  0.0700  1.6849 -2.4565
 1749SOL     OW 5646   4.961   1.475   1.815 -0.5255  0.1508  0.3631
 1749SOL    HW1 5647   4.988   1.503   1.728 -0.3993  0.2412  0.4316
 1749SOL    HW2 5648   4.865   1.471   1.810 -0.5028 -0.1434  0.1289
 1750SOL     OW 5649   1.924   0.597   1.282  0.3127  0.5527  0.4566
 1750SOL    HW1 5650   1.853   0.623   1.224  1.7339  0.5448 -1.3912
 1750SOL    HW2 5651   1.947   0.676   1.330  1.0402  1.3567 -1.1668
 1751SOL     OW 5652   4.422   0.391   3.773  0.0474 -0.3805 -0.2711
 1751SOL    HW1 5653   4.515   0.410   3.789 -0.1439 -1.4223  2.7854
 1751SOL    HW2 5654   4.420   0.297   3.754 -0.5254 -1.0360  2.5706
 1752SOL     OW 5655   0.002   1.729   5.152  0.1481  0.4932  0.1197
 1752SOL    HW1 5656   0.004   1.774   5.067  1.8229 -2.2552 -1.4146
 1752SOL    HW2 5657  -0.088   1.697   5.159 -0.3525  1.7844  0.0422
 1753SOL     OW 5658   2.206   5.413   0.866  0.3245  0.1331 -0.0361
 1753SOL    HW1 5659   2.181   5.502   0.890  0.8023  0.6567 -1.3722
 1753SOL    HW2 5660   2.273   5.424   0.799 -2.4219 -1.1136 -3.3203
 1754SOL     OW 5661   1.897   3.557   6.551  0.2669 -0.3303  0.4941
 1754SOL    HW1 5662   1.841   3.590   6.481  0.0250 -1.1457  0.2897
 1754SOL    HW2 5663   1.912   3.633   6.608 -1.9187 -0.3160  1.1456
 1755SOL     OW 5664   0.711   5.017   2.266 -0.2658  0.1563 -0.6229
 1755SOL    HW1 5665   0.728   5.111   2.267  0.1955  0.0947  1.5750
 1755SOL    HW2 5666   0.797   4.978   2.253 -0.4722  0.0149 -1.6482
 1756SOL     OW 5667   6.532   5.648   3.705  0.4288  0.0833  0.1998
 1756SOL    HW1 5668   6.599   5.612   3.647  1.2678 -1.2152  1.8806
 1756SOL    HW2 5669   6.571   5.642   3.793 -0.1253  3.4495  0.8255
 1757SOL     OW 5670   6.415   5.496   3.506  0.1692 -0.2878 -0.5742
 1757SOL    HW1 5671   6.473   5.421   3.517 -2.3740 -2.1539  1.4733
 1757SOL    HW2 5672   6.374   5.482   3.421 -0.5454 -1.5107 -0.0617
 1758SOL     OW 5673   2.004   0.106   2.807 -0.5804  0.0090  0.1000
 1758SOL    HW1 5674   2.036   0.020   2.780  0.4888  0.4121  0.0603
 1758SOL    HW2 5675   1.920   0.088   2.850  0.8464 -1.3628  2.5209
 1759SOL     OW 5676   5.216   4.948   1.171  0.8317  0.6158 -0.2294
 1759SOL    HW1 5677   5.196   5.036   1.200  0.4222  0.5772 -0.3881
 1759SOL    HW2 5678   5.132   4.912   1.141  1.2952  0.8340 -1.9220
 1760SOL     OW 5679   3.137   4.644   3.977  0.2316 -0.1241  0.6342
 1760SOL    HW1 5680   3.085   4.581   4.026 -0.5678  0.6526  0.7941
 1760SOL    HW2 5681   3.080   4.672   3.906  1.9420 -2.5839 -1.9520
 1761SOL     OW 5682   1.777   5.160   1.793 -0.2826  0.1227 -0.1587
 1761SOL    HW1 5683   1.864   5.183   1.828  0.5336 -0.2189 -1.8371
 1761SOL    HW2 5684   1.731   5.120   1.867  0.3522  1.8316  1.2421
 1762SOL     OW 5685   1.094   5.906   3.697  0.2829 -0.0073 -0.0048
 1762SOL    HW1 5686   1.096   5.932   3.789  1.1324  1.6886 -0.4643
 1762SOL    HW2 5687   1.153   5.967   3.653 -1.5808  0.5320 -1.9781
 1763SOL     OW 5688   0.438   3.817   0.580  0.1498  0.5151 -0.0151
 1763SOL    HW1 5689   0.372   3.884   0.564 -2.3465 -1.4916  1.1593
 1763SOL    HW2 5690   0.465   3.788   0.493 -1.5744  0.4629 -0.5753
 1764SOL     OW 5691   0.883   2.267   0.563  0.4257  0.0528 -0.1949
 1764SOL    HW1 5692   0.965   2.313   0.545  1.3228 -0.2190  2.6236
 1764SOL    HW2 5693   0.888   2.247   0.657 -1.2406 -3.1838 -0.6618
 1765SOL     OW 5694   0.416   0.914   5.998 -0.3628 -0.1489 -0.7378
 1765SOL    HW1 5695   0.417   0.892   6.091  0.5401  2.1203 -0.1385
 1765SOL    HW2 5696   0.409   0.829   5.953 -1.1687 -1.2664  1.3687
 1766SOL     OW 5697   3.381   2.320   5.518  0.0546  0.3958  0.4919
 1766SOL    HW1 5698   3.425   2.235   5.526 -0.5960  0.1959  2.4480
 1766SOL    HW2 5699   3.288   2.300   5.527 -0.0055  1.5422  4.5508
 1767SOL     OW 5700   0.567   2.503   0.696  0.1164  0.4718 -0.0493
 1767SOL    HW1 5701   0.631   2.485   0.766  0.4468  0.5152 -0.3396
 1767SOL    HW2 5702   0.620   2.517   0.618 -0.2382  0.7881 -0.2333
 1768SOL     OW 5703   2.719   4.332   0.758  0.0620 -0.2442 -0.6169
 1768SOL    HW1 5704   2.628   4.359   0.744 -0.2902 -1.5609 -0.9244
 1768SOL    HW2 5705   2.737   4.270   0.688  0.4489 -1.7601  0.7689
 1769SOL     OW 5706   3.502   0.586   6.160  0.5688  0.1001 -0.0401
 1769SOL    HW1 5707   3.414   0.567   6.126  1.4925 -1.0974 -1.9614
 1769SOL    HW2 5708   3.560   0.567   6.086  2.6294 -1.1889  1.8038
 1770SOL     OW 5709   4.801   5.153   4.639  0.7985 -0.0092  0.2281
 1770SOL    HW1 5710   4.805   5.234   4.589 -0.3962  0.1126  0.3029
 1770SOL    HW2 5711   4.732   5.101   4.597  0.9641 -0.6288  0.6955
 1771SOL     OW 5712   2.732   4.030   0.284 -0.0017 -0.8215 -0.2732
 1771SOL    HW1 5713   2.819   4.049   0.249  1.4236  0.0593  3.3340
 1771SOL    HW2 5714   2.674   4.093   0.241  1.6516  0.4460 -0.7411
 1772SOL     OW 5715   1.423   6.663   3.783 -0.0872 -0.4666  0.5837
 1772SOL    HW1 5716   1.472   6.664   3.701 -0.5657  0.2252  0.2889
 1772SOL    HW2 5717   1.383   6.576   3.787  0.0630 -0.5585  0.1542
 1773SOL     OW 5718   5.937   4.656   1.955 -0.1165  0.3255 -0.1755
 1773SOL    HW1 5719   5.956   4.699   1.872  1.4574 -0.6174 -0.3271
 1773SOL    HW2 5720   5.929   4.728   2.018 -1.4643  1.0539 -1.1314
 1774SOL     OW 5721   4.474   1.410   1.370  0.6433 -0.3631 -0.0020
 1774SOL    HW1 5722   4.447   1.344   1.434  0.1578  0.4210  0.6105
 1774SOL    HW2 5723   4.413   1.483   1.382  1.0427  0.1244 -0.8106
 1775SOL     OW 5724   5.753   0.262   4.107  0.0632 -0.0744 -0.2430
 1775SOL    HW1 5725   5.717   0.351   4.108  0.5313  0.1256  1.0695
 1775SOL    HW2 5726   5.691   0.211   4.055 -0.0912  1.0627 -1.2118
 1776SOL     OW 5727   0.924   0.602   1.280 -0.7952 -0.3205  0.3240
 1776SOL    HW1 5728   0.917   0.641   1.367  1.7591  0.6066  0.2125
 1776SOL    HW2 5729   1.019   0.595   1.265 -1.1702 -1.2058 -2.0537
 1777SOL     OW 5730   4.646   0.303   3.479  0.1060 -0.1898 -0.3753
 1777SOL    HW1 5731   4.569   0.359   3.478  0.6315  0.5519 -1.1215
 1777SOL    HW2 5732   4.637   0.247   3.402 -0.4249 -1.1801  0.3757
 1778SOL     OW 5733   2.745   1.732   3.482  0.2318 -0.1068 -0.0697
 1778SOL    HW1 5734   2.823   1.677   3.490  0.7980  0.8428  1.3006
 1778SOL    HW2 5735   2.727   1.761   3.571 -2.0994 -0.8100 -0.2506
 1779SOL     OW 5736   1.023   2.693   0.918 -0.3592 -0.3161 -0.0898
 1779SOL    HW1 5737   1.064   2.643   0.847 -0.9278 -0.8462 -0.0537
 1779SOL    HW2 5738   1.096   2.738   0.960  0.0630 -0.4744 -0.6288
 1780SOL     OW 5739   3.642   5.566   0.361 -0.1522 -0.3098  0.2908
 1780SOL    HW1 5740   3.606   5.616   0.434 -0.5448  1.5679 -1.1056
 1780SOL    HW2 5741   3.586   5.589   0.286  0.8429 -1.3714 -0.8251
 1781SOL     OW 5742   3.055   2.661   3.162 -0.1132  0.2555 -0.2095
 1781SOL    HW1 5743   3.125   2.620   3.111  0.1273  0.9604 -0.4701
 1781SOL    HW2 5744   2.991   2.687   3.096 -0.9635 -1.0064  0.0936
 1782SOL     OW 5745   2.340   1.791   2.459  0.5927  0.2232  0.2028
 1782SOL    HW1 5746   2.428   1.828   2.450  0.4470  0.3067 -1.0069
 1782SOL    HW2 5747   2.355   1.702   2.491  1.0016  0.8650  1.9449
 1783SOL     OW 5748   2.720   4.470   6.393  0.4981  0.4569  0.2997
 1783SOL    HW1 5749   2.662   4.408   6.436  0.7378 -0.4632 -0.6514
 1783SOL    HW2 5750   2.666   4.510   6.324  1.2073 -1.1612 -1.2764
 1784SOL     OW 5751   1.715   5.880   3.668 -0.0123  0.0220  0.1996
 1784SOL    HW1 5752   1.714   5.807   3.606  4.1481 -0.0549 -0.0864
 1784SOL    HW2 5753   1.683   5.842   3.750  1.5590 -2.1261 -0.0629
 1785SOL     OW 5754   6.492   1.665   5.083 -0.0057 -0.2718 -0.2954
 1785SOL    HW1 5755   6.492   1.576   5.119 -0.1355 -0.2334 -0.2019
 1785SOL    HW2 5756   6.443   1.656   5.001 -0.6646 -0.1424  0.0722
 1786SOL     OW 5757   3.159   2.374   0.813 -0.1579  0.0223 -0.1394
 1786SOL    HW1 5758   3.251   2.375   0.784  0.0804 -0.6976  0.5584
 1786SOL    HW2 5759   3.109   2.392   0.733  0.5693 -0.1354 -0.6431
 1787SOL     OW 5760   4.907   2.449   2.585 -0.0717 -0.2812 -0.4373
 1787SOL    HW1 5761   4.945   2.434   2.498  0.5787  0.7344 -0.3470
 1787SOL    HW2 5762   4.813   2.450   2.569  0.0431  0.1738 -1.2011
 1788SOL     OW 5763   4.646   5.951   5.449 -0.0500 -0.1741  0.1588
 1788SOL    HW1 5764   4.737   5.921   5.458  0.4436  1.4732  1.0682
 1788SOL    HW2 5765   4.641   5.983   5.359 -0.1500 -1.5019 -0.3313
 1789SOL     OW 5766   4.607   0.747   2.423  0.6542  0.0752  0.0460
 1789SOL    HW1 5767   4.549   0.787   2.488  1.5235  1.8597 -0.2244
 1789SOL    HW2 5768   4.695   0.761   2.458  1.0535 -0.2983 -0.7980
 1790SOL     OW 5769   0.913   5.104   5.472 -0.1962 -0.0097 -0.1441
 1790SOL    HW1 5770   0.840   5.059   5.430  0.7672 -0.8432 -1.0089
 1790SOL    HW2 5771   0.990   5.079   5.420  0.6118  1.3992  0.3064
 1791SOL     OW 5772   6.482   1.393   5.154  0.4209 -0.1327 -0.2685
 1791SOL    HW1 5773   6.442   1.315   5.114 -0.6410 -0.4914  1.3671
 1791SOL    HW2 5774   6.573   1.369   5.169  0.2007 -0.9389 -0.1602
 1792SOL     OW 5775   2.020   3.978   5.980  0.0880  0.1520 -0.5588
 1792SOL    HW1 5776   2.011   4.073   5.973  1.9134  0.3951 -0.1301
 1792SOL    HW2 5777   2.063   3.952   5.898 -1.2798 -0.4688 -1.1126
 1793SOL     OW 5778   3.755   2.573   2.605  0.1516  0.4363 -0.0778
 1793SOL    HW1 5779   3.830   2.569   2.666 -0.1610  1.1108  0.3675
 1793SOL    HW2 5780   3.775   2.507   2.539  0.1711 -0.8088  1.1292
 1794SOL     OW 5781   6.477   3.646   3.434 -0.2701  0.2424 -0.1464
 1794SOL    HW1 5782   6.519   3.720   3.478 -0.1865 -0.3256  0.7558
 1794SOL    HW2 5783   6.400   3.684   3.391 -1.5329  0.5231  2.1907
 1795SOL     OW 5784   2.443   2.503   3.744 -0.1825 -0.1743 -0.4449
 1795SOL    HW1 5785   2.378   2.467   3.684  0.2255 -0.5851 -0.6486
 1795SOL    HW2 5786   2.439   2.447   3.821 -1.7193  1.1908  0.5599
 1796SOL     OW 5787   4.128   1.893   2.104 -0.1600  0.0736 -0.8867
 1796SOL    HW1 5788   4.124   1.911   2.010  0.1906 -1.3020 -1.1915
 1796SOL    HW2 5789   4.221   1.879   2.122 -0.3049 -0.3913 -0.4790
 1797SOL     OW 5790   2.602   5.065   0.504  0.4344  0.3578 -0.0447
 1797SOL    HW1 5791   2.610   5.115   0.585  0.9379 -0.2801  0.3077
 1797SOL    HW2 5792   2.662   4.991   0.515  0.9591  0.5798 -1.2447
 1798SOL     OW 5793   4.595   2.954   1.490  0.3326  0.3688 -0.3913
 1798SOL    HW1 5794   4.507   2.917   1.501  0.4965 -0.0355 -0.3984
 1798SOL    HW2 5795   4.642   2.887   1.439  0.5295  0.7564 -0.7213
 1799SOL     OW 5796   3.471   5.644   5.989  0.0241  0.2279 -0.1326
 1799SOL    HW1 5797   3.549   5.601   5.954  0.1795 -0.0651  0.5580
 1799SOL    HW2 5798   3.448   5.593   6.067 -0.6115  0.5623 -0.0936
 1800SOL     OW 5799   0.214   1.887   4.603 -0.1913 -0.1849 -0.4771
 1800SOL    HW1 5800   0.176   1.882   4.515 -2.9167 -2.0419  0.7013
 1800SOL    HW2 5801   0.277   1.815   4.606 -0.6094 -0.5599 -0.6701
 1801SOL     OW 5802   0.306   0.616   3.744  0.0213  0.3289  0.0289
 1801SOL    HW1 5803   0.280   0.650   3.658 -1.3665  1.2406  0.7574
 1801SOL    HW2 5804   0.372   0.678   3.775 -2.9549  3.0092  1.6288
 1802SOL     OW 5805   0.126   6.667   3.708 -0.2650  0.2940  0.2616
 1802SOL    HW1 5806   0.154   6.751   3.670 -0.1513 -0.2099 -0.7892
 1802SOL    HW2 5807   0.148   6.602   3.642  1.3067 -0.8189  1.8067
 1803SOL     OW 5808   6.540   4.513   5.126  0.5854  0.0881  0.0001
 1803SOL    HW1 5809   6.595   4.557   5.191 -0.4500  0.6187  0.5568
 1803SOL    HW2 5810   6.518   4.583   5.063 -0.0377  0.0756  0.1930
 1804SOL     OW 5811   6.208   2.085   0.235 -0.1682  0.0420  0.4119
 1804SOL    HW1 5812   6.237   2.171   0.203 -0.4314 -0.3374 -0.9266
 1804SOL    HW2 5813   6.289   2.042   0.264  0.5563 -0.5639 -2.2061
 1805SOL     OW 5814   4.579   4.382   0.746 -0.1802 -0.0283  0.2301
 1805SOL    HW1 5815   4.597   4.476   0.743  0.1265 -0.0778  0.4100
 1805SOL    HW2 5816   4.487   4.374   0.722 -0.3658  0.3718  0.7977
 1806SOL     OW 5817   6.238   6.074   2.822  0.1209  0.0071  0.8622
 1806SOL    HW1 5818   6.325   6.094   2.856  0.4957 -1.0077  0.5233
 1806SOL    HW2 5819   6.254   6.026   2.741 -0.7603  0.2268  0.5409
 1807SOL     OW 5820   1.027   2.502   2.911 -0.1558  0.2933 -0.1889
 1807SOL    HW1 5821   1.027   2.577   2.970  0.8565  0.1154  0.0536
 1807SOL    HW2 5822   1.029   2.425   2.969 -0.2668  0.0996 -0.4396
 1808SOL     OW 5823   6.154   2.183   5.035 -0.2071  0.1680 -0.1559
 1808SOL    HW1 5824   6.133   2.089   5.030  0.1569  0.0732  0.1402
 1808SOL    HW2 5825   6.230   2.188   5.092 -0.9030  0.7507  0.7482
 1809SOL     OW 5826   2.267   0.128   4.507  0.1817 -0.4030 -0.2225
 1809SOL    HW1 5827   2.354   0.090   4.495  0.0497 -1.3079  1.4180
 1809SOL    HW2 5828   2.208   0.065   4.466  0.1064 -1.1530  0.9921
 1810SOL     OW 5829   4.305   5.903   2.997 -0.5155  0.2977 -0.2837
 1810SOL    HW1 5830   4.387   5.938   3.031  0.4866  0.5919 -2.7474
 1810SOL    HW2 5831   4.241   5.918   3.067  1.5062 -0.0015  1.7475
 1811SOL     OW 5832   3.374   2.844   1.080  0.4069  0.4051 -0.1609
 1811SOL    HW1 5833   3.359   2.937   1.100 -0.0315  0.1980  0.5227
 1811SOL    HW2 5834   3.392   2.842   0.986  1.0146  1.2521 -0.0810
 1812SOL     OW 5835   1.607   2.025   4.429 -0.0654 -0.0574 -0.1824
 1812SOL    HW1 5836   1.684   1.998   4.379  0.4937 -1.1162  1.2021
 1812SOL    HW2 5837   1.536   1.971   4.393  0.0416  0.1602 -0.7351
 1813SOL     OW 5838   0.236   4.576   4.418  0.4841 -0.2340 -0.2185
 1813SOL    HW1 5839   0.182   4.633   4.473 -0.5162  0.8474 -2.2277
 1813SOL    HW2 5840   0.311   4.630   4.394  1.2631 -0.9275  0.5804
 1814SOL     OW 5841   3.311   3.563   3.897  0.1762 -0.3443  0.3225
 1814SOL    HW1 5842   3.271   3.481   3.867  0.5743 -1.2379  2.0821
 1814SOL    HW2 5843   3.237   3.615   3.928 -0.2415  0.6048 -2.1010
 1815SOL     OW 5844   1.323   6.498   1.516 -0.2461  0.2983  0.0346
 1815SOL    HW1 5845   1.380   6.446   1.573 -1.6526 -1.4728 -0.0625
 1815SOL    HW2 5846   1.325   6.586   1.553  2.4620  0.3058  0.0608
 1816SOL     OW 5847   3.079   4.850   6.701  0.4271 -0.8481 -0.2608
 1816SOL    HW1 5848   2.989   4.846   6.668  0.9476 -2.1509 -1.6268
 1816SOL    HW2 5849   3.070   4.884   6.790 -1.1975  1.3423 -1.1569
 1817SOL     OW 5850   2.821   6.486   2.354 -0.1712  0.5510 -0.1254
 1817SOL    HW1 5851   2.762   6.535   2.297  0.5095 -0.4474 -1.7526
 1817SOL    HW2 5852   2.908   6.502   2.318  0.1678 -0.9910 -0.0716
 1818SOL     OW 5853   3.573   4.634   3.427 -0.3983  0.3688  0.3521
 1818SOL    HW1 5854   3.599   4.620   3.336  0.3791  0.3917  0.5665
 1818SOL    HW2 5855   3.490   4.587   3.435  0.0623 -0.5366 -0.0784
 1819SOL     OW 5856   1.967   4.987   6.087  0.0790 -0.1931  0.9198
 1819SOL    HW1 5857   1.987   5.078   6.111  1.4495 -0.2140 -0.0053
 1819SOL    HW2 5858   2.053   4.946   6.076 -0.5195 -1.6127  1.2829
 1820SOL     OW 5859   1.152   0.710   6.409 -0.2019 -0.4128  0.3157
 1820SOL    HW1 5860   1.132   0.663   6.490 -1.3469  1.2906  1.1049
 1820SOL    HW2 5861   1.240   0.743   6.421  0.4053 -1.8324 -0.0223
 1821SOL     OW 5862   4.004   0.253   4.143 -0.6853  0.0042 -0.3912
 1821SOL    HW1 5863   4.016   0.160   4.162 -1.0665  0.0859  0.2967
 1821SOL    HW2 5864   4.072   0.297   4.195 -0.8325  0.1400 -0.3115
 1822SOL     OW 5865   4.026   0.708   3.511  0.3574  0.0248 -0.0451
 1822SOL    HW1 5866   3.977   0.626   3.526  2.2697 -1.0608  0.6056
 1822SOL    HW2 5867   4.078   0.691   3.433  1.3113  0.3500  0.5113
 1823SOL     OW 5868   6.390   6.188   5.179 -0.0361 -0.1503 -0.0247
 1823SOL    HW1 5869   6.433   6.250   5.237  3.0552 -2.2178  0.1330
 1823SOL    HW2 5870   6.388   6.232   5.094  1.0172  0.6339  0.3337
 1824SOL     OW 5871   1.549   2.297   2.294  0.2920 -0.5226 -0.6137
 1824SOL    HW1 5872   1.513   2.369   2.244 -0.4939  0.4823  1.2830
 1824SOL    HW2 5873   1.483   2.279   2.361  1.3188 -1.7147  0.1243
 1825SOL     OW 5874   5.759   4.471   0.688 -0.2655  0.4108  0.1440
 1825SOL    HW1 5875   5.685   4.481   0.628 -0.3061  2.5015  0.4653
 1825SOL    HW2 5876   5.817   4.408   0.645 -2.3850 -1.6324  0.0898
 1826SOL     OW 5877   4.222   2.842   3.353  0.1795  0.3893 -0.4346
 1826SOL    HW1 5878   4.246   2.757   3.389 -0.0268  0.6470  0.3175
 1826SOL    HW2 5879   4.290   2.902   3.384 -0.7590  0.8892  0.7223
 1827SOL     OW 5880   4.391   0.399   5.290 -0.3757 -0.8233  0.2271
 1827SOL    HW1 5881   4.414   0.313   5.325  0.8770 -0.0537  1.3783
 1827SOL    HW2 5882   4.467   0.454   5.308 -1.6258  0.8557  0.6774
 1828SOL     OW 5883   2.281   4.339   3.816 -0.3098 -0.3735  0.6660
 1828SOL    HW1 5884   2.244   4.323   3.903 -1.3866  1.6483  0.6487
 1828SOL    HW2 5885   2.205   4.355   3.760  0.4454  2.1190  0.2286
 1829SOL     OW 5886   6.324   6.439   2.970 -0.1083 -0.3623  0.2865
 1829SOL    HW1 5887   6.390   6.471   2.909  0.0466 -2.9663 -1.0761
 1829SOL    HW2 5888   6.241   6.455   2.925 -0.1349 -0.3583  0.3371
 1830SOL     OW 5889   5.286   4.378   2.849 -0.4435  0.0829 -0.2128
 1830SOL    HW1 5890   5.305   4.293   2.890 -0.0175  0.1792 -0.2173
 1830SOL    HW2 5891   5.327   4.372   2.763 -1.1700 -0.0442 -0.5614
 1831SOL     OW 5892   0.613   0.537   5.067  0.0478 -0.1785 -0.0082
 1831SOL    HW1 5893   0.617   0.631   5.084  0.2431  0.1647 -1.7425
 1831SOL    HW2 5894   0.526   0.523   5.030 -0.0885 -0.7400  0.5075
 1832SOL     OW 5895   1.001   2.888   5.071 -0.1373 -0.2824  0.1729
 1832SOL    HW1 5896   0.934   2.843   5.020 -1.1650 -0.0733  1.2895
 1832SOL    HW2 5897   1.078   2.831   5.065 -0.8180 -1.2068 -0.0481
 1833SOL     OW 5898   5.356   5.893   4.210 -0.3268  0.7545 -0.1210
 1833SOL    HW1 5899   5.373   5.921   4.119 -1.0090 -0.2987 -0.5807
 1833SOL    HW2 5900   5.375   5.972   4.262  1.2159  1.0537 -1.0439
 1834SOL     OW 5901   3.197   1.491   2.412 -0.1602 -0.2075 -0.2755
 1834SOL    HW1 5902   3.117   1.538   2.387 -0.8782 -1.5374 -0.5838
 1834SOL    HW2 5903   3.255   1.500   2.337  0.1495  1.0840  0.0977
 1835SOL     OW 5904   4.029   5.660   4.431  0.0976 -0.1691  0.3273
 1835SOL    HW1 5905   4.077   5.634   4.509  0.3317 -0.1113  0.2057
 1835SOL    HW2 5906   4.076   5.738   4.399  0.5061 -0.6686 -0.3285
 1836SOL     OW 5907   4.354   2.852   1.536 -0.4749 -0.2260 -0.1927
 1836SOL    HW1 5908   4.376   2.787   1.603  1.9552  0.2230 -0.4533
 1836SOL    HW2 5909   4.291   2.808   1.479 -1.3902 -1.1624  1.4575
 1837SOL     OW 5910   5.499   6.024   0.302 -0.6751  0.4028  0.2516
 1837SOL    HW1 5911   5.501   5.969   0.224  1.3516 -0.0314  0.5584
 1837SOL    HW2 5912   5.521   5.965   0.374  0.8076  1.4216  0.6847
 1838SOL     OW 5913   2.448   1.848   0.884 -0.4227  0.3149  0.1232
 1838SOL    HW1 5914   2.391   1.798   0.943  1.6557 -1.6973  0.5864
 1838SOL    HW2 5915   2.414   1.937   0.887 -1.9789 -0.2731  2.3165
 1839SOL     OW 5916   0.992   3.012   0.068  0.5640 -0.2295 -0.2522
 1839SOL    HW1 5917   1.041   3.051  -0.005  0.1498 -0.0866 -0.4590
 1839SOL    HW2 5918   0.933   2.949   0.026  0.7369 -0.5746  0.0167
 1840SOL     OW 5919   3.862   5.846   3.479 -0.5560 -0.0444  0.0185
 1840SOL    HW1 5920   3.853   5.850   3.384 -2.6471  0.4171  0.1817
 1840SOL    HW2 5921   3.782   5.801   3.509 -0.9550  1.6515  1.6786
 1841SOL     OW 5922   3.014   5.129   1.017  0.4960 -0.8444  0.3979
 1841SOL    HW1 5923   2.923   5.146   1.042  0.5772  1.2634 -0.5688
 1841SOL    HW2 5924   3.066   5.165   1.089  0.6273  1.8783 -0.9638
 1842SOL     OW 5925   0.497   6.046   1.809  0.3125 -0.1213 -0.0979
 1842SOL    HW1 5926   0.412   6.081   1.785 -0.1322 -1.7922 -1.1285
 1842SOL    HW2 5927   0.480   5.990   1.885  0.3800 -0.8305 -0.5916
 1843SOL     OW 5928   0.765   0.819   0.380  0.3186 -0.6218 -0.5997
 1843SOL    HW1 5929   0.771   0.861   0.294  0.2195 -0.6084 -0.6006
 1843SOL    HW2 5930   0.700   0.871   0.427 -0.5788 -1.3951 -0.9562
 1844SOL     OW 5931   1.186   3.660   1.128  0.1716  0.1893  0.1545
 1844SOL    HW1 5932   1.219   3.588   1.075 -0.7781 -0.9164  1.0163
 1844SOL    HW2 5933   1.241   3.657   1.207 -0.3746 -0.1082  0.5306
 1845SOL     OW 5934   1.985   5.093   3.971  0.1525  0.0425  0.6925
 1845SOL    HW1 5935   2.058   5.122   4.025  0.5254  1.8183 -0.6848
 1845SOL    HW2 5936   2.023   5.082   3.884 -1.1330  0.5832  0.0446
 1846SOL     OW 5937   6.293   4.765   5.726 -0.2992  0.0136  0.0864
 1846SOL    HW1 5938   6.263   4.674   5.729 -0.2323 -0.0572 -0.9904
 1846SOL    HW2 5939   6.273   4.800   5.813 -1.2297 -0.7462  0.1926
 1847SOL     OW 5940   1.210   6.403   4.966 -0.3346  0.3577 -0.0500
 1847SOL    HW1 5941   1.286   6.459   4.983  0.5912 -0.5942 -0.9094
 1847SOL    HW2 5942   1.189   6.366   5.052  0.0272  0.7932  0.2359
 1848SOL     OW 5943   2.807   5.873   4.556 -0.2685 -0.0135 -0.7792
 1848SOL    HW1 5944   2.898   5.884   4.583 -0.5632  0.1906  0.1834
 1848SOL    HW2 5945   2.799   5.780   4.533  0.2537  0.0362 -1.1577
 1849SOL     OW 5946   1.617   6.535   0.301  0.5517 -0.2187  0.2195
 1849SOL    HW1 5947   1.607   6.571   0.212 -1.2273  1.8024  1.1408
 1849SOL    HW2 5948   1.530   6.501   0.322  1.2499 -1.7311  0.8212
 1850SOL     OW 5949   1.237   1.019   6.142  0.0442  0.2452  0.2902
 1850SOL    HW1 5950   1.207   1.046   6.056 -1.2003  1.2562  1.0034
 1850SOL    HW2 5951   1.316   1.070   6.159  1.3926 -1.2952 -0.9596
 1851SOL     OW 5952   1.312   4.855   5.864 -0.3223  0.2867  0.1957
 1851SOL    HW1 5953   1.378   4.815   5.921 -1.5022  1.3049  2.3957
 1851SOL    HW2 5954   1.356   4.932   5.828  0.5553 -0.5615 -0.5926
 1852SOL     OW 5955   5.858   1.476   1.125  0.0026 -0.4256 -0.3815
 1852SOL    HW1 5956   5.927   1.522   1.078  0.5704  0.7610  1.5169
 1852SOL    HW2 5957   5.800   1.545   1.157 -0.8244 -1.2476 -0.0449
 1853SOL     OW 5958   0.759   3.366   0.466  0.1017 -0.3208 -0.1465
 1853SOL    HW1 5959   0.767   3.459   0.443  1.3122 -0.2911  0.2916
 1853SOL    HW2 5960   0.829   3.323   0.416 -1.6028 -1.3136 -1.8051
 1854SOL     OW 5961   1.530   4.075   1.378 -0.6077 -0.0891  0.1173
 1854SOL    HW1 5962   1.567   4.063   1.291 -2.3138 -1.1627 -0.4971
 1854SOL    HW2 5963   1.436   4.085   1.364 -0.6979  1.9244  1.6776
 1855SOL     OW 5964   4.813   4.949   2.965 -0.0022 -0.1647  0.4677
 1855SOL    HW1 5965   4.820   5.013   2.894  0.7546 -1.3251 -0.5479
 1855SOL    HW2 5966   4.783   5.000   3.040  0.5252  1.3721 -0.3141
 1856SOL     OW 5967   0.252   0.720   3.226  0.1325 -0.4057  0.4032
 1856SOL    HW1 5968   0.191   0.710   3.154 -2.5899 -1.5450  2.6566
 1856SOL    HW2 5969   0.274   0.814   3.227  0.7324 -0.4426 -2.1170
 1857SOL     OW 5970   2.814   4.558   1.681  0.3836 -0.0159  0.6180
 1857SOL    HW1 5971   2.753   4.542   1.609  0.9150  1.0333 -0.0959
 1857SOL    HW2 5972   2.897   4.521   1.651  0.2797 -0.8467  1.3077
 1858SOL     OW 5973   3.487   5.088   5.314 -0.3638  0.2356 -0.5944
 1858SOL    HW1 5974   3.542   5.029   5.263 -0.6619 -0.9990  0.4559
 1858SOL    HW2 5975   3.504   5.064   5.405 -2.3124  0.0907 -0.2248
 1859SOL     OW 5976   2.417   4.534   5.201  0.2812  0.5656 -0.0520
 1859SOL    HW1 5977   2.405   4.519   5.107  1.0731 -1.3206  0.1018
 1859SOL    HW2 5978   2.509   4.516   5.217 -0.3473 -1.7667  1.4729
 1860SOL     OW 5979   6.532   0.665   6.749  0.1495 -0.2975 -0.1147
 1860SOL    HW1 5980   6.623   0.645   6.771  0.1988  0.1414  0.0908
 1860SOL    HW2 5981   6.513   0.746   6.796 -0.8249 -1.1794  1.0936
 1861SOL     OW 5982   6.072   2.910   3.788  0.0449  0.2599  0.0089
 1861SOL    HW1 5983   5.992   2.963   3.790  0.8622  1.5741 -0.7460
 1861SOL    HW2 5984   6.099   2.903   3.879 -0.2623  0.8693  0.1501
 1862SOL     OW 5985   1.078   0.980   5.358  0.1496  0.3876 -0.8060
 1862SOL    HW1 5986   1.081   1.028   5.441 -1.2571  2.7948 -2.0281
 1862SOL    HW2 5987   1.031   1.038   5.299 -0.2817 -1.9197 -2.8867
 1863SOL     OW 5988   0.638   6.640   4.178 -0.3641 -0.3143 -0.0424
 1863SOL    HW1 5989   0.590   6.676   4.252 -1.4114 -0.3982 -0.6650
 1863SOL    HW2 5990   0.729   6.666   4.194 -0.8663  1.4213  0.2433
 1864SOL     OW 5991   6.681   5.904   6.760 -0.2968 -0.3073 -0.0993
 1864SOL    HW1 5992   6.654   5.980   6.811 -0.1704  0.2349 -0.8245
 1864SOL    HW2 5993   6.777   5.906   6.762 -0.2550 -1.7552  1.7751
 1865SOL     OW 5994   2.524   1.619   5.223  0.2604  0.5158  0.1897
 1865SOL    HW1 5995   2.458   1.553   5.240 -1.5767  2.2425  0.1474
 1865SOL    HW2 5996   2.607   1.578   5.249 -0.6224 -2.1379 -0.8532
 1866SOL     OW 5997   3.941   0.830   5.606  0.6163 -0.1531 -0.1809
 1866SOL    HW1 5998   4.021   0.883   5.604 -0.4970  1.6868  0.5055
 1866SOL    HW2 5999   3.902   0.850   5.691 -2.1495  1.5711 -1.7009
 1867SOL     OW 6000   0.528   6.586   2.471  0.0218  0.1915 -0.0461
 1867SOL    HW1 6001   0.494   6.661   2.519  0.0316 -0.3073  0.7751
 1867SOL    HW2 6002   0.617   6.574   2.505 -0.1629 -0.4968  0.2179
 1868SOL     OW 6003   0.191   1.388   6.587 -0.3361  0.4841  0.0034
 1868SOL    HW1 6004   0.175   1.293   6.591  1.9018  0.0066 -0.9454
 1868SOL    HW2 6005   0.154   1.414   6.502  1.8969 -0.2317 -1.2723
 1869SOL     OW 6006   6.631   4.802   3.301  0.7909 -0.4471  0.7076
 1869SOL    HW1 6007   6.700   4.745   3.334 -0.2063 -1.3114  1.3587
 1869SOL    HW2 6008   6.557   4.786   3.359  0.3914  1.3400  0.7546
 1870SOL     OW 6009   6.393   3.309   5.289 -0.1399  0.0559  0.4690
 1870SOL    HW1 6010   6.426   3.398   5.279 -0.9284  0.1784 -1.4624
 1870SOL    HW2 6011   6.460   3.254   5.248 -0.0895 -0.1454  0.8221
 1871SOL     OW 6012   1.552   5.833   6.518 -0.2290 -0.4725  0.1734
 1871SOL    HW1 6013   1.495   5.760   6.492 -2.2863 -0.3452  3.7068
 1871SOL    HW2 6014   1.497   5.911   6.508  1.0477  0.3269 -0.9694
 1872SOL     OW 6015   2.732   0.268   1.923 -0.0984  0.0092 -0.2380
 1872SOL    HW1 6016   2.790   0.294   1.994 -0.5193  2.5828 -0.7665
 1872SOL    HW2 6017   2.656   0.325   1.931 -1.8078 -2.0866 -0.6338
 1873SOL     OW 6018   3.360   4.520   6.339  0.0301  0.1207 -0.4660
 1873SOL    HW1 6019   3.400   4.592   6.290 -1.7197  0.0609 -2.1043
 1873SOL    HW2 6020   3.388   4.534   6.429  0.6603  2.2111 -0.9219
 1874SOL     OW 6021   5.668   2.042   2.032 -0.0426 -0.4292  0.2502
 1874SOL    HW1 6022   5.643   2.091   1.954  0.8194  0.8188  0.7268
 1874SOL    HW2 6023   5.591   1.990   2.054  0.0174 -1.5343 -1.9703
 1875SOL     OW 6024   1.887   6.535   0.273  0.1823 -0.5968  0.3602
 1875SOL    HW1 6025   1.797   6.526   0.243 -0.2685 -0.4414  1.6279
 1875SOL    HW2 6026   1.891   6.623   0.310  0.8982 -0.5596  0.2200
 1876SOL     OW 6027   6.446   2.249   1.150  0.0778  0.7386 -0.3966
 1876SOL    HW1 6028   6.407   2.271   1.235  0.0919  2.0190 -0.6993
 1876SOL    HW2 6029   6.539   2.239   1.168 -0.3265 -2.6542  0.3919
 1877SOL     OW 6030   1.333   5.814   6.065 -0.5970  0.0292 -0.4710
 1877SOL    HW1 6031   1.272   5.741   6.073 -0.6391  0.1396  0.3118
 1877SOL    HW2 6032   1.279   5.892   6.079 -0.5539  0.2136 -1.3038
 1878SOL     OW 6033   6.289   3.424   4.268  0.9079 -0.2800  0.2676
 1878SOL    HW1 6034   6.237   3.402   4.190  1.0434  0.8202 -0.1524
 1878SOL    HW2 6035   6.230   3.408   4.342 -0.4383  1.9205 -0.2517
 1879SOL     OW 6036   4.733   5.397   2.849  0.1951  0.2379 -0.1029
 1879SOL    HW1 6037   4.647   5.366   2.879  1.2721 -2.1878  0.8277
 1879SOL    HW2 6038   4.729   5.391   2.754 -0.6156 -0.0332 -0.0602
 1880SOL     OW 6039   1.350   2.778   5.639  0.2152  0.3941 -0.7678
 1880SOL    HW1 6040   1.264   2.737   5.628 -0.0101  0.3709  0.7522
 1880SOL    HW2 6041   1.412   2.715   5.603 -0.1843 -1.0501  0.9305
 1881SOL     OW 6042   3.713   6.461   1.094 -0.3498 -0.1484 -0.0740
 1881SOL    HW1 6043   3.805   6.488   1.097 -0.8392  1.5765  1.5363
 1881SOL    HW2 6044   3.681   6.496   1.011  0.6150 -1.5045 -1.0587
 1882SOL     OW 6045   5.640   6.231   1.587  0.2830 -0.0357  0.2449
 1882SOL    HW1 6046   5.562   6.184   1.559  0.1004  0.6699 -0.4743
 1882SOL    HW2 6047   5.622   6.323   1.566  0.9487  0.2572  0.8806
 1883SOL     OW 6048   1.648   1.832   3.901  0.0277  0.3420  0.1943
 1883SOL    HW1 6049   1.688   1.746   3.894 -2.1182 -0.6175 -1.8022
 1883SOL    HW2 6050   1.721   1.893   3.907  1.6495 -1.4779 -0.3404
 1884SOL     OW 6051   2.649   0.182   5.858  0.2648  0.4692  0.1703
 1884SOL    HW1 6052   2.688   0.146   5.779 -1.2098  1.6040 -1.1540
 1884SOL    HW2 6053   2.693   0.266   5.870  0.4156  0.3440  0.5018
 1885SOL     OW 6054   6.499   6.516   0.299 -0.4229  0.0738  0.6264
 1885SOL    HW1 6055   6.505   6.529   0.394 -2.1525  0.5785  0.7066
 1885SOL    HW2 6056   6.431   6.578   0.271 -1.5566 -1.6208 -0.5897
 1886SOL     OW 6057   0.741   6.015   5.685 -0.0381  0.1296  0.2932
 1886SOL    HW1 6058   0.714   5.928   5.655 -0.6429  0.0108  1.1325
 1886SOL    HW2 6059   0.826   6.029   5.644  0.0226 -0.8089  0.0625
 1887SOL     OW 6060   0.784   5.970   5.230 -0.1632  0.8016 -0.1252
 1887SOL    HW1 6061   0.839   5.909   5.279 -1.5253  0.2853  0.8299
 1887SOL    HW2 6062   0.845   6.018   5.174  1.3563  0.9081  1.5472
 1888SOL     OW 6063   1.349   3.577   0.381 -0.4792  0.3310 -0.0122
 1888SOL    HW1 6064   1.385   3.532   0.304  1.1083 -0.6172  1.2354
 1888SOL    HW2 6065   1.379   3.525   0.456 -0.2197  2.3643  1.3820
 1889SOL     OW 6066   1.777   1.570   0.193 -0.5367  0.1657 -0.2832
 1889SOL    HW1 6067   1.843   1.502   0.202  0.3221  0.8747 -0.9858
 1889SOL    HW2 6068   1.693   1.524   0.203  0.0319 -0.3928  2.9662
 1890SOL     OW 6069   2.648   4.670   6.663  0.9848 -0.1010  0.0828
 1890SOL    HW1 6070   2.622   4.586   6.625  1.5955 -1.7873  3.0027
 1890SOL    HW2 6071   2.633   4.658   6.757  0.9672  3.1657  0.6030
 1891SOL     OW 6072   5.429   6.695   3.625  0.1105  0.3084 -0.1586
 1891SOL    HW1 6073   5.395   6.768   3.575 -1.3392  0.9401  1.6277
 1891SOL    HW2 6074   5.359   6.630   3.625  1.5068 -1.3034 -2.0135
 1892SOL     OW 6075   1.258   6.460   2.365  0.5873  0.0335  0.5178
 1892SOL    HW1 6076   1.330   6.436   2.307  1.5509  1.6850  0.9724
 1892SOL    HW2 6077   1.186   6.482   2.305  1.1950  0.5865 -0.0271
 1893SOL     OW 6078   4.226   2.452   6.409  0.2853 -0.0442 -0.3678
 1893SOL    HW1 6079   4.175   2.422   6.485  1.5375 -0.7205  0.2272
 1893SOL    HW2 6080   4.188   2.404   6.335 -1.2359  0.9446 -0.2907
 1894SOL     OW 6081   1.150   5.668   0.599 -0.0586 -1.1661  0.4142
 1894SOL    HW1 6082   1.143   5.746   0.654 -0.9891  0.3146 -1.6749
 1894SOL    HW2 6083   1.146   5.595   0.661 -2.2955  0.3470  2.2368
 1895SOL     OW 6084   4.780   2.717   3.537 -0.0645 -0.0911 -0.3539
 1895SOL    HW1 6085   4.737   2.660   3.601 -0.1020 -0.2166 -0.4888
 1895SOL    HW2 6086   4.811   2.657   3.469  0.2629  0.0056 -0.2926
 1896SOL     OW 6087   6.201   4.471   6.451  0.4922  0.1588 -0.2505
 1896SOL    HW1 6088   6.152   4.553   6.442 -0.7021 -0.4597  0.3380
 1896SOL    HW2 6089   6.232   4.452   6.362 -1.4148 -0.0583 -0.9159
 1897SOL     OW 6090   5.448   5.184   3.298 -0.3949 -0.5664 -0.1246
 1897SOL    HW1 6091   5.449   5.094   3.332 -0.7002 -0.3401  0.5086
 1897SOL    HW2 6092   5.528   5.191   3.246  0.2719 -0.8378  0.8256
 1898SOL     OW 6093   4.742   6.558   2.083 -0.5151  0.3411  0.2240
 1898SOL    HW1 6094   4.751   6.623   2.014  1.3951  0.8048  0.8566
 1898SOL    HW2 6095   4.731   6.610   2.163  0.7894 -0.0913  0.7058
 1899SOL     OW 6096   0.807   5.165   0.831 -0.2854  0.1307 -0.4155
 1899SOL    HW1 6097   0.844   5.133   0.913 -0.3421  0.2763 -0.3339
 1899SOL    HW2 6098   0.716   5.136   0.833  0.0960 -1.2142 -1.1232
 1900SOL     OW 6099   3.919   6.723   3.867  0.6020 -0.3774 -0.8956
 1900SOL    HW1 6100   3.886   6.811   3.847 -1.5415 -0.7141  0.7956
 1900SOL    HW2 6101   3.994   6.712   3.809  0.2462  2.1242 -1.9619
 1901SOL     OW 6102   1.602   0.030   6.436 -0.1316 -0.5487 -0.1093
 1901SOL    HW1 6103   1.607   0.102   6.499  0.0962 -1.0037  0.3943
 1901SOL    HW2 6104   1.549  -0.036   6.480 -1.1509 -0.3151 -0.9476
 1902SOL     OW 6105   1.925   2.805   6.573 -0.1353  0.0571 -0.3701
 1902SOL    HW1 6106   1.914   2.746   6.499 -1.0214  0.6244 -0.6954
 1902SOL    HW2 6107   1.934   2.746   6.649 -0.9777 -0.5057 -0.6926
 1903SOL     OW 6108   0.176   1.077   5.934  0.5591 -0.1698 -0.1313
 1903SOL    HW1 6109   0.159   1.153   5.990 -0.0523  0.9397 -1.7262
 1903SOL    HW2 6110   0.263   1.047   5.960  0.5145  0.6386  1.0312
 1904SOL     OW 6111   3.183   2.859   3.890  0.3372  0.1543  0.4431
 1904SOL    HW1 6112   3.143   2.835   3.806 -1.7114  0.9026  1.1426
 1904SOL    HW2 6113   3.266   2.812   3.891  0.8838  0.8433 -2.4049
 1905SOL     OW 6114   2.456   1.785   5.044 -0.0550  0.0405 -0.2328
 1905SOL    HW1 6115   2.532   1.787   4.987  0.1426 -1.1583 -0.0350
 1905SOL    HW2 6116   2.472   1.711   5.103 -2.2648 -1.4809 -1.4370
 1906SOL     OW 6117   1.827   3.671   3.801  0.2882  0.0174  0.3119
 1906SOL    HW1 6118   1.774   3.676   3.721  2.8243 -0.3701 -1.5007
 1906SOL    HW2 6119   1.799   3.590   3.843 -0.6586 -0.0964 -0.4857
 1907SOL     OW 6120   2.308   1.738   6.712 -0.2486 -0.6922 -0.0436
 1907SOL    HW1 6121   2.250   1.814   6.713 -0.1255 -0.5567 -1.2795
 1907SOL    HW2 6122   2.343   1.733   6.801  0.3048  1.1481 -0.1150
 1908SOL     OW 6123   6.472   5.271   1.178 -0.2695 -0.0758 -0.4027
 1908SOL    HW1 6124   6.494   5.322   1.256  0.0420 -1.2170  0.2883
 1908SOL    HW2 6125   6.385   5.301   1.153 -0.3148  0.4077  0.3089
 1909SOL     OW 6126   1.626   2.786   5.459 -0.2418 -0.0505 -0.4514
 1909SOL    HW1 6127   1.673   2.849   5.513 -2.1002  0.1809  0.9762
 1909SOL    HW2 6128   1.631   2.822   5.370 -0.8804  1.9200  0.2536
 1910SOL     OW 6129   1.238   1.418   5.182 -0.6786  1.1277  0.0051
 1910SOL    HW1 6130   1.197   1.496   5.142 -2.8089  0.2728  0.3717
 1910SOL    HW2 6131   1.229   1.432   5.276 -1.2892  0.3606  0.0716
 1911SOL     OW 6132   5.201   0.903   5.023 -0.1502 -0.1516  0.3399
 1911SOL    HW1 6133   5.185   0.994   4.999  0.0087 -0.2569 -0.1895
 1911SOL    HW2 6134   5.293   0.888   5.001 -0.2797 -0.5501  0.0458
 1912SOL     OW 6135   1.443   2.936   1.905  0.2366  0.0673  0.2624
 1912SOL    HW1 6136   1.424   2.960   1.995  0.0552  0.8364  0.0237
 1912SOL    HW2 6137   1.528   2.892   1.909 -0.3079 -0.9397  0.9577
 1913SOL     OW 6138   1.112   0.885   6.733 -1.0060 -0.2604 -0.5141
 1913SOL    HW1 6139   1.106   0.926   6.647  1.0100  1.9374  0.2843
 1913SOL    HW2 6140   1.193   0.833   6.729 -0.2627  0.7788  0.3429
 1914SOL     OW 6141   5.767   1.203   2.152 -0.1341  0.5233 -0.1816
 1914SOL    HW1 6142   5.725   1.283   2.122 -2.0396 -1.0858 -2.2169
 1914SOL    HW2 6143   5.854   1.204   2.110 -0.3398  1.2853 -0.6003
 1915SOL     OW 6144   0.254   2.297   5.494 -0.5427  0.1418 -0.0827
 1915SOL    HW1 6145   0.243   2.224   5.555  1.2565  0.4769  0.7095
 1915SOL    HW2 6146   0.242   2.375   5.548  1.0169  0.4426 -0.1078
 1916SOL     OW 6147   2.942   4.534   0.358 -0.5934 -0.4334  0.0142
 1916SOL    HW1 6148   2.858   4.530   0.405  0.4724 -1.6126  1.9788
 1916SOL    HW2 6149   2.985   4.451   0.381  1.6995  0.7498  0.2457
 1917SOL     OW 6150   5.282   5.519   4.233  0.2044 -0.2528  1.1056
 1917SOL    HW1 6151   5.236   5.439   4.207  0.8754 -0.5146  0.6861
 1917SOL    HW2 6152   5.233   5.590   4.191  0.5001 -0.5710  0.2088
 1918SOL     OW 6153   2.343   6.105   3.546 -0.1937 -0.1453 -0.0694
 1918SOL    HW1 6154   2.250   6.085   3.538  0.0921 -2.0908  0.9188
 1918SOL    HW2 6155   2.363   6.092   3.639  1.5565 -2.2231 -0.6546
 1919SOL     OW 6156   1.545   0.144   1.289  0.7029  0.1020  0.2077
 1919SOL    HW1 6157   1.627   0.095   1.289  1.2274  0.9727 -0.1977
 1919SOL    HW2 6158   1.482   0.084   1.330  1.5518 -0.5363  0.6112
 1920SOL     OW 6159   4.091   1.580   1.719  0.3316 -0.1280 -0.0202
 1920SOL    HW1 6160   4.074   1.661   1.672 -0.5722 -1.2681 -1.7716
 1920SOL    HW2 6161   4.024   1.577   1.787 -0.7346 -0.2035 -1.0524
 1921SOL     OW 6162   5.950   4.044   4.328  0.6191 -0.8577 -0.4919
 1921SOL    HW1 6163   5.978   3.952   4.328 -1.7057 -1.6584 -0.9256
 1921SOL    HW2 6164   5.999   4.084   4.256  4.0109 -0.8755  1.6338
 1922SOL     OW 6165   5.447   0.120   1.305  0.1275 -0.1901 -0.5307
 1922SOL    HW1 6166   5.427   0.130   1.212 -0.5989 -1.1788 -0.4954
 1922SOL    HW2 6167   5.493   0.201   1.328  1.2746 -0.3659 -1.9839
 1923SOL     OW 6168   3.265   5.538   2.789  0.3830  0.5872 -0.1824
 1923SOL    HW1 6169   3.205   5.613   2.793 -0.7374 -0.3266  1.8748
 1923SOL    HW2 6170   3.247   5.497   2.705 -0.1627  1.6798 -0.6269
 1924SOL     OW 6171   5.682   1.567   0.647 -0.4429  0.4099 -0.8297
 1924SOL    HW1 6172   5.758   1.552   0.590 -0.6223  0.9326 -1.2155
 1924SOL    HW2 6173   5.719   1.608   0.725 -0.1940 -0.3121 -0.5611
 1925SOL     OW 6174   5.411   5.721   5.950 -0.2801  0.3095  0.0757
 1925SOL    HW1 6175   5.471   5.766   6.010  0.2355 -1.3615  0.8853
 1925SOL    HW2 6176   5.329   5.714   6.000 -0.3564  0.3330 -0.0461
 1926SOL     OW 6177   6.501   5.720   4.653  0.0048  0.1885  0.0018
 1926SOL    HW1 6178   6.429   5.783   4.651  0.2929  0.5052 -1.0288
 1926SOL    HW2 6179   6.570   5.763   4.703 -0.6516 -0.2829  1.3572
 1927SOL     OW 6180   2.903   6.634   1.997  0.4916 -0.3035 -0.0360
 1927SOL    HW1 6181   2.928   6.581   1.922  0.5807  1.3459 -1.2356
 1927SOL    HW2 6182   2.944   6.591   2.072  2.1984 -0.8335 -1.2102
 1928SOL     OW 6183   2.979   4.790   3.331 -0.6669 -0.6359  0.2557
 1928SOL    HW1 6184   2.914   4.771   3.399 -0.1383  0.2838  1.0358
 1928SOL    HW2 6185   3.023   4.869   3.361 -0.1907 -0.4010 -1.0048
 1929SOL     OW 6186   0.194   3.953   0.401 -0.4928 -0.0465 -0.5696
 1929SOL    HW1 6187   0.228   4.043   0.391 -1.7691  0.4535 -0.5831
 1929SOL    HW2 6188   0.101   3.960   0.378 -0.8917 -1.1447  0.5902
 1930SOL     OW 6189   3.754   1.948   3.064  0.3891  0.1666 -0.3274
 1930SOL    HW1 6190   3.792   2.009   3.001 -0.7673  1.5286  0.2451
 1930SOL    HW2 6191   3.793   1.863   3.042  1.4150  0.9514 -1.6654
 1931SOL     OW 6192   2.969   1.265   5.834 -0.2159  0.1099  0.1519
 1931SOL    HW1 6193   2.965   1.247   5.741 -1.5613  1.1409 -0.0192
 1931SOL    HW2 6194   3.058   1.297   5.849  0.4573 -1.3637 -0.4945
 1932SOL     OW 6195   2.043   1.079   5.914  0.1517  0.4829  0.1026
 1932SOL    HW1 6196   2.088   1.095   5.997 -0.6754 -1.5507  1.0026
 1932SOL    HW2 6197   2.074   0.993   5.886 -0.5110  0.6024 -1.0723
 1933SOL     OW 6198   2.899   4.379   2.120 -0.4848  0.0835  0.1550
 1933SOL    HW1 6199   2.948   4.323   2.060  0.8257  1.2353  0.0919
 1933SOL    HW2 6200   2.822   4.407   2.070  0.3030  0.5816 -0.8062
 1934SOL     OW 6201   4.040   4.816   0.714  0.3672  0.1573  0.2154
 1934SOL    HW1 6202   4.018   4.781   0.800  0.4062  0.1164  0.2093
 1934SOL    HW2 6203   4.124   4.859   0.726  0.1375  0.5766  0.3056
 1935SOL     OW 6204   5.178   6.397   6.165 -0.2430 -0.2377  0.4272
 1935SOL    HW1 6205   5.195   6.489   6.188 -0.3532  0.1411 -0.9058
 1935SOL    HW2 6206   5.113   6.402   6.095 -0.9972 -1.3905  1.0247
 1936SOL     OW 6207   4.742   6.423   1.764  0.4163  0.1916  0.6151
 1936SOL    HW1 6208   4.697   6.413   1.848  1.1184 -0.5960  0.9116
 1936SOL    HW2 6209   4.707   6.505   1.728 -0.6940 -0.0209  1.1657
 1937SOL     OW 6210   0.404   3.470   6.478  0.4683 -0.1498  0.1184
 1937SOL    HW1 6211   0.402   3.563   6.502 -1.4922 -0.3475  0.9231
 1937SOL    HW2 6212   0.472   3.433   6.534 -0.0599  0.4667  1.2031
 1938SOL     OW 6213   4.126   6.598   3.247  0.0786 -0.2135 -0.0062
 1938SOL    HW1 6214   4.118   6.691   3.267 -1.6199 -0.4105  0.3823
 1938SOL    HW2 6215   4.125   6.594   3.151  2.1458  0.2677 -0.1087
 1939SOL     OW 6216   6.645   5.119   3.103  0.4538 -0.7688  0.0294
 1939SOL    HW1 6217   6.663   5.025   3.107  1.5749 -0.6944 -1.7347
 1939SOL    HW2 6218   6.626   5.135   3.011 -0.2156  0.6651  0.3964
 1940SOL     OW 6219   0.879   5.538   5.113 -0.1118 -0.1393  0.0981
 1940SOL    HW1 6220   0.803   5.485   5.137  0.6655 -1.6664 -0.6974
 1940SOL    HW2 6221   0.942   5.522   5.183  0.0759 -0.1439 -0.0725
 1941SOL     OW 6222   6.286   1.215   3.731  0.2628 -0.4635  0.0843
 1941SOL    HW1 6223   6.255   1.242   3.817 -0.1780  0.3371 -0.3068
 1941SOL    HW2 6224   6.362   1.270   3.714  0.0335 -0.2403 -0.2464
 1942SOL     OW 6225   2.590   5.216   2.968  0.5811 -0.8426  0.0571
 1942SOL    HW1 6226   2.625   5.275   3.034 -0.8200 -2.0858  2.0277
 1942SOL    HW2 6227   2.594   5.265   2.886  1.0061  1.3175  1.3174
 1943SOL     OW 6228   6.344   4.957   2.915 -0.0384 -0.0844  0.0299
 1943SOL    HW1 6229   6.401   5.021   2.874 -1.1298  1.4106  0.7374
 1943SOL    HW2 6230   6.400   4.880   2.928  2.1049  1.5911  1.5059
 1944SOL     OW 6231   3.284   0.003   2.623 -0.6422 -0.5941 -0.3115
 1944SOL    HW1 6232   3.366   0.029   2.663 -0.7650  0.7316 -0.8656
 1944SOL    HW2 6233   3.293   0.028   2.531 -1.2917 -1.3266 -0.5828
 1945SOL     OW 6234   4.807   3.072   3.490  0.4461 -0.1047  0.3504
 1945SOL    HW1 6235   4.742   3.021   3.441 -1.1893  1.1167  1.1475
 1945SOL    HW2 6236   4.818   3.025   3.572  0.9446 -0.5640  0.0269
 1946SOL     OW 6237   6.560   2.293   1.750  0.1880  0.2746  0.2172
 1946SOL    HW1 6238   6.635   2.351   1.763  1.5991 -1.4942  0.3909
 1946SOL    HW2 6239   6.597   2.214   1.710 -1.5712 -0.6981  0.3942
 1947SOL     OW 6240   6.715   5.312   1.918 -0.0658  0.1130  0.2080
 1947SOL    HW1 6241   6.782   5.337   1.982  1.0016  2.5064 -1.7088
 1947SOL    HW2 6242   6.750   5.340   1.834 -1.6734 -2.4219 -1.4300
 1948SOL     OW 6243   2.597   0.217   2.238  0.4340  0.6069  0.7746
 1948SOL    HW1 6244   2.663   0.157   2.273  0.2409 -0.6441 -0.8838
 1948SOL    HW2 6245   2.644   0.300   2.225  2.1166 -0.5808 -1.5395
 1949SOL     OW 6246   5.221   1.738   1.429  0.1687  0.3300 -0.4721
 1949SOL    HW1 6247   5.251   1.816   1.382  0.6914  1.0391  0.9594
 1949SOL    HW2 6248   5.295   1.714   1.485 -1.4075  1.4432  2.3338
 1950SOL     OW 6249   6.546   1.673   4.021 -0.1702  0.7932  0.0086
 1950SOL    HW1 6250   6.635   1.709   4.016  0.5487 -0.9812 -0.8802
 1950SOL    HW2 6251   6.500   1.712   3.947  0.5444  0.0435 -0.8462
 1951SOL     OW 6252   2.640   1.814   4.275  0.2001 -0.0227  0.4980
 1951SOL    HW1 6253   2.609   1.763   4.350 -0.3727  0.5007  0.6233
 1951SOL    HW2 6254   2.665   1.898   4.312  0.4943  0.0268  0.1879
 1952SOL     OW 6255   3.282   5.944   2.914 -0.1957  0.2331 -0.3263
 1952SOL    HW1 6256   3.242   5.871   2.868 -0.5221 -0.0244  0.3626
 1952SOL    HW2 6257   3.294   6.011   2.846 -0.7946 -0.0860 -0.7537
 1953SOL     OW 6258   3.516   1.146   0.840 -0.1624  0.2718 -0.4384
 1953SOL    HW1 6259   3.594   1.193   0.867 -0.2597  0.4743 -0.5087
 1953SOL    HW2 6260   3.477   1.114   0.922 -0.9831  1.7080 -0.2367
 1954SOL     OW 6261   5.625   0.689   6.563  0.4454 -0.3594  0.0396
 1954SOL    HW1 6262   5.684   0.751   6.605  0.9217 -1.1501  0.5753
 1954SOL    HW2 6263   5.672   0.662   6.484 -0.0903  0.5155 -0.5814
 1955SOL     OW 6264   0.766   1.340   5.635 -0.1545  0.3788 -0.2069
 1955SOL    HW1 6265   0.777   1.340   5.730 -0.7267 -1.0858 -0.1148
 1955SOL    HW2 6266   0.807   1.259   5.606 -1.6557 -0.1562 -0.9776
 1956SOL     OW 6267   2.100   6.609   6.393 -0.6222 -0.1225  0.6033
 1956SOL    HW1 6268   2.174   6.563   6.354  0.3382  2.5096 -0.9024
 1956SOL    HW2 6269   2.137   6.656   6.468 -1.6174 -1.7864  2.2156
 1957SOL     OW 6270   4.196   2.971   4.405  0.6683  0.3771  0.3311
 1957SOL    HW1 6271   4.153   3.049   4.369  0.1453 -0.3906 -0.7568
 1957SOL    HW2 6272   4.266   3.006   4.459  0.1139  1.6198  0.2916
 1958SOL     OW 6273   4.634   1.030   5.455 -0.1354  0.4426  0.0286
 1958SOL    HW1 6274   4.691   1.102   5.430  0.4521 -0.1795 -0.4627
 1958SOL    HW2 6275   4.590   1.005   5.373  0.7667 -0.7128 -0.1249
 1959SOL     OW 6276   1.406   4.498   2.065 -0.1000 -0.7045 -0.0511
 1959SOL    HW1 6277   1.423   4.428   2.128 -2.2522 -1.4836 -0.2719
 1959SOL    HW2 6278   1.433   4.462   1.981  1.3858 -0.2080  0.1854
 1960SOL     OW 6279   4.908   3.358   0.577  1.1161 -0.3906 -0.6241
 1960SOL    HW1 6280   4.958   3.335   0.499  0.4415 -2.3683 -0.5334
 1960SOL    HW2 6281   4.877   3.274   0.612 -1.0293  0.6201  0.1294
 1961SOL     OW 6282   1.724   6.633   4.232 -0.5603 -0.7235 -0.6201
 1961SOL    HW1 6283   1.750   6.562   4.292 -2.9555 -1.6221 -0.5220
 1961SOL    HW2 6284   1.762   6.712   4.271  0.5063 -1.6798  0.3809
 1962SOL     OW 6285   4.827   1.219   1.475  0.4305 -0.4484  0.8756
 1962SOL    HW1 6286   4.784   1.144   1.516 -1.4492  0.6644  1.0668
 1962SOL    HW2 6287   4.822   1.289   1.540  1.7629  0.0018  0.5358
 1963SOL     OW 6288   0.698   2.554   0.410 -0.4344 -0.1288  0.1976
 1963SOL    HW1 6289   0.629   2.619   0.422  1.2841  1.8491 -0.0018
 1963SOL    HW2 6290   0.739   2.577   0.326  0.6788 -1.0387  0.4601
 1964SOL     OW 6291   5.263   3.371   5.980  0.2487  0.1857 -0.1698
 1964SOL    HW1 6292   5.320   3.446   5.963  0.5659 -0.4614 -2.1716
 1964SOL    HW2 6293   5.177   3.399   5.948  0.2832 -0.1594 -0.5717
 1965SOL     OW 6294   2.750   2.783   3.980  0.0420  0.2751  0.5574
 1965SOL    HW1 6295   2.724   2.851   4.043  2.5535  0.8207  1.1160
 1965SOL    HW2 6296   2.737   2.701   4.026  1.0541  0.6310  1.5192
 1966SOL     OW 6297   3.706   6.215   4.775 -0.1354  0.7365  0.0235
 1966SOL    HW1 6298   3.627   6.168   4.802 -0.2355  0.2092 -1.1165
 1966SOL    HW2 6299   3.721   6.279   4.844 -1.5218  0.8010  0.2925
 1967SOL     OW 6300   4.804   1.517   6.745  0.1123  0.3283  0.5777
 1967SOL    HW1 6301   4.803   1.528   6.650  1.4419 -1.3067  0.3044
 1967SOL    HW2 6302   4.851   1.594   6.778  0.7967  0.2780 -0.2372
 1968SOL     OW 6303   3.079   5.009   3.897 -0.1974 -0.4530 -0.1158
 1968SOL    HW1 6304   3.008   5.031   3.837  0.1333 -1.2738 -0.8301
 1968SOL    HW2 6305   3.038   5.005   3.983 -0.7248  0.5068 -0.3155
 1969SOL     OW 6306   2.559   6.774   2.523 -0.3647  0.0998  0.0448
 1969SOL    HW1 6307   2.541   6.686   2.556 -0.3343  0.6929  1.7278
 1969SOL    HW2 6308   2.569   6.762   2.428  0.2964 -1.8009  0.3109
 1970SOL     OW 6309   0.740   6.153   1.931  0.4705 -0.5693  0.6664
 1970SOL    HW1 6310   0.668   6.120   1.878  0.5831 -0.0340  0.1632
 1970SOL    HW2 6311   0.732   6.249   1.924  1.0129 -0.5049  0.9011
 1971SOL     OW 6312   3.415   1.934   1.307 -0.7350 -0.4049 -0.3905
 1971SOL    HW1 6313   3.455   1.862   1.356  0.2752  0.4733  0.1462
 1971SOL    HW2 6314   3.371   1.986   1.374 -0.9942 -0.2402 -0.6906
 1972SOL     OW 6315   2.380   1.372   4.551 -0.6029 -0.4016 -0.4815
 1972SOL    HW1 6316   2.309   1.343   4.608 -1.2486 -2.0823 -2.0359
 1972SOL    HW2 6317   2.416   1.291   4.515  0.5136  0.5541 -1.5882
 1973SOL     OW 6318   2.101   3.419   1.890 -0.2298 -0.1633  0.0294
 1973SOL    HW1 6319   2.051   3.346   1.929  0.3851 -0.7868 -0.3288
 1973SOL    HW2 6320   2.035   3.473   1.848 -0.8331  0.1275  1.2918
 1974SOL     OW 6321   6.008   3.480   0.562 -0.3321 -0.3045  0.1579
 1974SOL    HW1 6322   6.030   3.482   0.469  0.2072 -2.2565  0.1964
 1974SOL    HW2 6323   5.914   3.465   0.564 -0.2364 -0.9652 -0.0908
 1975SOL     OW 6324   3.377   3.133   1.094  0.3414  0.0168 -0.0688
 1975SOL    HW1 6325   3.295   3.162   1.134  0.3312  0.3237 -0.3049
 1975SOL    HW2 6326   3.444   3.154   1.159  0.0760 -1.6909  0.8127
 1976SOL     OW 6327   3.796   3.297   5.467  0.9900 -0.4087 -0.1786
 1976SOL    HW1 6328   3.888   3.312   5.448  1.0199 -0.0539  0.2446
 1976SOL    HW2 6329   3.778   3.347   5.546  0.1084  0.5748 -0.9598
 1977SOL     OW 6330   5.678   3.425   3.635 -0.4812  0.2247  0.0204
 1977SOL    HW1 6331   5.727   3.359   3.586  0.1367  0.8842 -0.2771
 1977SOL    HW2 6332   5.659   3.384   3.719 -0.0765 -0.3216 -0.1480
 1978SOL     OW 6333   0.103   4.077   6.416  0.0523  0.0916 -0.3246
 1978SOL    HW1 6334   0.176   4.090   6.476  0.6777 -0.3617 -0.9829
 1978SOL    HW2 6335   0.062   4.163   6.410  2.1112  1.0303 -1.9829
 1979SOL     OW 6336   6.423   2.019   1.010 -0.3241  0.5117 -0.0459
 1979SOL    HW1 6337   6.462   2.049   0.927 -1.1818  0.9300 -0.3107
 1979SOL    HW2 6338   6.420   2.098   1.064  1.0619  0.0628  0.7453
 1980SOL     OW 6339   2.208   4.463   6.489 -0.0769  0.2926  0.3235
 1980SOL    HW1 6340   2.132   4.510   6.455 -0.1778 -0.8468 -1.1127
 1980SOL    HW2 6341   2.210   4.381   6.439 -0.1120 -1.4368  2.9501
 1981SOL     OW 6342   4.295   0.824   1.215 -0.0643  0.4055 -0.4966
 1981SOL    HW1 6343   4.249   0.825   1.132 -0.5605 -1.6073 -0.2847
 1981SOL    HW2 6344   4.254   0.754   1.266  2.2896 -0.5536  0.2218
 1982SOL     OW 6345   6.052   1.139   4.714  0.0933 -0.0759  0.2677
 1982SOL    HW1 6346   6.035   1.112   4.804  0.7956 -1.8031 -0.0804
 1982SOL    HW2 6347   5.966   1.133   4.671  0.1832 -1.5722  0.2662
 1983SOL     OW 6348   6.580   3.818   3.604 -0.3372 -0.2185  0.2068
 1983SOL    HW1 6349   6.598   3.813   3.698  0.3737 -0.4704  0.0670
 1983SOL    HW2 6350   6.554   3.908   3.589  1.8300  0.4619  0.2768
 1984SOL     OW 6351   3.248   0.377   2.151  1.0034  0.0514 -0.0272
 1984SOL    HW1 6352   3.309   0.345   2.219  0.5367 -0.9712 -0.0706
 1984SOL    HW2 6353   3.257   0.472   2.155  1.6315 -0.0208  0.8756
 1985SOL     OW 6354   5.664   2.309   0.280  0.0119 -0.0845 -0.3765
 1985SOL    HW1 6355   5.683   2.218   0.255  1.2463  0.0537  0.0276
 1985SOL    HW2 6356   5.577   2.325   0.244  0.2690 -1.0425 -1.4821
 1986SOL     OW 6357   1.995   0.942   5.219 -0.0244  0.0872 -0.0947
 1986SOL    HW1 6358   2.006   1.030   5.184 -1.2755  1.6859  3.1002
 1986SOL    HW2 6359   1.903   0.920   5.203 -0.1570  0.1100  0.6025
 1987SOL     OW 6360   0.223   4.023   5.191  0.2583 -0.4261  0.4599
 1987SOL    HW1 6361   0.301   4.030   5.135  1.1713 -1.7236  1.4999
 1987SOL    HW2 6362   0.256   4.038   5.280 -1.1042  1.2471  0.7312
 1988SOL     OW 6363   3.945   0.182   1.402  0.6585 -0.6918 -0.0645
 1988SOL    HW1 6364   3.957   0.090   1.379 -0.2705 -0.6477 -0.7778
 1988SOL    HW2 6365   3.850   0.195   1.403  0.7548  0.0184  1.0178
 1989SOL     OW 6366   5.266   1.655   5.661  0.2017 -0.2525 -0.7198
 1989SOL    HW1 6367   5.240   1.666   5.753  0.1121  0.6016 -0.8435
 1989SOL    HW2 6368   5.253   1.562   5.644  0.7835 -0.5290  0.3038
 1990SOL     OW 6369   4.452   2.946   3.474 -0.4482 -0.3947  0.0325
 1990SOL    HW1 6370   4.539   2.939   3.435 -0.0452  1.7082  0.4249
 1990SOL    HW2 6371   4.439   3.040   3.487 -2.2749 -0.7467  1.1518
 1991SOL     OW 6372   3.626   1.847   5.904 -0.2135  0.2244  0.2950
 1991SOL    HW1 6373   3.615   1.752   5.908 -1.4779  0.3510  0.3140
 1991SOL    HW2 6374   3.587   1.879   5.986 -0.2234  0.7844  0.0748
 1992SOL     OW 6375   1.751   1.841   6.097 -0.2827  0.3666  0.2269
 1992SOL    HW1 6376   1.814   1.777   6.131 -1.2013 -1.3621 -1.1528
 1992SOL    HW2 6377   1.711   1.797   6.022 -0.8774  2.6339 -0.8767
 1993SOL     OW 6378   0.719   1.674   3.251 -0.1933 -0.4614  0.6786
 1993SOL    HW1 6379   0.717   1.758   3.298  0.6559  0.2595 -0.5184
 1993SOL    HW2 6380   0.646   1.679   3.190  0.0342 -0.4749  0.4065
 1994SOL     OW 6381   5.993   2.558   6.059  0.1444 -0.0378  0.1792
 1994SOL    HW1 6382   5.997   2.629   6.124  0.0968 -0.1161  0.2669
 1994SOL    HW2 6383   6.079   2.516   6.064  0.0114 -0.2772  0.4521
 1995SOL     OW 6384   1.140   3.877   2.570 -0.0912  0.0328 -0.1816
 1995SOL    HW1 6385   1.083   3.800   2.582 -0.4141  0.6041  2.3781
 1995SOL    HW2 6386   1.107   3.941   2.632  0.4272  2.1688 -1.9772
 1996SOL     OW 6387   5.659   4.884   0.292  0.3628  0.1684 -0.0279
 1996SOL    HW1 6388   5.582   4.865   0.345 -0.3953 -1.5796 -1.6470
 1996SOL    HW2 6389   5.727   4.826   0.326 -0.0674 -0.8104 -0.7864
 1997SOL     OW 6390   0.865   4.332   4.060  0.1741 -0.2157  0.1048
 1997SOL    HW1 6391   0.821   4.366   3.982  0.8788  1.1514  0.2710
 1997SOL    HW2 6392   0.947   4.294   4.027  0.7429  0.8739  0.2079
 1998SOL     OW 6393   0.666   5.298   2.844 -0.4733  0.4799  0.0036
 1998SOL    HW1 6394   0.701   5.241   2.775 -1.1043 -4.4075  3.2278
 1998SOL    HW2 6395   0.580   5.261   2.864 -1.0518  2.7663  2.2528
 1999SOL     OW 6396   5.039   1.358   0.902 -0.0011  0.0554  0.6200
 1999SOL    HW1 6397   5.013   1.428   0.962 -1.8590 -0.6034  0.6621
 1999SOL    HW2 6398   5.005   1.278   0.943 -0.7221 -0.4879 -0.9416
 2000SOL     OW 6399   0.433   3.346   5.602  0.2024 -0.0167 -0.7847
 2000SOL    HW1 6400   0.510   3.401   5.612 -0.6890  1.0507  0.6665
 2000SOL    HW2 6401   0.360   3.408   5.596 -0.4811 -0.9389 -3.4662
 2001SOL     OW 6402   5.861   6.021   2.720  0.2525 -0.1233 -0.4056
 2001SOL    HW1 6403   5.812   6.047   2.642  1.2199 -0.6624 -1.2102
 2001SOL    HW2 6404   5.885   5.929   2.704  2.5983  0.4664 -0.6353
 2002SOL     OW 6405   2.525   4.090   0.619 -0.1660 -0.0453  0.3691
 2002SOL    HW1 6406   2.553   3.999   0.612 -1.5854 -0.4054 -1.5348
 2002SOL    HW2 6407   2.486   4.097   0.706  1.7909 -0.6511  1.3571
 2003SOL     OW 6408   2.151   5.412   1.635  0.3632 -0.3475 -0.2730
 2003SOL    HW1 6409   2.183   5.377   1.718 -0.6890  2.8254  1.6129
 2003SOL    HW2 6410   2.220   5.470   1.605 -1.0082  1.9804  0.8016
 2004SOL     OW 6411   5.662   4.424   5.095 -0.7445 -0.1675  0.2092
 2004SOL    HW1 6412   5.615   4.346   5.065  0.7944 -0.4310 -1.7364
 2004SOL    HW2 6413   5.719   4.392   5.166 -1.8687 -0.2800  1.0839
 2005SOL     OW 6414   4.719   0.330   2.159  0.0041  0.1201 -0.0375
 2005SOL    HW1 6415   4.664   0.407   2.167 -1.2078 -0.8935  2.2525
 2005SOL    HW2 6416   4.710   0.303   2.068 -1.1987  1.4840 -0.3544
 2006SOL     OW 6417   6.325   3.200   4.008 -0.6005 -0.0845 -0.2355
 2006SOL    HW1 6418   6.238   3.239   4.000 -0.3906  0.6961  1.0177
 2006SOL    HW2 6419   6.310   3.116   4.053 -0.9763 -1.2549 -2.3819
 2007SOL     OW 6420   2.447   6.281   1.290  0.0848 -0.6385  0.0634
 2007SOL    HW1 6421   2.388   6.216   1.327 -0.6011 -0.1142 -0.0972
 2007SOL    HW2 6422   2.474   6.334   1.365 -0.7075 -0.0492 -0.0577
 2008SOL     OW 6423   3.219   6.080   0.583 -0.0120  0.0626  0.6563
 2008SOL    HW1 6424   3.157   6.149   0.604 -0.5567  0.3829 -1.7968
 2008SOL    HW2 6425   3.300   6.106   0.628 -0.8161  1.1349  1.5263
 2009SOL     OW 6426   0.246   5.308   3.100  0.0418 -0.5220 -0.3465
 2009SOL    HW1 6427   0.170   5.313   3.042 -0.1507 -1.7647 -0.2397
 2009SOL    HW2 6428   0.261   5.398   3.128 -1.4421 -0.2557 -0.3153
 2010SOL     OW 6429   4.654   2.054   1.912  0.4268 -0.4605 -0.4408
 2010SOL    HW1 6430   4.741   2.086   1.890  0.4911  1.1966  1.8425
 2010SOL    HW2 6431   4.595   2.119   1.874  0.4046  0.5652  1.2621
 2011SOL     OW 6432   5.608   0.625   2.626  0.2840 -0.2742  0.0359
 2011SOL    HW1 6433   5.587   0.677   2.548 -1.6954  0.3931  0.9542
 2011SOL    HW2 6434   5.530   0.573   2.642 -0.3534  1.3290  2.8691
 2012SOL     OW 6435   6.557   5.450   0.357  0.1927 -0.7332  0.1115
 2012SOL    HW1 6436   6.469   5.480   0.335 -0.0450 -0.6839  1.0996
 2012SOL    HW2 6437   6.546   5.358   0.380 -0.3505  0.1525  4.1577
 2013SOL     OW 6438   5.215   6.010   0.592 -0.4444  0.3537 -0.3006
 2013SOL    HW1 6439   5.189   5.921   0.615 -0.8025 -0.1031 -2.2797
 2013SOL    HW2 6440   5.311   6.008   0.595 -0.4639  0.2617  0.8151
 2014SOL     OW 6441   6.111   3.748   4.048  0.6348 -0.2559 -0.0667
 2014SOL    HW1 6442   6.203   3.773   4.046  0.8522 -0.8842  1.0620
 2014SOL    HW2 6443   6.066   3.817   4.001  1.6779  0.0965 -0.5660
 2015SOL     OW 6444   2.236   5.805   2.084  0.3768 -0.1742 -0.5271
 2015SOL    HW1 6445   2.233   5.826   2.177  0.0340  1.1631 -0.8102
 2015SOL    HW2 6446   2.326   5.826   2.057  0.4129 -0.3461 -0.5410
 2016SOL     OW 6447   6.586   6.715   3.845  0.0967  0.2274  0.0171
 2016SOL    HW1 6448   6.620   6.728   3.756 -1.2747  0.0311 -0.5611
 2016SOL    HW2 6449   6.557   6.802   3.872  0.3569  0.2543  0.2169
 2017SOL     OW 6450   1.983   4.307   4.636  0.2190 -1.0291  0.1283
 2017SOL    HW1 6451   1.948   4.335   4.551  2.0026 -1.2174 -0.7092
 2017SOL    HW2 6452   1.935   4.227   4.656  0.3362 -1.4229 -1.1009
 2018SOL     OW 6453   6.097   0.474   2.100 -0.2460 -0.0449  0.4267
 2018SOL    HW1 6454   6.131   0.433   2.021  2.0213  2.6773 -0.1784
 2018SOL    HW2 6455   6.162   0.452   2.168 -0.3386  0.4609  0.6833
 2019SOL     OW 6456   5.179   3.061   4.326 -0.4254  0.0228 -0.0918
 2019SOL    HW1 6457   5.153   3.028   4.412 -0.5467  0.5666  0.0850
 2019SOL    HW2 6458   5.195   2.982   4.274  1.4159 -0.3522  0.9438
 2020SOL     OW 6459   5.148   3.685   2.136 -0.3700 -0.3230  0.7015
 2020SOL    HW1 6460   5.070   3.685   2.080 -0.5347  0.2286  0.9205
 2020SOL    HW2 6461   5.124   3.743   2.209  0.1404 -0.3835  0.9181
 2021SOL     OW 6462   4.645   1.759   0.733  0.0310  0.0694  0.6110
 2021SOL    HW1 6463   4.623   1.706   0.656 -1.8497  0.6629  0.6955
 2021SOL    HW2 6464   4.642   1.849   0.701 -2.4154  0.4422  1.6831
 2022SOL     OW 6465   3.412   3.257   2.873 -0.1779 -0.4277  0.2013
 2022SOL    HW1 6466   3.366   3.174   2.886 -0.6347  0.0003  1.4096
 2022SOL    HW2 6467   3.486   3.253   2.932 -0.7231  0.3965  0.9681
 2023SOL     OW 6468   4.666   2.217   4.780 -0.0997 -0.9409  0.2133
 2023SOL    HW1 6469   4.583   2.207   4.733 -1.6058  0.4311  2.3879
 2023SOL    HW2 6470   4.657   2.161   4.857  0.6412 -0.1322  0.9053
 2024SOL     OW 6471   6.705   1.602   6.562  0.0957 -0.3700 -0.1566
 2024SOL    HW1 6472   6.791   1.607   6.604 -0.2534  2.2088  0.4337
 2024SOL    HW2 6473   6.725   1.589   6.469  0.9975 -2.2739  0.2549
 2025SOL     OW 6474   4.549   2.350   1.780 -0.1120  0.4358  0.1003
 2025SOL    HW1 6475   4.546   2.270   1.728  0.1730  1.3123 -1.3130
 2025SOL    HW2 6476   4.562   2.420   1.716 -1.8100  1.7886  1.1448
 2026SOL     OW 6477   2.513   5.283   5.236 -0.3635  0.1412 -0.1700
 2026SOL    HW1 6478   2.459   5.349   5.279  0.3336 -0.8014  2.3555
 2026SOL    HW2 6479   2.452   5.232   5.184 -1.3251  1.1282 -0.0477
 2027SOL     OW 6480   6.334   1.344   6.508  0.1549  0.5617 -0.2987
 2027SOL    HW1 6481   6.382   1.370   6.586 -0.1169  1.4899 -0.4265
 2027SOL    HW2 6482   6.385   1.272   6.471  1.1162  1.1141 -0.0875
 2028SOL     OW 6483   2.523   4.455   2.226  0.5592  0.1529  0.1648
 2028SOL    HW1 6484   2.604   4.405   2.234  0.5734 -0.1658 -1.6338
 2028SOL    HW2 6485   2.528   4.521   2.295  0.8124 -1.9068  2.2213
 2029SOL     OW 6486   4.034   1.074   1.779  0.1356  0.1719 -0.5533
 2029SOL    HW1 6487   3.995   0.997   1.737 -1.0386  0.7600 -0.5886
 2029SOL    HW2 6488   4.126   1.051   1.792 -0.9293 -3.0629  3.4833
 2030SOL     OW 6489   3.960   1.805   4.532  0.4929  0.4541 -0.8202
 2030SOL    HW1 6490   4.028   1.792   4.598  0.6854  2.2235 -0.6208
 2030SOL    HW2 6491   3.928   1.893   4.548 -2.5142 -0.6200 -0.3410
 2031SOL     OW 6492   3.823   3.962   3.949  0.3562  0.4926 -0.1144
 2031SOL    HW1 6493   3.730   3.981   3.948  0.1351 -0.4757  0.6099
 2031SOL    HW2 6494   3.844   3.935   3.860 -0.5174 -1.2867  0.1737
 2032SOL     OW 6495   0.611   4.157   4.048  0.0836 -0.0615  0.5148
 2032SOL    HW1 6496   0.564   4.231   4.010  1.8812  0.0183 -1.7619
 2032SOL    HW2 6497   0.697   4.191   4.071  0.3648 -1.0561  0.9971
 2033SOL     OW 6498   4.404   6.622   0.095 -0.1064  0.4733  0.2260
 2033SOL    HW1 6499   4.392   6.681   0.170  0.4110  0.1691  0.5603
 2033SOL    HW2 6500   4.367   6.539   0.124 -0.1380  0.4247  0.0458
 2034SOL     OW 6501   4.384   2.465   5.169  0.4122 -0.2985  0.3497
 2034SOL    HW1 6502   4.305   2.487   5.219 -1.1137 -1.0398 -1.6296
 2034SOL    HW2 6503   4.353   2.447   5.081  2.6515 -1.8868 -0.2007
 2035SOL     OW 6504   1.258   0.071   1.093 -0.0060  0.8560 -0.7560
 2035SOL    HW1 6505   1.184   0.052   1.034 -1.1931  0.2161  0.8688
 2035SOL    HW2 6506   1.329   0.017   1.059  0.3312  2.7531 -3.3835
 2036SOL     OW 6507   1.700   4.528   1.637 -0.1029 -0.6110  0.4358
 2036SOL    HW1 6508   1.694   4.470   1.560  0.1057 -1.0119  0.7186
 2036SOL    HW2 6509   1.745   4.606   1.605 -1.4772 -0.0660 -0.2622
 2037SOL     OW 6510   4.471   6.648   5.140 -0.5855  0.2393 -0.4443
 2037SOL    HW1 6511   4.406   6.670   5.073  0.4262  1.2040 -1.1755
 2037SOL    HW2 6512   4.522   6.729   5.150  1.4719 -0.9110 -1.0504
 2038SOL     OW 6513   4.408   3.150   3.854  0.1878  0.6238 -0.2246
 2038SOL    HW1 6514   4.414   3.058   3.829  1.2223  0.6501 -0.1205
 2038SOL    HW2 6515   4.315   3.171   3.846 -0.1554 -0.5890  0.3509
 2039SOL     OW 6516   5.875   2.537   2.169  0.0562 -0.5987  0.2725
 2039SOL    HW1 6517   5.890   2.443   2.163 -0.5870 -0.8941  2.4003
 2039SOL    HW2 6518   5.939   2.568   2.232 -1.3568 -0.0928  1.5254
 2040SOL     OW 6519   0.686   1.376   1.260  0.2106  0.0721 -0.0109
 2040SOL    HW1 6520   0.596   1.408   1.249 -0.2193 -0.8512  0.7396
 2040SOL    HW2 6521   0.694   1.305   1.196  0.7909  0.8717 -0.8619
 2041SOL     OW 6522   5.609   1.677   2.353 -0.5993  0.1576 -0.0250
 2041SOL    HW1 6523   5.571   1.749   2.403  4.3446  3.4079 -0.3139
 2041SOL    HW2 6524   5.652   1.622   2.419 -0.3560  0.1962 -0.1506
 2042SOL     OW 6525   4.949   2.413   1.690  0.0899  0.0411  0.5146
 2042SOL    HW1 6526   4.976   2.379   1.776 -1.5251  0.7485  1.3420
 2042SOL    HW2 6527   5.025   2.398   1.634  0.1960 -3.1373  1.2869
 2043SOL     OW 6528   6.329   4.167   1.949  0.2090  0.1712 -0.3115
 2043SOL    HW1 6529   6.275   4.160   1.871 -0.1387 -2.3715  0.0800
 2043SOL    HW2 6530   6.358   4.078   1.967  0.2217  0.6361  2.4830
 2044SOL     OW 6531   2.808   1.856   5.442 -0.1660  0.2433  0.1582
 2044SOL    HW1 6532   2.883   1.804   5.413  0.0637  0.4398  0.3955
 2044SOL    HW2 6533   2.846   1.922   5.500 -0.1703  1.9866 -1.7408
 2045SOL     OW 6534   4.450   4.802   1.805 -0.4172 -0.3376  0.2088
 2045SOL    HW1 6535   4.385   4.863   1.839  1.7731  2.2805  0.0547
 2045SOL    HW2 6536   4.438   4.804   1.710 -1.3907 -1.5054  0.2757
 2046SOL     OW 6537   3.418   0.899   5.369 -0.0690  0.7705  0.2076
 2046SOL    HW1 6538   3.511   0.917   5.384  0.3277 -0.9560  0.0856
 2046SOL    HW2 6539   3.391   0.964   5.305  0.8495  1.7956  0.8275
 2047SOL     OW 6540   5.894   1.587   0.478 -0.0912 -0.2792 -0.2981
 2047SOL    HW1 6541   5.929   1.676   0.489 -0.1334 -0.3272  0.2763
 2047SOL    HW2 6542   5.971   1.532   0.468 -0.0221 -0.2844  0.2050
 2048SOL     OW 6543   3.569   2.288   2.639  0.4695 -0.7498  0.1711
 2048SOL    HW1 6544   3.495   2.264   2.584 -0.2249  2.1813 -0.3911
 2048SOL    HW2 6545   3.639   2.309   2.577  1.6562 -2.9524  0.6797
 2049SOL     OW 6546   6.578   5.978   5.745  0.2541 -0.0551 -0.6789
 2049SOL    HW1 6547   6.568   5.892   5.787  0.2230  0.9173  1.4562
 2049SOL    HW2 6548   6.603   5.958   5.655 -1.0204 -2.3148 -0.6184
 2050SOL     OW 6549   2.708   6.126   0.129  0.5495 -0.6227  0.2397
 2050SOL    HW1 6550   2.791   6.128   0.082  0.1313 -0.1676 -0.4988
 2050SOL    HW2 6551   2.701   6.212   0.170  1.1199 -1.1627  1.5494
 2051SOL     OW 6552   0.706   5.263   1.568 -0.2444  0.5991 -0.6300
 2051SOL    HW1 6553   0.645   5.337   1.577 -1.3724 -0.4298  0.4862
 2051SOL    HW2 6554   0.686   5.226   1.482 -1.2996  0.1903 -0.2153
 2052SOL     OW 6555   2.336   6.190   3.123  0.1575 -0.1043  0.5991
 2052SOL    HW1 6556   2.331   6.238   3.206 -0.0734  0.3222  0.3403
 2052SOL    HW2 6557   2.355   6.100   3.149 -1.2563 -0.2481  1.2026
 2053SOL     OW 6558   1.988   6.620   3.546  0.7262 -0.1964 -0.6826
 2053SOL    HW1 6559   2.044   6.657   3.615  1.1732  0.9281 -1.6082
 2053SOL    HW2 6560   1.998   6.526   3.554 -1.0207 -0.2366  2.2652
 2054SOL     OW 6561   6.121   0.857   0.765 -0.2472  0.0074 -0.0816
 2054SOL    HW1 6562   6.046   0.908   0.733 -1.0528 -0.1268  1.4921
 2054SOL    HW2 6563   6.185   0.922   0.791  0.0594  0.1302 -1.1013
 2055SOL     OW 6564   2.261   6.128   5.648  0.2382 -0.2002  0.1429
 2055SOL    HW1 6565   2.307   6.153   5.568  2.0275  0.0406  1.1778
 2055SOL    HW2 6566   2.254   6.033   5.643 -0.5696 -0.1075 -0.7394
 2056SOL     OW 6567   0.643   4.685   6.628  0.1112 -0.5974  0.5731
 2056SOL    HW1 6568   0.554   4.658   6.606 -0.0542  0.8530 -0.7805
 2056SOL    HW2 6569   0.632   4.753   6.694  0.2734 -0.9240  0.9410
 2057SOL     OW 6570   2.916   5.201   4.276 -0.5574  0.6519 -0.2417
 2057SOL    HW1 6571   2.912   5.297   4.270  2.0209  0.7612 -2.4168
 2057SOL    HW2 6572   2.862   5.170   4.203  0.3889  0.5802 -0.9345
 2058SOL     OW 6573   4.787   4.624   6.170 -0.2629  0.0758 -0.2785
 2058SOL    HW1 6574   4.805   4.602   6.261  0.3536  0.8522 -0.2118
 2058SOL    HW2 6575   4.734   4.703   6.174 -0.6628 -0.1693 -0.5867
 2059SOL     OW 6576   3.504   2.928   4.284 -0.0757 -0.0050 -0.7182
 2059SOL    HW1 6577   3.531   2.864   4.218 -0.3531  0.2624 -1.0971
 2059SOL    HW2 6578   3.412   2.946   4.264 -0.7343 -1.3088  0.8980
 2060SOL     OW 6579   1.379   4.288   2.972  0.3113  0.5182  0.1769
 2060SOL    HW1 6580   1.335   4.204   2.982 -0.3014  0.8108 -0.0616
 2060SOL    HW2 6581   1.423   4.282   2.887 -0.8950  0.9649 -0.4916
 2061SOL     OW 6582   5.069   4.274   6.126 -0.4835  0.1737 -0.4611
 2061SOL    HW1 6583   4.987   4.320   6.142 -1.2856 -0.7397 -1.7180
 2061SOL    HW2 6584   5.137   4.339   6.145 -1.5468  1.8274 -1.9218
 2062SOL     OW 6585   0.627   1.506   0.288 -0.9142 -0.1673  0.3362
 2062SOL    HW1 6586   0.552   1.557   0.318 -0.8400 -0.1648  0.5178
 2062SOL    HW2 6587   0.701   1.567   0.290 -0.1000 -1.0559  3.7214
 2063SOL     OW 6588   4.829   0.805   5.866  0.5015 -0.0349 -0.4174
 2063SOL    HW1 6589   4.870   0.858   5.934 -1.1378  1.0750 -0.2263
 2063SOL    HW2 6590   4.885   0.819   5.789  1.1622  0.4360  0.1324
 2064SOL     OW 6591   4.760   5.367   3.311 -0.4332 -0.0429  0.4199
 2064SOL    HW1 6592   4.707   5.447   3.304  0.2333  0.2947 -1.1215
 2064SOL    HW2 6593   4.740   5.319   3.231  3.5285  1.3610 -1.6570
 2065SOL     OW 6594   6.780   6.327   6.114 -0.0164 -0.0226 -0.0143
 2065SOL    HW1 6595   6.817   6.412   6.090 -3.8056  1.9567  0.4114
 2065SOL    HW2 6596   6.755   6.287   6.031  0.7440 -0.2292 -0.1495
 2066SOL     OW 6597   2.223   3.127   5.913  0.5413  0.1857  0.2395
 2066SOL    HW1 6598   2.290   3.063   5.938  1.2189  1.0654  0.7196
 2066SOL    HW2 6599   2.253   3.209   5.952  0.0525  0.9513 -0.9623
 2067SOL     OW 6600   1.831   5.191   1.522  0.0298  0.6228  0.3571
 2067SOL    HW1 6601   1.817   5.194   1.616 -0.5348  1.1513  0.2661
 2067SOL    HW2 6602   1.749   5.156   1.486  0.5018 -0.2638  0.1083
 2068SOL     OW 6603   1.103   4.345   2.268  0.1574 -0.3091 -0.4512
 2068SOL    HW1 6604   1.174   4.282   2.269  1.2480  0.8815  1.0076
 2068SOL    HW2 6605   1.040   4.309   2.206  1.2950 -2.1846 -0.5813
 2069SOL     OW 6606   3.476   0.134   5.681 -0.2962 -0.1444  0.2367
 2069SOL    HW1 6607   3.524   0.208   5.718 -0.4207  0.3314 -0.5370
 2069SOL    HW2 6608   3.399   0.173   5.640 -0.1543 -0.6631 -0.5394
 2070SOL     OW 6609   1.938   2.279   3.054  0.1379  0.4221  0.2873
 2070SOL    HW1 6610   1.853   2.277   3.011 -0.4168  0.6735  1.3265
 2070SOL    HW2 6611   1.944   2.367   3.091  1.3630  0.7960 -0.7365
 2071SOL     OW 6612   4.683   4.054   5.745 -0.5734  0.3431 -0.7891
 2071SOL    HW1 6613   4.703   4.096   5.829 -0.4839  1.0046 -1.1368
 2071SOL    HW2 6614   4.629   4.118   5.698  0.3788  0.4810 -1.7201
 2072SOL     OW 6615   2.296   0.131   0.393  0.2681  0.1002 -0.7621
 2072SOL    HW1 6616   2.369   0.084   0.352 -0.1608 -0.8927 -0.4311
 2072SOL    HW2 6617   2.251   0.064   0.445 -0.9037  0.6911 -0.9872
 2073SOL     OW 6618   2.222   2.529   4.664  0.3507  0.2226 -0.3400
 2073SOL    HW1 6619   2.207   2.438   4.691 -1.4392  0.2420 -1.1033
 2073SOL    HW2 6620   2.270   2.568   4.737  0.8607 -1.2351  0.1467
 2074SOL     OW 6621   5.284   5.705   5.307  0.1467 -0.0270  0.2332
 2074SOL    HW1 6622   5.278   5.641   5.378 -1.3714 -1.1135 -0.8169
 2074SOL    HW2 6623   5.223   5.774   5.331 -0.2486 -0.3176  0.0722
 2075SOL     OW 6624   0.837   2.691   5.929 -0.0863  0.2936  0.3015
 2075SOL    HW1 6625   0.846   2.783   5.953  0.4169  0.6805 -1.2355
 2075SOL    HW2 6626   0.742   2.676   5.929 -0.1588  0.7296  0.8549
 2076SOL     OW 6627   4.985   5.253   1.932 -0.1938  0.0146 -0.4591
 2076SOL    HW1 6628   4.897   5.216   1.941 -0.1223  0.1438  0.8998
 2076SOL    HW2 6629   5.012   5.228   1.843 -0.7314 -1.9008 -0.1314
 2077SOL     OW 6630   1.933   1.715   2.798 -0.5158 -0.3363  0.3347
 2077SOL    HW1 6631   1.941   1.663   2.878  1.3164  0.4947  0.7544
 2077SOL    HW2 6632   1.955   1.805   2.825  1.7905 -0.2949 -1.3285
 2078SOL     OW 6633   1.156   5.426   5.609 -0.8248  0.1925  0.3980
 2078SOL    HW1 6634   1.084   5.375   5.646 -2.3773  1.0681 -1.2564
 2078SOL    HW2 6635   1.169   5.499   5.670 -2.1327  0.6426  0.1591
 2079SOL     OW 6636   2.121   3.074   0.166 -0.4354  0.6196  0.6212
 2079SOL    HW1 6637   2.028   3.066   0.184 -0.5870  0.6911 -0.0810
 2079SOL    HW2 6638   2.125   3.101   0.074  0.2785  0.4537  0.5972
 2080SOL     OW 6639   2.517   3.182   5.389 -0.0632  0.4539  0.3040
 2080SOL    HW1 6640   2.461   3.156   5.462  0.8446  1.1408  1.2738
 2080SOL    HW2 6641   2.459   3.183   5.313 -0.5538 -2.6741  0.4989
 2081SOL     OW 6642   2.078   1.971   1.132 -0.0936 -0.4682 -0.5900
 2081SOL    HW1 6643   2.036   1.964   1.218  1.0200  1.1305  0.1413
 2081SOL    HW2 6644   2.041   2.050   1.094  0.5617 -0.3126 -0.9082
 2082SOL     OW 6645   4.855   0.287   1.270 -0.0794  0.2188  0.4097
 2082SOL    HW1 6646   4.916   0.214   1.257  1.2189  0.7287  3.0812
 2082SOL    HW2 6647   4.911   0.364   1.275 -1.1447  0.9769  0.9788
 2083SOL     OW 6648   2.784   1.135   2.368  0.2417  0.2734  0.4570
 2083SOL    HW1 6649   2.787   1.223   2.408  0.6858  1.0833 -1.2525
 2083SOL    HW2 6650   2.875   1.107   2.367  0.1475 -0.0374  0.6273
 2084SOL     OW 6651   6.222   1.798   1.906 -0.0427  0.6450 -0.1839
 2084SOL    HW1 6652   6.272   1.795   1.987  0.1600  3.7114 -0.0534
 2084SOL    HW2 6653   6.176   1.714   1.902  2.8590 -1.1460  1.1046
 2085SOL     OW 6654   0.413   0.803   4.489 -0.4665  0.1697 -0.2793
 2085SOL    HW1 6655   0.386   0.869   4.425  1.0071  0.3556 -0.7542
 2085SOL    HW2 6656   0.435   0.726   4.437 -1.6173 -0.5298  0.2276
 2086SOL     OW 6657   5.221   5.043   6.006 -0.2502 -0.0440  0.2291
 2086SOL    HW1 6658   5.221   4.948   6.009  0.4119 -0.0431  0.4254
 2086SOL    HW2 6659   5.313   5.068   6.014 -0.5449  0.6559  1.9939
 2087SOL     OW 6660   2.097   4.963   0.691 -0.4294  0.1214  0.3485
 2087SOL    HW1 6661   2.094   5.030   0.760  1.3342 -0.5155  1.0876
 2087SOL    HW2 6662   2.164   4.995   0.630 -1.3429  0.2275 -0.6280
 2088SOL     OW 6663   2.406   3.862   4.027 -0.3767 -0.0600  0.0639
 2088SOL    HW1 6664   2.384   3.913   3.949  2.2030 -1.3112 -1.6157
 2088SOL    HW2 6665   2.325   3.814   4.047 -1.0656  0.1241 -2.0120
 2089SOL     OW 6666   1.903   6.768   6.344 -0.0237 -0.2463 -0.0758
 2089SOL    HW1 6667   1.972   6.707   6.367 -0.5929 -0.4723  1.1324
 2089SOL    HW2 6668   1.945   6.832   6.286  1.3673  0.0090  1.1681
 2090SOL     OW 6669   0.013   5.762   0.475 -0.7311  0.1385  0.4093
 2090SOL    HW1 6670   0.101   5.727   0.493 -0.9185 -0.4751  0.1673
 2090SOL    HW2 6671   0.012   5.848   0.517 -0.1042  0.0362  0.6437
 2091SOL     OW 6672   5.584   0.481   4.029 -0.4359  0.6235  0.4447
 2091SOL    HW1 6673   5.607   0.564   3.987 -1.0346  1.1531  1.1222
 2091SOL    HW2 6674   5.489   0.475   4.020 -0.9980  2.0545  3.8972
 2092SOL     OW 6675   4.900   3.705   2.413 -0.4160 -0.4058  0.8342
 2092SOL    HW1 6676   4.848   3.686   2.334 -1.5198  1.8003  0.9528
 2092SOL    HW2 6677   4.964   3.770   2.385  0.9891 -1.5993  1.1793
 2093SOL     OW 6678   3.558   1.722   4.079  0.3115  0.6534 -0.2461
 2093SOL    HW1 6679   3.543   1.642   4.028 -0.7305  0.9413 -0.4014
 2093SOL    HW2 6680   3.619   1.695   4.148 -0.5050 -0.4384  0.0852
 2094SOL     OW 6681   6.255   4.875   6.538  0.2922  0.0269 -0.3732
 2094SOL    HW1 6682   6.268   4.961   6.496  1.2745  0.0638 -0.0138
 2094SOL    HW2 6683   6.200   4.894   6.614 -1.6635 -0.0641 -1.6831
 2095SOL     OW 6684   2.668   6.491   3.151  0.3128 -0.7688 -0.0631
 2095SOL    HW1 6685   2.625   6.417   3.108  0.9444 -1.1288 -0.0813
 2095SOL    HW2 6686   2.723   6.451   3.218  0.1207 -0.2687  0.3987
 2096SOL     OW 6687   0.284   3.359   3.194 -0.2532  0.6241  0.2095
 2096SOL    HW1 6688   0.334   3.385   3.117  1.1048  2.7310  1.6947
 2096SOL    HW2 6689   0.318   3.414   3.265 -0.8864 -1.7269  2.5196
 2097SOL     OW 6690   1.727   4.727   0.974 -0.1617 -0.0187 -0.0929
 2097SOL    HW1 6691   1.701   4.758   0.888  0.3150 -1.7099 -0.8927
 2097SOL    HW2 6692   1.776   4.799   1.012  0.7225  0.3006 -1.7549
 2098SOL     OW 6693   4.880   2.269   6.510  0.4399  0.0746  0.5056
 2098SOL    HW1 6694   4.924   2.256   6.426  1.1818  0.4462  0.8237
 2098SOL    HW2 6695   4.877   2.182   6.550 -1.3361 -0.3998 -0.5639
 2099SOL     OW 6696   4.038   5.424   5.178  0.0547 -0.0919  0.5420
 2099SOL    HW1 6697   4.005   5.337   5.155  0.5569 -0.5610  1.5212
 2099SOL    HW2 6698   3.986   5.449   5.254  1.3884 -0.5075  1.6342
 2100SOL     OW 6699   4.479   0.062   4.524 -0.0239 -0.0299  0.0627
 2100SOL    HW1 6700   4.420   0.122   4.570 -1.6626 -0.6037 -1.2176
 2100SOL    HW2 6701   4.432  -0.022   4.523  1.1875 -0.7284 -0.2665
 2101SOL     OW 6702   5.502   1.573   1.891 -0.0676  0.4767  0.7355
 2101SOL    HW1 6703   5.565   1.592   1.961 -1.3753 -1.9059  2.7217
 2101SOL    HW2 6704   5.421   1.550   1.937 -1.6648  0.9743 -1.6654
 2102SOL     OW 6705   6.206   1.771   4.654  0.0436 -0.1907 -0.2689
 2102SOL    HW1 6706   6.185   1.806   4.568 -0.2755  0.3173  0.0079
 2102SOL    HW2 6707   6.120   1.752   4.693  0.0754  1.3362  0.6436
 2103SOL     OW 6708   3.347   5.761   3.464  0.5870 -0.4713 -0.0669
 2103SOL    HW1 6709   3.350   5.779   3.370 -0.3598  1.6412  0.2717
 2103SOL    HW2 6710   3.256   5.777   3.489  1.1113  0.3356  1.4473
 2104SOL     OW 6711   0.326   0.198   4.540 -0.2372  0.4955 -0.5566
 2104SOL    HW1 6712   0.396   0.262   4.550 -0.9950  1.3487 -0.6155
 2104SOL    HW2 6713   0.252   0.234   4.590 -1.0570  0.2513 -1.5529
 2105SOL     OW 6714   4.584   5.975   3.063 -0.0015 -0.3286 -0.4430
 2105SOL    HW1 6715   4.659   5.955   3.118  0.3790  0.1708 -0.7708
 2105SOL    HW2 6716   4.609   5.944   2.976 -0.2632 -0.3523 -0.5118
 2106SOL     OW 6717   5.251   2.841   3.838  0.3259  0.1251  0.2046
 2106SOL    HW1 6718   5.216   2.907   3.898  0.2816 -1.3318  1.8358
 2106SOL    HW2 6719   5.174   2.806   3.794  0.1355 -0.2147  0.7959
 2107SOL     OW 6720   4.313   4.528   3.560  0.0602 -0.6383 -0.0415
 2107SOL    HW1 6721   4.221   4.530   3.587 -0.1404  0.6386 -0.7254
 2107SOL    HW2 6722   4.345   4.616   3.578  0.4241 -0.2818 -2.1779
 2108SOL     OW 6723   4.111   5.136   1.751  0.1163 -0.1378 -0.1142
 2108SOL    HW1 6724   4.206   5.145   1.740  0.1674 -0.6696 -0.1255
 2108SOL    HW2 6725   4.091   5.189   1.828  0.4922 -0.3864  0.1588
 2109SOL     OW 6726   5.213   1.235   3.774  0.1007 -0.1656  0.2542
 2109SOL    HW1 6727   5.222   1.247   3.680  1.1688  0.1624  0.3849
 2109SOL    HW2 6728   5.153   1.305   3.801  2.3247  1.8718  0.2588
 2110SOL     OW 6729   2.630   3.853   4.478  0.0072  0.3235 -0.9146
 2110SOL    HW1 6730   2.703   3.895   4.433  0.8098  0.4748  0.5032
 2110SOL    HW2 6731   2.559   3.917   4.475  0.9825  1.5194  0.5781
 2111SOL     OW 6732   6.264   5.346   5.731 -1.2196  0.0711 -0.8329
 2111SOL    HW1 6733   6.259   5.436   5.766 -0.3444 -0.5085  0.9204
 2111SOL    HW2 6734   6.284   5.358   5.638  2.1976  1.7593 -0.0543
 2112SOL     OW 6735   6.021   6.249   4.590  0.1248  0.4254 -0.3604
 2112SOL    HW1 6736   5.981   6.213   4.510 -1.5007 -0.8938  0.9476
 2112SOL    HW2 6737   5.979   6.334   4.602  0.2016  0.5235 -0.7824
 2113SOL     OW 6738   3.219   2.010   5.910 -0.3792  0.3745 -0.6277
 2113SOL    HW1 6739   3.244   1.934   5.964  2.6575  0.7337 -1.3547
 2113SOL    HW2 6740   3.251   2.086   5.959  0.1118  0.8736 -1.6836
 2114SOL     OW 6741   1.012   1.848   3.984 -0.2304 -0.1117 -0.4841
 2114SOL    HW1 6742   1.087   1.842   4.043 -0.1307 -0.0798 -0.6067
 2114SOL    HW2 6743   1.051   1.851   3.896 -0.2172  2.7459 -0.4717
 2115SOL     OW 6744   5.068   0.379   0.247 -0.2641  0.5663  0.2062
 2115SOL    HW1 6745   4.978   0.356   0.224 -0.8925  0.6723  2.3343
 2115SOL    HW2 6746   5.065   0.474   0.263  0.5183  0.7873 -0.8412
 2116SOL     OW 6747   0.524   1.899   4.676 -0.2293  0.1263  0.1120
 2116SOL    HW1 6748   0.577   1.821   4.693  2.2878  1.7138 -0.0165
 2116SOL    HW2 6749   0.500   1.932   4.762  0.5592  0.4109  0.2243
 2117SOL     OW 6750   4.216   1.265   3.859 -0.9079  0.9620 -0.0196
 2117SOL    HW1 6751   4.222   1.292   3.951  0.2243  1.0433 -0.1005
 2117SOL    HW2 6752   4.133   1.302   3.828 -2.9851 -1.7316  1.8059
 2118SOL     OW 6753   3.080   6.400   2.879  0.1583 -0.1949  0.5047
 2118SOL    HW1 6754   3.009   6.454   2.914 -0.3044 -0.5649  0.1486
 2118SOL    HW2 6755   3.136   6.383   2.955 -1.1853 -1.5543  1.2629
 2119SOL     OW 6756   5.437   4.322   0.309  0.0331  0.3987 -0.2698
 2119SOL    HW1 6757   5.506   4.292   0.369  0.5757  1.0659 -0.5476
 2119SOL    HW2 6758   5.364   4.346   0.366 -0.0532 -0.5033  0.0174
 2120SOL     OW 6759   0.611   2.369   6.026 -0.3022  0.2531 -0.0773
 2120SOL    HW1 6760   0.695   2.340   5.991 -0.6922  0.2443 -1.0132
 2120SOL    HW2 6761   0.570   2.289   6.058  0.8785  0.4941  2.2881
 2121SOL     OW 6762   0.760   0.354   1.290  0.3291 -0.7206 -0.0463
 2121SOL    HW1 6763   0.700   0.390   1.355 -1.8673  0.1775 -2.3788
 2121SOL    HW2 6764   0.822   0.425   1.272 -0.0963 -0.3564 -0.1004
 2122SOL     OW 6765   4.299   4.888   2.729 -0.2014 -0.3038  0.3836
 2122SOL    HW1 6766   4.237   4.882   2.802 -0.5514  0.3488  0.1544
 2122SOL    HW2 6767   4.309   4.982   2.714  1.7500 -0.3419  1.1587
 2123SOL     OW 6768   4.506   2.972   0.371 -0.0988  0.1195 -0.7235
 2123SOL    HW1 6769   4.427   2.946   0.419 -0.3562  0.6662 -0.8366
 2123SOL    HW2 6770   4.510   2.912   0.297  1.0565 -1.6467  0.6629
 2124SOL     OW 6771   6.595   2.357   0.182  0.1670  0.4071 -0.1957
 2124SOL    HW1 6772   6.674   2.344   0.128 -0.0109 -0.4495 -0.2665
 2124SOL    HW2 6773   6.564   2.444   0.158 -0.2541 -0.1806 -1.9601
 2125SOL     OW 6774   4.005   0.665   5.017 -0.4116 -0.5389 -0.6526
 2125SOL    HW1 6775   4.082   0.615   5.044  0.0038  0.9502  1.1316
 2125SOL    HW2 6776   3.943   0.599   4.987 -0.4856 -2.3765  3.0101
 2126SOL     OW 6777   4.605   5.863   6.033  0.4372  0.0660 -0.0222
 2126SOL    HW1 6778   4.693   5.885   6.063  0.4138  1.3216 -0.8181
 2126SOL    HW2 6779   4.619   5.795   5.966  0.8996  0.9985 -0.8936
 2127SOL     OW 6780   4.184   0.408   0.887 -0.0890  0.1045  0.1973
 2127SOL    HW1 6781   4.107   0.353   0.901  0.7584 -1.0579  0.4294
 2127SOL    HW2 6782   4.254   0.364   0.935  0.9554  0.6110 -0.8195
 2128SOL     OW 6783   2.706   2.962   3.069  0.0351  0.1202  0.3050
 2128SOL    HW1 6784   2.707   3.058   3.072  1.0623  0.1083  0.6398
 2128SOL    HW2 6785   2.634   2.941   3.010 -0.4613  1.0904  0.5407
 2129SOL     OW 6786   4.809   6.576   5.746  0.1729  0.3761  0.1353
 2129SOL    HW1 6787   4.856   6.610   5.822  0.5456  0.5660 -0.1720
 2129SOL    HW2 6788   4.813   6.481   5.755  2.4446  0.2834 -0.9245
 2130SOL     OW 6789   4.057   1.340   5.494 -0.6683  0.5315  0.1832
 2130SOL    HW1 6790   4.152   1.327   5.498 -0.9764 -2.3790  0.1252
 2130SOL    HW2 6791   4.029   1.334   5.586 -0.8607  0.8653  0.1475
 2131SOL     OW 6792   6.262   2.079   5.867  0.6398 -0.2494 -0.1770
 2131SOL    HW1 6793   6.328   2.146   5.884 -0.2795  0.1646  2.1481
 2131SOL    HW2 6794   6.293   2.002   5.914 -1.2610  0.4738  2.5267
 2132SOL     OW 6795   5.636   5.045   2.852 -0.6309 -0.0129 -0.6395
 2132SOL    HW1 6796   5.711   4.992   2.824 -0.5818 -0.4072  0.1922
 2132SOL    HW2 6797   5.629   5.114   2.786  0.3051 -0.1275 -0.8754
 2133SOL     OW 6798   5.359   2.180   1.702 -0.1167 -0.4435 -0.3469
 2133SOL    HW1 6799   5.316   2.250   1.751 -0.2253 -2.0698  2.0307
 2133SOL    HW2 6800   5.343   2.203   1.610  0.7730  3.1889  0.2246
 2134SOL     OW 6801   6.365   5.254   2.490  0.2736 -0.4799 -0.1506
 2134SOL    HW1 6802   6.412   5.331   2.458 -0.3025 -0.5017 -1.1165
 2134SOL    HW2 6803   6.352   5.270   2.583  0.7115  0.3023 -0.2174
 2135SOL     OW 6804   4.396   2.252   3.178  0.1031  0.0453 -0.1686
 2135SOL    HW1 6805   4.336   2.218   3.245  1.7427 -0.3603  1.1881
 2135SOL    HW2 6806   4.387   2.191   3.105  1.7443 -2.5190  1.5684
 2136SOL     OW 6807   6.031   4.194   0.796 -0.0642 -0.5904  0.2932
 2136SOL    HW1 6808   6.077   4.147   0.727  1.3665  0.4756  0.4725
 2136SOL    HW2 6809   5.959   4.136   0.821 -0.3787 -1.1899 -1.7866
 2137SOL     OW 6810   6.457   1.945   6.201 -0.0171 -0.6293  0.3532
 2137SOL    HW1 6811   6.469   2.038   6.217 -0.2450 -0.0248 -2.4515
 2137SOL    HW2 6812   6.405   1.914   6.275 -2.0942  2.0349  0.1442
 2138SOL     OW 6813   0.023   6.072   2.349  0.0946  0.8452  0.0866
 2138SOL    HW1 6814   0.026   6.111   2.437  2.4340 -0.0109  0.4766
 2138SOL    HW2 6815   0.064   6.138   2.292  1.7566  0.0622  0.3077
 2139SOL     OW 6816   2.477   0.857   0.340  0.0519  0.7764  0.4109
 2139SOL    HW1 6817   2.491   0.952   0.338 -1.5533  1.0489  0.9155
 2139SOL    HW2 6818   2.534   0.823   0.271  2.5517  1.8078  1.7868
 2140SOL     OW 6819   3.224   1.872   5.232 -0.3945  0.2750 -0.3594
 2140SOL    HW1 6820   3.148   1.925   5.207  1.5286  3.6702  0.3109
 2140SOL    HW2 6821   3.276   1.865   5.152 -2.0664 -3.6609 -1.3203
 2141SOL     OW 6822   2.012   1.388   4.455 -0.7709  0.0762 -0.3080
 2141SOL    HW1 6823   1.968   1.341   4.384  1.5684 -1.5561 -0.7747
 2141SOL    HW2 6824   2.076   1.444   4.411  0.5776 -0.8054  0.4644
 2142SOL     OW 6825   0.522   3.591   6.025 -0.0600  0.1329 -0.3871
 2142SOL    HW1 6826   0.473   3.517   6.061 -0.2806  0.5044  0.0935
 2142SOL    HW2 6827   0.483   3.606   5.939 -0.2138 -0.1155 -0.3625
 2143SOL     OW 6828   0.794   1.194   1.443  0.1078  0.3910  0.2725
 2143SOL    HW1 6829   0.872   1.238   1.477  0.2364  0.2626  0.1454
 2143SOL    HW2 6830   0.748   1.262   1.394 -0.3449  0.7174  1.1150
 2144SOL     OW 6831   3.456   0.624   0.391  0.2932 -0.4459  0.1531
 2144SOL    HW1 6832   3.499   0.698   0.433 -0.6922  0.7347 -0.8284
 2144SOL    HW2 6833   3.467   0.640   0.297 -0.8893 -0.9411 -0.0934
 2145SOL     OW 6834   6.697   1.823   1.389 -0.0684  0.0077 -0.0129
 2145SOL    HW1 6835   6.612   1.838   1.347  0.2200 -0.9813 -0.9955
 2145SOL    HW2 6836   6.711   1.901   1.444 -1.3142  0.4681 -0.3209
 2146SOL     OW 6837   1.600   6.704   2.794  0.0665  0.5272  0.0250
 2146SOL    HW1 6838   1.621   6.756   2.871  0.2786 -0.0272  0.3492
 2146SOL    HW2 6839   1.516   6.663   2.816  1.1347 -1.3237  0.8695
 2147SOL     OW 6840   4.449   3.247   0.987 -0.3713  0.3701 -0.2218
 2147SOL    HW1 6841   4.484   3.272   0.902 -0.7095 -2.8597 -1.4370
 2147SOL    HW2 6842   4.355   3.243   0.974 -0.3786 -0.7576  0.0954
 2148SOL     OW 6843   6.119   4.505   3.348 -0.5433  0.3154 -0.2726
 2148SOL    HW1 6844   6.127   4.574   3.414 -0.1094  0.2753 -0.2832
 2148SOL    HW2 6845   6.207   4.495   3.312 -0.8969  0.8144 -1.3373
 2149SOL     OW 6846   1.247   6.077   0.952 -0.0206  0.0383  0.3524
 2149SOL    HW1 6847   1.188   6.103   1.023  0.4842  0.1656  0.7289
 2149SOL    HW2 6848   1.270   6.158   0.908  0.6911  0.1186  0.8526
 2150SOL     OW 6849   5.552   1.978   0.737  0.3774 -0.2552 -0.0844
 2150SOL    HW1 6850   5.592   2.047   0.683  1.1843 -1.7928 -1.5652
 2150SOL    HW2 6851   5.473   1.953   0.689  0.8286 -1.2830 -0.3211
 2151SOL     OW 6852   5.563   4.098   5.675 -0.5794  0.3304 -0.2385
 2151SOL    HW1 6853   5.519   4.062   5.752  1.3107 -0.4098  0.5338
 2151SOL    HW2 6854   5.570   4.025   5.614  2.2754 -0.4778  0.8955
 2152SOL     OW 6855   3.038   1.840   2.282  0.2153  0.8384  0.8949
 2152SOL    HW1 6856   3.066   1.882   2.201 -0.0910 -0.9851 -0.2071
 2152SOL    HW2 6857   3.118   1.799   2.316 -0.1273 -0.4763  0.1788
 2153SOL     OW 6858   0.721   0.039   4.800 -0.4561  0.3713 -0.2608
 2153SOL    HW1 6859   0.685  -0.047   4.819  0.2263 -0.4032 -2.2190
 2153SOL    HW2 6860   0.768   0.064   4.880  0.8922 -1.9030 -0.2612
 2154SOL     OW 6861   0.419   4.598   1.003  0.4515 -0.6451 -0.2966
 2154SOL    HW1 6862   0.357   4.528   1.026  1.3817 -1.0142  1.2705
 2154SOL    HW2 6863   0.489   4.554   0.955 -0.5030 -0.2079 -2.1693
 2155SOL     OW 6864   5.472   2.164   0.956  0.5994 -0.1953 -0.3048
 2155SOL    HW1 6865   5.516   2.112   0.889  0.1947 -1.2873  0.2681
 2155SOL    HW2 6866   5.381   2.167   0.927  0.2844 -1.2414  0.5258
 2156SOL     OW 6867   6.196   2.617   3.754 -0.1315  0.0298  0.4003
 2156SOL    HW1 6868   6.106   2.610   3.787 -0.2149 -0.7163  0.0363
 2156SOL    HW2 6869   6.250   2.581   3.824 -0.2290 -0.6854  0.1165
 2157SOL     OW 6870   1.226   4.788   4.165  0.0925 -0.7360  0.3174
 2157SOL    HW1 6871   1.163   4.779   4.093 -0.0135 -0.1870  0.3405
 2157SOL    HW2 6872   1.311   4.772   4.124  0.2221  1.3999 -0.3419
 2158SOL     OW 6873   6.449   1.889   4.426  0.3200 -1.0236 -0.8007
 2158SOL    HW1 6874   6.415   1.801   4.441  2.3235 -1.8624 -0.8842
 2158SOL    HW2 6875   6.533   1.875   4.381  1.8894  0.7751  1.3587
 2159SOL     OW 6876   6.309   6.476   5.782  0.0736  0.0995  0.3214
 2159SOL    HW1 6877   6.225   6.492   5.741  0.1734  1.4885  0.6065
 2159SOL    HW2 6878   6.311   6.382   5.798 -0.9166 -0.1205 -0.7543
 2160SOL     OW 6879   3.996   0.437   5.387 -0.2683  0.0624  0.2941
 2160SOL    HW1 6880   3.977   0.393   5.304  0.2755  1.1039 -0.4127
 2160SOL    HW2 6881   4.069   0.495   5.366 -1.2241  1.5949  1.0677
 2161SOL     OW 6882   1.745   5.222   4.845  0.4444 -0.1053  0.5653
 2161SOL    HW1 6883   1.792   5.236   4.928 -1.6642 -1.7062  2.1709
 2161SOL    HW2 6884   1.694   5.143   4.861 -3.0385  1.6620 -0.8701
 2162SOL     OW 6885   0.994   2.716   3.101  0.2674  0.0719 -0.4692
 2162SOL    HW1 6886   1.048   2.712   3.180 -1.1588  0.0507  0.5473
 2162SOL    HW2 6887   1.010   2.803   3.065  0.3459  0.3769  0.2838
 2163SOL     OW 6888   1.611   5.600   4.517 -0.7411  0.5974 -0.4383
 2163SOL    HW1 6889   1.522   5.569   4.534 -0.8023  0.6329 -0.6971
 2163SOL    HW2 6890   1.667   5.525   4.540 -0.8662  0.4156 -0.7155
 2164SOL     OW 6891   5.477   1.000   5.704 -0.2910  0.3979 -0.9205
 2164SOL    HW1 6892   5.497   1.026   5.793 -1.2989 -0.3021 -0.4734
 2164SOL    HW2 6893   5.562   0.998   5.659  0.4671 -1.0476  0.4959
 2165SOL     OW 6894   3.277   3.313   6.348  0.9530 -0.2979 -0.4910
 2165SOL    HW1 6895   3.235   3.356   6.423  2.1866 -0.4355  0.3087
 2165SOL    HW2 6896   3.220   3.333   6.274 -1.0326 -1.2680  0.6904
 2166SOL     OW 6897   3.852   2.188   3.296 -0.5894 -0.3852  0.1011
 2166SOL    HW1 6898   3.909   2.218   3.367 -0.2416 -0.7562 -0.0213
 2166SOL    HW2 6899   3.824   2.269   3.253 -1.4429 -0.0959  1.1312
 2167SOL     OW 6900   1.986   6.173   2.074 -0.5438 -0.1040 -0.0542
 2167SOL    HW1 6901   2.050   6.146   2.009 -0.1122  0.6264  0.0556
 2167SOL    HW2 6902   2.037   6.196   2.151 -0.9126  0.7339 -0.0497
 2168SOL     OW 6903   4.833   3.701   0.563 -0.6835 -0.3245 -0.2687
 2168SOL    HW1 6904   4.859   3.659   0.645 -0.2439 -0.7127 -0.5994
 2168SOL    HW2 6905   4.773   3.639   0.522 -0.8307 -0.1734 -0.2825
 2169SOL     OW 6906   5.654   1.891   1.602 -0.6832  0.3808 -0.1121
 2169SOL    HW1 6907   5.667   1.933   1.517 -0.1213 -0.0411 -0.2472
 2169SOL    HW2 6908   5.692   1.803   1.590 -0.9936  0.1720  0.4414
 2170SOL     OW 6909   5.666   3.574   0.838  0.6057  0.1369  0.1001
 2170SOL    HW1 6910   5.758   3.571   0.863  0.0423 -1.4223  2.3154
 2170SOL    HW2 6911   5.624   3.625   0.907 -0.6556 -2.2408  1.2356
 2171SOL     OW 6912   3.130   3.653   5.861 -0.5443 -0.2186 -0.7080
 2171SOL    HW1 6913   3.181   3.685   5.786  0.6538  0.2457  0.2709
 2171SOL    HW2 6914   3.179   3.576   5.892 -1.5041 -0.9356 -0.9024
 2172SOL     OW 6915   6.098   0.869   1.715  0.5058 -0.3651 -0.1134
 2172SOL    HW1 6916   6.131   0.926   1.785  0.1940  0.0408 -0.2971
 2172SOL    HW2 6917   6.141   0.785   1.731  1.1787 -0.0058 -0.0034
 2173SOL     OW 6918   3.169   4.388   0.486 -0.5522 -0.5335  0.1196
 2173SOL    HW1 6919   3.247   4.338   0.512  0.5525  1.5895  1.1679
 2173SOL    HW2 6920   3.133   4.420   0.569 -1.1876  0.4377 -0.5200
 2174SOL     OW 6921   0.684   0.906   1.129 -0.2910  0.9092  0.5668
 2174SOL    HW1 6922   0.706   0.969   1.061 -1.8108 -1.0402 -1.8815
 2174SOL    HW2 6923   0.604   0.940   1.168  0.1955  1.6624  0.9508
 2175SOL     OW 6924   5.514   5.975   2.147 -0.4901  0.3015  0.2564
 2175SOL    HW1 6925   5.597   5.971   2.100 -1.2576  0.9798 -1.2610
 2175SOL    HW2 6926   5.455   5.918   2.096 -1.6587  1.9531 -0.3442
 2176SOL     OW 6927   4.735   3.515   3.751  0.1365 -0.0018 -0.1850
 2176SOL    HW1 6928   4.695   3.430   3.737 -0.5824  0.3650 -0.4022
 2176SOL    HW2 6929   4.819   3.509   3.705 -0.9061  0.1723 -2.2440
 2177SOL     OW 6930   4.093   1.833   6.242  0.3172 -0.1392  0.2784
 2177SOL    HW1 6931   4.069   1.771   6.311  1.9598 -0.8912  0.2367
 2177SOL    HW2 6932   4.164   1.885   6.280  0.1667  0.5219 -0.3136
 2178SOL     OW 6933   4.981   6.521   0.432  0.0440  0.0063  0.2438
 2178SOL    HW1 6934   4.976   6.468   0.512  3.0088 -2.2595 -0.8696
 2178SOL    HW2 6935   5.062   6.572   0.442 -0.3527  0.8467 -0.6764
 2179SOL     OW 6936   2.463   5.420   1.840 -0.3535 -0.3675 -0.0145
 2179SOL    HW1 6937   2.469   5.350   1.776 -1.8046 -1.8682  1.4010
 2179SOL    HW2 6938   2.441   5.498   1.788  1.8144 -0.7674 -1.6688
 2180SOL     OW 6939   1.539   6.348   2.461 -0.4588  0.0443 -0.0201
 2180SOL    HW1 6940   1.496   6.268   2.430 -0.6459  0.0063  0.3302
 2180SOL    HW2 6941   1.608   6.365   2.397 -0.6924 -0.1619 -0.3266
 2181SOL     OW 6942   0.777   2.587   3.273  0.4838  0.5143 -0.2003
 2181SOL    HW1 6943   0.743   2.675   3.288  1.7877  0.9345  0.4343
 2181SOL    HW2 6944   0.821   2.592   3.188  0.5027  0.4649 -0.1936
 2182SOL     OW 6945   6.323   6.431   4.755 -0.2935  0.2391  0.1331
 2182SOL    HW1 6946   6.261   6.400   4.689 -1.0171  0.4223  0.7240
 2182SOL    HW2 6947   6.322   6.526   4.747 -0.1421  0.2475  0.1999
 2183SOL     OW 6948   1.467   4.966   2.332  0.7669  0.0789  0.1096
 2183SOL    HW1 6949   1.531   5.026   2.370  1.1584  0.7151 -1.4617
 2183SOL    HW2 6950   1.397   5.023   2.300 -0.6002 -0.5998  1.7318
 2184SOL     OW 6951   2.013   6.697   2.476 -0.1188  0.0190 -0.2510
 2184SOL    HW1 6952   1.951   6.645   2.527 -1.2967  2.0369  0.4892
 2184SOL    HW2 6953   2.096   6.688   2.523 -0.9361  0.9787  1.4907
 2185SOL     OW 6954   0.002   6.345   1.736  0.3204  0.1515 -0.1289
 2185SOL    HW1 6955   0.057   6.312   1.807  0.3669 -0.1342 -0.2984
 2185SOL    HW2 6956   0.055   6.334   1.657 -0.1582 -0.5720 -0.3592
 2186SOL     OW 6957   2.870   1.478   6.241  0.1937  0.1166  0.6302
 2186SOL    HW1 6958   2.940   1.486   6.176 -1.0297  0.3746 -0.6984
 2186SOL    HW2 6959   2.862   1.383   6.256 -0.0169 -0.0025 -0.1824
 2187SOL     OW 6960   5.105   6.106   6.030  0.3264 -0.1536 -0.2114
 2187SOL    HW1 6961   5.101   6.068   5.942  1.0161 -0.1865 -0.2354
 2187SOL    HW2 6962   5.098   6.030   6.089  0.6998 -0.2169 -0.2481
 2188SOL     OW 6963   1.976   2.531   3.264  0.5444  0.7659 -0.0125
 2188SOL    HW1 6964   1.898   2.527   3.209  0.8178  2.4632 -0.6036
 2188SOL    HW2 6965   1.951   2.490   3.346 -0.0574 -1.3447 -1.1624
 2189SOL     OW 6966   3.405   2.648   3.890  0.2552  0.8188  0.1131
 2189SOL    HW1 6967   3.461   2.580   3.928 -0.3208  0.9847  1.2824
 2189SOL    HW2 6968   3.466   2.706   3.845  0.7708 -0.4162 -0.8721
 2190SOL     OW 6969   3.253   2.999   3.548 -0.6914 -0.5983 -0.3478
 2190SOL    HW1 6970   3.264   3.060   3.620  1.9202 -1.0020 -0.2990
 2190SOL    HW2 6971   3.183   2.940   3.576 -1.1131  0.4797  0.9478
 2191SOL     OW 6972   4.940   2.433   3.969 -0.0510  0.5841 -0.0648
 2191SOL    HW1 6973   4.946   2.455   3.876 -0.9847  0.2721 -0.2106
 2191SOL    HW2 6974   4.900   2.511   4.009 -2.1511 -0.2534 -0.3768
 2192SOL     OW 6975   1.357   0.406   2.569  0.1236 -0.8437 -0.0123
 2192SOL    HW1 6976   1.439   0.359   2.583  0.2633 -0.2167  1.3617
 2192SOL    HW2 6977   1.310   0.353   2.504  0.2162 -2.9823  1.5561
 2193SOL     OW 6978   3.749   2.010   1.078 -0.3514 -0.4412  0.3813
 2193SOL    HW1 6979   3.725   1.918   1.065  0.7652 -1.0579  2.3088
 2193SOL    HW2 6980   3.710   2.033   1.162  0.1359  0.5844  0.3367
 2194SOL     OW 6981   5.906   1.047   0.692 -0.6896 -0.1152  0.2436
 2194SOL    HW1 6982   5.914   1.057   0.597 -2.6044  2.5443  0.2397
 2194SOL    HW2 6983   5.939   1.129   0.728 -0.0317 -1.0620  1.9262
 2195SOL     OW 6984   4.004   0.751   6.424  0.1406  0.6845  0.4182
 2195SOL    HW1 6985   3.990   0.701   6.343 -0.9873 -0.5673  1.3535
 2195SOL    HW2 6986   4.043   0.688   6.484 -2.3462  0.5640  1.9992
 2196SOL     OW 6987   1.363   0.167   6.359  0.0077  0.2161  0.4717
 2196SOL    HW1 6988   1.456   0.153   6.377 -0.0047  0.4904  0.7548
 2196SOL    HW2 6989   1.359   0.248   6.309  0.0663 -0.6814 -1.0623
 2197SOL     OW 6990   4.551   3.422   4.964  0.2847  0.3202 -0.0847
 2197SOL    HW1 6991   4.535   3.365   4.889 -2.0503 -1.2220  1.4669
 2197SOL    HW2 6992   4.611   3.489   4.931  4.0950 -3.4494 -1.8379
 2198SOL     OW 6993   5.127   5.054   0.631 -0.2355  0.4752 -0.3755
 2198SOL    HW1 6994   5.105   5.043   0.538 -1.2677  0.1289 -0.0999
 2198SOL    HW2 6995   5.043   5.059   0.675  0.2227  2.2716  0.3799
 2199SOL     OW 6996   6.266   5.947   5.875  0.2455  0.2508 -0.1494
 2199SOL    HW1 6997   6.243   5.924   5.965 -0.8692 -2.4615 -1.0054
 2199SOL    HW2 6998   6.331   5.882   5.849 -0.8110 -0.2231 -1.8159
 2200SOL     OW 6999   2.471   6.280   2.317  0.4357 -0.6655 -0.2703
 2200SOL    HW1 7000   2.437   6.281   2.407  0.1686 -0.3746 -0.3737
 2200SOL    HW2 7001   2.426   6.352   2.273  3.4042  1.7501  0.3760
 2201SOL     OW 7002   1.649   6.706   2.055  0.2584 -0.3294  0.3871
 2201SOL    HW1 7003   1.641   6.686   2.149 -3.4094 -1.2090  0.0142
 2201SOL    HW2 7004   1.583   6.773   2.039  1.3848  0.3942 -1.4783
 2202SOL     OW 7005   0.355   5.652   3.820 -0.2742 -0.1972  0.1795
 2202SOL    HW1 7006   0.365   5.710   3.745  0.9247 -1.9198 -1.0405
 2202SOL    HW2 7007   0.417   5.686   3.885 -0.7243  0.8076  0.1053
 2203SOL     OW 7008   1.866   4.393   4.174  0.0140  0.3979  0.2057
 2203SOL    HW1 7009   1.790   4.433   4.132  0.4596  1.6260  0.5195
 2203SOL    HW2 7010   1.835   4.308   4.203 -0.5171 -0.2007 -1.9181
 2204SOL     OW 7011   3.581   5.952   1.512  0.8548  0.2785 -0.2309
 2204SOL    HW1 7012   3.546   5.884   1.569  2.5472  1.0748  1.8672
 2204SOL    HW2 7013   3.627   5.904   1.443 -0.3122 -0.7009 -0.3601
 2205SOL     OW 7014   1.810   5.451   3.349 -0.4370  0.4980  0.1640
 2205SOL    HW1 7015   1.897   5.435   3.386 -0.5274 -2.0190 -0.5781
 2205SOL    HW2 7016   1.772   5.516   3.408  0.6619 -0.9161  2.6179
 2206SOL     OW 7017   2.816   1.185   1.400  0.2945 -0.2740  0.1213
 2206SOL    HW1 7018   2.767   1.178   1.318  0.2288 -0.3154  0.1633
 2206SOL    HW2 7019   2.763   1.136   1.463  1.3547 -1.9925 -0.2615
 2207SOL     OW 7020   5.329   5.055   5.265  0.2853  0.3314  0.0746
 2207SOL    HW1 7021   5.300   5.032   5.353 -1.4405  2.2986  0.1008
 2207SOL    HW2 7022   5.388   5.129   5.277 -0.6797  1.2157 -0.4199
 2208SOL     OW 7023   2.995   2.875   0.428 -0.0635 -0.1423  0.0086
 2208SOL    HW1 7024   2.982   2.839   0.340  0.7306 -0.4220 -0.0044
 2208SOL    HW2 7025   2.931   2.829   0.482 -1.3324  0.8292 -0.6116
 2209SOL     OW 7026   1.322   4.218   6.156  0.3121 -0.6799  0.4833
 2209SOL    HW1 7027   1.251   4.237   6.094 -0.9581 -1.9448  1.4780
 2209SOL    HW2 7028   1.313   4.286   6.223  0.7158 -0.2150  0.0694
 2210SOL     OW 7029   2.593   1.091   0.280  0.1161 -0.4956 -0.2633
 2210SOL    HW1 7030   2.593   1.163   0.342 -1.5434  0.2844 -1.0779
 2210SOL    HW2 7031   2.685   1.068   0.268  0.6130  0.9157  0.6727
 2211SOL     OW 7032   2.589   5.236   3.624 -0.6592 -0.0957 -0.0542
 2211SOL    HW1 7033   2.589   5.224   3.529  0.1383  0.3727 -0.1178
 2211SOL    HW2 7034   2.516   5.296   3.640 -1.4945 -1.0190 -0.2421
 2212SOL     OW 7035   2.268   1.904   5.241 -0.0379 -0.4476 -0.6165
 2212SOL    HW1 7036   2.329   1.930   5.310 -1.7508 -0.4274  1.0041
 2212SOL    HW2 7037   2.323   1.876   5.168  1.8892  1.7419 -0.1332
 2213SOL     OW 7038   1.720   4.012   1.188 -0.3842 -0.3895  0.5181
 2213SOL    HW1 7039   1.795   4.003   1.246  0.2136 -2.3155 -0.4618
 2213SOL    HW2 7040   1.753   4.061   1.112 -0.8403  1.0423  1.2137
 2214SOL     OW 7041   0.860   1.536   0.135  0.1890 -0.1508 -0.0536
 2214SOL    HW1 7042   0.818   1.601   0.079  1.0061  1.0455  0.6578
 2214SOL    HW2 7043   0.885   1.585   0.214  4.0959 -0.3652 -0.9295
 2215SOL     OW 7044   3.148   4.044   0.371  0.0317  0.1027 -0.3957
 2215SOL    HW1 7045   3.128   3.958   0.407  0.6588 -0.7426 -1.9506
 2215SOL    HW2 7046   3.155   4.101   0.447 -2.7747 -0.6599  0.5563
 2216SOL     OW 7047   1.810   6.590   2.635  0.1946 -0.0082  0.2682
 2216SOL    HW1 7048   1.764   6.516   2.595  1.5418 -0.4059 -0.6057
 2216SOL    HW2 7049   1.742   6.636   2.684 -0.7106 -1.7422  0.7443
 2217SOL     OW 7050   2.063   0.906   2.386 -0.1644 -0.0875 -0.1832
 2217SOL    HW1 7051   2.137   0.858   2.425  1.2902  1.3815 -0.9774
 2217SOL    HW2 7052   2.007   0.927   2.460  0.5337 -0.6984  0.5489
 2218SOL     OW 7053   4.836   4.141   2.314  0.0269  0.5864 -0.7635
 2218SOL    HW1 7054   4.908   4.153   2.377  0.2011  0.3853 -0.9197
 2218SOL    HW2 7055   4.862   4.063   2.264 -0.6347  0.1098 -0.3659
 2219SOL     OW 7056   1.394   2.318   0.094  0.1483 -0.4873 -0.4796
 2219SOL    HW1 7057   1.448   2.263   0.152 -0.6430 -0.0068  0.7708
 2219SOL    HW2 7058   1.307   2.278   0.098  0.2683 -0.9638 -2.0810
 2220SOL     OW 7059   5.862   5.729   6.034  0.2282 -0.1919  0.4617
 2220SOL    HW1 7060   5.904   5.719   6.119  0.4984 -0.9364  0.2468
 2220SOL    HW2 7061   5.914   5.796   5.989 -0.4323  0.8435  1.1885
 2221SOL     OW 7062   2.512   0.427   1.893  0.5647  0.2840 -0.1056
 2221SOL    HW1 7063   2.422   0.397   1.904  0.6515 -1.0047 -2.2910
 2221SOL    HW2 7064   2.517   0.509   1.944 -1.4692 -0.2124  0.9960
 2222SOL     OW 7065   0.948   0.148   4.019  0.2304 -0.0830 -0.6697
 2222SOL    HW1 7066   0.919   0.154   3.928  0.6136  2.2121 -0.7068
 2222SOL    HW2 7067   0.930   0.235   4.056  0.3946 -0.8554  1.3578
 2223SOL     OW 7068   6.005   0.416   2.521  0.1732  0.1902 -0.1394
 2223SOL    HW1 7069   6.070   0.392   2.588  1.1324  0.2179 -1.0288
 2223SOL    HW2 7070   5.923   0.425   2.569  0.5580 -1.1173  0.8207
 2224SOL     OW 7071   3.743   0.560   1.796 -0.8868  0.6599 -0.0670
 2224SOL    HW1 7072   3.718   0.476   1.834  0.2674  0.3822  0.1157
 2224SOL    HW2 7073   3.797   0.538   1.720  0.8604  1.2038  0.9578
 2225SOL     OW 7074   5.067   2.295   4.270  0.1155 -0.0513  0.5893
 2225SOL    HW1 7075   5.102   2.347   4.343  0.9289 -0.3363  0.4148
 2225SOL    HW2 7076   5.100   2.339   4.192 -1.9497  1.1095  0.3050
 2226SOL     OW 7077   1.588   5.562   4.073  0.4608 -0.3443 -0.0949
 2226SOL    HW1 7078   1.650   5.533   4.140  0.0419  2.1792  1.5095
 2226SOL    HW2 7079   1.559   5.481   4.030  3.5280 -1.7477  0.2195
 2227SOL     OW 7080   4.744   4.608   1.101  0.1699  0.0377  0.1986
 2227SOL    HW1 7081   4.840   4.603   1.101  0.1035 -1.8149  0.7567
 2227SOL    HW2 7082   4.722   4.662   1.177  0.7364 -1.5287  1.5356
 2228SOL     OW 7083   2.701   3.428   5.371 -0.5895 -0.0041 -0.6146
 2228SOL    HW1 7084   2.792   3.399   5.368 -0.3217  0.4429  1.5700
 2228SOL    HW2 7085   2.650   3.347   5.381 -0.3318 -0.1433 -0.4319
 2229SOL     OW 7086   5.910   1.993   1.667  0.5477  0.1309 -0.4501
 2229SOL    HW1 7087   5.946   1.906   1.654  1.4075  0.7753 -2.8032
 2229SOL    HW2 7088   5.832   1.979   1.721  0.7268 -2.0705 -0.6865
 2230SOL     OW 7089   4.849   0.792   1.362 -0.2461  0.4990  0.4222
 2230SOL    HW1 7090   4.760   0.760   1.371  0.2157 -1.4789 -1.4516
 2230SOL    HW2 7091   4.847   0.847   1.283  0.1193  0.8332  0.6387
 2231SOL     OW 7092   2.370   5.635   2.748 -0.5352  0.0394  0.5329
 2231SOL    HW1 7093   2.278   5.659   2.754 -0.6404 -0.5021  1.2745
 2231SOL    HW2 7094   2.405   5.688   2.677 -0.5804  2.9435  2.5221
 2232SOL     OW 7095   5.762   1.101   2.919  0.2109  0.0034 -0.4306
 2232SOL    HW1 7096   5.759   1.190   2.954  0.6067  0.2138 -0.9144
 2232SOL    HW2 7097   5.846   1.066   2.951  0.1515 -0.1224 -0.4125
 2233SOL     OW 7098   4.705   0.115   4.018 -0.2525 -0.0752  0.1916
 2233SOL    HW1 7099   4.692   0.103   4.112  0.6085  1.5998  0.5699
 2233SOL    HW2 7100   4.619   0.140   3.984 -0.2684  0.7289  0.8073
 2234SOL     OW 7101   5.797   5.335   3.725 -0.7627  0.2619 -0.4577
 2234SOL    HW1 7102   5.713   5.294   3.707 -1.1201  0.4010  0.7874
 2234SOL    HW2 7103   5.826   5.369   3.641 -2.2715  0.8001 -0.7853
 2235SOL     OW 7104   2.900   3.429   4.741  0.5025 -0.7611 -0.1205
 2235SOL    HW1 7105   2.836   3.359   4.725  0.2008 -0.4360 -0.3591
 2235SOL    HW2 7106   2.860   3.507   4.702  1.7934 -0.8869 -1.8040
 2236SOL     OW 7107   3.764   6.140   3.872  0.0444 -0.5260 -0.3138
 2236SOL    HW1 7108   3.730   6.119   3.959 -0.7352  0.7109 -0.2971
 2236SOL    HW2 7109   3.688   6.175   3.825  0.3106 -1.7305 -1.7052
 2237SOL     OW 7110   5.133   3.547   0.557  0.0108  0.5804 -0.2695
 2237SOL    HW1 7111   5.096   3.470   0.600 -0.3974  0.8289 -0.1697
 2237SOL    HW2 7112   5.069   3.617   0.574  1.0926  1.3090  0.9166
 2238SOL     OW 7113   6.019   2.316   3.831  0.2778 -0.6342  0.4917
 2238SOL    HW1 7114   6.089   2.319   3.767  0.7679 -0.0851  1.0423
 2238SOL    HW2 7115   5.961   2.388   3.807 -0.8936 -1.9411 -0.8223
 2239SOL     OW 7116   4.427   6.051   1.712  0.4214  0.0128  0.3211
 2239SOL    HW1 7117   4.349   6.068   1.765 -0.1217  1.5988 -0.8971
 2239SOL    HW2 7118   4.500   6.051   1.774 -0.3369  0.4889  1.2261
 2240SOL     OW 7119   2.981   0.953   5.731  0.3417  0.1272  0.1905
 2240SOL    HW1 7120   3.007   0.912   5.649  0.9822 -0.2831  0.5918
 2240SOL    HW2 7121   2.904   1.006   5.708  2.3633  2.6634 -1.3950
 2241SOL     OW 7122   2.063   4.006   5.454 -0.5415 -0.2631 -0.0222
 2241SOL    HW1 7123   2.157   4.006   5.472 -0.3046  1.9392 -0.9391
 2241SOL    HW2 7124   2.047   3.922   5.411  1.4124  0.1214 -1.6410
 2242SOL     OW 7125   6.236   6.410   0.711  0.5885  0.1789  0.0280
 2242SOL    HW1 7126   6.314   6.357   0.697  2.0189  2.0381  0.5605
 2242SOL    HW2 7127   6.269   6.498   0.725 -1.6533  1.1391 -0.2417
 2243SOL     OW 7128   3.299   1.835   4.959 -0.3498 -0.2872 -0.0020
 2243SOL    HW1 7129   3.256   1.866   4.880 -1.5179  0.6435  0.9640
 2243SOL    HW2 7130   3.346   1.756   4.932 -0.2122  0.3558 -1.7391
 2244SOL     OW 7131   6.038   5.688   1.694  0.1637  0.0920  0.3294
 2244SOL    HW1 7132   6.033   5.727   1.607 -0.7044  0.4640  0.5325
 2244SOL    HW2 7133   5.952   5.706   1.733  0.1863 -0.9579  0.8894
 2245SOL     OW 7134   0.873   3.375   1.188  0.5894 -0.2077 -0.8308
 2245SOL    HW1 7135   0.784   3.392   1.221  0.9111  0.7695 -0.4390
 2245SOL    HW2 7136   0.860   3.325   1.108 -0.2893 -0.7608 -0.3654
 2246SOL     OW 7137   4.304   2.010   0.823 -0.3976 -0.1453  0.6022
 2246SOL    HW1 7138   4.260   1.926   0.811 -1.2467  0.4762 -0.8887
 2246SOL    HW2 7139   4.392   1.987   0.853 -1.5470 -1.4387  3.3283
 2247SOL     OW 7140   1.358   2.030   3.391  0.0443 -0.2408  0.0399
 2247SOL    HW1 7141   1.280   2.086   3.397  1.3199  1.5764  0.2412
 2247SOL    HW2 7142   1.400   2.055   3.309  0.6302 -0.9644  0.1050
 2248SOL     OW 7143   3.531   4.442   0.259  0.1429 -0.4365  0.2169
 2248SOL    HW1 7144   3.531   4.504   0.332 -1.3169 -0.0165 -0.1080
 2248SOL    HW2 7145   3.440   4.439   0.230  0.6118 -0.8925 -1.3295
 2249SOL     OW 7146   2.027   4.397   5.040 -0.3800  0.0158 -0.1311
 2249SOL    HW1 7147   1.936   4.367   5.047 -1.2336  2.3338 -0.4960
 2249SOL    HW2 7148   2.047   4.431   5.127 -0.1265  0.2091 -0.2650
 2250SOL     OW 7149   2.149   0.819   0.753  0.4291 -0.4215  0.2906
 2250SOL    HW1 7150   2.203   0.819   0.674  0.2045  0.0785  0.1300
 2250SOL    HW2 7151   2.100   0.901   0.748 -0.5813 -1.0071  0.2738
 2251SOL     OW 7152   3.201   2.556   5.249  0.4783  0.2664 -0.1820
 2251SOL    HW1 7153   3.112   2.553   5.284 -0.1932  2.5209 -1.4821
 2251SOL    HW2 7154   3.217   2.468   5.215 -0.0359 -1.0859  2.7195
 2252SOL     OW 7155   5.647   2.811   4.720  0.2693  0.0961 -0.6590
 2252SOL    HW1 7156   5.573   2.859   4.755 -0.6770  0.0136 -2.4334
 2252SOL    HW2 7157   5.720   2.872   4.726  0.0819  0.2035  1.0320
 2253SOL     OW 7158   2.196   4.237   1.635 -0.1104 -0.3920 -0.3055
 2253SOL    HW1 7159   2.113   4.284   1.641 -0.4543 -0.8483 -1.1915
 2253SOL    HW2 7160   2.237   4.248   1.720 -0.1499  1.5610 -0.4898
 2254SOL     OW 7161   5.470   1.269   5.571 -0.0593 -0.3283  0.4104
 2254SOL    HW1 7162   5.403   1.300   5.511 -0.1855 -1.1470  0.1192
 2254SOL    HW2 7163   5.423   1.219   5.637  0.2508 -0.8704  0.2302
 2255SOL     OW 7164   3.501   1.495   3.111 -0.0966 -0.1702  0.0073
 2255SOL    HW1 7165   3.573   1.460   3.163  0.0057 -0.9995 -0.6656
 2255SOL    HW2 7166   3.422   1.471   3.160  0.0347 -0.3278  0.1412
 2256SOL     OW 7167   0.763   4.982   2.906  0.2301  0.0831  0.6449
 2256SOL    HW1 7168   0.702   4.910   2.920 -1.1412  1.1956  0.6844
 2256SOL    HW2 7169   0.812   4.989   2.988  1.3816 -1.6359  0.1682
 2257SOL     OW 7170   4.343   4.739   3.172  0.0557 -0.3959 -0.0595
 2257SOL    HW1 7171   4.292   4.779   3.102 -0.1208  1.6914  1.1820
 2257SOL    HW2 7172   4.423   4.708   3.129  0.9588  2.7723 -0.9569
 2258SOL     OW 7173   0.763   3.893   0.242 -0.1641  0.2299  0.0548
 2258SOL    HW1 7174   0.720   3.815   0.277 -1.9603  0.1904 -1.9957
 2258SOL    HW2 7175   0.753   3.885   0.147 -0.9394  3.1938 -0.2214
 2259SOL     OW 7176   2.019   4.115   6.741 -0.2027  0.3179 -0.1456
 2259SOL    HW1 7177   1.961   4.123   6.665 -0.8544 -0.7022  0.2220
 2259SOL    HW2 7178   1.973   4.162   6.811 -0.0526  0.4492 -0.1340
 2260SOL     OW 7179   3.743   2.360   1.378 -0.3880 -0.3540  0.4332
 2260SOL    HW1 7180   3.685   2.422   1.423  0.8075  0.0349  1.4945
 2260SOL    HW2 7181   3.724   2.373   1.285 -0.8320  0.9279  0.6826
 2261SOL     OW 7182   0.206   0.248   5.496  0.0401 -0.3690  0.6802
 2261SOL    HW1 7183   0.177   0.160   5.521 -0.5183  0.1533  1.9685
 2261SOL    HW2 7184   0.126   0.302   5.502 -0.8336 -0.5398 -4.5977
 2262SOL     OW 7185   6.476   2.982   5.599  0.6634 -0.1074 -0.9029
 2262SOL    HW1 7186   6.421   3.003   5.523  0.2283  0.7829 -0.3549
 2262SOL    HW2 7187   6.422   2.923   5.652 -0.0783  1.2878 -0.0327
 2263SOL     OW 7188   5.713   1.562   3.130  0.2156 -0.4844  0.3706
 2263SOL    HW1 7189   5.677   1.535   3.046 -0.1754 -0.7400  0.6121
 2263SOL    HW2 7190   5.641   1.546   3.192  0.6224 -0.6501  0.8030
 2264SOL     OW 7191   0.495   0.242   4.769 -0.4588  0.0235  0.3692
 2264SOL    HW1 7192   0.585   0.250   4.800 -0.4895 -0.0105  0.4683
 2264SOL    HW2 7193   0.503   0.226   4.675 -0.3800  0.5991  0.2756
 2265SOL     OW 7194   1.145   4.737   2.629  0.1038 -0.3464 -0.3210
 2265SOL    HW1 7195   1.220   4.750   2.688 -0.4016  0.0968  0.2422
 2265SOL    HW2 7196   1.171   4.782   2.549  1.3293 -2.0303 -0.9342
 2266SOL     OW 7197   0.045   5.407   2.622  0.2157 -0.1120  0.1226
 2266SOL    HW1 7198   0.135   5.374   2.624  0.6775  0.9575 -1.5218
 2266SOL    HW2 7199   0.053   5.496   2.590 -1.5137 -0.2844 -0.8963
 2267SOL     OW 7200   3.937   6.333   3.960  0.7227  0.1147 -0.6519
 2267SOL    HW1 7201   3.878   6.263   3.933  1.8404 -0.5961 -1.3310
 2267SOL    HW2 7202   3.920   6.404   3.898 -0.1977  0.3419 -0.1500
 2268SOL     OW 7203   2.648   1.111   4.019  0.4185  0.5303  0.2294
 2268SOL    HW1 7204   2.717   1.124   3.954  0.4461  2.2071  0.5487
 2268SOL    HW2 7205   2.579   1.063   3.973  0.6131  1.3183 -0.9019
 2269SOL     OW 7206   6.164   2.300   3.029 -0.0238 -0.3467 -0.0405
 2269SOL    HW1 7207   6.230   2.252   2.980  1.3268 -1.9981  3.1213
 2269SOL    HW2 7208   6.170   2.390   2.996  0.5066 -1.3843 -3.0118
 2270SOL     OW 7209   5.930   4.283   6.424 -0.1152  0.2127 -0.1989
 2270SOL    HW1 7210   5.923   4.379   6.429 -1.4374  0.1997 -1.2092
 2270SOL    HW2 7211   5.901   4.252   6.510  0.7997  0.7167  0.3117
 2271SOL     OW 7212   3.154   4.193   5.106 -0.1147  0.0267  0.9175
 2271SOL    HW1 7213   3.248   4.173   5.106 -0.0421  0.2679 -0.4916
 2271SOL    HW2 7214   3.140   4.240   5.024 -1.3812  0.4490  1.3617
 2272SOL     OW 7215   6.246   2.393   6.205  0.3426 -0.0084 -0.3278
 2272SOL    HW1 7216   6.281   2.479   6.227 -0.5694 -0.0340  1.4794
 2272SOL    HW2 7217   6.255   2.386   6.110  2.0502  1.3332 -0.2988
 2273SOL     OW 7218   1.329   5.494   3.898  0.2465  0.2368 -0.7986
 2273SOL    HW1 7219   1.412   5.459   3.929  0.2809 -0.8593 -2.0443
 2273SOL    HW2 7220   1.347   5.525   3.809 -0.2040  1.8973 -0.3482
 2274SOL     OW 7221   3.436   5.042   3.925  0.3459 -0.1625  0.0464
 2274SOL    HW1 7222   3.464   5.043   3.833  1.3492  0.8543  0.3507
 2274SOL    HW2 7223   3.342   5.063   3.921  0.0507 -1.4986 -0.8234
 2275SOL     OW 7224   2.766   3.383   2.239 -0.6802  0.2245  0.2175
 2275SOL    HW1 7225   2.848   3.390   2.289 -0.5162 -0.3333  0.0357
 2275SOL    HW2 7226   2.710   3.451   2.276  0.5293  1.9375 -0.9201
 2276SOL     OW 7227   4.085   6.484   5.789 -0.2498  0.2164  0.0470
 2276SOL    HW1 7228   4.147   6.486   5.862  0.6832 -2.1905 -0.5971
 2276SOL    HW2 7229   4.000   6.465   5.830 -0.3574  2.0897  0.7823
 2277SOL     OW 7230   1.617   6.460   3.185  0.5002 -0.0866  0.8340
 2277SOL    HW1 7231   1.624   6.401   3.259  1.8604  0.4278  1.1453
 2277SOL    HW2 7232   1.672   6.421   3.117 -3.2592 -2.3731 -1.2737
 2278SOL     OW 7233   4.513   0.402   1.381  0.3131 -0.1898 -0.2371
 2278SOL    HW1 7234   4.436   0.358   1.345  0.4229 -0.2332 -0.4257
 2278SOL    HW2 7235   4.583   0.338   1.372  0.2499 -0.3667  0.4771
 2279SOL     OW 7236   5.940   1.070   0.413  0.3028 -0.0321  0.2979
 2279SOL    HW1 7237   5.978   1.094   0.328  3.3592 -0.1465  1.5188
 2279SOL    HW2 7238   5.900   0.985   0.398  0.9123 -0.1160 -1.0246
 2280SOL     OW 7239   4.375   2.015   5.965 -0.1247 -0.3916 -0.3952
 2280SOL    HW1 7240   4.361   1.932   5.919 -0.0972 -0.2367 -0.6808
 2280SOL    HW2 7241   4.374   2.082   5.897  0.5373 -0.2251 -0.2497
 2281SOL     OW 7242   1.707   3.846   6.745  0.1908 -0.3096 -0.0676
 2281SOL    HW1 7243   1.703   3.921   6.803  0.4751 -0.9118  0.7473
 2281SOL    HW2 7244   1.799   3.839   6.720  0.2428 -0.6452  0.2118
 2282SOL     OW 7245   3.506   6.454   6.619  0.0038 -0.0014 -0.1592
 2282SOL    HW1 7246   3.558   6.494   6.689 -0.6222  0.7855 -0.1352
 2282SOL    HW2 7247   3.526   6.361   6.625 -0.3610  0.0008  1.3255
 2283SOL     OW 7248   5.520   2.887   2.439 -0.0049 -0.4990  0.0377
 2283SOL    HW1 7249   5.474   2.858   2.518 -0.6233 -0.1224 -0.1756
 2283SOL    HW2 7250   5.611   2.901   2.468 -0.1866 -0.5316  0.6418
 2284SOL     OW 7251   3.506   0.875   5.878 -0.2521 -0.1093  0.0896
 2284SOL    HW1 7252   3.440   0.905   5.816  0.1219 -0.9975 -0.7756
 2284SOL    HW2 7253   3.538   0.792   5.840  1.5067  0.4036  0.3520
 2285SOL     OW 7254   2.355   1.127   3.903 -0.6567  0.3642 -0.7224
 2285SOL    HW1 7255   2.394   1.214   3.890  0.6410 -0.1279 -0.2609
 2285SOL    HW2 7256   2.272   1.144   3.947 -0.5214  1.3849 -0.8325
 2286SOL     OW 7257   0.881   2.577   2.494  0.0333  0.2077 -0.2034
 2286SOL    HW1 7258   0.832   2.504   2.531  0.4137 -0.1799 -0.4596
 2286SOL    HW2 7259   0.954   2.537   2.448 -0.0656  0.7184 -0.8224
 2287SOL     OW 7260   4.078   0.286   2.868  0.3770  0.1237 -1.3235
 2287SOL    HW1 7261   4.119   0.201   2.884 -0.7878 -0.1399  0.5179
 2287SOL    HW2 7262   4.150   0.349   2.873  0.7388 -0.3903  1.1077
 2288SOL     OW 7263   5.904   3.896   0.717  1.0407  0.9342 -0.2006
 2288SOL    HW1 7264   5.950   3.915   0.636  3.8890  0.9927  1.2884
 2288SOL    HW2 7265   5.832   3.839   0.691  2.3280  0.2859 -2.6847
 2289SOL     OW 7266   4.814   6.415   4.729  0.2220 -0.4621 -0.2411
 2289SOL    HW1 7267   4.776   6.365   4.656 -1.5779 -2.4379  1.8854
 2289SOL    HW2 7268   4.744   6.475   4.755 -0.1939 -1.6165  1.4523
 2290SOL     OW 7269   0.610   2.369   4.383  0.2908  0.3665 -0.2217
 2290SOL    HW1 7270   0.595   2.464   4.381 -2.4608  0.0233  0.5892
 2290SOL    HW2 7271   0.591   2.344   4.473 -0.9842 -1.2202 -0.8984
 2291SOL     OW 7272   1.690   0.914   5.221 -0.5857 -0.1873  0.2132
 2291SOL    HW1 7273   1.668   0.864   5.299  0.6968 -1.7537 -0.3505
 2291SOL    HW2 7274   1.668   1.004   5.243 -0.0441 -0.5319  2.4813
 2292SOL     OW 7275   4.159   2.404   5.936  0.2300  0.0849  0.1583
 2292SOL    HW1 7276   4.107   2.354   5.999  0.7833  0.3905  0.8779
 2292SOL    HW2 7277   4.180   2.342   5.867  0.3746 -0.5137  0.7297
 2293SOL     OW 7278   1.728   6.475   6.311 -0.6809 -0.8854 -0.1032
 2293SOL    HW1 7279   1.780   6.401   6.343 -0.1377 -0.3163  0.3625
 2293SOL    HW2 7280   1.779   6.512   6.239 -0.2599 -0.1241  0.5672
 2294SOL     OW 7281   0.802   1.105   5.399  0.3307 -0.2883 -0.6927
 2294SOL    HW1 7282   0.857   1.064   5.466  0.9300 -0.3361 -1.2016
 2294SOL    HW2 7283   0.862   1.160   5.349 -0.3119  0.5782 -0.5363
 2295SOL     OW 7284   3.261   2.350   1.372 -0.0727  0.3172 -0.0158
 2295SOL    HW1 7285   3.313   2.415   1.419  0.5622 -0.5608  0.5388
 2295SOL    HW2 7286   3.222   2.397   1.299  0.8163  1.1861  0.0613
 2296SOL     OW 7287   3.598   5.241   1.855 -0.6375 -0.2691  0.4636
 2296SOL    HW1 7288   3.603   5.215   1.948 -0.2874  0.2225  0.5845
 2296SOL    HW2 7289   3.507   5.264   1.842 -0.9602 -1.4931  0.3670
 2297SOL     OW 7290   5.909   2.678   2.494 -0.3384 -0.0984  0.0481
 2297SOL    HW1 7291   5.833   2.621   2.479 -0.7332  0.1843  0.9192
 2297SOL    HW2 7292   5.982   2.632   2.451 -0.1504 -2.4975  2.6755
 2298SOL     OW 7293   6.504   0.620   3.787 -0.6560 -0.0235  0.3166
 2298SOL    HW1 7294   6.428   0.572   3.755  1.3741 -2.0878 -1.7591
 2298SOL    HW2 7295   6.500   0.610   3.883 -2.7638 -0.3454  0.2384
 2299SOL     OW 7296   6.750   3.394   0.765 -0.5320 -0.1640 -0.4149
 2299SOL    HW1 7297   6.701   3.312   0.759 -0.6491 -0.3815  2.1022
 2299SOL    HW2 7298   6.832   3.377   0.719 -1.5499 -0.8156 -2.0705
 2300SOL     OW 7299   2.322   1.989   1.771 -0.0952  0.1413  0.1564
 2300SOL    HW1 7300   2.398   1.932   1.778  1.0003  1.5893  0.4068
 2300SOL    HW2 7301   2.266   1.964   1.845  0.2132 -0.8010  0.0821
 2301SOL     OW 7302   3.008   0.486   2.440 -0.3732 -0.1341 -0.0445
 2301SOL    HW1 7303   3.016   0.523   2.528 -0.3484 -0.3227  0.0327
 2301SOL    HW2 7304   3.041   0.397   2.448 -0.1845 -0.0873 -0.2920
 2302SOL     OW 7305   1.092   6.158   4.507 -0.1710  0.4560  0.1386
 2302SOL    HW1 7306   1.183   6.129   4.502 -0.1992  0.4184 -0.2110
 2302SOL    HW2 7307   1.080   6.187   4.598 -0.8328 -2.8677  1.2605
 2303SOL     OW 7308   1.358   2.945   0.802  0.4435 -0.4770 -0.1706
 2303SOL    HW1 7309   1.322   2.911   0.883 -2.6062 -0.3895 -1.3444
 2303SOL    HW2 7310   1.408   3.022   0.828  1.7139 -1.8859  1.8154
 2304SOL     OW 7311   4.327   0.004   1.303  0.4444 -0.3142  0.4960
 2304SOL    HW1 7312   4.307  -0.083   1.337 -1.9826  0.7933  2.2325
 2304SOL    HW2 7313   4.299   0.001   1.211  0.1226 -1.2851  0.6130
 2305SOL     OW 7314   4.970   1.968   6.460 -0.4150 -0.0988 -0.0958
 2305SOL    HW1 7315   4.998   1.934   6.545  0.0700 -0.7281 -0.5050
 2305SOL    HW2 7316   4.875   1.952   6.459 -0.2637 -1.0501 -0.1021
 2306SOL     OW 7317   6.300   2.191   2.823 -0.7424  0.9024  0.1035
 2306SOL    HW1 7318   6.237   2.133   2.780  0.2371  0.9596 -1.5179
 2306SOL    HW2 7319   6.377   2.189   2.766 -0.2481  2.8716  0.6130
 2307SOL     OW 7320   5.445   3.293   6.201  0.0182  0.1166  0.0482
 2307SOL    HW1 7321   5.387   3.343   6.144 -1.5191 -1.1547  0.3942
 2307SOL    HW2 7322   5.504   3.358   6.239 -2.0484  1.7235  0.6845
 2308SOL     OW 7323   0.990   5.434   6.744 -0.1605  0.6912 -0.7853
 2308SOL    HW1 7324   1.033   5.467   6.822  0.4420 -0.6666 -0.5026
 2308SOL    HW2 7325   1.061   5.396   6.692 -1.0242 -2.9453  0.3578
 2309SOL     OW 7326   3.229   6.370   5.479  0.0912 -0.2211  0.1632
 2309SOL    HW1 7327   3.309   6.422   5.477 -0.2131  0.2628 -2.0962
 2309SOL    HW2 7328   3.159   6.434   5.465 -0.5892 -0.8339  0.6837
 2310SOL     OW 7329   4.476   0.837   2.652  0.2269 -0.2281 -0.5327
 2310SOL    HW1 7330   4.398   0.869   2.697  1.5642  2.3172  0.2223
 2310SOL    HW2 7331   4.512   0.769   2.709 -0.0973  0.3723  0.4053
 2311SOL     OW 7332   5.931   2.227   2.410  0.0611 -0.1746  0.3051
 2311SOL    HW1 7333   5.870   2.257   2.477  1.2587 -0.9492  1.8117
 2311SOL    HW2 7334   6.016   2.260   2.439  0.5506 -0.1969 -1.0577
 2312SOL     OW 7335   2.441   1.145   2.014 -0.5811 -0.4823  0.6550
 2312SOL    HW1 7336   2.499   1.135   1.939 -1.1937  0.0020  0.1025
 2312SOL    HW2 7337   2.481   1.213   2.068 -0.3832 -0.4973  0.5267
 2313SOL     OW 7338   3.613   6.484   6.184  0.3729 -0.2169 -0.0510
 2313SOL    HW1 7339   3.588   6.394   6.203  2.4162 -0.5872  1.1659
 2313SOL    HW2 7340   3.592   6.496   6.091 -0.4924 -1.7264 -0.0748
 2314SOL     OW 7341   0.189   4.617   2.553  0.2730  0.4517 -0.4342
 2314SOL    HW1 7342   0.280   4.589   2.557 -0.2412 -1.7017 -1.7049
 2314SOL    HW2 7343   0.140   4.545   2.593 -0.8324  2.0337  1.1804
 2315SOL     OW 7344   6.509   4.516   5.478 -0.5238  0.0240  0.8240
 2315SOL    HW1 7345   6.572   4.502   5.548 -0.0981 -0.1830  0.3967
 2315SOL    HW2 7346   6.490   4.610   5.481  1.8139  0.6196 -0.7397
 2316SOL     OW 7347   6.699   3.293   0.352 -0.7942 -0.5942  0.0173
 2316SOL    HW1 7348   6.770   3.236   0.383  1.7093  2.0046 -0.4447
 2316SOL    HW2 7349   6.650   3.315   0.431 -0.5409 -1.7141  0.5144
 2317SOL     OW 7350   1.708   4.157   0.739 -0.2004  0.1464 -0.0113
 2317SOL    HW1 7351   1.674   4.246   0.750 -1.8262 -0.4043 -0.2503
 2317SOL    HW2 7352   1.635   4.101   0.764  0.2641 -1.1166 -1.3643
 2318SOL     OW 7353   0.183   1.836   5.499 -0.2703  0.4053 -0.2947
 2318SOL    HW1 7354   0.129   1.867   5.572 -0.2880  0.1830 -0.2133
 2318SOL    HW2 7355   0.216   1.751   5.528 -2.3563 -0.9185 -1.5558
 2319SOL     OW 7356   2.807   1.938   3.961  0.4113  0.0441  0.0530
 2319SOL    HW1 7357   2.899   1.963   3.951  0.5520 -1.1858 -2.4176
 2319SOL    HW2 7358   2.810   1.858   4.014  0.8862 -0.4998 -0.7650
 2320SOL     OW 7359   5.980   6.227   0.379 -0.0895 -0.7057  0.6403
 2320SOL    HW1 7360   5.908   6.229   0.316  1.4888  0.8801 -1.2898
 2320SOL    HW2 7361   6.004   6.134   0.386 -0.1295 -0.9226 -1.4165
 2321SOL     OW 7362   3.758   0.843   4.432  0.6355  0.0859 -0.2900
 2321SOL    HW1 7363   3.822   0.773   4.420  1.1981  0.2105  1.6767
 2321SOL    HW2 7364   3.810   0.923   4.427  0.2593  0.3030 -0.8672
 2322SOL     OW 7365   2.102   6.712   0.549  0.2908 -0.1551 -0.1304
 2322SOL    HW1 7366   2.126   6.619   0.547  1.3596  0.0755  0.9296
 2322SOL    HW2 7367   2.101   6.735   0.641  0.0388  0.8872 -0.3807
 2323SOL     OW 7368   4.713   5.028   0.367  0.3472  0.2879  0.3692
 2323SOL    HW1 7369   4.664   5.052   0.289 -1.5159 -1.2747  0.9742
 2323SOL    HW2 7370   4.703   4.933   0.374 -0.9102  0.5054  3.2970
 2324SOL     OW 7371   1.114   0.521   5.346  0.3284  0.0013 -0.1733
 2324SOL    HW1 7372   1.061   0.600   5.351  0.8551  0.4218 -1.1100
 2324SOL    HW2 7373   1.202   0.551   5.326 -0.0015 -0.9262 -3.6335
 2325SOL     OW 7374   1.068   2.005   5.709 -0.0420  0.1890 -0.5267
 2325SOL    HW1 7375   1.119   2.003   5.790 -0.7514  1.8533 -0.0009
 2325SOL    HW2 7376   1.132   2.028   5.641 -0.2600  4.0976  0.3891
 2326SOL     OW 7377   4.585   6.110   4.526  0.1643 -0.2257 -0.0225
 2326SOL    HW1 7378   4.543   6.034   4.566  0.8936 -1.1920 -1.0091
 2326SOL    HW2 7379   4.644   6.144   4.594 -0.7073 -0.0896  0.6709
 2327SOL     OW 7380   4.411   5.315   1.941 -0.2091 -0.4147 -0.3284
 2327SOL    HW1 7381   4.395   5.398   1.895  1.9758 -0.5398 -1.4524
 2327SOL    HW2 7382   4.435   5.253   1.872 -1.8985 -2.0710  0.4788
 2328SOL     OW 7383   2.319   6.724   6.122  0.4951 -0.0163  0.1757
 2328SOL    HW1 7384   2.264   6.646   6.131  0.6511 -0.2533 -0.8954
 2328SOL    HW2 7385   2.341   6.748   6.213 -0.5688 -0.4808  0.5729
 2329SOL     OW 7386   1.078   6.445   1.419  0.3065  0.3331  0.2004
 2329SOL    HW1 7387   1.166   6.462   1.453  0.9828  1.8583 -2.1566
 2329SOL    HW2 7388   1.044   6.531   1.395 -0.7100 -0.5093 -1.5370
 2330SOL     OW 7389   1.591   5.904   4.794 -0.0673 -0.2064 -0.1023
 2330SOL    HW1 7390   1.582   5.870   4.705  0.2206  2.5670 -1.3036
 2330SOL    HW2 7391   1.685   5.914   4.807 -0.1484  0.3151  0.1186
 2331SOL     OW 7392   3.703   6.697   0.532 -0.0905  0.4022  0.1990
 2331SOL    HW1 7393   3.624   6.695   0.477  0.7901  0.2342 -1.1061
 2331SOL    HW2 7394   3.726   6.790   0.537  1.6376  0.2401 -2.5042
 2332SOL     OW 7395   5.065   0.632   1.505  0.1697 -0.5870  0.3561
 2332SOL    HW1 7396   5.004   0.613   1.577 -1.7370 -0.5130 -1.1444
 2332SOL    HW2 7397   5.029   0.711   1.465  0.4131 -1.3535 -1.4577
 2333SOL     OW 7398   5.430   6.400   2.310 -0.3821 -0.5493  0.0801
 2333SOL    HW1 7399   5.490   6.468   2.279  0.6278 -1.3072  0.3262
 2333SOL    HW2 7400   5.427   6.337   2.238  2.6105 -2.7426  1.6402
 2334SOL     OW 7401   6.276   4.838   2.261  0.1883  0.5210 -0.1129
 2334SOL    HW1 7402   6.277   4.922   2.214 -0.3476  0.9240  0.5676
 2334SOL    HW2 7403   6.356   4.794   2.233 -0.4290  0.4431 -1.9353
 2335SOL     OW 7404   5.836   3.189   2.347  0.5130  0.0404 -0.4418
 2335SOL    HW1 7405   5.770   3.134   2.304  0.3164  0.0365 -0.1407
 2335SOL    HW2 7406   5.863   3.138   2.423 -0.0897  0.6022  0.1621
 2336SOL     OW 7407   0.745   5.318   5.808 -0.0261 -0.1284  0.0010
 2336SOL    HW1 7408   0.665   5.267   5.796 -0.4151  0.5845 -0.4733
 2336SOL    HW2 7409   0.742   5.345   5.900  1.1132 -2.4859  0.8085
 2337SOL     OW 7410   2.094   3.142   2.577 -0.1350  0.2053  0.4018
 2337SOL    HW1 7411   2.142   3.206   2.629  0.1291  1.4263 -1.2714
 2337SOL    HW2 7412   2.005   3.176   2.573 -0.1231  0.2010 -0.0332
 2338SOL     OW 7413   3.920   3.038   4.970 -0.8060  0.0134  0.5053
 2338SOL    HW1 7414   3.833   3.043   5.009 -1.3020  0.8632 -0.6578
 2338SOL    HW2 7415   3.938   2.944   4.962 -2.1105 -0.1883 -0.2938
 2339SOL     OW 7416   1.538   4.042   4.486 -0.3929  0.3998 -0.0474
 2339SOL    HW1 7417   1.504   3.956   4.461  0.9387 -0.3255  0.5017
 2339SOL    HW2 7418   1.562   4.032   4.578  0.5387  1.0859 -0.1981
 2340SOL     OW 7419   6.497   4.825   1.255  0.2179  0.0654  0.5796
 2340SOL    HW1 7420   6.496   4.920   1.240  0.2533 -0.0741 -0.3984
 2340SOL    HW2 7421   6.469   4.815   1.345 -1.8400  0.9146  0.1004
 2341SOL     OW 7422   3.005   2.024   3.514 -0.3998 -0.1574 -0.9648
 2341SOL    HW1 7423   2.992   2.088   3.444  1.2682 -1.0411 -2.1459
 2341SOL    HW2 7424   2.937   1.959   3.500 -0.8892  0.3417 -0.9467
 2342SOL     OW 7425   2.789   3.449   4.430 -0.6389  0.4930 -0.3083
 2342SOL    HW1 7426   2.751   3.409   4.509  0.9440  0.7906  0.6355
 2342SOL    HW2 7427   2.796   3.542   4.451 -1.1673  0.7517 -1.2209
 2343SOL     OW 7428   2.204   4.879   1.667  0.2692 -0.0528 -0.3152
 2343SOL    HW1 7429   2.114   4.880   1.702 -0.2347 -1.8995 -1.4049
 2343SOL    HW2 7430   2.229   4.787   1.668  1.5389  0.2410 -1.5486
 2344SOL     OW 7431   5.923   3.564   3.509 -0.2824 -0.2434  0.7303
 2344SOL    HW1 7432   5.996   3.503   3.509 -0.6634 -0.7108  0.4733
 2344SOL    HW2 7433   5.859   3.525   3.569 -0.6086 -0.2012  0.4167
 2345SOL     OW 7434   3.906   4.053   1.831  0.0835 -0.5358  0.7545
 2345SOL    HW1 7435   3.904   4.125   1.894  0.0732  0.3899 -0.2892
 2345SOL    HW2 7436   3.998   4.044   1.807 -0.0327 -0.2804  0.2133
 2346SOL     OW 7437   4.426   3.214   2.537 -0.1919 -0.1582  0.4245
 2346SOL    HW1 7438   4.350   3.173   2.495 -0.0750 -0.0181  0.0723
 2346SOL    HW2 7439   4.432   3.172   2.622  0.0788 -1.0743 -0.0287
 2347SOL     OW 7440   2.143   4.253   4.840 -0.0144 -0.1742  0.0287
 2347SOL    HW1 7441   2.081   4.272   4.770  0.6110  1.2996 -0.1628
 2347SOL    HW2 7442   2.093   4.267   4.921 -0.5193 -1.1372 -0.0958
 2348SOL     OW 7443   1.879   3.782   5.394  0.3320 -0.2632  0.5390
 2348SOL    HW1 7444   1.815   3.784   5.322  0.9010 -0.2691  0.0287
 2348SOL    HW2 7445   1.825   3.772   5.473 -0.3297  0.1874  0.1592
 2349SOL     OW 7446   1.854   1.165   2.050  0.4729  0.2025 -0.1703
 2349SOL    HW1 7447   1.900   1.087   2.019  1.5528  0.9376 -0.4949
 2349SOL    HW2 7448   1.793   1.133   2.116  0.8638 -0.9177 -0.3372
 2350SOL     OW 7449   1.397   0.142   0.687  0.2190 -0.0203  0.6123
 2350SOL    HW1 7450   1.369   0.206   0.622  3.5028 -0.0274 -0.9980
 2350SOL    HW2 7451   1.437   0.194   0.756 -0.6131 -0.1834  1.2364
 2351SOL     OW 7452   5.226   6.158   1.215  0.3477 -0.2889  0.0256
 2351SOL    HW1 7453   5.201   6.240   1.257 -0.2008 -0.6294  0.3777
 2351SOL    HW2 7454   5.314   6.140   1.248  0.4200  0.0985  0.0373
 2352SOL     OW 7455   5.942   5.097   3.775 -0.4202  0.5170  0.3319
 2352SOL    HW1 7456   5.935   5.157   3.701 -0.2816  2.8672  2.1093
 2352SOL    HW2 7457   5.852   5.079   3.800 -0.4595  0.1615 -0.0595
 2353SOL     OW 7458   6.098   6.150   0.652  0.1070 -0.0794 -0.4716
 2353SOL    HW1 7459   6.142   6.072   0.618  2.5719  1.2143 -0.5209
 2353SOL    HW2 7460   6.081   6.130   0.744  3.2908  0.2034  0.3082
 2354SOL     OW 7461   5.226   4.544   1.627 -0.1612  0.3026  0.4924
 2354SOL    HW1 7462   5.197   4.508   1.543  2.3112  0.4081 -0.4983
 2354SOL    HW2 7463   5.182   4.628   1.634  0.1070  0.5994 -1.0605
 2355SOL     OW 7464   6.491   4.687   6.399 -0.3222 -0.3048  0.0256
 2355SOL    HW1 7465   6.460   4.774   6.373 -2.6165 -1.2178 -0.5899
 2355SOL    HW2 7466   6.474   4.632   6.322  2.2157 -1.1207 -0.0450
 2356SOL     OW 7467   4.176   0.348   3.432  0.0950 -0.5267  0.0674
 2356SOL    HW1 7468   4.126   0.283   3.383 -2.9440  0.6332  1.3869
 2356SOL    HW2 7469   4.165   0.429   3.381  0.2082 -0.1481  0.6382
 2357SOL     OW 7470   2.684   1.504   3.264 -0.5003 -0.2284  0.0845
 2357SOL    HW1 7471   2.724   1.532   3.347 -1.5017 -0.8244  0.7958
 2357SOL    HW2 7472   2.704   1.410   3.259 -2.6141 -0.8033  0.9976
 2358SOL     OW 7473   2.131   3.095   4.607 -0.5978  0.1673  0.8386
 2358SOL    HW1 7474   2.167   3.020   4.655  0.0404  0.0807  0.2395
 2358SOL    HW2 7475   2.182   3.170   4.636  0.2160  0.0173 -0.1358
 2359SOL     OW 7476   4.612   1.617   2.847 -0.1081  0.4450  0.2744
 2359SOL    HW1 7477   4.661   1.651   2.922  0.2083  0.0170  0.2674
 2359SOL    HW2 7478   4.619   1.686   2.781 -2.1566  1.7494  1.3326
 2360SOL     OW 7479   6.368   4.169   3.961  0.0040  0.4468  0.3624
 2360SOL    HW1 7480   6.354   4.264   3.963 -0.5208  0.3914 -0.2173
 2360SOL    HW2 7481   6.453   4.159   3.917 -0.6881  0.6054 -1.0815
 2361SOL     OW 7482   4.386   2.922   5.912  0.2311  0.1516 -0.6333
 2361SOL    HW1 7483   4.415   2.980   5.982  0.5243  1.4978 -1.8211
 2361SOL    HW2 7484   4.303   2.886   5.943  0.4433  0.5754  0.4658
 2362SOL     OW 7485   2.917   1.119   5.229 -0.1990 -0.5540  0.1719
 2362SOL    HW1 7486   2.839   1.164   5.195 -0.3697  0.3287  1.6618
 2362SOL    HW2 7487   2.990   1.159   5.182 -0.6833 -3.1077 -3.1245
 2363SOL     OW 7488   5.993   0.072   1.067  0.4282  0.2478 -0.2583
 2363SOL    HW1 7489   5.993  -0.013   1.024  0.6528  0.2469 -0.2575
 2363SOL    HW2 7490   5.910   0.113   1.040 -0.3559 -0.5358  0.8771
 2364SOL     OW 7491   3.805   2.989   0.306  0.2435 -0.5475 -0.3375
 2364SOL    HW1 7492   3.772   2.925   0.243 -0.9299 -1.0390  0.7380
 2364SOL    HW2 7493   3.729   3.012   0.359  1.4011 -1.0085  1.6294
 2365SOL     OW 7494   4.257   3.856   3.792  0.1276  0.1576 -0.7940
 2365SOL    HW1 7495   4.291   3.785   3.847  1.2654  0.9130 -0.5006
 2365SOL    HW2 7496   4.178   3.819   3.753  1.7412 -1.9834 -2.2452
 2366SOL     OW 7497   1.249   4.030   2.302  0.1487 -0.0842 -0.3739
 2366SOL    HW1 7498   1.331   3.980   2.311  0.7466  0.9565  0.2083
 2366SOL    HW2 7499   1.238   4.072   2.387  0.7459  2.3741 -1.4273
 2367SOL     OW 7500   3.909   2.665   0.147 -0.0856  0.6525  0.0896
 2367SOL    HW1 7501   3.977   2.606   0.178  0.3162  0.9331 -0.2455
 2367SOL    HW2 7502   3.840   2.658   0.213 -0.3336 -0.6787 -0.2800
 2368SOL     OW 7503   6.461   2.785   0.978 -0.0894  0.0858  0.1136
 2368SOL    HW1 7504   6.392   2.815   0.918  0.3414  0.2295 -0.3166
 2368SOL    HW2 7505   6.427   2.804   1.065 -0.2418  0.9388 -0.1252
 2369SOL     OW 7506   1.864   6.242   0.360  0.1160 -0.1561  0.8570
 2369SOL    HW1 7507   1.908   6.327   0.351  0.5011 -0.2780  1.5004
 2369SOL    HW2 7508   1.774   6.264   0.382  0.2643  0.0894  1.2243
 2370SOL     OW 7509   5.181   5.745   3.336  0.7585 -0.0399 -0.1936
 2370SOL    HW1 7510   5.108   5.714   3.283  1.5457  0.2747 -1.4968
 2370SOL    HW2 7511   5.163   5.710   3.424 -0.8464 -0.1154 -0.5158
 2371SOL     OW 7512   6.141   6.424   6.218 -0.0856 -0.4578  0.0279
 2371SOL    HW1 7513   6.204   6.353   6.205 -1.8391 -1.9802 -0.7087
 2371SOL    HW2 7514   6.148   6.477   6.139  0.5769 -0.3563  0.1538
 2372SOL     OW 7515   5.550   5.306   5.598  0.0123  0.1871 -0.4762
 2372SOL    HW1 7516   5.599   5.387   5.614 -0.3918  0.5707 -1.1446
 2372SOL    HW2 7517   5.479   5.308   5.662  1.2724 -0.7492  1.0279
 2373SOL     OW 7518   1.967   1.019   0.576  0.2628  0.4169 -0.1958
 2373SOL    HW1 7519   2.002   1.097   0.621  2.2223  0.6226 -1.9277
 2373SOL    HW2 7520   2.004   1.024   0.488 -3.6343  0.2130 -2.0778
 2374SOL     OW 7521   3.876   3.181   1.920  0.5949 -0.5114 -0.2292
 2374SOL    HW1 7522   3.868   3.223   2.006  1.6270 -1.7372  0.4879
 2374SOL    HW2 7523   3.819   3.104   1.926  3.2631 -2.5597  0.6633
 2375SOL     OW 7524   1.254   3.541   0.789  0.4246  0.3501  0.4977
 2375SOL    HW1 7525   1.299   3.466   0.751 -0.6827  0.2408 -0.6667
 2375SOL    HW2 7526   1.184   3.502   0.842 -0.1673  0.5559 -0.1261
 2376SOL     OW 7527   4.438   0.072   1.535 -0.6678  0.6167 -0.5214
 2376SOL    HW1 7528   4.396   0.036   1.456 -0.8622  2.2364 -1.1977
 2376SOL    HW2 7529   4.519   0.111   1.503 -0.7841  1.3597  0.0785
 2377SOL     OW 7530   0.521   4.633   3.762 -0.4683 -0.4854 -0.2935
 2377SOL    HW1 7531   0.582   4.563   3.739  0.8554  0.3442  0.5512
 2377SOL    HW2 7532   0.508   4.681   3.680  1.6750  0.5407 -0.1206
 2378SOL     OW 7533   3.499   4.500   1.770 -0.1659 -0.7423  0.0408
 2378SOL    HW1 7534   3.566   4.439   1.803  0.1859  0.1070  0.9614
 2378SOL    HW2 7535   3.546   4.582   1.758 -0.6942 -0.5737 -0.9376
 2379SOL     OW 7536   3.454   4.818   6.445 -0.0834 -0.1278 -0.5824
 2379SOL    HW1 7537   3.465   4.728   6.476 -2.9663 -0.1895  0.5944
 2379SOL    HW2 7538   3.439   4.869   6.525  0.5422  1.2658 -1.3121
 2380SOL     OW 7539   3.265   4.965   5.786  0.9242  0.0323  0.7389
 2380SOL    HW1 7540   3.253   5.049   5.830 -1.8136  1.2512 -1.9676
 2380SOL    HW2 7541   3.341   4.978   5.730  0.7012  0.5794  0.5627
 2381SOL     OW 7542   1.931   4.928   5.501 -0.5846 -0.2569 -0.2903
 2381SOL    HW1 7543   1.955   5.001   5.444 -0.3817 -1.2091 -1.4713
 2381SOL    HW2 7544   1.976   4.946   5.583 -0.2627  0.7687 -0.6773
 2382SOL     OW 7545   4.154   6.552   4.355 -0.0187  0.1007 -0.0309
 2382SOL    HW1 7546   4.111   6.468   4.348 -1.0947  0.6525 -0.1611
 2382SOL    HW2 7547   4.085   6.614   4.378  0.7640  0.9388  0.1715
 2383SOL     OW 7548   1.085   2.993   3.463 -0.0848 -0.2370 -0.2153
 2383SOL    HW1 7549   1.105   2.949   3.380 -2.0899 -2.0004  0.1519
 2383SOL    HW2 7550   1.144   3.068   3.465 -0.4856  0.3294 -3.5957
 2384SOL     OW 7551   3.329   1.982   3.711 -0.0952 -0.2334 -0.3735
 2384SOL    HW1 7552   3.328   2.030   3.629  2.0309  1.0104  0.2521
 2384SOL    HW2 7553   3.374   1.900   3.691  1.9547  0.7755 -0.1832
 2385SOL     OW 7554   3.744   3.942   2.527  0.8954  0.0326 -0.1331
 2385SOL    HW1 7555   3.672   3.992   2.564 -0.2836 -0.8372 -1.1493
 2385SOL    HW2 7556   3.811   4.007   2.508  0.0350  0.9988  0.0258
 2386SOL     OW 7557   3.810   2.824   4.195  0.4115 -0.2979 -0.1399
 2386SOL    HW1 7558   3.866   2.751   4.223 -0.2055 -1.0480 -0.8043
 2386SOL    HW2 7559   3.722   2.787   4.194  0.1744  0.2606 -1.1557
 2387SOL     OW 7560   0.878   5.590   5.711  0.2906 -0.4178 -0.3216
 2387SOL    HW1 7561   0.815   5.631   5.652 -0.2140  1.0418  1.1530
 2387SOL    HW2 7562   0.842   5.503   5.728  0.2662 -0.7405 -1.8144
 2388SOL     OW 7563   3.267   0.541   5.587 -0.0803 -0.9016 -0.4937
 2388SOL    HW1 7564   3.185   0.495   5.602 -0.3988 -0.1141  0.2502
 2388SOL    HW2 7565   3.328   0.473   5.557 -0.8932 -1.5525 -0.7009
 2389SOL     OW 7566   4.967   1.019   6.291  0.2877  0.2137  0.4926
 2389SOL    HW1 7567   5.056   0.986   6.284  0.7765  1.6635 -0.5587
 2389SOL    HW2 7568   4.936   1.027   6.201 -0.9146 -0.2453  0.8400
 2390SOL     OW 7569   1.468   5.878   5.759  0.3503 -0.3146  0.0247
 2390SOL    HW1 7570   1.432   5.823   5.689  1.0564  0.0285 -0.6269
 2390SOL    HW2 7571   1.394   5.893   5.818 -0.1918 -0.8418 -0.5051
 2391SOL     OW 7572   4.764   6.042   5.822 -0.4239  0.1267  0.4475
 2391SOL    HW1 7573   4.713   6.095   5.760 -0.6489  0.4927  0.9388
 2391SOL    HW2 7574   4.738   6.075   5.908 -0.5730 -0.7944  0.7589
 2392SOL     OW 7575   3.248   5.796   5.862 -0.1681  0.6865  0.2030
 2392SOL    HW1 7576   3.225   5.857   5.932  1.5905  3.2142 -1.2540
 2392SOL    HW2 7577   3.340   5.774   5.879  0.1386  0.9543 -1.0357
 2393SOL     OW 7578   3.520   5.424   5.691 -0.4002  0.0177  0.0261
 2393SOL    HW1 7579   3.582   5.448   5.760  0.6655 -2.3903 -0.0085
 2393SOL    HW2 7580   3.459   5.498   5.688  0.2311  0.7787  2.6816
 2394SOL     OW 7581   2.015   2.208   1.003 -0.2088 -0.3412  0.2677
 2394SOL    HW1 7582   2.006   2.303   0.999 -2.2747 -0.4047  1.9429
 2394SOL    HW2 7583   1.962   2.175   0.929  0.5115 -0.2238 -0.3153
 2395SOL     OW 7584   5.673   2.039   0.234 -0.2077 -0.2749 -0.1145
 2395SOL    HW1 7585   5.696   1.955   0.273  1.6421  0.1456 -0.2311
 2395SOL    HW2 7586   5.717   2.040   0.149  2.4596  1.9840  1.1243
 2396SOL     OW 7587   6.244   1.403   1.635  0.5142 -0.4035  0.2774
 2396SOL    HW1 7588   6.308   1.363   1.577  1.0230 -0.1851  0.6836
 2396SOL    HW2 7589   6.285   1.484   1.666  0.0470 -0.2596  0.5434
 2397SOL     OW 7590   5.875   1.950   4.041  0.0922  0.1905  0.2456
 2397SOL    HW1 7591   5.813   1.878   4.049 -0.0704  0.5038  2.1962
 2397SOL    HW2 7592   5.955   1.909   4.008 -0.4105 -0.6274  0.0255
 2398SOL     OW 7593   2.554   1.304   0.071  0.3611 -0.2233 -0.2110
 2398SOL    HW1 7594   2.577   1.230   0.016  1.0455 -1.0971  1.1871
 2398SOL    HW2 7595   2.460   1.314   0.061  0.2155 -1.4677 -0.1973
 2399SOL     OW 7596   5.005   1.620   0.582  0.6577  0.5699  0.5487
 2399SOL    HW1 7597   4.946   1.674   0.634  0.0924  0.1042  0.3963
 2399SOL    HW2 7598   4.957   1.539   0.566  2.1650 -0.7629  2.3269
 2400SOL     OW 7599   1.402   4.495   0.638  0.2978 -0.0387 -0.0154
 2400SOL    HW1 7600   1.378   4.417   0.589  0.0314  0.9238 -1.4853
 2400SOL    HW2 7601   1.321   4.524   0.679  0.5032 -0.7978  0.9675
 2401SOL     OW 7602   3.284   4.383   2.898  0.1194  0.2312 -0.2361
 2401SOL    HW1 7603   3.250   4.383   2.809  2.2842 -1.8785 -1.1684
 2401SOL    HW2 7604   3.237   4.312   2.942  0.8853 -0.4734 -0.5267
 2402SOL     OW 7605   0.923   1.087   4.649  0.1063 -0.1853 -0.6369
 2402SOL    HW1 7606   0.843   1.102   4.701  1.2104  0.2102  1.0362
 2402SOL    HW2 7607   0.978   1.163   4.667  2.2611 -1.9875  1.0352
 2403SOL     OW 7608   6.601   5.271   6.470 -0.3451  0.3436 -0.3640
 2403SOL    HW1 7609   6.586   5.287   6.377  0.6063 -1.3497 -0.8514
 2403SOL    HW2 7610   6.671   5.332   6.494  1.7073 -1.3657 -1.6213
 2404SOL     OW 7611   3.748   6.507   1.577 -0.0985  0.2014 -0.4060
 2404SOL    HW1 7612   3.667   6.558   1.571 -0.3237  0.0391  0.8752
 2404SOL    HW2 7613   3.798   6.549   1.647 -0.3394 -1.3292  0.7712
 2405SOL     OW 7614   2.637   6.037   5.998 -0.2020  0.2779 -0.3806
 2405SOL    HW1 7615   2.544   6.017   6.012 -1.0947  3.4024 -1.0449
 2405SOL    HW2 7616   2.649   6.030   5.904  0.1041  0.3092 -0.3432
 2406SOL     OW 7617   1.788   5.132   0.280  0.3438  0.5510  0.4070
 2406SOL    HW1 7618   1.859   5.175   0.231  0.2760  1.0760  0.7577
 2406SOL    HW2 7619   1.831   5.097   0.358  0.7204 -1.4925 -0.6379
 2407SOL     OW 7620   6.550   6.268   6.358  0.0051  0.1010 -0.1367
 2407SOL    HW1 7621   6.535   6.325   6.433 -1.8660 -1.9640  1.2060
 2407SOL    HW2 7622   6.644   6.255   6.356  0.0125 -1.6603  3.4858
 2408SOL     OW 7623   0.597   0.239   2.742  0.3345  0.0520  0.1268
 2408SOL    HW1 7624   0.579   0.322   2.787 -0.9958 -0.5476  0.7713
 2408SOL    HW2 7625   0.546   0.244   2.662 -0.2229 -0.3602  0.4447
 2409SOL     OW 7626   4.974   1.640   5.266  0.5970  0.1613  0.3072
 2409SOL    HW1 7627   4.966   1.712   5.202 -1.3021 -0.2139  0.0533
 2409SOL    HW2 7628   5.034   1.674   5.332 -0.2441  2.0220  0.2022
 2410SOL     OW 7629   1.798   5.593   2.960  0.5236 -0.7528  0.0046
 2410SOL    HW1 7630   1.843   5.658   3.014 -0.3973 -1.6141  1.9289
 2410SOL    HW2 7631   1.844   5.511   2.978 -0.5241 -1.2700  0.4503
 2411SOL     OW 7632   0.989   3.642   2.550 -0.0657  0.3625  0.2778
 2411SOL    HW1 7633   0.968   3.645   2.456 -0.8110 -3.0183  0.1884
 2411SOL    HW2 7634   0.904   3.649   2.593  0.1032  0.3460  0.6109
 2412SOL     OW 7635   1.645   0.400   3.982  0.0595  0.0825 -0.1349
 2412SOL    HW1 7636   1.650   0.345   3.904  2.1074  0.9205 -0.6679
 2412SOL    HW2 7637   1.693   0.479   3.958 -0.3632  0.8950  1.5668
 2413SOL     OW 7638   2.215   1.475   2.217  0.0224 -0.6053 -0.0216
 2413SOL    HW1 7639   2.270   1.459   2.140 -0.8073 -1.4101 -0.4575
 2413SOL    HW2 7640   2.265   1.437   2.290  0.3726 -0.6969 -0.3069
 2414SOL     OW 7641   5.133   1.420   5.603  0.0139  0.0973 -0.1098
 2414SOL    HW1 7642   5.046   1.381   5.603  0.1073 -0.1488  0.7807
 2414SOL    HW2 7643   5.168   1.400   5.516 -0.7718  0.1067 -0.4382
 2415SOL     OW 7644   6.113   3.624   0.779  0.0634 -0.1578 -0.2703
 2415SOL    HW1 7645   6.194   3.629   0.727  0.5663 -2.6297  0.1598
 2415SOL    HW2 7646   6.047   3.592   0.718 -0.6929  1.9377 -0.6424
 2416SOL     OW 7647   5.619   5.676   6.565  0.2709 -0.3003 -0.5371
 2416SOL    HW1 7648   5.588   5.586   6.551  0.9478 -0.2865 -2.4530
 2416SOL    HW2 7649   5.715   5.667   6.572  0.3542  0.2942 -0.9137
 2417SOL     OW 7650   4.359   4.610   2.714  0.6157  0.4670  0.0324
 2417SOL    HW1 7651   4.345   4.704   2.728 -0.7803 -0.0828  3.3162
 2417SOL    HW2 7652   4.439   4.590   2.763  0.8485 -0.1002 -0.5606
 2418SOL     OW 7653   5.060   5.194   6.174 -0.2325 -0.5561  0.4084
 2418SOL    HW1 7654   4.976   5.160   6.142 -0.1686 -1.1664  0.8716
 2418SOL    HW2 7655   5.126   5.142   6.129 -0.0354  0.7408 -0.9076
 2419SOL     OW 7656   0.905   6.507   4.411 -0.5294 -0.7351  0.2081
 2419SOL    HW1 7657   0.884   6.582   4.356 -0.6155  0.0800  1.3019
 2419SOL    HW2 7658   0.974   6.460   4.364 -0.8258 -0.2557 -0.7282
 2420SOL     OW 7659   1.558   1.326   2.907 -0.0631  0.6154 -0.2774
 2420SOL    HW1 7660   1.636   1.318   2.962  1.6715  2.1945 -2.3251
 2420SOL    HW2 7661   1.519   1.410   2.932 -0.5846  0.2666  0.0961
 2421SOL     OW 7662   0.830   3.570   4.324 -0.2567 -0.7024  0.7083
 2421SOL    HW1 7663   0.761   3.530   4.377 -1.6904  1.1284  0.3390
 2421SOL    HW2 7664   0.912   3.541   4.365 -1.2794 -0.1999  3.2998
 2422SOL     OW 7665   4.145   1.359   4.127  0.0078 -0.3320  0.1381
 2422SOL    HW1 7666   4.156   1.331   4.218  0.0652  0.1713  0.2899
 2422SOL    HW2 7667   4.064   1.411   4.127 -0.5547 -1.1850 -0.3065
 2423SOL     OW 7668   5.987   5.092   1.425 -0.2250 -0.1035  0.5032
 2423SOL    HW1 7669   5.983   4.997   1.422  1.2090 -0.1827  0.1290
 2423SOL    HW2 7670   6.020   5.112   1.513  1.3599 -0.0883 -0.0511
 2424SOL     OW 7671   5.090   1.892   6.715  0.1232  0.0994 -0.1411
 2424SOL    HW1 7672   5.011   1.852   6.751  0.3090  1.0559  1.4518
 2424SOL    HW2 7673   5.160   1.865   6.774  0.5077  1.4502  0.0510
 2425SOL     OW 7674   3.389   1.855   4.278  0.1347  0.2436 -0.3271
 2425SOL    HW1 7675   3.310   1.800   4.278 -0.4140  1.0115 -0.6896
 2425SOL    HW2 7676   3.425   1.845   4.190  0.9523 -0.8002  0.1080
 2426SOL     OW 7677   1.984   1.966   6.491  0.0218 -0.3204  0.3763
 2426SOL    HW1 7678   2.024   1.900   6.434  1.2320 -0.6837  1.6061
 2426SOL    HW2 7679   1.952   2.033   6.431  1.4231 -0.6080 -0.7383
 2427SOL     OW 7680   4.806   3.709   6.043 -0.0085  0.3938 -0.4493
 2427SOL    HW1 7681   4.860   3.771   5.993 -0.6479 -0.1671 -1.8836
 2427SOL    HW2 7682   4.718   3.722   6.009 -0.2412 -0.9150 -0.3705
 2428SOL     OW 7683   6.337   5.958   3.856  0.0488 -0.0908 -0.2706
 2428SOL    HW1 7684   6.261   6.009   3.884 -0.1878 -1.2276  1.2577
 2428SOL    HW2 7685   6.410   5.994   3.906 -0.1846 -1.4311  1.1013
 2429SOL     OW 7686   6.765   4.935   0.737  0.4545  0.0908  0.6090
 2429SOL    HW1 7687   6.837   4.997   0.735 -0.5083  1.2182 -1.5278
 2429SOL    HW2 7688   6.722   4.943   0.652  0.3706 -3.6486  0.1002
 2430SOL     OW 7689   0.883   1.765   3.541  0.4788  0.2428  0.4357
 2430SOL    HW1 7690   0.936   1.752   3.462 -1.6273  0.6199 -1.1282
 2430SOL    HW2 7691   0.836   1.682   3.552 -0.6922  0.8433  0.1098
 2431SOL     OW 7692   1.681   3.863   0.810 -0.1666  0.5513  0.4222
 2431SOL    HW1 7693   1.593   3.893   0.787  1.0209  2.8313 -1.5037
 2431SOL    HW2 7694   1.740   3.926   0.768  2.4131 -0.9087  1.6310
 2432SOL     OW 7695   4.593   2.511   1.251  0.4408 -0.5831  0.2614
 2432SOL    HW1 7696   4.688   2.497   1.248  0.3824 -1.3751  1.3606
 2432SOL    HW2 7697   4.556   2.441   1.198  0.4125 -1.3179  1.2163
 2433SOL     OW 7698   6.652   3.752   1.014 -0.0010 -0.5948  0.0338
 2433SOL    HW1 7699   6.669   3.782   1.104  0.9220 -0.6624 -0.1129
 2433SOL    HW2 7700   6.715   3.682   1.000  0.6378  0.1843 -1.0728
 2434SOL     OW 7701   5.835   1.489   2.437 -0.8327 -0.1504  0.2201
 2434SOL    HW1 7702   5.915   1.538   2.422 -2.3974  2.8349  0.9019
 2434SOL    HW2 7703   5.864   1.405   2.473  1.9534  1.8371  3.1054
 2435SOL     OW 7704   5.910   1.022   6.026  0.2198 -0.5664  0.2747
 2435SOL    HW1 7705   5.912   1.027   5.931 -1.1791 -1.4184  0.1659
 2435SOL    HW2 7706   5.918   1.113   6.055  0.5881 -0.2968 -0.6511
 2436SOL     OW 7707   4.036   2.872   2.533  0.1692 -0.0485 -0.4729
 2436SOL    HW1 7708   4.088   2.938   2.487 -0.1460 -0.4535 -1.4370
 2436SOL    HW2 7709   3.946   2.891   2.507  0.0622 -0.7657 -0.6644
 2437SOL     OW 7710   3.249   3.672   2.352 -0.2781  0.2079  0.6000
 2437SOL    HW1 7711   3.195   3.620   2.292  0.5079  0.9480 -0.8255
 2437SOL    HW2 7712   3.262   3.616   2.428 -1.1838 -0.8434  0.0098
 2438SOL     OW 7713   1.306   5.103   4.903  0.0248  0.6171  0.2361
 2438SOL    HW1 7714   1.288   5.184   4.855  0.2305  0.7349  0.3572
 2438SOL    HW2 7715   1.390   5.073   4.867 -1.9525 -1.7854 -2.8820
 2439SOL     OW 7716   2.208   3.710   3.622 -0.3177  0.6195 -0.1907
 2439SOL    HW1 7717   2.140   3.655   3.583  1.9730 -2.0210 -0.8772
 2439SOL    HW2 7718   2.236   3.661   3.700  1.1860  1.2853 -0.2717
 2440SOL     OW 7719   3.527   6.549   5.330 -0.4973  0.4848 -0.3871
 2440SOL    HW1 7720   3.477   6.510   5.259 -0.4686  1.8220 -1.1785
 2440SOL    HW2 7721   3.520   6.487   5.402 -1.4298 -0.3864 -1.2094
 2441SOL     OW 7722   3.371   2.885   0.817  0.2454  0.2388  0.1425
 2441SOL    HW1 7723   3.278   2.869   0.805  0.7224 -2.8180 -0.2014
 2441SOL    HW2 7724   3.411   2.863   0.733  1.2727  2.2017  0.0423
 2442SOL     OW 7725   4.360   5.412   3.703 -0.3725  0.4851  0.7694
 2442SOL    HW1 7726   4.441   5.462   3.701  0.0930 -0.2636  0.4825
 2442SOL    HW2 7727   4.311   5.448   3.777  0.4825  0.5499  1.3150
 2443SOL     OW 7728   4.952   6.454   2.226  0.4276  0.4381 -0.1227
 2443SOL    HW1 7729   4.886   6.400   2.269  0.5052  1.1819  0.9594
 2443SOL    HW2 7730   4.903   6.509   2.165  0.0358  1.0203  0.7117
 2444SOL     OW 7731   6.373   1.039   0.167  0.3211  0.3468  0.1268
 2444SOL    HW1 7732   6.409   1.127   0.159 -0.6474  0.8349  0.9241
 2444SOL    HW2 7733   6.411   0.991   0.093 -0.0301  1.7359 -1.0128
 2445SOL     OW 7734   3.755   2.222   3.966 -0.1960  0.3142  0.3221
 2445SOL    HW1 7735   3.842   2.183   3.963 -0.1221  0.5196 -1.6553
 2445SOL    HW2 7736   3.702   2.167   3.908 -1.0263  0.9887  0.4164
 2446SOL     OW 7737   0.912   1.500   0.732 -0.1042 -0.1527  0.7846
 2446SOL    HW1 7738   0.959   1.547   0.663  0.2795  0.7964  1.6671
 2446SOL    HW2 7739   0.822   1.496   0.702  0.2261 -0.5866 -0.2000
 2447SOL     OW 7740   3.393   3.792   0.466  0.2476 -0.7938 -0.1860
 2447SOL    HW1 7741   3.483   3.760   0.459 -0.2528 -2.2560 -0.1639
 2447SOL    HW2 7742   3.344   3.718   0.501 -0.5290  0.7846  2.2987
 2448SOL     OW 7743   1.345   6.763   1.364  0.2644  0.1239  0.2150
 2448SOL    HW1 7744   1.330   6.814   1.285 -0.8669 -0.9342 -0.2950
 2448SOL    HW2 7745   1.349   6.672   1.333  1.3574 -0.1858  1.1924
 2449SOL     OW 7746   1.508   4.735   2.006  0.1598  0.0810  0.5189
 2449SOL    HW1 7747   1.468   4.651   2.030  0.6117  0.0426  1.1610
 2449SOL    HW2 7748   1.600   4.725   2.029  0.4193  0.4044 -0.3439
 2450SOL     OW 7749   6.290   5.120   3.863 -0.1410 -0.1889  0.2721
 2450SOL    HW1 7750   6.357   5.120   3.931  0.7832  1.3160 -0.5891
 2450SOL    HW2 7751   6.301   5.204   3.819 -0.9952 -0.9513 -1.4765
 2451SOL     OW 7752   1.201   2.115   2.622 -0.2661  0.2116  0.3099
 2451SOL    HW1 7753   1.114   2.144   2.595 -0.4812 -0.3714  0.3614
 2451SOL    HW2 7754   1.201   2.128   2.717 -0.1725  0.5384  0.2648
 2452SOL     OW 7755   3.766   6.545   6.418 -0.3473 -0.0983  0.2282
 2452SOL    HW1 7756   3.794   6.636   6.429 -1.0370  0.0234  1.1341
 2452SOL    HW2 7757   3.714   6.546   6.337 -1.1337  0.5242  0.7176
 2453SOL     OW 7758   1.796   1.082   6.287  0.3562 -0.0620 -0.1189
 2453SOL    HW1 7759   1.783   1.167   6.246 -1.3650 -0.1799  0.1208
 2453SOL    HW2 7760   1.809   1.102   6.380  1.0404 -0.0018 -0.2235
 2454SOL     OW 7761   1.131   5.184   0.825  0.0995  0.0087 -0.2409
 2454SOL    HW1 7762   1.181   5.190   0.906 -0.8561 -0.6576  0.4197
 2454SOL    HW2 7763   1.119   5.276   0.798 -0.6956  0.3168  1.0848
 2455SOL     OW 7764   2.385   0.450   1.021  0.0039  0.1645 -0.3261
 2455SOL    HW1 7765   2.309   0.409   0.979 -0.5328 -0.0483  0.8204
 2455SOL    HW2 7766   2.348   0.500   1.093  0.9949 -0.4183  0.6165
 2456SOL     OW 7767   3.926   4.934   2.843  0.2399  0.3780 -0.1917
 2456SOL    HW1 7768   3.876   5.016   2.835 -0.8990 -0.2150  0.5632
 2456SOL    HW2 7769   3.927   4.898   2.755 -0.4893  0.5169 -0.2644
 2457SOL     OW 7770   0.342   0.886   0.342 -0.3442 -0.0354 -0.0442
 2457SOL    HW1 7771   0.293   0.833   0.406  1.1937 -0.4519  0.8395
 2457SOL    HW2 7772   0.323   0.845   0.258 -0.3329 -1.1250  0.4662
 2458SOL     OW 7773   1.221   0.811   2.043 -0.4532 -0.2565 -0.5951
 2458SOL    HW1 7774   1.254   0.772   1.962  2.1077  2.3272 -0.9730
 2458SOL    HW2 7775   1.194   0.899   2.018 -1.0149  0.0891  1.0890
 2459SOL     OW 7776   0.522   5.139   5.755 -0.0242  0.1192 -0.6274
 2459SOL    HW1 7777   0.591   5.081   5.723  0.1383  0.4851 -0.9616
 2459SOL    HW2 7778   0.444   5.084   5.761 -0.3363  0.2410 -2.6745
 2460SOL     OW 7779   5.150   6.019   5.011 -0.0563  0.1239  0.1134
 2460SOL    HW1 7780   5.165   6.040   4.918  0.6883 -0.8339 -0.0067
 2460SOL    HW2 7781   5.201   6.084   5.059  0.8900 -0.3680 -0.2026
 2461SOL     OW 7782   1.965   6.495   6.154  0.3259 -0.0016 -0.0783
 2461SOL    HW1 7783   2.010   6.558   6.210  0.9981 -0.2874 -0.2831
 2461SOL    HW2 7784   2.002   6.410   6.180  2.0921  0.0231 -2.2464
 2462SOL     OW 7785   5.073   2.052   0.488  0.0001 -0.1503 -0.0049
 2462SOL    HW1 7786   5.112   2.124   0.537  0.3089 -0.2946 -0.0383
 2462SOL    HW2 7787   5.090   2.072   0.396 -1.6603  0.7615 -0.1503
 2463SOL     OW 7788   2.462   5.480   3.649  0.4602 -0.3386  0.2232
 2463SOL    HW1 7789   2.462   5.524   3.733  0.7245 -1.5655  0.8982
 2463SOL    HW2 7790   2.535   5.520   3.601  1.1153 -0.4911  1.0692
 2464SOL     OW 7791   3.794   2.355   2.421  0.1703  0.1973 -1.0031
 2464SOL    HW1 7792   3.718   2.319   2.375 -0.9674 -0.7318  1.4048
 2464SOL    HW2 7793   3.869   2.313   2.380 -0.8166 -0.9769 -1.6686
 2465SOL     OW 7794   1.328   5.502   4.502 -0.3453 -0.6267 -0.6501
 2465SOL    HW1 7795   1.266   5.560   4.457  0.8260 -0.1980 -1.7688
 2465SOL    HW2 7796   1.360   5.443   4.433  0.0037 -1.2756  0.0484
 2466SOL     OW 7797   4.319   4.186   1.542 -0.0375 -0.0479 -0.3277
 2466SOL    HW1 7798   4.319   4.205   1.448 -0.4238 -0.5348 -0.4324
 2466SOL    HW2 7799   4.400   4.137   1.556  0.9994  1.6981 -0.0394
 2467SOL     OW 7800   3.288   1.635   0.323 -0.5906  0.1563 -0.1222
 2467SOL    HW1 7801   3.296   1.566   0.257 -0.6008  0.0400 -0.0051
 2467SOL    HW2 7802   3.331   1.711   0.285 -0.7387  0.1389 -0.3283
 2468SOL     OW 7803   3.648   1.717   3.283 -0.4032  0.1437  0.3235
 2468SOL    HW1 7804   3.725   1.737   3.337 -0.2308 -0.5948  0.3561
 2468SOL    HW2 7805   3.626   1.627   3.306  0.8596 -0.9110 -2.2729
 2469SOL     OW 7806   4.958   4.331   4.870  0.0819  0.3943 -0.0199
 2469SOL    HW1 7807   5.026   4.398   4.857  0.0935  0.5936  1.0355
 2469SOL    HW2 7808   4.917   4.323   4.783 -0.7232  2.6468  0.0758
 2470SOL     OW 7809   5.247   2.621   4.005 -0.6307 -0.2874 -0.5206
 2470SOL    HW1 7810   5.253   2.541   3.953 -0.1284 -1.4169  1.1618
 2470SOL    HW2 7811   5.260   2.692   3.943  3.2699 -1.6368 -1.5607
 2471SOL     OW 7812   0.514   6.124   3.025 -0.4243  0.0700 -0.4388
 2471SOL    HW1 7813   0.446   6.191   3.035 -0.2649  0.0837  0.6490
 2471SOL    HW2 7814   0.576   6.141   3.095 -0.0086 -0.7920 -0.5782
 2472SOL     OW 7815   0.975   2.925   2.027 -0.3304  0.2830  0.6434
 2472SOL    HW1 7816   0.973   2.830   2.017  0.0408  0.1063  2.0111
 2472SOL    HW2 7817   0.957   2.959   1.939 -1.7021 -1.0352  0.3723
 2473SOL     OW 7818   0.656   6.252   5.083  0.1358  0.0179  0.4897
 2473SOL    HW1 7819   0.695   6.340   5.078 -0.3838  0.2002 -0.5484
 2473SOL    HW2 7820   0.660   6.219   4.993  1.2448 -1.4454  1.0226
 2474SOL     OW 7821   0.477   3.016   2.160 -0.0715  0.0333  0.0585
 2474SOL    HW1 7822   0.391   3.046   2.189 -0.2446 -0.9288  0.5774
 2474SOL    HW2 7823   0.535   3.034   2.235  0.1318  0.4748 -0.2049
 2475SOL     OW 7824   2.947   3.771   2.202 -0.2629 -0.0971 -0.0258
 2475SOL    HW1 7825   2.973   3.860   2.180 -1.7349  0.3688  0.0264
 2475SOL    HW2 7826   2.851   3.772   2.199 -0.3448 -2.2955 -2.5096
 2476SOL     OW 7827   1.268   5.377   1.297 -0.0361 -0.1105  0.0575
 2476SOL    HW1 7828   1.302   5.462   1.323 -0.2649 -0.2979  0.9860
 2476SOL    HW2 7829   1.346   5.326   1.274  0.3502 -0.4844  1.9967
 2477SOL     OW 7830   2.026   1.359   3.984  0.0297 -0.0011  0.2103
 2477SOL    HW1 7831   1.937   1.384   4.011  0.3283 -0.0060  1.2481
 2477SOL    HW2 7832   2.014   1.312   3.902 -1.0659 -1.1964  1.0230
 2478SOL     OW 7833   1.915   3.314   5.816 -0.4181 -0.0857 -0.6226
 2478SOL    HW1 7834   1.920   3.278   5.904 -0.0342  2.5129  0.4987
 2478SOL    HW2 7835   2.004   3.342   5.796 -0.6300 -0.0594 -1.6125
 2479SOL     OW 7836   4.317   1.620   6.126  0.1490 -0.3106  0.4873
 2479SOL    HW1 7837   4.228   1.635   6.159  0.8464  0.8949  1.9473
 2479SOL    HW2 7838   4.306   1.616   6.031 -1.2262  2.0104  0.4508
 2480SOL     OW 7839   2.934   0.514   6.516 -0.5014 -0.7038  0.5679
 2480SOL    HW1 7840   2.991   0.588   6.494 -1.8909 -0.0659 -1.0838
 2480SOL    HW2 7841   2.881   0.500   6.437 -2.7398 -1.1565  2.0646
 2481SOL     OW 7842   1.710   4.420   2.652  0.5947 -0.1926 -0.2981
 2481SOL    HW1 7843   1.740   4.489   2.592 -1.6583  0.0019 -1.3103
 2481SOL    HW2 7844   1.736   4.451   2.739  2.2327  0.4633 -0.9765
 2482SOL     OW 7845   5.480   0.037   4.452 -0.3067 -0.4570 -0.5803
 2482SOL    HW1 7846   5.449   0.117   4.495 -0.6190  0.8966 -3.1616
 2482SOL    HW2 7847   5.514  -0.016   4.524 -0.7957  1.6399  1.3329
 2483SOL     OW 7848   3.449   0.261   3.398  0.2630  0.1488 -0.4049
 2483SOL    HW1 7849   3.481   0.180   3.438  0.5178  1.1347  1.4757
 2483SOL    HW2 7850   3.373   0.286   3.450 -0.4247  0.6152 -1.5911
 2484SOL     OW 7851   2.552   6.449   5.988 -0.9389  0.2668  0.4345
 2484SOL    HW1 7852   2.593   6.535   5.992  1.3748 -0.6607 -1.2117
 2484SOL    HW2 7853   2.611   6.392   6.037 -0.6165 -0.9548 -1.2654
 2485SOL     OW 7854   2.846   4.904   4.149  0.6271  0.1204 -0.3506
 2485SOL    HW1 7855   2.873   4.837   4.087  0.9698 -0.7712  0.7323
 2485SOL    HW2 7856   2.767   4.943   4.110  0.4303 -0.8925 -0.9921
 2486SOL     OW 7857   2.964   1.440   1.444  0.4038 -0.1716 -0.1760
 2486SOL    HW1 7858   2.923   1.392   1.371  1.1585 -1.1004 -0.0150
 2486SOL    HW2 7859   2.972   1.375   1.513  1.0473  0.3180  0.2126
 2487SOL     OW 7860   0.637   0.270   3.612  0.1530 -0.5128  0.2061
 2487SOL    HW1 7861   0.645   0.318   3.530  3.0766  0.6750  1.0645
 2487SOL    HW2 7862   0.565   0.313   3.658 -0.2145  0.0942 -0.9007
 2488SOL     OW 7863   5.871   2.061   3.055 -0.2956  0.4665 -0.9390
 2488SOL    HW1 7864   5.962   2.054   3.086 -0.0795  0.7870 -1.4843
 2488SOL    HW2 7865   5.871   2.139   3.000 -0.7684  0.1359 -1.4120
 2489SOL     OW 7866   4.519   1.967   4.363  0.2789 -0.1252  0.1150
 2489SOL    HW1 7867   4.499   1.963   4.269  1.1864  0.3375 -0.1091
 2489SOL    HW2 7868   4.479   1.888   4.399 -0.7945  0.1102 -0.5198
 2490SOL     OW 7869   1.189   1.170   5.066 -0.1434  0.0235 -0.3017
 2490SOL    HW1 7870   1.237   1.095   5.100  0.1356  0.1578 -0.3978
 2490SOL    HW2 7871   1.230   1.246   5.108  0.2005  0.1905 -0.9269
 2491SOL     OW 7872   6.590   3.261   3.924 -0.3299 -0.0944  0.3037
 2491SOL    HW1 7873   6.606   3.188   3.865  0.9892  0.5566 -0.1931
 2491SOL    HW2 7874   6.503   3.244   3.960 -1.1107 -0.6009 -1.6838
 2492SOL     OW 7875   3.877   3.247   6.642  0.2473 -0.2847  0.4216
 2492SOL    HW1 7876   3.873   3.332   6.598  0.3576 -0.4169  0.1531
 2492SOL    HW2 7877   3.815   3.192   6.594  0.8621 -0.6249 -0.0049
 2493SOL     OW 7878   0.262   0.695   3.486  0.2172  0.2995 -0.3452
 2493SOL    HW1 7879   0.345   0.742   3.498  0.5373 -0.2924 -0.2206
 2493SOL    HW2 7880   0.254   0.686   3.391 -0.0828  1.0238 -0.3913
 2494SOL     OW 7881   2.280   4.315   5.305 -0.8055 -0.5680  0.1836
 2494SOL    HW1 7882   2.315   4.366   5.233  0.0272 -1.0891  0.2103
 2494SOL    HW2 7883   2.354   4.302   5.364 -1.8189  1.3019  2.0285
 2495SOL     OW 7884   3.647   6.733   5.590 -0.1278  0.1847  0.5617
 2495SOL    HW1 7885   3.594   6.787   5.648 -0.6080  0.7647 -0.4004
 2495SOL    HW2 7886   3.619   6.756   5.502 -0.6644 -1.9338  0.1076
 2496SOL     OW 7887   4.098   2.347   2.641 -0.1271  0.0132  0.0485
 2496SOL    HW1 7888   4.093   2.373   2.549 -0.1496 -2.9196 -0.8508
 2496SOL    HW2 7889   4.161   2.409   2.679 -1.1083  2.1225 -1.5731
 2497SOL     OW 7890   3.135   1.160   4.063 -0.3009  0.0755 -0.2848
 2497SOL    HW1 7891   3.212   1.165   4.006 -0.6109 -1.9716 -0.9293
 2497SOL    HW2 7892   3.074   1.225   4.027 -0.0487 -0.3916 -1.5993
 2498SOL     OW 7893   5.312   1.776   2.681  0.2196 -0.3492 -0.4335
 2498SOL    HW1 7894   5.376   1.803   2.615 -0.2464  1.1021 -0.3354
 2498SOL    HW2 7895   5.356   1.790   2.765 -0.6026  1.9364 -0.3054
 2499SOL     OW 7896   3.012   1.338   2.958  0.6118  0.0304  0.4737
 2499SOL    HW1 7897   3.017   1.355   2.864 -2.3380 -0.6110  0.1119
 2499SOL    HW2 7898   3.048   1.417   2.998  2.1707  0.2106 -1.1562
 2500SOL     OW 7899   0.664   0.601   3.797 -0.2280  0.1503  0.2605
 2500SOL    HW1 7900   0.615   0.682   3.781 -1.8053 -0.7910  0.1027
 2500SOL    HW2 7901   0.693   0.573   3.710 -0.1368  0.2633  0.2540
 2501SOL     OW 7902   1.359   6.501   4.508  0.1949  0.1583 -0.2294
 2501SOL    HW1 7903   1.350   6.466   4.597  0.7618  2.1416  0.6491
 2501SOL    HW2 7904   1.439   6.461   4.475 -0.2243 -0.8970 -0.0319
 2502SOL     OW 7905   6.283   2.898   2.846  0.1532  0.0604 -0.1203
 2502SOL    HW1 7906   6.213   2.873   2.785  0.3285 -2.5148  0.5955
 2502SOL    HW2 7907   6.362   2.863   2.806  0.5591  0.1644  0.5776
 2503SOL     OW 7908   4.092   1.054   4.141 -0.1089  0.0165  0.9148
 2503SOL    HW1 7909   4.100   0.971   4.093  1.2655 -0.2783  1.6165
 2503SOL    HW2 7910   4.121   1.121   4.079  2.1234 -0.4137  1.4189
 2504SOL     OW 7911   0.202   2.167   4.772  0.1643 -0.1979  0.2157
 2504SOL    HW1 7912   0.215   2.100   4.705 -2.7466 -0.4440 -0.2054
 2504SOL    HW2 7913   0.256   2.240   4.744 -2.3042  0.4413 -3.5508
 2505SOL     OW 7914   5.941   1.018   3.547  0.0916  0.1387 -0.2596
 2505SOL    HW1 7915   5.963   0.928   3.573  0.5490  0.2958 -0.1069
 2505SOL    HW2 7916   5.989   1.031   3.465  1.3343  0.8036  0.5537
 2506SOL     OW 7917   3.384   2.287   4.949 -0.6344  0.0022  0.7725
 2506SOL    HW1 7918   3.413   2.376   4.930 -0.6652 -0.7089 -3.4516
 2506SOL    HW2 7919   3.460   2.232   4.929 -1.5503 -1.1273  0.2907
 2507SOL     OW 7920   1.936   3.244   6.084 -0.1144 -0.6837 -0.4583
 2507SOL    HW1 7921   1.889   3.192   6.150  1.0929 -0.3975  0.6727
 2507SOL    HW2 7922   2.010   3.281   6.132 -0.3801  1.2754 -1.4791
 2508SOL     OW 7923   0.079   2.121   0.459 -0.1626 -0.1347 -0.3907
 2508SOL    HW1 7924   0.135   2.145   0.532 -0.4322 -0.3948 -0.0934
 2508SOL    HW2 7925   0.045   2.204   0.426  1.1615  0.1141 -1.2069
 2509SOL     OW 7926   2.382   4.791   4.432 -0.3180 -0.3833  0.0445
 2509SOL    HW1 7927   2.332   4.756   4.506 -0.7491 -1.0546 -0.5505
 2509SOL    HW2 7928   2.457   4.836   4.473 -1.2574  0.4129  0.9306
 2510SOL     OW 7929   2.804   0.421   5.969  0.4272  0.0404 -0.5890
 2510SOL    HW1 7930   2.872   0.476   5.929  0.0865 -0.7454 -2.3350
 2510SOL    HW2 7931   2.722   0.467   5.951  0.2918 -0.1947 -0.5770
 2511SOL     OW 7932   4.260   3.482   5.004 -0.0626  0.3546  0.3825
 2511SOL    HW1 7933   4.295   3.393   4.998  1.6353  0.9842  0.3752
 2511SOL    HW2 7934   4.173   3.471   5.042  0.6912 -1.1997  1.7948
 2512SOL     OW 7935   3.954   2.303   2.130 -0.8113  0.2157 -0.6626
 2512SOL    HW1 7936   3.947   2.263   2.044 -2.4975 -1.1796  0.0535
 2512SOL    HW2 7937   3.929   2.234   2.191  3.9717 -0.1062  1.3874
 2513SOL     OW 7938   0.174   0.230   2.457 -0.5741  0.6418  0.0097
 2513SOL    HW1 7939   0.098   0.259   2.509 -0.8276  1.2344 -0.6758
 2513SOL    HW2 7940   0.136   0.198   2.375 -0.2000 -0.6263  0.3207
 2514SOL     OW 7941   4.405   0.314   0.577  0.1791  0.2310  0.1404
 2514SOL    HW1 7942   4.459   0.336   0.501 -0.0083  0.7299  0.1480
 2514SOL    HW2 7943   4.439   0.370   0.647  1.7476 -1.7063  1.0080
 2515SOL     OW 7944   0.226   4.679   4.148 -0.0761 -0.1224  0.4579
 2515SOL    HW1 7945   0.175   4.668   4.228 -1.0688 -0.5201 -0.1956
 2515SOL    HW2 7946   0.221   4.772   4.129 -1.0716 -0.2310  0.1054
 2516SOL     OW 7947   1.337   1.425   2.554 -0.3444 -0.0972 -0.0527
 2516SOL    HW1 7948   1.388   1.402   2.477 -0.7245  0.5225 -0.4996
 2516SOL    HW2 7949   1.358   1.357   2.618  2.9268  1.4050  0.6964
 2517SOL     OW 7950   4.372   1.059   0.071  0.5615  0.1109 -0.3324
 2517SOL    HW1 7951   4.461   1.043   0.040  1.2441  1.2563  0.9539
 2517SOL    HW2 7952   4.354   0.986   0.131  0.9101  0.2685 -0.0363
 2518SOL     OW 7953   6.763   0.879   0.953  0.2053 -0.4859  0.1338
 2518SOL    HW1 7954   6.816   0.800   0.942  1.7742  0.6708 -1.2128
 2518SOL    HW2 7955   6.800   0.922   1.030 -0.4049 -0.8772  0.6477
 2519SOL     OW 7956   2.416   3.044   4.001  0.3774  0.5605 -0.2681
 2519SOL    HW1 7957   2.433   2.950   3.992 -2.4506 -0.0807 -0.0851
 2519SOL    HW2 7958   2.454   3.084   3.923 -0.3008 -1.0889 -1.5055
 2520SOL     OW 7959   4.442   3.709   2.040  0.5227 -0.0046  0.3043
 2520SOL    HW1 7960   4.444   3.804   2.030  1.6856 -0.1279 -0.8315
 2520SOL    HW2 7961   4.387   3.678   1.968 -0.2020 -0.1958  0.9147
 2521SOL     OW 7962   4.622   6.610   5.975 -0.0071 -0.0143  0.3826
 2521SOL    HW1 7963   4.660   6.559   5.903  2.1394 -0.3383  1.6867
 2521SOL    HW2 7964   4.576   6.546   6.028  0.6560 -0.2098  0.7241
 2522SOL     OW 7965   1.572   0.999   5.887  0.2205  0.6048 -0.3304
 2522SOL    HW1 7966   1.608   0.942   5.819 -0.4987 -0.1557 -0.0820
 2522SOL    HW2 7967   1.638   1.068   5.898  0.4922  0.5648 -1.5716
 2523SOL     OW 7968   3.194   6.364   3.125 -0.6592  0.4666  0.0644
 2523SOL    HW1 7969   3.279   6.366   3.168 -0.7173 -0.5692  0.2537
 2523SOL    HW2 7970   3.142   6.431   3.169  0.3698  1.8606 -0.7634
 2524SOL     OW 7971   5.013   2.211   1.377  0.6396 -0.1168  0.1449
 2524SOL    HW1 7972   4.952   2.138   1.383  1.3590 -0.9318 -1.6997
 2524SOL    HW2 7973   5.019   2.245   1.467 -0.8604 -1.3437  0.7563
 2525SOL     OW 7974   6.376   6.318   3.207  0.3861  0.0982 -0.2335
 2525SOL    HW1 7975   6.471   6.324   3.221  0.5250  1.9668 -1.6420
 2525SOL    HW2 7976   6.364   6.343   3.115 -1.4719 -0.3706 -0.1572
 2526SOL     OW 7977   0.203   0.319   0.593  0.4750  0.2599  0.5710
 2526SOL    HW1 7978   0.246   0.279   0.517 -1.7524 -1.0374 -0.0898
 2526SOL    HW2 7979   0.268   0.380   0.627  2.5695 -1.1004 -0.7387
 2527SOL     OW 7980   5.003   6.137   2.975 -0.0585  0.2973 -0.1743
 2527SOL    HW1 7981   5.003   6.063   2.914  1.2918 -2.2463  2.6126
 2527SOL    HW2 7982   5.012   6.214   2.920 -1.4509 -1.5644 -3.2888
 2528SOL     OW 7983   2.097   6.735   4.426 -0.6019 -0.0959 -0.2945
 2528SOL    HW1 7984   2.005   6.760   4.425 -0.5038  0.2598 -0.5573
 2528SOL    HW2 7985   2.122   6.733   4.333 -0.6335 -1.2737 -0.3011
 2529SOL     OW 7986   2.065   4.680   0.688 -0.8570  0.0481  0.0986
 2529SOL    HW1 7987   2.086   4.773   0.690  0.3492 -0.2106  1.5132
 2529SOL    HW2 7988   2.089   4.652   0.599  2.8275  0.2982  0.8472
 2530SOL     OW 7989   2.747   2.584   4.496  0.4685  0.3387 -0.0218
 2530SOL    HW1 7990   2.667   2.625   4.529  1.2470  1.1066  1.0174
 2530SOL    HW2 7991   2.718   2.526   4.426 -1.4049 -1.9327  2.4377
 2531SOL     OW 7992   1.937   2.441   3.822 -0.2438  0.1554 -0.3222
 2531SOL    HW1 7993   1.893   2.410   3.901  1.7634 -0.5043  0.5998
 2531SOL    HW2 7994   1.979   2.363   3.786 -1.0261  0.4656 -2.0219
 2532SOL     OW 7995   4.627   3.228   0.380 -0.0896 -0.5554  0.5214
 2532SOL    HW1 7996   4.557   3.273   0.428  1.4867  0.2465  2.1928
 2532SOL    HW2 7997   4.598   3.137   0.375 -0.8092 -0.4480  2.0923
 2533SOL     OW 7998   4.110   4.843   5.390 -0.0634 -0.2756  0.2725
 2533SOL    HW1 7999   4.130   4.825   5.482  0.0925 -0.2133  0.2509
 2533SOL    HW2 8000   4.042   4.779   5.367 -0.5129  0.0890  0.5892
 2534SOL     OW 8001   1.181   3.682   3.005  0.0524  0.3728 -0.1455
 2534SOL    HW1 8002   1.217   3.752   3.059  0.4829  0.3093 -0.3460
 2534SOL    HW2 8003   1.219   3.696   2.918  1.4816 -1.0898  0.2097
 2535SOL     OW 8004   0.705   4.906   1.699  0.7601  0.3589  0.1218
 2535SOL    HW1 8005   0.660   4.902   1.615  0.2661  0.9546  0.3507
 2535SOL    HW2 8006   0.673   4.830   1.747  2.0278 -0.7424 -0.6877
 2536SOL     OW 8007   0.131   3.138   1.544 -0.1508  0.1864  0.1733
 2536SOL    HW1 8008   0.151   3.095   1.461 -0.9152  1.3331 -0.6243
 2536SOL    HW2 8009   0.216   3.146   1.588 -0.0863 -3.2905  0.9920
 2537SOL     OW 8010   5.802   3.489   4.001  0.6384 -0.3433 -0.1291
 2537SOL    HW1 8011   5.742   3.432   3.952 -0.1278 -0.6423  1.0953
 2537SOL    HW2 8012   5.784   3.577   3.968 -3.5342  0.2543  2.8720
 2538SOL     OW 8013   1.050   6.405   6.696 -0.3031 -0.1587  0.3144
 2538SOL    HW1 8014   1.084   6.329   6.742  2.1749 -0.0001 -1.0688
 2538SOL    HW2 8015   1.004   6.368   6.620  1.7907 -0.3740 -0.9406
 2539SOL     OW 8016   0.050   5.290   1.007 -0.2663 -0.1981 -0.6321
 2539SOL    HW1 8017  -0.040   5.319   0.993 -0.5734 -0.3082  0.8870
 2539SOL    HW2 8018   0.053   5.265   1.099  1.2944 -0.3148 -0.6787
 2540SOL     OW 8019   3.972   2.113   4.368 -0.2289  0.2822  0.0719
 2540SOL    HW1 8020   3.918   2.095   4.445 -1.4790  1.0822 -0.5786
 2540SOL    HW2 8021   3.947   2.044   4.306 -1.0631  1.0789 -0.4933
 2541SOL     OW 8022   3.478   6.476   4.534 -0.4299  0.0762 -0.4325
 2541SOL    HW1 8023   3.499   6.511   4.620  0.7121  0.6158 -0.9079
 2541SOL    HW2 8024   3.495   6.548   4.474  1.5735 -1.1082 -1.4029
 2542SOL     OW 8025   1.747   2.500   5.218 -0.1109  0.5920 -0.2930
 2542SOL    HW1 8026   1.660   2.467   5.195 -0.4023  0.2215  1.2186
 2542SOL    HW2 8027   1.803   2.423   5.219  0.0185  0.6854 -0.3300
 2543SOL     OW 8028   6.650   4.291   4.057  0.3758 -0.1001  0.2931
 2543SOL    HW1 8029   6.738   4.328   4.053  0.3518  0.0524  1.0142
 2543SOL    HW2 8030   6.601   4.351   4.113  0.3441 -1.2102  1.5006
 2544SOL     OW 8031   1.558   5.600   2.797 -0.1315  0.3698 -0.2225
 2544SOL    HW1 8032   1.520   5.514   2.780 -0.0071  0.6268 -1.9538
 2544SOL    HW2 8033   1.639   5.581   2.845 -1.2806 -0.3005  1.5300
 2545SOL     OW 8034   6.101   4.729   6.375  0.0959 -0.1743  0.3225
 2545SOL    HW1 8035   6.035   4.793   6.348 -0.0623 -1.0142 -1.4244
 2545SOL    HW2 8036   6.168   4.781   6.420 -1.4476  0.7759  1.6296
 2546SOL     OW 8037   4.945   6.542   4.355 -0.3593  0.0883 -0.4711
 2546SOL    HW1 8038   4.992   6.566   4.434 -0.9993 -0.9371  0.2431
 2546SOL    HW2 8039   4.877   6.609   4.346 -1.2734 -0.6291  0.7424
 2547SOL     OW 8040   4.961   6.180   5.698  0.0025  0.4471 -0.0340
 2547SOL    HW1 8041   4.892   6.133   5.744 -0.3816  1.0941  0.0629
 2547SOL    HW2 8042   4.919   6.211   5.618 -0.2485  2.0992  0.7054
 2548SOL     OW 8043   0.216   2.848   3.197  0.1202  0.1299 -0.1711
 2548SOL    HW1 8044   0.290   2.842   3.258 -0.5180 -0.7136  0.5321
 2548SOL    HW2 8045   0.196   2.942   3.192  1.1552  0.3587 -0.2872
 2549SOL     OW 8046   4.356   5.621   4.864 -0.3849 -0.2548 -0.4041
 2549SOL    HW1 8047   4.337   5.606   4.956  1.3178 -2.0878 -0.2781
 2549SOL    HW2 8048   4.342   5.715   4.851  1.8037  0.6003  2.3579
 2550SOL     OW 8049   1.326   3.801   3.857  0.3269 -0.5057  0.1097
 2550SOL    HW1 8050   1.270   3.741   3.807 -0.9462  0.0495  0.8282
 2550SOL    HW2 8051   1.371   3.852   3.790 -1.1204  0.0112 -0.5271
 2551SOL     OW 8052   6.343   4.915   5.300 -0.2447  0.6002 -0.7587
 2551SOL    HW1 8053   6.312   4.831   5.265  2.2021  0.1967 -2.1566
 2551SOL    HW2 8054   6.329   4.977   5.229 -1.8835  1.4152  0.2076
 2552SOL     OW 8055   2.912   5.826   2.561  0.0549 -0.5727  0.2655
 2552SOL    HW1 8056   2.961   5.878   2.498 -0.2155  2.0887  2.1058
 2552SOL    HW2 8057   2.828   5.871   2.570  0.0683 -0.8623  2.4667
 2553SOL     OW 8058   5.924   0.658   3.641  0.4852  0.8572 -0.0388
 2553SOL    HW1 8059   5.831   0.672   3.626 -0.0028  0.4917  2.2833
 2553SOL    HW2 8060   5.928   0.580   3.697  2.2084  0.7061 -0.3121
 2554SOL     OW 8061   3.157   0.677   6.468  0.7454 -0.2027  0.0297
 2554SOL    HW1 8062   3.173   0.747   6.532 -3.1476 -0.0063  1.1015
 2554SOL    HW2 8063   3.124   0.722   6.391  0.7268 -0.7044 -0.2602
 2555SOL     OW 8064   4.887   2.506   1.195 -0.0344 -0.1709 -0.3201
 2555SOL    HW1 8065   4.954   2.564   1.160  0.4136 -0.3014  0.2949
 2555SOL    HW2 8066   4.936   2.444   1.250 -0.5391 -0.9014 -0.6686
 2556SOL     OW 8067   0.065   2.353   0.051 -0.4676  0.2050 -0.4757
 2556SOL    HW1 8068   0.124   2.426   0.029 -0.4265  0.2604 -0.1879
 2556SOL    HW2 8069   0.067   2.297  -0.026  0.5736 -0.1961 -0.1874
 2557SOL     OW 8070   0.956   3.740   2.027  0.0312  0.6242 -0.1910
 2557SOL    HW1 8071   0.872   3.737   1.982  0.0383  3.3017 -0.5520
 2557SOL    HW2 8072   1.014   3.785   1.966  0.9700  1.2814  1.1418
 2558SOL     OW 8073   4.447   2.980   2.744  0.3579  0.4133 -0.0739
 2558SOL    HW1 8074   4.458   3.072   2.771 -1.1453  0.6947 -0.2852
 2558SOL    HW2 8075   4.383   2.945   2.806  1.1119 -0.5897  0.1627
 2559SOL     OW 8076   2.353   0.159   5.005 -0.2349 -1.1337 -0.4920
 2559SOL    HW1 8077   2.350   0.234   5.065  1.9955 -1.9372  0.7580
 2559SOL    HW2 8078   2.365   0.198   4.918  1.9937  0.0279  0.2402
 2560SOL     OW 8079   4.595   0.508   5.417 -0.1215 -0.1967  0.3402
 2560SOL    HW1 8080   4.655   0.582   5.431  1.3403 -1.0765 -0.9227
 2560SOL    HW2 8081   4.583   0.471   5.504  1.4145 -0.1476  0.6001
 2561SOL     OW 8082   6.097   2.921   0.452 -0.2529  0.6480 -0.4524
 2561SOL    HW1 8083   6.099   2.826   0.462 -0.1571  0.8015  1.3944
 2561SOL    HW2 8084   6.178   2.942   0.406 -0.5016 -0.1924 -1.3019
 2562SOL     OW 8085   2.632   6.062   3.855 -0.0821  0.1664  0.4917
 2562SOL    HW1 8086   2.698   6.036   3.920 -0.4159 -0.7115  0.4905
 2562SOL    HW2 8087   2.618   5.983   3.802 -2.3266 -0.2230  1.5275
 2563SOL     OW 8088   0.542   0.742   6.238 -0.2938 -0.1881  0.4521
 2563SOL    HW1 8089   0.497   0.660   6.257 -1.5203  0.0851 -1.0861
 2563SOL    HW2 8090   0.586   0.726   6.155 -1.1646  0.9301 -0.2426
 2564SOL     OW 8091   5.805   0.041   0.265 -0.2420  0.5397  0.2275
 2564SOL    HW1 8092   5.846   0.084   0.190 -0.4357  0.4364  0.0621
 2564SOL    HW2 8093   5.711   0.055   0.253 -0.2298  1.3446  0.9553
 2565SOL     OW 8094   3.790   3.669   5.071  0.3967  0.0457 -0.2793
 2565SOL    HW1 8095   3.802   3.636   5.160  1.0313  1.2585  0.1187
 2565SOL    HW2 8096   3.755   3.757   5.082 -0.5162 -0.1616 -1.2769
 2566SOL     OW 8097   0.541   2.258   4.105 -0.1002  0.0377  0.1653
 2566SOL    HW1 8098   0.595   2.213   4.170  0.7051 -0.6206 -0.9144
 2566SOL    HW2 8099   0.596   2.331   4.075 -1.4359  1.9012  1.9844
 2567SOL     OW 8100   0.351   3.999   2.317 -0.4509 -0.0126  0.0506
 2567SOL    HW1 8101   0.405   4.057   2.372 -1.6318  0.4622  0.7486
 2567SOL    HW2 8102   0.378   3.911   2.343 -2.3604  0.1156  2.9911
 2568SOL     OW 8103   0.871   2.492   3.526  0.0189  0.4545 -0.7131
 2568SOL    HW1 8104   0.844   2.517   3.438  0.9414 -2.5451 -1.9725
 2568SOL    HW2 8105   0.840   2.402   3.537  0.5303  0.4917  1.7839
 2569SOL     OW 8106   4.976   5.850   3.828  0.3580  0.5392  0.6060
 2569SOL    HW1 8107   4.900   5.792   3.834 -1.1994  2.3458 -0.4258
 2569SOL    HW2 8108   4.940   5.934   3.800  2.9481  1.0411 -1.6655
 2570SOL     OW 8109   0.173   5.997   1.698 -0.0893 -0.3698 -0.2458
 2570SOL    HW1 8110   0.203   5.955   1.618 -0.8222 -0.1524 -0.6448
 2570SOL    HW2 8111   0.195   6.089   1.687  0.3277 -0.4296  0.0576
 2571SOL     OW 8112   1.165   5.664   3.287  0.2089 -0.6647 -0.4678
 2571SOL    HW1 8113   1.235   5.696   3.344  0.8818 -1.8802 -0.5565
 2571SOL    HW2 8114   1.084   5.685   3.334  0.7126 -0.8210  0.5078
 2572SOL     OW 8115   1.408   1.526   1.227  0.6518  0.3445 -0.1024
 2572SOL    HW1 8116   1.386   1.457   1.164  0.6677  0.9207 -0.7624
 2572SOL    HW2 8117   1.325   1.550   1.267 -0.2990  3.2244 -3.3169
 2573SOL     OW 8118   5.447   0.675   5.988  0.7266  0.0696  0.1394
 2573SOL    HW1 8119   5.514   0.737   6.017  0.4895 -0.0292  0.9382
 2573SOL    HW2 8120   5.450   0.679   5.892 -0.3759  2.5325  0.1225
 2574SOL     OW 8121   2.422   5.228   1.637  0.0532 -0.1757 -0.6137
 2574SOL    HW1 8122   2.516   5.224   1.619  0.0690  1.1233 -0.9644
 2574SOL    HW2 8123   2.383   5.164   1.577  0.6045  0.2800 -1.4929
 2575SOL     OW 8124   6.405   0.772   6.229  0.8036 -0.6090  0.1832
 2575SOL    HW1 8125   6.432   0.693   6.277 -1.7908 -2.8598 -1.7320
 2575SOL    HW2 8126   6.311   0.776   6.242  0.9037  2.5293  0.5406
 2576SOL     OW 8127   0.811   5.352   5.445 -0.0601 -0.1991 -0.0220
 2576SOL    HW1 8128   0.835   5.262   5.468  1.0337 -0.3064 -1.4337
 2576SOL    HW2 8129   0.727   5.343   5.400 -0.7491 -0.3086  1.2369
 2577SOL     OW 8130   1.414   6.619   5.698 -0.1263  0.7894 -0.2769
 2577SOL    HW1 8131   1.508   6.630   5.690  0.1440  0.4063  1.7582
 2577SOL    HW2 8132   1.380   6.707   5.715 -0.0057  0.7765  0.0263
 2578SOL     OW 8133   6.322   2.852   5.754  0.9657  0.4951  0.6599
 2578SOL    HW1 8134   6.249   2.793   5.735  0.7120  0.8857  0.4130
 2578SOL    HW2 8135   6.304   2.886   5.842  0.7612  0.7141  0.5357
 2579SOL     OW 8136   0.987   3.127   2.448 -0.3561 -0.1068  0.1593
 2579SOL    HW1 8137   0.920   3.081   2.397 -0.9664 -0.5205  1.3079
 2579SOL    HW2 8138   0.941   3.159   2.525  0.3102  1.4528 -0.0385
 2580SOL     OW 8139   6.014   2.898   4.995  0.0468 -0.1685  0.3487
 2580SOL    HW1 8140   6.052   2.842   5.062 -1.0603 -1.8752 -0.3759
 2580SOL    HW2 8141   6.089   2.945   4.958  0.8386 -0.2081  1.8419
 2581SOL     OW 8142   2.538   2.449   4.911  0.4131 -0.6143 -0.3521
 2581SOL    HW1 8143   2.464   2.503   4.882  0.1325  0.0559  1.4729
 2581SOL    HW2 8144   2.579   2.500   4.981  2.3418 -1.1965 -0.9981
 2582SOL     OW 8145   5.979   0.264   5.494 -0.3233  0.1477 -0.4946
 2582SOL    HW1 8146   5.973   0.200   5.565  0.4282  0.4449 -0.1561
 2582SOL    HW2 8147   6.065   0.249   5.456 -0.0137  1.1511 -0.2234
 2583SOL     OW 8148   3.457   6.234   0.497 -0.6485 -0.7293 -0.4988
 2583SOL    HW1 8149   3.391   6.256   0.432  0.1646  2.0211 -0.5160
 2583SOL    HW2 8150   3.441   6.294   0.569  0.5850 -1.4085  0.3869
 2584SOL     OW 8151   1.649   0.148   5.422 -0.4006 -0.3147  0.1633
 2584SOL    HW1 8152   1.736   0.165   5.385 -0.5267  0.3333  0.1622
 2584SOL    HW2 8153   1.609   0.234   5.431 -0.7421 -0.5480  0.9201
 2585SOL     OW 8154   1.359   4.587   5.104 -0.0159 -0.5871 -0.2075
 2585SOL    HW1 8155   1.285   4.535   5.137  0.8318 -1.0378  1.0536
 2585SOL    HW2 8156   1.321   4.674   5.087 -1.2801 -1.3580 -1.6019
 2586SOL     OW 8157   6.490   3.283   4.826 -0.2355 -0.5740  0.6572
 2586SOL    HW1 8158   6.537   3.291   4.909 -0.1764 -1.8367  0.7648
 2586SOL    HW2 8159   6.418   3.224   4.846  0.2359 -1.5195 -0.3756
 2587SOL     OW 8160   0.309   2.390   4.309  0.1615 -0.0893  0.2136
 2587SOL    HW1 8161   0.300   2.472   4.358  0.6145 -0.3892  0.8137
 2587SOL    HW2 8162   0.390   2.352   4.342 -0.2495 -0.9727  0.2274
 2588SOL     OW 8163   4.584   1.408   0.795 -0.5764  0.1541 -0.2287
 2588SOL    HW1 8164   4.662   1.429   0.847 -1.8266 -0.5693  2.0680
 2588SOL    HW2 8165   4.610   1.333   0.741  1.0896  1.6109 -1.5913
 2589SOL     OW 8166   6.078   5.258   2.595  0.7988  0.6870  0.6557
 2589SOL    HW1 8167   5.990   5.289   2.617  1.2121  2.3551  0.0985
 2589SOL    HW2 8168   6.131   5.280   2.672  0.7783 -0.1320  0.9086
 2590SOL     OW 8169   6.239   5.659   4.032 -0.5638 -0.3511  0.5682
 2590SOL    HW1 8170   6.159   5.673   4.083 -1.0296  1.3283 -0.5135
 2590SOL    HW2 8171   6.210   5.663   3.941  0.9328  2.3187  0.0746
 2591SOL     OW 8172   6.665   3.498   3.766  0.6669  0.2765  0.8334
 2591SOL    HW1 8173   6.623   3.581   3.789 -0.1300 -0.2286  1.2492
 2591SOL    HW2 8174   6.621   3.433   3.822 -0.0970 -0.7317 -0.8778
 2592SOL     OW 8175   1.279   5.417   4.758  0.0184 -0.2341  0.0906
 2592SOL    HW1 8176   1.239   5.503   4.772 -0.4027 -0.2141 -1.1068
 2592SOL    HW2 8177   1.303   5.416   4.665  2.5327 -0.3711  0.6465
 2593SOL     OW 8178   3.961   3.476   3.276  0.3499 -0.2849  0.2319
 2593SOL    HW1 8179   3.972   3.559   3.230  0.1047  1.2029  2.6267
 2593SOL    HW2 8180   3.870   3.478   3.306  0.1688 -1.7130 -0.1700
 2594SOL     OW 8181   6.658   5.256   3.633  0.7257  0.3506  0.0561
 2594SOL    HW1 8182   6.649   5.293   3.722  0.5348  1.5628 -0.4440
 2594SOL    HW2 8183   6.677   5.332   3.578  2.0684 -0.5515 -0.7698
 2595SOL     OW 8184   2.075   0.832   5.827 -0.3108  0.0097 -0.5082
 2595SOL    HW1 8185   2.134   0.857   5.757 -0.8412  2.0706 -0.2971
 2595SOL    HW2 8186   1.993   0.808   5.783 -1.0986  2.6208 -0.6381
 2596SOL     OW 8187   3.036   4.614   6.042 -0.6893 -0.5318 -0.3829
 2596SOL    HW1 8188   3.023   4.668   6.120  1.8143 -0.4167  0.0462
 2596SOL    HW2 8189   3.043   4.677   5.970 -0.8937 -0.5035 -0.3796
 2597SOL     OW 8190   4.867   5.407   0.988 -0.6928 -0.0255 -0.1262
 2597SOL    HW1 8191   4.852   5.494   1.025  0.7408  1.1201 -2.0950
 2597SOL    HW2 8192   4.802   5.398   0.919 -1.3114 -0.8474  0.5446
 2598SOL     OW 8193   2.346   0.677   2.953 -0.3109  0.2618 -0.3746
 2598SOL    HW1 8194   2.259   0.648   2.929  0.3116 -1.2473 -0.9205
 2598SOL    HW2 8195   2.395   0.597   2.971  0.7582  1.1024  0.6832
 2599SOL     OW 8196   0.236   5.716   1.244 -0.1717 -0.3546  0.5303
 2599SOL    HW1 8197   0.215   5.716   1.151 -1.5586 -0.4406  0.8156
 2599SOL    HW2 8198   0.314   5.663   1.252  0.1218 -0.1072 -0.6175
 2600SOL     OW 8199   6.019   0.544   4.103  0.4496 -0.2606  0.3061
 2600SOL    HW1 8200   5.946   0.545   4.165  0.3157 -2.5936  0.2885
 2600SOL    HW2 8201   6.084   0.602   4.142 -0.0816 -0.7756  2.0671
 2601SOL     OW 8202   4.053   5.964   5.301 -0.0340 -0.3566  0.3575
 2601SOL    HW1 8203   3.992   6.038   5.307  0.3258  0.0757 -0.9505
 2601SOL    HW2 8204   3.998   5.887   5.312 -0.9317  0.0077 -1.2336
 2602SOL     OW 8205   6.696   4.245   0.379  0.0695  0.0906  0.1128
 2602SOL    HW1 8206   6.641   4.322   0.390 -0.9466 -0.4497 -0.9408
 2602SOL    HW2 8207   6.697   4.203   0.465  0.6408  1.2461  0.7009
 2603SOL     OW 8208   5.262   4.764   0.122 -0.5358 -0.3571 -0.3491
 2603SOL    HW1 8209   5.267   4.670   0.141  0.3423 -0.5172 -1.2783
 2603SOL    HW2 8210   5.306   4.774   0.038  0.6962  1.0871  0.4180
 2604SOL     OW 8211   1.368   3.667   5.264 -0.6828 -0.1765  0.1163
 2604SOL    HW1 8212   1.384   3.748   5.312  0.7739 -0.9729  1.0749
 2604SOL    HW2 8213   1.424   3.602   5.308 -0.8548 -1.4155 -1.4014
 2605SOL     OW 8214   0.445   3.104   2.649 -0.1150  0.1354  0.4308
 2605SOL    HW1 8215   0.487   3.053   2.719  1.7552  1.8527  0.6645
 2605SOL    HW2 8216   0.410   3.181   2.694  0.7591  1.0638 -0.4229
 2606SOL     OW 8217   5.761   0.182   6.321 -0.1539 -0.5689 -0.5858
 2606SOL    HW1 8218   5.771   0.209   6.412 -1.1543  0.3369 -0.7256
 2606SOL    HW2 8219   5.846   0.145   6.298  0.2409 -0.4536  0.5896
 2607SOL     OW 8220   3.949   2.411   5.132  0.0515 -0.1472 -0.3484
 2607SOL    HW1 8221   3.910   2.451   5.054  0.6738  0.4429 -0.3669
 2607SOL    HW2 8222   3.948   2.481   5.197 -0.9558 -0.7878  0.3673
 2608SOL     OW 8223   0.881   5.298   4.448  0.6910 -0.2851  0.5170
 2608SOL    HW1 8224   0.870   5.357   4.373 -1.0798 -2.2099 -0.8511
 2608SOL    HW2 8225   0.951   5.238   4.422 -0.6816 -1.6586 -0.1500
 2609SOL     OW 8226   1.397   6.734   4.380  0.7161  0.1972 -0.3974
 2609SOL    HW1 8227   1.360   6.664   4.433 -0.3406 -0.9184 -2.5185
 2609SOL    HW2 8228   1.486   6.704   4.358 -0.1247 -1.1061 -2.2555
 2610SOL     OW 8229   6.160   6.102   3.548 -0.3312  0.1069  0.3681
 2610SOL    HW1 8230   6.165   6.096   3.453  1.0621  0.8064  0.3690
 2610SOL    HW2 8231   6.145   6.012   3.577  1.2701 -0.4552 -0.4297
 2611SOL     OW 8232   1.006   5.552   5.376 -0.0155  0.0700 -0.1314
 2611SOL    HW1 8233   1.072   5.525   5.440 -0.2844  0.8485  0.4817
 2611SOL    HW2 8234   0.926   5.510   5.404 -0.1451  0.4528  0.0792
 2612SOL     OW 8235   4.420   3.668   4.510  0.0113  0.0492 -0.3498
 2612SOL    HW1 8236   4.480   3.739   4.530  0.8921 -0.7185 -0.2204
 2612SOL    HW2 8237   4.377   3.696   4.429  0.3194  0.7405 -0.2854
 2613SOL     OW 8238   0.882   4.419   2.566 -0.0065 -0.2575 -0.3440
 2613SOL    HW1 8239   0.923   4.388   2.486 -0.3017 -2.0060  0.1232
 2613SOL    HW2 8240   0.925   4.370   2.636 -3.1075 -2.6190  0.1407
 2614SOL     OW 8241   3.255   5.653   4.621 -0.2326  0.2697 -0.0386
 2614SOL    HW1 8242   3.339   5.681   4.585 -0.4294  1.8003  0.6169
 2614SOL    HW2 8243   3.190   5.683   4.557 -0.4024  0.6812  0.3252
 2615SOL     OW 8244   0.496   3.860   1.787 -0.0811  0.5297  0.2410
 2615SOL    HW1 8245   0.433   3.928   1.810 -0.2273  0.1998  0.8335
 2615SOL    HW2 8246   0.465   3.826   1.703 -2.0963 -1.2754  1.6428
 2616SOL     OW 8247   2.717   5.776   5.274  0.0365 -0.3381  0.0016
 2616SOL    HW1 8248   2.803   5.789   5.233 -0.6764 -0.4013 -1.5984
 2616SOL    HW2 8249   2.663   5.846   5.238 -0.7906 -0.7685  0.3803
 2617SOL     OW 8250   3.424   4.027   3.043  0.5341 -0.6244 -0.2825
 2617SOL    HW1 8251   3.357   4.048   2.979  1.0481  1.3497 -0.2224
 2617SOL    HW2 8252   3.479   4.105   3.047  0.0356 -0.3134  3.1714
 2618SOL     OW 8253   6.354   6.228   1.637 -0.0153  0.3172 -0.3007
 2618SOL    HW1 8254   6.399   6.256   1.716  0.6752 -2.5074  0.4348
 2618SOL    HW2 8255   6.420   6.178   1.588 -1.8790 -3.0165  0.2909
 2619SOL     OW 8256   4.008   6.327   0.739  0.0749 -0.2204 -0.3523
 2619SOL    HW1 8257   3.971   6.415   0.730 -1.1058 -0.2834  2.7980
 2619SOL    HW2 8258   4.083   6.338   0.797  1.5685 -0.9970 -2.0198
 2620SOL     OW 8259   6.252   0.273   1.484 -0.0460  0.4841 -0.4908
 2620SOL    HW1 8260   6.266   0.256   1.391 -0.5098  0.2288 -0.5174
 2620SOL    HW2 8261   6.176   0.219   1.507 -0.4990  1.2392 -0.1705
 2621SOL     OW 8262   1.725   1.127   4.589  0.2289  0.3052 -0.2190
 2621SOL    HW1 8263   1.645   1.087   4.556 -0.8170  2.7206 -0.8238
 2621SOL    HW2 8264   1.712   1.221   4.577  2.8569  0.8332  0.3693
 2622SOL     OW 8265   5.737   4.151   3.624  1.1791 -0.0743 -0.0854
 2622SOL    HW1 8266   5.751   4.243   3.648  2.5401 -0.4909  0.8320
 2622SOL    HW2 8267   5.739   4.152   3.528  0.4320  0.9424 -0.1102
 2623SOL     OW 8268   4.954   5.078   3.454  0.5760 -0.2651  0.1592
 2623SOL    HW1 8269   5.020   5.126   3.404  0.3437 -2.1387 -2.1254
 2623SOL    HW2 8270   4.919   5.014   3.392 -1.0541 -1.5407  2.2603
 2624SOL     OW 8271   4.209   4.563   1.531 -0.8194  0.9394  0.3118
 2624SOL    HW1 8272   4.130   4.513   1.509 -0.8017  1.3327 -0.6842
 2624SOL    HW2 8273   4.188   4.653   1.507 -0.1846  1.1021  0.3464
 2625SOL     OW 8274   4.819   5.962   6.152 -0.2908  0.6209 -0.3308
 2625SOL    HW1 8275   4.878   5.889   6.172 -1.9174 -0.3916  1.0036
 2625SOL    HW2 8276   4.869   6.040   6.176  0.4797 -0.2089  0.9122
 2626SOL     OW 8277   1.271   1.385   3.614  0.1179  0.5499  0.4852
 2626SOL    HW1 8278   1.301   1.385   3.705 -1.7343  2.0848  1.1672
 2626SOL    HW2 8279   1.197   1.446   3.613  0.6609  1.3105 -2.2578
 2627SOL     OW 8280   0.190   5.624   4.604 -0.0680  0.6125 -0.3597
 2627SOL    HW1 8281   0.159   5.673   4.681 -0.7496 -0.4269  0.0406
 2627SOL    HW2 8282   0.202   5.691   4.537 -1.4156  1.2887  0.0325
 2628SOL     OW 8283   3.453   6.579   3.159 -0.2385 -0.4665 -0.0513
 2628SOL    HW1 8284   3.426   6.547   3.245  0.4854  0.7996  0.6748
 2628SOL    HW2 8285   3.469   6.673   3.172  0.6368 -0.4034 -1.3701
 2629SOL     OW 8286   4.613   4.737   5.797  0.2541 -0.4214  0.5190
 2629SOL    HW1 8287   4.594   4.649   5.765 -1.7178  0.0271  0.3613
 2629SOL    HW2 8288   4.679   4.723   5.865  0.4904 -1.9317  0.0382
 2630SOL     OW 8289   4.928   6.675   1.293  0.3280  0.3266 -0.3551
 2630SOL    HW1 8290   4.962   6.605   1.237  0.9992 -0.8195  1.4036
 2630SOL    HW2 8291   4.976   6.753   1.264  1.6397 -0.4976 -0.5282
 2631SOL     OW 8292   5.353   6.190   0.944 -0.3421  0.4827 -0.9166
 2631SOL    HW1 8293   5.266   6.204   0.907 -0.7177  0.3782 -0.0903
 2631SOL    HW2 8294   5.345   6.217   1.036  1.3186  3.6837 -1.5531
 2632SOL     OW 8295   2.046   3.981   4.685  0.1674 -0.2085 -0.1141
 2632SOL    HW1 8296   1.959   3.944   4.699  0.2909 -0.3358  0.3306
 2632SOL    HW2 8297   2.062   4.034   4.764  0.6964 -0.5906  0.0356
 2633SOL     OW 8298   6.091   4.062   4.688  0.8479 -0.6300 -0.2592
 2633SOL    HW1 8299   6.152   4.135   4.694 -0.2539  0.3449 -0.5784
 2633SOL    HW2 8300   6.094   4.035   4.596  2.3676 -2.0057  0.1528
 2634SOL     OW 8301   3.651   6.085   4.107 -0.1623 -0.3752 -0.2831
 2634SOL    HW1 8302   3.618   5.997   4.123 -0.3220  0.0566  2.0788
 2634SOL    HW2 8303   3.585   6.143   4.147  1.3875  0.6569  0.8968
 2635SOL     OW 8304   2.857   2.990   0.051  0.1728 -0.0776 -0.3331
 2635SOL    HW1 8305   2.816   2.992  -0.035 -0.9946  2.4278  0.1965
 2635SOL    HW2 8306   2.785   2.981   0.112  0.7823  0.3204  0.4607
 2636SOL     OW 8307   6.540   6.774   3.527  0.3294  0.1547 -0.0594
 2636SOL    HW1 8308   6.454   6.799   3.561  1.4230  2.0728  1.5644
 2636SOL    HW2 8309   6.544   6.813   3.440 -0.1491  0.7504  0.1773
 2637SOL     OW 8310   0.134   3.706   0.476 -0.0920 -0.3190 -0.0316
 2637SOL    HW1 8311   0.047   3.711   0.514 -1.0794  0.8305 -2.2366
 2637SOL    HW2 8312   0.155   3.797   0.452  1.9236 -0.4973  0.8096
 2638SOL     OW 8313   6.275   0.283   6.285  0.1249 -0.4553  0.5878
 2638SOL    HW1 8314   6.216   0.357   6.297  0.1829 -0.0993 -1.1122
 2638SOL    HW2 8315   6.306   0.291   6.195  1.7976 -1.3501  1.0466
 2639SOL     OW 8316   4.721   1.627   6.487  0.2025 -0.3391  0.2326
 2639SOL    HW1 8317   4.816   1.632   6.483  0.1711 -0.5718 -2.0535
 2639SOL    HW2 8318   4.691   1.706   6.442 -0.6409 -0.9875 -0.3744
 2640SOL     OW 8319   5.672   3.565   2.663  0.2748 -0.0716 -0.6027
 2640SOL    HW1 8320   5.744   3.605   2.614 -2.2622  1.9620 -2.9886
 2640SOL    HW2 8321   5.604   3.549   2.598 -3.1065  2.2457  1.9592
 2641SOL     OW 8322   6.089   3.567   3.832 -1.0331  0.0305 -0.5422
 2641SOL    HW1 8323   5.996   3.553   3.817 -1.3670 -1.8610  2.4529
 2641SOL    HW2 8324   6.092   3.631   3.903  0.0002  0.4745 -0.9601
 2642SOL     OW 8325   2.777   1.969   2.336  0.0298 -0.7506  0.6089
 2642SOL    HW1 8326   2.787   2.043   2.396 -0.6223 -0.5992  0.5401
 2642SOL    HW2 8327   2.867   1.941   2.318  0.4459  1.3639 -1.0258
 2643SOL     OW 8328   2.662   0.507   4.555 -0.0311  0.2509 -0.3546
 2643SOL    HW1 8329   2.619   0.442   4.612 -0.1399 -0.5450 -1.3034
 2643SOL    HW2 8330   2.682   0.580   4.612 -1.4162  0.0664  0.4188
 2644SOL     OW 8331   5.871   2.935   0.304 -0.0974  0.1611 -0.6138
 2644SOL    HW1 8332   5.882   2.924   0.210 -0.5862  1.6317 -0.8664
 2644SOL    HW2 8333   5.960   2.952   0.337 -0.0737  0.8056 -0.9912
 2645SOL     OW 8334   3.258   1.433   3.242  0.1593  0.4209  0.1474
 2645SOL    HW1 8335   3.271   1.527   3.248 -2.0413  0.7095  1.4073
 2645SOL    HW2 8336   3.188   1.414   3.304  1.3387 -2.2366  0.8511
 2646SOL     OW 8337   5.812   6.414   3.358  0.0809 -0.1445  0.3396
 2646SOL    HW1 8338   5.813   6.406   3.262  1.8917  2.8043 -0.0342
 2646SOL    HW2 8339   5.904   6.420   3.382 -0.3671 -0.1564  2.2064
 2647SOL     OW 8340   5.431   4.808   2.603  0.5914  0.2803  0.1874
 2647SOL    HW1 8341   5.379   4.795   2.682  2.3551 -0.0021  1.3673
 2647SOL    HW2 8342   5.495   4.737   2.605  0.1742 -0.2174 -1.9541
 2648SOL     OW 8343   2.403   0.718   1.583 -0.5977  0.4206  0.3654
 2648SOL    HW1 8344   2.428   0.728   1.491  0.4336  2.7886  0.8348
 2648SOL    HW2 8345   2.476   0.755   1.633 -1.5213  0.0190  2.1111
 2649SOL     OW 8346   0.873   6.628   0.142 -0.1856  0.3772 -0.0387
 2649SOL    HW1 8347   0.796   6.645   0.087  0.4960  0.5508 -0.9614
 2649SOL    HW2 8348   0.864   6.688   0.216 -0.4426  1.1044 -0.6448
 2650SOL     OW 8349   2.211   0.964   2.921 -0.2837 -0.1788 -0.0726
 2650SOL    HW1 8350   2.214   0.980   2.827 -0.5999  0.6273  0.0461
 2650SOL    HW2 8351   2.280   0.899   2.937  1.3744  1.4103 -0.5182
 2651SOL     OW 8352   2.999   3.028   4.757 -0.0762  0.6661  0.1377
 2651SOL    HW1 8353   2.958   3.006   4.673  1.2027 -0.4222 -0.2402
 2651SOL    HW2 8354   2.984   2.951   4.811  0.5165  0.7036  0.3566
 2652SOL     OW 8355   1.061   5.123   3.938  0.1459  0.2464  0.3260
 2652SOL    HW1 8356   1.026   5.083   4.018  1.0080  1.2731  1.2445
 2652SOL    HW2 8357   0.983   5.137   3.884 -0.6368  0.6556  1.4947
 2653SOL     OW 8358   4.121   4.495   1.188 -0.5951 -0.3527 -0.0018
 2653SOL    HW1 8359   4.151   4.561   1.250  0.7251 -1.3311  0.4356
 2653SOL    HW2 8360   4.082   4.545   1.117  0.7990  0.9280  0.0894
 2654SOL     OW 8361   2.166   0.454   3.531  0.3219 -0.0565  0.0592
 2654SOL    HW1 8362   2.079   0.431   3.565 -0.4913  0.5495 -1.4767
 2654SOL    HW2 8363   2.198   0.373   3.490 -0.1468  0.0818 -0.5943
 2655SOL     OW 8364   6.420   4.669   4.964 -0.5678  0.0037  0.1001
 2655SOL    HW1 8365   6.442   4.691   4.874  0.1102  0.1788  0.3003
 2655SOL    HW2 8366   6.345   4.724   4.986 -0.3829  0.3634 -0.1760
 2656SOL     OW 8367   1.654   2.917   5.216 -0.1330 -0.7538 -0.4565
 2656SOL    HW1 8368   1.600   2.977   5.165 -0.2002 -1.9789 -1.8963
 2656SOL    HW2 8369   1.724   2.890   5.156  0.4522 -1.3512  0.4658
 2657SOL     OW 8370   5.189   3.745   4.897  0.2224  0.4096  0.0624
 2657SOL    HW1 8371   5.277   3.782   4.904  0.3178  0.2041 -0.0479
 2657SOL    HW2 8372   5.191   3.694   4.816  0.1320  0.0406  0.2953
 2658SOL     OW 8373   5.267   0.784   0.027 -0.1092 -0.5090  0.1972
 2658SOL    HW1 8374   5.254   0.695  -0.004  0.6973 -0.6348  0.2082
 2658SOL    HW2 8375   5.279   0.836  -0.053  2.8218 -0.9668  0.2447
 2659SOL     OW 8376   5.426   3.842   5.628 -0.2105  0.2294 -0.2936
 2659SOL    HW1 8377   5.358   3.776   5.637  0.1603  0.0698  1.9271
 2659SOL    HW2 8378   5.407   3.906   5.697  2.6555 -0.5997  1.4171
 2660SOL     OW 8379   0.223   0.674   2.219 -0.0323 -0.4188 -0.0546
 2660SOL    HW1 8380   0.187   0.762   2.210  0.6940  0.0478  1.2754
 2660SOL    HW2 8381   0.268   0.675   2.304  0.7993 -1.7876 -0.4455
 2661SOL     OW 8382   0.917   5.632   0.408 -0.4916 -0.3198 -0.4208
 2661SOL    HW1 8383   0.891   5.722   0.425  1.4620  0.6522 -2.1620
 2661SOL    HW2 8384   0.950   5.600   0.492  0.0696  1.0558 -0.0960
 2662SOL     OW 8385   0.618   0.602   4.072 -0.4796 -0.1545  0.4838
 2662SOL    HW1 8386   0.630   0.602   3.977  0.0364  0.5453  0.5419
 2662SOL    HW2 8387   0.558   0.674   4.089 -1.0108 -0.6284  0.6450
 2663SOL     OW 8388   2.236   2.973   2.277 -0.5068 -0.1896  0.3944
 2663SOL    HW1 8389   2.216   2.908   2.345  1.2671 -0.1243  1.0242
 2663SOL    HW2 8390   2.158   3.029   2.274 -1.7348 -1.8190  0.4205
 2664SOL     OW 8391   2.270   4.182   5.838 -0.2548  0.0211 -0.4069
 2664SOL    HW1 8392   2.211   4.181   5.762 -0.6509 -0.5796 -0.0930
 2664SOL    HW2 8393   2.225   4.237   5.902 -0.0084  0.3718 -0.5324
 2665SOL     OW 8394   6.655   1.783   0.445  0.0316 -0.3582  0.4465
 2665SOL    HW1 8395   6.687   1.833   0.520 -0.7137 -0.6377  0.9629
 2665SOL    HW2 8396   6.672   1.839   0.369  0.7378 -0.0494  0.8218
 2666SOL     OW 8397   0.623   1.134   0.840  0.1839 -0.2459  0.1637
 2666SOL    HW1 8398   0.563   1.060   0.836  1.7349 -1.5607 -3.3639
 2666SOL    HW2 8399   0.710   1.095   0.851  1.0644  0.8990 -2.0240
 2667SOL     OW 8400   1.466   2.669   1.712 -0.2626 -0.6971 -1.4026
 2667SOL    HW1 8401   1.419   2.749   1.734  0.5042 -0.2994 -1.1903
 2667SOL    HW2 8402   1.455   2.612   1.788  1.1412  0.1092 -0.5614
 2668SOL     OW 8403   6.238   3.256   0.832  0.3096 -0.7868 -0.1974
 2668SOL    HW1 8404   6.236   3.248   0.736 -0.0696  0.7648 -0.3569
 2668SOL    HW2 8405   6.331   3.265   0.854  0.4945 -2.2539 -0.2801
 2669SOL     OW 8406   6.320   2.123   2.128 -0.5669 -0.0997  0.4158
 2669SOL    HW1 8407   6.389   2.113   2.193 -0.6391  1.2860  0.7412
 2669SOL    HW2 8408   6.268   2.043   2.134  1.1616 -1.3076 -0.0480
 2670SOL     OW 8409   6.292   5.513   0.307 -0.3659 -0.2332  0.7221
 2670SOL    HW1 8410   6.236   5.436   0.316 -1.0196  0.2723  1.0432
 2670SOL    HW2 8411   6.232   5.585   0.287  0.1636  0.3267  1.0996
 2671SOL     OW 8412   4.855   0.394   6.343  0.0151 -0.7617 -0.7983
 2671SOL    HW1 8413   4.868   0.374   6.250  0.1204  1.4884 -1.3414
 2671SOL    HW2 8414   4.900   0.478   6.355 -0.5073 -0.7240  1.1560
 2672SOL     OW 8415   4.484   2.292   6.336  0.3393  0.7349 -0.4083
 2672SOL    HW1 8416   4.465   2.282   6.429  0.1855 -0.3236 -0.5372
 2672SOL    HW2 8417   4.478   2.386   6.320  0.8196  0.9740  0.7396
 2673SOL     OW 8418   3.327   2.390   6.502  0.2363  0.3369 -0.0225
 2673SOL    HW1 8419   3.323   2.304   6.461  0.2650  0.1242  0.4161
 2673SOL    HW2 8420   3.337   2.451   6.429 -2.0504  0.1798 -0.5393
 2674SOL     OW 8421   2.730   3.118   1.332 -0.1961  0.1028 -0.8192
 2674SOL    HW1 8422   2.678   3.118   1.413 -0.4896 -0.8519 -0.9869
 2674SOL    HW2 8423   2.666   3.097   1.263 -0.1368  1.8302 -1.4473
 2675SOL     OW 8424   3.789   1.488   5.318  0.0974 -0.0563  0.5395
 2675SOL    HW1 8425   3.718   1.460   5.376 -0.1149  0.2872  0.4494
 2675SOL    HW2 8426   3.853   1.529   5.376  1.2098 -2.1571  0.9266
 2676SOL     OW 8427   1.551   2.797   0.670  0.2467 -0.3474 -0.2921
 2676SOL    HW1 8428   1.630   2.794   0.723  1.0543  0.3617 -1.4196
 2676SOL    HW2 8429   1.491   2.854   0.719  0.8690  0.0689 -0.0037
 2677SOL     OW 8430   1.089   5.606   1.766  0.0690 -0.7136 -0.1252
 2677SOL    HW1 8431   1.035   5.545   1.715  1.6019 -1.5885 -0.7559
 2677SOL    HW2 8432   1.145   5.550   1.819  1.2074  0.1362 -0.3828
 2678SOL     OW 8433   0.420   1.421   3.015 -0.0919 -0.8513 -0.3564
 2678SOL    HW1 8434   0.394   1.365   2.942  0.2718 -0.6972 -0.6080
 2678SOL    HW2 8435   0.358   1.494   3.012  1.5208  0.5420 -2.1835
 2679SOL     OW 8436   0.340   0.909   4.894 -0.1354 -0.3569 -0.1907
 2679SOL    HW1 8437   0.367   0.998   4.873  1.5385 -0.8773 -0.3999
 2679SOL    HW2 8438   0.373   0.856   4.821 -0.1085 -1.3025  0.4920
 2680SOL     OW 8439   3.172   2.520   1.174 -0.2037  0.1525 -0.0045
 2680SOL    HW1 8440   3.104   2.469   1.131 -0.9780  0.0089  1.3310
 2680SOL    HW2 8441   3.130   2.603   1.195 -0.0074  0.0527  0.8473
 2681SOL     OW 8442   1.617   1.807   4.976  0.1542  0.3242  0.3050
 2681SOL    HW1 8443   1.523   1.798   4.961  0.1475  1.0208 -0.1002
 2681SOL    HW2 8444   1.657   1.744   4.917 -0.0187  0.7727 -0.3035
 2682SOL     OW 8445   3.265   1.860   2.897  0.6374  0.1039  0.0590
 2682SOL    HW1 8446   3.357   1.867   2.921  1.2806  0.3129 -2.2597
 2682SOL    HW2 8447   3.240   1.948   2.870  0.4488 -0.4039 -1.5138
 2683SOL     OW 8448   2.042   4.670   6.709  0.0719  0.2737  0.2805
 2683SOL    HW1 8449   1.976   4.614   6.669 -0.3732  0.6566  0.4732
 2683SOL    HW2 8450   1.994   4.748   6.737  0.8313  1.1845 -0.8336
 2684SOL     OW 8451   3.157   2.317   2.996  0.1387 -0.1479 -0.3791
 2684SOL    HW1 8452   3.101   2.277   3.063  0.5618  1.6700  1.1402
 2684SOL    HW2 8453   3.245   2.286   3.016  0.1554 -0.3001 -0.6710
 2685SOL     OW 8454   6.569   3.740   2.517 -0.0348 -0.5036  0.5477
 2685SOL    HW1 8455   6.532   3.740   2.428 -3.3537  2.5491  1.6513
 2685SOL    HW2 8456   6.545   3.655   2.552 -3.1851 -0.0228 -0.0628
 2686SOL     OW 8457   5.515   6.750   4.151  0.3644 -0.0160  0.4284
 2686SOL    HW1 8458   5.511   6.795   4.236  1.5222 -0.5850  0.8033
 2686SOL    HW2 8459   5.443   6.687   4.154  0.6048 -0.2724  1.1464
 2687SOL     OW 8460   1.667   0.294   2.886  0.5522  0.3443 -0.1121
 2687SOL    HW1 8461   1.743   0.350   2.869  0.1694  1.3047  1.2137
 2687SOL    HW2 8462   1.703   0.219   2.935  0.5548  1.1655  1.1783
 2688SOL     OW 8463   3.859   5.370   0.798  0.8135  0.2536 -0.2000
 2688SOL    HW1 8464   3.838   5.397   0.887  0.5794 -1.7186  0.3789
 2688SOL    HW2 8465   3.780   5.388   0.748  1.3285  2.4699 -0.3232
 2689SOL     OW 8466   0.033   1.358   5.563  0.6348 -0.3514  0.5121
 2689SOL    HW1 8467   0.113   1.325   5.602  0.7643 -2.6683 -1.5051
 2689SOL    HW2 8468   0.062   1.401   5.483 -0.0364 -0.0484  0.4279
 2690SOL     OW 8469   4.714   5.567   1.759 -0.3395  0.2154 -0.7889
 2690SOL    HW1 8470   4.720   5.609   1.673 -0.3359 -0.3955 -1.0912
 2690SOL    HW2 8471   4.769   5.489   1.751  0.9910  0.9962  0.2784
 2691SOL     OW 8472   4.437   0.458   3.396 -0.5215  0.4794 -0.1638
 2691SOL    HW1 8473   4.459   0.423   3.310  0.4629  0.9762 -0.1287
 2691SOL    HW2 8474   4.366   0.402   3.428 -0.3486 -0.2025 -0.9593
 2692SOL     OW 8475   6.193   6.536   3.655 -0.0068 -0.3371 -0.6546
 2692SOL    HW1 8476   6.140   6.473   3.605 -0.2761 -0.2638 -0.4660
 2692SOL    HW2 8477   6.207   6.493   3.740  0.5494 -0.5123 -0.8304
 2693SOL     OW 8478   6.720   2.903   0.146  0.0502  0.7765 -0.8788
 2693SOL    HW1 8479   6.654   2.839   0.120  1.2198 -0.4291 -1.0077
 2693SOL    HW2 8480   6.684   2.945   0.224 -0.6205 -0.2444 -0.6168
 2694SOL     OW 8481   3.997   1.612   4.832 -0.2478 -0.4706 -0.4306
 2694SOL    HW1 8482   3.973   1.601   4.924  0.2663 -2.4727 -0.4891
 2694SOL    HW2 8483   3.915   1.631   4.788 -0.4375  0.9737  0.4815
 2695SOL     OW 8484   2.888   5.538   5.653 -0.4096  0.7059  0.0525
 2695SOL    HW1 8485   2.836   5.611   5.619 -1.6473 -0.1962 -0.0469
 2695SOL    HW2 8486   2.856   5.527   5.743  1.0719  1.4559  0.6950
 2696SOL     OW 8487   3.772   4.000   2.129  0.5943 -0.2143 -0.0916
 2696SOL    HW1 8488   3.844   4.060   2.148  0.0016  0.2107  0.9178
 2696SOL    HW2 8489   3.694   4.047   2.160  0.0042 -1.0741 -0.2586
 2697SOL     OW 8490   6.009   1.092   3.055 -0.1294 -0.1235 -0.1408
 2697SOL    HW1 8491   6.071   1.034   3.012  0.5628  0.8633 -0.5076
 2697SOL    HW2 8492   6.018   1.176   3.009 -0.2430  0.6162  1.1321
 2698SOL     OW 8493   4.490   3.277   6.594  0.4135  0.4634  0.1393
 2698SOL    HW1 8494   4.545   3.354   6.603  0.1974  0.7867 -1.2069
 2698SOL    HW2 8495   4.504   3.228   6.676  1.2993  1.4224  0.5792
 2699SOL     OW 8496   2.478   2.742   3.313 -1.0104  0.5580  0.2629
 2699SOL    HW1 8497   2.400   2.710   3.357 -1.2714  1.1923  0.2756
 2699SOL    HW2 8498   2.448   2.816   3.260 -0.4431  0.7437  0.1821
 2700SOL     OW 8499   1.313   2.674   5.899  0.3411 -0.1225 -0.2382
 2700SOL    HW1 8500   1.365   2.606   5.856  0.2753 -0.9015  0.8651
 2700SOL    HW2 8501   1.228   2.671   5.855  0.5458 -0.3087 -0.6252
 2701SOL     OW 8502   5.424   1.779   1.686 -0.1808  0.0247  0.2784
 2701SOL    HW1 8503   5.485   1.849   1.664 -1.1005  0.4009 -1.2217
 2701SOL    HW2 8504   5.478   1.711   1.727  1.3236  0.1756 -1.3280
 2702SOL     OW 8505   1.570   2.895   3.533 -0.3426 -0.2655 -0.0679
 2702SOL    HW1 8506   1.574   2.899   3.438 -0.2432 -0.2904 -0.0654
 2702SOL    HW2 8507   1.662   2.894   3.561 -0.3707 -0.2184  0.0294
 2703SOL     OW 8508   1.682   3.831   3.442  0.0251  0.2348 -0.1714
 2703SOL    HW1 8509   1.667   3.890   3.368  0.5334  0.2772 -0.2476
 2703SOL    HW2 8510   1.725   3.755   3.404 -1.6542 -0.7204 -0.2539
 2704SOL     OW 8511   2.331   5.379   4.596 -0.0997  0.0691  0.3253
 2704SOL    HW1 8512   2.237   5.395   4.587  0.1908  1.4986 -0.4913
 2704SOL    HW2 8513   2.359   5.438   4.666  0.5263  1.2194 -0.8561
 2705SOL     OW 8514   6.764   4.681   3.861 -0.5288 -0.4997 -0.1998
 2705SOL    HW1 8515   6.809   4.756   3.823  0.5519 -1.3979 -0.7890
 2705SOL    HW2 8516   6.680   4.715   3.891  0.2101  1.0684  0.1737
 2706SOL     OW 8517   2.854   4.002   1.213 -0.0722 -0.1941  0.1032
 2706SOL    HW1 8518   2.898   3.997   1.297  1.2750  1.9780 -0.3918
 2706SOL    HW2 8519   2.790   3.930   1.214  0.8431 -1.0415  2.3903
 2707SOL     OW 8520   0.328   5.581   3.167 -0.1982  0.1382 -0.6131
 2707SOL    HW1 8521   0.341   5.675   3.149  1.1125  0.6852  2.5574
 2707SOL    HW2 8522   0.399   5.538   3.121 -0.6683  0.6808 -1.9035
 2708SOL     OW 8523   3.696   4.294   4.743  0.2871 -0.1308  0.5168
 2708SOL    HW1 8524   3.759   4.329   4.806 -1.0616 -0.1840  1.9667
 2708SOL    HW2 8525   3.679   4.366   4.683  1.4917 -0.0285  0.2825
 2709SOL     OW 8526   5.142   0.974   4.517  0.0974  0.4680  0.0874
 2709SOL    HW1 8527   5.050   0.948   4.529 -0.0668  1.2043  0.4253
 2709SOL    HW2 8528   5.173   0.915   4.448 -0.5358 -0.0028  0.1858
 2710SOL     OW 8529   4.606   6.452   0.855 -0.4217 -0.5839  0.2135
 2710SOL    HW1 8530   4.550   6.476   0.929 -1.2185  0.5104 -0.6971
 2710SOL    HW2 8531   4.567   6.371   0.821 -0.8037 -0.4100  0.2342
 2711SOL     OW 8532   1.735   1.638   0.780 -0.8097  0.0724 -0.1988
 2711SOL    HW1 8533   1.705   1.692   0.853 -0.3432 -0.7077  0.5980
 2711SOL    HW2 8534   1.696   1.552   0.796  1.9024 -1.0671  1.0213
 2712SOL     OW 8535   2.213   3.971   6.338 -0.2904  0.2976  0.2546
 2712SOL    HW1 8536   2.301   3.939   6.318 -0.0748  0.8026  0.3659
 2712SOL    HW2 8537   2.154   3.907   6.299  0.0197  2.2541 -3.8932
 2713SOL     OW 8538   5.198   3.997   4.097 -0.0240 -0.1230 -0.1041
 2713SOL    HW1 8539   5.198   3.903   4.117  0.5996 -0.2289 -0.5938
 2713SOL    HW2 8540   5.284   4.014   4.060 -0.0156  0.7139  0.2721
 2714SOL     OW 8541   6.249   2.341   5.466 -0.3528  0.1168  0.4559
 2714SOL    HW1 8542   6.218   2.258   5.502 -2.9924  0.8987  0.1949
 2714SOL    HW2 8543   6.328   2.361   5.515 -0.5170 -1.7981  1.5753
 2715SOL     OW 8544   2.534   3.543   4.068 -0.1017 -0.3050  0.4588
 2715SOL    HW1 8545   2.591   3.481   4.113 -1.3971 -0.9918  1.2202
 2715SOL    HW2 8546   2.458   3.491   4.041 -1.6601  1.0706  1.9436
 2716SOL     OW 8547   4.649   3.228   4.749 -0.0159  0.8064  0.1091
 2716SOL    HW1 8548   4.604   3.169   4.810  0.7072 -0.7512 -0.8085
 2716SOL    HW2 8549   4.734   3.243   4.791  0.7074 -0.7290 -0.7218
 2717SOL     OW 8550   2.726   3.829   3.328 -0.1932 -0.3262  0.3587
 2717SOL    HW1 8551   2.662   3.817   3.398 -0.6154  1.8205  0.4185
 2717SOL    HW2 8552   2.684   3.791   3.251 -2.4589  2.5220 -0.0158
 2718SOL     OW 8553   1.941   6.353   3.363  0.3432  0.0348  0.2622
 2718SOL    HW1 8554   1.849   6.326   3.364  0.0308  0.8693 -1.7480
 2718SOL    HW2 8555   1.977   6.316   3.443 -1.6052 -0.7897  0.8241
 2719SOL     OW 8556   2.383   5.528   1.563 -0.1275  0.0294 -0.0508
 2719SOL    HW1 8557   2.417   5.614   1.538 -0.7022  0.6158  1.1440
 2719SOL    HW2 8558   2.424   5.468   1.501  0.8358  1.0700 -0.4560
 2720SOL     OW 8559   4.584   6.467   1.305  0.1427 -0.6786  0.1191
 2720SOL    HW1 8560   4.679   6.461   1.302  0.1415 -0.5302 -2.3927
 2720SOL    HW2 8561   4.554   6.377   1.296 -0.0116 -0.9162  2.4913
 2721SOL     OW 8562   3.771   0.772   6.524  0.3260  0.1398 -0.3754
 2721SOL    HW1 8563   3.716   0.740   6.453  1.2535 -3.1352  0.2242
 2721SOL    HW2 8564   3.859   0.775   6.487  0.3694  1.4988 -0.2093
 2722SOL     OW 8565   4.154   2.084   1.288 -0.3566  0.3495  0.2472
 2722SOL    HW1 8566   4.110   2.026   1.226 -0.0508 -0.1149  0.4534
 2722SOL    HW2 8567   4.085   2.111   1.349 -0.6004  0.5938 -0.1374
 2723SOL     OW 8568   0.118   3.445   3.947  0.1221  0.2182 -0.5766
 2723SOL    HW1 8569   0.030   3.451   3.912 -0.8166 -1.3240  1.3012
 2723SOL    HW2 8570   0.129   3.525   3.999 -0.3951  0.1595 -0.3744
 2724SOL     OW 8571   2.133   4.488   0.184  0.0861 -0.5553 -0.2643
 2724SOL    HW1 8572   2.189   4.452   0.115  0.3707 -0.1962 -0.2286
 2724SOL    HW2 8573   2.052   4.512   0.139  0.8935  1.2813 -0.8413
 2725SOL     OW 8574   0.268   1.053   2.849  0.6951  0.0714  0.1044
 2725SOL    HW1 8575   0.302   0.990   2.785  0.6915  0.6947 -0.5168
 2725SOL    HW2 8576   0.184   1.016   2.875  0.8455 -0.3561 -0.0056
 2726SOL     OW 8577   6.633   5.342   6.200  0.7525  1.3571 -0.4729
 2726SOL    HW1 8578   6.628   5.311   6.110  1.8627 -1.1860  0.2222
 2726SOL    HW2 8579   6.727   5.357   6.215  0.5898  1.7001  0.2536
 2727SOL     OW 8580   6.737   2.476   4.391 -0.3205 -0.1717 -0.1154
 2727SOL    HW1 8581   6.800   2.541   4.360  0.4682 -0.9292 -0.1431
 2727SOL    HW2 8582   6.712   2.427   4.312  0.1748 -0.8205  0.1303
 2728SOL     OW 8583   6.542   4.412   4.656 -0.0024  0.2908  0.5714
 2728SOL    HW1 8584   6.637   4.409   4.661  0.0955  0.1864 -0.9896
 2728SOL    HW2 8585   6.520   4.504   4.666  0.4514  0.6492 -1.4227
 2729SOL     OW 8586   6.670   3.714   2.886  0.1688 -0.2949  0.3082
 2729SOL    HW1 8587   6.696   3.630   2.923  0.3180 -0.3989 -0.0263
 2729SOL    HW2 8588   6.750   3.749   2.847  0.0540 -0.1063  0.2401
 2730SOL     OW 8589   5.468   1.454   0.297  0.3466 -0.2145  0.1751
 2730SOL    HW1 8590   5.561   1.460   0.277  0.6504  0.1979  1.6463
 2730SOL    HW2 8591   5.461   1.477   0.389 -1.1971 -0.4184  0.1373
 2731SOL     OW 8592   0.379   2.785   0.163  0.1823  0.2747  0.5424
 2731SOL    HW1 8593   0.431   2.764   0.241  1.9792  0.7560 -0.4523
 2731SOL    HW2 8594   0.441   2.775   0.090 -0.8363  1.8827 -0.6129
 2732SOL     OW 8595   4.431   6.223   2.365  0.6768 -0.6222 -0.4800
 2732SOL    HW1 8596   4.457   6.314   2.348  0.3033 -0.6114 -1.0227
 2732SOL    HW2 8597   4.501   6.170   2.327 -0.6009 -0.6231 -3.0072
 2733SOL     OW 8598   0.527   4.636   4.917  0.2502 -0.0770  0.2490
 2733SOL    HW1 8599   0.443   4.658   4.877  0.8468  0.2844 -0.8434
 2733SOL    HW2 8600   0.535   4.541   4.905 -0.8122 -0.4428  2.0128
 2734SOL     OW 8601   0.934   2.009   6.546 -0.3944  0.5126 -0.2265
 2734SOL    HW1 8602   0.997   1.961   6.493 -0.0166  2.2232 -1.4276
 2734SOL    HW2 8603   0.856   2.015   6.490 -0.7947  0.4219  0.3117
 2735SOL     OW 8604   6.063   1.003   1.338 -0.3520 -0.0003  0.3303
 2735SOL    HW1 8605   6.056   1.009   1.243  0.6189  1.5776  0.3294
 2735SOL    HW2 8606   6.005   1.072   1.371 -0.2831 -0.1918  0.8705
 2736SOL     OW 8607   0.194   1.816   6.071 -0.0777 -0.0871 -0.1650
 2736SOL    HW1 8608   0.229   1.812   6.160 -0.9509 -0.5462  0.1618
 2736SOL    HW2 8609   0.164   1.907   6.061 -1.4562 -0.4319  0.5948
 2737SOL     OW 8610   0.144   2.341   2.553  0.2572  0.1087  0.4192
 2737SOL    HW1 8611   0.119   2.378   2.637  1.0112 -0.9702  1.1354
 2737SOL    HW2 8612   0.192   2.261   2.574 -0.2835 -0.6567 -1.0591
 2738SOL     OW 8613   0.363   0.305   2.207  0.2821 -0.4858  0.1351
 2738SOL    HW1 8614   0.393   0.236   2.147  1.3143 -0.6168  0.7874
 2738SOL    HW2 8615   0.267   0.299   2.203  0.3081 -3.0904  1.4365
 2739SOL     OW 8616   3.689   2.439   0.139 -0.0242  0.1424 -0.1776
 2739SOL    HW1 8617   3.703   2.444   0.044 -0.0037  0.6471 -0.1491
 2739SOL    HW2 8618   3.613   2.382   0.149 -1.7353  2.2418 -0.6433
 2740SOL     OW 8619   4.900   4.722   4.312  0.1962 -0.7131  0.3758
 2740SOL    HW1 8620   4.842   4.789   4.275 -0.3914 -0.4464  1.7469
 2740SOL    HW2 8621   4.939   4.764   4.389  1.2158 -1.3478  0.2235
 2741SOL     OW 8622   5.741   0.536   1.079  0.1494 -0.0173 -0.0359
 2741SOL    HW1 8623   5.775   0.454   1.044 -3.3062 -1.1462 -1.1756
 2741SOL    HW2 8624   5.781   0.543   1.166  1.8656 -1.9738 -0.5800
 2742SOL     OW 8625   5.263   4.624   0.562  0.3765 -0.0280  0.0990
 2742SOL    HW1 8626   5.347   4.625   0.517  0.9611 -0.3733  1.1453
 2742SOL    HW2 8627   5.284   4.649   0.652 -0.6111 -0.2928  0.4153
 2743SOL     OW 8628   5.554   0.019   6.450 -0.0491 -0.2602 -0.5968
 2743SOL    HW1 8629   5.512   0.101   6.426 -1.3385 -0.1812  1.6781
 2743SOL    HW2 8630   5.647   0.041   6.458 -0.3293  0.9056 -0.3416
 2744SOL     OW 8631   6.632   2.284   4.220  0.0078 -0.2361  0.2409
 2744SOL    HW1 8632   6.681   2.221   4.273 -1.6822 -1.4056  0.5221
 2744SOL    HW2 8633   6.648   2.258   4.129  1.4723  0.6496  0.2239
 2745SOL     OW 8634   2.457   0.479   0.183 -0.1583 -0.0854  0.1343
 2745SOL    HW1 8635   2.412   0.551   0.225  0.6856  1.1325 -0.9512
 2745SOL    HW2 8636   2.515   0.443   0.251 -0.9426 -0.0821  0.8160
 2746SOL     OW 8637   1.589   5.012   4.888  0.0803 -0.1665  0.2870
 2746SOL    HW1 8638   1.569   4.957   4.812  1.1715  0.6960 -0.6525
 2746SOL    HW2 8639   1.641   4.955   4.945 -0.1731 -0.6151  0.0781
 2747SOL     OW 8640   0.003   5.997   0.791 -0.0570  0.1929 -0.3873
 2747SOL    HW1 8641  -0.076   5.987   0.737  0.5868 -1.9555 -1.0422
 2747SOL    HW2 8642   0.071   6.025   0.729  0.1312  0.1687 -0.1945
 2748SOL     OW 8643   5.012   1.351   4.830 -0.9538  0.4792  0.7930
 2748SOL    HW1 8644   4.966   1.285   4.779  1.0439 -1.2175  1.0777
 2748SOL    HW2 8645   4.942   1.407   4.865 -2.6816 -1.1628  0.1238
 2749SOL     OW 8646   4.123   4.723   6.423 -0.1853  0.6485  0.2148
 2749SOL    HW1 8647   4.120   4.817   6.440 -1.4292  1.0502 -1.8778
 2749SOL    HW2 8648   4.041   4.690   6.460 -0.0817  0.4942  0.3099
 2750SOL     OW 8649   0.212   2.150   0.705 -0.2883  0.0595 -0.2076
 2750SOL    HW1 8650   0.304   2.124   0.696 -0.8098 -1.8879 -0.2786
 2750SOL    HW2 8651   0.178   2.096   0.777 -1.2473  1.2039  0.2498
 2751SOL     OW 8652   1.239   3.964   1.014 -0.3239  0.2132 -0.1886
 2751SOL    HW1 8653   1.252   3.871   0.995  0.3742  0.5172 -1.3259
 2751SOL    HW2 8654   1.159   3.987   0.965 -0.3622  0.2640 -0.1021
 2752SOL     OW 8655   3.110   1.960   2.601 -0.1358  0.1127 -0.0364
 2752SOL    HW1 8656   3.098   2.030   2.537  0.0232 -0.2009 -0.4081
 2752SOL    HW2 8657   3.137   2.006   2.681  1.1970  0.3918 -0.6137
 2753SOL     OW 8658   4.303   0.468   2.810  0.0773 -0.0404  0.2913
 2753SOL    HW1 8659   4.263   0.531   2.749 -0.9229  0.4544  1.4178
 2753SOL    HW2 8660   4.356   0.412   2.754 -1.0174  0.2244 -1.0914
 2754SOL     OW 8661   0.604   6.084   5.896 -0.2022 -0.3974 -0.2054
 2754SOL    HW1 8662   0.655   6.153   5.938 -1.0083  0.2677 -0.3031
 2754SOL    HW2 8663   0.652   6.063   5.816 -0.5880  0.9243 -0.8046
 2755SOL     OW 8664   0.309   0.744   1.192 -0.5491  0.2277  0.1664
 2755SOL    HW1 8665   0.309   0.834   1.224  0.2184 -0.2305  1.5581
 2755SOL    HW2 8666   0.310   0.690   1.271 -0.1341 -0.9963 -0.6352
 2756SOL     OW 8667   3.444   6.732   1.352  0.5207  0.5361 -0.1284
 2756SOL    HW1 8668   3.378   6.793   1.319 -0.2757 -0.2669 -0.0373
 2756SOL    HW2 8669   3.410   6.645   1.331 -0.9848 -0.2200  4.2513
 2757SOL     OW 8670   0.688   6.680   6.760 -0.2166 -0.1500 -0.2348
 2757SOL    HW1 8671   0.713   6.623   6.688  2.6622  1.1514 -0.4157
 2757SOL    HW2 8672   0.662   6.762   6.718 -3.3997 -0.8772  0.0676
 2758SOL     OW 8673   4.198   0.641   5.408 -0.3841 -0.3437 -0.0200
 2758SOL    HW1 8674   4.269   0.603   5.357  0.6618 -1.9238  2.4364
 2758SOL    HW2 8675   4.142   0.684   5.343  1.8356 -0.5688 -2.2318
 2759SOL     OW 8676   1.972   1.804   2.542 -0.1551 -0.0244  0.3577
 2759SOL    HW1 8677   1.967   1.760   2.627  1.9658 -1.6936 -0.2985
 2759SOL    HW2 8678   1.980   1.733   2.479 -1.1048  1.2106 -1.2398
 2760SOL     OW 8679   5.190   4.024   1.660  0.4282  0.2670  0.5306
 2760SOL    HW1 8680   5.180   3.987   1.572  0.7620  0.8993  0.2095
 2760SOL    HW2 8681   5.114   4.080   1.671  0.4454  0.2781  0.5948
 2761SOL     OW 8682   1.436   3.367   5.733  0.1834 -0.3357  0.1920
 2761SOL    HW1 8683   1.419   3.273   5.740 -0.6818 -0.2049 -0.0700
 2761SOL    HW2 8684   1.531   3.375   5.744  0.4658 -1.3876 -1.2173
 2762SOL     OW 8685   0.507   6.484   5.312 -0.0272 -0.0589  0.4761
 2762SOL    HW1 8686   0.526   6.399   5.273  2.3884  0.5145  0.2675
 2762SOL    HW2 8687   0.415   6.478   5.339 -0.9489 -1.5461 -2.5228
 2763SOL     OW 8688   1.912   6.137   5.046  0.4284 -0.1523 -0.3955
 2763SOL    HW1 8689   1.889   6.224   5.078 -1.4686 -0.4176 -0.9319
 2763SOL    HW2 8690   2.008   6.134   5.052  0.5428  1.9632 -0.3843
 2764SOL     OW 8691   3.193   4.161   4.296 -0.6534 -0.5514 -0.0269
 2764SOL    HW1 8692   3.116   4.119   4.334  0.8219 -2.7863  0.7084
 2764SOL    HW2 8693   3.181   4.254   4.316 -2.1174 -1.0887  2.0058
 2765SOL     OW 8694   6.325   5.959   0.686  0.1534  0.7131 -0.2593
 2765SOL    HW1 8695   6.335   5.887   0.623 -1.4351  0.3176 -0.0985
 2765SOL    HW2 8696   6.393   5.944   0.751 -0.7405 -1.2307  0.2875
 2766SOL     OW 8697   6.202   2.246   2.413  0.2309  0.3161  0.3714
 2766SOL    HW1 8698   6.246   2.198   2.343 -0.6175 -1.5445  1.0318
 2766SOL    HW2 8699   6.273   2.286   2.464  0.9253  0.4017 -0.6368
 2767SOL     OW 8700   4.647   2.493   0.346 -0.5906 -0.1051 -0.0556
 2767SOL    HW1 8701   4.738   2.461   0.351 -0.7875 -0.5578  0.7515
 2767SOL    HW2 8702   4.648   2.575   0.394  0.0758  1.5760 -2.7396
 2768SOL     OW 8703   0.765   1.508   3.463 -0.6236 -0.2644 -0.0426
 2768SOL    HW1 8704   0.706   1.534   3.534  0.4353  1.5636  0.2251
 2768SOL    HW2 8705   0.735   1.559   3.387 -0.1452 -0.2510 -0.2240
 2769SOL     OW 8706   5.607   1.463   2.906  0.5753 -0.0889 -0.3548
 2769SOL    HW1 8707   5.619   1.504   2.821 -0.1617 -0.2899 -0.5646
 2769SOL    HW2 8708   5.532   1.404   2.894 -0.1838  0.6347  0.6952
 2770SOL     OW 8709   2.532   0.446   1.506 -0.1237  0.4024 -0.0093
 2770SOL    HW1 8710   2.483   0.490   1.576 -0.9298 -0.8932  0.2698
 2770SOL    HW2 8711   2.562   0.517   1.449 -0.2691  1.4091  1.1226
 2771SOL     OW 8712   1.101   5.729   2.681  0.1358  0.7190  0.5055
 2771SOL    HW1 8713   1.190   5.707   2.708  0.0978 -0.1963 -0.0672
 2771SOL    HW2 8714   1.060   5.645   2.663 -0.8474  1.1310  0.7417
 2772SOL     OW 8715   4.707   6.443   3.453 -0.3773  0.3647  0.1588
 2772SOL    HW1 8716   4.776   6.508   3.442  1.0172 -1.1096 -0.1964
 2772SOL    HW2 8717   4.746   6.361   3.422 -2.1575 -0.6054  0.3360
 2773SOL     OW 8718   5.544   2.413   4.348 -0.1285  0.1373  0.2058
 2773SOL    HW1 8719   5.582   2.471   4.414 -0.5896 -0.0682  0.6625
 2773SOL    HW2 8720   5.469   2.373   4.393  0.0775 -0.6668 -0.1641
 2774SOL     OW 8721   1.563   6.184   4.261  0.1735  0.1197 -0.2162
 2774SOL    HW1 8722   1.588   6.229   4.180  1.0391  0.5259  0.2600
 2774SOL    HW2 8723   1.550   6.255   4.324  0.6819 -0.2562  0.3134
 2775SOL     OW 8724   4.991   5.394   2.910  0.2930  0.2057 -0.2207
 2775SOL    HW1 8725   5.020   5.458   2.845 -1.6572  0.9861 -0.3802
 2775SOL    HW2 8726   4.898   5.381   2.891  0.8375 -3.6789 -1.0454
 2776SOL     OW 8727   5.952   4.564   4.966 -0.6394 -0.4697  0.0851
 2776SOL    HW1 8728   5.991   4.644   5.001 -3.5183  1.6950 -1.3146
 2776SOL    HW2 8729   6.022   4.525   4.913  0.9808  0.7939  1.1844
 2777SOL     OW 8730   5.785   3.183   4.109  0.4692  0.0108  0.1091
 2777SOL    HW1 8731   5.693   3.195   4.134  0.5741 -0.4663  0.7280
 2777SOL    HW2 8732   5.834   3.237   4.171  0.4626  2.9924 -2.2155
 2778SOL     OW 8733   5.021   4.642   1.045  0.4678 -0.1461  0.1012
 2778SOL    HW1 8734   5.077   4.652   1.122 -0.1365 -2.7523  0.9894
 2778SOL    HW2 8735   5.071   4.587   0.985  0.0562  0.0080 -0.3895
 2779SOL     OW 8736   5.132   4.131   6.517  0.0206  0.3752 -0.0532
 2779SOL    HW1 8737   5.123   4.068   6.588  0.1961 -1.6776 -1.7651
 2779SOL    HW2 8738   5.059   4.192   6.530  0.0515  0.0714  1.8524
 2780SOL     OW 8739   5.999   3.882   3.826  0.1622 -0.2380 -0.3860
 2780SOL    HW1 8740   5.980   3.854   3.736  0.7553 -1.6227 -0.1020
 2780SOL    HW2 8741   6.079   3.934   3.818  0.9915 -1.4755 -0.5243
 2781SOL     OW 8742   1.877   2.482   2.663 -0.1798 -0.1401  0.3062
 2781SOL    HW1 8743   1.782   2.484   2.671 -0.4210 -2.1207 -1.0449
 2781SOL    HW2 8744   1.893   2.433   2.582  1.9989 -0.9229  1.1170
 2782SOL     OW 8745   6.254   0.078   5.682 -0.0086 -0.1102  0.1477
 2782SOL    HW1 8746   6.167   0.080   5.721 -0.2532 -0.5359 -0.3699
 2782SOL    HW2 8747   6.242   0.035   5.598  0.6075  0.3384 -0.1775
 2783SOL     OW 8748   6.001   5.009   2.391  0.3688 -0.2321  0.0990
 2783SOL    HW1 8749   5.981   5.088   2.442 -1.2383 -1.7330  1.9383
 2783SOL    HW2 8750   6.093   5.018   2.367  0.0411  2.5327 -0.4429
 2784SOL     OW 8751   3.759   4.311   5.703  0.1746  0.0889  0.2126
 2784SOL    HW1 8752   3.669   4.309   5.672  0.1913 -1.1424  0.1917
 2784SOL    HW2 8753   3.779   4.404   5.713 -1.6582  0.3616  1.8985
 2785SOL     OW 8754   0.609   2.283   4.934 -0.1032  0.5070 -0.1095
 2785SOL    HW1 8755   0.569   2.201   4.962  1.8197 -0.3855  0.1712
 2785SOL    HW2 8756   0.583   2.347   5.000 -0.9415 -0.0599  0.1154
 2786SOL     OW 8757   3.568   5.404   3.108  0.0713 -0.4551 -0.2410
 2786SOL    HW1 8758   3.648   5.445   3.075  0.2260 -1.0362 -0.6046
 2786SOL    HW2 8759   3.597   5.350   3.181 -0.4936  2.1399  2.0423
 2787SOL     OW 8760   2.269   0.181   6.389  0.3422  0.2478  0.3028
 2787SOL    HW1 8761   2.356   0.148   6.367 -0.4608 -2.0457  0.3172
 2787SOL    HW2 8762   2.245   0.135   6.469 -1.4059 -0.1655 -0.4191
 2788SOL     OW 8763   0.574   3.071   1.905 -0.1225 -0.2760  0.3737
 2788SOL    HW1 8764   0.635   3.131   1.948 -1.0001  1.0140 -0.1314
 2788SOL    HW2 8765   0.504   3.058   1.969 -0.4268  0.0235  0.0996
 2789SOL     OW 8766   4.411   3.748   1.136 -0.0527 -0.3047  0.0586
 2789SOL    HW1 8767   4.471   3.727   1.207 -0.2593 -1.9891 -0.2141
 2789SOL    HW2 8768   4.325   3.752   1.177 -0.0213 -0.0490  0.1001
 2790SOL     OW 8769   5.377   2.245   1.423 -0.4304  0.2058  0.4762
 2790SOL    HW1 8770   5.349   2.170   1.370 -0.5320 -0.9827  2.1398
 2790SOL    HW2 8771   5.429   2.299   1.363 -2.2140  0.0072 -1.3952
 2791SOL     OW 8772   2.868   2.097   2.950 -0.3635  0.0219  0.0292
 2791SOL    HW1 8773   2.820   2.164   2.998 -1.1819 -2.3205  2.7431
 2791SOL    HW2 8774   2.804   2.058   2.891 -1.3258 -1.5271  1.9709
 2792SOL     OW 8775   0.978   6.294   4.107 -0.1169 -0.0638  0.6478
 2792SOL    HW1 8776   1.030   6.324   4.032 -0.4566 -1.0205  0.0281
 2792SOL    HW2 8777   1.018   6.339   4.182  0.2348  0.8902 -0.0919
 2793SOL     OW 8778   3.602   2.543   1.490  0.2085 -0.4474  0.1632
 2793SOL    HW1 8779   3.634   2.616   1.543  0.6122  0.0726 -0.7610
 2793SOL    HW2 8780   3.507   2.547   1.499  0.2240  0.2147  0.1073
 2794SOL     OW 8781   0.847   3.171   5.403 -0.6742 -0.2975  0.3399
 2794SOL    HW1 8782   0.926   3.124   5.379 -1.4406 -1.6055  0.2538
 2794SOL    HW2 8783   0.802   3.186   5.319  0.0528  1.5687  0.2440
 2795SOL     OW 8784   4.039   6.107   2.606  0.6738 -0.3137  0.2469
 2795SOL    HW1 8785   4.033   6.161   2.527 -1.3791 -2.3170 -1.0728
 2795SOL    HW2 8786   4.119   6.055   2.594  0.2807 -0.7347 -0.6231
 2796SOL     OW 8787   5.532   3.335   0.803 -0.0787  0.6727 -0.3015
 2796SOL    HW1 8788   5.625   3.312   0.798 -0.1388 -0.0452  1.3231
 2796SOL    HW2 8789   5.531   3.427   0.830  0.1859  0.4528  0.4990
 2797SOL     OW 8790   4.621   1.037   6.736  0.2617  0.4512  0.7092
 2797SOL    HW1 8791   4.638   0.964   6.678 -1.3856  0.1927  0.4952
 2797SOL    HW2 8792   4.698   1.094   6.727  1.8288 -1.4710  1.2930
 2798SOL     OW 8793   2.055   5.582   5.434  0.4610 -0.1091 -0.8641
 2798SOL    HW1 8794   2.016   5.552   5.516  1.4933 -1.1172 -0.7208
 2798SOL    HW2 8795   1.982   5.584   5.372 -0.1648 -0.1570 -0.1477
 2799SOL     OW 8796   1.482   2.288   6.034  0.1707 -0.3451 -0.4376
 2799SOL    HW1 8797   1.539   2.211   6.031  0.3689 -0.2324  0.2229
 2799SOL    HW2 8798   1.536   2.360   6.001  0.3690 -0.2692  0.0391
 2800SOL     OW 8799   5.423   2.374   0.170 -0.0862  0.2449  0.3868
 2800SOL    HW1 8800   5.360   2.398   0.238 -3.3439  1.5330 -2.7884
 2800SOL    HW2 8801   5.410   2.280   0.156 -1.3651  0.5091 -0.2582
 2801SOL     OW 8802   3.110   3.748   3.995 -0.7089  0.1157 -0.4396
 2801SOL    HW1 8803   3.162   3.819   4.032 -0.3380 -0.0209 -0.6917
 2801SOL    HW2 8804   3.034   3.792   3.956 -1.5609  0.1835  1.2298
 2802SOL     OW 8805   5.477   0.865   2.117  0.2344 -0.0597  0.0861
 2802SOL    HW1 8806   5.388   0.888   2.142 -0.2491 -1.5209 -0.1602
 2802SOL    HW2 8807   5.522   0.948   2.105 -1.5032  0.7471 -1.1819
 2803SOL     OW 8808   5.134   5.888   0.862  0.0258 -0.0800 -0.1242
 2803SOL    HW1 8809   5.220   5.872   0.823  0.1768 -1.2610  0.6553
 2803SOL    HW2 8810   5.074   5.834   0.810  0.0960 -0.9532  0.6707
 2804SOL     OW 8811   4.911   4.768   0.816 -0.4084 -0.6901  0.0439
 2804SOL    HW1 8812   4.846   4.827   0.854  1.4744  1.0816  0.7558
 2804SOL    HW2 8813   4.940   4.714   0.889  1.0870  0.6920  0.5507
 2805SOL     OW 8814   4.877   2.907   2.831  0.3061  0.3716  0.1757
 2805SOL    HW1 8815   4.904   2.890   2.741 -1.8919 -1.5074 -0.2192
 2805SOL    HW2 8816   4.916   2.836   2.882 -1.5478 -0.8711 -0.0047
 2806SOL     OW 8817   2.954   3.790   1.738  0.1577 -0.4160  0.3554
 2806SOL    HW1 8818   2.981   3.720   1.797 -0.0740 -3.1495 -2.5319
 2806SOL    HW2 8819   2.867   3.764   1.708 -0.6926  2.0506  0.4337
 2807SOL     OW 8820   2.199   3.324   5.708  0.4069  0.2159 -0.3743
 2807SOL    HW1 8821   2.248   3.280   5.639  0.2315 -1.1930  0.3614
 2807SOL    HW2 8822   2.212   3.270   5.785 -1.8202  0.1146 -0.0037
 2808SOL     OW 8823   6.546   6.165   1.060 -0.0805 -0.0491 -0.2308
 2808SOL    HW1 8824   6.471   6.220   1.086  0.2644  0.6436 -0.6530
 2808SOL    HW2 8825   6.609   6.227   1.023  1.0390 -0.5236  0.8285
 2809SOL     OW 8826   6.589   6.044   2.165 -0.2622 -0.3299  0.2118
 2809SOL    HW1 8827   6.680   6.059   2.192 -0.6272  1.3461  0.5893
 2809SOL    HW2 8828   6.572   6.111   2.100 -1.0025 -1.1312 -0.4377
 2810SOL     OW 8829   4.378   2.641   0.168  0.0236 -0.0854 -0.2246
 2810SOL    HW1 8830   4.368   2.572   0.234 -2.4597  0.0613 -0.3525
 2810SOL    HW2 8831   4.347   2.720   0.211  2.2323  0.9054 -0.2973
 2811SOL     OW 8832   0.591   2.465   1.595 -0.0478 -0.1576 -0.1733
 2811SOL    HW1 8833   0.625   2.554   1.600  0.9937 -0.5845  0.7070
 2811SOL    HW2 8834   0.654   2.412   1.643 -0.0098 -1.5655 -1.6815
 2812SOL     OW 8835   5.311   2.019   1.290 -0.5009 -0.3551 -0.0313
 2812SOL    HW1 8836   5.365   1.941   1.284  0.4432  0.2698  0.0464
 2812SOL    HW2 8837   5.262   2.021   1.207  1.1710  0.1717 -1.0610
 2813SOL     OW 8838   6.201   0.231   3.404  0.2501  0.3775  0.0363
 2813SOL    HW1 8839   6.208   0.312   3.454 -0.4891 -0.2324  1.1708
 2813SOL    HW2 8840   6.128   0.184   3.444  1.0919 -1.1480 -0.1428
 2814SOL     OW 8841   3.042   3.624   0.697  0.0400 -0.3347 -0.4779
 2814SOL    HW1 8842   3.006   3.546   0.655  0.5683 -0.1441 -1.2961
 2814SOL    HW2 8843   2.977   3.646   0.765 -0.0814 -1.5143 -0.1796
 2815SOL     OW 8844   1.045   0.927   5.041  0.5618 -0.3022 -0.1502
 2815SOL    HW1 8845   1.119   0.897   5.093  0.3793  1.0168  0.9443
 2815SOL    HW2 8846   1.063   1.020   5.026 -1.0876  0.1568  0.5477
 2816SOL     OW 8847   1.486   6.593   6.577 -0.2995 -0.2539 -0.2390
 2816SOL    HW1 8848   1.432   6.537   6.521 -1.5792  0.6684  0.0152
 2816SOL    HW2 8849   1.425   6.659   6.610  0.7593  0.1338  1.0145
 2817SOL     OW 8850   6.513   3.059   3.758  0.2539  0.0567 -0.1874
 2817SOL    HW1 8851   6.540   2.968   3.750  1.1721  0.3172 -0.0912
 2817SOL    HW2 8852   6.520   3.094   3.669  0.2024  0.1195 -0.1667
 2818SOL     OW 8853   4.871   2.424   6.213  0.4861 -0.3585 -0.6096
 2818SOL    HW1 8854   4.953   2.416   6.262  0.4972 -2.0251 -0.8501
 2818SOL    HW2 8855   4.898   2.433   6.121  0.4070 -0.5559 -0.6527
 2819SOL     OW 8856   2.153   6.736   5.333 -0.0968  0.0706  0.0047
 2819SOL    HW1 8857   2.199   6.787   5.400 -0.3895 -1.2216  1.2336
 2819SOL    HW2 8858   2.217   6.670   5.305 -0.5629 -0.5419  0.3503
 2820SOL     OW 8859   5.652   6.614   1.130 -0.1955  0.4050  0.3431
 2820SOL    HW1 8860   5.663   6.677   1.059 -1.0756  0.6915  0.4481
 2820SOL    HW2 8861   5.689   6.658   1.207  0.8010  0.0742  0.0571
 2821SOL     OW 8862   0.052   1.022   1.781 -0.0749  0.2464 -0.3976
 2821SOL    HW1 8863   0.057   1.111   1.814  0.0204  0.2572 -0.4404
 2821SOL    HW2 8864   0.136   1.008   1.736  0.2013 -0.1118  0.2227
 2822SOL     OW 8865   6.023   2.817   0.811  0.6212  0.3646  0.1007
 2822SOL    HW1 8866   6.106   2.777   0.840 -0.4901 -0.4636  2.4028
 2822SOL    HW2 8867   5.961   2.794   0.880 -1.6700  0.5624 -1.8033
 2823SOL     OW 8868   5.336   3.039   2.159  0.0631  0.1316  0.3705
 2823SOL    HW1 8869   5.381   3.092   2.225  3.0758 -3.0031  1.1039
 2823SOL    HW2 8870   5.385   3.055   2.079  0.7509 -1.1627  0.5120
 2824SOL     OW 8871   3.497   1.772   3.014 -0.2404 -0.4146  0.0795
 2824SOL    HW1 8872   3.543   1.781   2.931 -1.4250 -0.1153 -0.5742
 2824SOL    HW2 8873   3.473   1.680   3.019  0.0480 -0.4806  0.1969
 2825SOL     OW 8874   4.439   1.141   2.096  0.1109 -0.9320  0.1351
 2825SOL    HW1 8875   4.464   1.071   2.156 -0.1777 -1.5414 -0.4456
 2825SOL    HW2 8876   4.360   1.179   2.134  1.0782  0.0914  1.2453
 2826SOL     OW 8877   4.367   1.200   0.331 -0.3288 -0.1089 -0.2782
 2826SOL    HW1 8878   4.456   1.198   0.366 -0.3150 -0.5042 -0.3353
 2826SOL    HW2 8879   4.370   1.145   0.253 -0.6777 -0.3224 -0.1460
 2827SOL     OW 8880   5.487   0.881   0.829  0.1337  0.0315 -0.3354
 2827SOL    HW1 8881   5.430   0.864   0.754  0.6885  0.9696 -0.9772
 2827SOL    HW2 8882   5.500   0.794   0.868 -1.2454 -0.2873 -0.5105
 2828SOL     OW 8883   0.395   5.336   1.281 -0.4518 -0.5335 -0.2288
 2828SOL    HW1 8884   0.306   5.318   1.313 -1.3754 -0.0355 -2.2878
 2828SOL    HW2 8885   0.395   5.302   1.191  1.0522  0.5533 -0.6783
 2829SOL     OW 8886   3.474   1.309   4.087 -0.1036 -0.2299  0.3335
 2829SOL    HW1 8887   3.542   1.245   4.108 -0.8528 -0.6021  1.7958
 2829SOL    HW2 8888   3.466   1.362   4.166 -0.2373  0.9937 -0.4854
 2830SOL     OW 8889   3.538   2.785   1.746 -0.4220  0.5568 -0.3530
 2830SOL    HW1 8890   3.504   2.784   1.656  1.6093 -0.0696 -1.1722
 2830SOL    HW2 8891   3.607   2.851   1.745  0.8327 -0.7057  0.2447
 2831SOL     OW 8892   6.468   0.668   5.117  0.0320  0.0515  0.0719
 2831SOL    HW1 8893   6.429   0.631   5.038 -1.7007 -0.1251  0.9752
 2831SOL    HW2 8894   6.511   0.748   5.086 -0.3631 -0.1615 -1.0990
 2832SOL     OW 8895   0.298   0.052   3.537  0.4510  0.2582 -0.3900
 2832SOL    HW1 8896   0.260   0.120   3.592  0.3910 -0.2320  0.1785
 2832SOL    HW2 8897   0.382   0.031   3.577  0.6024  0.2006 -0.7288
 2833SOL     OW 8898   0.293   4.405   3.714  0.0478 -0.2078 -0.0506
 2833SOL    HW1 8899   0.269   4.492   3.682 -0.7857 -1.0899 -1.9693
 2833SOL    HW2 8900   0.214   4.352   3.701  1.0659 -1.6626 -0.5349
 2834SOL     OW 8901   4.472   0.071   5.471 -1.0771 -0.1303 -0.4728
 2834SOL    HW1 8902   4.403   0.024   5.519 -0.7875 -1.3067 -1.1727
 2834SOL    HW2 8903   4.550   0.063   5.526 -0.9287 -0.8393 -0.7746
 2835SOL     OW 8904   0.628   1.453   0.682 -0.3846 -0.1572 -0.4264
 2835SOL    HW1 8905   0.621   1.517   0.753  2.8277  0.2761 -0.3340
 2835SOL    HW2 8906   0.592   1.498   0.605  1.5386  1.8009 -0.3025
 2836SOL     OW 8907   3.658   4.614   3.176  0.1925  0.4399  0.7300
 2836SOL    HW1 8908   3.579   4.566   3.152 -0.5170  0.5877  2.5918
 2836SOL    HW2 8909   3.715   4.605   3.100 -1.1060 -0.7541 -0.1692
 2837SOL     OW 8910   5.466   0.699   5.703 -0.1786 -0.1962 -0.3337
 2837SOL    HW1 8911   5.532   0.671   5.640  1.8301  1.1115  1.0812
 2837SOL    HW2 8912   5.465   0.795   5.695 -2.1876 -0.1713 -0.5248
 2838SOL     OW 8913   2.990   5.197   1.828  0.0273  0.0473 -0.6531
 2838SOL    HW1 8914   3.000   5.147   1.909  1.7251  0.3912 -0.6230
 2838SOL    HW2 8915   2.911   5.250   1.842 -0.6441 -1.0966  0.1058
 2839SOL     OW 8916   0.964   5.194   0.274  0.0603 -0.0288  0.4511
 2839SOL    HW1 8917   0.900   5.242   0.221  0.0244  0.4411  0.9171
 2839SOL    HW2 8918   0.992   5.122   0.218  1.6221  1.6578 -1.0379
 2840SOL     OW 8919   1.909   1.138   4.787 -0.4337  0.4652 -0.0518
 2840SOL    HW1 8920   1.902   1.165   4.879 -1.1157  2.1168 -0.5470
 2840SOL    HW2 8921   1.819   1.139   4.755 -0.1303  0.7202 -0.9332
 2841SOL     OW 8922   5.051   4.755   0.435 -0.0695 -0.1956 -0.0879
 2841SOL    HW1 8923   5.041   4.684   0.371  1.7633 -1.0518  0.4840
 2841SOL    HW2 8924   5.107   4.717   0.504  0.1834  1.5173  0.7061
 2842SOL     OW 8925   3.214   0.580   0.872 -0.2633 -0.7524 -0.2319
 2842SOL    HW1 8926   3.228   0.662   0.920 -1.3007 -0.3984 -0.5263
 2842SOL    HW2 8927   3.295   0.569   0.821 -0.4716  0.5621 -0.8852
 2843SOL     OW 8928   2.882   1.757   4.663  0.1146 -0.1230  0.6071
 2843SOL    HW1 8929   2.916   1.712   4.586 -2.8965 -1.9819  0.1806
 2843SOL    HW2 8930   2.868   1.847   4.634  0.8174 -0.3142 -0.3809
 2844SOL     OW 8931   0.831   2.999   2.243 -0.5156  0.1546 -0.5381
 2844SOL    HW1 8932   0.823   2.935   2.314  2.4951 -0.0840 -0.2934
 2844SOL    HW2 8933   0.863   2.949   2.169  1.7217  1.2800 -0.4001
 2845SOL     OW 8934   0.411   6.082   5.001 -0.1084  0.0018  0.3726
 2845SOL    HW1 8935   0.491   6.035   5.023 -0.4034 -0.2232  1.0046
 2845SOL    HW2 8936   0.401   6.147   5.071 -0.5794 -0.1010  0.4063
 2846SOL     OW 8937   5.904   4.829   1.430  0.5897 -0.5062 -0.0970
 2846SOL    HW1 8938   5.883   4.776   1.353  1.0490  1.9046 -2.0224
 2846SOL    HW2 8939   5.819   4.857   1.464  0.3001 -3.0210  1.4647
 2847SOL     OW 8940   4.801   0.709   5.375  0.1357  0.3110  0.1122
 2847SOL    HW1 8941   4.878   0.652   5.371  0.8932  1.3513 -0.5792
 2847SOL    HW2 8942   4.810   0.756   5.458 -0.1821 -0.1514  0.4093
 2848SOL     OW 8943   0.451   1.784   2.515  0.2084  0.1612  0.3117
 2848SOL    HW1 8944   0.415   1.709   2.564 -0.4420 -0.7625 -1.4859
 2848SOL    HW2 8945   0.432   1.860   2.571  0.4569 -0.9420  1.9635
 2849SOL     OW 8946   0.523   1.756   3.069  0.0415  0.4864 -0.7897
 2849SOL    HW1 8947   0.495   1.840   3.107 -0.5953 -0.0381 -0.0727
 2849SOL    HW2 8948   0.446   1.725   3.021  0.4482  0.5494 -1.5074
 2850SOL     OW 8949   0.951   3.972   2.328 -0.0393  0.0632 -0.2177
 2850SOL    HW1 8950   0.887   3.961   2.399  0.1325 -1.1659 -0.2374
 2850SOL    HW2 8951   1.034   3.988   2.373 -0.1612  0.5772 -0.1715
 2851SOL     OW 8952   5.943   6.734   6.074  0.3131  0.7208  0.1201
 2851SOL    HW1 8953   6.025   6.687   6.058 -0.0050  0.6626 -1.5467
 2851SOL    HW2 8954   5.963   6.825   6.051 -0.2719  0.5703 -1.0762
 2852SOL     OW 8955   0.156   2.822   2.893  0.1226 -0.0128  0.5399
 2852SOL    HW1 8956   0.177   2.811   2.985 -1.3046  1.2839  1.0816
 2852SOL    HW2 8957   0.061   2.836   2.892 -0.1856 -1.8151 -1.3272
 2853SOL     OW 8958   4.328   5.361   0.674  0.3783 -0.0173  0.4595
 2853SOL    HW1 8959   4.247   5.311   0.682  0.2057  0.1480 -0.2338
 2853SOL    HW2 8960   4.386   5.322   0.739  0.0391 -0.7231  0.3505
 2854SOL     OW 8961   3.366   4.103   5.733  0.5549  0.2187  0.4811
 2854SOL    HW1 8962   3.355   4.154   5.812 -0.6515  0.8427 -0.0540
 2854SOL    HW2 8963   3.294   4.039   5.735  0.9419 -0.2374  0.2397
 2855SOL     OW 8964   1.533   3.156   3.186 -0.5736 -0.1265 -0.2642
 2855SOL    HW1 8965   1.613   3.183   3.232 -0.6973  1.3918 -0.8626
 2855SOL    HW2 8966   1.554   3.167   3.094 -1.2085 -0.5351 -0.4636
 2856SOL     OW 8967   5.853   0.209   3.744  0.2950  0.2001 -0.5051
 2856SOL    HW1 8968   5.807   0.127   3.760 -1.4282  0.7296 -2.4323
 2856SOL    HW2 8969   5.788   0.268   3.706  1.7447  2.1316 -0.2046
 2857SOL     OW 8970   3.008   4.891   2.719  1.1867 -0.1047 -0.1242
 2857SOL    HW1 8971   3.088   4.939   2.698  2.3842 -2.4303 -1.3611
 2857SOL    HW2 8972   2.938   4.955   2.707  2.8036  1.9572  0.8006
 2858SOL     OW 8973   5.870   0.857   2.618 -0.3300 -0.3822 -0.1122
 2858SOL    HW1 8974   5.787   0.904   2.622  0.5859  1.3406  3.8187
 2858SOL    HW2 8975   5.853   0.775   2.664 -0.3709 -1.0433 -1.2902
 2859SOL     OW 8976   4.165   6.487   0.937  0.5489  0.6008 -0.3265
 2859SOL    HW1 8977   4.222   6.501   0.862 -0.9069  0.4130 -1.5112
 2859SOL    HW2 8978   4.140   6.575   0.966  0.0746  0.6553 -0.8929
 2860SOL     OW 8979   5.757   1.343   1.559  0.0261 -0.2170 -0.1304
 2860SOL    HW1 8980   5.736   1.338   1.652  1.8648 -1.2522  0.2894
 2860SOL    HW2 8981   5.731   1.258   1.524 -0.2385  0.0041 -0.4812
 2861SOL     OW 8982   1.776   2.777   0.806 -0.0851 -0.7468 -0.6289
 2861SOL    HW1 8983   1.762   2.729   0.888  0.8531 -1.7606 -1.0314
 2861SOL    HW2 8984   1.861   2.746   0.775 -0.3424 -0.2412 -1.8981
 2862SOL     OW 8985   1.472   1.954   1.615  0.4183  0.2211  0.8730
 2862SOL    HW1 8986   1.553   1.979   1.660  1.8111  0.0413 -1.3409
 2862SOL    HW2 8987   1.439   2.037   1.579  0.9542 -0.0249 -0.2213
 2863SOL     OW 8988   6.100   4.832   4.698 -0.3241 -0.7641  0.2347
 2863SOL    HW1 8989   6.095   4.836   4.793  0.1862 -0.8807  0.2689
 2863SOL    HW2 8990   6.041   4.902   4.668  0.8500  0.4520  0.6654
 2864SOL     OW 8991   2.948   3.157   0.482  0.2789 -0.1355 -0.1247
 2864SOL    HW1 8992   2.988   3.095   0.420  0.9116 -1.2265  1.3289
 2864SOL    HW2 8993   2.865   3.181   0.441 -1.3972 -4.1832  0.4666
 2865SOL     OW 8994   3.217   0.530   6.127  0.0952 -0.1066 -0.2078
 2865SOL    HW1 8995   3.181   0.619   6.122  2.0848  0.8215  1.0916
 2865SOL    HW2 8996   3.181   0.494   6.208  1.4263  0.5498  0.7018
 2866SOL     OW 8997   1.552   5.585   2.282 -0.3324 -0.2161 -0.0679
 2866SOL    HW1 8998   1.524   5.583   2.191  0.3479 -0.7386 -0.2795
 2866SOL    HW2 8999   1.541   5.494   2.312 -0.4332 -0.0738  0.3316
 2867SOL     OW 9000   6.116   3.902   2.409 -0.0133  0.5358 -0.3612
 2867SOL    HW1 9001   6.077   3.893   2.322 -1.3766  1.2444  0.1591
 2867SOL    HW2 9002   6.187   3.965   2.397 -2.0035  2.8917 -0.4419
 2868SOL     OW 9003   5.520   0.556   3.043  0.3731 -0.0242  0.1732
 2868SOL    HW1 9004   5.433   0.595   3.051  0.2426  0.0618 -1.4507
 2868SOL    HW2 9005   5.578   0.630   3.025  0.5485 -0.2490 -0.1996
 2869SOL     OW 9006   3.357   4.914   0.839  0.1671  0.2419 -0.0022
 2869SOL    HW1 9007   3.309   4.972   0.780  3.6235  2.7782 -0.6830
 2869SOL    HW2 9008   3.363   4.831   0.792 -1.6049  0.5178 -0.7954
 2870SOL     OW 9009   5.045   5.200   1.039  0.4730 -0.4127  0.2779
 2870SOL    HW1 9010   5.034   5.145   0.961  0.0281  0.0410  0.0135
 2870SOL    HW2 9011   5.015   5.287   1.011  1.6585  0.0984  0.5277
 2871SOL     OW 9012   2.647   2.576   3.173  0.3832  0.5304  0.9190
 2871SOL    HW1 9013   2.618   2.635   3.242 -0.3577  1.3228 -0.0443
 2871SOL    HW2 9014   2.647   2.630   3.094  3.2700  0.2329  0.6145
 2872SOL     OW 9015   3.105   0.209   2.888 -0.6679 -0.0701 -0.0099
 2872SOL    HW1 9016   3.110   0.201   2.792 -0.3512  2.2553 -0.2293
 2872SOL    HW2 9017   3.189   0.247   2.913 -0.1216 -2.0790  1.4203
 2873SOL     OW 9018   1.949   2.227   4.415 -0.2490  0.3156 -0.0663
 2873SOL    HW1 9019   1.997   2.163   4.362 -0.1898 -2.2910  2.8434
 2873SOL    HW2 9020   1.858   2.220   4.386 -0.1596 -0.7963 -0.1088
 2874SOL     OW 9021   0.880   2.685   5.382  0.4378  0.0357  0.0433
 2874SOL    HW1 9022   0.820   2.648   5.447 -0.4561  1.5332  0.1071
 2874SOL    HW2 9023   0.831   2.756   5.342  1.2597 -0.3500 -1.7420
 2875SOL     OW 9024   2.972   0.187   6.337  0.1030 -0.6825  0.6358
 2875SOL    HW1 9025   3.029   0.144   6.272  0.2227  1.0566 -0.4686
 2875SOL    HW2 9026   2.902   0.227   6.285  0.0917  0.5847  1.5838
 2876SOL     OW 9027   2.281   2.696   2.969  0.1483 -0.3288  0.6930
 2876SOL    HW1 9028   2.215   2.756   3.002 -0.9834 -0.5524 -1.0223
 2876SOL    HW2 9029   2.239   2.610   2.970  1.1540 -0.8404  1.5100
 2877SOL     OW 9030   3.672   0.209   3.737  0.4298 -0.0443  0.1184
 2877SOL    HW1 9031   3.636   0.160   3.663 -0.8970 -0.0367  0.7238
 2877SOL    HW2 9032   3.624   0.292   3.736 -0.5855 -0.5590  1.7336
 2878SOL     OW 9033   1.087   4.875   1.270  0.3400 -0.1011  0.3697
 2878SOL    HW1 9034   1.000   4.839   1.286  0.0872  0.4835  0.3359
 2878SOL    HW2 9035   1.082   4.966   1.301  0.4492  0.4374 -1.1139
 2879SOL     OW 9036   6.166   2.852   4.043  0.2167  0.2625 -0.3843
 2879SOL    HW1 9037   6.177   2.815   4.130  1.7547 -0.8823 -1.0437
 2879SOL    HW2 9038   6.253   2.851   4.004  0.0494  3.0840 -1.0633
 2880SOL     OW 9039   2.356   0.030   5.577  0.2680 -0.2325  0.6892
 2880SOL    HW1 9040   2.369  -0.045   5.635  0.9320  0.5443  1.5997
 2880SOL    HW2 9041   2.360   0.106   5.636  0.1578  0.5439 -0.2753
 2881SOL     OW 9042   4.919   1.452   3.115 -0.4342  0.1717  0.0381
 2881SOL    HW1 9043   4.938   1.525   3.056  0.2284  0.2618  0.3511
 2881SOL    HW2 9044   4.976   1.467   3.190 -0.8360 -0.2688  0.4361
 2882SOL     OW 9045   5.174   4.990   4.456  0.3721 -0.2645 -0.4941
 2882SOL    HW1 9046   5.229   5.021   4.384  0.6163  1.0037  0.2057
 2882SOL    HW2 9047   5.085   5.013   4.430  0.5386  0.9835 -0.0392
 2883SOL     OW 9048   4.420   3.243   5.290  0.5516  0.3020  0.3423
 2883SOL    HW1 9049   4.475   3.170   5.320  0.2262 -0.3283 -0.5518
 2883SOL    HW2 9050   4.418   3.234   5.194  0.3736  1.3998  0.2260
 2884SOL     OW 9051   2.726   2.055   4.376 -0.3716 -0.4025  0.1410
 2884SOL    HW1 9052   2.790   2.039   4.446 -1.1011 -1.8480  0.5227
 2884SOL    HW2 9053   2.775   2.103   4.309  0.6974 -0.1569  1.0682
 2885SOL     OW 9054   6.737   6.171   5.217 -0.6150  0.0543 -0.4964
 2885SOL    HW1 9055   6.679   6.247   5.213 -0.4103  0.2157 -0.4745
 2885SOL    HW2 9056   6.739   6.147   5.310  1.1584  1.4894 -0.0998
 2886SOL     OW 9057   3.638   2.157   6.413 -0.1989 -0.3871 -0.3751
 2886SOL    HW1 9058   3.721   2.130   6.374 -0.6551 -0.4949 -1.2988
 2886SOL    HW2 9059   3.586   2.076   6.417 -0.2586 -0.3252  0.2224
 2887SOL     OW 9060   3.387   4.558   5.070  0.0680 -0.7263 -0.5608
 2887SOL    HW1 9061   3.371   4.501   5.145 -0.0637 -0.0264 -0.0418
 2887SOL    HW2 9062   3.431   4.502   5.006  2.9677 -0.6428  1.1800
 2888SOL     OW 9063   6.018   2.887   4.616 -0.2638  0.3152 -0.2665
 2888SOL    HW1 9064   6.036   2.931   4.532 -3.2239 -0.7409 -1.5981
 2888SOL    HW2 9065   5.967   2.951   4.666 -2.2376 -0.4947 -1.1201
 2889SOL     OW 9066   0.822   1.194   2.298 -0.3403  0.1007  0.2711
 2889SOL    HW1 9067   0.836   1.181   2.392 -0.5779  1.7599  0.5617
 2889SOL    HW2 9068   0.877   1.127   2.256  0.7983  0.1837  1.5655
 2890SOL     OW 9069   2.816   2.359   4.632 -0.3216 -0.6060  0.1159
 2890SOL    HW1 9070   2.910   2.369   4.648 -0.3672 -0.2756  0.1888
 2890SOL    HW2 9071   2.792   2.437   4.583 -0.4786 -0.8897 -0.2644
 2891SOL     OW 9072   2.389   1.537   2.534  0.1190 -0.3028 -0.0445
 2891SOL    HW1 9073   2.299   1.505   2.541  0.1143 -0.6067 -1.2122
 2891SOL    HW2 9074   2.435   1.496   2.607 -0.2652 -1.6889 -0.5475
 2892SOL     OW 9075   6.470   1.362   5.695  0.5357 -0.0557  0.1145
 2892SOL    HW1 9076   6.520   1.311   5.632 -0.8945  0.0078 -1.1096
 2892SOL    HW2 9077   6.431   1.433   5.644  0.1464  0.5951  1.2610
 2893SOL     OW 9078   1.051   6.030   2.320  0.1230  0.0884 -0.6988
 2893SOL    HW1 9079   1.105   6.108   2.303  1.0676 -0.9786 -2.9435
 2893SOL    HW2 9080   1.006   6.014   2.238 -1.5534 -0.6662  0.3204
 2894SOL     OW 9081   2.520   2.593   0.638  0.5266  0.2834 -0.3112
 2894SOL    HW1 9082   2.588   2.551   0.585  0.7386  0.6045 -0.2967
 2894SOL    HW2 9083   2.446   2.532   0.635  1.0124 -0.3345  0.1423
 2895SOL     OW 9084   6.275   2.019   4.799 -0.2123 -0.0359  0.0441
 2895SOL    HW1 9085   6.253   1.928   4.779  0.0276 -0.6638  2.3673
 2895SOL    HW2 9086   6.371   2.021   4.797 -0.2036  0.7570 -2.1220
 2896SOL     OW 9087   5.904   6.383   0.665 -0.3105  0.5402 -0.0365
 2896SOL    HW1 9088   5.855   6.315   0.711  0.6386  0.8686  1.5496
 2896SOL    HW2 9089   5.844   6.458   0.663 -1.0917 -0.0956 -1.1481
 2897SOL     OW 9090   1.484   4.280   5.753 -0.6284  0.0132 -0.0837
 2897SOL    HW1 9091   1.390   4.298   5.748 -0.3601  1.7860  0.7255
 2897SOL    HW2 9092   1.515   4.335   5.825  1.2165  0.2849 -1.0409
 2898SOL     OW 9093   3.099   3.097   0.003  0.2990 -0.1489  0.1853
 2898SOL    HW1 9094   3.109   3.167   0.068 -1.1941  0.6856 -0.4193
 2898SOL    HW2 9095   3.027   3.044   0.037 -0.6698  0.4410 -0.8745
 2899SOL     OW 9096   4.443   3.112   6.114  0.1947 -0.4584  0.1582
 2899SOL    HW1 9097   4.387   3.116   6.192  0.4222  1.2941  0.2743
 2899SOL    HW2 9098   4.441   3.201   6.079  1.7403 -0.7249 -0.6767
 2900SOL     OW 9099   2.838   5.325   2.537 -0.5933 -0.0123  0.2656
 2900SOL    HW1 9100   2.769   5.373   2.491 -0.2000  0.6909  0.3855
 2900SOL    HW2 9101   2.867   5.385   2.606 -0.7013 -0.7865  0.9929
 2901SOL     OW 9102   1.516   0.972   1.293 -0.1840  0.4230  0.5197
 2901SOL    HW1 9103   1.495   1.062   1.315 -0.8933  0.4471 -0.1957
 2901SOL    HW2 9104   1.443   0.943   1.238 -0.2762 -0.7850  1.2340
 2902SOL     OW 9105   1.807   2.722   5.914 -0.4735 -0.1329  0.0338
 2902SOL    HW1 9106   1.865   2.797   5.923  0.2879 -0.6174 -0.6242
 2902SOL    HW2 9107   1.862   2.655   5.872 -1.1813 -0.9906  0.4411
 2903SOL     OW 9108   6.014   0.229   2.310  0.2105  0.0909 -0.5471
 2903SOL    HW1 9109   6.089   0.174   2.331  0.2804  0.9054  1.6769
 2903SOL    HW2 9110   6.026   0.307   2.364 -0.1162  2.1279 -3.2426
 2904SOL     OW 9111   2.281   4.617   6.264  0.0082 -0.3242 -0.7763
 2904SOL    HW1 9112   2.236   4.573   6.336  0.6047 -1.1348 -0.8905
 2904SOL    HW2 9113   2.362   4.649   6.303 -0.0379 -0.0551 -0.8985
 2905SOL     OW 9114   2.126   4.621   1.320  0.0333  0.2823 -0.1380
 2905SOL    HW1 9115   2.064   4.553   1.346  0.4238 -0.0225  0.0087
 2905SOL    HW2 9116   2.193   4.574   1.271 -0.1484  0.6972 -0.7909
 2906SOL     OW 9117   0.363   6.331   1.357 -0.7250 -0.0759 -0.0108
 2906SOL    HW1 9118   0.374   6.263   1.291  0.1078  0.9156 -0.9325
 2906SOL    HW2 9119   0.294   6.388   1.322  0.8372  1.3759 -0.8803
 2907SOL     OW 9120   1.606   1.770   2.974 -0.1405 -0.2574  0.7255
 2907SOL    HW1 9121   1.622   1.863   2.988  0.1061 -0.3153  0.8189
 2907SOL    HW2 9122   1.654   1.749   2.893  1.4140 -0.7408  1.7255
 2908SOL     OW 9123   6.131   5.957   6.157 -0.2318 -0.1448 -0.0499
 2908SOL    HW1 9124   6.075   5.891   6.196 -1.6375  0.7457 -0.4759
 2908SOL    HW2 9125   6.107   6.039   6.201  2.1783 -0.0043  1.1969
 2909SOL     OW 9126   4.567   4.513   5.358 -0.6375 -0.1771 -0.0259
 2909SOL    HW1 9127   4.643   4.561   5.392 -0.9407 -0.6873  1.4497
 2909SOL    HW2 9128   4.518   4.578   5.310  0.8851  0.0942 -1.2904
 2910SOL     OW 9129   6.691   0.822   3.809  0.6863 -0.1515 -0.1126
 2910SOL    HW1 9130   6.774   0.778   3.789  0.8317  0.5560 -1.1891
 2910SOL    HW2 9131   6.626   0.751   3.811  1.1762 -0.6095 -0.1722
 2911SOL     OW 9132   4.194   3.998   6.581 -0.1522  0.6512  0.6737
 2911SOL    HW1 9133   4.281   3.961   6.566 -1.0299 -1.6662  0.8002
 2911SOL    HW2 9134   4.209   4.080   6.627  1.9308 -0.1109  1.4292
 2912SOL     OW 9135   2.014   0.320   0.105 -0.3455 -0.0856  0.1385
 2912SOL    HW1 9136   1.960   0.254   0.062 -0.6699 -0.6892  1.4396
 2912SOL    HW2 9137   1.965   0.344   0.184  1.0886 -0.3409  1.1340
 2913SOL     OW 9138   0.740   5.775   1.658 -0.2845  0.0972 -0.2236
 2913SOL    HW1 9139   0.799   5.779   1.734 -0.5824  0.1862  0.0079
 2913SOL    HW2 9140   0.730   5.865   1.630 -0.5279  0.1153 -0.0875
 2914SOL     OW 9141   2.859   0.124   2.400 -0.5588 -0.5156  0.0231
 2914SOL    HW1 9142   2.906   0.088   2.325 -0.7801 -1.1923  0.2037
 2914SOL    HW2 9143   2.924   0.175   2.447 -0.3372 -0.3558 -0.4514
 2915SOL     OW 9144   6.638   4.278   2.053 -0.1861  0.6189  0.1543
 2915SOL    HW1 9145   6.731   4.284   2.076 -0.2246  0.7513  0.2779
 2915SOL    HW2 9146   6.595   4.251   2.134 -0.3506  1.2978  0.3001
 2916SOL     OW 9147   2.303   5.178   3.865 -0.1759  0.6048  0.8584
 2916SOL    HW1 9148   2.388   5.136   3.878  0.1886  1.1844  0.3941
 2916SOL    HW2 9149   2.271   5.195   3.954  0.7440  1.4534  1.0528
 2917SOL     OW 9150   2.359   0.215   1.499 -0.1630 -0.4818 -0.0961
 2917SOL    HW1 9151   2.392   0.150   1.436  0.6410 -0.2077  0.0297
 2917SOL    HW2 9152   2.424   0.286   1.496 -0.3837 -0.2411  0.6704
 2918SOL     OW 9153   1.275   6.530   0.394 -0.2689 -0.1001  0.5873
 2918SOL    HW1 9154   1.204   6.522   0.457 -1.7258  1.6696 -0.6993
 2918SOL    HW2 9155   1.232   6.558   0.313  1.6791 -0.9431 -0.8230
 2919SOL     OW 9156   5.196   5.407   6.298  0.1372 -0.5076 -0.4498
 2919SOL    HW1 9157   5.228   5.364   6.377 -1.0883 -0.5954  0.0182
 2919SOL    HW2 9158   5.174   5.334   6.239  1.4298 -0.4356 -1.0378
 2920SOL     OW 9159   2.328   0.814   2.476  0.6528  0.0605  0.2372
 2920SOL    HW1 9160   2.359   0.879   2.538  0.1343  0.1003  0.4640
 2920SOL    HW2 9161   2.306   0.738   2.529  2.4750 -0.7857 -0.1663
 2921SOL     OW 9162   4.631   4.171   3.525  0.6820  0.1540  0.0491
 2921SOL    HW1 9163   4.706   4.114   3.506 -0.0791 -0.2068 -2.1133
 2921SOL    HW2 9164   4.590   4.131   3.602  0.1591 -2.2954 -1.3950
 2922SOL     OW 9165   0.455   4.024   5.048 -0.2027 -0.2932  0.0819
 2922SOL    HW1 9166   0.511   4.065   4.981 -1.4143  0.3390 -0.5756
 2922SOL    HW2 9167   0.467   3.930   5.033  1.1696 -0.1936  0.3854
 2923SOL     OW 9168   6.542   3.048   2.367 -0.2390 -0.1544 -0.1503
 2923SOL    HW1 9169   6.626   3.074   2.405 -0.9170  0.6559  0.8200
 2923SOL    HW2 9170   6.543   3.088   2.279  0.5807 -0.5594 -0.3408
 2924SOL     OW 9171   4.496   4.717   5.194 -0.2271  0.7505 -0.2161
 2924SOL    HW1 9172   4.555   4.767   5.250  0.3538 -0.1528  0.0042
 2924SOL    HW2 9173   4.517   4.746   5.105  0.3896  0.6117 -0.1187
 2925SOL     OW 9174   1.385   3.681   4.942 -0.2653 -0.4663  0.0948
 2925SOL    HW1 9175   1.458   3.622   4.923  0.1854  0.0322  0.2309
 2925SOL    HW2 9176   1.389   3.694   5.037 -1.0829 -1.1333  0.2282
 2926SOL     OW 9177   4.941   6.179   6.323 -0.3255 -0.6895 -0.1802
 2926SOL    HW1 9178   4.931   6.154   6.415  1.2050 -2.8944 -0.5409
 2926SOL    HW2 9179   5.034   6.168   6.305 -0.5714 -0.1012 -1.9585
 2927SOL     OW 9180   3.097   1.423   6.064 -0.2290 -0.0488  0.0571
 2927SOL    HW1 9181   3.141   1.340   6.044 -1.0812 -0.2631 -1.0045
 2927SOL    HW2 9182   3.160   1.490   6.037 -0.3166 -0.3511 -0.9310
 2928SOL     OW 9183   2.159   3.567   0.927 -0.1049 -0.5523  0.0932
 2928SOL    HW1 9184   2.204   3.650   0.943  0.6551 -0.9121 -0.1345
 2928SOL    HW2 9185   2.215   3.521   0.865 -0.7460 -1.0569 -0.1229
 2929SOL     OW 9186   5.796   1.484   4.555 -0.3726 -0.3792  0.1331
 2929SOL    HW1 9187   5.708   1.517   4.574  0.0126  0.0882  1.2095
 2929SOL    HW2 9188   5.848   1.511   4.631  0.3524 -1.9907  0.2537
 2930SOL     OW 9189   4.839   3.579   4.476 -0.1549 -0.1236 -0.5046
 2930SOL    HW1 9190   4.895   3.655   4.459  0.8068 -0.4095  1.2005
 2930SOL    HW2 9191   4.820   3.583   4.569 -1.0679 -1.3366 -0.6120
 2931SOL     OW 9192   1.604   6.120   2.900 -0.0468  0.7589 -0.2825
 2931SOL    HW1 9193   1.549   6.082   2.831  0.6609 -2.2172  0.6471
 2931SOL    HW2 9194   1.544   6.133   2.973 -0.2630  1.3194 -0.5532
 2932SOL     OW 9195   0.036   1.315   1.074 -0.0285  0.0838  0.3414
 2932SOL    HW1 9196   0.130   1.300   1.078 -0.2594 -1.2456  1.6491
 2932SOL    HW2 9197   0.021   1.390   1.131 -0.0276 -1.4018  2.4040
 2933SOL     OW 9198   2.911   5.558   2.636 -0.1186  0.2079  0.1510
 2933SOL    HW1 9199   2.916   5.646   2.600 -0.9832 -0.5245 -1.9337
 2933SOL    HW2 9200   2.842   5.562   2.702 -0.5633  0.9626 -0.3516
 2934SOL     OW 9201   0.335   0.338   3.681 -0.0950 -0.5021  0.2509
 2934SOL    HW1 9202   0.268   0.302   3.739 -0.9344  0.1956 -0.2525
 2934SOL    HW2 9203   0.339   0.431   3.704 -0.3569 -0.2434 -0.7291
 2935SOL     OW 9204   5.852   0.089   4.313  0.3061 -0.1230 -0.7043
 2935SOL    HW1 9205   5.824   0.164   4.261  1.0692 -0.2400 -1.3161
 2935SOL    HW2 9206   5.886   0.127   4.394 -2.5914 -0.0437  0.5772
 2936SOL     OW 9207   4.596   1.684   3.799 -0.2386  0.4269 -0.6779
 2936SOL    HW1 9208   4.540   1.633   3.858 -0.9139  2.2275  0.3243
 2936SOL    HW2 9209   4.553   1.678   3.714 -1.0705  0.4460 -0.2728
 2937SOL     OW 9210   2.582   0.722   5.620  0.3120 -0.6061  0.0011
 2937SOL    HW1 9211   2.553   0.727   5.711 -0.8255 -2.5272 -0.1917
 2937SOL    HW2 9212   2.672   0.691   5.625 -0.2916 -2.4144  0.4922
 2938SOL     OW 9213   3.892   5.270   5.882 -0.3197  0.4214 -0.7413
 2938SOL    HW1 9214   3.878   5.215   5.959  0.2185 -0.3002 -1.1388
 2938SOL    HW2 9215   3.850   5.353   5.903 -2.1975 -0.5213 -0.5785
 2939SOL     OW 9216   6.454   5.748   5.879 -0.9363 -0.3160 -0.0088
 2939SOL    HW1 9217   6.518   5.720   5.945  0.1411 -0.7929 -1.1927
 2939SOL    HW2 9218   6.400   5.670   5.864 -0.7894 -0.4029 -0.1022
 2940SOL     OW 9219   5.624   6.214   4.578 -0.1454  0.0800  0.5325
 2940SOL    HW1 9220   5.679   6.217   4.499 -1.2725  0.0647 -0.2708
 2940SOL    HW2 9221   5.562   6.286   4.567 -1.3082 -0.8706  0.6487
 2941SOL     OW 9222   4.707   1.123   2.398  0.0505 -0.1022  0.5756
 2941SOL    HW1 9223   4.749   1.182   2.335 -0.8482 -0.4676 -0.3894
 2941SOL    HW2 9224   4.651   1.066   2.345  1.2339 -2.1650  1.4090
 2942SOL     OW 9225   2.665   3.934   2.657  0.0279  0.3995 -0.8188
 2942SOL    HW1 9226   2.570   3.945   2.650 -0.0588  0.9557  0.8246
 2942SOL    HW2 9227   2.695   3.929   2.567 -1.6502 -0.5769 -1.3736
 2943SOL     OW 9228   1.525   5.324   3.952  0.5321 -0.5147  0.5874
 2943SOL    HW1 9229   1.591   5.292   3.891 -0.4142  3.3229 -2.8671
 2943SOL    HW2 9230   1.456   5.257   3.950  0.8780 -0.8713 -2.0417
 2944SOL     OW 9231   4.626   3.928   0.901 -0.0070  0.6608 -0.5396
 2944SOL    HW1 9232   4.615   3.963   0.990 -0.4152 -1.6418  0.4044
 2944SOL    HW2 9233   4.537   3.911   0.871  0.1751 -1.1729 -0.2009
 2945SOL     OW 9234   1.902   5.197   4.387 -0.1304  0.2788 -0.4185
 2945SOL    HW1 9235   1.871   5.160   4.304 -0.0525 -0.1343 -0.2655
 2945SOL    HW2 9236   1.824   5.234   4.427 -0.5366 -1.1392  0.1666
 2946SOL     OW 9237   4.329   0.249   6.567  0.1770  0.0770 -0.3249
 2946SOL    HW1 9238   4.375   0.282   6.489 -1.0726 -1.1120 -1.6122
 2946SOL    HW2 9239   4.236   0.260   6.547 -0.1729  0.0213  1.1500
 2947SOL     OW 9240   6.437   0.431   2.042  0.1285 -0.6296  0.0619
 2947SOL    HW1 9241   6.479   0.346   2.053  0.4512 -0.8033 -2.1322
 2947SOL    HW2 9242   6.479   0.488   2.107  0.4743 -1.9128  0.9985
 2948SOL     OW 9243   4.156   5.260   4.175  0.1227 -0.0635  0.5893
 2948SOL    HW1 9244   4.218   5.307   4.232  2.1839 -0.6606 -1.0086
 2948SOL    HW2 9245   4.139   5.320   4.103  2.0500 -1.2649 -0.9920
 2949SOL     OW 9246   5.697   4.148   6.118  0.0686 -0.3859  0.3928
 2949SOL    HW1 9247   5.676   4.062   6.153  0.8530 -0.5652  0.4539
 2949SOL    HW2 9248   5.614   4.183   6.087 -0.1478 -1.4642 -0.3014
 2950SOL     OW 9249   4.210   2.211   5.743  0.3159  0.0527  0.2509
 2950SOL    HW1 9250   4.137   2.213   5.681  1.0768 -2.4406 -0.8590
 2950SOL    HW2 9251   4.182   2.149   5.810  1.0811 -0.3422  0.2170
 2951SOL     OW 9252   0.563   3.550   2.536  1.1341 -0.5087 -0.6216
 2951SOL    HW1 9253   0.655   3.535   2.515  1.8018  0.8695  1.0528
 2951SOL    HW2 9254   0.524   3.463   2.536  3.4314 -1.7340  2.7469
 2952SOL     OW 9255   3.882   6.286   6.319 -0.0489  0.4074 -0.0118
 2952SOL    HW1 9256   3.849   6.371   6.350 -3.0947  0.0254 -1.7954
 2952SOL    HW2 9257   3.849   6.223   6.384 -0.9474  0.2582 -0.5963
 2953SOL     OW 9258   5.865   1.369   4.826  0.4585  0.4931 -0.0893
 2953SOL    HW1 9259   5.865   1.279   4.858  0.0185  0.0814 -1.1783
 2953SOL    HW2 9260   5.785   1.374   4.773  1.6009  0.8469 -1.8482
 2954SOL     OW 9261   2.482   0.246   6.713  0.1353  0.5367 -0.3113
 2954SOL    HW1 9262   2.395   0.209   6.723  0.5529 -0.3426  0.1559
 2954SOL    HW2 9263   2.495   0.298   6.793 -0.6690  2.2037 -1.2172
 2955SOL     OW 9264   1.674   0.825   5.506  0.5519  0.8027  0.6365
 2955SOL    HW1 9265   1.682   0.911   5.546  1.8602  0.9158  0.1972
 2955SOL    HW2 9266   1.751   0.777   5.537  0.5347  0.2384 -0.1539
 2956SOL     OW 9267   1.790   1.123   1.202 -0.4354 -0.4247  0.5889
 2956SOL    HW1 9268   1.857   1.058   1.219 -0.9885 -1.1244  0.1495
 2956SOL    HW2 9269   1.712   1.089   1.246 -0.4213  0.5604  1.4192
 2957SOL     OW 9270   5.980   0.780   1.090 -0.3577 -0.2709  0.5835
 2957SOL    HW1 9271   5.975   0.685   1.080 -1.7190 -0.1837  0.2263
 2957SOL    HW2 9272   5.928   0.815   1.017 -1.4340  0.6968  1.7774
 2958SOL     OW 9273   0.918   1.949   4.501 -0.4460  0.6825  0.2252
 2958SOL    HW1 9274   0.971   2.027   4.486  2.0406 -0.7695  1.0345
 2958SOL    HW2 9275   0.872   1.967   4.583  2.6662  0.1179  2.2482
 2959SOL     OW 9276   1.181   1.524   1.396 -0.3672  0.4676  0.2875
 2959SOL    HW1 9277   1.135   1.601   1.427 -0.3355  0.1427  1.1621
 2959SOL    HW2 9278   1.116   1.477   1.343 -0.7724  0.4453  0.8044
 2960SOL     OW 9279   2.903   1.028   3.904  0.1576 -0.1887 -0.2383
 2960SOL    HW1 9280   2.867   0.946   3.938 -0.3126  1.0921  2.6465
 2960SOL    HW2 9281   2.968   1.054   3.969 -0.1709  2.0260 -0.7374
 2961SOL     OW 9282   1.759   4.355   4.476 -0.2381 -0.3128 -0.0126
 2961SOL    HW1 9283   1.689   4.292   4.455  0.5858 -0.8900 -1.1283
 2961SOL    HW2 9284   1.748   4.372   4.570 -1.9547 -0.2785 -0.1881
 2962SOL     OW 9285   0.547   0.851   2.485  0.0543  0.3381  0.3451
 2962SOL    HW1 9286   0.641   0.855   2.504 -0.0932  0.9388  1.0045
 2962SOL    HW2 9287   0.536   0.771   2.434  1.0014  0.5358 -0.1905
 2963SOL     OW 9288   3.972   6.141   6.579  0.2034  0.3648 -0.5908
 2963SOL    HW1 9289   4.001   6.058   6.617  1.3961  0.6586 -0.8224
 2963SOL    HW2 9290   3.935   6.190   6.653 -2.6811 -1.2275 -0.8277
 2964SOL     OW 9291   5.118   2.042   4.321 -0.5607 -0.2320  0.0910
 2964SOL    HW1 9292   5.118   2.022   4.228 -1.4292 -0.2907  0.0966
 2964SOL    HW2 9293   5.097   2.135   4.326  0.6037  0.0533  0.1945
 2965SOL     OW 9294   5.825   3.182   0.986  0.7149  0.6892  0.0819
 2965SOL    HW1 9295   5.795   3.194   0.895  1.0599  1.9370  0.1100
 2965SOL    HW2 9296   5.909   3.228   0.990  0.5369  0.9508  1.1221
 2966SOL     OW 9297   4.773   6.714   0.155 -0.4477  0.6100  0.2912
 2966SOL    HW1 9298   4.792   6.620   0.163  1.6405  1.0216  0.8311
 2966SOL    HW2 9299   4.732   6.723   0.069  0.3365 -0.6578 -0.2412
 2967SOL     OW 9300   5.828   5.111   5.978 -0.5032  0.1465 -0.2559
 2967SOL    HW1 9301   5.781   5.032   5.952  0.1573 -0.6708  0.9107
 2967SOL    HW2 9302   5.845   5.158   5.896 -0.0261 -1.4259 -1.0936
 2968SOL     OW 9303   1.437   3.363   0.679  0.7049 -0.6825 -0.2324
 2968SOL    HW1 9304   1.459   3.290   0.737  1.5487  0.3777  0.8414
 2968SOL    HW2 9305   1.500   3.432   0.702 -0.8795  0.8590 -0.2438
 2969SOL     OW 9306   3.584   3.646   0.930  0.3221  0.6139  0.2679
 2969SOL    HW1 9307   3.524   3.688   0.991  0.0787  0.8761 -0.1495
 2969SOL    HW2 9308   3.527   3.600   0.868  0.5587  0.5885  0.0669
 2970SOL     OW 9309   2.016   3.906   1.096  0.0396 -0.0537  0.6161
 2970SOL    HW1 9310   1.968   3.975   1.050 -0.8971 -0.6240  0.7164
 2970SOL    HW2 9311   1.973   3.825   1.070 -0.1088 -0.4391  1.9977
 2971SOL     OW 9312   2.720   3.352   0.755 -0.0288 -0.2388  0.4325
 2971SOL    HW1 9313   2.656   3.281   0.746 -1.2830  0.9093 -0.1274
 2971SOL    HW2 9314   2.694   3.397   0.836  1.3670 -0.9699  1.3297
 2972SOL     OW 9315   1.010   2.223   5.471  0.0286  0.7375 -0.0712
 2972SOL    HW1 9316   0.938   2.263   5.519  0.6392 -1.2012  2.7512
 2972SOL    HW2 9317   1.071   2.294   5.453 -0.9330  1.7802  0.7357
 2973SOL     OW 9318   1.798   4.511   1.137 -0.3514  0.2682  0.7494
 2973SOL    HW1 9319   1.740   4.487   1.209  0.6431 -1.9167  0.8915
 2973SOL    HW2 9320   1.758   4.589   1.099 -1.0909  1.3028  3.4289
 2974SOL     OW 9321   5.279   0.233   0.356  0.3059 -0.4708 -0.1897
 2974SOL    HW1 9322   5.349   0.290   0.325 -1.2921 -0.1809 -3.9145
 2974SOL    HW2 9323   5.199   0.279   0.332 -1.1542 -1.8377  1.7805
 2975SOL     OW 9324   1.129   5.119   0.558  0.1505  0.3551 -0.2924
 2975SOL    HW1 9325   1.043   5.156   0.536  0.1119  1.3709  1.3589
 2975SOL    HW2 9326   1.139   5.137   0.651  1.6365 -0.8673 -0.1805
 2976SOL     OW 9327   5.766   3.473   6.343 -0.6313 -0.2087  0.3810
 2976SOL    HW1 9328   5.796   3.545   6.397 -0.6667 -0.0003  0.1236
 2976SOL    HW2 9329   5.827   3.401   6.363 -0.7433 -0.1856  0.8133
 2977SOL     OW 9330   0.735   4.632   1.856 -0.1315  0.2864  0.1706
 2977SOL    HW1 9331   0.665   4.581   1.897  0.4926 -0.5112  0.2689
 2977SOL    HW2 9332   0.815   4.583   1.875  0.3391  0.6417 -0.8099
 2978SOL     OW 9333   4.890   3.665   6.553 -0.3337 -0.4535 -0.8040
 2978SOL    HW1 9334   4.922   3.660   6.463  0.0107  1.2592 -0.8192
 2978SOL    HW2 9335   4.813   3.722   6.548 -1.0833 -1.3847 -0.1819
 2979SOL     OW 9336   4.390   3.263   5.731 -0.4147 -0.6627 -0.5879
 2979SOL    HW1 9337   4.442   3.333   5.769 -0.8391  0.0272 -1.2590
 2979SOL    HW2 9338   4.325   3.241   5.798  1.1724 -2.0582  0.5704
 2980SOL     OW 9339   0.858   0.636   5.788 -0.0112  0.0511 -0.1686
 2980SOL    HW1 9340   0.921   0.566   5.804 -0.5163  0.2051  3.2445
 2980SOL    HW2 9341   0.838   0.630   5.695  0.1354 -4.1653 -0.0975
 2981SOL     OW 9342   1.569   5.795   1.716  0.1252  0.3635 -0.6095
 2981SOL    HW1 9343   1.555   5.730   1.785 -0.2334  0.7527 -0.3192
 2981SOL    HW2 9344   1.539   5.751   1.636 -0.3119  0.2456 -0.3835
 2982SOL     OW 9345   2.157   2.554   2.388 -0.4066  0.1205  0.0814
 2982SOL    HW1 9346   2.144   2.540   2.294 -0.5889  1.6411 -0.1446
 2982SOL    HW2 9347   2.251   2.560   2.399 -0.3668 -0.4054  0.0595
 2983SOL     OW 9348   5.075   2.860   2.640 -0.2449  0.3527  0.3626
 2983SOL    HW1 9349   5.020   2.844   2.562  1.1171 -0.8032 -0.4021
 2983SOL    HW2 9350   5.097   2.953   2.634 -0.9377  0.4994 -0.1060
 2984SOL     OW 9351   0.325   0.580   1.963  0.1275 -0.4957  0.4457
 2984SOL    HW1 9352   0.296   0.599   2.052  1.5465 -0.0454  0.8444
 2984SOL    HW2 9353   0.254   0.528   1.925 -1.0654  0.3870  1.4014
 2985SOL     OW 9354   1.069   1.080   3.314 -0.2700 -0.0513  0.4548
 2985SOL    HW1 9355   0.989   1.132   3.311  0.8074  1.6646  0.6246
 2985SOL    HW2 9356   1.113   1.107   3.394  1.6676  0.9042 -0.8466
 2986SOL     OW 9357   5.946   3.582   5.269 -0.3467 -0.1761  0.1936
 2986SOL    HW1 9358   5.854   3.554   5.279 -0.9684  1.1683 -1.4106
 2986SOL    HW2 9359   5.989   3.508   5.228 -1.1306 -0.1826 -0.6474
 2987SOL     OW 9360   1.866   5.733   0.872  0.0326 -0.0204 -0.3867
 2987SOL    HW1 9361   1.788   5.686   0.843 -0.1105  1.0316 -1.8114
 2987SOL    HW2 9362   1.835   5.794   0.938  0.1251 -1.4518  1.0400
 2988SOL     OW 9363   4.568   6.354   5.784  0.0266  0.5643  0.0641
 2988SOL    HW1 9364   4.480   6.392   5.774  0.2261  1.1636  0.5347
 2988SOL    HW2 9365   4.578   6.298   5.707 -0.3594  1.3112 -0.5489
 2989SOL     OW 9366   4.764   0.519   4.136  0.3322  0.4372 -0.1304
 2989SOL    HW1 9367   4.739   0.507   4.228 -1.4433  2.3791 -0.2820
 2989SOL    HW2 9368   4.720   0.600   4.110 -0.6246 -0.9112 -3.1708
 2990SOL     OW 9369   3.310   6.528   1.889  0.0549  1.0542 -0.2950
 2990SOL    HW1 9370   3.342   6.527   1.980 -0.6864 -0.0928 -0.0181
 2990SOL    HW2 9371   3.281   6.618   1.875  3.4751  2.2500 -0.6392
 2991SOL     OW 9372   5.057   4.954   5.185  0.0080  0.1189  0.3788
 2991SOL    HW1 9373   5.138   5.004   5.173 -0.4571  0.9343  0.6131
 2991SOL    HW2 9374   5.061   4.887   5.117  1.3069 -0.4203  0.9481
 2992SOL     OW 9375   5.666   3.714   0.573 -0.0468 -0.4340  1.1772
 2992SOL    HW1 9376   5.663   3.653   0.647 -0.2057 -0.4812  1.1338
 2992SOL    HW2 9377   5.620   3.668   0.503  1.3565 -0.9912  0.5878
 2993SOL     OW 9378   5.849   1.952   5.232  0.4444  0.8321  0.1515
 2993SOL    HW1 9379   5.839   2.001   5.314 -1.1768  0.2433  0.3372
 2993SOL    HW2 9380   5.806   2.006   5.166 -0.3488  0.2165  0.1490
 2994SOL     OW 9381   4.646   2.668   5.774 -0.2579  0.6127  0.1759
 2994SOL    HW1 9382   4.730   2.628   5.795  0.4782  1.6808 -0.6123
 2994SOL    HW2 9383   4.583   2.622   5.830  0.8160 -0.3006  0.6822
 2995SOL     OW 9384   1.247   4.549   5.786 -0.0481  0.4162 -0.5936
 2995SOL    HW1 9385   1.196   4.582   5.860 -0.4140 -0.2737 -0.5315
 2995SOL    HW2 9386   1.204   4.468   5.761  2.2100 -1.3803  0.8451
 2996SOL     OW 9387   3.303   6.185   4.203 -0.1660  0.0453 -0.5243
 2996SOL    HW1 9388   3.289   6.187   4.108  0.8545 -1.6588 -0.7561
 2996SOL    HW2 9389   3.215   6.195   4.240 -0.7636 -0.5488 -1.6959
 2997SOL     OW 9390   4.996   5.019   0.380 -0.6732  0.3075  0.1497
 2997SOL    HW1 9391   5.009   4.924   0.378  0.8054  0.4707  0.6919
 2997SOL    HW2 9392   4.901   5.031   0.379 -0.8727 -1.1469 -0.9381
 2998SOL     OW 9393   5.207   0.206   4.688  0.2264 -0.2083  0.9205
 2998SOL    HW1 9394   5.282   0.249   4.647  0.5993 -0.2209  1.5744
 2998SOL    HW2 9395   5.240   0.120   4.713  0.1667 -0.0023  1.7300
 2999SOL     OW 9396   5.935   1.470   6.105 -0.0872 -0.7792 -0.0016
 2999SOL    HW1 9397   5.966   1.421   6.029  0.4852  1.6130 -1.4179
 2999SOL    HW2 9398   5.904   1.553   6.069  0.3089  0.4947  2.3810
 3000SOL     OW 9399   5.068   4.030   1.043  0.3166 -0.0533 -0.5684
 3000SOL    HW1 9400   5.050   4.111   0.996  0.7717  0.4920  0.1662
 3000SOL    HW2 9401   5.155   4.043   1.080 -0.5467  0.1040  1.5526
 3001SOL     OW 9402   2.257   2.356   0.645 -0.0828  0.2721 -0.5015
 3001SOL    HW1 9403   2.185   2.318   0.594  0.3134  1.9427 -2.4439
 3001SOL    HW2 9404   2.319   2.284   0.657 -1.4257 -0.8339  0.0074
 3002SOL     OW 9405   4.670   1.160   3.560 -0.2695 -0.5283  0.1064
 3002SOL    HW1 9406   4.604   1.199   3.502 -0.0552  0.7379  0.6797
 3002SOL    HW2 9407   4.633   1.075   3.585 -1.7101  0.1746  0.4417
 3003SOL     OW 9408   5.343   4.208   1.585 -0.2744 -0.2348 -0.2922
 3003SOL    HW1 9409   5.306   4.128   1.621  1.8193 -0.2898  2.0659
 3003SOL    HW2 9410   5.285   4.278   1.616 -0.5416 -0.6228  0.0975
 3004SOL     OW 9411   3.988   0.905   0.524 -0.1257 -0.1575 -0.1003
 3004SOL    HW1 9412   4.063   0.964   0.531 -1.2167  1.5635 -1.6620
 3004SOL    HW2 9413   4.015   0.838   0.461  1.7081 -2.4544  2.8740
 3005SOL     OW 9414   3.334   2.921   2.214 -0.1625 -0.2259 -0.3817
 3005SOL    HW1 9415   3.321   2.992   2.151  0.4097 -1.0715 -1.4761
 3005SOL    HW2 9416   3.419   2.939   2.254 -0.5257  0.3107  0.1614
 3006SOL     OW 9417   6.526   3.862   4.659  0.4429  0.2649 -0.5367
 3006SOL    HW1 9418   6.575   3.874   4.740 -0.6681  0.3379  0.1357
 3006SOL    HW2 9419   6.579   3.801   4.608  1.0585  0.0707  0.3201
 3007SOL     OW 9420   2.830   4.324   4.315  0.0132 -0.1194 -0.3445
 3007SOL    HW1 9421   2.748   4.347   4.358  0.5846 -1.2180  1.3966
 3007SOL    HW2 9422   2.854   4.239   4.352  2.6272  0.7951  0.2275
 3008SOL     OW 9423   4.445   2.883   3.747 -0.2308  0.0025  0.1233
 3008SOL    HW1 9424   4.399   2.799   3.756 -2.8282  1.2861 -0.4080
 3008SOL    HW2 9425   4.432   2.908   3.656 -1.7898  2.1792  0.8673
 3009SOL     OW 9426   4.400   2.056   1.407 -0.5355  0.1589  0.1368
 3009SOL    HW1 9427   4.463   2.053   1.335 -0.3172  1.8623  0.2163
 3009SOL    HW2 9428   4.314   2.053   1.364 -0.4081  1.3509 -0.2345
 3010SOL     OW 9429   3.368   1.406   2.880  0.0001  0.4893  0.0433
 3010SOL    HW1 9430   3.440   1.432   2.823  0.1677  1.7665  0.8114
 3010SOL    HW2 9431   3.394   1.435   2.967 -0.4828 -0.9733  0.7134
 3011SOL     OW 9432   6.188   5.915   1.355  0.1645  0.0310 -0.0351
 3011SOL    HW1 9433   6.278   5.889   1.338  0.3768  0.4473  0.4375
 3011SOL    HW2 9434   6.143   5.834   1.378  0.4870 -0.1333  0.0116
 3012SOL     OW 9435   0.860   0.655   4.273  0.3019  0.9808  0.1633
 3012SOL    HW1 9436   0.949   0.660   4.307  0.7773 -2.2598 -0.2563
 3012SOL    HW2 9437   0.864   0.696   4.187  1.5114  0.4939 -0.0271
 3013SOL     OW 9438   5.725   2.683   1.784  0.0102  0.0940  0.0969
 3013SOL    HW1 9439   5.728   2.587   1.792  0.6800  0.1078  0.0531
 3013SOL    HW2 9440   5.772   2.701   1.703 -3.1368  0.2358 -1.8317
 3014SOL     OW 9441   3.437   5.787   5.358 -0.1797 -0.3334 -0.2533
 3014SOL    HW1 9442   3.407   5.743   5.279  1.5023 -0.5820 -0.8005
 3014SOL    HW2 9443   3.533   5.783   5.352  0.0017 -1.2537  2.3000
 3015SOL     OW 9444   6.644   2.494   0.601  0.2140 -0.2119 -0.3888
 3015SOL    HW1 9445   6.604   2.517   0.685  1.3978  0.3051  0.0721
 3015SOL    HW2 9446   6.636   2.573   0.548 -0.7792 -0.6304 -0.8660
 3016SOL     OW 9447   1.951   6.106   4.255  0.1200  0.7438  0.6805
 3016SOL    HW1 9448   2.040   6.139   4.258  1.4238 -2.3880  0.2485
 3016SOL    HW2 9449   1.937   6.066   4.341  0.1638 -0.9996 -0.0704
 3017SOL     OW 9450   2.217   3.415   3.579  0.0315  0.2280 -0.4695
 3017SOL    HW1 9451   2.262   3.389   3.499 -0.1935 -1.2116 -0.1422
 3017SOL    HW2 9452   2.132   3.448   3.549 -0.0416 -0.2752 -0.8288
 3018SOL     OW 9453   0.099   4.290   0.177  0.5858  0.3316  0.6767
 3018SOL    HW1 9454   0.045   4.265   0.252 -1.8369  0.2570 -0.9787
 3018SOL    HW2 9455   0.080   4.382   0.164  1.2433  0.4217  0.3433
 3019SOL     OW 9456   4.544   4.477   4.196  0.1090  0.1215 -0.0476
 3019SOL    HW1 9457   4.639   4.479   4.195  0.1673 -1.5409 -1.2097
 3019SOL    HW2 9458   4.522   4.384   4.195 -1.5408  0.4442  1.4267
 3020SOL     OW 9459   0.788   3.950   2.553 -0.1064 -0.2259 -0.7232
 3020SOL    HW1 9460   0.704   3.903   2.552  1.1974 -2.8495  0.7309
 3020SOL    HW2 9461   0.799   3.977   2.645  1.4041 -1.5867 -0.4521
 3021SOL     OW 9462   3.586   0.489   1.513  0.1356  0.8408  0.3922
 3021SOL    HW1 9463   3.492   0.504   1.519  0.1474  0.6818  1.0596
 3021SOL    HW2 9464   3.625   0.576   1.510 -0.0250  0.9065  0.1580
 3022SOL     OW 9465   0.004   3.082   2.631  0.0745 -0.3319 -0.0682
 3022SOL    HW1 9466  -0.017   3.142   2.560 -1.2098  1.0805  1.4057
 3022SOL    HW2 9467  -0.045   3.117   2.706  1.2613 -1.8249  1.4692
 3023SOL     OW 9468   0.987   5.916   5.935 -0.2108  0.1153 -0.1099
 3023SOL    HW1 9469   0.966   5.860   5.860  0.1935  0.0038 -0.1381
 3023SOL    HW2 9470   0.902   5.932   5.977 -0.2157 -1.5563  0.6285
 3024SOL     OW 9471   6.007   1.419   6.435  0.1985 -0.1280  0.0825
 3024SOL    HW1 9472   5.926   1.439   6.387  0.3659  0.1321 -0.0986
 3024SOL    HW2 9473   6.041   1.341   6.392 -0.4654 -0.8306  0.7994
 3025SOL     OW 9474   4.044   5.393   2.311  0.0853 -0.1929  0.5350
 3025SOL    HW1 9475   4.025   5.320   2.253  1.1604 -0.9159  1.0570
 3025SOL    HW2 9476   4.049   5.353   2.398 -0.9045  0.7726  1.0552
 3026SOL     OW 9477   6.514   0.350   3.497 -0.0806 -0.4677  0.3696
 3026SOL    HW1 9478   6.472   0.295   3.431  1.6050 -0.6770 -0.5699
 3026SOL    HW2 9479   6.441   0.378   3.554 -1.4770 -0.8444 -1.1457
 3027SOL     OW 9480   2.975   2.400   0.986 -0.3190 -0.2014  0.1306
 3027SOL    HW1 9481   3.035   2.409   0.912 -1.7076 -0.8361 -1.1311
 3027SOL    HW2 9482   3.004   2.319   1.029  0.7644  0.3950  0.5680
 3028SOL     OW 9483   2.765   2.888   3.718  0.8132  0.4484 -0.4556
 3028SOL    HW1 9484   2.762   2.865   3.810  1.2911 -0.6032 -0.6820
 3028SOL    HW2 9485   2.838   2.949   3.710  1.1714  0.0467 -0.2395
 3029SOL     OW 9486   4.178   5.414   1.524  0.3223  0.1268 -0.5980
 3029SOL    HW1 9487   4.256   5.463   1.497  0.2638  0.4735 -0.1479
 3029SOL    HW2 9488   4.164   5.440   1.615  0.0815 -0.4551 -0.4621
 3030SOL     OW 9489   3.976   3.479   1.428 -0.2937 -0.3805  0.2847
 3030SOL    HW1 9490   3.993   3.420   1.501  0.2908  0.9139  1.2380
 3030SOL    HW2 9491   3.948   3.560   1.469  0.7346  0.6051 -0.8788
 3031SOL     OW 9492   1.523   1.053   6.430  0.3283  0.0566 -0.5979
 3031SOL    HW1 9493   1.507   1.147   6.428  0.4526  0.0670 -1.5917
 3031SOL    HW2 9494   1.518   1.026   6.339 -0.2411 -1.0009 -0.2718
 3032SOL     OW 9495   0.436   5.836   3.608  0.2102 -0.5587  0.2127
 3032SOL    HW1 9496   0.415   5.757   3.558  0.1291 -0.6185  0.3414
 3032SOL    HW2 9497   0.523   5.820   3.644 -0.6645 -1.5057  2.0453
 3033SOL     OW 9498   6.525   1.598   0.907  0.7303 -0.0551 -0.0183
 3033SOL    HW1 9499   6.446   1.567   0.865 -0.6843  0.8290  1.8483
 3033SOL    HW2 9500   6.523   1.560   0.995  1.4712  1.3097  0.6312
 3034SOL     OW 9501   6.708   2.200   2.056 -0.2499 -0.1506 -0.0538
 3034SOL    HW1 9502   6.735   2.226   2.145  3.5129  0.7026 -1.2436
 3034SOL    HW2 9503   6.685   2.283   2.013  1.6752 -0.0007 -0.8885
 3035SOL     OW 9504   5.392   3.387   3.634  0.2104  0.2204 -0.2335
 3035SOL    HW1 9505   5.378   3.294   3.620  2.6614 -0.6549  2.2821
 3035SOL    HW2 9506   5.482   3.403   3.605 -0.5863  2.1887 -1.9031
 3036SOL     OW 9507   5.185   4.026   0.637  0.0151  0.0179  0.0653
 3036SOL    HW1 9508   5.180   3.980   0.721  0.7545 -0.0217  0.1016
 3036SOL    HW2 9509   5.229   3.964   0.578 -0.3800  0.0930 -0.3150
 3037SOL     OW 9510   2.888   3.948   0.825  0.0027  0.1231  0.0884
 3037SOL    HW1 9511   2.882   4.012   0.896  5.1962  2.1433 -0.8805
 3037SOL    HW2 9512   2.868   3.998   0.745  0.7912 -0.3261 -0.4050
 3038SOL     OW 9513   1.229   3.689   3.594 -0.1360 -0.3705 -0.2347
 3038SOL    HW1 9514   1.190   3.776   3.588  0.3780 -0.0288  1.0564
 3038SOL    HW2 9515   1.155   3.630   3.601 -0.4916 -0.0520 -1.1150
 3039SOL     OW 9516   4.766   3.398   2.295 -0.4125 -0.5091 -0.0490
 3039SOL    HW1 9517   4.715   3.463   2.247 -0.6369 -1.7402 -1.5740
 3039SOL    HW2 9518   4.795   3.443   2.374 -1.5229  1.0679 -0.4983
 3040SOL     OW 9519   3.498   1.195   5.722  0.6265 -0.4184 -0.2572
 3040SOL    HW1 9520   3.459   1.108   5.730  1.3955 -0.9503 -1.8673
 3040SOL    HW2 9521   3.563   1.199   5.792 -1.4241  0.0364  1.7113
 3041SOL     OW 9522   6.298   2.934   0.268  0.4447  0.0647 -0.3990
 3041SOL    HW1 9523   6.334   2.854   0.230 -0.0773  0.4277 -1.7281
 3041SOL    HW2 9524   6.374   2.990   0.282  0.7728 -0.5133  0.2064
 3042SOL     OW 9525   4.066   4.392   2.410  0.4052 -0.1887  0.2626
 3042SOL    HW1 9526   4.003   4.464   2.406 -1.7646 -2.0408 -1.5283
 3042SOL    HW2 9527   4.146   4.432   2.444 -0.5860  3.1238 -0.9327
 3043SOL     OW 9528   1.944   6.681   1.779  0.2127 -0.4813 -0.1800
 3043SOL    HW1 9529   2.038   6.667   1.790 -0.0755 -0.8994  2.3796
 3043SOL    HW2 9530   1.927   6.764   1.823 -0.7077 -0.7591  0.0144
 3044SOL     OW 9531   1.881   3.287   6.563 -0.4641 -0.0196 -0.1470
 3044SOL    HW1 9532   1.804   3.294   6.620  0.1063 -0.3814  0.6760
 3044SOL    HW2 9533   1.916   3.376   6.560 -0.3935 -0.0339  0.2116
 3045SOL     OW 9534   3.147   1.259   1.966 -0.2735  0.0070  0.0781
 3045SOL    HW1 9535   3.095   1.179   1.954  1.6402 -1.1790 -0.7019
 3045SOL    HW2 9536   3.153   1.269   2.061  0.1154 -1.2383  0.2005
 3046SOL     OW 9537   2.135   1.323   2.872  0.5081 -0.2162  0.0433
 3046SOL    HW1 9538   2.173   1.300   2.957  0.0730 -3.7624 -0.5309
 3046SOL    HW2 9539   2.052   1.276   2.869 -0.8981  2.1913 -1.2472
 3047SOL     OW 9540   2.092   1.354   1.631 -0.2383 -0.3976 -0.1393
 3047SOL    HW1 9541   2.052   1.441   1.623  0.4578  0.0298  0.7493
 3047SOL    HW2 9542   2.147   1.361   1.709  2.6525 -0.5029 -2.0089
 3048SOL     OW 9543   2.978   2.370   6.755  0.2621 -0.0249  0.1641
 3048SOL    HW1 9544   3.028   2.436   6.802  3.1181 -1.1658 -1.0351
 3048SOL    HW2 9545   2.965   2.300   6.819 -0.8682  0.7388  0.8061
 3049SOL     OW 9546   3.264   4.518   1.633 -0.1737  0.8100  0.6446
 3049SOL    HW1 9547   3.273   4.536   1.539  0.0805  0.9438  0.6933
 3049SOL    HW2 9548   3.353   4.519   1.666 -0.2403  0.4583  0.8362
 3050SOL     OW 9549   2.171   6.222   6.310  0.2064  0.1518  0.2181
 3050SOL    HW1 9550   2.152   6.140   6.264 -2.9292  0.4906  0.7082
 3050SOL    HW2 9551   2.160   6.201   6.402 -0.1279  1.0177  0.3814
 3051SOL     OW 9552   0.488   1.425   2.259 -0.7375  0.0176 -0.7171
 3051SOL    HW1 9553   0.522   1.360   2.197 -0.3867 -0.8637  0.3787
 3051SOL    HW2 9554   0.566   1.473   2.288 -0.7601 -0.2507 -0.1991
 3052SOL     OW 9555   3.678   0.160   4.002  0.4865 -0.7372 -0.5155
 3052SOL    HW1 9556   3.690   0.175   3.908 -3.1168 -0.3481 -1.0610
 3052SOL    HW2 9557   3.707   0.241   4.043 -0.4610  0.1891 -1.6056
 3053SOL     OW 9558   3.086   6.757   4.297 -0.0957  0.2500 -0.0975
 3053SOL    HW1 9559   3.039   6.831   4.260 -0.5618  0.0907  0.1607
 3053SOL    HW2 9560   3.120   6.790   4.381  1.9036  0.9494 -1.1370
 3054SOL     OW 9561   6.371   0.297   4.915 -0.2304 -0.0300  0.2490
 3054SOL    HW1 9562   6.292   0.332   4.955  0.0588 -0.6160  1.3621
 3054SOL    HW2 9563   6.443   0.334   4.967  0.2457  0.5279 -0.7671
 3055SOL     OW 9564   2.216   1.809   1.992 -0.1075  0.6879  0.4465
 3055SOL    HW1 9565   2.209   1.823   2.087 -0.2383 -1.2486  0.7742
 3055SOL    HW2 9566   2.135   1.763   1.969 -0.4824  1.9242 -0.7934
 3056SOL     OW 9567   1.538   0.760   2.454  0.0940 -0.2142 -0.2814
 3056SOL    HW1 9568   1.627   0.754   2.489  0.0907  0.9047 -0.0513
 3056SOL    HW2 9569   1.550   0.782   2.361  0.0720  1.2690  0.0370
 3057SOL     OW 9570   2.787   1.215   3.181 -0.4459  0.0831 -0.2027
 3057SOL    HW1 9571   2.862   1.241   3.126 -0.5928 -0.4994 -0.6840
 3057SOL    HW2 9572   2.826   1.176   3.258 -0.2273  1.2161  0.2872
 3058SOL     OW 9573   6.256   2.278   3.276  0.1979  0.1159 -0.3249
 3058SOL    HW1 9574   6.200   2.286   3.199  0.3314  0.5351 -0.3804
 3058SOL    HW2 9575   6.241   2.358   3.326  1.6007  0.7886 -0.9196
 3059SOL     OW 9576   0.135   3.846   2.921  0.4304 -0.5863  0.4416
 3059SOL    HW1 9577   0.203   3.896   2.877 -1.1568  0.1899 -1.2460
 3059SOL    HW2 9578   0.162   3.844   3.013  2.4820  0.0328 -0.0953
 3060SOL     OW 9579   3.594   6.141   3.331 -0.3959 -0.2729  0.0396
 3060SOL    HW1 9580   3.555   6.062   3.368 -1.0863  0.0456  0.0157
 3060SOL    HW2 9581   3.678   6.150   3.376  0.3965 -1.8361 -1.0229
 3061SOL     OW 9582   6.670   3.434   3.349 -0.4094 -0.2295  0.3060
 3061SOL    HW1 9583   6.599   3.498   3.341  0.6957  1.0652  0.5356
 3061SOL    HW2 9584   6.735   3.477   3.404  0.1066 -1.8171  0.9858
 3062SOL     OW 9585   1.844   4.508   6.585 -0.0773  0.2516 -0.4837
 3062SOL    HW1 9586   1.858   4.414   6.571  1.5176  0.5066 -0.7007
 3062SOL    HW2 9587   1.783   4.511   6.659  0.7229 -0.9486  0.2578
 3063SOL     OW 9588   6.770   5.271   6.767 -0.2927  0.1512 -0.4398
 3063SOL    HW1 9589   6.776   5.323   6.687 -0.2401  1.2938  0.2828
 3063SOL    HW2 9590   6.686   5.226   6.760  0.5291 -1.2312 -1.9705
 3064SOL     OW 9591   5.740   3.651   4.696  0.0380  0.0405 -0.3003
 3064SOL    HW1 9592   5.819   3.701   4.717 -0.1474  0.0010  0.5241
 3064SOL    HW2 9593   5.677   3.716   4.667 -0.4764  0.4345  1.5490
 3065SOL     OW 9594   4.837   5.569   4.685 -0.5787 -0.5614 -0.4865
 3065SOL    HW1 9595   4.834   5.595   4.593  1.5038 -1.2895 -0.8140
 3065SOL    HW2 9596   4.746   5.551   4.708 -1.5248  2.2286 -1.5939
 3066SOL     OW 9597   6.600   0.578   3.258  0.2562 -0.1796 -0.0582
 3066SOL    HW1 9598   6.622   0.529   3.337  0.5537  1.8398  1.1828
 3066SOL    HW2 9599   6.684   0.598   3.217  0.0943 -1.3875 -1.0353
 3067SOL     OW 9600   0.425   3.721   5.030  0.2865  0.0617  0.3046
 3067SOL    HW1 9601   0.369   3.654   5.069  0.3413  0.6116  1.3411
 3067SOL    HW2 9602   0.501   3.673   4.997 -0.8346 -0.7289 -1.2864
 3068SOL     OW 9603   5.566   3.861   3.032 -0.3591 -0.2897  0.2742
 3068SOL    HW1 9604   5.571   3.851   2.937  1.0696  0.4177  0.2524
 3068SOL    HW2 9605   5.635   3.805   3.066 -1.7128 -1.5907  1.0166
 3069SOL     OW 9606   5.292   5.929   3.024  0.2276  0.1570 -0.0940
 3069SOL    HW1 9607   5.229   5.858   3.009 -0.0927  0.3249  0.4394
 3069SOL    HW2 9608   5.280   5.953   3.116  0.8379  0.4199 -0.0826
 3070SOL     OW 9609   3.815   5.603   6.706 -0.8487  0.4387  0.5011
 3070SOL    HW1 9610   3.816   5.699   6.714 -0.1059  0.4444  0.4060
 3070SOL    HW2 9611   3.834   5.572   6.794  2.6643  0.4500 -0.0934
 3071SOL     OW 9612   3.872   2.063   6.288 -0.1621 -0.1651 -0.1147
 3071SOL    HW1 9613   3.896   2.071   6.380  0.9976 -0.6017 -0.3598
 3071SOL    HW2 9614   3.904   1.977   6.263 -0.9519 -0.2686 -0.7944
 3072SOL     OW 9615   4.767   3.325   3.240 -0.3116  0.0850  0.1022
 3072SOL    HW1 9616   4.704   3.253   3.238 -0.4899  0.2413 -0.9222
 3072SOL    HW2 9617   4.851   3.285   3.218 -0.2994  0.0936  0.1326
 3073SOL     OW 9618   1.467   1.773   0.141  0.2883 -0.0533  0.0397
 3073SOL    HW1 9619   1.397   1.750   0.080  0.1895  0.6919 -0.1362
 3073SOL    HW2 9620   1.539   1.713   0.118  0.2378  0.1883 -0.7912
 3074SOL     OW 9621   1.168   1.943   5.984 -0.6973 -0.8226 -0.3525
 3074SOL    HW1 9622   1.218   1.880   5.931  0.6018 -1.2653  1.2971
 3074SOL    HW2 9623   1.229   1.969   6.053 -1.7627  1.0388 -0.0577
 3075SOL     OW 9624   6.078   1.547   4.847  0.2975  0.5076 -0.5638
 3075SOL    HW1 9625   6.031   1.477   4.802  1.1049 -0.1347 -0.4250
 3075SOL    HW2 9626   6.022   1.624   4.835 -0.6121 -0.1533 -0.6971
 3076SOL     OW 9627   4.446   3.666   1.720  0.2437 -0.0699 -0.1951
 3076SOL    HW1 9628   4.454   3.740   1.659 -0.5808  0.3903  0.2317
 3076SOL    HW2 9629   4.531   3.660   1.762  0.1778  0.9767  0.1271
 3077SOL     OW 9630   3.635   4.441   2.930  0.3060  0.0803 -0.2919
 3077SOL    HW1 9631   3.630   4.364   2.873  1.5665 -0.2340 -0.0085
 3077SOL    HW2 9632   3.607   4.514   2.874 -1.0060 -0.5820 -0.5254
 3078SOL     OW 9633   6.682   2.088   1.643  0.7958 -0.4547  0.2482
 3078SOL    HW1 9634   6.617   2.037   1.693  0.6603  0.5855  1.1687
 3078SOL    HW2 9635   6.633   2.121   1.568  0.3982 -0.1608  0.6302
 3079SOL     OW 9636   4.217   1.350   5.997  0.2054 -0.0732  0.0885
 3079SOL    HW1 9637   4.154   1.332   5.927  0.1585  1.7014 -0.3506
 3079SOL    HW2 9638   4.178   1.311   6.075 -1.1005  0.3880 -0.3178
 3080SOL     OW 9639   4.565   1.175   4.912  0.0190  0.2390  0.1085
 3080SOL    HW1 9640   4.598   1.094   4.873 -0.6581  0.8858 -1.9101
 3080SOL    HW2 9641   4.485   1.148   4.958 -0.3002 -0.2423 -0.6939
 3081SOL     OW 9642   3.410   0.369   2.376  0.3458 -0.5993 -0.2577
 3081SOL    HW1 9643   3.356   0.387   2.453  0.5419 -2.7126  0.4389
 3081SOL    HW2 9644   3.478   0.436   2.377  1.0533 -1.2603  2.1236
 3082SOL     OW 9645   3.803   2.261   0.313  0.1698  0.0456  0.5168
 3082SOL    HW1 9646   3.755   2.314   0.249  0.0991  1.1020  1.4295
 3082SOL    HW2 9647   3.875   2.224   0.263  0.8217  1.8201  0.0590
 3083SOL     OW 9648   2.684   1.506   0.472  0.9123  0.0064 -0.3190
 3083SOL    HW1 9649   2.751   1.527   0.407  0.4262  1.6965 -0.3244
 3083SOL    HW2 9650   2.610   1.474   0.420  0.3991  1.6706 -0.6906
 3084SOL     OW 9651   3.465   1.015   0.189  0.2429  0.1852 -0.8869
 3084SOL    HW1 9652   3.413   1.016   0.269 -0.7548  1.4039 -1.5145
 3084SOL    HW2 9653   3.556   1.016   0.219 -0.1069 -0.1116  0.2244
 3085SOL     OW 9654   5.676   0.788   1.932 -0.5647  0.1822  0.1205
 3085SOL    HW1 9655   5.746   0.746   1.983  1.2623 -0.6030 -2.7873
 3085SOL    HW2 9656   5.607   0.804   1.996  2.0465  0.5845  3.1124
 3086SOL     OW 9657   6.050   4.187   5.068 -0.9828 -0.1137 -0.1364
 3086SOL    HW1 9658   6.013   4.243   5.000 -0.0765  1.2116  0.4269
 3086SOL    HW2 9659   6.139   4.168   5.038 -0.1713  1.4014  1.1434
 3087SOL     OW 9660   5.667   5.662   3.973 -0.5781 -0.7985  0.5545
 3087SOL    HW1 9661   5.663   5.757   3.982 -0.3362 -0.7956  0.6318
 3087SOL    HW2 9662   5.758   5.644   3.947  0.0914 -1.2022  2.9544
 3088SOL     OW 9663   1.032   6.234   3.800 -0.0208 -0.0440  0.2363
 3088SOL    HW1 9664   1.091   6.229   3.725  1.1666 -3.2229  1.1982
 3088SOL    HW2 9665   1.054   6.157   3.853 -3.0931  0.1970  2.1426
 3089SOL     OW 9666   3.247   4.995   2.798 -0.1223 -0.2776 -0.1965
 3089SOL    HW1 9667   3.284   5.083   2.810 -0.3924 -0.2657  0.5671
 3089SOL    HW2 9668   3.196   4.979   2.877 -0.4157 -0.9597 -0.5168
 3090SOL     OW 9669   3.230   1.559   3.975 -0.4288 -0.0641 -0.6096
 3090SOL    HW1 9670   3.325   1.569   3.970 -0.4109 -0.3747 -0.9124
 3090SOL    HW2 9671   3.209   1.582   4.066  0.0086 -0.5514 -0.3767
 3091SOL     OW 9672   3.611   1.135   4.736 -0.4922 -0.0126 -0.5788
 3091SOL    HW1 9673   3.575   1.132   4.647  1.0371  0.0143 -1.2407
 3091SOL    HW2 9674   3.699   1.170   4.724  0.1579 -1.0845  0.8002
 3092SOL     OW 9675   3.316   2.078   3.469 -0.4786 -0.2872  0.2877
 3092SOL    HW1 9676   3.354   1.998   3.434 -0.1439 -0.5413  1.2054
 3092SOL    HW2 9677   3.245   2.100   3.408 -1.6200 -2.1569  0.8455
 3093SOL     OW 9678   0.261   4.984   1.167 -0.0614 -0.2506  0.4155
 3093SOL    HW1 9679   0.246   4.936   1.086 -0.9192 -3.1796  2.1557
 3093SOL    HW2 9680   0.309   4.923   1.223  2.0584  2.2934  1.6034
 3094SOL     OW 9681   6.514   4.610   1.057  0.0806 -0.0508 -0.3744
 3094SOL    HW1 9682   6.435   4.564   1.086  0.6286 -0.2204  0.9312
 3094SOL    HW2 9683   6.529   4.677   1.124 -0.6461  2.0389 -2.1849
 3095SOL     OW 9684   5.938   5.904   3.378 -0.0044  0.0246 -0.9013
 3095SOL    HW1 9685   5.874   5.844   3.340 -1.5733  0.7184  0.5501
 3095SOL    HW2 9686   5.928   5.985   3.329 -1.7843  0.8067  0.6255
 3096SOL     OW 9687   0.388   1.545   1.046 -0.2990  0.0685 -0.2752
 3096SOL    HW1 9688   0.322   1.602   1.006  0.1033  0.8104  0.0946
 3096SOL    HW2 9689   0.400   1.580   1.134  1.3248  0.5912 -0.6666
 3097SOL     OW 9690   1.658   6.574   5.924 -0.9317 -0.7128  0.4196
 3097SOL    HW1 9691   1.679   6.483   5.947  1.4515 -0.2117  0.5069
 3097SOL    HW2 9692   1.607   6.606   5.998 -1.8084 -1.9681  0.3864
 3098SOL     OW 9693   3.667   4.927   5.159  0.0671 -0.0590  0.2191
 3098SOL    HW1 9694   3.696   4.913   5.249  1.0496  1.9666  0.2585
 3098SOL    HW2 9695   3.747   4.928   5.107 -0.4652 -0.8738 -0.6536
 3099SOL     OW 9696   6.270   1.130   2.718  0.0120  0.1351 -0.4956
 3099SOL    HW1 9697   6.266   1.035   2.708 -0.1614 -0.0949  1.3011
 3099SOL    HW2 9698   6.304   1.142   2.807 -1.2345  1.7329 -0.2001
 3100SOL     OW 9699   3.117   2.237   5.554 -0.8718  0.0853 -0.4279
 3100SOL    HW1 9700   3.066   2.235   5.635 -1.6437 -0.2502 -0.9022
 3100SOL    HW2 9701   3.054   2.264   5.487 -0.8879 -1.9558 -1.3286
 3101SOL     OW 9702   0.252   5.406   4.457 -0.3981  0.0564  0.2636
 3101SOL    HW1 9703   0.340   5.432   4.430 -0.3920 -1.1034 -0.9368
 3101SOL    HW2 9704   0.216   5.484   4.499  1.2436  0.5111  0.9320
 3102SOL     OW 9705   3.937   2.124   1.437  0.7250 -0.3889  0.1544
 3102SOL    HW1 9706   3.866   2.066   1.464  0.2388 -1.9383 -3.8333
 3102SOL    HW2 9707   3.893   2.204   1.410  0.6019 -0.8186 -0.9599
 3103SOL     OW 9708   5.905   4.335   0.533 -0.5894  0.0278 -0.0163
 3103SOL    HW1 9709   5.949   4.250   0.526 -0.5303  0.1442 -1.1546
 3103SOL    HW2 9710   5.919   4.377   0.448 -2.2017  0.4065 -0.1268
 3104SOL     OW 9711   3.491   2.339   4.651 -0.0866  0.8825 -0.2992
 3104SOL    HW1 9712   3.456   2.396   4.720  2.7743  2.5901 -0.0741
 3104SOL    HW2 9713   3.575   2.309   4.686  0.5843  0.2734 -2.2911
 3105SOL     OW 9714   3.148   4.568   4.653  0.1518 -0.1750  0.3550
 3105SOL    HW1 9715   3.063   4.609   4.637  0.2385 -0.0417  0.2344
 3105SOL    HW2 9716   3.171   4.528   4.569 -0.0489 -0.6876  0.5366
 3106SOL     OW 9717   3.055   2.718   1.505 -0.2206 -0.4504  0.6040
 3106SOL    HW1 9718   3.015   2.805   1.506  2.7291  1.0230  0.4545
 3106SOL    HW2 9719   3.056   2.693   1.412 -1.6702 -0.9986  0.7111
 3107SOL     OW 9720   6.159   2.740   5.200  0.3495 -0.0567 -0.4063
 3107SOL    HW1 9721   6.202   2.701   5.276 -0.0033  1.2218  0.5016
 3107SOL    HW2 9722   6.222   2.732   5.129  1.4116  0.2765  0.4754
 3108SOL     OW 9723   5.687   0.088   0.978  0.2069 -0.7499 -0.4853
 3108SOL    HW1 9724   5.656   0.166   1.024 -0.7181 -1.5744  0.3543
 3108SOL    HW2 9725   5.623   0.075   0.907 -0.7828 -1.7996  0.5481
 3109SOL     OW 9726   2.237   0.797   5.506 -0.3970  0.2589 -0.0673
 3109SOL    HW1 9727   2.262   0.712   5.468  2.7105  0.9836  0.0876
 3109SOL    HW2 9728   2.272   0.862   5.445  0.8371  1.4182  1.7709
 3110SOL     OW 9729   3.831   5.034   3.773  0.4013  0.4352  0.2054
 3110SOL    HW1 9730   3.826   4.946   3.811 -2.9676  0.6081  0.4304
 3110SOL    HW2 9731   3.782   5.027   3.691  0.8501  1.9053 -0.2068
 3111SOL     OW 9732   5.231   6.341   3.950  0.0546  0.2536  0.0242
 3111SOL    HW1 9733   5.172   6.363   4.022 -1.3268 -0.8634 -0.7108
 3111SOL    HW2 9734   5.191   6.264   3.909  1.8843 -0.3670 -0.7030
 3112SOL     OW 9735   1.659   6.638   3.595  0.1066 -0.2961 -0.0454
 3112SOL    HW1 9736   1.648   6.684   3.512 -0.2782 -0.9052 -0.3433
 3112SOL    HW2 9737   1.752   6.647   3.615  0.0110  0.7275 -0.0173
 3113SOL     OW 9738   3.793   3.924   1.463 -0.1239 -0.2591 -0.1310
 3113SOL    HW1 9739   3.849   3.999   1.439 -0.3384  0.0826  0.4298
 3113SOL    HW2 9740   3.717   3.964   1.505 -0.3923 -0.7795 -0.1231
 3114SOL     OW 9741   5.826   5.093   0.048 -0.2803  0.6604 -0.5502
 3114SOL    HW1 9742   5.794   5.158   0.110 -0.4163 -0.4454  0.5683
 3114SOL    HW2 9743   5.878   5.033   0.100 -0.6140 -0.4517 -1.4573
 3115SOL     OW 9744   2.837   3.822   0.460 -0.1604 -0.1567  0.3362
 3115SOL    HW1 9745   2.791   3.818   0.544  0.8630 -2.9479  0.8598
 3115SOL    HW2 9746   2.785   3.883   0.407 -1.1162  1.2868  2.7876
 3116SOL     OW 9747   2.412   1.654   0.671  0.0825  0.0481 -0.1882
 3116SOL    HW1 9748   2.501   1.674   0.644  0.3301 -1.0746 -0.2525
 3116SOL    HW2 9749   2.403   1.695   0.757  0.8993 -0.4124  0.1294
 3117SOL     OW 9750   5.758   2.755   4.331  0.0195  0.0683  0.3382
 3117SOL    HW1 9751   5.824   2.688   4.349 -0.8483 -1.3454 -1.3569
 3117SOL    HW2 9752   5.678   2.722   4.371 -0.7247 -0.6233 -1.6092
 3118SOL     OW 9753   5.203   5.303   4.109 -0.1750 -0.1365  0.3502
 3118SOL    HW1 9754   5.290   5.287   4.072  0.3346 -1.1843  1.9226
 3118SOL    HW2 9755   5.150   5.331   4.034  1.9106  2.2702 -0.3585
 3119SOL     OW 9756   5.036   1.845   1.913 -0.1392 -0.1944  0.0592
 3119SOL    HW1 9757   5.120   1.851   1.868 -0.0700 -1.4043 -0.0226
 3119SOL    HW2 9758   5.030   1.753   1.939  0.1221  0.5884  3.1527
 3120SOL     OW 9759   3.310   4.558   5.733 -0.1634 -0.5875 -0.4206
 3120SOL    HW1 9760   3.224   4.534   5.698  0.7855 -3.4437 -1.0708
 3120SOL    HW2 9761   3.300   4.551   5.828 -0.8056 -0.3070 -0.4652
 3121SOL     OW 9762   6.284   5.295   4.680  0.1001  0.3242  0.0002
 3121SOL    HW1 9763   6.367   5.257   4.708 -0.4131 -1.8436 -1.2251
 3121SOL    HW2 9764   6.225   5.279   4.754  0.5098  1.0601  0.5040
 3122SOL     OW 9765   0.438   5.424   0.184 -0.0705  0.1456 -0.7345
 3122SOL    HW1 9766   0.345   5.424   0.162  0.0164  0.9484 -1.1406
 3122SOL    HW2 9767   0.461   5.331   0.190 -1.5393 -0.1450  2.1992
 3123SOL     OW 9768   5.201   6.359   3.195 -0.5679  0.4399  0.6554
 3123SOL    HW1 9769   5.243   6.316   3.121  1.7058  1.3546  1.3090
 3123SOL    HW2 9770   5.144   6.425   3.155 -0.7171 -0.2260 -0.2655
 3124SOL     OW 9771   0.782   2.788   1.649 -0.5517 -0.0559  0.5633
 3124SOL    HW1 9772   0.711   2.837   1.608  0.0141  0.6816  0.4346
 3124SOL    HW2 9773   0.850   2.854   1.665 -0.8204 -0.2552  2.8704
 3125SOL     OW 9774   1.690   4.981   5.718  0.2772  0.2170  0.4209
 3125SOL    HW1 9775   1.660   4.923   5.648  1.3300  0.2096 -0.0496
 3125SOL    HW2 9776   1.610   5.007   5.764 -0.4090 -0.0156 -0.5986
 3126SOL     OW 9777   3.307   4.771   4.750 -0.1453  0.4452 -0.1077
 3126SOL    HW1 9778   3.324   4.830   4.677  3.0421  0.0912  0.1970
 3126SOL    HW2 9779   3.256   4.699   4.711  0.1816  0.9998 -1.6317
 3127SOL     OW 9780   6.551   5.798   2.513 -0.6172 -0.2798  0.0229
 3127SOL    HW1 9781   6.584   5.814   2.601  0.8042  0.7318 -0.6536
 3127SOL    HW2 9782   6.595   5.864   2.458 -2.4532 -0.0288 -1.2377
 3128SOL     OW 9783   0.896   2.778   6.292 -0.1705  0.2376  0.0459
 3128SOL    HW1 9784   0.813   2.747   6.328 -1.3108 -0.3868 -2.8412
 3128SOL    HW2 9785   0.896   2.872   6.310  0.1663 -0.2349  3.0102
 3129SOL     OW 9786   1.250   5.997   1.997 -0.0231  0.6078 -0.4532
 3129SOL    HW1 9787   1.219   6.085   1.980  1.4433  1.7030  2.0308
 3129SOL    HW2 9788   1.279   5.965   1.911 -0.8637  2.3921 -1.4609
 3130SOL     OW 9789   1.053   6.485   0.556  0.1989 -0.1553  0.3157
 3130SOL    HW1 9790   1.006   6.567   0.536 -0.6789 -0.6718  0.2008
 3130SOL    HW2 9791   0.985   6.418   0.556  0.8804 -0.8625  0.6139
 3131SOL     OW 9792   3.540   0.348   0.935 -0.1454  0.2207  0.3739
 3131SOL    HW1 9793   3.490   0.399   0.871 -0.9330 -0.0181  0.7891
 3131SOL    HW2 9794   3.622   0.397   0.946  0.1699  0.0690 -1.0804
 3132SOL     OW 9795   0.827   4.455   4.936 -0.3631  0.0949 -0.5203
 3132SOL    HW1 9796   0.744   4.443   4.983 -1.0609 -0.6072 -1.8559
 3132SOL    HW2 9797   0.866   4.367   4.933  0.7526  0.5263  0.6249
 3133SOL     OW 9798   4.242   4.876   4.244  0.0499 -0.1158  0.7544
 3133SOL    HW1 9799   4.305   4.879   4.172 -2.0629  3.3246 -1.2725
 3133SOL    HW2 9800   4.181   4.806   4.220  0.9314 -0.9033  0.7485
 3134SOL     OW 9801   5.476   6.091   6.453 -0.0702 -0.2045  0.1259
 3134SOL    HW1 9802   5.545   6.149   6.421  0.9712 -1.3403  0.2246
 3134SOL    HW2 9803   5.517   6.043   6.524 -1.3273 -0.1229  0.9285
 3135SOL     OW 9804   3.592   4.321   2.396 -0.1933  0.8043  0.3700
 3135SOL    HW1 9805   3.532   4.395   2.404 -2.1033 -0.6194 -0.1551
 3135SOL    HW2 9806   3.607   4.292   2.486  1.1021  2.1620  0.6431
 3136SOL     OW 9807   0.058   5.115   2.361 -0.3198  0.3903 -0.6267
 3136SOL    HW1 9808   0.130   5.053   2.377 -0.8807 -0.7217 -2.1943
 3136SOL    HW2 9809   0.101   5.194   2.330  0.2948  0.0936 -0.5544
 3137SOL     OW 9810   5.918   1.641   0.813  0.3506 -0.1259 -0.2557
 3137SOL    HW1 9811   5.908   1.701   0.886  1.4580  0.3031 -0.4256
 3137SOL    HW2 9812   6.004   1.663   0.776  0.1728 -0.8901 -1.1665
 3138SOL     OW 9813   4.250   0.124   0.694 -0.7399 -0.2833  0.2883
 3138SOL    HW1 9814   4.298   0.191   0.646  0.4270 -0.8546  0.6275
 3138SOL    HW2 9815   4.285   0.128   0.783 -1.1050 -0.9259  0.4682
 3139SOL     OW 9816   2.547   1.871   5.366 -0.1147 -0.3676 -0.2421
 3139SOL    HW1 9817   2.641   1.886   5.374  0.2113 -2.4307  0.4153
 3139SOL    HW2 9818   2.539   1.782   5.333 -1.8390 -0.4634  0.3060
 3140SOL     OW 9819   6.330   2.999   4.524  0.5357  0.2561  0.0458
 3140SOL    HW1 9820   6.417   3.038   4.534  0.1311  1.3699 -0.5810
 3140SOL    HW2 9821   6.273   3.053   4.579 -0.0454  0.6085 -0.8707
 3141SOL     OW 9822   5.864   5.526   3.069  0.3865  0.6016 -0.5814
 3141SOL    HW1 9823   5.870   5.619   3.091  0.7736  0.1476  1.4436
 3141SOL    HW2 9824   5.955   5.495   3.071  0.0796 -0.3016  1.2126
 3142SOL     OW 9825   2.871   1.152   6.746 -0.5275 -0.1744  0.2488
 3142SOL    HW1 9826   2.847   1.068   6.708 -1.4564  0.8278 -1.5423
 3142SOL    HW2 9827   2.925   1.194   6.680  0.5661  0.3581  1.4345
 3143SOL     OW 9828   1.523   1.804   1.368  0.0940 -0.1789  0.0847
 3143SOL    HW1 9829   1.524   1.869   1.439  1.1827  1.4696 -1.3489
 3143SOL    HW2 9830   1.520   1.720   1.413  0.1355  0.8160  2.0742
 3144SOL     OW 9831   3.563   0.340   6.407 -0.0269 -0.2105  0.0918
 3144SOL    HW1 9832   3.610   0.362   6.326  0.3392 -3.2038 -0.6292
 3144SOL    HW2 9833   3.518   0.258   6.386 -2.5178  0.5676  1.9809
 3145SOL     OW 9834   0.933   0.703   1.920  0.0651 -0.1310  1.2941
 3145SOL    HW1 9835   0.960   0.647   1.993  0.5584 -1.0274  0.4456
 3145SOL    HW2 9836   1.015   0.735   1.883 -0.1241 -0.6799  0.3774
 3146SOL     OW 9837   0.190   1.195   0.570 -0.3859  0.2782 -0.0361
 3146SOL    HW1 9838   0.270   1.228   0.529  0.0458 -0.2416  0.3706
 3146SOL    HW2 9839   0.208   1.102   0.586 -0.8417  0.2927  0.5879
 3147SOL     OW 9840   2.592   6.101   6.375  0.5914 -0.1335 -0.3038
 3147SOL    HW1 9841   2.572   6.193   6.360  0.7233 -0.1703 -0.7112
 3147SOL    HW2 9842   2.506   6.059   6.385  0.5570  0.2503  1.2618
 3148SOL     OW 9843   0.193   6.267   5.472  0.3410 -0.1367  0.1793
 3148SOL    HW1 9844   0.122   6.266   5.536  0.4615  1.8151  0.4005
 3148SOL    HW2 9845   0.271   6.242   5.522 -0.0161 -1.4018  0.1338
 3149SOL     OW 9846   4.313   3.973   5.466 -0.3531 -0.4495  0.5401
 3149SOL    HW1 9847   4.226   4.009   5.482  0.1897  0.7411  0.9304
 3149SOL    HW2 9848   4.305   3.927   5.382 -0.6769  2.1780 -0.9830
 3150SOL     OW 9849   6.254   6.310   0.428 -0.0814 -0.2677 -0.9362
 3150SOL    HW1 9850   6.321   6.312   0.497 -2.4948  1.1726  1.5492
 3150SOL    HW2 9851   6.293   6.359   0.356  1.0760  1.8015  0.9647
 3151SOL     OW 9852   1.215   2.678   3.266  0.2856 -0.2734 -0.6435
 3151SOL    HW1 9853   1.262   2.602   3.231  1.8289 -0.3857  1.4943
 3151SOL    HW2 9854   1.276   2.751   3.256 -0.1146  0.1256 -0.2148
 3152SOL     OW 9855   5.061   6.346   5.877 -0.0343 -0.4251  0.6210
 3152SOL    HW1 9856   5.064   6.279   5.945 -2.6842  0.2505  1.5367
 3152SOL    HW2 9857   5.008   6.306   5.807  1.6006 -0.6448 -0.5368
 3153SOL     OW 9858   1.105   0.842   4.060 -0.1887  0.4194  0.5453
 3153SOL    HW1 9859   1.125   0.809   4.147 -0.2521 -0.8980  0.0717
 3153SOL    HW2 9860   1.016   0.811   4.043 -0.3539  1.0678  0.1933
 3154SOL     OW 9861   6.516   0.187   1.937 -0.1430  0.4852 -0.4383
 3154SOL    HW1 9862   6.441   0.162   1.883 -0.9538  2.6350 -0.4157
 3154SOL    HW2 9863   6.499   0.147   2.023 -1.3807  1.0901 -0.3828
 3155SOL     OW 9864   4.389   0.608   0.175 -0.2519 -0.4058  0.2009
 3155SOL    HW1 9865   4.459   0.661   0.213  1.4537 -0.7445 -2.2060
 3155SOL    HW2 9866   4.410   0.606   0.081 -3.4457 -0.6612 -0.6089
 3156SOL     OW 9867   5.309   5.292   6.528 -0.2346 -0.1326 -0.0967
 3156SOL    HW1 9868   5.286   5.200   6.517  0.9379 -0.5815  1.0010
 3156SOL    HW2 9869   5.270   5.317   6.611  2.3340 -0.6631  1.3642
 3157SOL     OW 9870   4.183   6.506   1.275  0.1037  0.3955 -0.3654
 3157SOL    HW1 9871   4.151   6.444   1.210  1.0579 -0.4477 -0.0637
 3157SOL    HW2 9872   4.129   6.584   1.263 -0.7153 -0.2761 -1.1616
 3158SOL     OW 9873   4.843   0.261   5.795  0.2182  0.2268  0.1546
 3158SOL    HW1 9874   4.877   0.172   5.790 -0.5654 -0.0713  0.0654
 3158SOL    HW2 9875   4.855   0.296   5.706 -0.3730 -0.1294 -0.0720
 3159SOL     OW 9876   0.888   2.405   2.022  0.9356  0.0517  0.1148
 3159SOL    HW1 9877   0.804   2.439   2.054  1.4826  1.1836  0.3957
 3159SOL    HW2 9878   0.873   2.312   2.011 -0.0880  0.0794  1.0750
 3160SOL     OW 9879   0.344   3.680   0.795 -0.4902 -0.0231 -0.2610
 3160SOL    HW1 9880   0.319   3.607   0.738 -0.8408  0.7826 -1.1739
 3160SOL    HW2 9881   0.402   3.733   0.741 -1.0555  0.9078  0.0229
 3161SOL     OW 9882   5.813   4.694   5.915 -0.2282  0.5187  0.7552
 3161SOL    HW1 9883   5.770   4.614   5.884  2.5666 -0.9669  0.3882
 3161SOL    HW2 9884   5.885   4.663   5.970  0.9258  2.7803  0.6519
 3162SOL     OW 9885   5.721   3.424   0.488  0.2376 -0.3961 -0.2109
 3162SOL    HW1 9886   5.648   3.469   0.447  0.3847 -0.8258 -0.9598
 3162SOL    HW2 9887   5.700   3.331   0.480  1.5669 -0.6102 -1.8443
 3163SOL     OW 9888   0.806   2.384   5.579 -0.3590 -0.2247 -0.3310
 3163SOL    HW1 9889   0.801   2.479   5.578  0.8719 -0.1246 -1.5259
 3163SOL    HW2 9890   0.729   2.355   5.530 -0.8178  0.1451  0.1681
 3164SOL     OW 9891   0.935   6.259   2.473  0.0176  0.2396 -0.4015
 3164SOL    HW1 9892   0.896   6.231   2.390 -0.1279 -0.9157  0.0380
 3164SOL    HW2 9893   1.025   6.283   2.450  0.4589 -1.5247 -0.6783
 3165SOL     OW 9894   6.219   1.460   6.133 -0.0780 -1.0563 -0.3535
 3165SOL    HW1 9895   6.196   1.369   6.151 -2.3637 -0.7804 -1.5870
 3165SOL    HW2 9896   6.146   1.511   6.167 -0.3127  0.0731 -2.4101
 3166SOL     OW 9897   0.569   4.523   5.370 -0.6187 -0.0155  0.4312
 3166SOL    HW1 9898   0.639   4.471   5.410  0.7938  0.5427 -1.1648
 3166SOL    HW2 9899   0.579   4.508   5.276 -2.6084  0.1785  0.1596
 3167SOL     OW 9900   5.777   6.605   0.423  0.7442 -0.3051 -0.0831
 3167SOL    HW1 9901   5.707   6.553   0.384 -1.8411  2.4563  0.4840
 3167SOL    HW2 9902   5.794   6.674   0.359 -0.0383  1.3992  1.4403
 3168SOL     OW 9903   3.563   5.720   1.323 -0.5304  0.1610  0.7008
 3168SOL    HW1 9904   3.625   5.709   1.251 -0.0078  2.6262  0.6687
 3168SOL    HW2 9905   3.495   5.655   1.306  0.5458 -0.6092 -0.9412
 3169SOL     OW 9906   1.867   3.610   6.064  0.5880  0.4239  0.0666
 3169SOL    HW1 9907   1.772   3.601   6.064  0.7430 -1.8009 -0.8440
 3169SOL    HW2 9908   1.885   3.676   5.996 -0.2396 -0.0945 -0.6681
 3170SOL     OW 9909   4.229   0.529   5.119  0.0524 -0.3866 -0.7819
 3170SOL    HW1 9910   4.297   0.597   5.115  0.0115 -0.3445 -0.7662
 3170SOL    HW2 9911   4.264   0.465   5.182 -1.3328  1.2418  1.8518
 3171SOL     OW 9912   2.570   0.926   5.004  0.3775 -0.6882 -0.5590
 3171SOL    HW1 9913   2.561   0.971   4.920  0.2440 -0.7875 -0.5988
 3171SOL    HW2 9914   2.584   0.834   4.981 -0.5052 -0.8571 -0.4640
 3172SOL     OW 9915   0.362   4.277   3.954 -0.1444 -0.1596  0.0744
 3172SOL    HW1 9916   0.344   4.310   3.866 -0.3828  0.6036  0.4028
 3172SOL    HW2 9917   0.375   4.356   4.007 -0.1429 -0.6110  0.7535
 3173SOL     OW 9918   2.117   2.158   1.510  0.1483  0.3788 -0.4536
 3173SOL    HW1 9919   2.166   2.075   1.504 -2.4785 -1.6113  2.1829
 3173SOL    HW2 9920   2.047   2.149   1.446 -0.4704  0.2298  0.2222
 3174SOL     OW 9921   2.645   3.178   4.873  0.2953  0.5973 -0.9356
 3174SOL    HW1 9922   2.731   3.170   4.914  0.6356  1.8917 -1.3401
 3174SOL    HW2 9923   2.594   3.232   4.933 -0.7784 -1.3613  0.0396
 3175SOL     OW 9924   2.444   4.484   4.195  0.0314 -0.0513  0.1147
 3175SOL    HW1 9925   2.348   4.474   4.194  0.0870 -0.7702 -2.0019
 3175SOL    HW2 9926   2.467   4.507   4.105  1.7630  1.4612  0.8708
 3176SOL     OW 9927   6.738   1.512   1.289  0.0380 -0.2083 -0.4892
 3176SOL    HW1 9928   6.679   1.528   1.363 -1.3762 -0.0581 -1.6115
 3176SOL    HW2 9929   6.817   1.562   1.310 -0.7281  0.6485  0.4386
 3177SOL     OW 9930   0.211   2.867   6.424 -0.3153 -0.2462 -0.1427
 3177SOL    HW1 9931   0.184   2.958   6.424  0.9162  0.1279 -0.3034
 3177SOL    HW2 9932   0.169   2.829   6.347 -2.1036 -0.2254  0.7689
 3178SOL     OW 9933   3.154   6.604   1.555 -0.2853  0.6584  0.5904
 3178SOL    HW1 9934   3.231   6.548   1.557  0.2289  1.2564 -0.9117
 3178SOL    HW2 9935   3.167   6.665   1.628  0.1893  0.1501  0.9355
 3179SOL     OW 9936   2.684   3.631   6.602  0.6555  0.3035  0.1244
 3179SOL    HW1 9937   2.642   3.691   6.539  2.9087  0.9059 -0.8951
 3179SOL    HW2 9938   2.673   3.545   6.562 -2.0152  0.0089  1.2721
 3180SOL     OW 9939   3.055   0.449   3.325  0.0870 -0.7219  0.4681
 3180SOL    HW1 9940   3.007   0.419   3.402 -3.1228  1.1284 -0.6406
 3180SOL    HW2 9941   3.000   0.518   3.287  2.2477 -0.4974 -2.6600
 3181SOL     OW 9942   5.869   6.307   3.677  0.1819 -0.1939  0.0281
 3181SOL    HW1 9943   5.894   6.383   3.730  1.8707 -2.2097  2.3605
 3181SOL    HW2 9944   5.916   6.318   3.595 -0.7034  1.9106 -0.2679
 3182SOL     OW 9945   0.743   3.506   1.774 -0.3536 -0.6869 -0.2038
 3182SOL    HW1 9946   0.692   3.443   1.724  1.3043 -2.8215  0.6615
 3182SOL    HW2 9947   0.831   3.501   1.737  0.0340  0.4693  0.4895
 3183SOL     OW 9948   2.152   5.645   4.096 -0.2792 -0.1819  0.4165
 3183SOL    HW1 9949   2.179   5.713   4.035  0.7062 -1.3797 -0.5204
 3183SOL    HW2 9950   2.193   5.669   4.179 -0.8408  0.9313  0.3932
 3184SOL     OW 9951   1.161   2.441   5.364 -0.4658 -0.2314  0.2665
 3184SOL    HW1 9952   1.213   2.519   5.349  0.0311 -0.9149 -1.7856
 3184SOL    HW2 9953   1.205   2.395   5.436  0.7407  0.0784 -0.2656
 3185SOL     OW 9954   5.758   1.975   0.528  0.4731  0.0137  0.5265
 3185SOL    HW1 9955   5.689   1.908   0.527  1.4941 -1.1448 -1.8336
 3185SOL    HW2 9956   5.711   2.058   0.520 -0.6918 -0.7512 -1.1356
 3186SOL     OW 9957   6.613   6.744   0.132  0.3932  0.0199  0.4752
 3186SOL    HW1 9958   6.624   6.735   0.227  0.3472 -0.0170  0.4765
 3186SOL    HW2 9959   6.653   6.829   0.112 -0.6944  0.5964  0.7057
 3187SOL     OW 9960   5.301   4.460   4.016 -0.5184  0.4350 -0.7606
 3187SOL    HW1 9961   5.303   4.457   3.920 -0.8595 -0.1016 -0.7551
 3187SOL    HW2 9962   5.214   4.493   4.037 -1.5493 -2.1396 -0.6094
 3188SOL     OW 9963   4.397   5.553   3.955 -0.1573 -0.3518 -0.2672
 3188SOL    HW1 9964   4.369   5.554   4.046  0.6325 -1.4883  0.0173
 3188SOL    HW2 9965   4.399   5.645   3.929  0.5339  0.0623  1.1617
 3189SOL     OW 9966   0.087   3.972   5.926 -0.1601  0.2277 -0.0556
 3189SOL    HW1 9967   0.144   4.027   5.873  2.0119 -0.9609  0.9232
 3189SOL    HW2 9968   0.118   3.986   6.016  0.5565 -2.6163  0.2137
 3190SOL     OW 9969   2.203   3.323   2.751 -0.0348 -0.2245 -0.3329
 3190SOL    HW1 9970   2.217   3.316   2.845 -0.8356 -1.2975 -0.2768
 3190SOL    HW2 9971   2.202   3.417   2.733 -0.6199  0.0019  0.8481
 3191SOL     OW 9972   0.166   4.645   0.398 -0.6635  0.1541  0.6230
 3191SOL    HW1 9973   0.093   4.584   0.388 -0.3595 -0.0722 -0.3694
 3191SOL    HW2 9974   0.227   4.599   0.455  0.2697 -1.2046 -1.3410
 3192SOL     OW 9975   6.413   5.272   1.717  0.2416  0.9902 -0.0796
 3192SOL    HW1 9976   6.507   5.267   1.700  0.1226  0.5034 -0.6327
 3192SOL    HW2 9977   6.391   5.186   1.752 -0.0249  1.0565 -0.0867
 3193SOL     OW 9978   2.024   5.128   1.933  0.3164 -0.0272  0.1241
 3193SOL    HW1 9979   2.088   5.197   1.913 -0.4268  0.7537  0.4122
 3193SOL    HW2 9980   2.022   5.124   2.028  0.2283 -0.3285  0.1094
 3194SOL     OW 9981   2.537   1.091   3.564 -0.4104  0.9076  0.4182
 3194SOL    HW1 9982   2.525   1.185   3.578 -1.3899  1.0359 -1.0741
 3194SOL    HW2 9983   2.483   1.071   3.488  0.3298 -0.7419  0.2854
 3195SOL     OW 9984   2.727   1.480   5.342  0.2701  0.2477 -0.4413
 3195SOL    HW1 9985   2.710   1.524   5.425 -0.9289  0.6836 -0.8977
 3195SOL    HW2 9986   2.822   1.485   5.332  0.5784 -0.9073  1.4729
 3196SOL     OW 9987   3.588   2.688   4.189 -0.0026  0.0895 -0.0762
 3196SOL    HW1 9988   3.513   2.667   4.245  0.5083  0.3268  0.7140
 3196SOL    HW2 9989   3.608   2.606   4.144 -1.7171  0.3979 -1.5299
 3197SOL     OW 9990   4.598   0.843   3.820  0.5263 -0.3408  0.3746
 3197SOL    HW1 9991   4.685   0.852   3.781  1.1937  0.3024  1.9389
 3197SOL    HW2 9992   4.607   0.772   3.883  0.0800  0.1208  0.9707
 3198SOL     OW 9993   4.892   5.967   5.028 -0.0735 -0.0098  0.3084
 3198SOL    HW1 9994   4.865   5.973   4.936 -0.4912  1.3907  0.4967
 3198SOL    HW2 9995   4.987   5.978   5.025 -0.2398  1.5262  0.1460
 3199SOL     OW 9996   0.144   2.173   1.728  0.0306 -0.2681  0.1808
 3199SOL    HW1 9997   0.050   2.155   1.719 -0.1694  0.7890 -0.0714
 3199SOL    HW2 9998   0.185   2.087   1.735 -0.5787 -1.0118 -3.4790
 3200SOL     OW 9999   5.591   1.613   4.678 -0.0614 -0.1399 -0.0219
 3200SOL    HW110000   5.503   1.588   4.706 -0.1080 -0.2370 -0.2559
 3200SOL    HW210001   5.618   1.680   4.741 -0.1982 -0.2983  0.2082
 3201SOL     OW10002   5.364   0.811   3.254  0.0709 -0.0117  0.4436
 3201SOL    HW110003   5.371   0.845   3.165  0.9829 -2.1289 -0.3747
 3201SOL    HW210004   5.406   0.877   3.308 -0.4108  1.2730 -0.7051
 3202SOL     OW10005   1.857   4.162   2.001  0.0737  0.7846  0.2142
 3202SOL    HW110006   1.834   4.239   1.948 -1.8811 -1.4255 -2.4713
 3202SOL    HW210007   1.786   4.154   2.064  0.2527  1.1462  0.4636
 3203SOL     OW10008   4.341   2.221   4.081 -0.1533  0.1028 -0.0941
 3203SOL    HW110009   4.265   2.162   4.077 -0.4968  0.5821 -1.1880
 3203SOL    HW210010   4.398   2.190   4.010 -0.3131  1.0250 -0.6472
 3204SOL     OW10011   2.947   3.622   5.439 -0.3454 -0.5486 -0.7301
 3204SOL    HW110012   2.874   3.574   5.400 -0.3634 -1.7235  0.6927
 3204SOL    HW210013   2.980   3.564   5.508  2.9299 -0.7993 -2.3075
 3205SOL     OW10014   2.495   0.262   3.894  0.4178 -0.3852 -0.1384
 3205SOL    HW110015   2.485   0.238   3.802 -2.2968  0.3601 -0.1340
 3205SOL    HW210016   2.463   0.185   3.942 -0.1425  0.0045  0.1141
 3206SOL     OW10017   5.904   2.143   1.418  0.2878  0.0943 -0.5619
 3206SOL    HW110018   5.920   2.100   1.502  0.8153 -0.4924 -0.9534
 3206SOL    HW210019   5.846   2.084   1.372 -0.3875  0.6470 -0.4314
 3207SOL     OW10020   3.735   6.443   0.431  0.0106  0.1827 -0.2983
 3207SOL    HW110021   3.817   6.459   0.385  0.1374  0.5557  0.0443
 3207SOL    HW210022   3.736   6.506   0.504  0.7908 -1.7708  1.4833
 3208SOL     OW10023   4.516   0.064   6.384  0.0232 -0.9539 -0.1000
 3208SOL    HW110024   4.586   0.083   6.322 -1.6056 -0.5233 -1.8992
 3208SOL    HW210025   4.539   0.115   6.462  0.9284  0.4292 -1.2182
 3209SOL     OW10026   2.265   3.129   0.386 -0.0330  0.1928 -0.4284
 3209SOL    HW110027   2.343   3.169   0.349  0.5888 -1.1709 -0.6335
 3209SOL    HW210028   2.217   3.095   0.311  0.3647 -1.0437 -0.1439
 3210SOL     OW10029   3.285   3.107   1.989 -0.1174  0.2831 -0.2054
 3210SOL    HW110030   3.258   3.051   1.916 -0.2819  1.8008 -1.3834
 3210SOL    HW210031   3.347   3.168   1.950  0.9272  0.2221  1.2882
 3211SOL     OW10032   0.304   4.016   6.657  0.2766 -0.4862  0.2849
 3211SOL    HW110033   0.393   3.982   6.644  0.3167 -0.2819  0.0152
 3211SOL    HW210034   0.254   3.942   6.689  0.5450 -0.6063  0.4254
 3212SOL     OW10035   6.490   3.547   5.738  0.0112 -0.5113 -0.1585
 3212SOL    HW110036   6.473   3.640   5.755 -1.8706 -0.4995 -1.6732
 3212SOL    HW210037   6.451   3.502   5.812  2.3158 -0.1022  1.3972
 3213SOL     OW10038   2.130   4.232   0.580 -0.0174  0.1414 -0.4128
 3213SOL    HW110039   2.141   4.320   0.617  1.3514 -0.2951  0.3155
 3213SOL    HW210040   2.137   4.244   0.486  0.2424  0.8181 -0.3126
 3214SOL     OW10041   4.161   4.036   1.933 -0.0611  0.4215  0.7099
 3214SOL    HW110042   4.255   4.027   1.948  0.3952  0.1440 -1.9073
 3214SOL    HW210043   4.128   3.947   1.934  0.0230  0.3724  0.0341
 3215SOL     OW10044   4.199   2.275   0.964 -0.1973  0.4706 -0.4501
 3215SOL    HW110045   4.265   2.222   0.918  0.8712  2.1124 -0.9207
 3215SOL    HW210046   4.148   2.315   0.894  0.0764  1.3360 -0.1681
 3216SOL     OW10047   5.199   1.155   4.944 -0.8264 -0.8242  0.6241
 3216SOL    HW110048   5.118   1.183   4.900  0.6361 -0.4357 -2.0611
 3216SOL    HW210049   5.240   1.236   4.974 -1.1128 -0.9694  1.4315
 3217SOL     OW10050   4.302   6.211   4.740  0.3354 -0.4779  0.0969
 3217SOL    HW110051   4.350   6.282   4.783  1.9659 -0.1403 -2.1365
 3217SOL    HW210052   4.368   6.143   4.724 -0.5389 -1.2028 -0.5518
 3218SOL     OW10053   2.373   0.564   4.712 -0.3835 -0.3072 -0.0252
 3218SOL    HW110054   2.364   0.569   4.617 -0.1386 -0.9065 -0.0884
 3218SOL    HW210055   2.379   0.470   4.730 -0.1739 -0.1876  0.5557
 3219SOL     OW10056   1.688   4.341   1.839  0.1981 -0.3405 -0.1275
 3219SOL    HW110057   1.689   4.416   1.780  0.1786  0.5154  0.9306
 3219SOL    HW210058   1.617   4.286   1.807 -0.1744  0.3888 -0.5720
 3220SOL     OW10059   4.333   1.434   2.085  0.0822  0.4672  0.4385
 3220SOL    HW110060   4.320   1.465   1.995  0.8364 -1.0300 -0.2264
 3220SOL    HW210061   4.288   1.349   2.087 -0.5416  0.8060  1.7000
 3221SOL     OW10062   0.346   0.500   2.647  0.6992  0.5497  0.0287
 3221SOL    HW110063   0.363   0.506   2.554  0.4923  1.5213  0.0437
 3221SOL    HW210064   0.330   0.406   2.663  1.4500  0.2807 -0.7675
 3222SOL     OW10065   3.903   0.929   0.783 -0.5987 -0.0586 -0.9253
 3222SOL    HW110066   3.904   1.024   0.798 -1.2439  0.3974 -3.3557
 3222SOL    HW210067   3.940   0.919   0.695  0.1582 -2.1540 -0.4124
 3223SOL     OW10068   2.081   3.477   6.193  0.7530 -0.1643  0.0042
 3223SOL    HW110069   2.027   3.540   6.143  1.4346  0.0969 -0.4178
 3223SOL    HW210070   2.047   3.483   6.282  1.5272  1.6554  0.2302
 3224SOL     OW10071   4.816   5.459   3.999 -0.5070 -0.0331  0.3909
 3224SOL    HW110072   4.857   5.516   4.064 -1.4667 -0.7962  1.7186
 3224SOL    HW210073   4.798   5.516   3.924  0.6941  0.8469  0.7490
 3225SOL     OW10074   5.591   4.960   3.403  0.1591  0.1078 -0.3646
 3225SOL    HW110075   5.684   4.947   3.421 -0.1269  1.1438  2.3619
 3225SOL    HW210076   5.551   4.973   3.490 -1.9498  3.2210 -1.6025
 3226SOL     OW10077   4.722   1.208   0.668 -0.0705  0.3273  0.0756
 3226SOL    HW110078   4.689   1.145   0.604 -0.8598  1.1559 -0.3510
 3226SOL    HW210079   4.716   1.163   0.752  1.7727 -1.1063 -0.4729
 3227SOL     OW10080   1.292   2.145   3.936 -0.0565  0.1727 -0.0200
 3227SOL    HW110081   1.371   2.113   3.893  1.4143  2.9916  0.3454
 3227SOL    HW210082   1.223   2.138   3.870  1.0006 -0.2597 -1.1009
 3228SOL     OW10083   0.752   0.164   4.472 -0.2094  0.0854  0.4596
 3228SOL    HW110084   0.846   0.147   4.462 -0.3058 -0.2581  0.0917
 3228SOL    HW210085   0.745   0.216   4.552  0.3090  0.2464  0.4037
 3229SOL     OW10086   5.409   5.776   6.375  0.1353 -0.2378 -0.2311
 3229SOL    HW110087   5.360   5.837   6.430 -0.1341 -0.3569 -0.3404
 3229SOL    HW210088   5.473   5.737   6.435 -0.7947 -1.0929  0.2410
 3230SOL     OW10089   6.302   2.881   2.355 -0.0623  0.2602 -0.0239
 3230SOL    HW110090   6.290   2.860   2.448  0.9793  1.2316  0.3486
 3230SOL    HW210091   6.379   2.938   2.353  1.1842 -1.3289 -1.6804
 3231SOL     OW10092   3.319   2.645   3.616  0.2886 -0.1742  0.1314
 3231SOL    HW110093   3.343   2.631   3.708 -2.5732 -1.1633  0.8342
 3231SOL    HW210094   3.254   2.714   3.618 -1.1845 -1.4633 -0.8893
 3232SOL     OW10095   2.354   5.673   6.397  0.5053 -0.0400  0.0969
 3232SOL    HW110096   2.393   5.606   6.342 -1.3626  0.1901 -1.6463
 3232SOL    HW210097   2.275   5.633   6.432  1.2097  0.1221  1.9529
 3233SOL     OW10098   1.184   5.176   3.054 -0.4205 -0.0624  0.2534
 3233SOL    HW110099   1.230   5.172   2.971 -1.7570 -1.2350 -0.4744
 3233SOL    HW210100   1.182   5.270   3.075 -0.0191  0.2520 -1.0043
 3234SOL     OW10101   5.173   0.545   3.177 -0.2909 -0.5135 -0.6018
 3234SOL    HW110102   5.157   0.584   3.091  0.5611 -2.5466 -1.7376
 3234SOL    HW210103   5.113   0.592   3.236  0.0041  1.7817 -2.0249
 3235SOL     OW10104   6.450   5.797   1.264 -0.0944  0.6907  0.2636
 3235SOL    HW110105   6.458   5.808   1.359 -0.3155  0.0390  0.3637
 3235SOL    HW210106   6.526   5.843   1.228 -1.1958  2.9341  0.6078
 3236SOL     OW10107   2.122   4.473   4.241  0.7568 -0.0052 -0.6258
 3236SOL    HW110108   2.029   4.464   4.218  0.7233 -0.7607 -0.2247
 3236SOL    HW210109   2.121   4.509   4.330  0.8405 -0.4242 -0.4546
 3237SOL     OW10110   0.220   5.415   2.356 -0.0748 -0.6386 -0.1128
 3237SOL    HW110111   0.309   5.441   2.333 -0.0958 -0.6068 -0.1579
 3237SOL    HW210112   0.172   5.498   2.364 -0.7750 -0.7185 -2.7384
 3238SOL     OW10113   6.250   4.884   1.047 -0.3379  0.3951 -0.2026
 3238SOL    HW110114   6.339   4.893   1.012  0.0108 -0.3538  0.4441
 3238SOL    HW210115   6.255   4.919   1.136 -0.4157 -0.6180  0.2122
 3239SOL     OW10116   3.448   1.191   2.431  0.1840  0.1311 -0.1374
 3239SOL    HW110117   3.369   1.210   2.482 -0.6953 -0.3453 -1.2820
 3239SOL    HW210118   3.417   1.139   2.357  1.5763 -0.0453 -0.6263
 3240SOL     OW10119   1.120   0.521   0.940  0.6177  0.5687  0.1836
 3240SOL    HW110120   1.107   0.574   0.861 -2.5763  0.7724  0.7310
 3240SOL    HW210121   1.042   0.466   0.946  1.4668 -0.5527  2.4236
 3241SOL     OW10122   3.871   4.573   5.731 -0.4744  0.3743  0.4596
 3241SOL    HW110123   3.929   4.638   5.692 -1.0099  0.9758  0.6519
 3241SOL    HW210124   3.848   4.609   5.817  1.1518 -1.2024  1.6286
 3242SOL     OW10125   1.368   4.092   2.552  0.3733 -0.3030  0.4559
 3242SOL    HW110126   1.428   4.141   2.609  0.7521  1.0188 -0.9979
 3242SOL    HW210127   1.366   4.004   2.590  2.2539 -0.0543  1.2728
 3243SOL     OW10128   6.292   1.070   4.572 -0.1930  0.1717 -0.4571
 3243SOL    HW110129   6.342   1.065   4.654 -0.7066  0.5290 -0.1151
 3243SOL    HW210130   6.202   1.084   4.600 -0.2643  1.0929 -1.1041
 3244SOL     OW10131   3.215   2.962   4.979  0.1773 -0.0230 -0.1839
 3244SOL    HW110132   3.194   3.056   4.978  0.6371  0.1039  0.4954
 3244SOL    HW210133   3.145   2.923   5.031 -0.5592 -0.2127 -1.3021
 3245SOL     OW10134   4.475   1.821   1.941 -0.3947  0.1190 -0.1742
 3245SOL    HW110135   4.517   1.786   1.862 -0.5169 -0.5817  0.0662
 3245SOL    HW210136   4.547   1.859   1.991 -0.3474  0.7710 -0.7250
 3246SOL     OW10137   5.410   0.113   6.711 -0.1717  0.1181 -0.6012
 3246SOL    HW110138   5.422   0.206   6.692  1.3150  0.4486  1.5462
 3246SOL    HW210139   5.461   0.067   6.643  2.9950  1.1163  0.9106
 3247SOL     OW10140   3.042   2.833   5.129 -0.4983  0.0767 -0.0766
 3247SOL    HW110141   2.982   2.782   5.073  1.0142 -0.7244 -1.0291
 3247SOL    HW210142   3.072   2.770   5.195  0.6685 -0.0552 -0.7040
 3248SOL     OW10143   4.338   3.666   5.966  0.3667 -0.4066 -0.5555
 3248SOL    HW110144   4.336   3.642   5.874  3.0582 -2.2280 -0.2441
 3248SOL    HW210145   4.422   3.711   5.977  0.0399 -0.1142  1.0030
 3249SOL     OW10146   6.258   5.788   0.931  0.2349 -0.0258  0.0723
 3249SOL    HW110147   6.315   5.719   0.965  0.0234 -0.3215 -0.1683
 3249SOL    HW210148   6.318   5.857   0.901  0.4326  0.1285  0.7959
 3250SOL     OW10149   1.166   0.942   3.105 -0.2732  0.7685 -0.3249
 3250SOL    HW110150   1.249   0.971   3.068  0.2506 -0.3397 -0.0491
 3250SOL    HW210151   1.145   1.007   3.172  2.3280 -0.9120  2.3370
 3251SOL     OW10152   0.863   0.192   2.099  0.2489  0.1532  0.7224
 3251SOL    HW110153   0.828   0.274   2.065  1.5043  0.1582 -0.6307
 3251SOL    HW210154   0.823   0.125   2.043  2.8083  0.2001 -1.3341
 3252SOL     OW10155   4.407   6.303   4.392  0.5044  0.0642 -0.2741
 3252SOL    HW110156   4.461   6.310   4.313  0.2052  1.0304 -0.3994
 3252SOL    HW210157   4.461   6.252   4.452  0.7567 -0.6456 -1.0763
 3253SOL     OW10158   3.988   1.582   0.806  0.0032 -0.4739 -0.8179
 3253SOL    HW110159   3.906   1.630   0.795 -0.1085 -0.7007 -0.9831
 3253SOL    HW210160   3.975   1.501   0.757  1.3166  0.6178 -3.0761
 3254SOL     OW10161   4.401   1.475   3.722  0.0045  0.4760  0.9524
 3254SOL    HW110162   4.305   1.474   3.718 -0.0671 -1.8999  1.7250
 3254SOL    HW210163   4.429   1.483   3.631 -0.9895 -1.0137  0.4677
 3255SOL     OW10164   1.489   5.056   1.728 -0.7070  0.0521  0.4290
 3255SOL    HW110165   1.488   5.152   1.725  1.1325  0.1697  2.0181
 3255SOL    HW210166   1.436   5.034   1.805 -2.1858 -0.3211 -0.6423
 3256SOL     OW10167   4.962   0.787   5.606 -1.3035 -0.2306  0.7149
 3256SOL    HW110168   5.032   0.736   5.565 -0.9563  0.0181  0.9845
 3256SOL    HW210169   4.961   0.869   5.556 -1.2652 -0.1541  0.8397
 3257SOL     OW10170   2.992   6.060   2.389  0.2586 -0.1450 -0.6785
 3257SOL    HW110171   3.075   6.091   2.425 -0.7222  1.1368  0.5582
 3257SOL    HW210172   2.927   6.123   2.419 -0.8212  0.4398 -3.8280
 3258SOL     OW10173   1.563   4.581   0.435 -0.1006 -0.0605  0.1140
 3258SOL    HW110174   1.612   4.660   0.459 -1.5027  1.7077 -2.4142
 3258SOL    HW210175   1.516   4.557   0.515  0.9724  1.1649  1.1617
 3259SOL     OW10176   4.964   6.496   1.097 -0.6190 -0.5106 -0.3878
 3259SOL    HW110177   4.942   6.539   1.014 -0.4377  0.1638 -0.0881
 3259SOL    HW210178   5.033   6.434   1.074  0.9275  1.1421 -0.3990
 3260SOL     OW10179   2.121   2.841   0.666 -0.0355  0.0502  0.2383
 3260SOL    HW110180   2.082   2.920   0.628  0.7336  0.2657 -0.1147
 3260SOL    HW210181   2.103   2.848   0.760  0.0395  0.6596  0.2121
 3261SOL     OW10182   4.142   1.027   6.663  0.0920 -0.5361  0.0154
 3261SOL    HW110183   4.143   0.946   6.715  0.3404 -0.4740  0.1093
 3261SOL    HW210184   4.229   1.064   6.675  0.3360 -0.7870 -0.8598
 3262SOL     OW10185   5.195   3.375   6.765  0.3104  0.1650 -0.0436
 3262SOL    HW110186   5.205   3.448   6.826  0.2657  0.9482 -0.9431
 3262SOL    HW210187   5.221   3.411   6.680 -2.4654  0.0003 -1.0749
 3263SOL     OW10188   6.538   1.014   6.150  0.2314  0.1287 -0.0622
 3263SOL    HW110189   6.495   0.929   6.141  1.1262 -0.4517  0.9435
 3263SOL    HW210190   6.597   1.019   6.074 -0.2391  0.1013 -0.4299
 3264SOL     OW10191   5.500   4.860   3.142  0.7631 -0.6717  0.5380
 3264SOL    HW110192   5.560   4.897   3.078 -1.7943  1.7448 -0.6600
 3264SOL    HW210193   5.530   4.896   3.226 -0.0772  2.2326 -0.2789
 3265SOL     OW10194   0.194   0.235   3.987  0.2320  0.1767  0.3778
 3265SOL    HW110195   0.104   0.242   3.956  0.4352  0.0515 -0.2411
 3265SOL    HW210196   0.211   0.141   3.988 -0.2609  0.0502  2.3038
 3266SOL     OW10197   4.208   6.079   5.584 -0.0152 -0.4987 -0.3773
 3266SOL    HW110198   4.234   6.015   5.650 -0.0821 -1.9712 -1.7408
 3266SOL    HW210199   4.248   6.049   5.503 -0.8904  0.6307 -1.2683
 3267SOL     OW10200   0.902   2.538   4.916  0.1670  0.0075  0.5479
 3267SOL    HW110201   0.879   2.629   4.932  1.1542  0.2200  0.7687
 3267SOL    HW210202   0.897   2.497   5.003  1.5971  0.2834  0.7795
 3268SOL     OW10203   0.180   0.859   5.753  0.9806 -0.8503 -0.4751
 3268SOL    HW110204   0.131   0.794   5.805 -0.1818 -0.4829 -1.0647
 3268SOL    HW210205   0.171   0.940   5.802  3.2148 -1.2506  0.7453
 3269SOL     OW10206   6.649   5.066   5.130 -0.3735 -0.1976  0.0363
 3269SOL    HW110207   6.699   5.055   5.211  0.2991  2.3597  0.0419
 3269SOL    HW210208   6.576   5.123   5.154 -0.5130  0.0859 -1.0238
 3270SOL     OW10209   5.378   3.945   1.995  0.1549  0.4892 -0.0815
 3270SOL    HW110210   5.421   4.026   1.968  1.1919 -0.2675 -0.7427
 3270SOL    HW210211   5.443   3.900   2.048 -0.3427 -0.0148  0.1121
 3271SOL     OW10212   5.027   2.013   2.123 -0.0166 -0.1738  0.3019
 3271SOL    HW110213   5.117   2.009   2.156  1.5018  0.7899 -3.2660
 3271SOL    HW210214   5.020   1.941   2.062 -2.2583 -1.1085  1.5431
 3272SOL     OW10215   3.147   3.366   6.619 -0.0193 -0.4299  0.3216
 3272SOL    HW110216   3.120   3.456   6.637  0.7173 -0.2907  0.7740
 3272SOL    HW210217   3.178   3.332   6.703 -0.8730 -1.3267  0.2979
 3273SOL     OW10218   0.943   2.989   1.746  0.4748  0.0694 -0.0812
 3273SOL    HW110219   0.936   3.083   1.766  0.7932  0.0198  0.2550
 3273SOL    HW210220   1.034   2.976   1.722  0.5788 -0.2785  0.4993
 3274SOL     OW10221   6.061   1.413   6.716 -0.4473 -0.6213  0.0457
 3274SOL    HW110222   6.043   1.406   6.622  1.2294  1.8496 -0.5538
 3274SOL    HW210223   6.154   1.391   6.724 -0.1505  0.8346  0.8682
 3275SOL     OW10224   2.968   4.153   6.432 -0.4751  0.7047  0.3815
 3275SOL    HW110225   2.876   4.134   6.450 -0.5674 -0.1736 -0.8243
 3275SOL    HW210226   2.971   4.248   6.416 -1.2139  0.7014  0.2123
 3276SOL     OW10227   4.405   5.079   4.332 -0.6774  0.3309 -0.1819
 3276SOL    HW110228   4.367   5.136   4.399 -0.9747  2.3281 -1.9569
 3276SOL    HW210229   4.337   5.016   4.312 -0.3775 -0.6986  1.7494
 3277SOL     OW10230   1.810   1.226   5.823  0.1525  0.4133 -0.4703
 3277SOL    HW110231   1.894   1.182   5.834  0.8176  1.2750 -1.8836
 3277SOL    HW210232   1.792   1.266   5.908  0.6914 -0.5631  0.1197
 3278SOL     OW10233   6.470   3.839   2.738 -0.4478 -0.4675 -0.3686
 3278SOL    HW110234   6.526   3.814   2.664  1.5852  0.6181  0.7048
 3278SOL    HW210235   6.511   3.796   2.814 -0.6925  0.8869  0.5589
 3279SOL     OW10236   6.649   6.364   3.222 -0.4357 -0.2531 -0.0059
 3279SOL    HW110237   6.622   6.452   3.194 -0.6730 -1.0418 -2.5031
 3279SOL    HW210238   6.720   6.379   3.284 -1.2929  1.7135  0.5704
 3280SOL     OW10239   1.003   5.191   6.205  0.7852 -0.1992 -0.7781
 3280SOL    HW110240   0.994   5.142   6.123 -1.1557  0.0169 -0.7530
 3280SOL    HW210241   0.939   5.150   6.263  1.0852  0.6113  0.1416
 3281SOL     OW10242   4.202   5.890   4.422 -0.5952 -0.2065  0.0455
 3281SOL    HW110243   4.131   5.953   4.410 -0.5871 -0.4030 -1.1412
 3281SOL    HW210244   4.276   5.928   4.374 -0.1636 -0.4287  0.5309
 3282SOL     OW10245   2.874   4.907   0.213  0.2048 -0.1039  0.1671
 3282SOL    HW110246   2.794   4.911   0.160  0.1703 -2.7562 -0.1251
 3282SOL    HW210247   2.888   4.997   0.243 -1.6794  0.8261 -1.5284
 3283SOL     OW10248   3.811   3.057   2.485 -0.1961  0.7606  0.6613
 3283SOL    HW110249   3.776   3.142   2.458 -2.7743  0.6480  3.1448
 3283SOL    HW210250   3.887   3.078   2.539 -1.1486  1.5888  1.7313
 3284SOL     OW10251   5.620   4.532   0.184  0.3656 -0.0867  0.0225
 3284SOL    HW110252   5.640   4.614   0.139 -1.2151 -0.1658 -0.8995
 3284SOL    HW210253   5.554   4.490   0.129  1.2042 -2.0396  0.4262
 3285SOL     OW10254   6.278   1.801   5.613  0.5586  0.5890  0.1386
 3285SOL    HW110255   6.278   1.854   5.534  0.6876  1.8215  0.9358
 3285SOL    HW210256   6.219   1.728   5.594  3.1660 -1.0938 -2.3023
 3286SOL     OW10257   4.391   1.520   3.447 -0.6710 -0.1768 -0.0408
 3286SOL    HW110258   4.414   1.442   3.397 -3.0558 -0.9435 -0.0913
 3286SOL    HW210259   4.301   1.539   3.420  0.0866  3.1607 -0.7252
 3287SOL     OW10260   2.146   1.873   4.531 -0.6048 -0.9855 -0.0778
 3287SOL    HW110261   2.088   1.926   4.586  0.5421 -0.3472  0.5631
 3287SOL    HW210262   2.234   1.892   4.564  0.4029  1.1401 -3.4709
 3288SOL     OW10263   5.322   3.206   4.057 -0.1136 -0.5379 -0.6988
 3288SOL    HW110264   5.267   3.130   4.041 -0.9572 -0.5813  1.9613
 3288SOL    HW210265   5.396   3.172   4.108  1.0089 -0.0146 -1.9099
 3289SOL     OW10266   2.266   1.642   1.589 -0.4372 -0.0580  0.2041
 3289SOL    HW110267   2.320   1.655   1.510  2.0846 -0.8959  1.6613
 3289SOL    HW210268   2.176   1.639   1.557  0.1030  3.4305 -2.1963
 3290SOL     OW10269   4.090   3.292   6.368 -0.4207 -0.1456 -0.1820
 3290SOL    HW110270   4.085   3.370   6.424  0.1338 -1.0523  1.1985
 3290SOL    HW210271   4.004   3.287   6.327 -0.6089  0.9407  0.0391
 3291SOL     OW10272   6.470   3.333   1.637 -0.0287 -1.1923  0.1759
 3291SOL    HW110273   6.559   3.329   1.671  0.1312 -3.1889 -0.3492
 3291SOL    HW210274   6.451   3.426   1.630  1.8171 -0.7297  0.8118
 3292SOL     OW10275   4.915   1.837   5.068  0.3397 -0.7939 -0.1919
 3292SOL    HW110276   4.855   1.812   4.997  1.8363  1.0068 -2.2611
 3292SOL    HW210277   4.870   1.908   5.113 -0.0676 -1.0506 -0.1881
 3293SOL     OW10278   2.423   1.356   3.578  0.2467 -0.0399  0.0799
 3293SOL    HW110279   2.405   1.327   3.667 -0.1813  1.0195  0.3428
 3293SOL    HW210280   2.401   1.449   3.577 -0.2562 -0.1461 -1.2669
 3294SOL     OW10281   4.292   2.663   3.813 -0.1425  0.5285  0.0527
 3294SOL    HW110282   4.228   2.679   3.882 -0.5344  0.7662 -0.3631
 3294SOL    HW210283   4.342   2.587   3.844 -0.4764  0.4800  0.4799
 3295SOL     OW10284   2.199   4.328   6.745 -0.0692 -0.0559 -0.0325
 3295SOL    HW110285   2.223   4.366   6.661 -0.1829 -1.5399 -0.7665
 3295SOL    HW210286   2.127   4.268   6.725  0.5335 -1.1395  0.9516
 3296SOL     OW10287   6.479   0.556   6.381 -0.7796 -0.5922 -0.2187
 3296SOL    HW110288   6.467   0.481   6.438 -1.3682 -1.1970 -1.1134
 3296SOL    HW210289   6.550   0.531   6.321  0.3887  0.3410  0.7074
 3297SOL     OW10290   3.826   2.680   4.495  0.4756 -0.0555  0.5507
 3297SOL    HW110291   3.860   2.648   4.412 -0.1384 -0.1595  0.3354
 3297SOL    HW210292   3.903   2.691   4.550  0.7937 -0.9170  0.2855
 3298SOL     OW10293   1.236   6.224   2.208  0.4593 -0.0251 -0.0206
 3298SOL    HW110294   1.329   6.248   2.207  0.7780 -1.1563 -0.0242
 3298SOL    HW210295   1.209   6.227   2.117  0.9722 -1.3391 -0.2394
 3299SOL     OW10296   3.358   5.528   3.214 -0.5997 -0.5835  0.2526
 3299SOL    HW110297   3.354   5.615   3.175 -2.8462 -0.9601 -0.4681
 3299SOL    HW210298   3.405   5.475   3.149  1.5380  0.1793  1.0564
 3300SOL     OW10299   4.967   5.302   5.432 -0.5234 -0.4109 -0.1856
 3300SOL    HW110300   5.022   5.323   5.508  0.2166 -1.5428 -0.3848
 3300SOL    HW210301   5.002   5.356   5.361 -1.0859  0.4984  0.2169
 3301SOL     OW10302   6.495   2.100   1.455 -0.0867  0.3881 -0.4642
 3301SOL    HW110303   6.444   2.030   1.415 -0.6114 -0.4448  1.5260
 3301SOL    HW210304   6.444   2.179   1.440 -2.1586 -0.4515  1.6450
 3302SOL     OW10305   2.747   6.190   5.444 -0.2258 -0.4893 -0.5072
 3302SOL    HW110306   2.791   6.111   5.475 -0.5858 -0.2314  0.7481
 3302SOL    HW210307   2.784   6.207   5.358  1.7148 -0.5818  0.2655
 3303SOL     OW10308   5.640   0.378   3.732  0.6454  0.4548 -0.2473
 3303SOL    HW110309   5.666   0.454   3.783  0.6904  0.2913 -0.0262
 3303SOL    HW210310   5.562   0.344   3.776  0.6860  0.3112 -0.2844
 3304SOL     OW10311   2.060   5.022   6.557 -0.3054  0.2595  0.5291
 3304SOL    HW110312   2.138   5.050   6.508  1.3061 -2.1450  1.5501
 3304SOL    HW210313   2.020   4.955   6.501  0.1929 -0.7695  1.3639
 3305SOL     OW10314   3.709   0.829   2.182  0.1784 -0.4370  0.1355
 3305SOL    HW110315   3.642   0.766   2.155  1.1122 -1.0666 -0.7668
 3305SOL    HW210316   3.764   0.840   2.105  1.1693  0.0094  0.8908
 3306SOL     OW10317   1.711   5.751   3.319 -0.7394 -0.1326 -0.2427
 3306SOL    HW110318   1.626   5.713   3.296 -0.8855 -0.7890  1.2538
 3306SOL    HW210319   1.743   5.789   3.238 -2.5220  0.2416 -0.8114
 3307SOL     OW10320   3.346   1.300   3.553 -0.9187  0.3942 -0.0975
 3307SOL    HW110321   3.344   1.205   3.536 -0.3520  0.8529 -3.2672
 3307SOL    HW210322   3.261   1.331   3.523 -1.5431  0.8383  1.9541
 3308SOL     OW10323   5.258   1.832   0.236  0.5697 -0.2420 -0.0436
 3308SOL    HW110324   5.176   1.809   0.280  0.0570 -0.7498 -1.2470
 3308SOL    HW210325   5.291   1.750   0.201  0.4275  0.2959 -1.5075
 3309SOL     OW10326   5.800   4.036   5.015  0.6841  0.0990  0.1772
 3309SOL    HW110327   5.832   3.948   4.995  0.8891 -0.1119  1.3166
 3309SOL    HW210328   5.879   4.085   5.039  0.7559  1.0054 -1.7587
 3310SOL     OW10329   2.999   5.275   3.868 -0.2733  0.1228  0.6040
 3310SOL    HW110330   2.920   5.329   3.859 -0.2907  0.2806  1.6395
 3310SOL    HW210331   2.983   5.201   3.809 -1.5018 -0.1920  1.2890
 3311SOL     OW10332   6.370   4.065   2.617  0.9923  0.0199  0.9089
 3311SOL    HW110333   6.391   4.046   2.526  0.6296  2.2490  0.3070
 3311SOL    HW210334   6.355   3.980   2.657  0.6299 -0.9616 -1.2403
 3312SOL     OW10335   3.623   2.953   2.958  0.6361 -0.0023  0.1572
 3312SOL    HW110336   3.542   2.927   3.002  2.0295 -0.9372  2.3632
 3312SOL    HW210337   3.601   2.956   2.865 -2.0712  0.4603  0.7438
 3313SOL     OW10338   3.153   5.389   0.455 -0.2031 -0.6142 -0.0541
 3313SOL    HW110339   3.083   5.383   0.520 -1.1198  0.9631 -0.8614
 3313SOL    HW210340   3.224   5.433   0.502 -0.2168 -1.0347  0.3748
 3314SOL     OW10341   3.427   5.673   5.101  0.1256 -0.3838 -0.3781
 3314SOL    HW110342   3.495   5.712   5.046  0.3312  0.7880  0.6693
 3314SOL    HW210343   3.345   5.687   5.053  0.0192  2.4833  0.4699
 3315SOL     OW10344   1.752   3.711   1.023 -0.0989  0.2000  0.1102
 3315SOL    HW110345   1.734   3.761   0.943 -1.5098  0.5541  0.6151
 3315SOL    HW210346   1.720   3.767   1.094 -1.3204 -1.2159  0.7345
 3316SOL     OW10347   2.955   3.078   5.567 -0.0041 -0.4839  0.8533
 3316SOL    HW110348   2.867   3.113   5.556 -0.4942 -1.4790  1.4151
 3316SOL    HW210349   2.998   3.092   5.482 -1.1618 -1.2120  0.1217
 3317SOL     OW10350   5.410   3.235   2.664  0.3145 -0.4879 -0.5214
 3317SOL    HW110351   5.356   3.288   2.723 -0.2344 -1.7670  0.1655
 3317SOL    HW210352   5.491   3.220   2.714 -0.8200 -3.0382  0.7312
 3318SOL     OW10353   5.358   5.765   0.713  0.0905  0.0676  0.1967
 3318SOL    HW110354   5.413   5.797   0.641  0.5833  1.1468  1.0251
 3318SOL    HW210355   5.374   5.670   0.715 -1.2708 -0.2942 -2.2151
 3319SOL     OW10356   4.802   1.462   0.446  0.5597  0.6049  0.3254
 3319SOL    HW110357   4.846   1.433   0.366 -0.7872  0.8424 -0.5281
 3319SOL    HW210358   4.782   1.382   0.493  0.8254  0.4310  0.1486
 3320SOL     OW10359   1.789   2.491   4.396  0.0416  0.1415  0.6390
 3320SOL    HW110360   1.747   2.405   4.395 -0.8610  0.4835  2.8979
 3320SOL    HW210361   1.866   2.479   4.451 -0.0121  0.7289  0.8480
 3321SOL     OW10362   1.538   4.475   3.112 -0.0834  0.6234 -0.1640
 3321SOL    HW110363   1.481   4.430   3.049 -1.2490 -0.0833  1.3357
 3321SOL    HW210364   1.483   4.543   3.150 -0.3821 -0.8337  2.1807
 3322SOL     OW10365   3.926   5.713   2.381  0.2842  0.5707  0.0227
 3322SOL    HW110366   3.866   5.752   2.317  1.6956  2.7207 -0.1131
 3322SOL    HW210367   3.876   5.642   2.421 -1.2396  0.2379 -2.2561
 3323SOL     OW10368   2.746   6.553   4.433  0.8098  0.4191 -0.2403
 3323SOL    HW110369   2.810   6.506   4.487  0.2058  0.2146  0.3130
 3323SOL    HW210370   2.740   6.639   4.475 -0.3753 -0.0598  0.6209
 3324SOL     OW10371   4.512   5.945   0.378  0.0132  0.6553 -0.0420
 3324SOL    HW110372   4.429   5.992   0.369 -0.4576  0.2123  1.6252
 3324SOL    HW210373   4.578   6.008   0.351 -0.8639  0.7498 -2.2303
 3325SOL     OW10374   1.847   3.086   3.087  0.8271 -0.0068  0.2149
 3325SOL    HW110375   1.883   3.097   3.175  0.5657  0.8423  0.2195
 3325SOL    HW210376   1.891   3.153   3.035 -0.4420  0.7799  0.1341
 3326SOL     OW10377   4.624   3.868   2.410  0.6376  0.0750  0.0648
 3326SOL    HW110378   4.618   3.820   2.493 -0.4350  0.8905  0.4787
 3326SOL    HW210379   4.646   3.957   2.435 -4.0194  1.5260 -0.0045
 3327SOL     OW10380   2.805   2.299   6.181 -0.5667 -0.1478  0.7651
 3327SOL    HW110381   2.853   2.229   6.135  0.5833  0.3739  1.1430
 3327SOL    HW210382   2.766   2.351   6.111 -1.1462 -0.9566  0.4692
 3328SOL     OW10383   6.333   4.107   5.472 -0.3320  0.1718  0.2651
 3328SOL    HW110384   6.256   4.053   5.458 -0.3220 -0.0644  1.0523
 3328SOL    HW210385   6.404   4.060   5.429 -0.3924 -0.2695  0.6337
 3329SOL     OW10386   4.673   0.196   4.658 -0.4004  0.1958  0.8198
 3329SOL    HW110387   4.670   0.288   4.631 -0.9756 -0.2692 -0.8691
 3329SOL    HW210388   4.610   0.153   4.600  0.3225 -1.3663  1.1459
 3330SOL     OW10389   3.295   4.648   0.451 -0.4261  0.2879  0.1385
 3330SOL    HW110390   3.268   4.556   0.453  0.8110 -0.0802  0.4156
 3330SOL    HW210391   3.274   4.678   0.363 -1.1991 -0.1362  0.1705
 3331SOL     OW10392   0.255   6.185   2.685 -0.1105 -0.4808 -0.4845
 3331SOL    HW110393   0.287   6.109   2.734  0.0183 -0.5544 -0.6816
 3331SOL    HW210394   0.333   6.218   2.639 -0.6275 -1.6806 -2.3548
 3332SOL     OW10395   6.748   6.741   6.060 -0.6775  0.8437  0.2524
 3332SOL    HW110396   6.681   6.721   5.994 -1.2768  1.9909  0.4833
 3332SOL    HW210397   6.774   6.831   6.041 -0.2660  0.9035  1.0721
 3333SOL     OW10398   0.980   6.514   3.848 -0.4271  0.2625 -0.2964
 3333SOL    HW110399   0.979   6.500   3.943  2.0301  1.4005 -0.0189
 3333SOL    HW210400   0.959   6.429   3.811 -0.9610 -0.3279  1.2794
 3334SOL     OW10401   4.289   0.231   0.175  0.5015 -0.3978 -0.0144
 3334SOL    HW110402   4.364   0.214   0.118  0.1451 -2.7362  0.1093
 3334SOL    HW210403   4.213   0.217   0.118  0.1334  0.7017  0.1838
 3335SOL     OW10404   0.473   4.265   2.059  0.0345 -0.0498 -0.4069
 3335SOL    HW110405   0.509   4.178   2.076  0.3472 -0.5658 -3.1663
 3335SOL    HW210406   0.527   4.324   2.112 -1.0389 -1.5580  2.5593
 3336SOL     OW10407   6.676   0.189   2.866  0.1900  0.1470  0.0645
 3336SOL    HW110408   6.763   0.175   2.827  0.9746 -3.2292  2.5014
 3336SOL    HW210409   6.695   0.234   2.949 -0.1340 -1.5454  1.1161
 3337SOL     OW10410   5.987   3.883   1.167  0.4656  0.3013 -0.5322
 3337SOL    HW110411   6.072   3.868   1.126  1.2199  0.0089  1.0818
 3337SOL    HW210412   6.005   3.944   1.238 -0.5945 -0.1023  0.1070
 3338SOL     OW10413   1.857   3.166   0.081 -0.0447 -0.2611 -0.1793
 3338SOL    HW110414   1.799   3.235   0.048  0.3032  0.1771  0.1082
 3338SOL    HW210415   1.826   3.086   0.038 -1.8622 -0.3207  1.1523
 3339SOL     OW10416   5.017   5.854   4.491  0.5476 -0.1970 -0.1373
 3339SOL    HW110417   5.087   5.846   4.557  1.2259 -0.6787 -0.8975
 3339SOL    HW210418   5.032   5.940   4.452  0.0328  0.1684  0.4485
 3340SOL     OW10419   1.166   3.677   6.467 -0.4012 -0.4003 -0.7381
 3340SOL    HW110420   1.073   3.661   6.483 -0.2904 -2.5537 -1.8006
 3340SOL    HW210421   1.203   3.694   6.553 -1.4346 -1.6951 -0.0042
 3341SOL     OW10422   1.960   4.936   1.429 -0.0481  0.3475  0.3440
 3341SOL    HW110423   1.940   5.023   1.463  2.1466  0.9643  0.1994
 3341SOL    HW210424   1.977   4.950   1.336 -2.7714 -0.7980 -0.4210
 3342SOL     OW10425   2.809   0.414   1.624 -0.5026  0.3580  0.2362
 3342SOL    HW110426   2.777   0.364   1.699  0.3021  0.3811  0.6111
 3342SOL    HW210427   2.745   0.398   1.555 -0.7784 -0.3911  0.6540
 3343SOL     OW10428   6.161   6.527   4.111  0.3828 -0.5102  0.0928
 3343SOL    HW110429   6.091   6.575   4.066 -0.1232 -1.6106 -0.3431
 3343SOL    HW210430   6.235   6.531   4.051  0.0070 -1.1599 -0.4311
 3344SOL     OW10431   0.463   1.156   5.648  0.1156 -1.0168  0.2389
 3344SOL    HW110432   0.402   1.219   5.685  2.1125  1.2751 -0.0992
 3344SOL    HW210433   0.508   1.118   5.723  1.2046  0.4944  0.3999
 3345SOL     OW10434   4.134   4.348   5.418 -0.2275 -0.0969  0.6958
 3345SOL    HW110435   4.100   4.398   5.343 -0.1135  0.1435  0.8043
 3345SOL    HW210436   4.058   4.304   5.454 -0.2783 -0.2456  0.4150
 3346SOL     OW10437   5.812   1.262   5.307 -1.0063 -0.1968  0.4155
 3346SOL    HW110438   5.739   1.200   5.312 -1.8530  0.8121  0.8876
 3346SOL    HW210439   5.782   1.338   5.356  0.0060  0.6026 -0.1699
 3347SOL     OW10440   1.569   4.550   3.877 -0.3091 -0.0371 -0.5838
 3347SOL    HW110441   1.562   4.498   3.798  0.7507 -2.2396  0.6826
 3347SOL    HW210442   1.661   4.544   3.902 -0.8824 -0.6355  1.5848
 3348SOL     OW10443   3.567   1.861   5.095  0.4099  0.2874  0.5319
 3348SOL    HW110444   3.588   1.947   5.059 -2.3984  0.8317 -0.0636
 3348SOL    HW210445   3.488   1.834   5.049  0.6297 -2.1862  1.4263
 3349SOL     OW10446   2.192   5.602   5.742  0.0705 -0.3986 -0.5892
 3349SOL    HW110447   2.245   5.543   5.795 -1.2889 -1.1278  0.0075
 3349SOL    HW210448   2.147   5.544   5.680 -1.2742 -0.0330 -0.0017
 3350SOL     OW10449   1.652   6.668   5.521 -0.3511 -0.4392  0.3884
 3350SOL    HW110450   1.654   6.756   5.483 -0.0147 -1.2231 -1.5546
 3350SOL    HW210451   1.715   6.672   5.594  1.5713  0.3245 -1.2013
 3351SOL     OW10452   2.871   4.150   1.011 -0.1555  0.5787  0.2657
 3351SOL    HW110453   2.853   4.094   1.087  0.1023  1.1194  0.7295
 3351SOL    HW210454   2.806   4.220   1.017  0.9801  1.6012  0.9899
 3352SOL     OW10455   5.822   2.730   0.602  0.5336  0.0993  0.4452
 3352SOL    HW110456   5.886   2.675   0.556 -0.8732 -1.1398 -0.1387
 3352SOL    HW210457   5.873   2.774   0.669  2.0607 -0.5865 -0.1958
 3353SOL     OW10458   4.189   4.818   2.299 -0.3675  0.4862 -0.1324
 3353SOL    HW110459   4.246   4.741   2.301 -1.0717 -0.0283  1.2496
 3353SOL    HW210460   4.220   4.868   2.223  0.8916 -0.5451 -0.3456
 3354SOL     OW10461   2.319   1.888   3.864  0.3235 -0.6931 -0.4513
 3354SOL    HW110462   2.378   1.823   3.827  1.0307 -0.6713  0.6060
 3354SOL    HW210463   2.374   1.941   3.921 -0.5162 -0.0142 -0.2485
 3355SOL     OW10464   6.009   0.071   3.551 -0.3755  0.0611  0.8061
 3355SOL    HW110465   5.953   0.121   3.611  0.4081  2.1319 -0.0804
 3355SOL    HW210466   6.087   0.052   3.602 -0.2939  0.5995  0.8952
 3356SOL     OW10467   6.388   6.720   2.635 -0.0916  0.4738 -0.1351
 3356SOL    HW110468   6.478   6.724   2.665  0.2614  0.5802 -1.1704
 3356SOL    HW210469   6.389   6.657   2.564 -0.0229  3.1879 -2.7316
 3357SOL     OW10470   2.262   4.196   1.381  0.7143 -0.6775 -0.2845
 3357SOL    HW110471   2.298   4.109   1.394 -0.4072 -1.1981 -0.5699
 3357SOL    HW210472   2.224   4.220   1.465  2.4528  0.2460  0.2817
 3358SOL     OW10473   4.376   2.384   2.198  0.1644  0.0807  0.3305
 3358SOL    HW110474   4.322   2.399   2.120  0.1356  4.2845  0.9478
 3358SOL    HW210475   4.429   2.307   2.177 -0.7422  0.3017 -3.3015
 3359SOL     OW10476   4.417   5.042   1.329 -0.3264  0.0561 -0.0536
 3359SOL    HW110477   4.347   5.107   1.320 -0.8870 -0.7104 -1.3615
 3359SOL    HW210478   4.417   4.995   1.246  1.0953 -0.6146  0.3041
 3360SOL     OW10479   4.228   2.571   5.372 -0.1791 -0.6115  0.1277
 3360SOL    HW110480   4.145   2.597   5.414  0.0241 -1.7773  1.3251
 3360SOL    HW210481   4.260   2.499   5.425  1.0295 -0.9690 -1.0290
 3361SOL     OW10482   0.044   6.137   6.298 -0.6423  0.3700 -0.1404
 3361SOL    HW110483   0.055   6.188   6.219 -0.8632  0.1593 -0.3115
 3361SOL    HW210484   0.067   6.196   6.369 -1.5729  0.9319 -0.2890
 3362SOL     OW10485   3.685   5.656   3.538 -0.4585 -0.1353  0.1940
 3362SOL    HW110486   3.678   5.562   3.521 -1.9285 -0.0207 -0.0005
 3362SOL    HW210487   3.597   5.689   3.520  0.6017  1.6956 -2.1970
 3363SOL     OW10488   5.422   4.253   6.170  0.3202  0.5364 -0.0792
 3363SOL    HW110489   5.462   4.225   6.253  1.0719 -0.1215 -0.6505
 3363SOL    HW210490   5.361   4.322   6.196  0.7337  0.5286  0.9986
 3364SOL     OW10491   1.468   5.288   0.432 -0.0812 -0.2933 -0.1948
 3364SOL    HW110492   1.464   5.206   0.480  0.2326 -1.1597 -1.5999
 3364SOL    HW210493   1.377   5.311   0.415 -0.1844 -0.0943  0.6101
 3365SOL     OW10494   1.596   0.253   2.615 -0.0302  0.0902  0.1645
 3365SOL    HW110495   1.620   0.277   2.704 -0.5748 -1.2440  0.7052
 3365SOL    HW210496   1.668   0.197   2.584 -0.5301 -0.6714  0.3370
 3366SOL     OW10497   1.350   0.327   6.149  0.2889 -0.2861 -0.2374
 3366SOL    HW110498   1.287   0.396   6.131  0.2210  0.0547  1.2558
 3366SOL    HW210499   1.423   0.345   6.089 -0.8459 -0.4940 -1.7458
 3367SOL     OW10500   5.101   3.966   4.666 -0.1732  0.3613  0.5397
 3367SOL    HW110501   5.104   3.896   4.731  3.0791  0.4320  0.6610
 3367SOL    HW210502   5.187   4.009   4.674 -0.7793  2.2202 -1.8349
 3368SOL     OW10503   6.218   5.023   0.385  0.1993 -0.1404  0.4811
 3368SOL    HW110504   6.125   5.034   0.406 -0.1757 -0.4502 -0.9324
 3368SOL    HW210505   6.236   4.931   0.406  0.2455 -0.0399  0.9075
 3369SOL     OW10506   3.452   4.981   4.553 -0.1001 -0.4033  0.0959
 3369SOL    HW110507   3.383   4.958   4.492 -0.3373 -0.9848  0.5753
 3369SOL    HW210508   3.533   4.962   4.505 -0.1236  2.8599 -1.5224
 3370SOL     OW10509   3.300   6.643   4.113  0.4384  0.4410  0.1227
 3370SOL    HW110510   3.361   6.670   4.182  1.8287  2.8291 -1.8927
 3370SOL    HW210511   3.237   6.714   4.108 -0.5020 -0.3907 -0.1676
 3371SOL     OW10512   3.089   5.962   4.536 -0.3383 -0.8005  0.4760
 3371SOL    HW110513   3.176   5.993   4.512  0.4042 -1.5138  2.1402
 3371SOL    HW210514   3.073   5.888   4.478  0.0564 -0.5246  0.0082
 3372SOL     OW10515   4.884   5.907   1.958  0.5951 -0.5598  0.1740
 3372SOL    HW110516   4.957   5.851   1.984  1.5134  0.5088 -0.0277
 3372SOL    HW210517   4.912   5.995   1.983 -0.5726 -0.1203 -0.0390
 3373SOL     OW10518   0.498   2.416   5.544  0.1045 -0.8643 -0.0771
 3373SOL    HW110519   0.423   2.369   5.509  0.3482  0.2041 -2.1507
 3373SOL    HW210520   0.489   2.407   5.639 -1.4448 -2.5585 -0.3261
 3374SOL     OW10521   3.852   5.360   1.252 -0.1457 -0.2464 -0.4773
 3374SOL    HW110522   3.777   5.361   1.193 -1.8304 -1.4336  1.5296
 3374SOL    HW210523   3.823   5.408   1.330  0.3348 -2.4663  1.2000
 3375SOL     OW10524   0.897   6.490   1.084 -0.6610 -0.2659  0.1091
 3375SOL    HW110525   0.886   6.585   1.071  1.7256  0.4481  2.2408
 3375SOL    HW210526   0.935   6.459   1.003 -1.7559  0.5333 -0.7400
 3376SOL     OW10527   0.665   1.466   2.577  0.1105 -0.4528  0.4397
 3376SOL    HW110528   0.670   1.370   2.577 -2.7591 -0.7112 -0.6801
 3376SOL    HW210529   0.634   1.488   2.490 -0.2717  1.4299  1.0184
 3377SOL     OW10530   3.194   5.942   0.055  0.1302 -0.5672 -0.3785
 3377SOL    HW110531   3.255   5.955  -0.018  1.3433  0.1425  0.7191
 3377SOL    HW210532   3.119   5.899   0.015  1.2476 -1.2890 -1.8327
 3378SOL     OW10533   0.515   4.143   3.098  0.6799  0.0770 -0.0915
 3378SOL    HW110534   0.595   4.169   3.053 -0.2667 -0.6296 -2.2927
 3378SOL    HW210535   0.444   4.178   3.045 -0.5153 -2.0055 -0.0024
 3379SOL     OW10536   6.296   2.499   1.786  0.0764 -0.5852  0.4679
 3379SOL    HW110537   6.250   2.416   1.790 -0.4638 -0.3591 -0.6369
 3379SOL    HW210538   6.232   2.563   1.819  0.3966 -0.5710  1.0647
 3380SOL     OW10539   3.519   3.151   4.090 -0.3231  0.5477 -0.3062
 3380SOL    HW110540   3.503   3.232   4.139 -0.1601 -0.4122  1.3942
 3380SOL    HW210541   3.513   3.081   4.155 -0.2550 -0.8125 -1.6961
 3381SOL     OW10542   3.290   3.774   5.045 -0.0164 -0.0430  0.2759
 3381SOL    HW110543   3.230   3.764   4.971  0.0070  1.2113  0.0567
 3381SOL    HW210544   3.316   3.866   5.041  2.6032 -0.7412 -0.1460
 3382SOL     OW10545   2.235   4.478   1.914 -0.1654  0.6459  0.3727
 3382SOL    HW110546   2.248   4.383   1.914 -1.2121  0.4686 -0.8134
 3382SOL    HW210547   2.163   4.492   1.976 -0.6999  0.5313 -0.2083
 3383SOL     OW10548   5.148   2.864   2.056  0.4022  0.0253  0.6690
 3383SOL    HW110549   5.082   2.839   2.121 -0.7825  1.5335  0.1064
 3383SOL    HW210550   5.185   2.945   2.090  0.7527  0.0909  0.1325
 3384SOL     OW10551   4.704   0.628   5.681  0.6071  0.1099 -0.3649
 3384SOL    HW110552   4.653   0.704   5.655 -1.1031 -1.4770 -1.9749
 3384SOL    HW210553   4.777   0.664   5.732 -0.6987  2.6869 -0.1553
 3385SOL     OW10554   3.506   6.646   0.845  0.1293  0.6096 -0.6483
 3385SOL    HW110555   3.586   6.697   0.829  0.7841  0.5071  1.9572
 3385SOL    HW210556   3.455   6.700   0.905 -1.0852 -0.0220 -1.0852
 3386SOL     OW10557   2.426   3.738   3.431 -0.2241 -0.2973 -0.7211
 3386SOL    HW110558   2.383   3.767   3.512  1.2009 -0.3827  0.0821
 3386SOL    HW210559   2.362   3.680   3.390 -0.7792 -0.6308  0.5738
 3387SOL     OW10560   1.852   4.719   5.357  0.2726 -0.2390  0.4684
 3387SOL    HW110561   1.850   4.755   5.268 -1.0485 -1.3303  0.0169
 3387SOL    HW210562   1.881   4.791   5.412  1.1020  0.4575 -0.8524
 3388SOL     OW10563   6.192   4.866   1.810 -0.4699 -0.4216  0.3898
 3388SOL    HW110564   6.198   4.935   1.876 -0.1757 -0.7734  0.7392
 3388SOL    HW210565   6.244   4.794   1.846  1.4719  0.1226 -1.1350
 3389SOL     OW10566   5.644   5.790   3.661 -0.3094  0.4514 -0.0140
 3389SOL    HW110567   5.731   5.753   3.676 -0.6288 -0.0385  0.7081
 3389SOL    HW210568   5.659   5.884   3.652  0.1918  0.4775  1.0045
 3390SOL     OW10569   0.889   1.231   3.653  0.5719 -0.3963  0.1204
 3390SOL    HW110570   0.810   1.180   3.637 -0.4787  1.0441  0.4940
 3390SOL    HW210571   0.872   1.277   3.735  1.7771 -0.0103  0.1777
 3391SOL     OW10572   2.804   2.206   5.182 -0.1214  0.1104 -0.0828
 3391SOL    HW110573   2.729   2.151   5.158 -1.1830  1.1685  0.7437
 3391SOL    HW210574   2.798   2.215   5.277  1.2484 -0.0306  0.0449
 3392SOL     OW10575   0.840   0.321   1.830  0.2222  0.1297  0.0089
 3392SOL    HW110576   0.808   0.404   1.793 -0.8654 -0.5525 -0.6139
 3392SOL    HW210577   0.850   0.264   1.754  0.8640 -0.3655  0.4520
 3393SOL     OW10578   6.629   5.053   1.180 -0.2629  0.5004  0.2455
 3393SOL    HW110579   6.629   5.047   1.085 -1.4228  0.3953  0.2416
 3393SOL    HW210580   6.560   5.116   1.200 -2.3626 -1.9287  1.1377
 3394SOL     OW10581   4.676   1.472   1.855  0.0101 -0.0926 -0.2711
 3394SOL    HW110582   4.653   1.558   1.819  2.6634  1.1300  0.7291
 3394SOL    HW210583   4.628   1.409   1.800 -0.8083  1.9353 -2.0003
 3395SOL     OW10584   1.941   4.530   6.061 -0.7001 -0.2128 -0.0834
 3395SOL    HW110585   1.870   4.548   6.123 -1.4196 -0.7858 -0.7154
 3395SOL    HW210586   2.012   4.589   6.088 -1.5390  0.6333  0.3410
 3396SOL     OW10587   2.395   4.711   2.143 -0.1017 -0.6915  0.0659
 3396SOL    HW110588   2.417   4.623   2.173  1.6843  0.2076  1.6329
 3396SOL    HW210589   2.479   4.748   2.114 -0.9071  0.3302 -1.0463
 3397SOL     OW10590   1.481   0.104   0.139  0.4348  0.5652 -0.1573
 3397SOL    HW110591   1.570   0.136   0.150  0.3872  0.8494 -0.5728
 3397SOL    HW210592   1.466   0.048   0.216  1.2630 -0.1637 -0.5084
 3398SOL     OW10593   4.257   4.387   3.927  0.3848 -0.2229 -0.1712
 3398SOL    HW110594   4.197   4.436   3.872  3.5424  1.5546 -2.3655
 3398SOL    HW210595   4.253   4.297   3.893 -0.7635 -0.0835 -0.4459
 3399SOL     OW10596   6.176   3.651   4.959  0.0208 -0.5525 -0.4541
 3399SOL    HW110597   6.240   3.676   4.892  0.3339 -1.9816 -0.7207
 3399SOL    HW210598   6.220   3.667   5.042 -0.2878  1.0169 -0.5621
 3400SOL     OW10599   3.953   0.647   3.054  0.1147 -0.7010 -0.2707
 3400SOL    HW110600   3.876   0.605   3.092 -0.4007 -0.5079 -1.0924
 3400SOL    HW210601   3.935   0.653   2.961  1.0094 -0.3989 -0.4423
 3401SOL     OW10602   2.620   6.587   0.712 -0.1904  0.4263  0.2788
 3401SOL    HW110603   2.605   6.658   0.775 -3.0243 -0.1122  0.3772
 3401SOL    HW210604   2.649   6.631   0.632 -1.4989  1.6903  0.4585
 3402SOL     OW10605   2.003   4.489   5.288  0.4853  0.3642  0.3995
 3402SOL    HW110606   2.083   4.484   5.340  1.2918 -0.3813 -0.8707
 3402SOL    HW210607   1.947   4.549   5.337  0.0124 -2.4121  3.7036
 3403SOL     OW10608   6.064   1.538   3.991  0.4622  0.3248  0.5633
 3403SOL    HW110609   6.030   1.578   4.070  1.9897  1.9938  0.4462
 3403SOL    HW210610   6.107   1.458   4.021 -1.7777 -0.8186  0.9335
 3404SOL     OW10611   6.623   3.213   5.941  0.2989 -0.6279 -0.0117
 3404SOL    HW110612   6.684   3.173   6.003 -0.3136 -1.0878  0.3109
 3404SOL    HW210613   6.616   3.304   5.969  0.4481 -0.6985  0.2546
 3405SOL     OW10614   2.485   3.663   2.328 -0.0761 -0.0720  0.5947
 3405SOL    HW110615   2.459   3.751   2.301  0.2586 -0.0322  0.3991
 3405SOL    HW210616   2.462   3.607   2.254 -1.8073 -0.4156  1.3532
 3406SOL     OW10617   2.753   4.823   2.919  0.2187  0.5087 -0.2159
 3406SOL    HW110618   2.670   4.870   2.912  1.0429  1.9276 -1.0726
 3406SOL    HW210619   2.790   4.853   3.003 -0.1329 -0.1295  0.1697
 3407SOL     OW10620   1.041   0.912   2.799 -0.1319  0.7042  0.3598
 3407SOL    HW110621   0.986   0.987   2.777 -0.0927  1.1940  1.8447
 3407SOL    HW210622   1.116   0.919   2.740 -0.9691  0.8212 -0.7243
 3408SOL     OW10623   4.564   5.399   6.501 -0.6216  0.3291 -0.1659
 3408SOL    HW110624   4.561   5.304   6.488 -1.2736  0.4681 -1.1284
 3408SOL    HW210625   4.608   5.433   6.422  0.1630  0.7918  0.4461
 3409SOL     OW10626   3.947   0.845   4.797 -0.7552  0.3909  0.1858
 3409SOL    HW110627   3.965   0.782   4.867 -1.0064 -0.6344 -0.6361
 3409SOL    HW210628   3.869   0.891   4.826 -1.7275 -1.0385 -0.0407
 3410SOL     OW10629   5.323   5.177   2.799  0.0614  0.0901  0.3652
 3410SOL    HW110630   5.288   5.232   2.868 -1.7902 -0.5561 -0.0157
 3410SOL    HW210631   5.374   5.110   2.845  0.7800  0.9972  0.9277
 3411SOL     OW10632   3.225   5.981   3.696 -0.2524 -0.3856  0.1022
 3411SOL    HW110633   3.211   5.933   3.614 -0.8799  1.0730 -0.6861
 3411SOL    HW210634   3.139   5.985   3.737  0.0596 -1.1139  0.8644
 3412SOL     OW10635   3.990   0.259   3.233 -0.5097 -0.3186  0.8270
 3412SOL    HW110636   3.916   0.259   3.293 -0.8635 -0.1021  0.4010
 3412SOL    HW210637   3.956   0.299   3.153  0.5325  1.4047  1.1921
 3413SOL     OW10638   1.275   5.221   0.135 -0.2781  0.4230 -0.0411
 3413SOL    HW110639   1.248   5.276   0.208  0.2562  0.7606 -0.0959
 3413SOL    HW210640   1.351   5.173   0.168 -0.1271  0.4684 -0.3216
 3414SOL     OW10641   0.898   6.368   6.425  0.3051 -0.1242 -0.2168
 3414SOL    HW110642   0.885   6.285   6.471 -1.6564  0.3831  0.2501
 3414SOL    HW210643   0.931   6.344   6.339 -2.7773 -1.6407 -1.0884
 3415SOL     OW10644   2.433   1.733   1.391 -0.1140  0.4301 -0.4180
 3415SOL    HW110645   2.405   1.820   1.418 -0.2678  0.5067 -0.8227
 3415SOL    HW210646   2.515   1.719   1.438  0.4727  1.2314 -1.1668
 3416SOL     OW10647   0.760   1.012   0.193  0.5655  0.1504  0.1399
 3416SOL    HW110648   0.715   1.097   0.188 -1.6921 -0.8660  1.4227
 3416SOL    HW210649   0.776   0.988   0.102 -0.8991  0.9044 -0.3514
 3417SOL     OW10650   3.567   0.037   3.508  0.6284  0.2245 -0.6730
 3417SOL    HW110651   3.558  -0.031   3.575  0.9864  1.2633  0.4633
 3417SOL    HW210652   3.629  -0.001   3.445  0.7579 -0.5425 -0.1102
 3418SOL     OW10653   3.994   2.781   1.674 -0.4186  0.3823 -0.2485
 3418SOL    HW110654   3.953   2.782   1.761 -0.7423  0.3579 -0.4008
 3418SOL    HW210655   4.054   2.856   1.675  0.7182 -0.5017  0.5355
 3419SOL     OW10656   6.072   5.953   5.006  0.3681  0.3742  0.3324
 3419SOL    HW110657   6.099   5.891   5.073 -1.1399 -2.6753 -1.6872
 3419SOL    HW210658   5.978   5.963   5.017  0.7199  3.7720  1.6071
 3420SOL     OW10659   1.122   6.128   5.860  0.2556 -0.4300 -0.3775
 3420SOL    HW110660   1.173   6.132   5.941 -0.8844  0.8390  0.3215
 3420SOL    HW210661   1.076   6.044   5.865  0.5063 -0.5420  0.0982
 3421SOL     OW10662   0.518   5.834   0.845  0.0494 -0.9515 -0.3625
 3421SOL    HW110663   0.565   5.796   0.771 -0.1026  1.8404 -2.0343
 3421SOL    HW210664   0.572   5.908   0.873 -0.7228 -0.9392  1.2625
 3422SOL     OW10665   6.199   3.195   4.754 -0.0630  0.3432 -0.2113
 3422SOL    HW110666   6.128   3.231   4.806 -0.2175  2.4463 -1.7658
 3422SOL    HW210667   6.190   3.236   4.668  0.8017 -2.1809 -1.6330
 3423SOL     OW10668   4.985   2.370   0.834  0.3468 -0.3376 -0.5854
 3423SOL    HW110669   4.938   2.446   0.868  0.1233 -0.2361 -1.1130
 3423SOL    HW210670   5.062   2.408   0.790  2.3330 -0.6073  2.3916
 3424SOL     OW10671   0.611   0.250   0.583  0.3270 -0.3144  0.4252
 3424SOL    HW110672   0.583   0.211   0.500 -2.9801 -0.2145  1.3465
 3424SOL    HW210673   0.654   0.332   0.558  0.6944 -0.9750 -1.2094
 3425SOL     OW10674   1.265   3.212   3.110 -1.0295 -0.2274 -0.3627
 3425SOL    HW110675   1.359   3.200   3.124 -1.4564 -2.8732  0.9299
 3425SOL    HW210676   1.248   3.303   3.134  1.0549  0.0476  0.2437
 3426SOL     OW10677   0.078   2.541   4.650 -0.5028  0.2122 -0.2519
 3426SOL    HW110678   0.038   2.505   4.571 -0.5766  0.0711 -0.1517
 3426SOL    HW210679   0.019   2.611   4.677  0.3731  1.3808 -1.2476
 3427SOL     OW10680   5.574   0.528   2.095  0.5042 -0.4253  0.6162
 3427SOL    HW110681   5.608   0.499   2.011  0.4574  0.0988  0.4098
 3427SOL    HW210682   5.642   0.504   2.158  2.1078  2.0901 -0.0043
 3428SOL     OW10683   4.688   2.999   6.092  0.0264  0.1057  0.2333
 3428SOL    HW110684   4.623   3.058   6.131 -0.0361  0.6407 -0.6545
 3428SOL    HW210685   4.731   2.958   6.167 -2.2905 -1.3589  0.8707
 3429SOL     OW10686   0.351   1.880   0.405  0.4522 -0.1524  0.2659
 3429SOL    HW110687   0.388   1.966   0.387  1.1472 -0.6965 -1.0019
 3429SOL    HW210688   0.423   1.830   0.443  0.6196 -0.7568 -0.8098
 3430SOL     OW10689   3.188   3.240   3.172 -0.7203  0.5019 -0.4716
 3430SOL    HW110690   3.118   3.202   3.226 -0.4496  0.2450 -0.2983
 3430SOL    HW210691   3.145   3.309   3.123 -1.1398  0.2271 -0.5000
 3431SOL     OW10692   3.610   5.399   1.122  0.0279 -0.3109  0.0581
 3431SOL    HW110693   3.601   5.310   1.087  0.3543  0.8125 -3.1943
 3431SOL    HW210694   3.526   5.417   1.165 -1.2788 -1.1059 -2.0229
 3432SOL     OW10695   3.319   5.295   1.850 -0.1856 -0.0336 -0.9103
 3432SOL    HW110696   3.286   5.384   1.834 -1.0314 -0.4033 -1.2867
 3432SOL    HW210697   3.265   5.262   1.922 -1.9566 -1.3187 -2.7519
 3433SOL     OW10698   5.955   0.460   6.751  0.7285 -0.3613 -0.3448
 3433SOL    HW110699   5.966   0.497   6.838  0.5605 -0.3805 -0.3160
 3433SOL    HW210700   6.000   0.522   6.693 -1.2667  0.9747 -0.5478
 3434SOL     OW10701   2.670   0.230   2.871 -0.1920  0.4675  0.3865
 3434SOL    HW110702   2.754   0.260   2.906  1.8210 -2.0229 -1.8697
 3434SOL    HW210703   2.641   0.164   2.934  1.8848 -1.7992 -0.8239
 3435SOL     OW10704   3.111   3.169   4.539  0.0364  0.1043 -0.9533
 3435SOL    HW110705   3.164   3.090   4.528 -0.4621 -0.3074 -0.4548
 3435SOL    HW210706   3.058   3.152   4.617 -0.0261  0.9629 -0.8024
 3436SOL     OW10707   5.978   0.160   5.146  0.5255  0.6029  0.1336
 3436SOL    HW110708   5.977   0.072   5.110  1.3921  0.3134  0.7891
 3436SOL    HW210709   6.031   0.153   5.226 -0.7101  1.3733  1.0629
 3437SOL     OW10710   6.076   0.581   0.819  0.0543 -0.5021 -0.1420
 3437SOL    HW110711   6.093   0.675   0.833  0.3627 -0.3222 -1.6098
 3437SOL    HW210712   6.124   0.538   0.889  1.9650  0.3223 -0.8748
 3438SOL     OW10713   3.922   0.967   1.128 -0.2183 -0.0531  0.2706
 3438SOL    HW110714   3.978   0.996   1.199  1.8764 -1.2570 -0.7791
 3438SOL    HW210715   3.922   0.871   1.135 -1.4553 -0.1124 -0.2861
 3439SOL     OW10716   5.505   1.166   1.950  0.0546 -0.2201  0.1184
 3439SOL    HW110717   5.409   1.174   1.952 -0.4543 -4.0883  0.3328
 3439SOL    HW210718   5.521   1.097   1.885  2.5447 -0.8308  1.2593
 3440SOL     OW10719   4.874   3.886   3.054 -0.1643  0.4772  0.0949
 3440SOL    HW110720   4.816   3.959   3.031 -0.7031  0.6231  1.7900
 3440SOL    HW210721   4.876   3.832   2.975 -1.7005  1.0769 -0.4030
 3441SOL     OW10722   2.458   3.093   1.851  0.2582 -0.1277 -0.4186
 3441SOL    HW110723   2.420   3.109   1.937  1.0701 -3.8989  0.8611
 3441SOL    HW210724   2.383   3.065   1.797  0.0210  0.4575 -0.3972
 3442SOL     OW10725   3.043   1.007   2.358  0.1191 -0.5336 -0.2808
 3442SOL    HW110726   3.095   0.937   2.399 -1.2275 -1.0285  0.6396
 3442SOL    HW210727   3.007   0.967   2.279 -0.5524 -0.8687  0.1827
 3443SOL     OW10728   1.906   0.628   2.385 -0.3632  0.3029 -0.1195
 3443SOL    HW110729   1.974   0.694   2.385 -3.2772  3.6563  1.4555
 3443SOL    HW210730   1.852   0.648   2.308 -1.2570 -0.2812  0.3283
 3444SOL     OW10731   4.117   5.940   2.198 -0.2055 -0.0747  0.2014
 3444SOL    HW110732   4.055   5.967   2.130 -0.4977  1.3150  0.9705
 3444SOL    HW210733   4.191   5.902   2.150 -2.0231 -2.7194 -0.7098
 3445SOL     OW10734   5.618   6.270   5.852  0.0383  0.0662  0.3214
 3445SOL    HW110735   5.550   6.202   5.851 -0.1958  0.3032  0.1025
 3445SOL    HW210736   5.595   6.327   5.925 -0.0624  0.2116  0.1766
 3446SOL     OW10737   3.751   5.515   1.436 -0.0991 -0.6112  0.1675
 3446SOL    HW110738   3.698   5.593   1.456 -0.6671 -0.9620  0.0632
 3446SOL    HW210739   3.702   5.443   1.474 -0.4324 -1.1130 -1.1459
 3447SOL     OW10740   2.706   1.851   5.763  0.8695  1.1354  0.3257
 3447SOL    HW110741   2.785   1.857   5.817  0.9019 -2.3753  0.8680
 3447SOL    HW210742   2.634   1.855   5.826  0.6821  1.7617  0.0827
 3448SOL     OW10743   5.002   2.795   6.092  0.1682 -0.3799 -0.0076
 3448SOL    HW110744   4.927   2.763   6.142 -0.2808  1.0527  0.2946
 3448SOL    HW210745   4.962   2.843   6.018  0.7989 -0.4463 -0.3940
 3449SOL     OW10746   6.542   1.755   5.818 -0.0181 -0.2491 -0.1496
 3449SOL    HW110747   6.590   1.673   5.802  2.2069  1.3352 -2.3096
 3449SOL    HW210748   6.486   1.765   5.741 -1.1150 -0.2363  0.6270
 3450SOL     OW10749   3.487   5.164   2.167  0.1828 -0.1799 -0.0757
 3450SOL    HW110750   3.428   5.211   2.226  1.9936  0.8458  0.9787
 3450SOL    HW210751   3.461   5.072   2.177 -0.5401  0.1304  1.1794
 3451SOL     OW10752   1.069   5.962   4.201  0.0173  0.4240 -0.4187
 3451SOL    HW110753   1.003   6.011   4.249 -0.1717  1.0070 -1.2492
 3451SOL    HW210754   1.106   5.902   4.266  0.2690  1.6641  0.6242
 3452SOL     OW10755   2.941   5.757   1.949  0.3051 -0.2286  0.0211
 3452SOL    HW110756   2.942   5.835   1.894  0.4243  0.2554  0.6995
 3452SOL    HW210757   2.924   5.790   2.037  0.9784 -0.9049  0.4111
 3453SOL     OW10758   3.916   5.863   4.758  0.0068 -0.1462 -0.0448
 3453SOL    HW110759   3.966   5.815   4.825  2.2678  0.2483 -1.3298
 3453SOL    HW210760   3.946   5.953   4.766  2.4529 -0.4805 -3.1760
 3454SOL     OW10761   3.788   1.441   1.817 -0.3617 -0.1745 -0.1977
 3454SOL    HW110762   3.696   1.415   1.812 -0.5013  0.3212 -0.1878
 3454SOL    HW210763   3.799   1.472   1.906 -0.6646  1.5551 -0.7286
 3455SOL     OW10764   1.855   4.254   5.252  0.2050 -0.4869 -0.1195
 3455SOL    HW110765   1.856   4.349   5.262 -3.1419 -0.1129 -2.0099
 3455SOL    HW210766   1.839   4.221   5.341  1.8445  0.6097  0.6415
 3456SOL     OW10767   0.190   1.090   3.494 -0.1206 -0.1512 -0.0114
 3456SOL    HW110768   0.121   1.127   3.549  0.2824  0.7008 -0.0550
 3456SOL    HW210769   0.144   1.036   3.430 -0.7618  0.5331 -0.1398
 3457SOL     OW10770   6.627   6.507   1.963 -0.1431  0.3023  0.1402
 3457SOL    HW110771   6.717   6.529   1.938 -0.1770 -0.0688 -0.3136
 3457SOL    HW210772   6.623   6.527   2.057  0.4555  0.1861  0.1936
 3458SOL     OW10773   6.087   4.461   0.807  0.3693  0.3363 -0.3632
 3458SOL    HW110774   6.056   4.375   0.780  0.7984  0.1024 -0.1183
 3458SOL    HW210775   6.040   4.479   0.888  0.5071  0.1909 -0.2485
 3459SOL     OW10776   5.049   1.884   2.606  0.0183 -0.7308 -0.1054
 3459SOL    HW110777   4.984   1.815   2.595  0.3047 -0.5671 -4.2199
 3459SOL    HW210778   5.127   1.839   2.639 -1.3785 -1.2757  2.7636
 3460SOL     OW10779   1.393   2.458   4.222  0.2501 -0.4938 -0.3504
 3460SOL    HW110780   1.299   2.446   4.217  0.1371 -1.5617  2.5799
 3460SOL    HW210781   1.430   2.385   4.172 -0.5403 -2.4799  1.7943
 3461SOL     OW10782   5.749   0.726   5.831  0.2189  0.0310 -0.6896
 3461SOL    HW110783   5.741   0.763   5.743  0.0076  0.4483 -0.4948
 3461SOL    HW210784   5.725   0.634   5.820 -0.2299  0.1822 -0.9917
 3462SOL     OW10785   2.235   0.484   5.412 -0.5931 -0.2637 -0.3235
 3462SOL    HW110786   2.281   0.401   5.425  0.6843  0.5758  0.8583
 3462SOL    HW210787   2.287   0.531   5.348  0.6968  0.9699  1.5182
 3463SOL     OW10788   1.154   3.520   5.180  0.2713 -0.4885 -0.2693
 3463SOL    HW110789   1.173   3.494   5.089  2.3100 -2.3539  0.5971
 3463SOL    HW210790   1.227   3.577   5.204 -0.1830 -0.1236  0.2574
 3464SOL     OW10791   0.506   0.311   6.006 -0.0901 -0.8006  0.5268
 3464SOL    HW110792   0.518   0.358   6.088 -1.0680 -3.2404  2.1825
 3464SOL    HW210793   0.419   0.271   6.014 -1.6137  1.3333 -3.0575
 3465SOL     OW10794   5.445   2.301   1.168  0.1945 -0.4471 -0.1124
 3465SOL    HW110795   5.467   2.246   1.093 -1.7705  0.5012 -1.4850
 3465SOL    HW210796   5.410   2.382   1.130 -0.4074  0.2799  1.8190
 3466SOL     OW10797   0.967   0.784   3.749 -0.1042  0.1191 -0.2259
 3466SOL    HW110798   0.910   0.858   3.771  0.3485  0.8165 -1.3221
 3466SOL    HW210799   0.936   0.755   3.663  1.5088  0.8540 -1.0882
 3467SOL     OW10800   6.261   3.414   6.305  0.4668 -0.4053 -0.4616
 3467SOL    HW110801   6.354   3.416   6.325  0.9564 -0.7017 -2.4928
 3467SOL    HW210802   6.233   3.505   6.311  1.2308 -0.1047 -1.2463
 3468SOL     OW10803   0.866   2.293   5.810 -0.0129  0.2257 -0.0334
 3468SOL    HW110804   0.849   2.337   5.726 -0.5788  0.3648  0.1525
 3468SOL    HW210805   0.959   2.269   5.805 -0.3445 -0.9556 -1.2520
 3469SOL     OW10806   5.443   6.748   5.631  0.0723 -0.3073 -0.1310
 3469SOL    HW110807   5.474   6.676   5.685  0.6831 -0.5298 -0.7602
 3469SOL    HW210808   5.373   6.710   5.577  0.7403 -0.5752 -0.8282
 3470SOL     OW10809   1.320   0.659   6.778  0.3727  0.3654 -0.1281
 3470SOL    HW110810   1.401   0.660   6.727  1.1100  1.1132  1.0165
 3470SOL    HW210811   1.259   0.609   6.724  2.4150 -2.7908  0.1995
 3471SOL     OW10812   1.662   0.062   6.150  0.7402  0.0100 -0.2382
 3471SOL    HW110813   1.616  -0.022   6.141 -2.7861  1.6000  1.0212
 3471SOL    HW210814   1.697   0.060   6.239 -0.0580  0.1669  0.0858
 3472SOL     OW10815   6.540   0.573   4.476 -0.2155 -0.4934  0.4191
 3472SOL    HW110816   6.559   0.659   4.512  0.0566 -0.3134 -0.1513
 3472SOL    HW210817   6.624   0.527   4.479 -0.4065 -0.8121  0.9212
 3473SOL     OW10818   4.079   5.270   3.439 -0.1547 -0.3836  0.2935
 3473SOL    HW110819   4.034   5.319   3.508 -1.3008 -2.8438  1.4186
 3473SOL    HW210820   4.137   5.209   3.486  0.8879 -0.4595 -1.0097
 3474SOL     OW10821   2.645   6.387   0.261  0.3209  0.1384 -0.2668
 3474SOL    HW110822   2.588   6.419   0.331  1.1640 -0.0339  0.5206
 3474SOL    HW210823   2.662   6.465   0.208  0.1551  0.4140  0.0744
 3475SOL     OW10824   1.068   3.985   0.528  0.5767 -0.0539 -0.0623
 3475SOL    HW110825   1.117   3.913   0.488 -1.5666 -1.6361 -0.0672
 3475SOL    HW210826   1.035   4.036   0.454 -0.6427 -1.0483 -0.2352
 3476SOL     OW10827   6.181   2.140   1.608  0.4625  0.1942 -0.5214
 3476SOL    HW110828   6.191   2.045   1.594  0.4786  0.0978  0.1239
 3476SOL    HW210829   6.261   2.166   1.652 -0.5550  0.0508  1.5288
 3477SOL     OW10830   0.836   5.613   1.442  0.0407 -0.1371  0.1421
 3477SOL    HW110831   0.890   5.541   1.477  2.2537  1.8722  1.1435
 3477SOL    HW210832   0.776   5.634   1.514 -0.8349 -1.1064 -0.2675
 3478SOL     OW10833   0.215   3.420   2.113 -0.2728  0.3815  0.1003
 3478SOL    HW110834   0.252   3.502   2.146 -0.3839  0.4122  0.1505
 3478SOL    HW210835   0.282   3.386   2.054  0.9050 -0.8004  2.0126
 3479SOL     OW10836   2.984   2.241   1.358 -0.5438 -0.0581  0.1594
 3479SOL    HW110837   3.079   2.241   1.370 -0.6329 -0.2263  0.9687
 3479SOL    HW210838   2.958   2.149   1.366 -0.5811 -0.2696 -1.9380
 3480SOL     OW10839   5.016   3.763   4.444 -0.3210 -0.0894 -0.7195
 3480SOL    HW110840   5.021   3.810   4.527 -2.3074 -1.0192 -0.0013
 3480SOL    HW210841   5.106   3.739   4.423  0.3568  1.2613  0.4964
 3481SOL     OW10842   2.352   5.965   6.478  0.4712  0.1103 -0.0640
 3481SOL    HW110843   2.362   5.963   6.573  2.0703 -0.2195 -0.2074
 3481SOL    HW210844   2.334   5.874   6.455 -0.5127  0.2900 -0.0364
 3482SOL     OW10845   4.807   4.561   6.440  0.7001  0.1743 -0.8881
 3482SOL    HW110846   4.801   4.605   6.525  3.4568 -0.7391 -0.1084
 3482SOL    HW210847   4.756   4.480   6.451  0.5548  0.3400 -0.3169
 3483SOL     OW10848   1.422   4.799   3.678 -0.2646 -0.1750 -0.6085
 3483SOL    HW110849   1.478   4.728   3.647 -1.5507 -1.6626  0.3447
 3483SOL    HW210850   1.430   4.796   3.774  0.0733  1.3449 -0.5534
 3484SOL     OW10851   2.034   6.338   1.216 -0.0315  0.1143 -0.2309
 3484SOL    HW110852   2.079   6.262   1.179  1.3433 -0.3737  2.2464
 3484SOL    HW210853   2.103   6.402   1.231 -0.9816  1.3694 -1.0545
 3485SOL     OW10854   4.598   0.418   0.363 -0.1658  0.1591 -0.5837
 3485SOL    HW110855   4.588   0.332   0.322 -0.3833  0.1654 -0.5448
 3485SOL    HW210856   4.573   0.480   0.294  1.1862  0.2493 -1.0156
 3486SOL     OW10857   3.849   1.456   2.710  0.4057 -0.8619  0.2246
 3486SOL    HW110858   3.878   1.483   2.797 -1.4802 -1.4870  1.0877
 3486SOL    HW210859   3.893   1.373   2.694 -1.6295 -2.3775  2.0021
 3487SOL     OW10860   1.598   0.200   0.481 -0.0121  0.0286  0.1783
 3487SOL    HW110861   1.580   0.293   0.463  0.9549 -0.0884 -1.4769
 3487SOL    HW210862   1.511   0.161   0.490 -0.4718  0.7287 -1.0588
 3488SOL     OW10863   4.634   2.991   4.557 -0.0840  0.3003 -0.5627
 3488SOL    HW110864   4.626   2.976   4.651 -0.8586  0.9669 -0.5031
 3488SOL    HW210865   4.671   2.911   4.522 -1.6288 -0.7341  0.0634
 3489SOL     OW10866   5.462   5.170   0.402  0.1259 -0.1213  0.0909
 3489SOL    HW110867   5.450   5.171   0.307  0.6127 -0.6796  0.0150
 3489SOL    HW210868   5.445   5.079   0.427  0.5965 -0.1129  0.4502
 3490SOL     OW10869   4.958   1.324   0.623  0.6327 -0.7848 -0.3945
 3490SOL    HW110870   4.871   1.288   0.644  0.0480 -0.2507 -1.7752
 3490SOL    HW210871   4.994   1.351   0.707 -1.7191  1.5920 -0.0327
 3491SOL     OW10872   6.021   2.385   4.394 -0.3887 -0.3973 -0.7995
 3491SOL    HW110873   5.996   2.469   4.433  3.2490  1.4896 -2.0717
 3491SOL    HW210874   6.013   2.400   4.299 -0.0477 -1.6201 -1.0386
 3492SOL     OW10875   0.533   1.766   1.984 -0.5898  0.5058 -0.4058
 3492SOL    HW110876   0.522   1.774   2.079  1.3292  2.5379 -0.2572
 3492SOL    HW210877   0.501   1.850   1.950 -0.1352  0.2817 -1.4165
 3493SOL     OW10878   2.541   6.354   3.505  0.2518 -0.6139 -0.4933
 3493SOL    HW110879   2.451   6.371   3.534  0.9300  0.9688  0.8619
 3493SOL    HW210880   2.538   6.265   3.471 -1.6780 -0.8760  0.2028
 3494SOL     OW10881   3.709   4.649   0.460  0.7792  0.0438 -0.5660
 3494SOL    HW110882   3.714   4.725   0.518 -1.7098 -1.1627  1.4786
 3494SOL    HW210883   3.797   4.611   0.463  1.5661  1.7726 -0.1537
 3495SOL     OW10884   3.178   2.014   4.426  0.0701 -0.2916  0.0860
 3495SOL    HW110885   3.265   2.001   4.388  0.2058 -0.5644  0.4818
 3495SOL    HW210886   3.156   2.104   4.405  1.0171  0.2064  1.1217
 3496SOL     OW10887   5.815   0.783   1.679  0.4627 -0.1618 -0.5408
 3496SOL    HW110888   5.767   0.782   1.762 -0.5308 -0.7777 -1.1009
 3496SOL    HW210889   5.907   0.791   1.704  0.1122  0.5237  0.5820
 3497SOL     OW10890   3.131   4.701   6.486 -0.1321  0.3374  0.0263
 3497SOL    HW110891   3.107   4.754   6.562 -1.1983 -1.3362  0.9002
 3497SOL    HW210892   3.226   4.710   6.480 -0.3253  3.1946 -0.5467
 3498SOL     OW10893   0.581   4.058   4.808 -0.1985 -0.5039 -0.2117
 3498SOL    HW110894   0.633   4.137   4.822  0.6062 -0.5411 -2.6173
 3498SOL    HW210895   0.645   3.989   4.789 -0.9225 -1.6169  1.2033
 3499SOL     OW10896   4.607   0.945   4.509 -0.5103 -0.3222 -0.2587
 3499SOL    HW110897   4.565   1.024   4.476 -0.1083 -0.4260 -1.0414
 3499SOL    HW210898   4.651   0.908   4.433  0.4013 -0.5957  0.3842
 3500SOL     OW10899   6.457   1.513   5.954 -0.2514  0.0370  0.2683
 3500SOL    HW110900   6.450   1.450   5.882 -3.3114 -0.2023  0.6168
 3500SOL    HW210901   6.384   1.490   6.012 -0.1154  2.5234  1.5401
 3501SOL     OW10902   1.748   0.147   4.643  0.2243  0.0817 -0.1101
 3501SOL    HW110903   1.786   0.082   4.702  0.1003 -1.4618 -1.6531
 3501SOL    HW210904   1.773   0.232   4.681 -0.0964 -0.8151  2.2769
 3502SOL     OW10905   6.159   0.972   1.073  0.0307  0.2493 -0.2527
 3502SOL    HW110906   6.101   0.904   1.039 -0.3826  1.2893 -1.6799
 3502SOL    HW210907   6.235   0.924   1.106 -0.7234 -0.9765 -0.2444
 3503SOL     OW10908   2.351   4.903   4.904 -0.5716  0.4488  0.0696
 3503SOL    HW110909   2.347   4.825   4.959  0.7371 -0.3490 -0.8844
 3503SOL    HW210910   2.284   4.889   4.837 -0.9424  0.5732  0.4120
 3504SOL     OW10911   3.731   6.279   1.817 -0.1313 -0.5498  0.0842
 3504SOL    HW110912   3.737   6.187   1.791  0.8261 -0.1135 -1.3527
 3504SOL    HW210913   3.731   6.327   1.734 -0.8157  0.7484  0.8050
 3505SOL     OW10914   5.588   2.748   0.746 -0.4447 -0.6944 -0.0401
 3505SOL    HW110915   5.603   2.668   0.797  1.2399 -0.9886 -0.9153
 3505SOL    HW210916   5.655   2.745   0.677 -0.1452  1.6079  0.0729
 3506SOL     OW10917   0.662   5.731   3.328 -0.2636 -0.0875  0.1605
 3506SOL    HW110918   0.594   5.798   3.332 -1.2273 -1.0653  0.4028
 3506SOL    HW210919   0.628   5.658   3.378  1.0088 -0.5746  0.3631
 3507SOL     OW10920   4.906   4.001   1.456 -0.0400 -0.3150 -0.1870
 3507SOL    HW110921   4.869   3.989   1.544  0.7820  1.4718  0.4563
 3507SOL    HW210922   4.851   4.067   1.415  1.1413  0.8851  0.0496
 3508SOL     OW10923   4.346   6.375   3.213  0.3965 -0.1785 -0.3051
 3508SOL    HW110924   4.299   6.337   3.139  0.4471  0.8741 -0.9021
 3508SOL    HW210925   4.427   6.325   3.218  0.5172 -0.0838 -1.1456
 3509SOL     OW10926   4.894   2.458   3.449 -0.0811  0.0252 -0.1652
 3509SOL    HW110927   4.986   2.434   3.441  0.2703  1.1999  0.0829
 3509SOL    HW210928   4.867   2.478   3.360 -0.0567 -0.2108 -0.2247
 3510SOL     OW10929   5.521   0.854   0.080  0.3510  0.7511 -0.0319
 3510SOL    HW110930   5.500   0.945   0.101 -0.6999  0.0632  2.2210
 3510SOL    HW210931   5.437   0.813   0.059  0.6811  0.0782 -0.0874
 3511SOL     OW10932   1.619   0.383   0.056  0.4010 -0.2975  0.6455
 3511SOL    HW110933   1.623   0.452   0.122 -1.8563 -1.8320  2.5809
 3511SOL    HW210934   1.670   0.311   0.094 -0.0145 -0.8237  0.2253
 3512SOL     OW10935   5.787   2.977   2.178  0.4982  0.1258  0.3012
 3512SOL    HW110936   5.865   3.008   2.132 -0.9149  0.6792 -1.9187
 3512SOL    HW210937   5.768   2.892   2.139 -0.2491  0.2102  0.4598
 3513SOL     OW10938   3.744   2.912   3.195 -0.1110 -0.1680  0.1271
 3513SOL    HW110939   3.729   2.966   3.117 -1.3638 -0.1880  0.3410
 3513SOL    HW210940   3.683   2.947   3.261 -0.8993 -1.7731  0.2951
 3514SOL     OW10941   4.214   1.908   4.992 -0.3178  0.0259 -0.3934
 3514SOL    HW110942   4.192   1.949   5.075  0.8192 -1.0346  0.4547
 3514SOL    HW210943   4.279   1.967   4.952  1.8554 -1.1840  1.1469
 3515SOL     OW10944   5.100   5.426   0.840 -0.6485 -0.0883  0.3112
 3515SOL    HW110945   5.017   5.466   0.867 -0.7616 -0.1429  0.0437
 3515SOL    HW210946   5.167   5.474   0.890 -0.5802  1.8278 -1.4821
 3516SOL     OW10947   4.626   1.129   0.361  0.5521 -0.3991  0.4243
 3516SOL    HW110948   4.656   1.052   0.410  2.3472  0.8620  1.4075
 3516SOL    HW210949   4.701   1.154   0.307 -0.2497  0.2750 -0.3982
 3517SOL     OW10950   4.161   0.280   0.429 -0.0770  0.5790  0.5892
 3517SOL    HW110951   4.248   0.292   0.468  0.2373 -1.3662  0.5586
 3517SOL    HW210952   4.174   0.296   0.336  0.7354 -1.7027  0.2682
 3518SOL     OW10953   5.238   3.861   3.553  0.0566 -0.2702  0.5432
 3518SOL    HW110954   5.243   3.827   3.463 -1.3906 -1.8389  0.9986
 3518SOL    HW210955   5.301   3.808   3.601  1.9273  1.5508  0.2503
 3519SOL     OW10956   1.998   1.889   4.913  0.4707  0.1289 -0.6123
 3519SOL    HW110957   1.935   1.818   4.916 -0.3112  0.8342  1.2662
 3519SOL    HW210958   1.963   1.950   4.848  0.2789 -0.4167 -1.0241
 3520SOL     OW10959   3.385   1.062   1.051  0.1643  0.0702 -0.2743
 3520SOL    HW110960   3.437   1.060   1.131  0.5947  0.9529 -0.5146
 3520SOL    HW210961   3.312   1.122   1.071  1.5921  2.2594 -1.2775
 3521SOL     OW10962   3.104   0.938   6.609 -0.2443  0.4914 -0.3491
 3521SOL    HW110963   3.104   0.974   6.521 -1.1528  0.6798 -0.2819
 3521SOL    HW210964   3.177   0.983   6.653 -1.3947  2.3700 -0.2410
 3522SOL     OW10965   6.672   6.679   2.222 -0.0740 -0.0202  0.0142
 3522SOL    HW110966   6.752   6.723   2.249 -0.5768  1.1797 -0.3731
 3522SOL    HW210967   6.601   6.738   2.249 -0.9530 -1.7396  1.7068
 3523SOL     OW10968   5.408   6.234   0.432 -0.0088 -0.5423 -0.4639
 3523SOL    HW110969   5.450   6.215   0.515  1.7391  1.6699 -0.7232
 3523SOL    HW210970   5.439   6.166   0.372  0.9744 -0.5539  0.0500
 3524SOL     OW10971   5.469   5.221   0.143 -0.3370 -0.0652 -0.7800
 3524SOL    HW110972   5.462   5.159   0.071 -2.0533 -0.1521 -0.5806
 3524SOL    HW210973   5.417   5.297   0.115  1.1557  1.0201 -0.7266
 3525SOL     OW10974   5.208   2.812   5.642  0.5052 -0.2778  0.0006
 3525SOL    HW110975   5.192   2.749   5.712  1.0013 -0.7010 -0.2697
 3525SOL    HW210976   5.287   2.782   5.599 -1.6787 -2.2072 -3.1215
 3526SOL     OW10977   6.431   4.841   3.818 -0.8644  0.3173  0.1526
 3526SOL    HW110978   6.472   4.913   3.770 -0.7709  0.0688 -0.1376
 3526SOL    HW210979   6.482   4.833   3.898 -0.3468  0.0127 -0.2035
 3527SOL     OW10980   4.690   2.682   3.157  0.3376 -0.4032  0.2832
 3527SOL    HW110981   4.619   2.617   3.157  0.0601 -0.1114  1.1201
 3527SOL    HW210982   4.688   2.720   3.069 -0.8093 -0.1108  0.4285
 3528SOL     OW10983   0.660   0.022   2.006 -0.1334  0.3451 -0.5050
 3528SOL    HW110984   0.569   0.051   2.004 -1.0130 -1.9691  1.2803
 3528SOL    HW210985   0.671  -0.026   1.924 -1.0072 -0.5598 -0.1127
 3529SOL     OW10986   5.907   0.791   0.449  0.6472  0.4308  0.1183
 3529SOL    HW110987   5.835   0.788   0.512  1.9340  0.7609  1.6731
 3529SOL    HW210988   5.943   0.702   0.449  2.4420  1.0933  2.0899
 3530SOL     OW10989   6.295   0.092   1.803 -0.0527 -0.1210 -0.6479
 3530SOL    HW110990   6.335   0.006   1.792 -0.1075 -0.4638  1.4817
 3530SOL    HW210991   6.223   0.094   1.740 -1.3477 -2.4700  0.6263
 3531SOL     OW10992   6.176   5.388   0.844  0.4009  0.1050  0.1721
 3531SOL    HW110993   6.255   5.398   0.791  0.4543  1.3762  0.4692
 3531SOL    HW210994   6.139   5.304   0.816  0.7640  0.4425 -1.4218
 3532SOL     OW10995   0.308   2.436   4.750 -0.3255  0.1712 -0.2065
 3532SOL    HW110996   0.238   2.479   4.701  0.1612  1.7575  0.4214
 3532SOL    HW210997   0.308   2.479   4.835  2.1363  1.0767 -0.5761
 3533SOL     OW10998   0.612   6.329   6.619  0.3429  0.3005 -0.5741
 3533SOL    HW110999   0.529   6.375   6.630  0.1824 -0.2953  0.8332
 3533SOL    HW211000   0.666   6.390   6.569  0.0194  1.8864  0.9164
 3534SOL     OW11001   3.103   3.601   3.332 -0.3151  0.3625 -0.0670
 3534SOL    HW111002   3.018   3.565   3.356  0.3077 -1.5655 -0.6312
 3534SOL    HW211003   3.157   3.592   3.410 -0.2020  0.2490 -0.1589
 3535SOL     OW11004   6.548   6.387   5.284  0.4613  0.2671  0.0943
 3535SOL    HW111005   6.542   6.425   5.372 -1.9433  0.7686 -0.2150
 3535SOL    HW211006   6.535   6.462   5.225  2.9352  0.0937 -0.7729
 3536SOL     OW11007   3.147   6.194   5.095 -0.0319 -0.3674  0.6929
 3536SOL    HW111008   3.182   6.114   5.135 -1.1310 -0.9180  0.5834
 3536SOL    HW211009   3.052   6.181   5.094 -0.0875 -0.1511 -1.6313
 3537SOL     OW11010   2.889   4.405   5.980  0.4478  0.0900  1.0420
 3537SOL    HW111011   2.969   4.353   5.972  0.0280 -0.2628 -2.6419
 3537SOL    HW211012   2.919   4.491   6.009  2.4061  0.2797 -1.2403
 3538SOL     OW11013   0.395   1.898   0.770 -0.4621 -0.1619  0.1931
 3538SOL    HW111014   0.454   1.973   0.758  0.6613 -1.1935 -1.0054
 3538SOL    HW211015   0.337   1.901   0.694 -0.5245 -0.4199  0.2303
 3539SOL     OW11016   6.748   6.118   2.613  0.3245  0.8216 -0.4490
 3539SOL    HW111017   6.834   6.118   2.654 -0.4904  0.5935  1.3519
 3539SOL    HW211018   6.698   6.052   2.661 -0.6502  0.3903 -1.9657
 3540SOL     OW11019   5.166   0.692   0.848  0.2644 -0.9419  0.3365
 3540SOL    HW111020   5.228   0.685   0.921 -0.0853 -0.4796  0.6818
 3540SOL    HW211021   5.148   0.786   0.841  0.3209 -0.9810 -0.3676
 3541SOL     OW11022   4.860   3.975   3.495 -0.2939 -0.1703  0.1652
 3541SOL    HW111023   4.792   3.924   3.449 -0.1613 -0.2928  0.1029
 3541SOL    HW211024   4.942   3.943   3.457 -0.0522 -1.6254  1.8009
 3542SOL     OW11025   4.846   4.454   5.101 -0.5980 -0.3728  0.2566
 3542SOL    HW111026   4.806   4.528   5.055 -1.1762 -1.0027 -0.2820
 3542SOL    HW211027   4.860   4.389   5.032  2.4614  0.2352  0.1624
 3543SOL     OW11028   3.403   1.057   2.204 -0.4509 -0.0397  0.3327
 3543SOL    HW111029   3.390   0.979   2.150  2.4781  0.5059 -1.3992
 3543SOL    HW211030   3.409   1.129   2.141  1.7185  0.8345  1.4176
 3544SOL     OW11031   3.890   6.536   2.318  0.0062 -0.1783 -0.0094
 3544SOL    HW111032   3.963   6.480   2.291 -0.0967 -0.9026  1.1584
 3544SOL    HW211033   3.816   6.476   2.326  0.3321 -0.3195  3.1792
 3545SOL     OW11034   4.351   3.486   0.055 -0.1906 -0.0662 -0.1230
 3545SOL    HW111035   4.324   3.501   0.146  0.7424  2.3047 -0.1669
 3545SOL    HW211036   4.312   3.558   0.006 -1.3457 -1.7545 -1.7966
 3546SOL     OW11037   2.299   4.722   2.827 -0.2358 -0.1521  0.0648
 3546SOL    HW111038   2.220   4.689   2.785  0.0521 -0.1022 -0.5224
 3546SOL    HW211039   2.368   4.712   2.761  0.0122  0.8864  0.1505
 3547SOL     OW11040   5.869   4.572   6.727  0.4428  0.1151  0.1700
 3547SOL    HW111041   5.945   4.626   6.749  1.1314 -0.0043 -1.7135
 3547SOL    HW211042   5.891   4.485   6.758  1.5915 -0.1572 -1.2905
 3548SOL     OW11043   3.613   5.106   1.158  0.3816  0.0076 -0.7505
 3548SOL    HW111044   3.606   5.137   1.248 -2.6669  1.2719 -1.3077
 3548SOL    HW211045   3.669   5.028   1.163  2.3311  1.4294  1.8038
 3549SOL     OW11046   3.499   0.109   1.965  0.4214  0.3196  0.4097
 3549SOL    HW111047   3.535   0.051   1.898 -0.1260  1.1032 -0.5825
 3549SOL    HW211048   3.573   0.130   2.021  0.6227 -1.3725  0.8370
 3550SOL     OW11049   3.335   6.172   2.754 -0.1261 -0.3872 -0.1497
 3550SOL    HW111050   3.421   6.164   2.794 -0.9373  0.1497  1.8360
 3550SOL    HW211051   3.312   6.265   2.764 -1.7527 -0.8774  1.2906
 3551SOL     OW11052   1.665   3.144   5.752 -0.0352  0.0791  0.5375
 3551SOL    HW111053   1.740   3.202   5.738 -0.4999  0.5018 -0.2865
 3551SOL    HW211054   1.663   3.129   5.847  0.2365  1.2257  0.7377
 3552SOL     OW11055   5.203   2.762   0.287 -0.0941 -0.3381 -0.4663
 3552SOL    HW111056   5.168   2.697   0.226  2.0059 -0.0706 -2.0877
 3552SOL    HW211057   5.214   2.841   0.234 -0.2570  0.5870  0.8359
 3553SOL     OW11058   2.261   6.156   2.068 -0.2375  0.2895  0.0693
 3553SOL    HW111059   2.353   6.132   2.077 -0.8018 -1.6042  1.4151
 3553SOL    HW211060   2.254   6.189   1.979  1.5218 -0.6336 -0.4680
 3554SOL     OW11061   6.087   1.988   2.821 -0.5163 -0.0708 -0.0514
 3554SOL    HW111062   6.073   1.986   2.915 -0.9802  0.0670 -0.1133
 3554SOL    HW211063   6.087   1.896   2.794 -0.6463 -0.0997  0.0481
 3555SOL     OW11064   5.103   0.526   2.898  0.1001  0.6916 -0.1296
 3555SOL    HW111065   5.037   0.553   2.834 -0.9927  0.0037  0.6803
 3555SOL    HW211066   5.150   0.455   2.855 -0.9284 -0.0763 -0.0346
 3556SOL     OW11067   2.891   6.561   4.193 -0.2745 -0.4733  0.0311
 3556SOL    HW111068   2.943   6.641   4.202 -1.1066  0.0780  0.0765
 3556SOL    HW211069   2.837   6.558   4.272 -0.3090 -1.0313 -0.0103
 3557SOL     OW11070   0.511   5.472   1.493 -0.5582  0.5924  0.2067
 3557SOL    HW111071   0.569   5.539   1.456 -0.6785  0.2996 -0.5122
 3557SOL    HW211072   0.488   5.416   1.420  0.2713 -0.7979  0.9717
 3558SOL     OW11073   5.354   6.645   3.076  0.0216  0.1840 -0.3660
 3558SOL    HW111074   5.425   6.606   3.127 -0.9043  0.1241  0.9021
 3558SOL    HW211075   5.376   6.623   2.985  0.9867 -0.8658  0.0962
 3559SOL     OW11076   4.631   5.949   3.561  0.0939  0.0607  0.2946
 3559SOL    HW111077   4.681   5.984   3.487 -1.6038 -0.7786 -1.3269
 3559SOL    HW211078   4.661   6.000   3.636 -0.9146  3.7205 -1.5635
 3560SOL     OW11079   4.859   3.539   0.193 -0.0030  0.6427 -0.0026
 3560SOL    HW111080   4.816   3.527   0.278  1.3691 -1.1082  0.4938
 3560SOL    HW211081   4.818   3.618   0.157 -2.7375 -0.2440  0.9376
 3561SOL     OW11082   3.384   4.567   3.056  0.3032  0.7115  0.0053
 3561SOL    HW111083   3.354   4.501   2.995  0.6846  1.0220 -0.5240
 3561SOL    HW211084   3.310   4.579   3.116  0.5154 -0.7629  0.6104
 3562SOL     OW11085   3.680   0.236   0.565 -0.2490  0.2098 -0.0299
 3562SOL    HW111086   3.773   0.252   0.580 -0.2634  2.7882 -1.9531
 3562SOL    HW211087   3.640   0.323   0.566 -2.1930 -0.5681 -1.8010
 3563SOL     OW11088   3.062   6.649   3.730 -0.4375  0.0487 -0.0283
 3563SOL    HW111089   3.079   6.583   3.797  1.0532  0.3366 -0.0838
 3563SOL    HW211090   3.049   6.599   3.649  1.8507 -0.2133 -0.3155
 3564SOL     OW11091   2.370   4.772   0.809 -0.1880  0.3912  0.3247
 3564SOL    HW111092   2.438   4.839   0.817 -0.1281  0.6091 -1.6175
 3564SOL    HW211093   2.316   4.801   0.736 -0.2300 -1.5888 -0.5007
 3565SOL     OW11094   6.379   4.149   0.376 -0.5169 -0.1072 -0.6690
 3565SOL    HW111095   6.340   4.235   0.362  1.0579  0.8458  0.4074
 3565SOL    HW211096   6.387   4.111   0.289 -2.4210  0.2646 -1.0358
 3566SOL     OW11097   1.828   3.453   2.490 -0.1361  0.0957 -0.4004
 3566SOL    HW111098   1.891   3.520   2.467  0.5983 -1.0974 -2.0180
 3566SOL    HW211099   1.744   3.486   2.456  0.0759  0.5240 -0.5155
 3567SOL     OW11100   1.955   1.556   5.230  0.4543 -0.7625 -0.0235
 3567SOL    HW111101   1.998   1.518   5.306  0.4728 -0.4211  0.1407
 3567SOL    HW211102   1.991   1.645   5.224 -0.6856 -0.2356  0.5065
 3568SOL     OW11103   0.232   2.147   0.183 -0.2700 -0.5095 -0.0293
 3568SOL    HW111104   0.199   2.217   0.128  0.6718 -0.4223 -0.4998
 3568SOL    HW211105   0.194   2.164   0.269 -0.4949  0.2616 -0.2747
 3569SOL     OW11106   4.840   2.560   4.345 -0.2453  0.2739  0.2721
 3569SOL    HW111107   4.767   2.535   4.402 -1.0126  0.8433 -0.4335
 3569SOL    HW211108   4.918   2.554   4.401 -0.7999 -0.5375  0.9843
 3570SOL     OW11109   4.722   5.371   6.227  0.9242 -0.1014  0.3917
 3570SOL    HW111110   4.659   5.309   6.191  2.1045 -1.1491  0.0741
 3570SOL    HW211111   4.778   5.318   6.283  0.4823  1.1128  2.0690
 3571SOL     OW11112   2.106   6.660   0.868  0.0407  0.1541 -0.3417
 3571SOL    HW111113   2.037   6.624   0.924 -1.8091  2.6902 -0.8239
 3571SOL    HW211114   2.079   6.750   0.850  2.2325  0.4880 -2.6443
 3572SOL     OW11115   4.451   5.460   1.107 -0.2336  0.0617  0.7294
 3572SOL    HW111116   4.489   5.548   1.108 -0.6249  0.3116 -1.2627
 3572SOL    HW211117   4.359   5.474   1.128 -0.8928  0.5587 -2.0740
 3573SOL     OW11118   5.153   1.437   3.448  0.0359  0.1360  0.0746
 3573SOL    HW111119   5.186   1.420   3.360 -1.3124  0.8220 -0.5991
 3573SOL    HW211120   5.232   1.437   3.503  0.8680 -0.6580 -1.0500
 3574SOL     OW11121   1.029   6.111   5.138  0.0327  0.3293  0.4550
 3574SOL    HW111122   1.121   6.139   5.133  0.2691 -0.2614  1.3561
 3574SOL    HW211123   0.995   6.126   5.050  0.5462  2.0762  0.5143
 3575SOL     OW11124   3.816   4.227   5.253 -0.8455  0.4648  0.0712
 3575SOL    HW111125   3.726   4.255   5.269 -1.1474 -1.4579  2.2572
 3575SOL    HW211126   3.849   4.203   5.339  0.8214 -1.5450 -1.0395
 3576SOL     OW11127   3.299   4.076   1.587 -0.2015 -0.4452 -0.4847
 3576SOL    HW111128   3.389   4.083   1.619 -0.5233  0.0028  0.3707
 3576SOL    HW211129   3.279   3.983   1.589  0.0783 -0.4991 -0.2179
 3577SOL     OW11130   4.708   3.699   2.197 -0.0140  0.1036 -0.6331
 3577SOL    HW111131   4.662   3.760   2.255 -0.5931  0.3929 -1.3778
 3577SOL    HW211132   4.658   3.702   2.115  0.0754 -1.2154 -0.7523
 3578SOL     OW11133   1.656   0.960   0.446  0.3309  0.5546  0.1762
 3578SOL    HW111134   1.751   0.972   0.454  0.6804 -0.9678 -1.0885
 3578SOL    HW211135   1.642   0.869   0.471 -0.6948  0.5585 -0.3440
 3579SOL     OW11136   5.969   5.773   6.298  0.2514 -0.2504  0.2501
 3579SOL    HW111137   5.930   5.845   6.347  0.9462 -0.0298  0.4820
 3579SOL    HW211138   5.955   5.696   6.354 -0.3946 -0.2888  0.0492
 3580SOL     OW11139   6.522   3.190   0.828  0.0953  0.4572  0.7276
 3580SOL    HW111140   6.492   3.102   0.806  1.1325  0.5851 -1.5892
 3580SOL    HW211141   6.525   3.192   0.924  0.8168 -2.3090  0.8443
 3581SOL     OW11142   0.263   4.465   1.679  0.7779 -0.0818 -0.4268
 3581SOL    HW111143   0.266   4.551   1.638  1.2906 -0.1746 -0.5907
 3581SOL    HW211144   0.322   4.472   1.754 -0.5171  0.2319  0.5949
 3582SOL     OW11145   3.720   3.173   3.549 -0.0392  0.2940  0.0858
 3582SOL    HW111146   3.791   3.224   3.588 -0.1159  0.5659 -0.1233
 3582SOL    HW211147   3.722   3.196   3.456  0.4756 -0.7536 -0.1713
 3583SOL     OW11148   3.072   1.106   1.443  0.5174  0.0520  0.4011
 3583SOL    HW111149   3.091   1.181   1.500  0.4864 -0.1346  0.6609
 3583SOL    HW211150   2.979   1.114   1.423  0.6381  0.4025 -0.0447
 3584SOL     OW11151   5.377   1.625   0.105  0.0738 -0.6547  0.4092
 3584SOL    HW111152   5.307   1.566   0.077  0.1344 -1.1880  1.3551
 3584SOL    HW211153   5.432   1.571   0.162  0.3597  0.2136  0.9617
 3585SOL     OW11154   2.466   5.828   3.312  0.3036 -0.3329 -0.4096
 3585SOL    HW111155   2.399   5.827   3.380 -0.3537  1.0375 -0.9894
 3585SOL    HW211156   2.527   5.759   3.337  0.0896  0.1371  1.5864
 3586SOL     OW11157   2.589   2.789   0.326 -0.1919 -0.4432  0.5219
 3586SOL    HW111158   2.544   2.724   0.273  0.2663 -1.0503  0.8692
 3586SOL    HW211159   2.529   2.807   0.398 -1.4387  1.4192 -0.8877
 3587SOL     OW11160   4.961   6.312   1.927  0.0728  0.3965 -0.0094
 3587SOL    HW111161   4.893   6.372   1.896  1.7938  1.6983 -1.5055
 3587SOL    HW211162   4.978   6.255   1.852  0.5807  0.0307  0.3774
 3588SOL     OW11163   5.343   0.496   0.165  1.0039 -0.6128  0.2750
 3588SOL    HW111164   5.424   0.514   0.118  0.4357 -1.5279 -1.1252
 3588SOL    HW211165   5.284   0.460   0.098 -0.4480 -0.2664  1.3195
 3589SOL     OW11166   2.347   3.381   1.743 -0.2909  0.3371  0.4450
 3589SOL    HW111167   2.358   3.286   1.743 -0.2311  0.3402  1.1065
 3589SOL    HW211168   2.261   3.395   1.782 -0.9129  0.5023 -0.9186
 3590SOL     OW11169   4.115   1.658   2.564  0.0898  0.1708  0.3591
 3590SOL    HW111170   4.111   1.590   2.631  0.5189  2.1699  2.5461
 3590SOL    HW211171   4.204   1.652   2.530 -0.6760 -2.0747 -1.4993
 3591SOL     OW11172   4.997   2.397   2.293 -0.1325  0.1717 -0.1172
 3591SOL    HW111173   5.067   2.454   2.323  0.7782 -0.1565 -1.5767
 3591SOL    HW211174   4.980   2.424   2.203 -0.4449 -1.1144 -0.4628
 3592SOL     OW11175   4.126   2.898   0.658  0.4841  0.1137  0.3603
 3592SOL    HW111176   4.081   2.878   0.740 -0.2877 -0.4435 -0.1875
 3592SOL    HW211177   4.058   2.934   0.601  1.0713  0.7556  0.0460
 3593SOL     OW11178   0.617   4.901   1.432 -0.4267  0.2861  0.8930
 3593SOL    HW111179   0.635   4.978   1.379  0.3603 -0.4997  0.0018
 3593SOL    HW211180   0.550   4.852   1.383  0.8744 -0.8448  0.1686
 3594SOL     OW11181   2.940   0.408   4.854 -0.2941 -0.3810 -0.2397
 3594SOL    HW111182   2.980   0.382   4.771 -0.7165 -0.5683 -0.3848
 3594SOL    HW211183   2.854   0.442   4.830 -0.4346 -0.4693  0.1285
 3595SOL     OW11184   1.735   2.770   3.348 -0.4683  0.5236  0.1802
 3595SOL    HW111185   1.739   2.677   3.369  0.1197  0.7861  1.2757
 3595SOL    HW211186   1.826   2.799   3.344 -0.6321  0.9991 -0.4811
 3596SOL     OW11187   3.095   3.788   0.468 -0.0170  0.0720 -0.2841
 3596SOL    HW111188   3.002   3.814   0.470 -0.1297 -0.1930 -1.3989
 3596SOL    HW211189   3.102   3.720   0.534 -0.5528  0.3005  0.0149
 3597SOL     OW11190   4.202   2.180   0.286  0.0343 -0.2231  0.0112
 3597SOL    HW111191   4.242   2.097   0.309 -0.5161 -0.4831  0.0497
 3597SOL    HW211192   4.275   2.242   0.282  0.1746 -0.0538  2.8637
 3598SOL     OW11193   6.595   5.032   2.502 -0.2381  0.3201 -0.0433
 3598SOL    HW111194   6.534   5.032   2.428  0.0107  0.6902 -0.2526
 3598SOL    HW211195   6.674   5.074   2.467  0.1711 -0.2379  0.1973
 3599SOL     OW11196   1.646   1.786   5.584  0.1132 -0.0454 -0.0105
 3599SOL    HW111197   1.716   1.833   5.538 -0.5263  0.8035 -0.1564
 3599SOL    HW211198   1.688   1.707   5.618  1.0082  0.1749 -0.5618
 3600SOL     OW11199   6.212   3.884   3.558  0.4530  0.2170  0.4459
 3600SOL    HW111200   6.116   3.893   3.564  0.5743  1.1134  1.2959
 3600SOL    HW211201   6.243   3.901   3.647  1.2470 -2.6891  0.8192
 3601SOL     OW11202   2.206   2.018   6.704 -0.1364  0.4049 -0.1101
 3601SOL    HW111203   2.119   2.058   6.708  0.0993  0.8954  0.2989
 3601SOL    HW211204   2.235   2.031   6.614 -0.6570 -0.1352 -0.3597
 3602SOL     OW11205   2.980   1.046   1.177 -0.7492 -0.2418  0.9983
 3602SOL    HW111206   2.970   1.045   1.082 -2.7638  0.3646  1.1456
 3602SOL    HW211207   3.036   1.121   1.195 -0.2617 -0.4340  0.2852
 3603SOL     OW11208   4.749   1.692   4.216  0.4626  0.3302  0.4045
 3603SOL    HW111209   4.802   1.721   4.290  1.9872  0.9619 -0.8661
 3603SOL    HW211210   4.755   1.764   4.153 -1.9607  0.4328  0.1935
 3604SOL     OW11211   6.138   5.386   3.066  0.2241 -1.1438  0.7130
 3604SOL    HW111212   6.155   5.292   3.058 -0.6396 -1.3902  1.5922
 3604SOL    HW211213   6.156   5.421   2.978  1.5695 -1.9410  0.6428
 3605SOL     OW11214   2.529   4.198   4.160  0.2713  0.6743  0.5103
 3605SOL    HW111215   2.444   4.241   4.152 -1.3907 -2.4869 -0.5936
 3605SOL    HW211216   2.577   4.226   4.082  0.0374  2.0005  0.8172
 3606SOL     OW11217   5.662   5.998   1.300 -0.6586  0.9083  0.2181
 3606SOL    HW111218   5.620   6.061   1.359  0.9434 -0.0775  2.5756
 3606SOL    HW211219   5.725   6.050   1.250  1.0049  1.2418  2.4865
 3607SOL     OW11220   5.377   6.669   2.805 -0.2608  0.6928  0.3994
 3607SOL    HW111221   5.370   6.753   2.760  1.9861  0.9091  0.3259
 3607SOL    HW211222   5.457   6.630   2.771 -0.3254 -0.6867  1.7062
 3608SOL     OW11223   3.943   4.406   0.382  0.1723 -0.6455  0.1014
 3608SOL    HW111224   3.939   4.494   0.421 -1.4399 -0.5489 -0.2026
 3608SOL    HW211225   3.960   4.348   0.456  1.7711 -0.0607  0.2341
 3609SOL     OW11226   6.458   0.163   5.253 -0.0838 -0.5568  0.2487
 3609SOL    HW111227   6.488   0.233   5.311 -0.0704  0.3941 -0.8745
 3609SOL    HW211228   6.527   0.155   5.187 -0.0086 -1.7558  0.4460
 3610SOL     OW11229   4.996   2.928   0.074 -0.2643 -0.0822 -0.6533
 3610SOL    HW111230   4.947   2.981   0.137  0.1650  0.8495 -1.0983
 3610SOL    HW211231   5.047   2.991   0.023  1.0900 -0.9858 -0.4764
 3611SOL     OW11232   0.378   4.227   5.996 -0.2127 -0.0141 -0.4199
 3611SOL    HW111233   0.364   4.161   6.064  1.1833  1.7824  1.7316
 3611SOL    HW211234   0.329   4.303   6.026  0.7822  0.9683 -1.2051
 3612SOL     OW11235   3.349   2.621   6.322 -0.7153  0.1547 -0.2511
 3612SOL    HW111236   3.372   2.670   6.244  1.6065 -0.7996 -0.2349
 3612SOL    HW211237   3.413   2.648   6.388 -0.9172 -1.0704  0.4912
 3613SOL     OW11238   6.198   1.602   6.501  0.1809 -0.2698 -0.4576
 3613SOL    HW111239   6.110   1.577   6.474 -0.3919 -1.0389  1.9235
 3613SOL    HW211240   6.250   1.522   6.490  0.3813 -0.0757 -0.9652
 3614SOL     OW11241   4.010   0.084   6.031 -0.6089 -0.2815  0.5152
 3614SOL    HW111242   3.992   0.055   5.941  0.3706 -1.1686  0.5827
 3614SOL    HW211243   3.987   0.009   6.085  1.3884 -0.7998  0.7473
 3615SOL     OW11244   4.118   6.249   4.362 -0.3268 -0.4149 -0.0867
 3615SOL    HW111245   4.202   6.233   4.406  1.0144 -0.7038 -2.5798
 3615SOL    HW211246   4.060   6.181   4.395  0.1371  0.2207  2.2455
 3616SOL     OW11247   2.745   3.140   1.839  0.0574 -0.1448 -0.1426
 3616SOL    HW111248   2.655   3.125   1.809  0.9491 -1.3942 -2.4979
 3616SOL    HW211249   2.766   3.228   1.809  0.2254 -0.5874 -1.3851
 3617SOL     OW11250   6.476   0.961   6.720 -0.4752  0.1486 -0.0479
 3617SOL    HW111251   6.512   0.911   6.647 -0.0911 -1.6963  1.3267
 3617SOL    HW211252   6.552   0.988   6.770 -0.7943 -1.1660  1.2309
 3618SOL     OW11253   2.104   4.437   2.180  0.1721  0.5935 -0.0169
 3618SOL    HW111254   2.024   4.424   2.231 -0.2798 -0.7869 -0.9962
 3618SOL    HW211255   2.171   4.388   2.228  0.7608  2.6581  1.4109
 3619SOL     OW11256   3.822   6.408   5.904 -0.0708 -0.5926 -0.1444
 3619SOL    HW111257   3.736   6.371   5.884 -0.0678 -0.1456 -1.0398
 3619SOL    HW211258   3.859   6.350   5.970 -0.3590 -1.7816 -0.9896
 3620SOL     OW11259   2.168   4.869   2.151 -0.2719  0.7016  0.2287
 3620SOL    HW111260   2.232   4.799   2.135 -0.5351  0.1686  1.3791
 3620SOL    HW211261   2.189   4.936   2.086 -0.1005 -0.4938 -1.0010
 3621SOL     OW11262   1.160   0.735   1.394 -0.2111  0.0413  0.1699
 3621SOL    HW111263   1.090   0.796   1.371 -0.7846  0.1587  2.0504
 3621SOL    HW211264   1.223   0.788   1.443  0.8785 -0.2185 -0.9115
 3622SOL     OW11265   2.911   3.314   1.282 -0.6717  0.1322 -0.7407
 3622SOL    HW111266   2.857   3.239   1.308  0.5373 -0.8953 -1.1506
 3622SOL    HW211267   2.878   3.339   1.196 -2.0784  1.0573  0.0313
 3623SOL     OW11268   6.550   1.188   3.500 -0.1801 -0.5942  0.0837
 3623SOL    HW111269   6.551   1.276   3.463 -0.8657 -1.1540 -1.3859
 3623SOL    HW211270   6.623   1.187   3.562  0.8286  0.5502 -1.0066
 3624SOL     OW11271   1.037   1.734   5.760  0.4310  0.0172 -0.3097
 3624SOL    HW111272   1.030   1.817   5.713  0.8356 -0.0376 -0.4775
 3624SOL    HW211273   0.951   1.694   5.752  0.6581 -0.2891 -1.5736
 3625SOL     OW11274   1.921   5.649   2.711  0.2194  0.5283 -0.0061
 3625SOL    HW111275   1.878   5.626   2.794  1.4166 -0.7047  0.3076
 3625SOL    HW211276   1.878   5.593   2.646  2.7652 -2.5032  0.6728
 3626SOL     OW11277   4.199   1.882   4.137  0.1899  0.0704 -0.2244
 3626SOL    HW111278   4.292   1.890   4.116  0.1785  0.0212 -0.2943
 3626SOL    HW211279   4.197   1.828   4.216  0.0567 -2.6261 -1.9475
 3627SOL     OW11280   1.666   2.047   0.638 -0.3702 -0.0798  0.2785
 3627SOL    HW111281   1.593   2.073   0.693 -1.2262 -0.1941 -0.7693
 3627SOL    HW211282   1.730   2.010   0.698 -1.0804  0.2242  1.2352
 3628SOL     OW11283   4.775   2.957   3.741 -0.1019 -0.3190 -0.0170
 3628SOL    HW111284   4.842   2.889   3.735  0.2064 -0.1489  1.1615
 3628SOL    HW211285   4.692   2.909   3.733  0.1302 -0.4160 -2.4130
 3629SOL     OW11286   0.622   3.463   1.272 -0.3850 -0.8058 -0.1885
 3629SOL    HW111287   0.616   3.548   1.316 -0.6588 -0.2528 -1.2801
 3629SOL    HW211288   0.535   3.448   1.237  0.0078 -0.9083 -1.1485
 3630SOL     OW11289   2.182   0.143   3.423 -0.0558  0.3512  0.2886
 3630SOL    HW111290   2.211   0.087   3.495  0.1897  0.7897  0.5368
 3630SOL    HW211291   2.086   0.136   3.425 -0.0552  0.4142  0.7059
 3631SOL     OW11292   1.442   2.187   1.454  0.0958 -0.2152 -0.1961
 3631SOL    HW111293   1.422   2.275   1.421 -0.5756 -0.7834 -1.3869
 3631SOL    HW211294   1.360   2.139   1.444  0.2251 -0.7640  1.2147
 3632SOL     OW11295   0.438   1.404   3.438 -0.5177  0.7443 -0.2574
 3632SOL    HW111296   0.477   1.491   3.429  1.3687 -0.0873 -0.4300
 3632SOL    HW211297   0.391   1.408   3.521  0.2338  1.6661  0.1430
 3633SOL     OW11298   2.102   0.909   3.895  0.0966 -0.2391 -0.2476
 3633SOL    HW111299   2.124   0.993   3.855 -0.4595 -0.1844 -0.4495
 3633SOL    HW211300   2.150   0.844   3.842  1.0584 -0.0103  0.3180
 3634SOL     OW11301   0.550   3.344   4.055 -0.4160 -0.0812  0.1015
 3634SOL    HW111302   0.633   3.325   4.010 -0.8534  1.0424 -1.2441
 3634SOL    HW211303   0.508   3.410   4.000 -1.9939 -0.2837  1.0254
 3635SOL     OW11304   0.527   4.342   0.545  0.3267  0.3805 -0.4205
 3635SOL    HW111305   0.461   4.317   0.481  0.6276  0.6968 -0.8583
 3635SOL    HW211306   0.603   4.368   0.493  0.7426  0.1774  0.0747
 3636SOL     OW11307   1.482   1.151   0.556 -0.2066  0.0464  0.3414
 3636SOL    HW111308   1.507   1.072   0.508 -1.3331 -0.0366 -0.1443
 3636SOL    HW211309   1.552   1.164   0.620 -1.5685 -3.2947  2.7905
 3637SOL     OW11310   5.917   5.017   4.574  0.6155 -0.0305 -0.4269
 3637SOL    HW111311   5.893   4.929   4.545  0.0036 -0.1580  0.4059
 3637SOL    HW211312   5.960   5.057   4.499 -3.4143  0.7055 -2.6189
 3638SOL     OW11313   0.571   3.030   6.189  0.1108  0.0967  0.5443
 3638SOL    HW111314   0.645   3.090   6.176 -1.1722  1.5231 -0.5300
 3638SOL    HW211315   0.521   3.070   6.260 -0.6637  0.2447 -0.0667
 3639SOL     OW11316   3.462   1.603   5.333 -0.4368 -0.1757 -0.4389
 3639SOL    HW111317   3.553   1.610   5.362  0.1816 -2.7033 -1.4807
 3639SOL    HW211318   3.432   1.693   5.328  1.3228  0.6766  1.9259
 3640SOL     OW11319   0.101   2.740   4.928 -0.1248  0.2921  0.4215
 3640SOL    HW111320   0.073   2.660   4.973  0.1193 -0.1133 -0.1280
 3640SOL    HW211321   0.039   2.749   4.855  1.0407 -0.5230 -0.7094
 3641SOL     OW11322   4.274   6.771   5.635  0.0854 -0.0828 -0.2627
 3641SOL    HW111323   4.261   6.680   5.660 -0.0755 -0.1993 -0.7669
 3641SOL    HW211324   4.206   6.820   5.682  0.4256 -0.1596  0.3320
 3642SOL     OW11325   3.144   2.385   6.203  0.4492 -0.1866  0.2775
 3642SOL    HW111326   3.126   2.444   6.276  2.1406  0.1933  0.4450
 3642SOL    HW211327   3.124   2.436   6.125 -0.5787 -0.3041  0.4614
 3643SOL     OW11328   2.176   1.824   6.074  0.2692  0.8440  0.1991
 3643SOL    HW111329   2.146   1.794   6.160  0.7057 -1.3494 -0.3449
 3643SOL    HW211330   2.147   1.915   6.068 -3.1757 -0.0638  1.1154
 3644SOL     OW11331   6.380   3.984   2.337  0.6655  0.2532 -0.1621
 3644SOL    HW111332   6.367   4.071   2.299  1.7735  0.2610 -0.5552
 3644SOL    HW211333   6.377   3.924   2.262 -0.5638 -0.1156  0.1600
 3645SOL     OW11334   0.014   4.923   2.683  0.1909  0.2444 -0.2111
 3645SOL    HW111335  -0.068   4.912   2.731 -0.2317  1.2464 -0.6694
 3645SOL    HW211336  -0.008   4.898   2.593  0.1341  1.3494 -0.5209
 3646SOL     OW11337   6.238   3.120   5.425  0.3538 -0.4787  0.3066
 3646SOL    HW111338   6.270   3.200   5.383 -0.8554 -0.8332 -1.4298
 3646SOL    HW211339   6.282   3.049   5.378 -0.1471 -0.8742  0.4203
 3647SOL     OW11340   4.123   4.491   5.822  0.0946  0.6722 -0.1563
 3647SOL    HW111341   4.115   4.409   5.871  0.9822  0.4345 -0.3835
 3647SOL    HW211342   4.037   4.504   5.782  0.2532 -0.7254 -1.0082
 3648SOL     OW11343   0.250   3.751   6.258 -0.2129 -0.4029 -0.4308
 3648SOL    HW111344   0.289   3.666   6.238 -1.3672 -0.4856 -2.6620
 3648SOL    HW211345   0.158   3.741   6.233 -0.4611  1.3718 -0.3141
 3649SOL     OW11346   6.496   1.461   1.149  0.1493  0.6102 -0.3373
 3649SOL    HW111347   6.586   1.462   1.181  0.3902 -0.6171 -0.9232
 3649SOL    HW211348   6.477   1.369   1.133 -1.8290  0.6434  1.4113
 3650SOL     OW11349   6.594   4.986   3.674 -0.2119  0.7528 -0.1318
 3650SOL    HW111350   6.684   4.955   3.675 -0.4271  0.1171  0.1093
 3650SOL    HW211351   6.601   5.081   3.666  0.5527  0.9508  2.1483
 3651SOL     OW11352   2.492   6.762   4.483  0.1180 -0.2236 -0.0515
 3651SOL    HW111353   2.507   6.696   4.550  1.5582  1.5218  1.4750
 3651SOL    HW211354   2.579   6.790   4.456 -0.4360 -0.4557 -2.2870
 3652SOL     OW11355   2.926   6.140   6.754  0.2717 -0.5987  0.2284
 3652SOL    HW111356   2.918   6.075   6.685  2.9583 -0.8831  0.1102
 3652SOL    HW211357   3.014   6.174   6.746 -0.0249  0.8485  2.2495
 3653SOL     OW11358   5.820   0.244   1.339  0.1283 -0.5667 -0.1450
 3653SOL    HW111359   5.848   0.279   1.424 -2.1179  3.2932 -0.7780
 3653SOL    HW211360   5.850   0.309   1.276 -1.3974 -1.4980 -1.9019
 3654SOL     OW11361   1.103   1.410   0.380 -0.6960  0.0257 -0.0126
 3654SOL    HW111362   1.121   1.419   0.286 -2.8448  1.1185 -0.3778
 3654SOL    HW211363   1.029   1.349   0.384 -1.1001  0.5566  0.9070
 3655SOL     OW11364   5.325   5.470   4.971 -0.0924 -0.6270 -0.0590
 3655SOL    HW111365   5.250   5.421   4.936 -0.8847  0.3312  0.2697
 3655SOL    HW211366   5.388   5.402   4.996 -0.2487 -1.4035 -1.6428
 3656SOL     OW11367   5.291   3.668   0.388  0.0391 -0.3766 -0.7918
 3656SOL    HW111368   5.249   3.673   0.303  0.1439  0.1307 -0.8168
 3656SOL    HW211369   5.227   3.624   0.444 -0.0421 -0.6850 -1.1202
 3657SOL     OW11370   1.060   4.065   2.764 -0.0920 -0.4502 -0.0227
 3657SOL    HW111371   1.120   4.057   2.838  1.3886 -1.0302 -1.2388
 3657SOL    HW211372   1.057   4.159   2.746 -0.5097 -0.2972  0.7854
 3658SOL     OW11373   2.396   5.505   0.395  0.8540 -0.3770 -0.1163
 3658SOL    HW111374   2.469   5.508   0.458  1.8274 -0.3822 -1.2105
 3658SOL    HW211375   2.406   5.585   0.344  0.2320 -0.5089 -0.4449
 3659SOL     OW11376   4.742   3.659   2.654 -0.2644 -0.6831  0.0856
 3659SOL    HW111377   4.759   3.742   2.698  0.1133 -1.1717  0.8784
 3659SOL    HW211378   4.803   3.658   2.580 -0.9287  0.1566 -0.4983
 3660SOL     OW11379   0.927   0.664   0.550 -0.4598  0.0846  0.7145
 3660SOL    HW111380   0.867   0.716   0.497  0.3737 -0.7912 -1.1936
 3660SOL    HW211381   0.902   0.683   0.640 -1.9374  1.6580  0.0327
 3661SOL     OW11382   2.010   6.323   2.710 -0.6162 -0.2694  0.5951
 3661SOL    HW111383   1.940   6.311   2.646 -1.3810 -1.2025  1.5679
 3661SOL    HW211384   1.977   6.391   2.769  0.0155  0.4682  0.1208
 3662SOL     OW11385   4.848   0.709   1.732 -0.4412 -0.6202 -0.3639
 3662SOL    HW111386   4.830   0.768   1.659  3.3719  0.3559 -0.7316
 3662SOL    HW211387   4.783   0.732   1.798 -2.1177  0.5488 -2.3139
 3663SOL     OW11388   3.892   2.798   1.945 -0.0375 -0.2129  0.3725
 3663SOL    HW111389   3.877   2.709   1.978  0.0028  0.1377  1.3880
 3663SOL    HW211390   3.931   2.844   2.020 -1.8485  1.1747  0.5162
 3664SOL     OW11391   2.565   3.715   3.823 -0.1078 -0.5581  0.0139
 3664SOL    HW111392   2.506   3.714   3.898  0.4174  1.3366  0.5167
 3664SOL    HW211393   2.527   3.780   3.764  0.9319 -0.0296 -0.0975
 3665SOL     OW11394   3.154   6.208   1.030  0.5627 -0.0783  0.0775
 3665SOL    HW111395   3.088   6.142   1.051  0.6179  0.2945  1.5074
 3665SOL    HW211396   3.229   6.184   1.083  0.6994  0.9438  0.3676
 3666SOL     OW11397   1.042   6.489   2.874  0.4056 -0.3103  0.1846
 3666SOL    HW111398   0.948   6.493   2.891  0.3903  0.4192 -0.0388
 3666SOL    HW211399   1.056   6.548   2.800  0.9851 -0.7074 -0.0265
 3667SOL     OW11400   4.030   3.872   5.998 -0.3076  0.0111  0.2780
 3667SOL    HW111401   4.103   3.841   6.052  0.6495  2.9645  0.8612
 3667SOL    HW211402   4.071   3.921   5.927 -1.4777  4.5581  2.3663
 3668SOL     OW11403   1.995   3.824   6.227  0.4511 -0.0830 -0.7671
 3668SOL    HW111404   1.935   3.757   6.193 -2.1413  0.3724  2.4162
 3668SOL    HW211405   1.982   3.899   6.168 -0.0993 -0.8675 -1.6743
 3669SOL     OW11406   0.458   5.813   4.789 -0.2433 -0.1483 -0.5085
 3669SOL    HW111407   0.507   5.850   4.862 -0.9675  1.1251 -0.6483
 3669SOL    HW211408   0.463   5.718   4.802  1.1490  0.0106  0.1829
 3670SOL     OW11409   4.875   0.319   6.073 -0.5334 -0.2204  0.7063
 3670SOL    HW111410   4.968   0.299   6.076 -0.1031  1.3574 -0.7144
 3670SOL    HW211411   4.853   0.320   5.980 -1.4341  1.5397  0.8866
 3671SOL     OW11412   4.333   5.469   2.336  0.2730  0.6889  0.1953
 3671SOL    HW111413   4.367   5.558   2.350 -1.5315  1.1936  1.7964
 3671SOL    HW211414   4.240   5.482   2.316 -0.5195 -0.8565  2.4250
 3672SOL     OW11415   3.430   6.347   3.343 -0.1714  0.1790 -0.1685
 3672SOL    HW111416   3.356   6.319   3.397  0.1784 -0.3478  0.0498
 3672SOL    HW211417   3.489   6.271   3.342 -0.0460  0.2777 -1.0761
 3673SOL     OW11418   1.766   0.363   4.296 -0.1031 -0.0541 -0.2477
 3673SOL    HW111419   1.784   0.437   4.353  2.7636 -1.0350  0.2962
 3673SOL    HW211420   1.729   0.402   4.217  1.1280  1.9574  0.0917
 3674SOL     OW11421   4.205   2.517   1.710 -0.2997 -0.6957  0.0766
 3674SOL    HW111422   4.255   2.475   1.640  0.3452  1.3852 -0.7906
 3674SOL    HW211423   4.114   2.495   1.692 -0.0454 -1.0544 -0.8052
 3675SOL     OW11424   0.725   0.965   4.982  0.3625 -0.0635  0.7444
 3675SOL    HW111425   0.809   0.927   5.009  0.7697 -0.3228 -0.8004
 3675SOL    HW211426   0.659   0.902   5.012  0.8086 -0.4543  0.9088
 3676SOL     OW11427   5.201   3.512   1.546 -0.0320  0.0040  0.0083
 3676SOL    HW111428   5.211   3.508   1.641  0.7778 -2.0002 -0.1043
 3676SOL    HW211429   5.284   3.478   1.512 -0.8076 -0.6111 -1.3709
 3677SOL     OW11430   3.275   4.643   0.032 -0.0796 -0.2194  0.0678
 3677SOL    HW111431   3.194   4.686   0.063 -0.8246 -1.3821 -0.2016
 3677SOL    HW211432   3.294   4.578   0.099  0.6572  0.0463  0.1265
 3678SOL     OW11433   0.601   0.433   5.611 -0.4327 -0.3848 -0.1911
 3678SOL    HW111434   0.683   0.460   5.653 -0.7328  0.3615 -0.0725
 3678SOL    HW211435   0.622   0.431   5.517 -0.1858 -0.5440 -0.1341
 3679SOL     OW11436   6.519   2.358   5.583 -0.2039  0.6582 -0.0682
 3679SOL    HW111437   6.551   2.442   5.616 -1.5530  0.7579  1.0557
 3679SOL    HW211438   6.596   2.301   5.583  0.5591  1.6677 -0.1090
 3680SOL     OW11439   4.154   0.692   0.276  0.0224  0.5748 -0.0144
 3680SOL    HW111440   4.101   0.616   0.297  1.1356 -0.0693  0.5632
 3680SOL    HW211441   4.239   0.656   0.251  0.7527  1.6386  0.8287
 3681SOL     OW11442   4.087   5.658   2.631 -0.5218 -0.2801 -0.1224
 3681SOL    HW111443   4.067   5.564   2.635  0.3379 -0.5887 -1.9354
 3681SOL    HW211444   4.024   5.693   2.567 -0.4759  0.2623  0.1244
 3682SOL     OW11445   4.386   1.392   6.720 -0.2297 -0.2509 -0.7625
 3682SOL    HW111446   4.341   1.470   6.691 -1.7262 -0.7727  0.0629
 3682SOL    HW211447   4.317   1.329   6.739  0.7155 -0.6221  1.8939
 3683SOL     OW11448   2.810   1.774   1.224  0.0298 -0.4932  0.2889
 3683SOL    HW111449   2.764   1.857   1.215 -0.1876 -0.7270 -0.7723
 3683SOL    HW211450   2.775   1.718   1.155  1.5894 -0.8074 -0.3015
 3684SOL     OW11451   5.747   5.229   2.680 -0.4303  0.5392 -0.2564
 3684SOL    HW111452   5.815   5.292   2.703  0.8367 -0.1492 -1.8392
 3684SOL    HW211453   5.672   5.282   2.655 -0.0990  1.3491  0.4170
 3685SOL     OW11454   0.600   0.167   5.767 -0.0303  0.5008 -0.1677
 3685SOL    HW111455   0.581   0.249   5.721 -2.3048 -0.1500 -0.5383
 3685SOL    HW211456   0.594   0.189   5.859 -0.7689  0.7404 -0.2680
 3686SOL     OW11457   5.207   1.661   2.218 -0.2423  0.0103  0.4980
 3686SOL    HW111458   5.178   1.659   2.127  0.6825  0.2410  0.1823
 3686SOL    HW211459   5.229   1.753   2.233 -1.7847  0.2582  1.4269
 3687SOL     OW11460   0.041   0.678   3.055 -0.1545 -0.0677  0.5278
 3687SOL    HW111461   0.021   0.763   3.017  0.5953  0.9303  2.2779
 3687SOL    HW211462   0.045   0.619   2.980 -0.0012  1.5544 -0.7948
 3688SOL     OW11463   2.910   2.661   0.742 -0.6487  0.5659 -0.1567
 3688SOL    HW111464   2.874   2.682   0.655  2.3791  0.4355 -1.5911
 3688SOL    HW211465   2.959   2.580   0.729  0.3198  0.8267  1.5399
 3689SOL     OW11466   5.883   2.902   5.932  0.1214  0.0197  0.0109
 3689SOL    HW111467   5.963   2.866   5.893  0.3439 -0.1470  0.5979
 3689SOL    HW211468   5.869   2.984   5.885 -0.0483 -0.5293 -0.9230
 3690SOL     OW11469   4.904   1.080   6.027 -0.2342  0.0513  0.3003
 3690SOL    HW111470   4.980   1.111   5.978 -0.6461 -1.1710 -1.1981
 3690SOL    HW211471   4.830   1.126   5.988 -0.3575  0.8325  1.3966
 3691SOL     OW11472   2.610   5.421   4.900 -0.3593  0.1384  0.0770
 3691SOL    HW111473   2.702   5.441   4.919 -0.2211  1.1212 -1.5385
 3691SOL    HW211474   2.613   5.343   4.845 -0.4916  0.2727 -0.1206
 3692SOL     OW11475   2.323   1.761   1.124 -0.1579  0.0685 -0.3709
 3692SOL    HW111476   2.269   1.841   1.121  2.0503  1.6727 -0.0742
 3692SOL    HW211477   2.363   1.763   1.211  0.7937 -0.7736 -0.7723
 3693SOL     OW11478   5.689   1.910   3.209  0.5777  0.0584  0.5393
 3693SOL    HW111479   5.708   1.866   3.126  0.7782  0.0778  0.5754
 3693SOL    HW211480   5.735   1.993   3.204 -1.1379  1.0220 -0.2235
 3694SOL     OW11481   3.580   5.880   6.019  0.1551 -0.3905 -0.5373
 3694SOL    HW111482   3.549   5.789   6.020 -2.5342  0.4423 -1.0395
 3694SOL    HW211483   3.562   5.910   5.930  1.0880  0.6308 -0.3948
 3695SOL     OW11484   4.240   5.641   0.715 -0.1914  0.2725  0.6919
 3695SOL    HW111485   4.147   5.619   0.710 -0.3997  1.1505  0.5470
 3695SOL    HW211486   4.285   5.556   0.723 -0.6478 -0.5530 -3.5387
 3696SOL     OW11487   5.014   4.634   5.249 -0.0791  0.5908 -0.1928
 3696SOL    HW111488   5.004   4.544   5.218 -0.1805  0.2210  0.8416
 3696SOL    HW211489   5.022   4.687   5.170 -0.3804 -0.2868 -0.8251
 3697SOL     OW11490   5.561   1.662   5.458  0.3296 -0.1304 -0.1288
 3697SOL    HW111491   5.649   1.695   5.441  0.2022  0.4659  0.3242
 3697SOL    HW211492   5.504   1.717   5.404  0.1144  0.4013  0.6308
 3698SOL     OW11493   4.162   5.742   1.695 -0.2307  0.0056  0.2768
 3698SOL    HW111494   4.117   5.772   1.774  1.0471  1.8322  0.3759
 3698SOL    HW211495   4.109   5.775   1.623 -0.2192  0.2531  0.3818
 3699SOL     OW11496   4.093   1.798   0.044  0.7443 -0.1259  0.0768
 3699SOL    HW111497   4.122   1.885   0.016 -0.6038  0.4175  0.2953
 3699SOL    HW211498   4.148   1.778   0.119  0.5123  0.9295  0.5557
 3700SOL     OW11499   4.449   1.771   4.739 -0.6137  0.6947 -1.0549
 3700SOL    HW111500   4.392   1.696   4.757  1.3372 -0.8965 -1.1833
 3700SOL    HW211501   4.528   1.753   4.789  0.5645  1.8375 -2.4315
 3701SOL     OW11502   6.035   0.177   1.712 -0.4706 -0.3981  0.0519
 3701SOL    HW111503   6.007   0.090   1.739 -0.7878  0.0753  1.3442
 3701SOL    HW211504   6.077   0.213   1.790  1.2992 -0.0650 -1.0132
 3702SOL     OW11505   2.065   5.630   1.156  0.1048  0.5680 -0.7268
 3702SOL    HW111506   2.000   5.692   1.190  0.4887  1.6920 -1.9546
 3702SOL    HW211507   2.016   5.549   1.142 -0.7137  0.9818 -0.3487
 3703SOL     OW11508   4.925   5.114   0.794  1.2051  0.2471  0.3647
 3703SOL    HW111509   4.903   5.206   0.779  2.4428  0.6669  0.9687
 3703SOL    HW211510   4.841   5.068   0.793  0.4632  1.5421  1.1244
 3704SOL     OW11511   2.471   4.182   2.766 -0.2109  0.7343 -0.4736
 3704SOL    HW111512   2.380   4.180   2.795  0.0729  0.8033  0.4372
 3704SOL    HW211513   2.466   4.172   2.670 -1.0727 -1.1507 -0.2746
 3705SOL     OW11514   3.085   0.632   2.200 -0.2034  0.3699  0.4366
 3705SOL    HW111515   3.081   0.558   2.261  1.4827  0.4832  0.7442
 3705SOL    HW211516   3.137   0.698   2.247 -1.1397  1.4990 -0.0913
 3706SOL     OW11517   3.951   0.633   4.395  0.0568 -0.1604  0.3309
 3706SOL    HW111518   4.040   0.621   4.427  0.5676  0.3453 -0.8797
 3706SOL    HW211519   3.953   0.601   4.305 -0.5486  1.4775 -0.2857
 3707SOL     OW11520   0.693   6.386   0.311  0.3507  0.3694 -0.0203
 3707SOL    HW111521   0.717   6.365   0.221  1.1584  0.7774  0.0981
 3707SOL    HW211522   0.653   6.473   0.306  0.0277  0.2245 -0.0317
 3708SOL     OW11523   1.044   2.707   2.714  0.0361 -0.4036 -0.4376
 3708SOL    HW111524   1.049   2.638   2.780  2.7912 -0.1121 -0.2224
 3708SOL    HW211525   0.979   2.676   2.651 -0.4468 -2.0918  0.8307
 3709SOL     OW11526   6.723   4.747   5.660  0.0688 -0.5779 -0.4617
 3709SOL    HW111527   6.639   4.755   5.616  0.3560  0.8969 -0.7891
 3709SOL    HW211528   6.717   4.664   5.708 -1.2203 -0.9299 -1.1898
 3710SOL     OW11529   4.421   5.755   1.621  0.0486  0.2942  0.4748
 3710SOL    HW111530   4.333   5.751   1.658 -0.1106 -2.8890  0.0223
 3710SOL    HW211531   4.439   5.849   1.613 -3.4011  1.0863  0.2979
 3711SOL     OW11532   2.693   1.143   4.565 -0.4567  0.2618  0.1433
 3711SOL    HW111533   2.711   1.235   4.585  1.2075 -0.5984  3.2495
 3711SOL    HW211534   2.776   1.107   4.535 -1.3321 -0.1046 -2.0642
 3712SOL     OW11535   0.101   1.653   0.999 -1.0629 -0.2805  0.4131
 3712SOL    HW111536   0.143   1.629   0.917 -0.3709  1.3371  0.2474
 3712SOL    HW211537   0.013   1.679   0.974 -1.0162 -0.2816  0.2458
 3713SOL     OW11538   1.792   0.431   5.626 -0.1044 -0.2865  0.2370
 3713SOL    HW111539   1.823   0.369   5.691 -0.2486  0.3918  0.9670
 3713SOL    HW211540   1.867   0.489   5.610 -0.6874  0.8361  1.3799
 3714SOL     OW11541   6.620   3.941   3.061  0.0111  0.0350 -0.2406
 3714SOL    HW111542   6.636   4.006   2.993 -0.5446 -0.0248 -0.4378
 3714SOL    HW211543   6.664   3.862   3.029 -0.6123 -0.1123 -0.7415
 3715SOL     OW11544   1.264   0.256   4.301  0.2342 -0.1209 -0.1418
 3715SOL    HW111545   1.353   0.255   4.267 -0.0599 -0.3059 -0.9227
 3715SOL    HW211546   1.214   0.306   4.237 -0.4091 -0.8034 -0.1920
 3716SOL     OW11547   0.116   2.757   1.181  0.0401  0.0651 -0.0912
 3716SOL    HW111548   0.137   2.760   1.087  0.9196 -0.7318  0.0549
 3716SOL    HW211549   0.021   2.758   1.185 -0.0027  1.4324 -0.9296
 3717SOL     OW11550   4.094   0.099   0.032 -0.3358  0.1917  0.2001
 3717SOL    HW111551   4.120   0.023  -0.021 -1.8261 -0.8593  0.9304
 3717SOL    HW211552   4.006   0.080   0.061 -0.5067  1.9293  0.9698
 3718SOL     OW11553   1.966   4.255   5.976  0.0400  0.7145 -0.0602
 3718SOL    HW111554   1.978   4.340   6.018 -0.8147  0.7982  0.0310
 3718SOL    HW211555   1.956   4.275   5.883  3.3131  0.4298 -0.5971
 3719SOL     OW11556   3.998   4.755   6.738  0.5407 -0.2664 -0.3362
 3719SOL    HW111557   3.944   4.716   6.806 -1.6206  0.2933 -1.6518
 3719SOL    HW211558   3.955   4.732   6.656  0.3840  2.8968 -1.3043
 3720SOL     OW11559   5.338   4.245   5.299 -0.0434  0.0156  0.0581
 3720SOL    HW111560   5.386   4.167   5.270 -2.8752 -1.5767 -0.7010
 3720SOL    HW211561   5.329   4.298   5.220  0.9036  0.6220  0.3343
 3721SOL     OW11562   5.197   0.351   5.373 -0.0412  0.2258 -0.2701
 3721SOL    HW111563   5.261   0.377   5.439  0.2364  0.3293 -0.5801
 3721SOL    HW211564   5.242   0.363   5.290 -0.6639  0.8859 -0.5245
 3722SOL     OW11565   5.159   5.112   5.723 -0.1686 -0.1876 -0.2700
 3722SOL    HW111566   5.066   5.098   5.707  0.0617 -0.1329 -1.8614
 3722SOL    HW211567   5.167   5.114   5.818 -1.8280  0.0878 -0.1005
 3723SOL     OW11568   0.462   2.825   2.492 -0.3427  0.4964 -0.0426
 3723SOL    HW111569   0.425   2.908   2.522  0.7887  0.6055  1.1547
 3723SOL    HW211570   0.421   2.760   2.549 -0.3440  0.3655 -0.1927
 3724SOL     OW11571   5.541   5.423   6.443 -0.1408  0.0296 -0.2693
 3724SOL    HW111572   5.596   5.345   6.441  0.4670  0.3668  1.5414
 3724SOL    HW211573   5.453   5.391   6.460  0.3503 -0.2221  2.1034
 3725SOL     OW11574   2.992   6.717   2.868 -0.3905 -0.2917 -0.3491
 3725SOL    HW111575   3.029   6.804   2.884 -1.0410 -0.1264  0.2806
 3725SOL    HW211576   2.945   6.726   2.785  1.4765 -0.6757 -1.5142
 3726SOL     OW11577   1.531   4.423   4.140 -0.3245  0.4667 -0.5503
 3726SOL    HW111578   1.497   4.341   4.173  1.5387  0.1248  0.6921
 3726SOL    HW211579   1.507   4.424   4.048  0.0104 -1.6990 -0.7116
 3727SOL     OW11580   3.232   5.104   3.161  0.3619 -0.1326 -0.0005
 3727SOL    HW111581   3.250   5.086   3.253  1.4172 -0.9398 -0.3364
 3727SOL    HW211582   3.268   5.028   3.115  1.3895  1.0296 -1.2035
 3728SOL     OW11583   0.223   5.969   1.003  0.5288  0.4594  0.0732
 3728SOL    HW111584   0.223   5.879   1.035 -1.2564  1.3796  3.0326
 3728SOL    HW211585   0.173   5.965   0.921  2.1803 -1.4702 -0.9264
 3729SOL     OW11586   3.202   0.550   4.690 -0.8073 -0.7917 -0.4900
 3729SOL    HW111587   3.134   0.483   4.680 -1.7219  0.0483 -0.0406
 3729SOL    HW211588   3.215   0.583   4.602 -0.3803 -1.5135 -0.7107
 3730SOL     OW11589   3.577   6.130   2.864  0.3995 -0.0245  0.0674
 3730SOL    HW111590   3.562   6.186   2.940 -1.7525 -1.5638  0.9045
 3730SOL    HW211591   3.667   6.147   2.839  0.5592  2.0160  1.7232
 3731SOL     OW11592   1.902   2.497   3.514  0.5870  0.3694  0.1864
 3731SOL    HW111593   1.904   2.535   3.601  0.4691 -0.1188  0.4052
 3731SOL    HW211594   1.826   2.439   3.514  1.2693 -0.5556  0.1632
 3732SOL     OW11595   1.109   2.639   4.747 -0.7582 -0.0181  0.9786
 3732SOL    HW111596   1.054   2.616   4.821 -1.3072 -0.1449  0.5398
 3732SOL    HW211597   1.197   2.646   4.783 -0.6425 -2.1656  1.2739
 3733SOL     OW11598   1.729   4.965   0.743 -0.3117 -0.0340 -0.1523
 3733SOL    HW111599   1.757   5.026   0.674 -1.6421  0.8236  0.0238
 3733SOL    HW211600   1.701   5.022   0.815 -0.0470 -0.8980  0.6459
 3734SOL     OW11601   3.361   1.327   4.920 -0.3113  0.1506  0.5452
 3734SOL    HW111602   3.270   1.333   4.891 -0.1204  1.7344  0.2097
 3734SOL    HW211603   3.395   1.248   4.877 -1.6992 -0.8641  1.2338
 3735SOL     OW11604   3.087   1.257   5.081 -0.4652 -0.2751 -0.0544
 3735SOL    HW111605   3.112   1.349   5.074 -0.7067 -0.2780 -1.1009
 3735SOL    HW211606   3.104   1.221   4.994 -2.3236 -0.7126 -0.2710
 3736SOL     OW11607   4.070   6.094   3.724 -0.1634 -0.1731  0.1335
 3736SOL    HW111608   4.042   6.115   3.813  2.0146  0.1423  0.7951
 3736SOL    HW211609   4.135   6.160   3.702 -1.1425  0.1694 -1.9975
 3737SOL     OW11610   2.804   1.154   6.023  0.9009  0.2257  0.2193
 3737SOL    HW111611   2.854   1.186   5.948 -0.3019  1.2168 -0.1846
 3737SOL    HW211612   2.753   1.229   6.053  1.3398 -0.1433  2.0504
 3738SOL     OW11613   2.173   6.717   5.014  0.5552 -0.4459  0.2672
 3738SOL    HW111614   2.103   6.727   4.950 -0.7002 -0.0668  1.6380
 3738SOL    HW211615   2.232   6.790   4.997 -1.0827  1.1530  1.1000
 3739SOL     OW11616   0.716   5.267   3.209 -0.4649 -0.4894  0.6636
 3739SOL    HW111617   0.769   5.295   3.283  1.0332  0.1773 -0.6029
 3739SOL    HW211618   0.737   5.174   3.198 -1.4995 -0.8728  1.6785
 3740SOL     OW11619   6.318   0.446   3.651 -0.1985  0.2333  0.0440
 3740SOL    HW111620   6.257   0.500   3.600  0.3920  0.9694  0.1195
 3740SOL    HW211621   6.261   0.391   3.705 -0.8071  1.0167  0.2191
 3741SOL     OW11622   5.161   2.445   4.484 -0.6444 -0.1869 -0.0213
 3741SOL    HW111623   5.213   2.526   4.488  1.3087 -1.4316  1.4983
 3741SOL    HW211624   5.098   2.454   4.555  0.5810 -0.5893  1.1633
 3742SOL     OW11625   1.064   1.545   3.672  1.1901 -0.0641  0.3019
 3742SOL    HW111626   0.995   1.517   3.733  0.2972 -1.3284 -1.2053
 3742SOL    HW211627   1.048   1.638   3.657 -0.9487 -0.5638 -0.8772
 3743SOL     OW11628   4.120   2.937   3.690 -0.2878 -0.0863  0.1257
 3743SOL    HW111629   4.112   3.031   3.671 -0.2305  0.0429  0.7042
 3743SOL    HW211630   4.087   2.928   3.780 -1.8176 -0.8838 -0.4720
 3744SOL     OW11631   2.738   5.340   3.808 -0.3100 -0.7433 -0.4475
 3744SOL    HW111632   2.690   5.290   3.741 -1.3143 -0.3051 -0.0827
 3744SOL    HW211633   2.740   5.429   3.774  0.5909 -0.8218 -0.6255
 3745SOL     OW11634   2.511   6.287   5.556 -0.6755  0.2338  0.3337
 3745SOL    HW111635   2.535   6.359   5.616 -0.4202 -0.4527  1.0690
 3745SOL    HW211636   2.595   6.249   5.531 -0.7048  1.1245 -1.2676
 3746SOL     OW11637   4.523   1.493   0.148 -0.3890 -0.2250  0.0527
 3746SOL    HW111638   4.616   1.475   0.134 -0.5291 -0.3106 -0.8169
 3746SOL    HW211639   4.479   1.446   0.077 -1.2410 -1.6629  1.4643
 3747SOL     OW11640   5.949   6.104   2.188  0.0459 -0.2584  0.5438
 3747SOL    HW111641   5.892   6.181   2.184 -0.8053 -0.9285 -2.0594
 3747SOL    HW211642   6.026   6.128   2.137 -0.7901 -1.4671 -1.4206
 3748SOL     OW11643   0.419   4.764   2.779 -0.3821  0.6413  0.0371
 3748SOL    HW111644   0.487   4.807   2.727  1.7634 -1.0299  1.2790
 3748SOL    HW211645   0.403   4.681   2.735 -0.5299  0.3994  0.5388
 3749SOL     OW11646   0.097   3.627   4.387  0.6271 -0.3989 -0.1131
 3749SOL    HW111647   0.131   3.553   4.337  1.5278  1.6273 -2.7448
 3749SOL    HW211648   0.175   3.674   4.415  0.0889 -0.8025  2.2753
 3750SOL     OW11649   0.344   5.646   1.985  0.1427  0.1200  0.7581
 3750SOL    HW111650   0.401   5.668   1.912  0.1014 -0.1537  0.6420
 3750SOL    HW211651   0.257   5.635   1.946 -0.1403  1.2675  1.0388
 3751SOL     OW11652   3.221   4.731   1.868  0.5654 -0.2007 -0.1891
 3751SOL    HW111653   3.289   4.762   1.808  0.8902 -1.0484 -0.2697
 3751SOL    HW211654   3.185   4.654   1.825  0.6126 -0.6571  0.5709
 3752SOL     OW11655   4.231   1.052   0.529  0.5769 -0.4181 -0.3306
 3752SOL    HW111656   4.266   1.105   0.457 -0.1801  0.3681 -0.1341
 3752SOL    HW211657   4.304   1.046   0.591  0.7876  0.1031 -0.5176
 3753SOL     OW11658   4.193   0.372   4.255 -0.0939  0.2235  0.1476
 3753SOL    HW111659   4.248   0.379   4.332 -2.1493  0.7621  1.6664
 3753SOL    HW211660   4.249   0.398   4.182  1.9057 -0.3056  1.4352
 3754SOL     OW11661   6.438   5.327   4.930 -0.3760 -0.0454  0.1158
 3754SOL    HW111662   6.447   5.337   5.024 -2.8874 -1.9879  0.6797
 3754SOL    HW211663   6.420   5.234   4.917  2.8657 -0.4964 -2.6636
 3755SOL     OW11664   1.220   0.998   2.567  0.4806  0.0847  0.1920
 3755SOL    HW111665   1.157   1.067   2.588  0.5093 -0.2051  1.2767
 3755SOL    HW211666   1.262   1.028   2.486  0.1178  1.0725  0.3526
 3756SOL     OW11667   2.768   0.324   1.103  0.4084  0.0170 -0.2879
 3756SOL    HW111668   2.751   0.249   1.160 -0.3969  0.4293  0.0268
 3756SOL    HW211669   2.694   0.326   1.042  1.1217 -0.2572 -1.1903
 3757SOL     OW11670   5.716   5.609   0.505  0.3983 -0.4553  0.5917
 3757SOL    HW111671   5.657   5.582   0.575 -0.6788  0.1255 -0.0650
 3757SOL    HW211672   5.673   5.581   0.425  1.1516 -0.2628  0.1061
 3758SOL     OW11673   5.028   0.840   2.986  0.7149 -0.3410 -0.0107
 3758SOL    HW111674   5.010   0.887   2.905 -0.2212 -1.4924 -0.4960
 3758SOL    HW211675   4.943   0.807   3.015  0.9062  0.5754  1.8208
 3759SOL     OW11676   5.727   1.499   0.275  0.1326  0.0049  0.2819
 3759SOL    HW111677   5.758   1.514   0.364  0.5003 -0.1664  0.1862
 3759SOL    HW211678   5.777   1.423   0.245  1.7718  1.4678 -0.9138
 3760SOL     OW11679   0.106   1.494   5.293  0.5995  0.1476 -0.1379
 3760SOL    HW111680   0.195   1.493   5.328  1.2215  0.5449 -1.6098
 3760SOL    HW211681   0.090   1.585   5.270  1.3356 -0.4140 -3.4157
 3761SOL     OW11682   4.678   4.642   2.694  0.4258 -0.0920  0.2636
 3761SOL    HW111683   4.649   4.572   2.753  1.5057 -0.7183  0.0924
 3761SOL    HW211684   4.771   4.652   2.714  0.0182  2.2687  1.2487
 3762SOL     OW11685   6.000   4.868   3.938 -0.0002 -0.2942 -0.1293
 3762SOL    HW111686   6.003   4.951   3.891 -0.0805 -0.2330 -0.0277
 3762SOL    HW211687   5.950   4.888   4.017  0.4556 -0.2998  0.1674
 3763SOL     OW11688   4.050   3.016   1.341  0.0931 -0.1051 -0.6373
 3763SOL    HW111689   4.048   3.053   1.430  0.9418  1.3213 -1.1838
 3763SOL    HW211690   4.064   2.922   1.355 -1.6949 -0.2139  0.7811
 3764SOL     OW11691   4.628   2.839   2.930 -0.5399  0.6759 -0.0826
 3764SOL    HW111692   4.712   2.875   2.900  0.7787  0.4414  2.9036
 3764SOL    HW211693   4.562   2.895   2.889  1.0428  1.0221 -2.3580
 3765SOL     OW11694   4.879   5.120   5.774  0.1718  0.3042  0.4524
 3765SOL    HW111695   4.830   5.184   5.722 -1.2071  0.1551  1.5238
 3765SOL    HW211696   4.897   5.049   5.712  1.3531  1.4950 -0.6372
 3766SOL     OW11697   0.020   1.787   4.032  0.1619 -0.4523  0.6505
 3766SOL    HW111698   0.091   1.757   4.089  1.0801 -0.6887 -0.5910
 3766SOL    HW211699   0.045   1.875   4.006 -0.7834  0.0698  1.4293
 3767SOL     OW11700   2.126   4.121   5.203 -0.1182  0.9516  0.0348
 3767SOL    HW111701   2.186   4.181   5.248 -0.6567  0.4961  1.3919
 3767SOL    HW211702   2.039   4.148   5.233 -0.6134  1.4226 -1.6955
 3768SOL     OW11703   0.798   3.788   1.538 -0.5659 -0.1005 -0.3680
 3768SOL    HW111704   0.889   3.777   1.510  0.1058  0.4592  1.4457
 3768SOL    HW211705   0.789   3.729   1.613 -1.1052  1.2310  0.6541
 3769SOL     OW11706   2.770   4.212   4.925 -0.3212  0.0870 -0.0926
 3769SOL    HW111707   2.732   4.296   4.899  1.2599  0.7378 -0.3735
 3769SOL    HW211708   2.856   4.210   4.883 -0.0837 -1.4068  0.4134
 3770SOL     OW11709   0.802   5.484   4.653  0.3714  0.4528 -0.0471
 3770SOL    HW111710   0.712   5.457   4.635  0.4255  0.9886 -1.2409
 3770SOL    HW211711   0.854   5.406   4.634  0.1294 -0.0214  1.1594
 3771SOL     OW11712   1.639   4.446   5.907 -0.2230  0.1657  0.1667
 3771SOL    HW111713   1.662   4.469   5.997  0.9900  3.1444 -0.7688
 3771SOL    HW211714   1.665   4.523   5.855 -0.5124 -1.5694 -2.7960
 3772SOL     OW11715   3.672   0.912   5.459 -0.0291  0.2415  0.4161
 3772SOL    HW111716   3.740   0.883   5.520  0.8016 -1.0624 -1.0741
 3772SOL    HW211717   3.677   1.008   5.461  0.5098  0.2035  1.7778
 3773SOL     OW11718   4.422   3.528   2.262  0.0144 -0.0951  0.0890
 3773SOL    HW111719   4.417   3.618   2.230  0.2458 -0.7089 -1.7747
 3773SOL    HW211720   4.486   3.485   2.205 -0.7207 -1.6669  0.3913
 3774SOL     OW11721   3.603   4.045   1.108  0.0763  0.2028  0.2507
 3774SOL    HW111722   3.690   4.005   1.110 -1.2323 -2.9226 -0.6875
 3774SOL    HW211723   3.579   4.054   1.201  0.3655 -1.3838  0.5008
 3775SOL     OW11724   2.136   2.637   1.511 -0.2484 -0.2368  0.3085
 3775SOL    HW111725   2.098   2.651   1.425 -0.7443 -0.5850  0.4648
 3775SOL    HW211726   2.103   2.710   1.564  0.4739  0.2626  0.0707
 3776SOL     OW11727   5.177   0.815   3.998 -0.2370  0.0360 -0.0654
 3776SOL    HW111728   5.116   0.748   3.967 -0.3877 -0.9364  2.1619
 3776SOL    HW211729   5.160   0.821   4.092  0.7327  2.2440  0.0306
 3777SOL     OW11730   6.279   4.256   4.407 -0.4718  0.2060  0.0439
 3777SOL    HW111731   6.254   4.173   4.447 -3.7484  0.1870 -1.6827
 3777SOL    HW211732   6.349   4.232   4.345  0.8047 -0.6462  1.7401
 3778SOL     OW11733   0.382   4.520   2.177 -0.0520 -0.4168  0.5431
 3778SOL    HW111734   0.384   4.613   2.197 -0.8517 -0.7641  2.4623
 3778SOL    HW211735   0.460   4.484   2.219 -0.6614 -0.8507  1.3387
 3779SOL     OW11736   6.626   1.558   1.559  0.4528 -0.1680  0.6265
 3779SOL    HW111737   6.541   1.570   1.602 -0.2234  1.3440 -1.0138
 3779SOL    HW211738   6.670   1.642   1.569  1.3467 -0.6326  0.6207
 3780SOL     OW11739   0.493   4.908   4.924  0.5401  0.1111 -0.4442
 3780SOL    HW111740   0.435   4.907   4.848 -0.5632  2.1802  0.3027
 3780SOL    HW211741   0.438   4.884   4.998  0.9740  0.5736  0.0482
 3781SOL     OW11742   4.590   4.109   1.579 -0.1336 -0.3796 -1.0999
 3781SOL    HW111743   4.598   4.186   1.636  1.0723 -0.6394 -0.8818
 3781SOL    HW211744   4.605   4.143   1.491  1.9088 -0.5465 -0.8720
 3782SOL     OW11745   2.535   4.299   3.247  0.1475  0.3967 -0.1797
 3782SOL    HW111746   2.610   4.248   3.278  0.3909  0.9656  0.1835
 3782SOL    HW211747   2.486   4.320   3.327 -1.5238 -1.6750 -0.5674
 3783SOL     OW11748   2.939   0.238   0.152  0.2892  0.0531  0.2582
 3783SOL    HW111749   2.970   0.290   0.226 -1.3197  0.6969  0.5298
 3783SOL    HW211750   2.960   0.292   0.075  0.2266  0.2782  0.3972
 3784SOL     OW11751   2.753   3.077   5.873  0.2232  0.2569 -0.3612
 3784SOL    HW111752   2.787   2.988   5.866 -2.2289 -0.7312 -0.6895
 3784SOL    HW211753   2.729   3.101   5.784 -2.2423 -0.1344  0.1295
 3785SOL     OW11754   0.967   1.377   1.652 -0.5730 -0.2620 -0.1073
 3785SOL    HW111755   1.032   1.439   1.686 -1.9930  0.9374  0.5410
 3785SOL    HW211756   0.911   1.429   1.595 -1.8777 -0.9045  0.5459
 3786SOL     OW11757   0.410   2.828   3.373  0.1558  0.0573 -0.1004
 3786SOL    HW111758   0.503   2.820   3.353  0.4061  0.4784  0.8198
 3786SOL    HW211759   0.408   2.858   3.464 -0.8632  0.9815 -0.4012
 3787SOL     OW11760   2.370   2.403   3.207  0.0596  0.9490 -0.0062
 3787SOL    HW111761   2.451   2.385   3.255  0.4434  0.9544 -0.6438
 3787SOL    HW211762   2.383   2.491   3.171  0.2225  0.5141 -1.0264
 3788SOL     OW11763   6.428   1.302   4.420  0.4745 -0.0554  0.8399
 3788SOL    HW111764   6.390   1.227   4.467  2.0699 -0.5061  1.4856
 3788SOL    HW211765   6.517   1.310   4.456  0.0730  2.7002  1.4230
 3789SOL     OW11766   3.286   6.596   4.960 -0.3113  0.4707  0.3062
 3789SOL    HW111767   3.223   6.604   5.032 -2.1936 -1.6725 -0.9493
 3789SOL    HW211768   3.251   6.525   4.906  3.1638 -0.7665 -0.5804
 3790SOL     OW11769   3.744   3.760   0.235 -0.5869  0.2716  0.2469
 3790SOL    HW111770   3.703   3.847   0.236 -0.0293  0.5769 -0.8641
 3790SOL    HW211771   3.777   3.751   0.145 -0.2963 -0.9330  0.4612
 3791SOL     OW11772   6.012   6.597   0.931 -0.1860  0.0552 -0.2514
 3791SOL    HW111773   5.952   6.554   0.869  0.5508 -0.4532 -0.6272
 3791SOL    HW211774   6.080   6.532   0.947  0.0494  0.4783  0.4972
 3792SOL     OW11775   2.575   4.623   5.659 -0.3874  0.1347  0.0463
 3792SOL    HW111776   2.620   4.696   5.619  0.8248 -0.2691  0.6090
 3792SOL    HW211777   2.569   4.646   5.752  0.0990 -0.5040  0.2479
 3793SOL     OW11778   1.771   6.020   2.392  0.3175  0.5016  0.8719
 3793SOL    HW111779   1.708   6.070   2.339  0.3367 -0.4496 -0.0794
 3793SOL    HW211780   1.774   5.934   2.351  1.4560  0.1965  1.5500
 3794SOL     OW11781   4.769   2.189   3.246 -0.3714  0.0005 -0.4618
 3794SOL    HW111782   4.764   2.281   3.272  3.7677  0.0595  0.7049
 3794SOL    HW211783   4.813   2.191   3.161 -1.5928 -0.9211 -1.1532
 3795SOL     OW11784   5.601   5.950   6.616 -1.1684  0.2928 -0.3643
 3795SOL    HW111785   5.592   5.856   6.606  0.8223  0.1908 -1.5543
 3795SOL    HW211786   5.675   5.962   6.675 -2.1469  1.1519  0.7672
 3796SOL     OW11787   2.180   0.350   0.823  0.2350 -0.5620  0.3179
 3796SOL    HW111788   2.260   0.342   0.771 -1.0206  0.3413 -1.8560
 3796SOL    HW211789   2.148   0.260   0.831  2.1435 -1.1770  2.5369
 3797SOL     OW11790   5.117   1.721   3.633 -0.7441  0.2958  0.2801
 3797SOL    HW111791   5.023   1.701   3.630 -0.6918 -0.1225  1.2325
 3797SOL    HW211792   5.140   1.735   3.541 -1.3971 -1.2120 -0.1638
 3798SOL     OW11793   1.839   5.695   6.747 -0.4066  0.5752  0.4393
 3798SOL    HW111794   1.883   5.633   6.689 -0.9268  0.1324  0.5020
 3798SOL    HW211795   1.909   5.739   6.794 -0.0284 -0.1373  0.5555
 3799SOL     OW11796   2.651   5.122   6.133 -0.0263 -0.4769 -0.1576
 3799SOL    HW111797   2.621   5.190   6.072  0.9222  0.1969  0.0987
 3799SOL    HW211798   2.573   5.072   6.153 -0.6550  0.2416 -0.7396
 3800SOL     OW11799   3.581   5.292   4.013  0.3244 -0.1473  0.1752
 3800SOL    HW111800   3.673   5.265   4.022  0.2811  0.0930  1.6019
 3800SOL    HW211801   3.537   5.215   3.978  1.2601  0.1391 -1.8303
 3801SOL     OW11802   3.087   5.019   4.753  0.0319  0.0072  0.0443
 3801SOL    HW111803   3.070   4.932   4.789  0.0060 -0.3504 -0.8157
 3801SOL    HW211804   3.014   5.036   4.694  1.0305 -0.2490 -1.3165
 3802SOL     OW11805   3.382   2.877   3.058  0.3649 -0.0226 -0.1154
 3802SOL    HW111806   3.298   2.906   3.093  0.0243 -0.3101 -0.6727
 3802SOL    HW211807   3.411   2.808   3.118  0.1151 -0.0495 -0.0280
 3803SOL     OW11808   0.405   5.091   4.294  0.3482 -0.3955 -0.4823
 3803SOL    HW111809   0.437   5.026   4.232  1.4100  0.0345 -0.3961
 3803SOL    HW211810   0.461   5.081   4.371  0.3984  0.4863 -0.3951
 3804SOL     OW11811   3.559   3.266   5.321 -0.1436  0.0728  0.7948
 3804SOL    HW111812   3.552   3.331   5.251 -0.5129 -0.1632  0.6102
 3804SOL    HW211813   3.646   3.282   5.359 -1.0173  2.0341  2.1114
 3805SOL     OW11814   3.212   0.598   4.140 -0.1621  0.2577 -0.0966
 3805SOL    HW111815   3.182   0.557   4.059  0.7701  1.1550 -0.9201
 3805SOL    HW211816   3.229   0.689   4.116  1.1642  0.2835  0.8521
 3806SOL     OW11817   2.681   4.746   5.216 -0.1127 -0.1664  0.0545
 3806SOL    HW111818   2.661   4.811   5.283  0.1475  1.0713 -1.0356
 3806SOL    HW211819   2.735   4.681   5.261 -1.5902 -0.4344  1.5353
 3807SOL     OW11820   1.584   2.477   1.224  0.0598  0.0886  0.1828
 3807SOL    HW111821   1.649   2.417   1.187 -1.0653 -0.2810 -1.3194
 3807SOL    HW211822   1.632   2.558   1.238  0.8448 -0.1410 -0.9797
 3808SOL     OW11823   1.594   6.380   0.511  0.2143 -0.1511  0.1918
 3808SOL    HW111824   1.620   6.440   0.442 -0.8034  1.1150  0.8486
 3808SOL    HW211825   1.657   6.395   0.582  1.0255 -1.1701 -0.2917
 3809SOL     OW11826   1.187   2.177   4.177  0.6108  0.0246  0.0698
 3809SOL    HW111827   1.221   2.156   4.090  0.2080 -1.8062  0.3249
 3809SOL    HW211828   1.102   2.218   4.161  1.9366  2.8305 -0.4830
 3810SOL     OW11829   0.730   4.810   3.895  0.5572 -0.2714  0.1568
 3810SOL    HW111830   0.666   4.821   3.825  0.5435  0.7865  0.3157
 3810SOL    HW211831   0.698   4.735   3.946 -1.1879  0.9112  0.9030
 3811SOL     OW11832   0.152   2.414   0.640 -0.2836  0.2177  0.4790
 3811SOL    HW111833   0.206   2.340   0.668  0.4687  1.2387  1.8532
 3811SOL    HW211834   0.071   2.374   0.609  0.7997 -1.2834 -0.5440
 3812SOL     OW11835   2.077   6.389   0.171 -0.1105 -0.2745  0.1791
 3812SOL    HW111836   1.999   6.441   0.193 -0.2821 -0.3734 -0.1759
 3812SOL    HW211837   2.138   6.452   0.134  0.1010 -0.1427  0.7569
 3813SOL     OW11838   5.168   0.918   2.214 -0.4558  0.4600  0.0801
 3813SOL    HW111839   5.136   0.857   2.148  2.2898  0.9806 -1.8822
 3813SOL    HW211840   5.106   0.909   2.286 -2.8844 -1.1023 -1.9982
 3814SOL     OW11841   0.150   1.839   0.574 -0.1857  0.2080  0.1129
 3814SOL    HW111842   0.106   1.924   0.583  0.6900  0.7915 -0.9163
 3814SOL    HW211843   0.201   1.847   0.493 -1.1959 -1.7964 -0.7854
 3815SOL     OW11844   5.310   6.525   0.512  0.3166 -0.0664 -0.0353
 3815SOL    HW111845   5.285   6.445   0.465 -1.2707  0.3213  0.0903
 3815SOL    HW211846   5.312   6.593   0.444 -0.1105  0.1261  0.1419
 3816SOL     OW11847   0.761   6.507   5.072  0.5970 -0.1070  0.2018
 3816SOL    HW111848   0.830   6.505   5.006  0.6995  0.5980  0.2744
 3816SOL    HW211849   0.783   6.582   5.127 -0.8981  0.9217 -0.5250
 3817SOL     OW11850   0.889   1.103   0.947  0.6263 -0.0959  0.3026
 3817SOL    HW111851   0.935   1.095   0.863 -0.5511 -2.5316 -0.2115
 3817SOL    HW211852   0.922   1.184   0.985  1.9716  0.5535 -2.0396
 3818SOL     OW11853   3.021   1.324   4.522 -0.0354  0.1565 -0.5831
 3818SOL    HW111854   3.017   1.418   4.537  2.1608 -0.0249  2.0376
 3818SOL    HW211855   3.084   1.312   4.452  0.4744  0.6130 -0.2035
 3819SOL     OW11856   2.829   0.414   0.836  0.3844 -0.5954  0.5772
 3819SOL    HW111857   2.823   0.397   0.930 -0.0438  0.7618  0.8165
 3819SOL    HW211858   2.858   0.505   0.830 -1.6760  0.0477 -0.5923
 3820SOL     OW11859   3.480   1.648   1.285  0.0709  0.1677  0.3235
 3820SOL    HW111860   3.412   1.590   1.249 -1.3068  2.1597 -0.4628
 3820SOL    HW211861   3.466   1.644   1.380 -1.1374  0.4893  0.1796
 3821SOL     OW11862   0.735   1.225   4.827  0.7087 -0.5877  0.1957
 3821SOL    HW111863   0.722   1.144   4.877 -0.0761 -0.9012 -0.4790
 3821SOL    HW211864   0.741   1.293   4.893 -1.5728 -0.8182  0.7411
 3822SOL     OW11865   0.522   3.334   3.585 -0.4147 -0.3514  0.3057
 3822SOL    HW111866   0.600   3.308   3.536 -1.0629 -0.7124 -0.5568
 3822SOL    HW211867   0.555   3.361   3.671  0.7146  0.0198 -0.2318
 3823SOL     OW11868   1.965   1.428   6.019 -0.1774  0.4047  0.2132
 3823SOL    HW111869   2.036   1.409   6.080  0.4778 -0.2438 -0.7267
 3823SOL    HW211870   1.886   1.397   6.064  0.3162 -0.2157  0.6724
 3824SOL     OW11871   4.462   4.592   6.363 -0.4654 -0.9575 -0.8115
 3824SOL    HW111872   4.455   4.640   6.445  1.0584 -2.9608  0.5615
 3824SOL    HW211873   4.498   4.656   6.301  0.8202 -0.1096  0.7555
 3825SOL     OW11874   2.556   1.854   3.305  0.4907 -0.4225  0.0650
 3825SOL    HW111875   2.529   1.923   3.366 -0.1195 -0.7117  0.1282
 3825SOL    HW211876   2.621   1.803   3.354  0.5567 -0.2078  0.2025
 3826SOL     OW11877   0.517   2.475   5.271  0.1787  0.0843 -0.2714
 3826SOL    HW111878   0.499   2.461   5.363 -1.9348 -3.2705 -1.0507
 3826SOL    HW211879   0.607   2.444   5.259 -0.0733 -0.9414  0.4017
 3827SOL     OW11880   2.552   5.016   6.530  0.7080  0.1600 -0.0716
 3827SOL    HW111881   2.557   5.101   6.486 -0.7395 -0.6107 -1.8124
 3827SOL    HW211882   2.631   5.012   6.583  2.1738  1.4510 -2.0460
 3828SOL     OW11883   5.910   2.098   6.437  0.1930  0.4298  0.4021
 3828SOL    HW111884   5.819   2.099   6.465 -0.1225  1.9883 -0.4973
 3828SOL    HW211885   5.930   2.190   6.418  2.5088  0.3987  2.2426
 3829SOL     OW11886   3.087   0.994   1.936 -0.0838 -0.3707  0.0665
 3829SOL    HW111887   3.179   0.969   1.942  0.1896  0.6763  0.5297
 3829SOL    HW211888   3.046   0.953   2.013  0.0313 -0.6846 -0.0383
 3830SOL     OW11889   5.387   2.076   2.975  0.5617  0.6841 -0.7159
 3830SOL    HW111890   5.456   2.128   3.015  0.4022 -0.4911  1.2400
 3830SOL    HW211891   5.307   2.127   2.988  0.3207 -0.1659  1.6654
 3831SOL     OW11892   3.246   0.924   4.164 -0.0137 -0.1020  0.0067
 3831SOL    HW111893   3.325   0.950   4.211 -0.8979  1.2846  0.8106
 3831SOL    HW211894   3.225   1.000   4.110 -0.4876 -0.6719 -0.6285
 3832SOL     OW11895   4.929   0.951   2.732  0.5810  0.4515 -1.1023
 3832SOL    HW111896   4.851   1.005   2.742  0.3239 -0.2068  1.0292
 3832SOL    HW211897   4.898   0.872   2.687  0.1596  0.4643 -0.8355
 3833SOL     OW11898   1.315   1.725   6.293  0.1387 -0.1599  0.0765
 3833SOL    HW111899   1.311   1.808   6.245  0.4290 -1.2695 -1.9323
 3833SOL    HW211900   1.224   1.705   6.314 -0.2190 -0.5814 -1.7228
 3834SOL     OW11901   3.469   1.452   6.328  0.6063 -0.0806  0.2793
 3834SOL    HW111902   3.548   1.457   6.382  0.8076  0.3209 -0.0504
 3834SOL    HW211903   3.445   1.359   6.329  0.7595 -0.1172  0.8388
 3835SOL     OW11904   5.138   3.967   6.720 -0.2066 -0.3258  0.0455
 3835SOL    HW111905   5.075   3.993   6.786  0.9450 -0.6160  1.2955
 3835SOL    HW211906   5.140   3.871   6.725 -0.5263 -0.3870 -0.8155
 3836SOL     OW11907   2.147   6.098   1.135 -0.4630 -0.1820 -0.1439
 3836SOL    HW111908   2.206   6.024   1.146  2.8105  2.0835 -1.1319
 3836SOL    HW211909   2.135   6.106   1.040 -0.5772  0.7048 -0.0630
 3837SOL     OW11910   0.387   1.900   3.871  0.2130 -0.3737  0.2179
 3837SOL    HW111911   0.324   1.838   3.834 -0.0111  0.0440 -0.1079
 3837SOL    HW211912   0.411   1.862   3.956 -0.9370 -0.2228  0.6213
 3838SOL     OW11913   1.858   0.171   4.059 -0.2330 -0.6447  0.1367
 3838SOL    HW111914   1.827   0.157   4.148  0.3442  1.2140  0.6804
 3838SOL    HW211915   1.898   0.258   4.061  2.6112 -1.7925 -1.1692
 3839SOL     OW11916   2.253   5.238   2.808 -0.4110  0.4345  0.2414
 3839SOL    HW111917   2.235   5.310   2.747  1.3139 -0.0418 -0.8894
 3839SOL    HW211918   2.343   5.212   2.789 -0.4855 -1.0281  1.6837
 3840SOL     OW11919   2.706   6.248   2.949  0.4116  0.8491 -0.3171
 3840SOL    HW111920   2.762   6.234   3.025  0.4739  0.2359 -0.4689
 3840SOL    HW211921   2.677   6.160   2.924 -1.9663  1.2433  0.7673
 3841SOL     OW11922   1.244   4.811   2.406 -0.0707  0.3711 -0.1084
 3841SOL    HW111923   1.285   4.752   2.343 -1.4664  0.0735 -0.7656
 3841SOL    HW211924   1.300   4.889   2.405  0.8413 -0.2578 -0.4804
 3842SOL     OW11925   0.580   1.159   5.107 -0.3093  0.3415 -0.2859
 3842SOL    HW111926   0.579   1.132   5.198 -0.5939  0.3842 -0.2748
 3842SOL    HW211927   0.632   1.092   5.062 -1.6745 -0.6853 -0.3961
 3843SOL     OW11928   4.702   1.255   5.877  0.2495  0.3600 -0.6282
 3843SOL    HW111929   4.667   1.336   5.914  0.3664  0.9636 -1.7824
 3843SOL    HW211930   4.625   1.200   5.861  0.0398  0.7383 -0.9571
 3844SOL     OW11931   4.596   4.075   0.518 -0.1982 -0.0739  0.2166
 3844SOL    HW111932   4.627   4.137   0.585  0.0120  0.4116 -0.3152
 3844SOL    HW211933   4.519   4.117   0.480  0.8703  0.6567 -1.2594
 3845SOL     OW11934   2.379   5.397   5.483  0.0900 -0.2892  0.3373
 3845SOL    HW111935   2.432   5.317   5.477 -0.6817 -0.7587 -0.4889
 3845SOL    HW211936   2.289   5.367   5.470 -0.1271  0.8341 -0.9322
 3846SOL     OW11937   6.453   5.637   1.055  0.2499 -0.1714 -0.0277
 3846SOL    HW111938   6.435   5.690   1.133 -0.3067  0.3310 -0.4900
 3846SOL    HW211939   6.414   5.552   1.074  0.9510 -0.3539  0.6284
 3847SOL     OW11940   1.241   5.641   2.914 -0.5180  0.1786 -0.6874
 3847SOL    HW111941   1.295   5.719   2.905  1.0618 -0.7144  0.4700
 3847SOL    HW211942   1.161   5.672   2.956 -0.7420  1.4569 -1.9872
 3848SOL     OW11943   2.461   0.831   1.282  0.1684  0.1000  0.0393
 3848SOL    HW111944   2.442   0.848   1.190  2.0068  0.2279 -0.3669
 3848SOL    HW211945   2.537   0.772   1.280 -1.0017 -1.5481  1.4730
 3849SOL     OW11946   4.923   6.632   3.410  0.1548 -0.0667  0.2302
 3849SOL    HW111947   5.012   6.648   3.380  0.4066 -0.0903  0.9424
 3849SOL    HW211948   4.887   6.719   3.426 -0.4278  0.0148 -1.3535
 3850SOL     OW11949   1.959   4.902   5.778 -0.2081  0.3332  0.4825
 3850SOL    HW111950   2.012   4.969   5.822  1.4362 -0.6821  0.1376
 3850SOL    HW211951   1.878   4.947   5.754  0.8355  2.2017  0.2795
 3851SOL     OW11952   0.535   2.968   5.918  0.0896  0.2375 -0.1328
 3851SOL    HW111953   0.541   2.873   5.923 -1.2149  0.0087 -1.9051
 3851SOL    HW211954   0.527   2.997   6.009 -0.9250 -1.4682  0.3548
 3852SOL     OW11955   3.974   5.112   3.141  0.4848  0.5269 -0.0802
 3852SOL    HW111956   4.016   5.164   3.072  1.0556 -0.3026 -0.3701
 3852SOL    HW211957   4.047   5.075   3.191  0.0947 -0.2615 -0.0780
 3853SOL     OW11958   6.698   4.327   6.402  0.0191  0.6012 -0.0605
 3853SOL    HW111959   6.693   4.400   6.464 -1.8584  0.5545 -0.0976
 3853SOL    HW211960   6.706   4.369   6.316  0.3251  0.7273  0.0289
 3854SOL     OW11961   1.090   0.330   1.917 -0.4116 -0.4288 -0.2726
 3854SOL    HW111962   1.072   0.366   2.003 -1.1776  1.4472 -1.1710
 3854SOL    HW211963   1.004   0.324   1.874  0.0695 -0.2300 -1.3070
 3855SOL     OW11964   3.511   3.267   0.564 -0.1066  0.2963  0.4821
 3855SOL    HW111965   3.466   3.224   0.637 -0.3797 -0.5919 -0.1766
 3855SOL    HW211966   3.585   3.313   0.604 -0.1056 -0.3781  1.2882
 3856SOL     OW11967   4.396   4.667   2.264  0.2285 -0.2332 -0.2892
 3856SOL    HW111968   4.475   4.722   2.258 -0.5821  1.2841  1.7687
 3856SOL    HW211969   4.427   4.586   2.305  0.7371  0.4063  0.6503
 3857SOL     OW11970   5.458   2.373   0.750  0.7657  0.3687  0.0015
 3857SOL    HW111971   5.428   2.349   0.838 -3.8461  0.5627 -1.2778
 3857SOL    HW211972   5.521   2.444   0.765  0.9380 -0.2688  3.1196
 3858SOL     OW11973   5.303   1.617   6.302 -0.4592  0.0654 -0.8294
 3858SOL    HW111974   5.295   1.711   6.286  2.0547  0.6234  0.6377
 3858SOL    HW211975   5.368   1.587   6.238  0.2496 -0.2304  0.0078
 3859SOL     OW11976   5.082   5.588   4.799 -0.4252 -0.0431  0.4105
 3859SOL    HW111977   5.105   5.495   4.810 -2.2944 -0.4010  1.9508
 3859SOL    HW211978   5.009   5.587   4.737  0.9563  0.6495 -1.2694
 3860SOL     OW11979   3.135   0.286   4.973 -0.4844 -0.6967 -0.3390
 3860SOL    HW111980   3.138   0.218   4.905 -0.7730  0.6239 -1.7378
 3860SOL    HW211981   3.069   0.348   4.941  0.3960  0.6827  0.4349
 3861SOL     OW11982   4.904   1.019   3.926 -0.1419  0.2137  0.7893
 3861SOL    HW111983   4.952   1.001   4.007 -0.7053  0.0068  1.0832
 3861SOL    HW211984   4.826   1.067   3.955 -0.1516  0.4841  0.3270
 3862SOL     OW11985   6.282   6.192   6.613 -0.4540 -0.4580  0.3465
 3862SOL    HW111986   6.285   6.268   6.555  1.9674  0.1545  1.1563
 3862SOL    HW211987   6.200   6.201   6.661 -0.6277  1.1553 -0.2038
 3863SOL     OW11988   3.971   0.706   1.208 -0.3258  0.3206  0.0744
 3863SOL    HW111989   3.914   0.631   1.228  0.9586 -1.0673 -1.2017
 3863SOL    HW211990   4.049   0.692   1.261  0.8413 -0.5003 -1.7330
 3864SOL     OW11991   5.439   4.816   6.706 -1.0725  0.1243 -0.2115
 3864SOL    HW111992   5.527   4.817   6.744 -1.2402  2.2341  0.1951
 3864SOL    HW211993   5.454   4.817   6.611 -0.6827 -1.2095 -0.1882
 3865SOL     OW11994   3.434   6.486   2.886 -0.4891 -0.2685 -0.0933
 3865SOL    HW111995   3.369   6.515   2.950  0.0866  1.0676 -0.0843
 3865SOL    HW211996   3.518   6.507   2.926 -0.1255  1.1819 -1.5370
 3866SOL     OW11997   6.263   1.605   1.235 -0.0559  0.4514  0.6542
 3866SOL    HW111998   6.355   1.579   1.237 -0.2438 -0.1950  1.0331
 3866SOL    HW211999   6.233   1.578   1.149  0.0395  0.4329  0.6259
 3867SOL     OW12000   6.361   0.330   5.642  0.2691  0.0344  0.0733
 3867SOL    HW112001   6.333   0.240   5.660 -0.2353 -0.1177 -1.3274
 3867SOL    HW212002   6.444   0.339   5.690  1.3862 -1.8916 -1.3217
 3868SOL     OW12003   5.103   5.557   0.596 -0.2278 -0.2304 -0.1515
 3868SOL    HW112004   5.105   5.509   0.679 -1.5201  0.4390  0.2961
 3868SOL    HW212005   5.040   5.627   0.611  2.2613  2.2688 -0.4161
 3869SOL     OW12006   6.392   2.542   3.023  0.0973  0.2640  0.1712
 3869SOL    HW112007   6.415   2.575   3.110 -1.3978  0.2379  0.6130
 3869SOL    HW212008   6.310   2.587   3.001 -0.8011 -1.4305 -0.1871
 3870SOL     OW12009   5.372   6.620   1.268 -0.0223  0.0392  0.3950
 3870SOL    HW112010   5.377   6.714   1.280 -1.2170  0.2242 -0.3894
 3870SOL    HW212011   5.374   6.607   1.173 -2.2400 -0.5078  0.3581
 3871SOL     OW12012   5.725   5.399   0.959  0.3262 -0.4208  0.1079
 3871SOL    HW112013   5.774   5.317   0.963 -1.5706 -1.6997 -1.0959
 3871SOL    HW212014   5.721   5.430   1.049 -0.0121 -2.3535  0.8025
 3872SOL     OW12015   4.381   4.950   0.340 -0.2960  0.1807  0.0078
 3872SOL    HW112016   4.333   5.004   0.276 -1.5443 -0.4931  0.3503
 3872SOL    HW212017   4.446   4.903   0.288  0.8965  2.0322 -0.2978
 3873SOL     OW12018   2.527   2.026   6.296  0.5541 -0.0396  0.5149
 3873SOL    HW112019   2.621   2.045   6.301  0.7256 -0.9071  0.7125
 3873SOL    HW212020   2.493   2.090   6.234  1.6232 -0.8877 -1.0204
 3874SOL     OW12021   1.931   1.692   6.237 -0.2498 -0.3871  0.3278
 3874SOL    HW112022   1.883   1.620   6.279  0.1993 -0.7581  0.2151
 3874SOL    HW212023   2.002   1.712   6.299 -1.0209  0.7173  0.8879
 3875SOL     OW12024   0.808   1.353   6.168  0.4833 -0.2474 -0.4533
 3875SOL    HW112025   0.815   1.294   6.242 -0.4670 -1.3498 -1.1929
 3875SOL    HW212026   0.730   1.322   6.120  1.5240 -0.1212 -2.3497
 3876SOL     OW12027   6.257   1.711   3.585  0.4019 -0.5065 -0.2719
 3876SOL    HW112028   6.308   1.778   3.630  0.4572  0.1867 -1.3373
 3876SOL    HW212029   6.215   1.662   3.656  0.6973  0.3826  0.5484
 3877SOL     OW12030   2.710   6.295   6.115 -0.0768  0.0591  0.3598
 3877SOL    HW112031   2.792   6.317   6.159  0.8380 -0.4703 -0.9993
 3877SOL    HW212032   2.722   6.204   6.086 -1.4970 -0.3210  0.8859
 3878SOL     OW12033   5.073   5.871   6.211 -0.1582 -0.0657  0.5851
 3878SOL    HW112034   5.138   5.886   6.281  2.1566  1.2502 -1.6694
 3878SOL    HW212035   5.119   5.817   6.147 -0.9210  1.5680 -1.4680
 3879SOL     OW12036   0.897   0.137   3.369 -0.8446  0.3609  0.2487
 3879SOL    HW112037   0.984   0.097   3.363 -1.1844 -0.5299  1.0344
 3879SOL    HW212038   0.836   0.063   3.359 -1.5158  0.9178  0.1136
 3880SOL     OW12039   2.227   3.358   4.739 -0.2002  0.4193 -0.3120
 3880SOL    HW112040   2.181   3.432   4.698 -0.4590 -0.6050 -1.9757
 3880SOL    HW212041   2.318   3.385   4.743 -0.2182  0.6635 -1.3514
 3881SOL     OW12042   4.668   6.257   6.014  1.0008 -0.6241 -0.5004
 3881SOL    HW112043   4.745   6.311   6.031  1.3010 -1.2016  0.0252
 3881SOL    HW212044   4.622   6.302   5.943  0.3890  1.1792  0.9794
 3882SOL     OW12045   2.078   3.019   1.933  0.5128  0.1924 -0.3994
 3882SOL    HW112046   2.014   3.088   1.955  0.7078  0.3363 -0.2789
 3882SOL    HW212047   2.027   2.938   1.931  0.0963  0.4599 -1.4576
 3883SOL     OW12048   2.365   4.471   4.499  0.0395  0.2427  0.0733
 3883SOL    HW112049   2.441   4.491   4.553  0.9118 -0.0296 -1.0182
 3883SOL    HW212050   2.346   4.553   4.453  0.6635 -0.1068 -0.8313
 3884SOL     OW12051   3.842   5.517   0.199 -0.4758  0.5183 -0.1763
 3884SOL    HW112052   3.867   5.425   0.197  1.8448  1.0944  0.2976
 3884SOL    HW212053   3.764   5.519   0.255 -1.2328 -1.2466 -1.0677
 3885SOL     OW12054   6.768   4.867   6.075  0.0772 -0.1720  0.0007
 3885SOL    HW112055   6.679   4.849   6.104  0.2220 -1.1851 -0.1583
 3885SOL    HW212056   6.815   4.893   6.155 -0.4077  0.5965  0.0434
 3886SOL     OW12057   1.081   3.454   2.019  0.0810  0.5420 -0.3666
 3886SOL    HW112058   1.134   3.434   2.096  1.4368  0.6480 -1.2400
 3886SOL    HW212059   1.075   3.549   2.017 -0.0711  0.5342 -0.3213
 3887SOL     OW12060   4.964   2.016   3.043  1.0431  0.0825 -0.6932
 3887SOL    HW112061   4.934   2.042   2.956 -0.8226  1.3986  0.2813
 3887SOL    HW212062   5.037   2.076   3.062  0.3332  0.9757 -0.6899
 3888SOL     OW12063   2.367   3.451   0.763 -0.0032 -0.3955 -0.1740
 3888SOL    HW112064   2.405   3.497   0.689 -0.2051 -0.1389 -0.1191
 3888SOL    HW212065   2.318   3.379   0.725  0.4236 -0.6442 -0.2531
 3889SOL     OW12066   5.190   6.308   6.424  0.1403  0.1809  0.1927
 3889SOL    HW112067   5.280   6.277   6.416 -0.3349 -1.1471 -0.2433
 3889SOL    HW212068   5.168   6.340   6.337  0.1694  0.4487  0.2833
 3890SOL     OW12069   2.310   6.032   5.923 -0.2793  0.0648 -0.2769
 3890SOL    HW112070   2.291   5.993   5.838  0.0180  0.6879 -0.6345
 3890SOL    HW212071   2.302   6.126   5.908  4.0203  0.5272 -0.7318
 3891SOL     OW12072   2.294   4.753   3.670 -0.0037  0.2696 -0.2375
 3891SOL    HW112073   2.285   4.820   3.738 -0.5428 -0.4218  0.3912
 3891SOL    HW212074   2.218   4.766   3.614  0.6508  1.0988 -0.9644
 3892SOL     OW12075   3.650   0.814   3.229  0.9995  0.0406 -0.3267
 3892SOL    HW112076   3.744   0.795   3.235  1.0580  0.3974 -0.1318
 3892SOL    HW212077   3.614   0.784   3.313  1.2550  1.7195  0.4182
 3893SOL     OW12078   1.853   1.229   0.963  0.2055 -0.1040  0.4757
 3893SOL    HW112079   1.928   1.288   0.961  1.9587 -2.0771  2.4817
 3893SOL    HW212080   1.827   1.227   1.055 -0.5583 -1.4993  0.2528
 3894SOL     OW12081   0.453   5.241   2.445  0.3920 -0.1914 -0.1342
 3894SOL    HW112082   0.471   5.147   2.444 -0.2662 -0.3216  0.2104
 3894SOL    HW212083   0.360   5.248   2.463  0.5872  0.5502  0.6614
 3895SOL     OW12084   1.083   1.013   6.374  0.0263  1.2757 -0.1225
 3895SOL    HW112085   1.109   0.928   6.409 -1.4650  0.3506 -1.1354
 3895SOL    HW212086   1.120   1.016   6.286 -0.9836  1.0863 -0.5743
 3896SOL     OW12087   4.407   3.720   4.875 -0.1251 -0.0130  0.2754
 3896SOL    HW112088   4.496   3.754   4.864 -0.3810  0.2817 -1.2495
 3896SOL    HW212089   4.417   3.625   4.881  0.2625 -0.0312 -0.5319
 3897SOL     OW12090   6.365   1.857   0.626  0.7921 -0.3494  0.3319
 3897SOL    HW112091   6.420   1.780   0.612  1.1756 -0.0176 -0.0355
 3897SOL    HW212092   6.424   1.921   0.665  0.1034 -0.7440  2.0879
 3898SOL     OW12093   2.408   4.454   2.583  0.3113  0.7280  0.5214
 3898SOL    HW112094   2.381   4.414   2.665  0.0295  2.2475  1.2019
 3898SOL    HW212095   2.344   4.424   2.519  0.3013 -0.1504  0.9368
 3899SOL     OW12096   3.631   5.161   5.697 -0.3494 -0.1243 -0.7475
 3899SOL    HW112097   3.723   5.180   5.717 -0.1112 -1.2871 -0.6117
 3899SOL    HW212098   3.584   5.241   5.717  0.3817 -0.0875  0.9820
 3900SOL     OW12099   2.970   4.187   4.732 -0.0183 -0.0120 -0.3578
 3900SOL    HW112100   3.052   4.234   4.747  0.2928 -0.5699 -0.2942
 3900SOL    HW212101   2.993   4.116   4.672 -0.5733  0.1748 -0.7966
 3901SOL     OW12102   2.874   5.239   6.284  0.2984  0.3700 -0.1158
 3901SOL    HW112103   2.952   5.216   6.234 -0.2106  1.2258 -1.3455
 3901SOL    HW212104   2.801   5.203   6.234 -0.2685  1.7887 -0.3590
 3902SOL     OW12105   3.466   6.492   0.311 -0.2367 -0.1953  0.1137
 3902SOL    HW112106   3.538   6.462   0.367 -0.4361 -0.1252  0.4126
 3902SOL    HW212107   3.387   6.464   0.357 -0.3947 -0.5707 -0.3847
 3903SOL     OW12108   3.908   4.165   0.537  0.1018 -0.3179 -0.0637
 3903SOL    HW112109   3.854   4.086   0.537 -1.1102  0.4788 -0.9780
 3903SOL    HW212110   3.846   4.237   0.545  1.0620  0.6040 -0.6404
 3904SOL     OW12111   4.828   1.762   4.656  0.2132 -0.0192 -0.6398
 3904SOL    HW112112   4.833   1.782   4.563  0.7286  1.3847 -0.3531
 3904SOL    HW212113   4.872   1.837   4.698 -1.2192  0.0604  0.8012
 3905SOL     OW12114   0.498   1.118   3.896  0.6737  0.2719  0.1062
 3905SOL    HW112115   0.508   1.213   3.898  0.2946  0.4563 -2.5929
 3905SOL    HW212116   0.405   1.104   3.878  0.8735 -0.5746 -0.3297
 3906SOL     OW12117   1.512   0.626   3.451  0.0825 -0.0720 -0.1101
 3906SOL    HW112118   1.509   0.545   3.503  1.2876  0.0410  0.1700
 3906SOL    HW212119   1.445   0.613   3.384 -0.7585 -0.6767  0.8100
 3907SOL     OW12120   4.697   6.753   5.575 -0.2733 -0.8905 -0.0308
 3907SOL    HW112121   4.779   6.785   5.537 -0.7551 -1.6886 -1.8365
 3907SOL    HW212122   4.724   6.688   5.639  0.5433 -0.0367  0.5252
 3908SOL     OW12123   0.163   6.546   3.060  0.2635 -0.1666 -0.1143
 3908SOL    HW112124   0.096   6.583   3.004  1.5063  0.1520 -1.4496
 3908SOL    HW212125   0.182   6.615   3.124  0.6280  0.4695 -0.8930
 3909SOL     OW12126   3.729   2.169   5.555 -0.1484 -0.1754  0.4024
 3909SOL    HW112127   3.757   2.183   5.464  1.2576  2.6842  1.1432
 3909SOL    HW212128   3.634   2.162   5.549 -0.1004  0.0898 -1.2976
 3910SOL     OW12129   2.003   4.842   5.054 -0.7513  0.1948 -0.3617
 3910SOL    HW112130   2.072   4.777   5.053  0.2781  1.1529  1.8759
 3910SOL    HW212131   2.045   4.923   5.023 -1.7524  0.0934 -2.1294
 3911SOL     OW12132   3.266   3.831   3.153  0.8515 -0.5750 -0.0314
 3911SOL    HW112133   3.321   3.896   3.109 -1.0581  2.7667  2.0581
 3911SOL    HW212134   3.189   3.822   3.096 -0.4100  1.7205  1.1807
 3912SOL     OW12135   5.556   1.400   5.015 -0.1456 -0.1944  0.1744
 3912SOL    HW112136   5.556   1.494   5.031 -1.0771 -0.1269 -0.1751
 3912SOL    HW212137   5.479   1.368   5.062  1.6740 -1.2372  2.6992
 3913SOL     OW12138   4.896   4.802   1.400  0.1937  0.1133 -0.3384
 3913SOL    HW112139   4.820   4.746   1.417  2.0228 -1.8940  2.0807
 3913SOL    HW212140   4.894   4.816   1.305 -1.7297 -2.0616 -0.7339
 3914SOL     OW12141   4.577   5.631   2.619  0.3680  0.0187 -0.1707
 3914SOL    HW112142   4.623   5.713   2.603  1.7042 -0.5836  0.3734
 3914SOL    HW212143   4.508   5.653   2.681  0.4342  0.8159 -0.3750
 3915SOL     OW12144   1.162   0.745   1.750  0.2768  0.0900  0.0318
 3915SOL    HW112145   1.156   0.650   1.737  0.1001  0.0308  0.5064
 3915SOL    HW212146   1.231   0.773   1.690 -1.2941  0.0259 -1.8931
 3916SOL     OW12147   1.715   1.310   0.455  0.4517 -0.6292 -0.4026
 3916SOL    HW112148   1.639   1.253   0.453  0.4875 -0.6712 -1.7863
 3916SOL    HW212149   1.680   1.397   0.475  0.2946 -0.9704  0.8708
 3917SOL     OW12150   6.169   0.608   0.536  0.1035 -0.5053  0.4522
 3917SOL    HW112151   6.190   0.517   0.515 -1.2449 -1.1516  1.6858
 3917SOL    HW212152   6.139   0.605   0.627  0.5083  1.2692  0.6914
 3918SOL     OW12153   2.277   3.634   6.480  0.0813 -0.1894 -0.0236
 3918SOL    HW112154   2.236   3.554   6.449 -0.0720 -0.8104  1.6853
 3918SOL    HW212155   2.249   3.642   6.571  0.5966  1.4803  0.0271
 3919SOL     OW12156   3.863   2.881   5.943 -0.0245  0.2128  0.2341
 3919SOL    HW112157   3.814   2.900   5.864 -0.2436 -0.1133  0.2885
 3919SOL    HW212158   3.828   2.797   5.974  0.4858  0.0321  0.3379
 3920SOL     OW12159   2.208   1.912   2.665 -0.6920 -0.1289 -0.1846
 3920SOL    HW112160   2.117   1.891   2.646 -0.2887 -0.8457 -1.3718
 3920SOL    HW212161   2.259   1.865   2.600  0.4462  1.7991 -0.7814
 3921SOL     OW12162   0.211   6.713   5.806 -0.9173  0.1044  0.1231
 3921SOL    HW112163   0.300   6.740   5.782 -1.1652  1.4325  0.6257
 3921SOL    HW212164   0.163   6.795   5.817 -2.1887 -0.5908 -0.0393
 3922SOL     OW12165   1.884   1.476   3.688 -0.2780  0.3804  0.0051
 3922SOL    HW112166   1.862   1.491   3.596  2.7490 -1.7872 -1.2104
 3922SOL    HW212167   1.955   1.537   3.706  0.9148 -0.9903  0.0603
 3923SOL     OW12168   3.210   4.613   1.392  0.3639 -0.1225  0.1987
 3923SOL    HW112169   3.209   4.527   1.350  1.1991 -0.0268 -0.0391
 3923SOL    HW212170   3.118   4.634   1.405  0.0625 -0.1917 -1.5401
 3924SOL     OW12171   3.345   4.033   6.209 -0.4630  0.0724 -0.1669
 3924SOL    HW112172   3.302   4.107   6.252 -1.2647 -0.0180 -0.7895
 3924SOL    HW212173   3.377   4.070   6.126  0.5571  0.1043  0.2215
 3925SOL     OW12174   5.284   3.665   4.405  0.0355 -0.1093 -0.3395
 3925SOL    HW112175   5.303   3.593   4.345  0.0687  0.5988 -1.2014
 3925SOL    HW212176   5.368   3.683   4.448  0.3975  0.3810 -1.2168
 3926SOL     OW12177   3.199   0.763   3.872 -0.0976  0.2261  0.0547
 3926SOL    HW112178   3.174   0.790   3.783 -0.8071 -0.3796  0.0674
 3926SOL    HW212179   3.125   0.712   3.904 -0.0726  0.8834  1.2075
 3927SOL     OW12180   4.300   5.990   2.728 -0.2603  1.1623 -0.3707
 3927SOL    HW112181   4.281   5.961   2.817  0.9790  4.4655  1.1472
 3927SOL    HW212182   4.279   5.915   2.673  0.8133 -1.7549  2.8370
 3928SOL     OW12183   1.209   0.466   3.584 -0.4008  0.3753  0.3634
 3928SOL    HW112184   1.129   0.414   3.582 -1.0795  1.3790 -1.9796
 3928SOL    HW212185   1.197   0.532   3.516  2.0381  1.1563  0.5771
 3929SOL     OW12186   5.626   1.108   0.803  0.9753  0.2448  0.1596
 3929SOL    HW112187   5.612   1.170   0.875 -1.5820  0.2156 -0.2324
 3929SOL    HW212188   5.580   1.029   0.830 -0.1504  0.2785 -1.5179
 3930SOL     OW12189   2.694   2.629   3.660 -0.5403 -0.0005 -0.2419
 3930SOL    HW112190   2.612   2.595   3.697 -1.2345  1.6702 -0.1267
 3930SOL    HW212191   2.692   2.722   3.681  2.3467 -0.2121  1.4862
 3931SOL     OW12192   1.228   5.896   6.445 -0.2750 -0.5577 -0.2568
 3931SOL    HW112193   1.221   5.806   6.477 -0.8374 -0.9605 -1.4390
 3931SOL    HW212194   1.153   5.907   6.386 -0.4376  0.8273  0.1778
 3932SOL     OW12195   0.530   0.587   0.199  0.1752  0.2173  0.0380
 3932SOL    HW112196   0.611   0.547   0.168 -0.6177  0.0013 -1.9471
 3932SOL    HW212197   0.488   0.620   0.119 -1.4321  0.8139  1.0733
 3933SOL     OW12198   1.989   6.527   2.939 -0.4790 -0.0185  0.2691
 3933SOL    HW112199   2.035   6.503   3.020 -0.5074  0.1036  0.3211
 3933SOL    HW212200   1.902   6.490   2.949 -0.3939 -0.2492  0.1712
 3934SOL     OW12201   5.404   5.562   2.208 -0.7516  0.3108  0.4552
 3934SOL    HW112202   5.356   5.528   2.284 -0.6949 -0.6796  0.0632
 3934SOL    HW212203   5.495   5.538   2.225 -1.0215 -2.0372 -0.9888
 3935SOL     OW12204   3.713   2.633   3.028 -0.1025  0.4571  0.0100
 3935SOL    HW112205   3.648   2.662   3.092  0.0672  1.5164 -0.2773
 3935SOL    HW212206   3.665   2.579   2.966 -0.3941 -0.0450  0.6652
 3936SOL     OW12207   3.725   0.709   6.267 -0.3766 -0.0156  0.0436
 3936SOL    HW112208   3.665   0.642   6.232  0.1609 -1.8742  2.4176
 3936SOL    HW212209   3.812   0.669   6.259  0.1835  1.1975 -0.1337
 3937SOL     OW12210   3.624   0.959   1.847  0.0432 -0.0431 -0.1381
 3937SOL    HW112211   3.660   0.872   1.863 -1.9457 -0.6079  1.8622
 3937SOL    HW212212   3.678   1.018   1.900  0.8686 -0.1800 -0.8241
 3938SOL     OW12213   0.752   5.427   6.076  0.5882 -0.0573 -0.0023
 3938SOL    HW112214   0.710   5.509   6.104  0.0751 -1.1388  2.7223
 3938SOL    HW212215   0.846   5.446   6.078  0.6762 -0.2608  3.6895
 3939SOL     OW12216   3.954   6.022   0.576 -0.1927  0.5351  0.2973
 3939SOL    HW112217   3.950   6.115   0.597  3.2416  1.1429 -1.0598
 3939SOL    HW212218   4.002   6.018   0.494  2.2222 -2.5197  1.6597
 3940SOL     OW12219   2.917   6.677   0.846 -0.2569 -0.0688  0.0722
 3940SOL    HW112220   2.844   6.729   0.880  1.3299  1.9146  0.6374
 3940SOL    HW212221   2.916   6.693   0.752 -0.1672  0.4809  0.1628
 3941SOL     OW12222   3.088   5.845   0.527  0.3312  0.4177  0.0751
 3941SOL    HW112223   3.017   5.830   0.590 -1.6098 -0.4707 -2.1835
 3941SOL    HW212224   3.098   5.940   0.524 -0.1435  0.5095  1.0847
 3942SOL     OW12225   0.100   6.503   5.915  0.4117 -0.1655 -0.2378
 3942SOL    HW112226   0.162   6.571   5.891  0.3563 -0.9482 -2.8928
 3942SOL    HW212227   0.014   6.545   5.909  0.4405 -0.1879 -0.8494
 3943SOL     OW12228   3.253   5.578   0.669  0.3373  0.9458 -0.0285
 3943SOL    HW112229   3.322   5.536   0.720  1.4578  0.8438 -1.5547
 3943SOL    HW212230   3.260   5.671   0.692  0.4991  0.8438  0.3517
 3944SOL     OW12231   3.843   0.771   0.013  0.0652 -0.1148 -0.2232
 3944SOL    HW112232   3.937   0.786  -0.002  0.3732 -0.2855  1.3630
 3944SOL    HW212233   3.809   0.748  -0.073  2.0203 -2.7727 -0.4272
 3945SOL     OW12234   2.964   3.962   3.665 -0.4106  0.2101 -0.2521
 3945SOL    HW112235   3.041   3.916   3.633 -0.3247  0.2714 -0.1363
 3945SOL    HW212236   2.924   4.001   3.587 -0.5250 -0.1224 -0.3604
 3946SOL     OW12237   3.510   2.086   2.798 -0.0188 -0.3043 -0.0393
 3946SOL    HW112238   3.479   2.165   2.843 -2.4494 -0.0204 -2.0040
 3946SOL    HW212239   3.583   2.116   2.744 -0.3735  0.4390 -0.1184
 3947SOL     OW12240   1.081   1.766   2.791  0.2240  0.6592  0.2910
 3947SOL    HW112241   1.161   1.772   2.739 -0.1804 -1.3361 -0.6323
 3947SOL    HW212242   1.071   1.673   2.811 -0.9453  1.0708  1.9093
 3948SOL     OW12243   3.119   6.107   3.069 -0.0151  0.0128  0.0800
 3948SOL    HW112244   3.138   6.201   3.067 -2.3046  0.5319 -0.1257
 3948SOL    HW212245   3.189   6.068   3.016  0.5427  1.6941 -0.4995
 3949SOL     OW12246   4.788   5.477   2.561  0.4656 -0.1395 -0.3815
 3949SOL    HW112247   4.864   5.517   2.603  0.4087  0.3619 -0.7496
 3949SOL    HW212248   4.717   5.539   2.576 -0.0965 -1.0458  0.7688
 3950SOL     OW12249   3.453   3.748   1.660 -0.3907  0.0603 -0.6420
 3950SOL    HW112250   3.359   3.760   1.673 -0.1517  1.2647  0.2295
 3950SOL    HW212251   3.493   3.789   1.737  0.8388 -0.9015 -0.7296
 3951SOL     OW12252   4.958   6.396   0.671 -0.3080 -0.0417 -0.0485
 3951SOL    HW112253   4.961   6.305   0.700  0.5769  0.3291  1.1134
 3951SOL    HW212254   5.038   6.434   0.707  0.1203  0.8159 -1.8326
 3952SOL     OW12255   0.373   2.565   3.235  0.1588  0.0287  0.4737
 3952SOL    HW112256   0.326   2.647   3.252 -1.2227 -0.2004 -1.7461
 3952SOL    HW212257   0.438   2.559   3.305 -0.5263  2.3775  1.4103
 3953SOL     OW12258   3.031   2.967   2.899  0.3698  0.4245 -0.7747
 3953SOL    HW112259   3.093   3.005   2.962 -0.1462 -0.1275  0.0746
 3953SOL    HW212260   3.003   2.885   2.939  0.7907 -0.4403 -2.1828
 3954SOL     OW12261   0.316   0.895   2.634  0.3853  0.4098 -0.1072
 3954SOL    HW112262   0.396   0.890   2.582  0.3913 -0.9552  0.0056
 3954SOL    HW212263   0.248   0.924   2.572  0.4024 -1.1291 -0.8757
 3955SOL     OW12264   1.458   5.307   2.334  0.0502 -0.1069  0.2049
 3955SOL    HW112265   1.394   5.325   2.403  0.0709 -0.1990  0.2491
 3955SOL    HW212266   1.407   5.303   2.253  0.2652  1.9719 -0.0895
 3956SOL     OW12267   0.926   2.192   2.525 -0.1329  0.6077  0.6331
 3956SOL    HW112268   0.861   2.262   2.530 -0.5727  0.1768  1.2646
 3956SOL    HW212269   0.880   2.115   2.558 -0.1700 -0.3743 -1.5754
 3957SOL     OW12270   5.548   1.042   4.793  0.2119 -0.1455 -0.3139
 3957SOL    HW112271   5.550   1.132   4.761 -0.4433  0.8820  2.3046
 3957SOL    HW212272   5.516   0.991   4.718 -1.6885  2.1282 -1.1639
 3958SOL     OW12273   6.677   3.504   6.765 -0.8515 -0.6177  0.7487
 3958SOL    HW112274   6.650   3.556   6.841  0.7104  2.0006 -0.3634
 3958SOL    HW212275   6.769   3.485   6.779  0.1028  1.8335 -1.3750
 3959SOL     OW12276   1.628   1.394   3.774 -0.3785  0.5277  0.2933
 3959SOL    HW112277   1.717   1.405   3.742 -0.0763 -0.5305  0.7147
 3959SOL    HW212278   1.587   1.334   3.712 -0.4019  0.0248  0.7833
 3960SOL     OW12279   1.492   2.908   4.823  0.0530 -0.3458  0.5034
 3960SOL    HW112280   1.478   2.846   4.751  0.4236  1.4644 -1.2209
 3960SOL    HW212281   1.581   2.941   4.810 -0.2372  0.7746  1.1741
 3961SOL     OW12282   5.066   2.971   1.827 -1.1560  0.5765  0.1208
 3961SOL    HW112283   5.007   3.035   1.865  0.3054  2.0448  0.0428
 3961SOL    HW212284   5.103   2.924   1.902 -0.0066  1.8982  0.4148
 3962SOL     OW12285   6.470   0.662   5.863  0.1794 -0.3113 -0.2819
 3962SOL    HW112286   6.537   0.604   5.828  1.7071  1.2907 -0.1767
 3962SOL    HW212287   6.518   0.740   5.892 -1.7649  1.0896 -0.5725
 3963SOL     OW12288   3.418   0.643   3.620 -1.0233  0.2340  0.0021
 3963SOL    HW112289   3.347   0.661   3.681 -0.3100 -0.8564  1.2173
 3963SOL    HW212290   3.374   0.616   3.539 -1.9899  0.0555  0.5697
 3964SOL     OW12291   3.791   1.144   5.552  0.2395 -0.2209  0.4223
 3964SOL    HW112292   3.853   1.144   5.625  1.0559  0.1803 -0.2495
 3964SOL    HW212293   3.843   1.171   5.476 -0.7032 -0.1216 -0.2118
 3965SOL     OW12294   2.142   5.795   2.768 -0.8070  0.0116 -0.3505
 3965SOL    HW112295   2.098   5.879   2.772 -1.1835 -0.2044  0.1442
 3965SOL    HW212296   2.074   5.733   2.743 -0.4070 -0.0678 -1.3060
 3966SOL     OW12297   6.286   2.646   6.180  0.2238 -0.3231  0.2313
 3966SOL    HW112298   6.279   2.712   6.112  1.6225 -0.5515 -0.1654
 3966SOL    HW212299   6.297   2.696   6.261 -0.8371 -0.0604  0.2208
 3967SOL     OW12300   3.516   3.268   0.017  0.1158 -0.4229  0.0630
 3967SOL    HW112301   3.595   3.312   0.049  0.5377 -1.4306  0.4185
 3967SOL    HW212302   3.453   3.277   0.089 -0.4791  1.3026 -0.6193
 3968SOL     OW12303   2.546   4.616   5.931 -0.3032  0.1463 -0.3914
 3968SOL    HW112304   2.605   4.644   6.001 -1.7655  2.3708  0.0421
 3968SOL    HW212305   2.547   4.521   5.936  1.1614  0.1903  1.3303
 3969SOL     OW12306   6.233   2.978   3.580 -0.3180  0.3549  0.1146
 3969SOL    HW112307   6.183   2.955   3.658  2.0028 -0.2344  1.5236
 3969SOL    HW212308   6.270   3.064   3.599 -0.7620  0.7870 -0.8979
 3970SOL     OW12309   1.549   4.146   3.767 -0.5602 -0.0471 -0.4748
 3970SOL    HW112310   1.559   4.134   3.861 -3.4835 -0.7913 -0.1659
 3970SOL    HW212311   1.568   4.059   3.730 -0.9738 -0.1612 -0.4165
 3971SOL     OW12312   5.471   3.108   1.942  0.3851 -0.5559 -0.0120
 3971SOL    HW112313   5.470   3.037   1.877  0.0454  0.5859 -1.3204
 3971SOL    HW212314   5.557   3.150   1.931 -0.5288  1.0935 -1.4492
 3972SOL     OW12315   1.721   6.568   3.963  0.4097 -0.1758  0.0884
 3972SOL    HW112316   1.699   6.657   3.935 -0.8536 -0.7100 -0.7446
 3972SOL    HW212317   1.711   6.570   4.058 -0.2881  0.4063  0.0138
 3973SOL     OW12318   6.547   4.990   1.654 -0.0752 -0.1827 -0.4806
 3973SOL    HW112319   6.589   5.028   1.732  0.4361  0.5524 -1.1047
 3973SOL    HW212320   6.593   4.908   1.639 -0.0703 -0.2517 -0.1008
 3974SOL     OW12321   1.528   0.438   6.428  0.3717  0.1300  0.3357
 3974SOL    HW112322   1.515   0.528   6.397  0.2317 -0.4089 -1.2745
 3974SOL    HW212323   1.586   0.399   6.363 -2.0438 -1.8359 -0.7928
 3975SOL     OW12324   0.289   0.012   6.525 -0.2247 -0.6271 -0.0246
 3975SOL    HW112325   0.318   0.050   6.442 -0.9848  0.9602  0.3859
 3975SOL    HW212326   0.223  -0.052   6.500 -0.6811  0.0679 -0.6504
 3976SOL     OW12327   1.363   5.106   3.316 -0.1382 -0.1327  0.1307
 3976SOL    HW112328   1.301   5.142   3.253 -1.4533 -0.8074  0.9960
 3976SOL    HW212329   1.434   5.169   3.319 -1.8013  1.8179  0.7157
 3977SOL     OW12330   1.885   3.857   3.156  0.0137  0.0054  0.4529
 3977SOL    HW112331   1.926   3.944   3.165  1.6946 -0.8549  1.5607
 3977SOL    HW212332   1.900   3.834   3.064  2.5049 -0.4336  0.8870
 3978SOL     OW12333   0.001   3.370   5.207  0.0256 -0.0092  0.1060
 3978SOL    HW112334   0.043   3.361   5.293 -1.2266 -2.1254  0.5541
 3978SOL    HW212335   0.073   3.394   5.148  1.8193 -2.8981  0.9487
 3979SOL     OW12336   5.301   0.248   3.789 -0.5449 -0.3872 -0.2730
 3979SOL    HW112337   5.220   0.205   3.762 -0.8126  0.0897 -0.2555
 3979SOL    HW212338   5.292   0.338   3.756 -0.9565  0.2748  1.5181
 3980SOL     OW12339   1.274   3.710   2.737 -0.1762 -0.0869 -0.3076
 3980SOL    HW112340   1.246   3.782   2.680  0.4770  1.6663  1.4764
 3980SOL    HW212341   1.242   3.631   2.693 -1.1310  1.2847 -2.2285
 3981SOL     OW12342   5.873   0.377   1.600 -0.7119  0.0978 -0.1033
 3981SOL    HW112343   5.880   0.286   1.629  0.9245 -0.1850 -1.2292
 3981SOL    HW212344   5.891   0.429   1.678  0.3347 -0.6021  0.1509
 3982SOL     OW12345   6.225   0.441   5.115  0.0755  0.3654  0.8376
 3982SOL    HW112346   6.187   0.394   5.189  1.9074 -2.2237  0.2564
 3982SOL    HW212347   6.271   0.514   5.155 -0.2538 -0.0822  2.0938
 3983SOL     OW12348   1.858   6.049   0.137 -0.0943  0.4812  0.0222
 3983SOL    HW112349   1.890   6.099   0.213  0.2030 -2.6063  2.1045
 3983SOL    HW212350   1.776   6.093   0.113  1.9693  4.2894 -0.9282
 3984SOL     OW12351   2.578   5.012   3.750  0.4840 -0.1092  0.1865
 3984SOL    HW112352   2.611   4.962   3.675 -0.4791  1.4483 -1.3345
 3984SOL    HW212353   2.554   5.097   3.714  2.1588  1.5793  2.7007
 3985SOL     OW12354   2.371   5.597   1.155  0.2507 -0.0223  0.1414
 3985SOL    HW112355   2.276   5.603   1.147  0.2700  0.5618  0.2958
 3985SOL    HW212356   2.386   5.517   1.205 -0.2777  0.9793  2.0167
 3986SOL     OW12357   2.226   4.669   5.051  0.1258 -0.4914 -0.5111
 3986SOL    HW112358   2.240   4.591   4.998  0.3304 -0.4012 -0.5900
 3986SOL    HW212359   2.206   4.636   5.138  0.0190 -0.6353 -0.5905
 3987SOL     OW12360   4.187   2.029   6.742  0.0209 -0.7103 -0.4121
 3987SOL    HW112361   4.220   2.101   6.797 -0.0191 -1.0618  0.0865
 3987SOL    HW212362   4.258   2.012   6.680  0.9124 -1.6003  0.7866
 3988SOL     OW12363   5.079   2.013   3.689  0.7159  0.1270 -0.5020
 3988SOL    HW112364   5.121   1.928   3.675  1.2274  0.0894  1.0606
 3988SOL    HW212365   4.987   1.998   3.668  0.8789 -0.7049 -0.6718
 3989SOL     OW12366   6.485   5.849   0.350  0.2284  0.4108 -0.2901
 3989SOL    HW112367   6.575   5.818   0.343  0.2861  0.7948 -1.5791
 3989SOL    HW212368   6.435   5.772   0.378  1.0078  0.3043  0.8446
 3990SOL     OW12369   5.964   5.683   2.517 -0.4101  0.5763 -0.2028
 3990SOL    HW112370   6.029   5.670   2.448 -1.2977 -1.1179 -0.7685
 3990SOL    HW212371   5.892   5.625   2.494 -1.3373  1.0046  1.4240
 3991SOL     OW12372   4.695   5.885   2.570 -0.5027  0.0060 -0.4456
 3991SOL    HW112373   4.716   5.864   2.479 -1.0786  0.5163 -0.7048
 3991SOL    HW212374   4.712   5.978   2.578 -2.7898  0.5282 -0.7489
 3992SOL     OW12375   5.359   2.130   4.074  0.2673  0.2396  0.3285
 3992SOL    HW112376   5.429   2.169   4.021 -0.1004 -0.7409 -0.9248
 3992SOL    HW212377   5.291   2.198   4.077 -0.3088 -0.1985 -1.7110
 3993SOL     OW12378   0.341   2.606   0.578  0.0778  0.4846 -0.1222
 3993SOL    HW112379   0.278   2.538   0.599 -0.4309  0.6242 -1.1048
 3993SOL    HW212380   0.422   2.579   0.619 -0.6677  0.3966  1.3360
 3994SOL     OW12381   4.411   6.545   1.523  0.3800 -0.1080  0.6716
 3994SOL    HW112382   4.467   6.532   1.446  0.7169 -0.6030  0.9919
 3994SOL    HW212383   4.395   6.457   1.555 -3.4541 -0.3598 -1.3774
 3995SOL     OW12384   2.671   1.170   1.839  0.5732 -0.1626 -0.6098
 3995SOL    HW112385   2.724   1.098   1.805 -0.0103 -0.0251 -1.8632
 3995SOL    HW212386   2.716   1.197   1.919  0.6176 -2.1177  0.0779
 3996SOL     OW12387   4.420   2.621   2.323 -0.4410  0.2221  0.2379
 3996SOL    HW112388   4.395   2.535   2.291 -1.2616  0.2046  0.8830
 3996SOL    HW212389   4.393   2.621   2.415  0.6174  0.7498  0.5601
 3997SOL     OW12390   1.748   0.713   5.837  0.3171 -0.0972 -0.1324
 3997SOL    HW112391   1.728   0.623   5.810  1.7101 -0.9320  1.4307
 3997SOL    HW212392   1.669   0.743   5.881  0.4870 -1.2604  0.9955
 3998SOL     OW12393   5.667   5.137   3.090  0.1857 -0.7901  0.4386
 3998SOL    HW112394   5.645   5.113   3.001 -1.9094  0.9260  0.3995
 3998SOL    HW212395   5.756   5.106   3.103 -0.1557 -2.8036 -1.5611
 3999SOL     OW12396   5.582   5.015   2.493  0.5227 -0.3323 -0.2571
 3999SOL    HW112397   5.545   4.936   2.533  0.7716 -1.2903 -1.8307
 3999SOL    HW212398   5.677   5.003   2.499  0.5875  0.4211  0.5253
 4000SOL     OW12399   1.868   2.090   5.814  0.1783  0.1093 -0.2133
 4000SOL    HW112400   1.915   2.010   5.835 -0.7069 -0.7123 -1.2334
 4000SOL    HW212401   1.777   2.071   5.838 -0.0748  0.7165 -0.6623
 4001SOL     OW12402   2.924   2.310   3.237 -0.3196 -0.2354  0.0613
 4001SOL    HW112403   2.886   2.331   3.152  1.1317  1.4571 -0.2441
 4001SOL    HW212404   2.893   2.380   3.295  1.6959  0.8726 -0.0708
 4002SOL     OW12405   1.514   3.905   6.315  0.8164 -0.0778 -0.2308
 4002SOL    HW112406   1.427   3.891   6.278  0.4269 -2.4660  1.3448
 4002SOL    HW212407   1.497   3.939   6.404  1.3333 -2.4468  0.8406
 4003SOL     OW12408   5.651   4.875   1.561 -0.1774  0.4532  0.3360
 4003SOL    HW112409   5.567   4.858   1.603 -0.0753 -0.0529  0.3502
 4003SOL    HW212410   5.715   4.829   1.616 -0.1122 -0.7835 -0.7184
 4004SOL     OW12411   0.101   1.043   1.124 -0.2076 -0.6257  0.2665
 4004SOL    HW112412   0.053   1.123   1.143 -0.4919 -0.8222  0.3721
 4004SOL    HW212413   0.174   1.072   1.069 -1.3538 -0.5502 -1.2684
 4005SOL     OW12414   3.340   2.838   5.582  0.2927  0.2157 -0.0298
 4005SOL    HW112415   3.379   2.753   5.602 -1.1127 -0.6143 -0.6922
 4005SOL    HW212416   3.249   2.819   5.560 -0.0072  1.8701 -0.3979
 4006SOL     OW12417   3.432   1.613   4.892  0.5834 -0.3747  0.3227
 4006SOL    HW112418   3.396   1.524   4.890 -1.4134  0.3952 -1.8987
 4006SOL    HW212419   3.495   1.615   4.821  0.8740 -0.0998  0.5840
 4007SOL     OW12420   0.041   4.334   5.463  0.3322 -0.4249 -0.5324
 4007SOL    HW112421  -0.001   4.393   5.400 -0.2114  0.5146  0.6764
 4007SOL    HW212422   0.129   4.369   5.474  0.0904  0.0126  0.0007
 4008SOL     OW12423   6.702   2.469   1.993  0.4201 -0.1875  0.2530
 4008SOL    HW112424   6.722   2.504   1.906  0.9133 -0.6294  0.1766
 4008SOL    HW212425   6.640   2.531   2.031  0.9894  0.5647 -0.0116
 4009SOL     OW12426   0.639   5.666   0.675 -0.0503  0.7659  0.2828
 4009SOL    HW112427   0.661   5.587   0.724  0.1708  0.6323 -0.0294
 4009SOL    HW212428   0.724   5.707   0.657 -0.1688  1.0964  0.4841
 4010SOL     OW12429   1.910   0.408   6.074 -0.0516 -0.2159 -0.7100
 4010SOL    HW112430   1.983   0.404   6.135  0.1805  2.3159 -0.7212
 4010SOL    HW212431   1.915   0.496   6.037 -2.1398 -0.5570 -1.9356
 4011SOL     OW12432   0.788   0.322   4.706 -0.0379 -0.0041 -0.0509
 4011SOL    HW112433   0.833   0.349   4.626 -0.9207 -0.0893 -0.5868
 4011SOL    HW212434   0.858   0.314   4.771  0.6523  0.3542 -0.7325
 4012SOL     OW12435   3.772   0.479   1.272 -0.1195 -0.2408  0.5335
 4012SOL    HW112436   3.821   0.398   1.288 -0.3846 -0.4658  0.2094
 4012SOL    HW212437   3.687   0.464   1.313 -0.1445 -0.0952  0.5361
 4013SOL     OW12438   4.430   3.122   5.044  0.2037 -0.3829  0.1101
 4013SOL    HW112439   4.341   3.114   5.009 -1.0441  0.3283  2.8491
 4013SOL    HW212440   4.460   3.032   5.054  0.1594 -0.6148 -1.5858
 4014SOL     OW12441   2.963   5.170   4.543  0.2784 -0.2984  0.0968
 4014SOL    HW112442   3.021   5.246   4.541 -0.2018  0.0978 -2.1745
 4014SOL    HW212443   2.939   5.156   4.451 -1.3501 -1.8892  0.6958
 4015SOL     OW12444   1.574   2.041   2.565 -0.2611 -0.6242 -0.0788
 4015SOL    HW112445   1.659   2.032   2.522  0.3790  1.1497  0.6925
 4015SOL    HW212446   1.548   2.132   2.546 -1.4003 -0.7652  0.7224
 4016SOL     OW12447   0.471   4.949   2.381 -0.3092 -0.4388 -0.2991
 4016SOL    HW112448   0.521   5.001   2.318 -0.6020 -0.9429 -0.9541
 4016SOL    HW212449   0.518   4.865   2.385  0.4754  0.0279  1.1534
 4017SOL     OW12450   4.244   4.478   0.360 -0.2180 -0.6741  0.0937
 4017SOL    HW112451   4.163   4.428   0.347  0.3484 -1.7874  0.6921
 4017SOL    HW212452   4.227   4.529   0.440 -0.0009 -1.6461  0.7809
 4018SOL     OW12453   3.699   1.867   5.600  0.3512 -0.3678 -0.2044
 4018SOL    HW112454   3.670   1.785   5.639 -0.3145 -0.4455 -0.8444
 4018SOL    HW212455   3.717   1.845   5.508  2.5124 -0.3442  0.1471
 4019SOL     OW12456   1.330   6.322   2.658 -0.0872  0.1837  0.0789
 4019SOL    HW112457   1.387   6.334   2.582 -1.0136 -0.0226 -0.6768
 4019SOL    HW212458   1.249   6.367   2.634 -1.7115 -2.8342 -0.6101
 4020SOL     OW12459   2.171   5.421   2.618 -0.2863 -0.4475 -0.1221
 4020SOL    HW112460   2.089   5.469   2.606 -0.6309 -1.1664 -0.7033
 4020SOL    HW212461   2.230   5.456   2.551 -0.4116 -0.5705 -0.2953
 4021SOL     OW12462   0.671   2.842   3.324 -0.4999 -0.1945 -0.5823
 4021SOL    HW112463   0.695   2.902   3.253  2.6480  0.4484  0.8403
 4021SOL    HW212464   0.732   2.863   3.394 -2.3380 -2.0013  1.7031
 4022SOL     OW12465   0.589   3.876   0.851 -0.6793 -0.0119  0.5466
 4022SOL    HW112466   0.589   3.832   0.766 -0.4092 -0.0284  0.5568
 4022SOL    HW212467   0.506   3.850   0.891 -1.0452  0.4007  0.0794
 4023SOL     OW12468   2.898   0.344   2.965  0.2957  0.3129  0.6105
 4023SOL    HW112469   2.980   0.299   2.945 -0.0670  0.3008 -0.9896
 4023SOL    HW212470   2.906   0.428   2.920 -1.6824 -0.7868 -2.0685
 4024SOL     OW12471   1.495   3.930   6.596  0.5463  0.0190 -0.2672
 4024SOL    HW112472   1.582   3.892   6.607 -0.3451 -1.8157  0.9436
 4024SOL    HW212473   1.482   3.983   6.675  0.9855  1.2890 -1.0078
 4025SOL     OW12474   2.666   5.926   2.495  0.2127 -0.0900  0.1551
 4025SOL    HW112475   2.647   5.967   2.411 -0.8852 -0.8466  0.0105
 4025SOL    HW212476   2.633   5.988   2.560 -0.5624 -0.2816 -0.0369
 4026SOL     OW12477   2.425   1.370   1.452 -0.5176 -0.4116 -0.1493
 4026SOL    HW112478   2.410   1.339   1.541 -0.8506 -0.1748 -0.1197
 4026SOL    HW212479   2.385   1.457   1.450 -0.0919 -0.2199 -0.3910
 4027SOL     OW12480   1.731   2.535   5.511 -0.2110 -0.6927 -0.0439
 4027SOL    HW112481   1.702   2.627   5.517  2.8717  0.3154  1.1083
 4027SOL    HW212482   1.752   2.523   5.418  1.3025  0.4693  0.1135
 4028SOL     OW12483   5.188   2.513   0.722 -0.4355  0.1292 -0.0657
 4028SOL    HW112484   5.257   2.518   0.788  0.3869  1.4117 -0.9580
 4028SOL    HW212485   5.152   2.602   0.719 -0.8881 -0.0706 -0.8842
 4029SOL     OW12486   6.184   1.432   2.721 -0.0621  0.6042  0.2915
 4029SOL    HW112487   6.164   1.382   2.801 -0.8848  1.1146  0.4159
 4029SOL    HW212488   6.122   1.398   2.656 -0.2604  1.0781  0.2309
 4030SOL     OW12489   1.030   0.640   2.673  0.2149 -0.3159 -0.4116
 4030SOL    HW112490   1.107   0.663   2.621 -0.9688  2.1237 -1.2083
 4030SOL    HW212491   1.063   0.636   2.763  1.6440 -1.3989 -0.9391
 4031SOL     OW12492   5.106   0.077   4.970  0.0011 -0.6752  0.6347
 4031SOL    HW112493   5.191   0.058   4.928 -0.0018 -0.0309  0.3363
 4031SOL    HW212494   5.098   0.172   4.967 -2.9551 -0.7673 -3.8584
 4032SOL     OW12495   6.158   4.080   4.137  0.0740  1.1634  0.5204
 4032SOL    HW112496   6.208   4.027   4.198 -1.8282 -0.9043  0.4124
 4032SOL    HW212497   6.205   4.073   4.054 -0.5479 -1.1398  0.2999
 4033SOL     OW12498   3.718   3.295   2.415 -0.1540  0.0375  0.0698
 4033SOL    HW112499   3.660   3.322   2.485 -1.4912 -2.9053  0.2501
 4033SOL    HW212500   3.678   3.330   2.335 -0.5187  0.5222  0.4658
 4034SOL     OW12501   5.663   1.781   4.865 -0.0846 -0.1122 -0.4937
 4034SOL    HW112502   5.639   1.743   4.949 -1.1026  0.6093 -0.4397
 4034SOL    HW212503   5.650   1.875   4.876  1.1451  0.1400 -1.0243
 4035SOL     OW12504   2.435   3.512   4.689  0.2291 -0.4495  0.2233
 4035SOL    HW112505   2.460   3.524   4.597 -0.7156  2.0254  0.1975
 4035SOL    HW212506   2.482   3.581   4.735  0.8298 -1.7769  1.6624
 4036SOL     OW12507   6.554   5.002   0.912  0.3081 -0.7755  0.0336
 4036SOL    HW112508   6.466   4.998   0.875 -0.1138 -0.6776  0.9849
 4036SOL    HW212509   6.611   4.968   0.844 -0.4071 -0.3699 -0.7889
 4037SOL     OW12510   6.679   1.503   6.116 -0.2467  0.2939  0.1780
 4037SOL    HW112511   6.739   1.531   6.047 -0.6081 -0.5116 -0.4797
 4037SOL    HW212512   6.593   1.532   6.086 -0.4159 -0.1330  0.2357
 4038SOL     OW12513   4.644   0.765   4.078 -0.1238  0.3900  0.2096
 4038SOL    HW112514   4.685   0.781   4.163 -0.5687  1.7748  0.1916
 4038SOL    HW212515   4.557   0.803   4.086 -0.2813  0.2581 -0.7663
 4039SOL     OW12516   3.030   0.810   5.484 -0.0312  0.2352  0.3929
 4039SOL    HW112517   2.964   0.844   5.423  3.1072  1.5723 -2.5927
 4039SOL    HW212518   3.086   0.755   5.430  1.1264 -1.1540  2.8649
 4040SOL     OW12519   4.933   3.999   1.966  0.1913 -0.2593  0.2306
 4040SOL    HW112520   4.984   3.918   1.957  0.3978 -0.0306 -0.8455
 4040SOL    HW212521   4.999   4.066   1.984  0.3382  0.0763 -1.3942
 4041SOL     OW12522   2.245   5.819   0.518  0.2324 -0.0513 -0.1275
 4041SOL    HW112523   2.292   5.750   0.565  1.0490  0.0220 -0.8124
 4041SOL    HW212524   2.298   5.898   0.533  0.8090 -0.1370 -1.5959
 4042SOL     OW12525   2.848   4.898   5.721  0.1326  0.0613  0.0567
 4042SOL    HW112526   2.926   4.849   5.745 -0.4622 -2.0444 -1.9071
 4042SOL    HW212527   2.880   4.971   5.668  0.7763 -1.0927 -1.1887
 4043SOL     OW12528   6.716   5.469   5.184 -0.1724  0.2528  0.2455
 4043SOL    HW112529   6.768   5.448   5.261 -2.1418 -4.1797  0.7007
 4043SOL    HW212530   6.778   5.469   5.112  0.9222 -2.0759  1.1048
 4044SOL     OW12531   4.629   5.616   0.856  0.0177 -0.0572  0.2804
 4044SOL    HW112532   4.567   5.653   0.793 -0.2383 -1.3625 -0.2641
 4044SOL    HW212533   4.711   5.661   0.838 -0.3108  0.3342 -0.2746
 4045SOL     OW12534   3.657   5.651   6.313  0.7411 -0.1327  0.1776
 4045SOL    HW112535   3.687   5.714   6.378  0.3877  0.8002 -0.5400
 4045SOL    HW212536   3.683   5.689   6.229 -0.4365 -0.4054 -0.3308
 4046SOL     OW12537   2.859   0.345   4.437  0.3682 -0.1465  0.3032
 4046SOL    HW112538   2.797   0.407   4.475 -0.0143 -0.3697  0.0506
 4046SOL    HW212539   2.887   0.386   4.355 -1.4462 -1.1839 -0.9173
 4047SOL     OW12540   1.505   1.148   3.950 -0.1827  0.0794  0.8230
 4047SOL    HW112541   1.544   1.155   4.037  1.6817  0.2823  0.0010
 4047SOL    HW212542   1.483   1.238   3.926 -1.2889 -0.0402  1.3082
 4048SOL     OW12543   4.765   5.628   3.520 -0.1666  0.0519  0.1322
 4048SOL    HW112544   4.786   5.712   3.480  1.2280 -0.5001 -0.3463
 4048SOL    HW212545   4.786   5.563   3.452 -0.7341 -0.7183  0.6685
 4049SOL     OW12546   0.714   5.854   3.085 -0.1826  0.3175  0.4512
 4049SOL    HW112547   0.742   5.938   3.120 -0.9576  0.4732  0.7183
 4049SOL    HW212548   0.683   5.805   3.161  0.5359 -0.3271  0.3408
 4050SOL     OW12549   6.455   6.090   3.450 -0.1591 -0.4489 -0.4920
 4050SOL    HW112550   6.398   6.166   3.438  0.3880 -0.0324 -0.5015
 4050SOL    HW212551   6.510   6.112   3.525 -0.1024 -0.9029 -0.3962
 4051SOL     OW12552   2.759   4.931   4.807 -0.1251  0.2956 -0.0777
 4051SOL    HW112553   2.844   4.887   4.812 -0.7594 -0.8961  0.6499
 4051SOL    HW212554   2.764   5.000   4.873  1.2858  2.1622 -1.9825
 4052SOL     OW12555   2.447   1.439   2.057  0.5838 -0.2462 -0.2196
 4052SOL    HW112556   2.496   1.433   2.139 -0.3213  2.2559  0.6017
 4052SOL    HW212557   2.478   1.520   2.016 -1.4792  0.4656 -0.5352
 4053SOL     OW12558   0.870   2.960   5.993 -0.4167 -0.2959  0.0488
 4053SOL    HW112559   0.923   2.975   6.071  1.6988  0.2570 -1.3990
 4053SOL    HW212560   0.808   3.033   5.992  0.3579  0.3942  0.5767
 4054SOL     OW12561   2.949   4.023   2.416  0.3536  0.2504  0.3550
 4054SOL    HW112562   2.992   4.042   2.333  0.1675  1.7423  0.5551
 4054SOL    HW212563   2.857   4.045   2.401  0.6274  2.5328  1.4603
 4055SOL     OW12564   3.279   1.023   4.948  0.1634 -0.1924  0.1223
 4055SOL    HW112565   3.189   0.991   4.959  0.8196 -1.8018  1.1881
 4055SOL    HW212566   3.326   0.948   4.910  0.9343  0.8393 -1.0081
 4056SOL     OW12567   2.671   2.870   5.539  0.1437 -0.7564  0.0616
 4056SOL    HW112568   2.595   2.865   5.482  0.8269  0.4663 -1.0330
 4056SOL    HW212569   2.679   2.963   5.560  0.5370 -1.0517  1.2840
 4057SOL     OW12570   6.460   2.550   0.796  0.5427 -0.9781 -0.2177
 4057SOL    HW112571   6.391   2.545   0.861  1.9086  1.0028  1.5011
 4057SOL    HW212572   6.430   2.617   0.734 -0.1085 -1.8434 -0.8698
 4058SOL     OW12573   5.163   5.420   5.281  0.1273  0.2711  0.0595
 4058SOL    HW112574   5.248   5.391   5.313  0.5938  3.4655  2.2735
 4058SOL    HW212575   5.183   5.478   5.208 -0.1882  0.3130  0.0019
 4059SOL     OW12576   3.747   0.090   4.483 -0.4426 -0.2507  0.0146
 4059SOL    HW112577   3.808   0.020   4.458  1.8235  1.0578  1.4917
 4059SOL    HW212578   3.678   0.045   4.532  0.7391 -1.5324  0.5785
 4060SOL     OW12579   5.112   3.445   0.892  0.6023 -0.4744  0.1386
 4060SOL    HW112580   5.187   3.505   0.897  1.1625 -1.0779 -0.6811
 4060SOL    HW212581   5.037   3.502   0.874  1.0151  0.0489  0.0360
 4061SOL     OW12582   4.732   3.703   5.201  0.2174 -0.2716  0.1420
 4061SOL    HW112583   4.811   3.734   5.157  0.5095 -0.2353  0.6906
 4061SOL    HW212584   4.661   3.755   5.161  0.2283 -1.5162 -1.5847
 4062SOL     OW12585   3.917   0.581   2.376  0.0423 -0.1522  0.4287
 4062SOL    HW112586   3.902   0.675   2.374  0.3169 -0.1050  0.4971
 4062SOL    HW212587   3.976   0.568   2.450 -0.5619 -0.4631  0.8694
 4063SOL     OW12588   1.378   6.657   5.288 -0.2346  0.0906 -0.1472
 4063SOL    HW112589   1.390   6.608   5.369  1.1782 -0.6398 -0.7626
 4063SOL    HW212590   1.323   6.731   5.313 -0.6937 -0.6819  1.2459
 4064SOL     OW12591   2.692   0.706   6.165  0.7370  0.4058 -0.1403
 4064SOL    HW112592   2.669   0.793   6.134 -0.2561 -0.2802 -1.4324
 4064SOL    HW212593   2.632   0.647   6.120  0.9235 -0.9038  1.2269
 4065SOL     OW12594   1.354   1.811   2.682 -0.0866 -0.8290  0.0197
 4065SOL    HW112595   1.366   1.883   2.620 -0.9706  0.5765  1.3818
 4065SOL    HW212596   1.421   1.747   2.659  2.0025  1.2760 -0.1014
 4066SOL     OW12597   0.231   4.254   4.714 -0.5766 -0.5070 -0.5166
 4066SOL    HW112598   0.194   4.173   4.750 -1.7060  0.3245  0.2694
 4066SOL    HW212599   0.276   4.226   4.634  1.4089 -2.3417  1.1063
 4067SOL     OW12600   1.318   2.972   6.131 -0.4094 -0.4368 -0.1834
 4067SOL    HW112601   1.270   2.945   6.209 -1.0988  2.0482  0.3365
 4067SOL    HW212602   1.286   2.914   6.062 -1.4522 -1.2106  0.9060
 4068SOL     OW12603   6.668   6.679   4.640  0.0854  1.1971 -0.1121
 4068SOL    HW112604   6.661   6.715   4.552  0.2005 -0.9466 -1.0557
 4068SOL    HW212605   6.652   6.585   4.629  1.6674  0.6176  1.9059
 4069SOL     OW12606   5.501   6.189   5.206 -0.1427 -0.0661 -0.5406
 4069SOL    HW112607   5.501   6.093   5.209 -0.1028 -0.0764 -0.8479
 4069SOL    HW212608   5.497   6.216   5.298 -1.9007 -0.3474 -0.5043
 4070SOL     OW12609   1.320   5.840   0.173 -0.0947 -0.4665  0.3084
 4070SOL    HW112610   1.404   5.881   0.154 -0.5865  0.3608 -0.1209
 4070SOL    HW212611   1.311   5.772   0.106 -2.0928  2.8028 -3.1525
 4071SOL     OW12612   4.005   6.753   4.156 -0.7090 -0.2454 -0.0820
 4071SOL    HW112613   3.963   6.730   4.073 -1.1062 -1.9551  0.5609
 4071SOL    HW212614   4.043   6.671   4.187  0.4496  0.6215  0.8753
 4072SOL     OW12615   3.482   3.673   5.204  0.1100 -0.5136  0.5411
 4072SOL    HW112616   3.548   3.724   5.157 -0.1895  0.2788  0.9543
 4072SOL    HW212617   3.400   3.689   5.157 -0.1406  0.0725  1.1556
 4073SOL     OW12618   6.562   6.544   0.561 -0.5724  0.0642  0.2256
 4073SOL    HW112619   6.497   6.583   0.619 -0.4876 -0.3128  0.5895
 4073SOL    HW212620   6.620   6.496   0.621 -2.2810 -2.9933 -0.3515
 4074SOL     OW12621   0.195   2.093   5.707 -0.0818  0.1605  0.0483
 4074SOL    HW112622   0.270   2.058   5.755  0.4113  2.2975  0.9938
 4074SOL    HW212623   0.122   2.036   5.732  0.8884 -0.9444  0.4562
 4075SOL     OW12624   1.956   3.738   1.561 -0.4172 -0.1378 -0.3513
 4075SOL    HW112625   1.885   3.801   1.558  0.5618  0.9736 -0.8369
 4075SOL    HW212626   2.018   3.768   1.495  0.5709 -1.0065  0.1489
 4076SOL     OW12627   2.735   0.054   4.512 -0.6010 -0.1432 -0.7010
 4076SOL    HW112628   2.724   0.110   4.589 -2.6489 -0.0840 -0.9847
 4076SOL    HW212629   2.803   0.097   4.460  0.0095  0.4107  0.5311
 4077SOL     OW12630   3.729   4.980   6.519 -0.8264 -0.3198  0.7854
 4077SOL    HW112631   3.719   4.895   6.477  0.7280  0.2779 -0.8920
 4077SOL    HW212632   3.816   4.979   6.558 -0.9152  0.3850  1.0327
 4078SOL     OW12633   4.235   5.642   2.874 -0.7231 -0.1314  0.8589
 4078SOL    HW112634   4.168   5.658   2.808 -0.0484 -1.2669 -0.1599
 4078SOL    HW212635   4.254   5.728   2.911 -0.8252  0.6245 -0.7585
 4079SOL     OW12636   1.337   1.715   4.442  0.4239 -0.5950 -0.1209
 4079SOL    HW112637   1.244   1.720   4.462  0.6841 -1.7470  1.5657
 4079SOL    HW212638   1.352   1.785   4.378 -1.3552  0.3769  0.4747
 4080SOL     OW12639   0.747   2.268   3.503  0.0955  0.3197 -0.2830
 4080SOL    HW112640   0.777   2.194   3.555 -1.7883  0.9052  1.8159
 4080SOL    HW212641   0.775   2.248   3.413  4.1243 -0.4317  0.9564
 4081SOL     OW12642   3.815   2.661   3.338  0.3212 -0.4020 -0.6666
 4081SOL    HW112643   3.798   2.745   3.297  1.1120 -0.9128 -2.1013
 4081SOL    HW212644   3.836   2.682   3.429 -0.1169  0.8825 -0.8490
 4082SOL     OW12645   6.712   3.010   5.737 -0.6162 -0.9509  0.0317
 4082SOL    HW112646   6.633   3.015   5.683 -0.5372 -1.2321 -0.1134
 4082SOL    HW212647   6.696   3.070   5.810  0.9590  2.8106 -2.4392
 4083SOL     OW12648   2.594   0.053   0.537  0.6730 -0.6724 -0.6621
 4083SOL    HW112649   2.595   0.045   0.442  3.5006  0.1479 -0.7888
 4083SOL    HW212650   2.583   0.147   0.554  2.9315 -0.4057 -0.3409
 4084SOL     OW12651   2.448   0.047   5.245  0.1705  0.1330  0.6367
 4084SOL    HW112652   2.378   0.076   5.187  1.0277 -0.5227 -0.7825
 4084SOL    HW212653   2.454   0.116   5.311 -1.3594  0.5156  0.4128
 4085SOL     OW12654   6.422   3.761   5.114 -0.6955 -0.1400  0.3342
 4085SOL    HW112655   6.504   3.781   5.069 -1.0064 -1.1284 -0.7328
 4085SOL    HW212656   6.376   3.845   5.119  0.8059  0.6549  1.9198
 4086SOL     OW12657   2.691   0.984   4.252 -0.0725 -0.1429  0.3367
 4086SOL    HW112658   2.640   1.028   4.184  0.7800 -1.8259 -1.4834
 4086SOL    HW212659   2.769   1.038   4.262 -0.7541  0.7669  0.8879
 4087SOL     OW12660   1.231   3.227   2.470 -0.3005 -0.7330 -0.4295
 4087SOL    HW112661   1.145   3.185   2.474 -0.4809 -0.2879  0.3968
 4087SOL    HW212662   1.292   3.154   2.462 -0.7655 -1.0375 -1.4217
 4088SOL     OW12663   5.337   5.669   1.407  0.0023  0.5868 -0.3319
 4088SOL    HW112664   5.344   5.589   1.356  0.8814  0.7851 -0.5361
 4088SOL    HW212665   5.245   5.694   1.401 -0.4933 -0.8966  0.4859
 4089SOL     OW12666   0.840   3.624   3.104  0.8290 -0.1939 -0.1436
 4089SOL    HW112667   0.838   3.534   3.072  1.8051 -0.4198  0.3997
 4089SOL    HW212668   0.911   3.666   3.055 -0.1948  0.5505 -1.0417
 4090SOL     OW12669   6.474   4.789   2.505  0.3115  0.3841 -0.6273
 4090SOL    HW112670   6.539   4.858   2.517  1.1868 -0.3615 -0.9575
 4090SOL    HW212671   6.525   4.713   2.476 -0.5500 -0.5804  0.3084
 4091SOL     OW12672   2.245   6.519   4.537 -0.1480 -0.3708 -0.2726
 4091SOL    HW112673   2.321   6.552   4.583  1.4269 -0.5081 -2.6127
 4091SOL    HW212674   2.197   6.597   4.510  0.1139 -0.2188 -0.2998
 4092SOL     OW12675   0.502   0.954   2.072 -0.6704  0.3710 -0.1628
 4092SOL    HW112676   0.573   0.898   2.104 -1.7612 -0.5395  0.7656
 4092SOL    HW212677   0.545   1.016   2.013  0.7634 -0.6643 -0.2630
 4093SOL     OW12678   4.477   2.246   1.133 -0.6125  0.1287 -0.1577
 4093SOL    HW112679   4.519   2.181   1.077 -0.1980  0.7225 -0.5442
 4093SOL    HW212680   4.390   2.258   1.094 -0.4055  0.3777 -0.5501
 4094SOL     OW12681   4.331   2.172   4.897 -0.2819 -0.0684 -0.0374
 4094SOL    HW112682   4.322   2.223   4.816 -0.8108  1.1036  0.7206
 4094SOL    HW212683   4.255   2.197   4.949 -0.0086 -0.8868  0.7762
 4095SOL     OW12684   3.695   5.227   3.264 -0.3900 -0.9359  0.2583
 4095SOL    HW112685   3.638   5.151   3.269 -0.9917 -0.6033 -1.1711
 4095SOL    HW212686   3.781   5.192   3.241 -0.8352 -1.1357 -1.1600
 4096SOL     OW12687   5.807   5.781   4.900 -0.4400  0.1358  0.6672
 4096SOL    HW112688   5.795   5.871   4.930  1.2049  0.9160 -0.8395
 4096SOL    HW212689   5.756   5.776   4.819 -1.0662 -0.5068  1.0925
 4097SOL     OW12690   2.346   0.779   0.548  0.1881  0.4702 -0.0033
 4097SOL    HW112691   2.407   0.796   0.476  0.7657 -0.3130  0.2803
 4097SOL    HW212692   2.403   0.761   0.623 -0.3789 -0.5887  0.1932
 4098SOL     OW12693   2.160   0.842   6.557 -0.5934  0.4494  0.0673
 4098SOL    HW112694   2.187   0.860   6.647 -0.5854  0.4582  0.0632
 4098SOL    HW212695   2.185   0.751   6.542 -1.4330  0.1546  0.3817
 4099SOL     OW12696   0.746   1.624   1.106 -0.1436 -0.1151  0.0497
 4099SOL    HW112697   0.706   1.549   1.151  0.5447 -0.8231 -0.5110
 4099SOL    HW212698   0.686   1.643   1.034 -1.5621  1.3895  1.5298
 4100SOL     OW12699   0.678   1.918   0.091  0.1893 -0.1768 -0.6580
 4100SOL    HW112700   0.583   1.925   0.098  0.2958  0.5783  0.3474
 4100SOL    HW212701   0.701   1.972   0.016 -0.1760 -0.4078 -0.9384
 4101SOL     OW12702   2.724   0.623   4.821 -0.3840  0.3691  0.4818
 4101SOL    HW112703   2.755   0.707   4.854 -1.8914  0.7649  0.9789
 4101SOL    HW212704   2.643   0.607   4.869 -0.8884 -0.6631 -0.6623
 4102SOL     OW12705   2.476   4.142   6.211  0.0643  0.3332  0.1401
 4102SOL    HW112706   2.445   4.082   6.142  0.6837  0.9500 -0.6926
 4102SOL    HW212707   2.444   4.228   6.184  0.6031  0.6328  0.4496
 4103SOL     OW12708   5.416   2.715   5.486 -0.1382 -0.1140  0.5593
 4103SOL    HW112709   5.326   2.695   5.459  1.0399 -1.7285 -2.7377
 4103SOL    HW212710   5.453   2.763   5.412  2.1932 -1.0166  1.0626
 4104SOL     OW12711   6.242   2.793   4.739  0.1357  0.2319  0.2266
 4104SOL    HW112712   6.233   2.712   4.689 -1.3131  0.4604  0.0936
 4104SOL    HW212713   6.175   2.851   4.703 -1.2220  0.2925  2.6896
 4105SOL     OW12714   1.567   4.255   1.043  0.0566  0.0946 -0.0049
 4105SOL    HW112715   1.500   4.280   0.980 -1.5980 -0.0623  1.6188
 4105SOL    HW212716   1.599   4.338   1.079  1.0464  0.1865 -1.0472
 4106SOL     OW12717   6.692   6.168   5.905 -0.6553 -0.0422  0.1377
 4106SOL    HW112718   6.731   6.086   5.934  0.1119 -0.8302 -2.7901
 4106SOL    HW212719   6.644   6.145   5.825 -2.1879  2.0101  0.3849
 4107SOL     OW12720   2.805   1.652   3.051  0.3483  0.0829  0.1553
 4107SOL    HW112721   2.736   1.670   2.987  0.9221 -0.8752 -0.7478
 4107SOL    HW212722   2.765   1.591   3.113  0.2337 -0.0807 -0.0798
 4108SOL     OW12723   2.230   3.164   3.713 -0.4354  0.0856 -0.1107
 4108SOL    HW112724   2.313   3.156   3.759 -0.8463 -0.6090  0.5373
 4108SOL    HW212725   2.225   3.257   3.688 -0.0687  0.4306  1.0105
 4109SOL     OW12726   1.914   2.296   5.160 -0.3225  0.1142  0.2161
 4109SOL    HW112727   1.951   2.209   5.142  1.4088  1.0930 -1.2531
 4109SOL    HW212728   1.956   2.322   5.242  0.5881  0.2894 -0.2867
 4110SOL     OW12729   3.829   6.459   5.387 -0.4727  0.4562  0.0062
 4110SOL    HW112730   3.749   6.512   5.385 -1.8347 -1.3857  1.9024
 4110SOL    HW212731   3.900   6.523   5.380 -2.0355  2.3938  0.8296
 4111SOL     OW12732   6.732   6.022   5.499  0.2910  0.2024 -0.0886
 4111SOL    HW112733   6.747   5.931   5.474  1.6632  0.6112 -0.8847
 4111SOL    HW212734   6.801   6.041   5.563 -1.4467  0.0134  1.9333
 4112SOL     OW12735   4.181   5.665   3.343  0.4170 -0.8453  0.8647
 4112SOL    HW112736   4.200   5.592   3.285 -0.1474 -0.6724  0.4434
 4112SOL    HW212737   4.093   5.647   3.376  0.1462 -0.2101  0.5108
 4113SOL     OW12738   5.064   0.749   2.013  0.4929  0.3458 -0.3176
 4113SOL    HW112739   5.076   0.781   1.924  1.0818 -1.3720 -0.8828
 4113SOL    HW212740   5.136   0.688   2.027 -0.7084 -0.9390  0.5961
 4114SOL     OW12741   1.742   3.539   5.247  0.6884  0.0058 -0.1827
 4114SOL    HW112742   1.708   3.450   5.239  0.9534 -0.0250 -1.0944
 4114SOL    HW212743   1.814   3.532   5.310 -1.0892  0.1182  1.9870
 4115SOL     OW12744   1.386   5.628   1.300  0.6126 -0.0291  0.0536
 4115SOL    HW112745   1.375   5.636   1.395  0.9074 -2.3432  0.3460
 4115SOL    HW212746   1.470   5.671   1.282  2.5091 -2.8365  1.5111
 4116SOL     OW12747   1.400   6.601   5.013  0.3728 -0.1567  0.3822
 4116SOL    HW112748   1.411   6.622   5.106 -0.8562  0.8314  0.3327
 4116SOL    HW212749   1.409   6.686   4.968  0.4786 -0.5497 -0.3598
 4117SOL     OW12750   4.801   0.141   1.632  0.2322  0.0504  0.8542
 4117SOL    HW112751   4.869   0.093   1.679  0.4661 -0.9100 -0.4325
 4117SOL    HW212752   4.806   0.230   1.667  2.1063 -0.0204  0.8469
 4118SOL     OW12753   2.329   4.911   6.368 -0.1255  0.0359 -0.1297
 4118SOL    HW112754   2.255   4.862   6.332  1.2154 -1.7558 -0.5651
 4118SOL    HW212755   2.374   4.946   6.291 -0.7065  1.4488  0.1523
 4119SOL     OW12756   3.880   1.572   5.826 -0.2127 -0.1950 -0.2293
 4119SOL    HW112757   3.940   1.500   5.808 -0.8534 -0.4939 -1.2212
 4119SOL    HW212758   3.887   1.629   5.749  0.8001  1.1944  0.8189
 4120SOL     OW12759   2.973   2.585   3.768 -0.0232  0.1996 -0.1269
 4120SOL    HW112760   2.880   2.606   3.765 -0.0215  0.1818 -0.2971
 4120SOL    HW212761   2.978   2.506   3.822 -0.1414  0.0100 -0.3918
 4121SOL     OW12762   5.167   4.583   2.189  0.2638  0.1823  0.3661
 4121SOL    HW112763   5.146   4.572   2.096 -0.1602 -0.9196  0.5832
 4121SOL    HW212764   5.213   4.667   2.193 -1.6924  1.3734 -0.5076
 4122SOL     OW12765   1.579   5.286   3.278  0.6230  0.2706  0.4693
 4122SOL    HW112766   1.619   5.346   3.340 -0.0230  2.8715 -1.4761
 4122SOL    HW212767   1.653   5.244   3.234  1.1357  0.9172  0.7006
 4123SOL     OW12768   1.246   1.348   3.253  0.1497  0.3619 -0.3325
 4123SOL    HW112769   1.170   1.350   3.312  0.8934  0.7618  0.6507
 4123SOL    HW212770   1.320   1.372   3.309  1.1326 -0.8113 -1.0783
 4124SOL     OW12771   5.229   1.545   2.566 -0.0171  0.3213 -0.2149
 4124SOL    HW112772   5.300   1.497   2.523  1.0713  1.4064  0.3001
 4124SOL    HW212773   5.270   1.626   2.596 -1.5536  1.1204 -0.1563
 4125SOL     OW12774   6.684   0.528   0.497  0.1283 -0.2739  0.6570
 4125SOL    HW112775   6.656   0.541   0.588  0.2995 -0.5195  0.7421
 4125SOL    HW212776   6.615   0.570   0.446  0.8416  1.3163  0.9400
 4126SOL     OW12777   0.051   3.118   2.079  0.3192 -0.3373  0.3253
 4126SOL    HW112778  -0.035   3.130   2.037  0.2135 -1.0011  0.3516
 4126SOL    HW212779   0.031   3.096   2.170  0.5508  1.1247  0.7537
 4127SOL     OW12780   2.161   4.801   6.092  0.1290  0.1948 -0.0239
 4127SOL    HW112781   2.228   4.793   6.024 -0.6309 -2.1116 -0.5764
 4127SOL    HW212782   2.191   4.745   6.163 -0.8242 -0.2453  0.0453
 4128SOL     OW12783   3.422   2.617   0.331 -0.0001 -0.0345 -0.4878
 4128SOL    HW112784   3.364   2.688   0.360 -0.1958 -0.3363 -0.1266
 4128SOL    HW212785   3.367   2.539   0.335  0.7839 -0.5436  1.1291
 4129SOL     OW12786   6.592   5.704   1.786  0.4516  0.5118 -0.2515
 4129SOL    HW112787   6.687   5.700   1.770  0.6378 -0.1155  0.8900
 4129SOL    HW212788   6.585   5.744   1.873 -0.3860  1.4767 -0.7539
 4130SOL     OW12789   6.264   5.008   2.502  0.2893 -0.1798  0.1667
 4130SOL    HW112790   6.189   5.056   2.538  0.6335  1.4558 -1.1400
 4130SOL    HW212791   6.327   5.077   2.479  1.9631 -1.4711  0.6804
 4131SOL     OW12792   3.101   5.271   1.573  0.2896 -0.5266  0.6704
 4131SOL    HW112793   3.038   5.284   1.503  1.0246 -0.9076 -0.0731
 4131SOL    HW212794   3.048   5.252   1.650 -0.6128  1.5765  0.6397
 4132SOL     OW12795   4.906   2.983   6.395  0.9118 -0.1039  0.2457
 4132SOL    HW112796   4.983   3.031   6.423 -0.4925  1.8806  0.8946
 4132SOL    HW212797   4.832   3.036   6.424 -0.6991 -1.2283 -1.5446
 4133SOL     OW12798   0.276   1.302   6.042  0.5890 -0.1266  0.1978
 4133SOL    HW112799   0.231   1.377   6.080  0.6428  0.0309 -0.0468
 4133SOL    HW212800   0.367   1.311   6.070  0.4759 -0.4338  0.6739
 4134SOL     OW12801   3.357   0.178   4.704  0.3687  0.2516  0.5454
 4134SOL    HW112802   3.377   0.254   4.648  0.8888 -0.3065 -0.0469
 4134SOL    HW212803   3.367   0.211   4.793  1.0527  0.7762  0.2887
 4135SOL     OW12804   1.975   2.245   5.620  0.4420 -0.5607  0.2738
 4135SOL    HW112805   1.927   2.267   5.541  1.4146 -1.0894 -0.4948
 4135SOL    HW212806   1.938   2.161   5.649  1.0428 -1.0860 -0.4505
 4136SOL     OW12807   2.147   1.759   6.378 -0.6826 -0.2725 -0.2706
 4136SOL    HW112808   2.206   1.689   6.351  0.3559  0.4095  0.1837
 4136SOL    HW212809   2.204   1.826   6.415 -1.5987  1.0772 -1.1991
 4137SOL     OW12810   2.971   3.993   2.989  0.5035 -0.0740 -0.2512
 4137SOL    HW112811   2.892   4.040   2.965  0.4525 -0.1490 -0.2321
 4137SOL    HW212812   2.943   3.901   2.996  0.3841  0.0219  0.6715
 4138SOL     OW12813   6.520   1.446   2.284  0.3000 -0.1524 -0.3641
 4138SOL    HW112814   6.517   1.350   2.289  0.3290 -0.2706 -1.9845
 4138SOL    HW212815   6.436   1.475   2.320  0.6512 -0.7229  0.9654
 4139SOL     OW12816   0.794   4.065   2.805 -0.5426 -0.1382  0.2234
 4139SOL    HW112817   0.889   4.065   2.818 -0.3162  1.3119 -1.1745
 4139SOL    HW212818   0.766   4.153   2.831 -1.5070 -0.5165  0.5284
 4140SOL     OW12819   3.298   5.617   2.171  0.1303 -0.5035  0.5749
 4140SOL    HW112820   3.392   5.610   2.156 -0.1753 -0.6331 -1.7942
 4140SOL    HW212821   3.289   5.658   2.256  2.3330 -0.1590  0.6791
 4141SOL     OW12822   6.732   4.540   0.164  0.0589 -0.5045 -0.6217
 4141SOL    HW112823   6.647   4.506   0.138  0.2920 -0.2631 -1.7505
 4141SOL    HW212824   6.717   4.633   0.179  0.3876 -0.1422 -2.2721
 4142SOL     OW12825   2.337   5.328   4.955 -0.3351 -0.0797 -0.3207
 4142SOL    HW112826   2.362   5.257   4.896 -0.5902  1.5987 -2.6247
 4142SOL    HW212827   2.415   5.384   4.960 -0.7683  0.5253 -0.2106
 4143SOL     OW12828   1.730   4.339   3.258  0.2276  0.4462  0.2674
 4143SOL    HW112829   1.652   4.364   3.208 -0.0774  1.1141  1.0485
 4143SOL    HW212830   1.720   4.385   3.341 -0.3214 -2.1960  1.7918
 4144SOL     OW12831   6.669   5.858   6.250 -0.0911 -0.2784 -0.3362
 4144SOL    HW112832   6.675   5.952   6.267 -1.0146 -0.0168 -1.3329
 4144SOL    HW212833   6.643   5.820   6.333 -3.1486  0.7886 -0.7058
 4145SOL     OW12834   4.087   6.530   6.323 -0.1034 -0.1056 -0.0538
 4145SOL    HW112835   4.035   6.569   6.393 -0.4386 -0.9705  0.1784
 4145SOL    HW212836   4.176   6.561   6.340 -0.3958  0.7408 -0.0072
 4146SOL     OW12837   5.301   2.039   5.208 -0.1855  0.0239  0.3386
 4146SOL    HW112838   5.324   2.131   5.190 -0.1353 -0.0402  0.0623
 4146SOL    HW212839   5.280   2.037   5.301 -1.0899  0.4996  0.1491
 4147SOL     OW12840   2.754   2.985   6.596 -0.0514  0.1363 -0.9835
 4147SOL    HW112841   2.818   3.030   6.542 -1.0952  0.4314 -2.0185
 4147SOL    HW212842   2.762   2.893   6.571 -0.5969  0.2829 -1.7568
 4148SOL     OW12843   5.208   2.866   6.585 -0.0549 -0.0811  0.2013
 4148SOL    HW112844   5.112   2.865   6.581 -0.1136  0.0998  1.2662
 4148SOL    HW212845   5.230   2.952   6.623  0.5090 -0.2744  0.3254
 4149SOL     OW12846   5.124   0.944   0.793 -0.2410  0.0745 -0.3287
 4149SOL    HW112847   5.117   0.944   0.697 -1.9496 -1.1016 -0.2442
 4149SOL    HW212848   5.155   1.032   0.815  0.8525  0.1550 -1.9791
 4150SOL     OW12849   1.899   4.618   1.858 -0.3601  0.1751  0.1738
 4150SOL    HW112850   1.840   4.598   1.785  0.5277 -0.2801 -0.4234
 4150SOL    HW212851   1.913   4.713   1.851 -2.6888  0.7306  1.6101
 4151SOL     OW12852   3.923   3.646   2.277  0.3199 -0.1857  0.4511
 4151SOL    HW112853   3.884   3.558   2.280  0.8437 -0.4331  3.3352
 4151SOL    HW212854   3.848   3.706   2.279 -0.0398 -0.6370  1.8926
 4152SOL     OW12855   6.242   2.113   4.226 -0.1245 -0.4241  0.4510
 4152SOL    HW112856   6.171   2.176   4.231 -1.6803 -2.0727  0.0064
 4152SOL    HW212857   6.241   2.081   4.136 -1.0570 -2.8936  1.2622
 4153SOL     OW12858   3.503   5.598   2.659 -0.1562  0.5703 -0.2141
 4153SOL    HW112859   3.500   5.530   2.593 -1.5076  0.2055  0.1870
 4153SOL    HW212860   3.431   5.576   2.719  1.2906  0.6320  1.6240
 4154SOL     OW12861   6.668   3.903   5.781 -0.0395  0.0578 -0.4103
 4154SOL    HW112862   6.732   3.938   5.843 -0.2237 -0.3563  0.0204
 4154SOL    HW212863   6.604   3.972   5.771  0.2716  0.3274 -0.5423
 4155SOL     OW12864   3.834   6.689   3.055 -0.0020 -0.4126  0.2696
 4155SOL    HW112865   3.763   6.753   3.049  0.4142  0.0796  0.5230
 4155SOL    HW212866   3.865   6.680   2.965 -0.1624 -0.3763  0.2097
 4156SOL     OW12867   1.472   4.926   0.020 -0.6756  0.8861  0.8537
 4156SOL    HW112868   1.487   5.004   0.074  1.1201  0.6440  0.7703
 4156SOL    HW212869   1.451   4.857   0.083 -1.9582  1.3365  0.9511
 4157SOL     OW12870   4.880   0.904   2.130  0.1946  0.3267  0.3346
 4157SOL    HW112871   4.940   0.840   2.093 -0.5829 -0.2980  0.1349
 4157SOL    HW212872   4.899   0.904   2.224  0.9097  0.5741  0.1942
 4158SOL     OW12873   6.299   4.341   6.218  0.4041  0.1041 -0.3787
 4158SOL    HW112874   6.242   4.351   6.142  0.2739 -0.6790 -0.3962
 4158SOL    HW212875   6.292   4.248   6.241 -0.3129  0.5042  1.1682
 4159SOL     OW12876   6.657   0.147   5.013 -0.1689 -0.1450 -0.3534
 4159SOL    HW112877   6.749   0.129   4.997  0.1640  0.7229  0.5496
 4159SOL    HW212878   6.646   0.239   4.990 -0.8750 -0.3016 -0.6889
 4160SOL     OW12879   4.086   1.290   1.580  0.0069 -0.1021 -0.4027
 4160SOL    HW112880   4.078   1.365   1.639 -0.2116  0.2386 -0.8582
 4160SOL    HW212881   4.033   1.222   1.620 -1.8981  0.7976 -1.2707
 4161SOL     OW12882   0.673   5.848   2.233 -0.7860  0.1368 -0.2169
 4161SOL    HW112883   0.605   5.906   2.267  0.8552  0.9262  1.9613
 4161SOL    HW212884   0.735   5.907   2.191 -0.6972 -0.4196 -0.8848
 4162SOL     OW12885   0.332   0.461   4.011 -1.1406  0.3074 -0.1208
 4162SOL    HW112886   0.282   0.514   3.948 -0.7097 -1.3676 -1.9513
 4162SOL    HW212887   0.288   0.376   4.011  0.7461 -0.7146 -0.5882
 4163SOL     OW12888   3.413   4.565   2.154  0.3191 -0.3983 -0.4606
 4163SOL    HW112889   3.474   4.577   2.081 -0.1699 -0.8358 -0.9510
 4163SOL    HW212890   3.441   4.483   2.195  1.0871  0.2537  0.3403
 4164SOL     OW12891   6.004   6.302   3.100  0.3709  0.2688  0.1602
 4164SOL    HW112892   6.010   6.397   3.110 -1.6730  0.5402 -0.6100
 4164SOL    HW212893   6.001   6.288   3.005  0.1923 -0.5182  0.2744
 4165SOL     OW12894   0.522   2.546   6.177 -0.6690  0.9130 -0.1016
 4165SOL    HW112895   0.474   2.489   6.237 -2.1518  0.2766 -1.7887
 4165SOL    HW212896   0.570   2.486   6.120  1.1346  1.5173  0.7205
 4166SOL     OW12897   5.099   1.459   5.882 -0.1331  0.1613 -0.0929
 4166SOL    HW112898   5.124   1.387   5.824  0.5264  0.3875 -0.0902
 4166SOL    HW212899   5.124   1.429   5.969 -0.2552  0.2138 -0.0392
 4167SOL     OW12900   0.483   0.762   5.696  0.4852  0.2723 -0.1214
 4167SOL    HW112901   0.480   0.694   5.764 -0.2765  2.4768  2.2230
 4167SOL    HW212902   0.391   0.784   5.681  0.7464  1.4867 -0.0216
 4168SOL     OW12903   6.373   0.322   6.012  0.1936 -0.1392  0.1351
 4168SOL    HW112904   6.450   0.307   5.957 -0.9685 -1.0070 -1.3194
 4168SOL    HW212905   6.341   0.408   5.985  1.2068  0.7032  1.4867
 4169SOL     OW12906   1.463   0.389   3.613  0.0352  0.3018 -0.8434
 4169SOL    HW112907   1.371   0.412   3.623 -0.1414  0.1652 -2.0329
 4169SOL    HW212908   1.481   0.327   3.684 -0.9500 -0.1566 -0.9831
 4170SOL     OW12909   0.439   3.791   1.125  0.0254  0.1350 -0.2493
 4170SOL    HW112910   0.508   3.768   1.187 -0.2158 -0.5944 -0.2445
 4170SOL    HW212911   0.410   3.708   1.089 -1.4723  0.3308  0.4028
 4171SOL     OW12912   0.249   2.070   2.878  0.3869 -0.4285 -0.3602
 4171SOL    HW112913   0.321   2.130   2.863 -0.4036  1.3508  2.3108
 4171SOL    HW212914   0.290   1.992   2.915  1.1434 -0.3786 -1.0747
 4172SOL     OW12915   2.480   2.052   4.023 -0.5964  0.4327  0.3528
 4172SOL    HW112916   2.559   2.089   4.063 -2.0772  3.9616  0.3973
 4172SOL    HW212917   2.409   2.082   4.079 -2.1076 -2.4471  0.1950
 4173SOL     OW12918   6.407   6.489   2.475 -0.5251 -0.5322 -0.2147
 4173SOL    HW112919   6.401   6.460   2.384 -1.1118 -1.5384  0.1197
 4173SOL    HW212920   6.463   6.424   2.518 -1.4070 -0.8892  0.4379
 4174SOL     OW12921   4.084   3.700   0.340  0.0393 -0.3541 -0.6163
 4174SOL    HW112922   4.030   3.744   0.274 -1.4465 -0.8779  0.2072
 4174SOL    HW212923   4.057   3.740   0.423  0.7307 -0.8122 -0.1619
 4175SOL     OW12924   2.396   3.965   2.205 -0.0768 -0.4069 -0.1920
 4175SOL    HW112925   2.327   3.952   2.270 -0.6598  0.3895 -0.6425
 4175SOL    HW212926   2.405   4.060   2.198  1.5507 -0.4759  0.3596
 4176SOL     OW12927   4.875   1.336   5.665 -0.4662 -0.2998 -0.3334
 4176SOL    HW112928   4.858   1.294   5.750  0.0060  0.4575  0.1507
 4176SOL    HW212929   4.799   1.392   5.650  0.9738  2.3906  1.3974
 4177SOL     OW12930   0.351   1.161   2.170 -0.2354  0.2912 -0.0754
 4177SOL    HW112931   0.443   1.185   2.165 -0.0479 -0.3056  0.3375
 4177SOL    HW212932   0.348   1.071   2.136 -0.3836 -0.3217  1.4554
 4178SOL     OW12933   1.271   4.541   0.131  0.5803  0.7013  0.3542
 4178SOL    HW112934   1.364   4.524   0.149 -0.0073 -0.1490  3.1087
 4178SOL    HW212935   1.266   4.551   0.036  3.0473 -2.1226 -0.2209
 4179SOL     OW12936   5.910   6.598   6.312 -0.0168 -0.3689 -0.0602
 4179SOL    HW112937   5.981   6.634   6.364 -0.7418  0.3559  0.4516
 4179SOL    HW212938   5.907   6.653   6.234  2.0998 -2.4114 -1.7132
 4180SOL     OW12939   4.128   3.544   5.621  0.3430  0.4184  0.4520
 4180SOL    HW112940   4.209   3.580   5.657  1.1580  1.9011 -2.5761
 4180SOL    HW212941   4.152   3.457   5.590 -0.7308 -1.5324  4.4467
 4181SOL     OW12942   4.606   0.569   2.204  0.4109 -0.2977 -0.2212
 4181SOL    HW112943   4.613   0.609   2.291  2.2908  0.3400 -0.6172
 4181SOL    HW212944   4.539   0.620   2.159 -1.0771 -1.0713  1.0491
 4182SOL     OW12945   5.744   0.603   4.245  0.1734 -0.0586  0.4631
 4182SOL    HW112946   5.683   0.556   4.188  0.8151  2.1232 -2.2632
 4182SOL    HW212947   5.689   0.661   4.296 -0.2023  0.9745 -1.0504
 4183SOL     OW12948   1.769   4.648   2.146 -0.5147 -0.1076 -0.7223
 4183SOL    HW112949   1.809   4.731   2.170 -1.7750  0.4177 -0.3269
 4183SOL    HW212950   1.815   4.620   2.067  0.3190  0.6693 -0.5235
 4184SOL     OW12951   3.072   4.310   0.072 -0.7300  0.0638 -0.1757
 4184SOL    HW112952   2.999   4.371   0.062 -0.6868  0.0966 -0.2963
 4184SOL    HW212953   3.095   4.285  -0.018 -0.6296  0.0110 -0.1356
 4185SOL     OW12954   3.295   0.198   0.775 -0.0305 -0.8503 -0.1533
 4185SOL    HW112955   3.335   0.271   0.728  1.4031 -0.9633  0.8310
 4185SOL    HW212956   3.242   0.239   0.844  1.6291 -0.6860  1.0912
 4186SOL     OW12957   5.983   1.873   3.324 -0.2973  0.2454 -0.0895
 4186SOL    HW112958   5.979   1.897   3.416 -0.4866 -1.6180  0.4187
 4186SOL    HW212959   5.893   1.884   3.292 -0.0212  1.9947 -0.3992
 4187SOL     OW12960   4.764   5.371   0.747 -0.0140 -0.0926  0.1797
 4187SOL    HW112961   4.746   5.464   0.741  1.8828  0.2919  0.0487
 4187SOL    HW212962   4.749   5.337   0.658  2.0134  0.6452 -0.4994
 4188SOL     OW12963   4.400   3.134   4.496  0.3085 -0.1423  0.0641
 4188SOL    HW112964   4.375   3.221   4.464 -0.3012 -0.1972  0.3593
 4188SOL    HW212965   4.484   3.147   4.539 -1.0649  0.9389  2.6741
 4189SOL     OW12966   1.937   0.240   6.516  0.5932 -0.3412  0.6331
 4189SOL    HW112967   1.950   0.280   6.430  0.0851 -1.8420 -0.1845
 4189SOL    HW212968   1.842   0.240   6.528  0.7041  0.8166  1.6999
 4190SOL     OW12969   1.413   0.144   3.441  0.3764 -0.3041 -0.5469
 4190SOL    HW112970   1.375   0.200   3.373  0.2240  0.3966  0.1168
 4190SOL    HW212971   1.429   0.202   3.515  1.1046 -0.9474 -0.1881
 4191SOL     OW12972   6.302   0.840   2.724 -0.3582 -0.2959 -0.2034
 4191SOL    HW112973   6.239   0.855   2.794  1.7031 -2.6405  2.3558
 4191SOL    HW212974   6.262   0.772   2.670 -0.6820 -0.6573  0.4856
 4192SOL     OW12975   4.204   0.673   0.973  0.1831  0.0022 -0.1583
 4192SOL    HW112976   4.227   0.585   0.945 -1.3476 -0.4390 -0.1369
 4192SOL    HW212977   4.111   0.667   0.997  0.0524  1.6074 -0.1425
 4193SOL     OW12978   4.326   6.593   6.410  0.3844 -0.3220  0.0232
 4193SOL    HW112979   4.382   6.670   6.417  1.3023 -1.0087  0.6450
 4193SOL    HW212980   4.379   6.531   6.359  0.4056 -1.1491  1.0095
 4194SOL     OW12981   3.494   0.449   3.092 -0.2458  0.1507 -0.8454
 4194SOL    HW112982   3.401   0.433   3.106 -0.5004  1.8920 -0.2477
 4194SOL    HW212983   3.498   0.540   3.061  1.2397  0.0540 -1.0299
 4195SOL     OW12984   0.292   5.679   0.967 -0.1807 -0.0461 -0.1091
 4195SOL    HW112985   0.366   5.720   0.922  1.2994 -0.1251  2.0974
 4195SOL    HW212986   0.295   5.588   0.940 -0.0755  0.1564 -0.7910
 4196SOL     OW12987   2.656   1.140   1.163  0.4175  0.1499 -0.3646
 4196SOL    HW112988   2.563   1.159   1.149  0.2854  0.2264  0.5500
 4196SOL    HW212989   2.675   1.067   1.104 -0.9413 -1.7839  1.4533
 4197SOL     OW12990   4.170   5.193   2.957 -0.7637  0.0196  0.2638
 4197SOL    HW112991   4.185   5.149   2.873  2.0971 -1.0915  1.2129
 4197SOL    HW212992   4.217   5.276   2.949  0.6563 -0.6552  1.1199
 4198SOL     OW12993   2.701   6.571   5.437 -0.1078  0.2539 -0.4026
 4198SOL    HW112994   2.683   6.524   5.519 -1.0635 -1.5392 -1.5725
 4198SOL    HW212995   2.620   6.563   5.386  1.2767 -1.0783 -2.5937
 4199SOL     OW12996   4.211   1.749   0.800  0.0003 -0.1542  0.4090
 4199SOL    HW112997   4.122   1.713   0.806 -0.4312  0.8131 -0.0814
 4199SOL    HW212998   4.260   1.682   0.753 -0.8927  0.0539 -0.8630
 4200SOL     OW12999   1.761   5.261   6.295  0.1221 -0.4605  0.0296
 4200SOL    HW113000   1.764   5.237   6.203 -0.2724  0.4486 -0.2373
 4200SOL    HW213001   1.669   5.251   6.320 -0.0215  0.5392 -0.0438
 4201SOL     OW13002   3.740   1.610   4.275 -0.3836  0.3203  0.0979
 4201SOL    HW113003   3.833   1.628   4.291 -0.5214  0.0481  1.3409
 4201SOL    HW213004   3.740   1.533   4.218  0.1484  1.1846 -1.1128
 4202SOL     OW13005   0.366   4.623   6.290 -0.2140 -0.3503  0.3509
 4202SOL    HW113006   0.348   4.571   6.368  0.3995  0.9656  1.4150
 4202SOL    HW213007   0.421   4.566   6.236 -0.1385 -1.0615  1.1539
 4203SOL     OW13008   1.590   4.296   6.736 -1.0889  0.5120 -0.2712
 4203SOL    HW113009   1.502   4.261   6.723 -1.1624  0.8820 -0.8252
 4203SOL    HW213010   1.591   4.375   6.682  0.4380 -0.8733 -2.4456
 4204SOL     OW13011   5.933   0.376   3.319 -0.0707 -0.1380  0.1689
 4204SOL    HW113012   5.999   0.315   3.351  0.9911 -0.2399 -2.0558
 4204SOL    HW213013   5.879   0.394   3.396  1.8177 -0.9513  1.7930
 4205SOL     OW13014   6.078   4.431   1.912  0.4098 -0.0228 -0.2633
 4205SOL    HW113015   6.000   4.486   1.907  1.7370  1.8727 -1.5074
 4205SOL    HW213016   6.116   4.452   1.998 -0.5441 -1.1631  0.4680
 4206SOL     OW13017   5.913   2.964   3.379  0.0866  0.2068 -0.3072
 4206SOL    HW113018   5.941   3.053   3.358 -0.7807  0.3533 -0.8582
 4206SOL    HW213019   5.826   2.956   3.341  0.8777 -1.4939 -1.8647
 4207SOL     OW13020   3.529   6.172   2.175 -0.0856 -0.0618  0.0160
 4207SOL    HW113021   3.514   6.237   2.107 -2.0816 -0.4331  0.0492
 4207SOL    HW213022   3.576   6.101   2.131 -0.1793  0.2760 -0.6371
 4208SOL     OW13023   1.805   3.514   4.098  0.6344 -0.3941  0.0804
 4208SOL    HW113024   1.824   3.471   4.015 -0.7345 -0.8473 -0.0276
 4208SOL    HW213025   1.889   3.517   4.144  1.6802  0.8495 -1.7414
 4209SOL     OW13026   0.374   2.178   5.120  0.4458  0.4999  0.1166
 4209SOL    HW113027   0.335   2.257   5.158 -1.1678 -0.3042  0.2171
 4209SOL    HW213028   0.414   2.133   5.194 -0.9384 -0.0609  0.5534
 4210SOL     OW13029   4.129   1.941   5.437 -0.1165 -0.3452 -0.1456
 4210SOL    HW113030   4.176   2.010   5.391 -1.9079  1.6415  0.8308
 4210SOL    HW213031   4.165   1.943   5.526  0.3642 -1.2491 -0.3053
 4211SOL     OW13032   0.273   4.868   5.104  0.3725  0.1717 -0.0919
 4211SOL    HW113033   0.307   4.847   5.190 -1.0942 -2.1935 -0.0010
 4211SOL    HW213034   0.226   4.789   5.076 -0.5533  1.4131 -2.3706
 4212SOL     OW13035   6.087   3.703   1.748  0.1773 -0.5813 -0.4455
 4212SOL    HW113036   6.134   3.644   1.807  3.3321  1.9711 -0.0724
 4212SOL    HW213037   6.014   3.736   1.800  1.5743 -0.0884  1.3012
 4213SOL     OW13038   0.272   2.878   5.534  0.3325  0.4875  0.3023
 4213SOL    HW113039   0.345   2.847   5.480 -0.2067  0.1503 -0.2516
 4213SOL    HW213040   0.307   2.953   5.582  0.9426  0.5416 -0.2237
 4214SOL     OW13041   4.065   3.502   0.826 -0.9584  0.0771 -1.0150
 4214SOL    HW113042   3.972   3.512   0.844 -0.3653  1.0972  2.0248
 4214SOL    HW213043   4.102   3.588   0.844  0.8018 -0.7243 -0.5981
 4215SOL     OW13044   5.325   1.635   3.755  0.1562 -0.0864  0.9095
 4215SOL    HW113045   5.246   1.665   3.711 -0.8040 -0.7499  2.0854
 4215SOL    HW213046   5.376   1.714   3.770 -0.7533  0.4986  0.9984
 4216SOL     OW13047   2.754   1.495   4.291  0.1513  0.1759 -0.4127
 4216SOL    HW113048   2.689   1.437   4.251  0.7587 -0.8006 -0.0196
 4216SOL    HW213049   2.738   1.487   4.385  1.5377 -0.9523 -0.2461
 4217SOL     OW13050   3.434   4.014   0.650 -0.3179  0.2188 -0.4720
 4217SOL    HW113051   3.399   3.937   0.603 -1.7223  0.5161  0.0374
 4217SOL    HW213052   3.426   3.991   0.742  1.2110  0.1644 -0.3414
 4218SOL     OW13053   0.816   2.877   4.048  1.1238 -0.7125 -0.0432
 4218SOL    HW113054   0.772   2.805   4.002  0.2350  0.1529 -0.5642
 4218SOL    HW213055   0.899   2.888   4.001  0.2286  0.1646 -1.4821
 4219SOL     OW13056   6.641   3.061   3.469 -0.5903  0.3223 -0.4380
 4219SOL    HW113057   6.676   2.985   3.423 -1.1857 -0.3556  0.2021
 4219SOL    HW213058   6.718   3.111   3.497 -0.1759 -0.4443 -0.2059
 4220SOL     OW13059   4.665   5.178   3.098  0.0178 -0.0525  0.2351
 4220SOL    HW113060   4.629   5.196   3.011  0.0841 -0.4166  0.1318
 4220SOL    HW213061   4.590   5.181   3.157  0.1651  1.6441  0.3909
 4221SOL     OW13062   4.476   1.018   0.647  0.4279  0.0994  0.4952
 4221SOL    HW113063   4.549   0.991   0.590 -0.0135 -0.8877  0.3867
 4221SOL    HW213064   4.507   1.001   0.736  0.1505 -0.8115  0.4282
 4222SOL     OW13065   6.024   2.439   4.817 -0.4066 -0.2544 -0.1804
 4222SOL    HW113066   6.063   2.490   4.746 -0.3057  0.9063  0.6907
 4222SOL    HW213067   5.941   2.406   4.780 -0.3339  0.2892 -0.8431
 4223SOL     OW13068   2.164   2.325   0.101  0.0114 -0.1888 -0.1233
 4223SOL    HW113069   2.110   2.271   0.159 -2.1440  2.6520  0.7814
 4223SOL    HW213070   2.231   2.362   0.159 -0.1952  0.1885 -0.1206
 4224SOL     OW13071   2.806   4.861   3.569 -0.3641 -0.7704 -0.6410
 4224SOL    HW113072   2.729   4.805   3.574 -0.6561 -0.3427 -0.2258
 4224SOL    HW213073   2.783   4.928   3.504 -0.9567  0.2554  0.5765
 4225SOL     OW13074   1.222   3.283   2.788  0.5414 -0.1141  0.6827
 4225SOL    HW113075   1.218   3.235   2.705 -0.2890 -0.7202  1.0580
 4225SOL    HW213076   1.262   3.220   2.849  1.9166  0.6147  0.5599
 4226SOL     OW13077   3.004   4.429   4.128  0.2544  0.5579 -0.2999
 4226SOL    HW113078   3.021   4.347   4.083  0.3560  0.6382 -0.4079
 4226SOL    HW213079   2.920   4.416   4.172 -0.0300  0.6130 -0.8243
 4227SOL     OW13080   0.410   5.067   3.946  0.1872 -0.0204  0.4183
 4227SOL    HW113081   0.321   5.032   3.950  0.6122 -1.4185 -1.0562
 4227SOL    HW213082   0.399   5.159   3.923 -0.9037 -0.5466 -1.4034
 4228SOL     OW13083   4.992   1.731   5.847 -0.2614 -0.7948  0.0932
 4228SOL    HW113084   4.980   1.741   5.753  0.4869  1.3448  0.1763
 4228SOL    HW213085   5.034   1.646   5.857 -1.8876 -1.8550 -1.3247
 4229SOL     OW13086   6.768   3.830   6.542  0.4267  0.1885  0.5261
 4229SOL    HW113087   6.802   3.914   6.513  1.1581 -0.4892 -0.6302
 4229SOL    HW213088   6.829   3.800   6.610  0.8097  0.0660  0.1276
 4230SOL     OW13089   5.570   2.774   3.928  0.0499  0.1838  0.0795
 4230SOL    HW113090   5.542   2.722   4.004  1.0727 -0.0867  0.2806
 4230SOL    HW213091   5.653   2.813   3.955 -0.5950  1.7759 -0.1396
 4231SOL     OW13092   4.167   3.102   2.469  0.4339 -0.2343  0.6012
 4231SOL    HW113093   4.116   3.121   2.548  0.4974 -0.8050  0.7818
 4231SOL    HW213094   4.139   3.169   2.406 -1.0252 -0.9232  0.4795
 4232SOL     OW13095   5.973   2.263   5.211 -0.2279 -0.0417 -0.2420
 4232SOL    HW113096   6.001   2.334   5.268 -0.5435 -0.5642  0.5789
 4232SOL    HW213097   6.051   2.240   5.161  0.0314  0.4714 -0.0784
 4233SOL     OW13098   2.878   6.600   4.843 -0.0931  0.5247  0.1170
 4233SOL    HW113099   2.961   6.553   4.855  1.0574  1.9479 -1.6432
 4233SOL    HW213100   2.814   6.548   4.890  1.7188 -0.8911  1.1542
 4234SOL     OW13101   1.243   1.575   0.992  0.0112  1.2050 -0.2564
 4234SOL    HW113102   1.228   1.488   1.030  0.1339  2.1641  2.1288
 4234SOL    HW213103   1.156   1.612   0.980 -0.0064  1.0958 -0.4817
 4235SOL     OW13104   6.739   1.267   4.888  0.3981  0.0518  0.1783
 4235SOL    HW113105   6.690   1.337   4.845 -1.5587 -0.6520  1.0963
 4235SOL    HW213106   6.738   1.291   4.981 -0.3078 -1.1456  0.5053
 4236SOL     OW13107   1.096   0.533   6.628 -0.2224  0.3319 -0.4861
 4236SOL    HW113108   1.076   0.454   6.578 -1.7007  0.7697 -0.6597
 4236SOL    HW213109   1.011   0.559   6.665  0.6862  0.4621  1.6210
 4237SOL     OW13110   5.786   4.663   4.783 -0.0721  0.3709 -0.1717
 4237SOL    HW113111   5.802   4.592   4.720  0.0291  0.9400 -0.7909
 4237SOL    HW213112   5.846   4.644   4.855  0.6420  0.3521 -0.7604
 4238SOL     OW13113   1.243   2.816   6.342  0.1538 -0.3732  0.1140
 4238SOL    HW113114   1.274   2.783   6.426  1.8376  0.0508 -0.3025
 4238SOL    HW213115   1.278   2.754   6.278  0.8199  0.5478 -0.4380
 4239SOL     OW13116   0.631   4.395   2.450  0.4512 -0.1584 -0.3644
 4239SOL    HW113117   0.611   4.302   2.439  2.5006 -0.5499 -1.1347
 4239SOL    HW213118   0.711   4.397   2.501  0.9536  1.1599 -1.1420
 4240SOL     OW13119   1.731   2.193   6.352  0.6404 -0.0703  0.1533
 4240SOL    HW113120   1.703   2.281   6.376  1.5606  0.7586 -1.5477
 4240SOL    HW213121   1.659   2.136   6.378 -1.1518  1.5289 -1.0431
 4241SOL     OW13122   2.546   5.843   2.088  0.3095 -0.2703  0.3919
 4241SOL    HW113123   2.585   5.779   2.148  2.8910  0.6292 -0.1692
 4241SOL    HW213124   2.568   5.928   2.126 -0.8489  0.3073 -0.1769
 4242SOL     OW13125   0.701   2.877   5.240 -0.4548  0.6359 -0.1842
 4242SOL    HW113126   0.698   2.971   5.259  0.9187  0.7405 -0.4222
 4242SOL    HW213127   0.753   2.870   5.160 -0.0564 -0.3718  0.1482
 4243SOL     OW13128   2.265   0.275   1.861 -0.3148  0.2501  0.5926
 4243SOL    HW113129   2.244   0.250   1.771 -1.0507  1.5326  0.3852
 4243SOL    HW213130   2.193   0.239   1.913 -0.2405  0.0795  0.5769
 4244SOL     OW13131   2.535   3.880   5.508  0.2487 -0.5239  0.0765
 4244SOL    HW113132   2.618   3.861   5.551  0.6265  0.8944 -0.0035
 4244SOL    HW213133   2.523   3.809   5.445  2.1553  0.0573 -1.0037
 4245SOL     OW13134   3.662   6.402   4.976 -0.6750  0.1702  0.1369
 4245SOL    HW113135   3.747   6.444   4.989 -0.3690 -0.4029  0.0290
 4245SOL    HW213136   3.638   6.369   5.062 -0.2574 -0.6389 -0.0454
 4246SOL     OW13137   1.942   6.535   5.889 -0.0157  0.2365  0.0719
 4246SOL    HW113138   1.944   6.524   5.984 -0.0177  0.8403  0.1457
 4246SOL    HW213139   1.887   6.463   5.858  0.9738 -0.6982  0.4115
 4247SOL     OW13140   0.733   3.248   1.450  0.3768  0.4892 -0.2313
 4247SOL    HW113141   0.767   3.337   1.441 -1.0504  0.9441 -1.5413
 4247SOL    HW213142   0.732   3.233   1.545  1.3288  1.5847 -0.0262
 4248SOL     OW13143   2.128   5.473   4.878 -0.4805 -0.8684 -0.3053
 4248SOL    HW113144   2.198   5.415   4.907  0.2439 -0.2572 -0.7753
 4248SOL    HW213145   2.117   5.452   4.785  1.7495  1.5874 -1.2644
 4249SOL     OW13146   6.008   4.789   0.945 -0.1003 -0.5188 -0.0020
 4249SOL    HW113147   5.989   4.861   0.885  0.7559 -0.0942  0.2179
 4249SOL    HW213148   6.087   4.817   0.991 -0.3098 -1.1791  0.7740
 4250SOL     OW13149   0.223   3.463   5.920 -0.0758  0.2772  0.5556
 4250SOL    HW113150   0.143   3.505   5.890 -1.4293 -2.2743  0.3699
 4250SOL    HW213151   0.222   3.473   6.015 -0.3765  0.6164  0.5177
 4251SOL     OW13152   1.889   5.169   3.572 -0.5870  0.0771 -0.5167
 4251SOL    HW113153   1.830   5.169   3.647 -0.7320 -1.6658 -0.5861
 4251SOL    HW213154   1.939   5.249   3.581 -1.3190  0.4154  0.8655
 4252SOL     OW13155   5.366   5.278   2.527 -0.0928  0.1605  0.1111
 4252SOL    HW113156   5.436   5.222   2.495  0.4538  0.5078  0.6782
 4252SOL    HW213157   5.349   5.246   2.616 -0.1310  0.5545  0.2492
 4253SOL     OW13158   2.145   6.113   0.856 -0.1297 -0.0540 -1.2283
 4253SOL    HW113159   2.154   6.207   0.839 -0.5512  0.2915  0.3407
 4253SOL    HW213160   2.082   6.083   0.791 -1.1710  1.0690 -0.7739
 4254SOL     OW13161   6.481   4.788   5.535  0.1144 -0.0578  0.1875
 4254SOL    HW113162   6.442   4.849   5.473 -0.1598 -0.1324  0.2861
 4254SOL    HW213163   6.411   4.771   5.599 -0.5765 -2.2380 -1.0763
 4255SOL     OW13164   5.337   0.012   4.827 -0.0717 -0.0510 -0.5873
 4255SOL    HW113165   5.327  -0.081   4.806  0.0325 -0.0030 -0.8546
 4255SOL    HW213166   5.429   0.030   4.812 -0.1284  0.1379 -0.7116
 4256SOL     OW13167   2.359   4.571   3.060 -0.0610 -0.1453 -0.1236
 4256SOL    HW113168   2.421   4.505   3.031  0.6802  0.7377 -0.6142
 4256SOL    HW213169   2.336   4.619   2.980 -1.0295 -0.1737  0.1253
 4257SOL     OW13170   1.987   6.321   6.680  0.0899  0.5344 -0.2317
 4257SOL    HW113171   2.041   6.250   6.644 -0.6109 -1.0835  1.7048
 4257SOL    HW213172   2.018   6.331   6.770 -0.8875  1.6446  0.0001
 4258SOL     OW13173   1.393   3.107   4.204 -0.0860  0.6529  0.1909
 4258SOL    HW113174   1.415   3.140   4.117  0.1059 -1.4601 -0.6169
 4258SOL    HW213175   1.419   3.015   4.202 -1.2358  0.2384  2.0632
 4259SOL     OW13176   3.295   4.785   1.094  0.1696 -0.4386  0.4094
 4259SOL    HW113177   3.311   4.696   1.064 -2.4915 -0.8679  0.0405
 4259SOL    HW213178   3.324   4.841   1.022 -1.0804 -1.2078 -0.7336
 4260SOL     OW13179   3.875   4.425   2.695  0.0435 -0.5342 -0.6460
 4260SOL    HW113180   3.837   4.372   2.766  0.6698  1.7414  1.5337
 4260SOL    HW213181   3.803   4.480   2.665  0.7520  2.0310  1.8108
 4261SOL     OW13182   3.240   4.216   5.483 -0.3499 -0.0569 -0.1519
 4261SOL    HW113183   3.216   4.209   5.576  2.5974  0.2372  0.7282
 4261SOL    HW213184   3.294   4.138   5.467 -0.8161 -0.0923 -1.6409
 4262SOL     OW13185   0.243   2.209   2.064 -0.1683 -0.2291  0.5937
 4262SOL    HW113186   0.205   2.124   2.088  1.1769 -2.3710 -3.6785
 4262SOL    HW213187   0.192   2.236   1.987 -0.7886  3.1824  2.0425
 4263SOL     OW13188   5.794   4.833   6.402 -0.1943 -0.4906 -0.0060
 4263SOL    HW113189   5.732   4.872   6.341  1.2653  1.6294 -0.2432
 4263SOL    HW213190   5.784   4.885   6.482  1.0500 -0.2675  0.0251
 4264SOL     OW13191   5.224   6.531   3.707 -0.3300 -0.1413 -0.3445
 4264SOL    HW113192   5.241   6.510   3.799 -0.1371 -0.6900 -0.4963
 4264SOL    HW213193   5.148   6.477   3.683  1.0407 -1.8529 -1.1363
 4265SOL     OW13194   0.667   1.110   1.881  0.4985 -0.2341 -0.0446
 4265SOL    HW113195   0.671   1.048   1.808  1.3521 -0.6736  0.3605
 4265SOL    HW213196   0.758   1.125   1.905  0.2200 -1.0825  1.7389
 4266SOL     OW13197   1.210   1.267   6.462 -0.1998  0.0142  0.8019
 4266SOL    HW113198   1.143   1.253   6.529 -0.2232 -1.0817  0.5738
 4266SOL    HW213199   1.226   1.180   6.427  2.4113 -0.0019  1.8485
 4267SOL     OW13200   3.477   0.748   0.141  0.2967 -0.3462  0.6194
 4267SOL    HW113201   3.428   0.830   0.140 -0.3947 -0.7381  1.0892
 4267SOL    HW213202   3.471   0.716   0.051  1.7773  0.7875  0.0740
 4268SOL     OW13203   2.176   3.351   6.478 -0.4094 -0.4260  0.1761
 4268SOL    HW113204   2.163   3.345   6.573  1.7733  1.1586  0.6786
 4268SOL    HW213205   2.107   3.298   6.440 -2.4448  0.2950  2.6030
 4269SOL     OW13206   5.279   2.395   6.271  0.4850 -0.1160 -0.0375
 4269SOL    HW113207   5.341   2.445   6.219  0.0339 -0.6575 -1.1232
 4269SOL    HW213208   5.300   2.304   6.251 -1.2364 -0.3034 -1.1547
 4270SOL     OW13209   0.920   1.213   1.882  0.1977 -0.4321 -0.0442
 4270SOL    HW113210   0.896   1.284   1.942  0.0724  0.2582 -0.8961
 4270SOL    HW213211   0.949   1.257   1.802 -2.9847 -1.2755 -1.8570
 4271SOL     OW13212   5.791   2.366   2.588 -0.0166 -0.0147  0.9101
 4271SOL    HW113213   5.743   2.314   2.653 -0.0458 -0.1831  0.7547
 4271SOL    HW213214   5.725   2.427   2.553 -0.5123 -1.2535 -0.3908
 4272SOL     OW13215   6.249   0.927   3.136 -0.1789 -0.1314 -0.3912
 4272SOL    HW113216   6.240   1.002   3.194 -3.0988 -0.8926  0.2898
 4272SOL    HW213217   6.296   0.862   3.189  0.1926  0.3458 -0.1228
 4273SOL     OW13218   3.119   6.203   4.394  0.5552  0.4807  0.3243
 4273SOL    HW113219   3.087   6.293   4.394  0.7674  0.5602  0.6709
 4273SOL    HW213220   3.040   6.149   4.386  0.5371  0.7120 -1.4576
 4274SOL     OW13221   5.302   5.775   2.045 -0.9032  0.5844 -0.2006
 4274SOL    HW113222   5.326   5.693   2.089 -0.0884  2.4328  3.0730
 4274SOL    HW213223   5.207   5.781   2.058 -0.6342  1.2585  1.7400
 4275SOL     OW13224   2.927   1.404   2.131 -0.0242 -0.0993  0.1254
 4275SOL    HW113225   2.925   1.482   2.187  0.0246 -0.3567  0.4889
 4275SOL    HW213226   2.987   1.344   2.176 -0.0099 -0.3219 -0.1867
 4276SOL     OW13227   4.922   1.820   4.394 -1.0753  0.0224  0.5886
 4276SOL    HW113228   4.968   1.888   4.344 -2.4707  0.6147  0.0558
 4276SOL    HW213229   4.990   1.756   4.415 -0.1319  0.5338 -0.7294
 4277SOL     OW13230   4.057   1.388   1.283 -0.1502 -0.2248 -0.3635
 4277SOL    HW113231   4.062   1.324   1.354 -0.7876  0.7023  0.5549
 4277SOL    HW213232   4.104   1.347   1.210  0.5347 -1.2050  0.5881
 4278SOL     OW13233   6.586   2.002   5.967  0.6377  0.5639 -0.3781
 4278SOL    HW113234   6.550   1.978   6.052  1.4538 -0.9358 -0.4372
 4278SOL    HW213235   6.568   1.928   5.910  2.6285  0.2971 -0.7473
 4279SOL     OW13236   3.464   6.310   1.892  0.0935  0.3129 -0.3521
 4279SOL    HW113237   3.423   6.397   1.893  0.1132  0.3720  2.2994
 4279SOL    HW213238   3.555   6.327   1.867  0.0831  1.0665  0.0971
 4280SOL     OW13239   4.054   0.653   1.635 -0.3045  0.0698  0.1862
 4280SOL    HW113240   4.092   0.681   1.718  2.1131 -2.9915  0.2943
 4280SOL    HW213241   4.006   0.573   1.657 -3.3828  1.5022 -0.7534
 4281SOL     OW13242   1.439   2.560   1.954  0.6884  0.0600 -0.4600
 4281SOL    HW113243   1.497   2.554   2.029  1.2008 -1.1254 -0.9315
 4281SOL    HW213244   1.351   2.552   1.991  0.9021  0.1643  0.0748
 4282SOL     OW13245   5.188   6.172   4.552 -0.0328  0.8258 -0.0772
 4282SOL    HW113246   5.116   6.133   4.503  0.3603  0.5590 -0.4400
 4282SOL    HW213247   5.155   6.258   4.577 -1.6492 -0.3802  2.3585
 4283SOL     OW13248   2.470   1.944   3.067 -0.0237 -0.3546  0.4354
 4283SOL    HW113249   2.478   1.896   3.150  0.7263  0.3898  0.8134
 4283SOL    HW213250   2.413   1.890   3.013 -2.6673  0.3222  2.3237
 4284SOL     OW13251   6.532   0.610   4.054 -0.0569 -0.4670 -0.6987
 4284SOL    HW113252   6.529   0.693   4.101 -0.1868 -1.3602  0.9681
 4284SOL    HW213253   6.622   0.580   4.063 -0.3057 -1.0902 -0.1668
 4285SOL     OW13254   1.987   5.786   5.218 -0.1323 -0.4313 -0.1876
 4285SOL    HW113255   2.024   5.840   5.288 -0.6248  0.5595 -0.6699
 4285SOL    HW213256   2.003   5.696   5.247 -0.3829 -0.0512  1.2368
 4286SOL     OW13257   5.321   2.432   3.799 -0.4744  0.6751 -0.0426
 4286SOL    HW113258   5.387   2.387   3.852  1.0372  2.8105  0.0410
 4286SOL    HW213259   5.362   2.442   3.713 -0.7073  1.9094 -0.0351
 4287SOL     OW13260   1.828   1.549   1.300 -0.1750 -0.3230 -0.2657
 4287SOL    HW113261   1.877   1.572   1.379 -2.0005  0.0312  0.8369
 4287SOL    HW213262   1.783   1.631   1.276  0.5297 -0.3671 -1.8300
 4288SOL     OW13263   5.425   1.791   5.251 -0.3278 -0.5600  0.6844
 4288SOL    HW113264   5.407   1.884   5.239 -0.1578 -0.5484  0.5126
 4288SOL    HW213265   5.391   1.750   5.171  0.9993 -0.4607  0.0581
 4289SOL     OW13266   3.620   0.767   4.108 -0.5430 -0.0688 -0.1582
 4289SOL    HW113267   3.696   0.810   4.069  2.1542 -1.9213  2.6478
 4289SOL    HW213268   3.614   0.683   4.062 -1.5140  0.4022 -0.9453
 4290SOL     OW13269   1.480   0.701   4.963  0.3429 -0.2513  0.1897
 4290SOL    HW113270   1.532   0.628   4.998  2.2835  1.6657  1.6036
 4290SOL    HW213271   1.541   0.774   4.962 -2.1252  1.9825  1.1518
 4291SOL     OW13272   1.650   4.048   2.862  0.0438 -0.0140 -0.5529
 4291SOL    HW113273   1.668   3.996   2.784  0.4745 -1.1327  0.2587
 4291SOL    HW213274   1.622   3.984   2.927  0.8328  0.7260  0.5491
 4292SOL     OW13275   5.275   1.324   3.236  0.1722 -0.4914 -0.0511
 4292SOL    HW113276   5.232   1.240   3.249 -1.8719  0.6920  1.4092
 4292SOL    HW213277   5.324   1.314   3.154 -2.7954 -2.0124 -1.7977
 4293SOL     OW13278   0.392   4.238   5.508 -0.1549  0.1942 -0.1608
 4293SOL    HW113279   0.379   4.332   5.495 -1.7051 -0.1211 -1.1793
 4293SOL    HW213280   0.414   4.230   5.600 -1.0300  1.4783  0.1942
 4294SOL     OW13281   0.222   0.054   0.835 -0.3732  0.1632  0.0251
 4294SOL    HW113282   0.313   0.083   0.826 -0.6459  0.9290 -0.4073
 4294SOL    HW213283   0.195   0.034   0.745  0.1103 -2.5023  0.3863
 4295SOL     OW13284   3.289   3.924   6.651  0.2197  0.3580 -0.1183
 4295SOL    HW113285   3.245   3.919   6.736 -0.8909 -0.0351 -0.6900
 4295SOL    HW213286   3.323   4.013   6.647 -2.7621  1.6005 -0.6793
 4296SOL     OW13287   4.128   0.238   5.022 -0.5387  0.1063  0.6889
 4296SOL    HW113288   4.036   0.266   5.022 -0.4887  0.3001 -0.4671
 4296SOL    HW213289   4.154   0.242   5.114 -1.7380 -0.1252  1.0606
 4297SOL     OW13290   1.868   3.768   5.833 -0.3094 -0.0345  0.2237
 4297SOL    HW113291   1.948   3.814   5.808  0.6220 -1.0032  1.3088
 4297SOL    HW213292   1.824   3.829   5.893  1.2409 -0.7202  2.1745
 4298SOL     OW13293   0.760   3.695   2.745 -0.0205 -0.1803  0.1849
 4298SOL    HW113294   0.799   3.771   2.788  1.8818 -1.0955  0.1636
 4298SOL    HW213295   0.667   3.699   2.769 -0.2486  2.7982 -0.8462
 4299SOL     OW13296   0.227   4.352   4.280  0.2386  0.5667  0.8232
 4299SOL    HW113297   0.240   4.434   4.329  1.0739  0.4160  0.8744
 4299SOL    HW213298   0.147   4.366   4.231 -0.0879  1.0982  1.4835
 4300SOL     OW13299   6.471   1.977   1.780 -0.6089 -0.1520  0.0129
 4300SOL    HW113300   6.398   1.928   1.740  0.4660 -1.5007 -0.3663
 4300SOL    HW213301   6.451   1.977   1.874 -2.2949  1.5778 -0.2821
 4301SOL     OW13302   2.243   6.420   0.451 -0.2201 -0.5764 -0.5053
 4301SOL    HW113303   2.208   6.433   0.363 -0.5840 -2.0774 -0.6225
 4301SOL    HW213304   2.178   6.365   0.494 -0.9036  1.5440  1.3080
 4302SOL     OW13305   6.718   2.295   2.343 -0.6962  0.2051  0.1122
 4302SOL    HW113306   6.776   2.316   2.417  0.0434  0.5873 -0.5595
 4302SOL    HW213307   6.681   2.379   2.316 -0.7866  0.0991 -0.0956
 4303SOL     OW13308   0.290   3.722   3.668  0.1096  0.4930 -0.2854
 4303SOL    HW113309   0.217   3.668   3.636 -0.7970  0.4328  1.7150
 4303SOL    HW213310   0.252   3.771   3.741  1.3523  2.6277 -0.9989
 4304SOL     OW13311   0.426   0.170   2.507  0.6739 -0.6027  0.1996
 4304SOL    HW113312   0.446   0.239   2.444  0.7999 -0.1411  0.7333
 4304SOL    HW213313   0.332   0.156   2.500  0.6893 -0.5567 -0.0921
 4305SOL     OW13314   5.742   6.422   2.501 -0.1447  0.5699  0.1122
 4305SOL    HW113315   5.784   6.360   2.560 -0.7923  1.2228  1.2921
 4305SOL    HW213316   5.731   6.373   2.419  3.2834  0.4877 -0.4518
 4306SOL     OW13317   1.923   6.476   4.406 -0.4472  0.1550  0.0809
 4306SOL    HW113318   1.988   6.536   4.443  0.9228 -0.9519 -0.4386
 4306SOL    HW213319   1.908   6.411   4.474 -1.2956  0.5889  0.3251
 4307SOL     OW13320   3.949   6.736   5.205 -0.3011 -0.1290 -0.3423
 4307SOL    HW113321   4.037   6.738   5.242 -0.6157  0.1628  0.4152
 4307SOL    HW213322   3.921   6.827   5.203 -1.3139 -0.3624  1.2646
 4308SOL     OW13323   1.086   3.897   1.847  0.5612  0.4822  0.2549
 4308SOL    HW113324   1.167   3.940   1.872 -0.2533  1.1417  1.9197
 4308SOL    HW213325   1.107   3.852   1.766  2.1913  1.8104 -0.1263
 4309SOL     OW13326   1.252   6.112   6.092  0.0980  0.1405 -0.5696
 4309SOL    HW113327   1.193   6.124   6.167  0.6141 -2.0659  0.2566
 4309SOL    HW213328   1.337   6.146   6.123  0.2765 -0.6408 -0.1793
 4310SOL     OW13329   1.789   3.769   4.456 -0.0266  0.4566 -0.1694
 4310SOL    HW113330   1.759   3.679   4.445 -1.0469  0.7225  0.3535
 4310SOL    HW213331   1.725   3.822   4.409  0.5648  0.9215 -0.4720
 4311SOL     OW13332   5.205   0.828   2.675 -0.0665  0.2136  1.0699
 4311SOL    HW113333   5.246   0.909   2.644  0.9504 -0.1071  1.5511
 4311SOL    HW213334   5.122   0.857   2.715 -0.4652  0.8341 -0.1579
 4312SOL     OW13335   3.229   3.716   2.812  0.0609  0.1274 -0.2963
 4312SOL    HW113336   3.216   3.810   2.829 -0.9724  0.4663 -2.5809
 4312SOL    HW213337   3.153   3.690   2.760  0.3550 -1.9943  0.2617
 4313SOL     OW13338   0.810   5.452   6.535 -0.4824 -0.0475 -0.1873
 4313SOL    HW113339   0.890   5.447   6.588 -0.1041  0.6061 -0.6720
 4313SOL    HW213340   0.742   5.481   6.595 -0.2160 -0.0131  0.0999
 4314SOL     OW13341   6.038   1.291   2.535  0.6952 -0.8990 -0.5462
 4314SOL    HW113342   6.087   1.291   2.453 -0.3019 -1.4725 -1.1650
 4314SOL    HW213343   6.057   1.205   2.574  1.1781 -0.6219 -0.1748
 4315SOL     OW13344   2.269   6.305   4.776 -0.3860  0.4453  0.1459
 4315SOL    HW113345   2.347   6.292   4.722 -0.5692 -0.7247  0.1386
 4315SOL    HW213346   2.231   6.387   4.744  0.1811  0.3992 -0.6679
 4316SOL     OW13347   2.479   4.283   1.287  0.1051 -0.3880  0.1227
 4316SOL    HW113348   2.408   4.235   1.329  0.8528 -1.4591  0.2354
 4316SOL    HW213349   2.554   4.269   1.345  0.9304 -1.1268 -1.0749
 4317SOL     OW13350   5.175   6.053   5.452 -0.1219  0.0294 -0.5272
 4317SOL    HW113351   5.170   6.123   5.386 -1.5290 -0.0006 -0.4843
 4317SOL    HW213352   5.089   6.011   5.448  0.9292 -2.2268 -1.1014
 4318SOL     OW13353   1.816   0.655   3.052  0.2412  0.3908  0.1516
 4318SOL    HW113354   1.836   0.568   3.086  1.5314  1.1892  1.5696
 4318SOL    HW213355   1.722   0.667   3.069  0.4236 -0.0492  1.5949
 4319SOL     OW13356   6.034   0.409   6.379  0.1134 -0.8200 -0.5172
 4319SOL    HW113357   5.966   0.444   6.322 -0.4150 -0.5052  0.2902
 4319SOL    HW213358   6.010   0.317   6.392  0.5723 -1.0606 -1.2735
 4320SOL     OW13359   6.312   5.909   4.631  0.4725 -0.7576  0.1103
 4320SOL    HW113360   6.272   5.979   4.684  1.2000 -0.6391  0.5185
 4320SOL    HW213361   6.322   5.947   4.544  1.4073 -0.1249  0.4736
 4321SOL     OW13362   5.917   1.998   4.308  0.1688 -0.2354  0.4935
 4321SOL    HW113363   5.904   2.090   4.287  3.0206  0.3729  1.0377
 4321SOL    HW213364   5.881   1.951   4.232 -0.8413  1.3011 -0.0321
 4322SOL     OW13365   3.060   4.554   1.096  0.2064 -0.0588  0.5809
 4322SOL    HW113366   2.983   4.572   1.043  0.4669  1.5749  0.7216
 4322SOL    HW213367   3.101   4.639   1.110  0.7539 -0.5879  2.4787
 4323SOL     OW13368   0.824   2.657   0.659 -0.2421  0.2062  0.1033
 4323SOL    HW113369   0.813   2.604   0.580 -0.0348 -0.7253  0.6801
 4323SOL    HW213370   0.919   2.667   0.669 -0.2807  0.7108 -0.0133
 4324SOL     OW13371   6.210   4.502   4.832  0.1530  0.7175 -0.1289
 4324SOL    HW113372   6.258   4.562   4.890 -0.2368  0.3899  0.5334
 4324SOL    HW213373   6.276   4.439   4.803 -0.0889 -0.4241  1.6938
 4325SOL     OW13374   6.203   6.382   1.006 -0.6949  0.0740 -0.3086
 4325SOL    HW113375   6.210   6.384   0.910 -1.5178  1.0355 -0.3732
 4325SOL    HW213376   6.122   6.334   1.023 -0.6601  0.0849 -0.1075
 4326SOL     OW13377   1.570   3.698   2.864 -0.2308 -0.5730  0.1053
 4326SOL    HW113378   1.483   3.711   2.825 -0.4132 -0.5193  0.5229
 4326SOL    HW213379   1.595   3.610   2.837 -0.0539 -0.2797 -0.7054
 4327SOL     OW13380   2.470   5.619   3.889 -0.4258  0.3505 -0.3099
 4327SOL    HW113381   2.431   5.707   3.890 -0.8693  0.1929 -2.0126
 4327SOL    HW213382   2.438   5.579   3.970 -0.7445  1.5285  0.1782
 4328SOL     OW13383   6.015   6.093   6.366 -0.2868  0.0264 -0.0352
 4328SOL    HW113384   5.934   6.052   6.395 -0.5208  0.0496 -0.6411
 4328SOL    HW213385   6.016   6.178   6.410 -0.5722  0.0104  0.0011
 4329SOL     OW13386   0.599   1.237   2.126 -0.2737 -0.3818 -0.7002
 4329SOL    HW113387   0.688   1.233   2.159 -0.8599 -1.4211  0.8856
 4329SOL    HW213388   0.606   1.207   2.035  1.0660  0.2635 -0.8333
 4330SOL     OW13389   3.198   6.507   2.630  0.4363 -0.1517 -0.3757
 4330SOL    HW113390   3.224   6.599   2.629  2.9755 -0.7836 -0.5892
 4330SOL    HW213391   3.163   6.493   2.719 -1.6569  1.3506 -0.8891
 4331SOL     OW13392   5.268   0.727   5.279 -0.0100 -0.4939 -0.5921
 4331SOL    HW113393   5.262   0.802   5.220  0.7821 -1.5867 -2.1378
 4331SOL    HW213394   5.362   0.714   5.292 -0.1586 -0.6963  0.3942
 4332SOL     OW13395   0.043   5.787   4.210  0.1523  0.5106  0.3663
 4332SOL    HW113396   0.037   5.767   4.116  0.2986  3.8482 -0.4660
 4332SOL    HW213397  -0.047   5.781   4.241 -0.2526  1.5741 -0.5410
 4333SOL     OW13398   1.884   1.346   2.271 -0.3736  0.0044  0.3425
 4333SOL    HW113399   1.800   1.386   2.248 -0.1728 -0.7566 -2.0565
 4333SOL    HW213400   1.889   1.268   2.216  1.3918 -0.6264  1.3072
 4334SOL     OW13401   0.259   3.298   3.615 -0.2863  0.4041  0.3530
 4334SOL    HW113402   0.354   3.288   3.610 -0.4344 -2.5546  1.3143
 4334SOL    HW213403   0.238   3.288   3.708 -1.6389 -0.6759 -0.0326
 4335SOL     OW13404   3.058   5.336   5.833 -0.6244 -0.3804  0.0113
 4335SOL    HW113405   3.048   5.429   5.813 -0.1056  0.0305  1.5171
 4335SOL    HW213406   3.152   5.323   5.842 -0.5684 -1.4190 -1.7243
 4336SOL     OW13407   3.345   0.241   4.004  0.1416 -0.0993  0.5473
 4336SOL    HW113408   3.417   0.303   3.994  0.6825 -0.2368  2.9308
 4336SOL    HW213409   3.345   0.219   4.098 -2.4378 -0.8057  0.4615
 4337SOL     OW13410   1.956   0.308   0.586 -0.1316  0.3635  0.5081
 4337SOL    HW113411   1.940   0.378   0.649 -2.9714 -0.5019  0.8734
 4337SOL    HW213412   1.891   0.241   0.607  2.5923 -2.5857  0.3618
 4338SOL     OW13413   2.453   4.408   0.788  0.3087  0.4619  0.2231
 4338SOL    HW113414   2.389   4.345   0.821  0.2159 -0.6140 -1.8145
 4338SOL    HW213415   2.410   4.447   0.712  0.7275  2.3840  0.9201
 4339SOL     OW13416   3.440   2.147   1.493  0.1578 -0.5991 -0.2898
 4339SOL    HW113417   3.404   2.223   1.447 -0.5970 -0.4511  0.5139
 4339SOL    HW213418   3.534   2.164   1.499  0.0667  0.0135 -0.5852
 4340SOL     OW13419   2.572   3.451   6.407 -0.0463 -0.1614  0.5737
 4340SOL    HW113420   2.504   3.456   6.340  0.9116  0.5522 -0.3860
 4340SOL    HW213421   2.534   3.398   6.477 -0.9355 -1.2725 -0.7151
 4341SOL     OW13422   4.626   0.432   1.636  0.4941  0.1761 -0.1004
 4341SOL    HW113423   4.558   0.471   1.691 -0.0839 -1.6379  0.5210
 4341SOL    HW213424   4.580   0.399   1.559  0.7979 -0.2684 -0.0942
 4342SOL     OW13425   1.562   0.931   6.176 -0.2948  0.1417 -0.2572
 4342SOL    HW113426   1.569   0.940   6.081 -0.4080 -0.7193 -0.3545
 4342SOL    HW213427   1.643   0.969   6.210 -0.3795  0.7127 -0.6745
 4343SOL     OW13428   3.099   5.387   6.717 -0.0471 -0.3639 -0.2747
 4343SOL    HW113429   3.010   5.405   6.746  0.4172 -1.0677  1.7365
 4343SOL    HW213430   3.151   5.384   6.797  1.6709 -0.7136 -1.3311
 4344SOL     OW13431   2.468   4.045   6.718 -0.0283 -0.2265 -0.7521
 4344SOL    HW113432   2.469   4.140   6.725 -0.4651 -0.3180  0.9071
 4344SOL    HW213433   2.378   4.023   6.693 -0.9444 -0.3250  2.2055
 4345SOL     OW13434   4.128   6.657   6.591 -0.4342  0.1393 -0.3167
 4345SOL    HW113435   4.109   6.573   6.632 -2.4158  0.3562 -0.6847
 4345SOL    HW213436   4.206   6.641   6.537  1.0550 -0.6384  1.9120
 4346SOL     OW13437   4.282   0.075   6.250 -0.5933 -0.5628  0.0313
 4346SOL    HW113438   4.303   0.028   6.169 -0.2001  0.7388 -0.6518
 4346SOL    HW213439   4.367   0.093   6.290 -0.4700  2.0556 -1.1961
 4347SOL     OW13440   3.156   3.207   1.243  0.2631 -0.6953  0.8912
 4347SOL    HW113441   3.065   3.237   1.251  0.0070 -1.2370  0.0106
 4347SOL    HW213442   3.207   3.274   1.290 -0.3660  0.8055 -0.4895
 4348SOL     OW13443   6.431   2.583   1.551 -0.0854 -0.2109 -0.3930
 4348SOL    HW113444   6.345   2.625   1.546 -0.9986 -2.0623 -1.6687
 4348SOL    HW213445   6.438   2.553   1.641 -0.0058  1.4092  0.1725
 4349SOL     OW13446   1.579   4.397   3.646  0.3459  0.1193 -0.5146
 4349SOL    HW113447   1.581   4.307   3.679  1.5525  0.2857 -0.0747
 4349SOL    HW213448   1.486   4.420   3.642  0.0945 -0.4345  1.3639
 4350SOL     OW13449   1.577   5.400   2.609  0.2558  0.0625 -0.2243
 4350SOL    HW113450   1.546   5.333   2.669 -0.8609  1.2052  0.5428
 4350SOL    HW213451   1.537   5.377   2.525 -1.0136  0.3483  0.2822
 4351SOL     OW13452   1.765   3.798   4.112 -0.0345  0.7873  0.1871
 4351SOL    HW113453   1.766   3.714   4.068 -0.3782  0.4572  0.7962
 4351SOL    HW213454   1.838   3.794   4.174 -0.7839  0.4664  1.0655
 4352SOL     OW13455   3.619   5.118   0.650  0.3723 -0.0145 -0.1169
 4352SOL    HW113456   3.599   5.130   0.743  0.4331  0.1791 -0.1273
 4352SOL    HW213457   3.619   5.207   0.614 -1.2463 -0.1905 -0.6310
 4353SOL     OW13458   3.816   4.600   5.992  0.2842 -0.0614 -0.9412
 4353SOL    HW113459   3.898   4.568   6.029  0.0736 -0.2963 -0.6677
 4353SOL    HW213460   3.749   4.545   6.032  0.0527 -0.3505 -1.7168
 4354SOL     OW13461   4.638   2.419   3.784  0.0701 -0.2878  0.0859
 4354SOL    HW113462   4.609   2.387   3.869 -1.0745  1.5674  0.4601
 4354SOL    HW213463   4.683   2.501   3.803  0.2968 -0.1282 -1.0403
 4355SOL     OW13464   2.576   5.998   5.185  0.2155  0.4788  0.0134
 4355SOL    HW113465   2.519   6.000   5.109  0.9493  1.9120 -0.5388
 4355SOL    HW213466   2.615   6.085   5.189  3.1305 -0.6739 -0.2383
 4356SOL     OW13467   5.255   2.842   3.029 -0.1366 -0.2197 -0.2533
 4356SOL    HW113468   5.169   2.813   2.997  1.2595 -1.9000 -2.8561
 4356SOL    HW213469   5.271   2.924   2.982  0.5390 -1.0230 -1.4827
 4357SOL     OW13470   5.794   6.042   5.697 -0.6157  0.0890 -0.2672
 4357SOL    HW113471   5.852   5.993   5.755 -2.8548 -3.3928 -0.6733
 4357SOL    HW213472   5.773   6.121   5.746  0.1073 -1.1939  2.3112
 4358SOL     OW13473   2.692   0.598   6.634  0.0679 -0.0376  0.2413
 4358SOL    HW113474   2.631   0.548   6.580 -0.6114  1.9347 -0.9295
 4358SOL    HW213475   2.777   0.559   6.617 -0.3312 -0.3266 -1.2535
 4359SOL     OW13476   2.930   4.745   6.295 -0.1555  0.8605 -0.1587
 4359SOL    HW113477   2.913   4.830   6.334 -2.8729 -0.0107  0.7851
 4359SOL    HW213478   2.996   4.705   6.353  2.3000  2.7736 -1.4642
 4360SOL     OW13479   3.309   0.894   5.669  0.4451 -0.3350  0.4729
 4360SOL    HW113480   3.264   0.977   5.655  0.0769 -0.5789  0.1522
 4360SOL    HW213481   3.276   0.838   5.598  1.3911 -0.4645  0.1254
 4361SOL     OW13482   4.037   2.886   0.922  0.6374  0.1358 -0.1440
 4361SOL    HW113483   4.120   2.867   0.966 -0.5751 -1.4262  1.6065
 4361SOL    HW213484   3.988   2.939   0.984 -0.2791 -0.2346 -0.5415
 4362SOL     OW13485   6.606   0.371   4.676 -0.3982  0.1771 -0.4084
 4362SOL    HW113486   6.572   0.286   4.648  1.4751 -1.4473  1.9174
 4362SOL    HW213487   6.541   0.403   4.739  0.4004 -1.0705  1.0911
 4363SOL     OW13488   4.097   1.698   5.967  0.4836  0.2729 -0.1544
 4363SOL    HW113489   4.098   1.715   6.062 -1.1393 -0.1332 -0.0389
 4363SOL    HW213490   4.010   1.662   5.950  0.5312  0.8966 -1.9126
 4364SOL     OW13491   0.868   4.678   2.635  0.2318 -0.0251 -0.7336
 4364SOL    HW113492   0.882   4.584   2.623 -0.7818 -0.5670  1.7204
 4364SOL    HW213493   0.956   4.714   2.648  0.4869 -1.4290  2.6009
 4365SOL     OW13494   1.471   1.279   6.771 -0.4081 -0.4832 -0.2354
 4365SOL    HW113495   1.514   1.262   6.688 -1.0169  0.3639 -0.7368
 4365SOL    HW213496   1.397   1.218   6.773 -0.1403 -0.8058 -0.1120
 4366SOL     OW13497   2.792   6.403   0.924 -0.0511 -0.0003 -0.0728
 4366SOL    HW113498   2.840   6.484   0.906 -0.2308 -0.0987 -1.0095
 4366SOL    HW213499   2.766   6.411   1.016 -0.8531  1.4131 -0.3979
 4367SOL     OW13500   6.424   2.771   3.942  0.1724 -0.2479 -0.2632
 4367SOL    HW113501   6.442   2.775   3.848  0.1702  1.2646 -0.2258
 4367SOL    HW213502   6.488   2.831   3.981  0.4310 -1.1468  0.7570
 4368SOL     OW13503   0.567   5.290   0.531 -0.9583  0.0444 -0.2986
 4368SOL    HW113504   0.535   5.352   0.597 -1.6551  1.1870 -1.6519
 4368SOL    HW213505   0.520   5.209   0.548 -0.8428  0.2050  0.8319
 4369SOL     OW13506   4.927   1.269   2.241  0.6473  0.1738  0.0065
 4369SOL    HW113507   4.957   1.352   2.278 -0.0621 -0.2192  1.5214
 4369SOL    HW213508   4.870   1.295   2.168  2.8215  0.9468 -1.5245
 4370SOL     OW13509   4.524   0.111   2.405  0.1786 -0.2343 -0.0834
 4370SOL    HW113510   4.518   0.123   2.311  0.5260 -0.2373 -0.1090
 4370SOL    HW213511   4.576   0.032   2.417  0.2108 -0.1861  0.1097
 4371SOL     OW13512   2.388   0.278   4.732 -0.0121 -0.3143  0.2801
 4371SOL    HW113513   2.373   0.230   4.651 -1.7710  0.3870  0.1531
 4371SOL    HW213514   2.309   0.266   4.783  0.7544 -0.0847  1.5694
 4372SOL     OW13515   4.198   1.012   5.354  0.4663  0.0872 -0.1794
 4372SOL    HW113516   4.158   0.931   5.321 -1.7623  1.3321 -0.7367
 4372SOL    HW213517   4.215   0.994   5.447 -2.8780 -0.1118  0.5291
 4373SOL     OW13518   6.382   5.631   3.060  0.4476 -0.0146 -0.2779
 4373SOL    HW113519   6.320   5.697   3.092  0.3225 -0.3832  0.2610
 4373SOL    HW213520   6.406   5.661   2.972  2.6368  2.3868  0.9874
 4374SOL     OW13521   4.232   5.859   4.703 -0.0147 -0.2010  0.0653
 4374SOL    HW113522   4.218   5.871   4.609  0.5241  0.7224  0.0986
 4374SOL    HW213523   4.157   5.901   4.745 -1.0661 -1.9482  0.0258
 4375SOL     OW13524   0.290   3.237   1.244  0.2962  0.5851  0.2205
 4375SOL    HW113525   0.215   3.185   1.213  0.6644  0.5601 -0.6635
 4375SOL    HW213526   0.338   3.258   1.164  0.8775  1.1582  0.7187
 4376SOL     OW13527   5.484   3.194   3.231 -0.0004  0.4429 -0.4601
 4376SOL    HW113528   5.494   3.145   3.313 -0.8073 -1.3974 -1.4149
 4376SOL    HW213529   5.573   3.222   3.209  0.0388  2.7972  2.0374
 4377SOL     OW13530   2.775   1.915   6.068 -0.9832  0.2452  0.4866
 4377SOL    HW113531   2.751   1.861   6.143 -2.1260 -0.8456 -0.6179
 4377SOL    HW213532   2.692   1.932   6.023 -0.3855  1.3029 -0.2532
 4378SOL     OW13533   1.932   0.310   2.153  0.2030  0.2552  0.0712
 4378SOL    HW113534   2.011   0.256   2.157  0.7398  1.0706  2.5826
 4378SOL    HW213535   1.910   0.327   2.245 -1.6178  1.9091 -0.5858
 4379SOL     OW13536   4.382   2.711   1.780  0.2237  0.0537 -0.1041
 4379SOL    HW113537   4.306   2.660   1.753  0.2308 -0.0675  0.1058
 4379SOL    HW213538   4.393   2.692   1.873  0.5790 -0.0248 -0.1574
 4380SOL     OW13539   0.449   1.054   3.569  0.7169 -0.4657  0.1689
 4380SOL    HW113540   0.489   1.141   3.558 -0.2692  0.1486  1.1924
 4380SOL    HW213541   0.355   1.069   3.556  0.5528 -1.4249  0.1747
 4381SOL     OW13542   1.142   6.491   3.590  0.2333 -0.1853 -0.4478
 4381SOL    HW113543   1.208   6.457   3.651  0.5921  0.7082 -0.3148
 4381SOL    HW213544   1.072   6.523   3.646  0.3033  0.1054 -0.5240
 4382SOL     OW13545   6.324   5.446   3.249  0.1178 -0.1611  0.2951
 4382SOL    HW113546   6.360   5.519   3.199 -0.9236  1.0152  1.2131
 4382SOL    HW213547   6.245   5.421   3.202 -0.2300  0.1745  0.6947
 4383SOL     OW13548   2.958   5.986   2.861  0.3823 -0.3989  0.0218
 4383SOL    HW113549   2.990   6.045   2.929 -1.6968 -1.0997  1.7306
 4383SOL    HW213550   2.943   6.043   2.785 -0.4501  1.1022  1.2438
 4384SOL     OW13551   5.180   1.917   4.975  0.0110  0.0168  0.2577
 4384SOL    HW113552   5.228   1.970   5.039  0.4188 -0.5865  0.4527
 4384SOL    HW213553   5.090   1.948   4.981 -0.0155 -0.2714  1.3606
 4385SOL     OW13554   0.153   3.803   3.912  0.2537 -0.3640  0.7119
 4385SOL    HW113555   0.193   3.802   3.998 -1.1346 -1.5303  1.3911
 4385SOL    HW213556   0.151   3.895   3.887  0.5177  0.0086  2.0008
 4386SOL     OW13557   6.164   1.392   5.428  0.0367 -0.2242 -0.7224
 4386SOL    HW113558   6.147   1.300   5.446 -1.9190 -0.0603 -1.4554
 4386SOL    HW213559   6.139   1.404   5.337 -1.6770  1.4039 -0.1193
 4387SOL     OW13560   5.140   3.036   2.363 -0.6750 -0.6469  0.1554
 4387SOL    HW113561   5.177   3.086   2.436  0.8113 -2.3591  0.6474
 4387SOL    HW213562   5.215   3.018   2.306 -1.3258 -1.5983 -0.4287
 4388SOL     OW13563   2.050   5.230   6.211 -0.1776 -0.0910  0.1131
 4388SOL    HW113564   2.047   5.291   6.284 -1.7120 -0.0488  0.0488
 4388SOL    HW213565   2.009   5.277   6.138 -2.0930 -1.4272  0.2687
 4389SOL     OW13566   1.346   6.665   2.006 -0.1737 -0.4195  0.0566
 4389SOL    HW113567   1.354   6.730   2.077 -0.0455  0.0337 -0.3683
 4389SOL    HW213568   1.382   6.585   2.043  0.7977  0.0668  0.1788
 4390SOL     OW13569   2.728   5.414   0.630  0.5828 -0.5192  0.0781
 4390SOL    HW113570   2.686   5.500   0.620  1.1661 -0.3376 -1.0206
 4390SOL    HW213571   2.809   5.432   0.677  0.2031 -0.6393  0.7973
 4391SOL     OW13572   4.306   4.356   0.685  0.3437 -0.1463 -0.7431
 4391SOL    HW113573   4.221   4.340   0.727  1.0877 -1.0875  0.4661
 4391SOL    HW213574   4.304   4.448   0.661 -0.4620  0.2147  0.6220
 4392SOL     OW13575   6.119   0.896   2.916  0.2103  0.7574  1.2649
 4392SOL    HW113576   6.172   0.916   2.993  1.6434 -1.0520  0.8357
 4392SOL    HW213577   6.110   0.801   2.918 -0.7436  0.7903 -0.1569
 4393SOL     OW13578   5.090   3.295   4.582  0.7748 -0.0367  0.2938
 4393SOL    HW113579   5.056   3.347   4.654  2.4349  0.8838  0.4669
 4393SOL    HW213580   5.083   3.204   4.612  0.3490  0.2626  1.1166
 4394SOL     OW13581   4.488   0.965   2.293  0.8021 -0.3711 -0.4795
 4394SOL    HW113582   4.499   0.872   2.313  1.9264  0.2982  2.3983
 4394SOL    HW213583   4.396   0.983   2.312  1.0160 -0.5229  0.7401
 4395SOL     OW13584   1.547   3.134   2.896  0.0386 -0.4867  0.0381
 4395SOL    HW113585   1.477   3.086   2.851 -0.0321 -0.6536  0.3233
 4395SOL    HW213586   1.626   3.083   2.879  0.0452 -0.4429 -0.0620
 4396SOL     OW13587   1.673   0.743   4.420  0.0704 -0.5376 -0.4612
 4396SOL    HW113588   1.669   0.825   4.371 -1.3478 -0.3242 -0.0446
 4396SOL    HW213589   1.610   0.755   4.491  0.2676 -1.7722 -0.0574
 4397SOL     OW13590   0.740   0.530   3.507 -0.0286  0.1755 -0.3055
 4397SOL    HW113591   0.786   0.614   3.515 -2.5723  1.6418  0.1769
 4397SOL    HW213592   0.685   0.541   3.429 -2.1124 -0.1040  1.0670
 4398SOL     OW13593   1.371   1.975   6.181 -0.0627  0.0224 -0.3033
 4398SOL    HW113594   1.353   2.065   6.208 -1.0529  0.3829 -2.0193
 4398SOL    HW213595   1.459   1.958   6.214  1.0711  2.4180 -1.8096
 4399SOL     OW13596   6.205   5.810   3.176 -0.3036 -0.1026  0.2305
 4399SOL    HW113597   6.212   5.797   3.271  0.9870 -0.4732  0.1115
 4399SOL    HW213598   6.187   5.903   3.166 -1.4422 -0.2427  0.8639
 4400SOL     OW13599   3.606   0.565   2.343 -0.7239 -0.2575 -0.1734
 4400SOL    HW113600   3.697   0.562   2.314 -0.6967 -0.6351 -0.0567
 4400SOL    HW213601   3.559   0.606   2.270 -0.4788 -0.1496 -0.2730
 4401SOL     OW13602   4.644   3.139   6.420 -0.4632  0.5302  0.6792
 4401SOL    HW113603   4.586   3.070   6.388 -1.2130  1.3495  0.2270
 4401SOL    HW213604   4.589   3.191   6.478  0.4607 -0.0177  2.0903
 4402SOL     OW13605   1.614   2.298   5.606  0.0071 -0.2473 -0.0182
 4402SOL    HW113606   1.653   2.244   5.538 -0.1942  1.4768 -1.5846
 4402SOL    HW213607   1.657   2.383   5.596 -1.3794  0.5873  0.7658
 4403SOL     OW13608   1.658   5.602   0.613  0.4231 -0.0541 -0.2709
 4403SOL    HW113609   1.655   5.553   0.531  1.0808 -1.5843  0.5813
 4403SOL    HW213610   1.565   5.615   0.636  0.2370  0.1545 -1.0934
 4404SOL     OW13611   0.330   1.592   0.503  0.4682 -0.1918 -0.1571
 4404SOL    HW113612   0.251   1.576   0.452 -0.6594 -1.7716  1.9418
 4404SOL    HW213613   0.362   1.505   0.526 -0.3536  0.3769  3.6457
 4405SOL     OW13614   2.719   2.132   0.005  0.1258  0.9303  0.4486
 4405SOL    HW113615   2.720   2.189  -0.073  3.2007  0.3500 -0.0727
 4405SOL    HW213616   2.627   2.129   0.031 -0.9401  1.7760 -2.7046
 4406SOL     OW13617   5.102   5.410   3.860 -0.2077 -1.0953 -0.2179
 4406SOL    HW113618   5.141   5.364   3.785 -0.4440 -1.5112 -0.0913
 4406SOL    HW213619   5.008   5.410   3.842 -0.2513 -1.0639  0.0035
 4407SOL     OW13620   4.358   5.700   3.554 -0.1318 -0.1464  0.4397
 4407SOL    HW113621   4.395   5.680   3.468  1.2425  3.1194  0.1239
 4407SOL    HW213622   4.266   5.717   3.537 -0.6582 -2.7626  0.2638
 4408SOL     OW13623   2.475   3.261   5.070  0.0854  0.2051 -0.1390
 4408SOL    HW113624   2.403   3.322   5.085  0.5941  0.4909  1.2644
 4408SOL    HW213625   2.435   3.174   5.078 -0.0291  0.3595  1.2072
 4409SOL     OW13626   1.735   0.324   6.283  0.2074  0.1160  0.2231
 4409SOL    HW113627   1.730   0.237   6.244  1.3547  0.4996 -0.8478
 4409SOL    HW213628   1.780   0.377   6.217 -2.5911  2.1395 -0.1983
 4410SOL     OW13629   2.969   0.334   2.081  0.2824  0.4128 -0.0886
 4410SOL    HW113630   2.963   0.246   2.117 -2.0023  1.2128  1.7512
 4410SOL    HW213631   3.062   0.346   2.062  0.6988 -2.2403 -0.0942
 4411SOL     OW13632   2.025   2.651   4.147 -0.0629  0.3498  0.7566
 4411SOL    HW113633   1.984   2.571   4.114  0.2853  0.3498  0.3082
 4411SOL    HW213634   1.974   2.674   4.224  0.3090 -0.7503  1.3680
 4412SOL     OW13635   6.475   4.540   6.149  0.2568 -0.1280 -0.3152
 4412SOL    HW113636   6.439   4.455   6.174  2.5645 -0.8140  0.9212
 4412SOL    HW213637   6.501   4.528   6.057 -2.7362  0.4973 -1.3696
 4413SOL     OW13638   2.546   1.081   2.942 -0.1919 -0.0829  0.7548
 4413SOL    HW113639   2.637   1.098   2.919 -0.3223  0.5715  0.6916
 4413SOL    HW213640   2.546   1.068   3.036  0.4138 -3.1905  0.4304
 4414SOL     OW13641   0.401   3.060   0.030 -0.3443  0.2223  1.2297
 4414SOL    HW113642   0.326   3.042   0.087  0.8683 -1.5291  2.3635
 4414SOL    HW213643   0.397   2.991  -0.037 -0.2789  0.7153  0.7060
 4415SOL     OW13644   1.588   5.178   2.832 -0.1058  0.3634 -0.1024
 4415SOL    HW113645   1.562   5.253   2.885 -0.7291 -0.0556  0.2044
 4415SOL    HW213646   1.646   5.127   2.889  0.8323  0.9329 -0.5358
 4416SOL     OW13647   3.417   1.730   3.713 -0.4069 -0.0853 -0.4529
 4416SOL    HW113648   3.501   1.688   3.695 -0.7759 -1.4761  0.8411
 4416SOL    HW213649   3.365   1.662   3.756 -2.0705  0.8626 -0.8826
 4417SOL     OW13650   5.436   4.456   0.987 -0.8056 -0.4261  0.4352
 4417SOL    HW113651   5.437   4.389   1.055  2.5791 -1.2203 -0.1899
 4417SOL    HW213652   5.528   4.463   0.959 -0.7819  4.7678  0.7422
 4418SOL     OW13653   4.377   2.669   2.801  0.2774  0.9251  0.0715
 4418SOL    HW113654   4.370   2.594   2.860 -1.4260  2.2086  1.5854
 4418SOL    HW213655   4.422   2.736   2.852 -0.6130  1.8361 -0.3059
 4419SOL     OW13656   0.995   5.151   2.475  0.6624 -0.2853  0.3365
 4419SOL    HW113657   0.979   5.238   2.438 -1.2119 -0.1158  1.4022
 4419SOL    HW213658   0.916   5.132   2.527  0.4096 -3.1773 -0.9136
 4420SOL     OW13659   3.394   0.626   6.694 -0.0307 -0.0276 -0.2997
 4420SOL    HW113660   3.300   0.629   6.709  0.0583 -0.7667  0.5085
 4420SOL    HW213661   3.403   0.606   6.601 -0.6670 -0.0087 -0.3724
 4421SOL     OW13662   6.761   0.687   1.838 -0.1330 -0.1103 -0.8034
 4421SOL    HW113663   6.716   0.767   1.813 -0.3885 -0.3663 -1.1769
 4421SOL    HW213664   6.777   0.641   1.756  0.7744 -0.0473 -0.6718
 4422SOL     OW13665   0.665   4.453   1.312 -0.0027 -0.1452 -0.1741
 4422SOL    HW113666   0.653   4.484   1.401 -0.5943 -0.3244 -0.1855
 4422SOL    HW213667   0.579   4.462   1.271 -0.9125 -3.9383  0.4948
 4423SOL     OW13668   2.607   3.813   0.658  0.3646 -0.1992  0.2789
 4423SOL    HW113669   2.537   3.832   0.720  0.5986  2.2806 -0.1168
 4423SOL    HW213670   2.666   3.754   0.706  0.0013  0.7911  2.0599
 4424SOL     OW13671   2.746   3.326   0.003  0.1938  0.2234  0.2966
 4424SOL    HW113672   2.735   3.373   0.086  2.0496 -1.4609  1.5967
 4424SOL    HW213673   2.738   3.234   0.026 -0.7584 -0.2461 -1.7183
 4425SOL     OW13674   1.890   5.585   3.636 -0.2522 -0.1595  0.1472
 4425SOL    HW113675   1.795   5.582   3.628 -0.2076  0.0958 -0.6956
 4425SOL    HW213676   1.919   5.621   3.552  0.3166  3.9548  1.8724
 4426SOL     OW13677   0.181   0.172   2.782  0.2522 -0.5991  0.4456
 4426SOL    HW113678   0.239   0.140   2.850 -1.2693 -1.3515  1.4478
 4426SOL    HW213679   0.158   0.093   2.732  0.9525 -0.1334 -0.6399
 4427SOL     OW13680   1.611   5.111   4.456  0.2081 -0.3147 -0.0961
 4427SOL    HW113681   1.571   5.100   4.370 -0.8175 -0.5995  0.3986
 4427SOL    HW213682   1.547   5.075   4.517  0.0522  1.6336  0.9633
 4428SOL     OW13683   2.807   5.486   5.962 -0.1981 -0.0083 -0.4350
 4428SOL    HW113684   2.797   5.579   5.942  0.6745  0.5576  1.5348
 4428SOL    HW213685   2.901   5.472   5.967 -0.3274 -0.9622 -0.5311
 4429SOL     OW13686   1.586   6.526   0.754 -0.4069 -0.4643 -0.1440
 4429SOL    HW113687   1.624   6.593   0.811 -1.5815 -1.1301  1.5192
 4429SOL    HW213688   1.558   6.573   0.676  1.5064  0.4337 -0.3510
 4430SOL     OW13689   3.949   6.053   5.686 -0.0332  0.3492  0.0069
 4430SOL    HW113690   3.887   6.040   5.615 -0.2446 -0.4333  0.3217
 4430SOL    HW213691   4.035   6.055   5.644 -0.2747  1.7632 -0.4673
 4431SOL     OW13692   5.506   3.821   6.524  0.0766 -0.1166  0.1898
 4431SOL    HW113693   5.531   3.859   6.608  1.1510 -0.6969  0.1416
 4431SOL    HW213694   5.548   3.736   6.522 -1.1036 -0.7110 -0.3355
 4432SOL     OW13695   3.931   4.147   2.516 -0.4206  0.3592 -0.2501
 4432SOL    HW113696   3.961   4.227   2.473 -0.5717  0.1766 -0.6990
 4432SOL    HW213697   3.990   4.138   2.591  0.0219  0.5399 -0.5643
 4433SOL     OW13698   4.979   3.207   2.207  0.3397 -0.4517 -0.0945
 4433SOL    HW113699   5.021   3.290   2.230 -2.6135  0.4574  2.7125
 4433SOL    HW213700   5.031   3.141   2.253  1.9074 -0.0850 -1.2533
 4434SOL     OW13701   0.643   4.806   0.923  0.2626  0.0365 -0.5131
 4434SOL    HW113702   0.631   4.899   0.906 -0.6970 -0.1201 -0.7818
 4434SOL    HW213703   0.625   4.764   0.838  3.3460 -0.2393 -1.1250
 4435SOL     OW13704   1.813   4.992   3.402  0.2155  0.5546 -0.0765
 4435SOL    HW113705   1.842   5.061   3.462  1.5594 -0.4668  0.5205
 4435SOL    HW213706   1.894   4.962   3.360  0.1996 -2.5521  1.7740
 4436SOL     OW13707   5.489   2.809   6.505  0.6502  0.1231  0.1511
 4436SOL    HW113708   5.517   2.778   6.591 -1.3323  0.3850  0.9403
 4436SOL    HW213709   5.395   2.824   6.514 -0.3306 -2.8325 -2.9153
 4437SOL     OW13710   2.213   6.724   3.104 -0.0445 -0.2710  0.4291
 4437SOL    HW113711   2.213   6.628   3.096  0.3155 -0.3643  1.4442
 4437SOL    HW213712   2.257   6.741   3.187  0.9312  0.8390 -0.2946
 4438SOL     OW13713   5.666   1.989   2.664 -0.0945 -0.3015 -0.3768
 4438SOL    HW113714   5.737   2.052   2.680  1.1292 -1.5590 -0.6530
 4438SOL    HW213715   5.661   1.939   2.746  1.6557 -2.3800 -1.4170
 4439SOL     OW13716   5.145   6.538   2.394  0.0150 -0.2412  0.4629
 4439SOL    HW113717   5.086   6.471   2.360  0.5664 -0.2377 -0.5346
 4439SOL    HW213718   5.227   6.490   2.413  0.1594  0.0096  0.4761
 4440SOL     OW13719   0.397   1.833   6.581 -0.0881  0.4232 -0.2887
 4440SOL    HW113720   0.383   1.779   6.658 -0.6488 -0.8723 -1.2713
 4440SOL    HW213721   0.382   1.923   6.612  0.0943 -0.0336  1.1856
 4441SOL     OW13722   6.771   2.472   5.032  0.6334 -0.1331  0.0454
 4441SOL    HW113723   6.798   2.489   5.122 -1.1357  0.3813  0.5250
 4441SOL    HW213724   6.756   2.377   5.029 -0.2149 -0.0251  0.5802
 4442SOL     OW13725   6.574   6.316   2.592 -0.3871 -0.2700 -0.1122
 4442SOL    HW113726   6.655   6.274   2.622 -0.1333  0.4226  0.1998
 4442SOL    HW213727   6.539   6.256   2.526 -1.5038 -2.3683  2.2164
 4443SOL     OW13728   2.001   1.619   2.347 -0.2902 -0.6945 -0.0469
 4443SOL    HW113729   1.938   1.548   2.346 -0.0362 -0.9689  1.0690
 4443SOL    HW213730   2.079   1.583   2.304  0.1429 -1.4351  1.2717
 4444SOL     OW13731   0.462   0.117   6.285 -0.0729  0.2799 -0.0378
 4444SOL    HW113732   0.396   0.123   6.216  0.3598  1.4965 -0.3687
 4444SOL    HW213733   0.493   0.207   6.297  1.2196 -0.2015  0.4055
 4445SOL     OW13734   4.193   3.270   0.961  0.2869 -0.2785 -0.2219
 4445SOL    HW113735   4.122   3.332   0.940  1.1071  0.6151 -0.4490
 4445SOL    HW213736   4.169   3.234   1.046 -1.5710 -1.6974 -1.2828
 4446SOL     OW13737   3.284   1.802   2.409  0.6940  0.2213 -0.3432
 4446SOL    HW113738   3.236   1.819   2.490  0.7996  0.0641 -0.2478
 4446SOL    HW213739   3.363   1.856   2.416  1.4089 -0.8757  0.3070
 4447SOL     OW13740   0.209   1.173   4.890  0.2457  0.0664 -0.2511
 4447SOL    HW113741   0.185   1.112   4.959  0.2914 -0.3594 -0.6084
 4447SOL    HW213742   0.128   1.220   4.870  0.4013  0.7066  0.5961
 4448SOL     OW13743   6.153   3.518   0.249 -0.0658  0.0685 -0.6666
 4448SOL    HW113744   6.195   3.434   0.231 -0.5600 -0.3380  0.0214
 4448SOL    HW213745   6.217   3.567   0.300 -0.7778 -0.9665  1.3385
 4449SOL     OW13746   1.705   0.231   3.743  0.7532  0.4010  0.2171
 4449SOL    HW113747   1.617   0.199   3.763  0.3020  0.4144 -1.5821
 4449SOL    HW213748   1.764   0.167   3.784 -0.0403  0.7865  2.0698
 4450SOL     OW13749   3.581   5.563   2.203 -0.6017  0.1824  0.0642
 4450SOL    HW113750   3.633   5.487   2.230 -1.0930  0.1109  0.8478
 4450SOL    HW213751   3.635   5.638   2.225 -0.4142  0.0820 -0.0496
 4451SOL     OW13752   5.818   3.185   5.636 -0.5314 -0.0058  0.4193
 4451SOL    HW113753   5.822   3.270   5.592 -0.8234 -0.4289 -0.4475
 4451SOL    HW213754   5.789   3.205   5.725  1.4647  1.0265  0.9053
 4452SOL     OW13755   1.874   0.263   5.259  0.3742  0.2980  0.1756
 4452SOL    HW113756   1.944   0.269   5.324  0.6950 -2.7067  0.2481
 4452SOL    HW213757   1.895   0.184   5.209 -1.1390  1.2148 -2.0723
 4453SOL     OW13758   5.593   2.866   0.087 -0.6235 -0.0300  0.3995
 4453SOL    HW113759   5.565   2.805   0.019 -1.5846 -0.7915  1.4346
 4453SOL    HW213760   5.687   2.875   0.074 -1.0751  1.5843 -2.3823
 4454SOL     OW13761   1.650   3.102   6.022 -0.6741  0.1113 -0.0122
 4454SOL    HW113762   1.623   3.011   6.031 -0.7956  0.2211  0.8903
 4454SOL    HW213763   1.613   3.145   6.099  0.0122  0.7713 -0.0380
 4455SOL     OW13764   5.409   4.040   1.387  0.5847 -0.4400  0.0963
 4455SOL    HW113765   5.320   4.007   1.380  1.0110 -1.4662 -0.6719
 4455SOL    HW213766   5.401   4.117   1.444 -0.7857 -0.4823  0.0038
 4456SOL     OW13767   3.585   2.985   3.688  0.5286  0.4790 -0.1130
 4456SOL    HW113768   3.620   2.897   3.702  0.6365  0.6538  0.7945
 4456SOL    HW213769   3.645   3.026   3.626  0.2313 -0.2271 -0.8889
 4457SOL     OW13770   1.790   5.287   2.293  0.2507  0.0367 -0.4002
 4457SOL    HW113771   1.737   5.238   2.356 -0.4372  0.5215 -0.5917
 4457SOL    HW213772   1.795   5.376   2.328  1.6001 -0.1789  0.0071
 4458SOL     OW13773   1.177   6.779   3.989  0.4708 -0.0910 -0.7964
 4458SOL    HW113774   1.110   6.807   3.927 -0.6592 -2.5823 -0.8269
 4458SOL    HW213775   1.145   6.807   4.074 -1.5599 -2.5966 -0.6079
 4459SOL     OW13776   1.542   1.176   3.585 -0.4052 -0.1890  0.0944
 4459SOL    HW113777   1.489   1.141   3.657 -0.0951  0.2264  0.5313
 4459SOL    HW213778   1.485   1.171   3.509 -1.1712  0.4862  0.6043
 4460SOL     OW13779   2.750   5.822   2.950  0.2991  0.3112  0.2148
 4460SOL    HW113780   2.815   5.872   2.901  0.1896 -0.2611 -0.5377
 4460SOL    HW213781   2.711   5.763   2.886 -1.6718  1.2971  0.4078
 4461SOL     OW13782   5.176   0.337   3.372 -0.2109  0.2025 -0.8495
 4461SOL    HW113783   5.172   0.406   3.306 -1.1813  0.2890 -0.7058
 4461SOL    HW213784   5.141   0.377   3.451 -0.9937 -0.5087 -0.8210
 4462SOL     OW13785   5.182   5.009   3.842 -0.1853 -0.1230  0.1274
 4462SOL    HW113786   5.115   4.986   3.907  0.0380 -0.5895  0.1903
 4462SOL    HW213787   5.262   5.022   3.893  0.1875 -1.3065 -0.1406
 4463SOL     OW13788   1.835   5.518   1.707  0.1444  0.5288  0.0261
 4463SOL    HW113789   1.870   5.574   1.777 -1.6921  0.5164  1.0100
 4463SOL    HW213790   1.913   5.480   1.667  1.2869  0.7084  1.9167
 4464SOL     OW13791   1.275   1.246   1.799  0.4922  0.4571  0.1829
 4464SOL    HW113792   1.334   1.258   1.725 -0.5849  2.7820 -0.3699
 4464SOL    HW213793   1.240   1.333   1.817 -0.9788 -0.4351  2.0126
 4465SOL     OW13794   2.653   6.644   2.162 -0.2079 -0.2721  0.2380
 4465SOL    HW113795   2.582   6.580   2.156 -0.2190 -0.1222 -2.4183
 4465SOL    HW213796   2.656   6.684   2.075  1.3899  1.6327  1.1019
 4466SOL     OW13797   4.974   5.605   3.139 -0.9819 -0.7789  0.5511
 4466SOL    HW113798   4.906   5.673   3.139 -0.4188 -0.1779 -1.0200
 4466SOL    HW213799   4.932   5.530   3.094 -0.8477 -0.6517  0.2100
 4467SOL     OW13800   3.514   0.928   1.604 -0.2272 -0.1379 -0.5941
 4467SOL    HW113801   3.560   0.945   1.687 -0.0997 -1.8885 -0.2799
 4467SOL    HW213802   3.424   0.957   1.620 -0.0823  0.0080 -0.0264
 4468SOL     OW13803   6.768   1.352   1.714  0.9540  0.1926 -0.6167
 4468SOL    HW113804   6.808   1.418   1.771 -1.0134  0.7362  0.2034
 4468SOL    HW213805   6.741   1.401   1.636  0.4178  0.1576 -0.4540
 4469SOL     OW13806   5.985   4.916   0.190 -0.1857 -0.1752  0.0426
 4469SOL    HW113807   5.990   4.909   0.285  0.5523  0.4385  0.0613
 4469SOL    HW213808   6.014   4.831   0.158  1.2356  0.1515  0.3593
 4470SOL     OW13809   6.164   1.560   0.997 -0.4298  0.8048 -0.5211
 4470SOL    HW113810   6.220   1.539   0.923 -0.5856  0.6431 -0.5942
 4470SOL    HW213811   6.146   1.654   0.988 -0.8146  0.6948 -0.9401
 4471SOL     OW13812   5.356   1.056   3.000 -0.0473  0.1527 -0.3266
 4471SOL    HW113813   5.431   1.029   2.947  1.5094  2.7959  0.3376
 4471SOL    HW213814   5.280   1.041   2.943  1.4174  1.6977 -2.8956
 4472SOL     OW13815   0.756   5.646   4.871  0.1794  0.0385  0.1839
 4472SOL    HW113816   0.787   5.602   4.792 -1.2171 -2.0706  0.7236
 4472SOL    HW213817   0.782   5.589   4.943 -1.0934  0.4071  0.9809
 4473SOL     OW13818   2.987   5.536   0.694 -0.2913  0.0479 -0.1911
 4473SOL    HW113819   3.082   5.537   0.689 -0.3082 -1.3375 -1.2765
 4473SOL    HW213820   2.962   5.628   0.692  1.0888  0.6610  3.0548
 4474SOL     OW13821   5.555   2.018   4.229 -0.4737  0.0321  0.4755
 4474SOL    HW113822   5.585   1.937   4.188  0.1405  0.6067 -0.2526
 4474SOL    HW213823   5.491   2.054   4.168  0.3056  0.7993  0.0785
 4475SOL     OW13824   5.570   6.587   0.136  0.2877  0.5516  0.0989
 4475SOL    HW113825   5.552   6.678   0.160 -1.8725  0.3262 -0.4076
 4475SOL    HW213826   5.486   6.542   0.149  1.0196 -1.1306 -0.7043
 4476SOL     OW13827   4.088   2.714   6.275 -0.4633 -0.1758  0.4206
 4476SOL    HW113828   4.161   2.740   6.331 -0.8413  0.2759  0.7152
 4476SOL    HW213829   4.014   2.768   6.305 -0.9227 -0.6350  0.1413
 4477SOL     OW13830   4.559   0.619   2.782  0.0744  0.1997  0.0320
 4477SOL    HW113831   4.489   0.559   2.806 -0.3294  0.8404  0.4603
 4477SOL    HW213832   4.633   0.561   2.760  0.1880 -0.4465  1.9122
 4478SOL     OW13833   6.055   5.970   0.298  0.0133 -0.2207  0.4864
 4478SOL    HW113834   6.099   5.904   0.246  1.3125  0.6982  0.3768
 4478SOL    HW213835   6.019   5.922   0.373  0.8203 -1.0523  0.3504
 4479SOL     OW13836   1.381   1.720   4.807  0.1865  0.0111 -0.0188
 4479SOL    HW113837   1.312   1.667   4.766  0.5160 -1.2170  0.9475
 4479SOL    HW213838   1.447   1.656   4.834  1.7157  1.1618 -0.9003
 4480SOL     OW13839   4.947   3.236   5.180  0.5178  0.1104  0.0444
 4480SOL    HW113840   4.891   3.267   5.252  0.3300 -0.0131 -0.0463
 4480SOL    HW213841   4.936   3.141   5.181 -1.9168  0.2386 -2.0545
 4481SOL     OW13842   6.090   2.510   2.358 -0.2773 -0.2315 -0.0319
 4481SOL    HW113843   6.082   2.478   2.448  0.7727  1.0542  0.5547
 4481SOL    HW213844   6.114   2.433   2.306  1.7172 -0.5340  1.2385
 4482SOL     OW13845   0.515   0.129   1.359  0.1270 -0.3859 -0.1288
 4482SOL    HW113846   0.459   0.206   1.366 -0.0981 -0.5314 -0.3358
 4482SOL    HW213847   0.532   0.120   1.266 -0.1765 -0.8263 -0.1429
 4483SOL     OW13848   1.447   3.716   5.723 -0.6531 -0.3264  0.7801
 4483SOL    HW113849   1.408   3.710   5.635 -0.0133 -1.1765  0.5393
 4483SOL    HW213850   1.378   3.685   5.782 -0.9041 -0.2634  0.5223
 4484SOL     OW13851   5.424   3.865   4.904 -0.4560 -0.0025  0.6385
 4484SOL    HW113852   5.503   3.863   4.958 -0.7931 -0.6711  1.1233
 4484SOL    HW213853   5.454   3.892   4.817  0.1134  0.9824  1.1225
 4485SOL     OW13854   1.756   2.509   1.896 -0.2396 -0.0374  0.3079
 4485SOL    HW113855   1.677   2.504   1.842  0.3517 -3.9231 -0.5107
 4485SOL    HW213856   1.828   2.512   1.832  0.3701 -0.7280  0.9402
 4486SOL     OW13857   2.488   3.876   0.921  0.4967 -0.1482  0.2116
 4486SOL    HW113858   2.535   3.809   0.971 -0.2172 -1.3334 -0.6674
 4486SOL    HW213859   2.396   3.853   0.931  0.2565  0.5828 -0.2746
 4487SOL     OW13860   0.725   2.507   1.329  0.1199 -0.4776 -0.9029
 4487SOL    HW113861   0.739   2.427   1.380 -0.7548 -0.1260 -0.0726
 4487SOL    HW213862   0.807   2.555   1.337  0.2124 -0.7219 -0.3389
 4488SOL     OW13863   4.587   1.765   0.052 -0.4465  0.1939  0.1358
 4488SOL    HW113864   4.573   1.671   0.047  0.3119  0.0766  0.1207
 4488SOL    HW213865   4.588   1.785   0.145  0.7207 -0.0312  0.1859
 4489SOL     OW13866   4.070   3.453   2.523  0.3838  0.1462 -0.5495
 4489SOL    HW113867   4.083   3.491   2.610  0.0928 -0.7653 -0.0935
 4489SOL    HW213868   3.995   3.394   2.534  0.0876  0.3336 -1.5203
 4490SOL     OW13869   5.742   0.317   6.567  0.1156 -0.3598 -0.0799
 4490SOL    HW113870   5.652   0.350   6.558 -0.1662 -0.3204  2.3174
 4490SOL    HW213871   5.786   0.384   6.619  1.6183 -0.3214 -1.3291
 4491SOL     OW13872   1.773   1.192   0.129 -0.2729 -0.4298 -0.0342
 4491SOL    HW113873   1.792   1.114   0.182  0.1189 -1.4664 -1.6391
 4491SOL    HW213874   1.679   1.185   0.110 -0.0447 -1.0358 -0.9706
 4492SOL     OW13875   3.883   2.648   5.268 -0.6400  0.3983  0.2736
 4492SOL    HW113876   3.789   2.655   5.254 -0.6209 -0.4573 -0.3552
 4492SOL    HW213877   3.912   2.738   5.286 -1.7387  0.5103  1.6463
 4493SOL     OW13878   5.875   2.846   0.030  0.7681 -0.4405  0.0648
 4493SOL    HW113879   5.894   2.826  -0.062  1.0635  0.4666 -0.0769
 4493SOL    HW213880   5.954   2.817   0.077  0.8695 -0.3365 -0.0406
 4494SOL     OW13881   3.649   2.368   4.414  0.0016  0.6807 -0.3227
 4494SOL    HW113882   3.603   2.285   4.425  1.9624 -0.4450 -0.1974
 4494SOL    HW213883   3.600   2.431   4.467 -0.1775 -0.9303  1.5040
 4495SOL     OW13884   4.317   6.029   5.342 -0.3068 -0.6017 -0.4767
 4495SOL    HW113885   4.357   5.950   5.307  0.1605 -1.0610  1.0460
 4495SOL    HW213886   4.224   6.019   5.323 -0.3616 -1.8958  0.4068
 4496SOL     OW13887   0.035   6.198   3.578 -0.3456 -0.3285  0.2130
 4496SOL    HW113888   0.068   6.263   3.516  0.2430  0.6323  1.4945
 4496SOL    HW213889   0.107   6.135   3.588 -0.1243 -0.0211  0.5564
 4497SOL     OW13890   3.886   0.413   1.625  0.0693  0.1186 -0.0695
 4497SOL    HW113891   3.849   0.365   1.700  0.6001 -1.3138 -0.6834
 4497SOL    HW213892   3.882   0.351   1.552  1.0124  0.9233 -0.8428
 4498SOL     OW13893   2.017   4.826   1.147 -0.1776 -0.3356 -0.2118
 4498SOL    HW113894   2.062   4.786   1.073 -0.6842  0.0133 -0.7195
 4498SOL    HW213895   2.017   4.758   1.215  0.8588 -0.4353 -0.2948
 4499SOL     OW13896   2.994   1.707   1.640 -0.6811  0.2979 -0.4977
 4499SOL    HW113897   3.084   1.736   1.655 -0.2484 -0.8479 -0.7961
 4499SOL    HW213898   3.000   1.645   1.568 -1.9661  1.5600 -1.7753
 4500SOL     OW13899   0.657   4.750   2.424 -0.2552  0.6817 -0.1154
 4500SOL    HW113900   0.723   4.732   2.491  2.6570  1.5278 -2.5553
 4500SOL    HW213901   0.672   4.683   2.357 -2.9516 -0.0251 -0.1419
 4501SOL     OW13902   6.415   6.233   0.649 -0.5019 -0.0554 -0.5775
 4501SOL    HW113903   6.486   6.228   0.585  2.1655 -0.3420  2.1885
 4501SOL    HW213904   6.387   6.142   0.661 -0.2212 -0.1361 -0.5266
 4502SOL     OW13905   0.259   3.486   0.595  0.1064 -0.4032 -0.2121
 4502SOL    HW113906   0.188   3.544   0.568 -0.3951 -0.2945  1.2343
 4502SOL    HW213907   0.223   3.398   0.585  0.7283 -0.4803 -2.0262
 4503SOL     OW13908   1.656   6.349   1.006  0.1277  0.4356  0.3589
 4503SOL    HW113909   1.561   6.362   1.010 -0.0425 -0.9534  1.7420
 4503SOL    HW213910   1.672   6.316   0.918 -0.6686  0.7093  0.1004
 4504SOL     OW13911   2.422   3.492   2.143 -0.0163 -0.6929  0.3095
 4504SOL    HW113912   2.342   3.523   2.099  0.4227  0.8060  0.4903
 4504SOL    HW213913   2.392   3.424   2.202 -1.2534  0.1831  0.7383
 4505SOL     OW13914   1.892   2.748   2.212 -0.2075 -0.4408  0.1395
 4505SOL    HW113915   1.895   2.659   2.248 -1.0360 -0.6510 -0.3016
 4505SOL    HW213916   1.869   2.803   2.286  2.4871 -0.2628  0.9597
 4506SOL     OW13917   3.026   5.086   5.633 -0.0570 -0.3134  0.3522
 4506SOL    HW113918   3.036   5.160   5.573  0.2286 -1.7889 -1.5215
 4506SOL    HW213919   3.032   5.125   5.721  0.0881  1.8511 -0.5523
 4507SOL     OW13920   4.249   0.625   4.554  0.2465  0.2236  0.0373
 4507SOL    HW113921   4.223   0.717   4.554 -0.6019 -0.0043  0.8720
 4507SOL    HW213922   4.204   0.586   4.629  0.6114 -0.8735 -0.2810
 4508SOL     OW13923   0.798   3.975   5.963  0.0141  0.2479  0.8109
 4508SOL    HW113924   0.875   3.977   6.021 -0.3274  0.6037  1.2591
 4508SOL    HW213925   0.744   3.904   5.999  0.2417 -0.1706  0.3432
 4509SOL     OW13926   5.127   5.995   0.340 -0.1023 -0.0904 -0.3976
 4509SOL    HW113927   5.165   5.917   0.301  0.2209  0.7229 -1.7726
 4509SOL    HW213928   5.159   5.995   0.430  1.7201 -0.3617 -1.0107
 4510SOL     OW13929   1.978   5.574   4.316  0.0125  0.3061 -0.2952
 4510SOL    HW113930   2.027   5.491   4.317  1.8406  1.3063  1.0992
 4510SOL    HW213931   2.015   5.623   4.243 -1.4721 -0.2683 -1.4870
 4511SOL     OW13932   5.312   6.304   2.955 -0.4298  0.4118  0.3693
 4511SOL    HW113933   5.335   6.220   2.916 -1.8255  0.1742  0.0197
 4511SOL    HW213934   5.394   6.353   2.955  0.4034 -0.9345  0.5814
 4512SOL     OW13935   2.779   6.178   4.932 -0.0288 -0.0620 -0.1240
 4512SOL    HW113936   2.718   6.105   4.919 -0.0441  0.0234 -0.5478
 4512SOL    HW213937   2.800   6.208   4.844 -2.0998  2.1657  0.0234
 4513SOL     OW13938   3.256   5.995   2.530  0.1337 -0.2736 -0.7323
 4513SOL    HW113939   3.220   6.046   2.603 -1.6163 -1.5704 -0.6353
 4513SOL    HW213940   3.293   6.061   2.471 -0.2786  0.9508  0.3264
 4514SOL     OW13941   6.029   6.586   5.643  0.3008 -0.2498 -0.0405
 4514SOL    HW113942   6.030   6.676   5.675  1.8126 -0.0737 -0.4940
 4514SOL    HW213943   5.955   6.582   5.583 -0.1986  0.4882  0.5153
 4515SOL     OW13944   1.650   3.632   0.117 -0.2636 -0.0074  0.3043
 4515SOL    HW113945   1.672   3.723   0.098  0.3817  0.2220  1.9846
 4515SOL    HW213946   1.735   3.586   0.118 -0.4980 -0.4476  0.2762
 4516SOL     OW13947   1.117   6.027   3.963 -0.0428  0.7837 -0.0560
 4516SOL    HW113948   1.212   6.024   3.977 -0.0085  0.6322 -0.3128
 4516SOL    HW213949   1.079   6.007   4.048  0.1447  2.8205  0.5785
 4517SOL     OW13950   0.410   5.020   2.994 -0.3155  0.5006 -0.3700
 4517SOL    HW113951   0.411   5.110   2.960 -0.9924  0.7475  0.2399
 4517SOL    HW213952   0.382   5.029   3.085 -0.2279 -0.3207 -0.2546
 4518SOL     OW13953   0.215   4.920   1.770 -0.0515 -0.0960  0.2782
 4518SOL    HW113954   0.168   4.879   1.698  0.2080 -1.7024  0.9749
 4518SOL    HW213955   0.150   4.977   1.812 -0.3715  0.3689 -0.8204
 4519SOL     OW13956   0.234   0.978   5.469 -0.1792  0.0793  0.5831
 4519SOL    HW113957   0.280   0.898   5.441 -0.2363 -0.2435  1.3735
 4519SOL    HW213958   0.277   1.002   5.551 -0.8408  0.2754  0.8787
 4520SOL     OW13959   2.322   6.468   2.687 -0.2006 -0.3147 -0.0475
 4520SOL    HW113960   2.330   6.396   2.624 -1.9336 -1.7935  1.3463
 4520SOL    HW213961   2.369   6.438   2.765 -1.9297 -0.4881  0.9665
 4521SOL     OW13962   6.542   3.113   2.015  0.4475  0.2329  0.0076
 4521SOL    HW113963   6.477   3.147   1.954  0.8053 -0.1689 -0.6071
 4521SOL    HW213964   6.544   3.019   1.999  3.5903  0.5294 -2.4658
 4522SOL     OW13965   5.538   4.586   2.915 -0.3171 -0.2150 -0.5794
 4522SOL    HW113966   5.477   4.624   2.978 -1.1809  0.9462 -2.0224
 4522SOL    HW213967   5.618   4.570   2.965 -1.2790 -0.2841  1.0039
 4523SOL     OW13968   2.553   5.636   4.523 -0.4444  0.0381 -0.5149
 4523SOL    HW113969   2.557   5.729   4.500  0.1862 -0.0167 -0.6489
 4523SOL    HW213970   2.493   5.632   4.598  0.3255  0.6879  0.1490
 4524SOL     OW13971   4.310   1.068   4.345 -0.1743  0.3259  0.5039
 4524SOL    HW113972   4.224   1.066   4.303 -0.4818 -1.0136  1.1505
 4524SOL    HW213973   4.297   1.118   4.425  0.1797  1.9997 -0.4328
 4525SOL     OW13974   0.088   2.772   5.700 -0.4929  0.3210 -0.5540
 4525SOL    HW113975   0.145   2.783   5.624 -0.0671  0.5425 -0.2021
 4525SOL    HW213976   0.054   2.859   5.718  1.3312  0.7678  1.0078
 4526SOL     OW13977   6.623   6.411   2.241  0.2611  0.3299 -0.4101
 4526SOL    HW113978   6.613   6.498   2.281 -0.3314 -0.1254  0.4710
 4526SOL    HW213979   6.533   6.382   2.226  0.4591 -0.1653 -0.6220
 4527SOL     OW13980   5.785   4.167   4.508  0.4073  0.0597 -0.3359
 4527SOL    HW113981   5.856   4.124   4.461  0.9595  0.4034  0.1624
 4527SOL    HW213982   5.748   4.099   4.563  0.1414 -0.1997 -0.8340
 4528SOL     OW13983   1.463   3.941   0.488  0.6327  0.4303 -0.0501
 4528SOL    HW113984   1.441   3.859   0.531  3.2319 -1.0448 -1.2889
 4528SOL    HW213985   1.400   3.948   0.416  0.1675 -0.2939  0.2793
 4529SOL     OW13986   0.045   2.904   4.504 -0.1516 -0.3115 -0.3734
 4529SOL    HW113987   0.023   2.970   4.438 -2.8745 -0.2036  0.5492
 4529SOL    HW213988   0.053   2.822   4.455 -0.0816  0.1120 -1.0851
 4530SOL     OW13989   1.839   4.532   3.914 -0.1857 -0.7739  0.5277
 4530SOL    HW113990   1.908   4.475   3.879  0.7597  1.5508 -1.7316
 4530SOL    HW213991   1.885   4.613   3.938 -1.6874 -0.3557  2.2304
 4531SOL     OW13992   4.727   0.866   3.008 -0.0474  0.0175  0.2485
 4531SOL    HW113993   4.753   0.831   3.093 -0.3983  2.8279  1.6322
 4531SOL    HW213994   4.632   0.862   3.009 -0.0372 -0.4054 -0.2473
 4532SOL     OW13995   4.192   3.357   2.291 -0.4523  0.0722  0.4948
 4532SOL    HW113996   4.268   3.411   2.269 -0.5369  0.1938  0.5044
 4532SOL    HW213997   4.155   3.398   2.368 -0.7290  0.2099  0.2892
 4533SOL     OW13998   5.709   3.410   5.262 -0.1792  0.1659  0.0697
 4533SOL    HW113999   5.686   3.436   5.173 -0.9420 -1.1565 -0.1568
 4533SOL    HW214000   5.731   3.317   5.255 -0.9890 -0.1605  1.3563
 4534SOL     OW14001   2.179   2.228   4.760  0.2075 -0.2453  0.5637
 4534SOL    HW114002   2.118   2.279   4.813  0.5997  0.4118  0.3849
 4534SOL    HW214003   2.125   2.161   4.720 -0.2027 -0.3730  1.3056
 4535SOL     OW14004   3.559   2.440   2.129  0.1012  0.0072  0.2107
 4535SOL    HW114005   3.541   2.346   2.136  0.2292 -0.0133  0.2676
 4535SOL    HW214006   3.495   2.472   2.066  0.4025 -0.2180 -0.2190
 4536SOL     OW14007   3.183   1.715   6.778 -0.4694 -0.1523  0.2271
 4536SOL    HW114008   3.216   1.768   6.705  3.3203 -2.6359 -0.1822
 4536SOL    HW214009   3.116   1.659   6.739  0.8305 -0.7761 -1.2212
 4537SOL     OW14010   0.420   1.610   1.329 -0.3956  0.2506 -0.4294
 4537SOL    HW114011   0.436   1.704   1.342 -1.4126  0.4918 -0.7830
 4537SOL    HW214012   0.425   1.573   1.417  0.2792  0.5925 -0.3194
 4538SOL     OW14013   3.533   5.913   2.059  0.3928  0.5610 -0.3394
 4538SOL    HW114014   3.491   5.920   2.145  0.9869  0.9883 -0.0792
 4538SOL    HW214015   3.489   5.839   2.017  0.7354 -0.2505  0.6885
 4539SOL     OW14016   3.151   3.265   2.245 -0.6889  0.1378  0.5698
 4539SOL    HW114017   3.114   3.345   2.206 -1.3059  0.0954  1.0659
 4539SOL    HW214018   3.189   3.218   2.170 -0.1599  0.9707  0.2952
 4540SOL     OW14019   1.755   1.041   6.581  0.1489  0.2465  0.1160
 4540SOL    HW114020   1.784   0.952   6.600  1.4166 -0.0736 -2.8401
 4540SOL    HW214021   1.665   1.031   6.549 -0.4265  0.3183  1.6151
 4541SOL     OW14022   6.322   3.696   4.742 -0.0905 -0.2518 -0.4301
 4541SOL    HW114023   6.359   3.612   4.712 -0.4750 -0.4452 -0.3718
 4541SOL    HW214024   6.382   3.762   4.707  1.0576 -0.6166  0.7713
 4542SOL     OW14025   2.841   5.056   3.063  0.0342 -0.4694  0.2342
 4542SOL    HW114026   2.763   5.103   3.034  0.1573 -0.0894  0.5141
 4542SOL    HW214027   2.876   5.109   3.134  1.1493 -0.0849 -0.5735
 4543SOL     OW14028   3.967   6.670   1.411 -0.4316  0.0682 -0.2774
 4543SOL    HW114029   4.010   6.694   1.493  0.9067 -2.4804 -0.1431
 4543SOL    HW214030   3.878   6.645   1.436 -0.3245  0.2106  0.2521
 4544SOL     OW14031   0.183   6.665   2.094  0.6136 -0.0223  0.4490
 4544SOL    HW114032   0.201   6.704   2.008  0.4091 -1.1600 -0.1234
 4544SOL    HW214033   0.256   6.605   2.109  2.3132  2.3269  2.4853
 4545SOL     OW14034   1.380   0.834   6.512 -0.1292 -0.3160  0.2782
 4545SOL    HW114035   1.430   0.912   6.490  0.4066 -0.6824  0.1768
 4545SOL    HW214036   1.442   0.777   6.557 -0.3857 -0.8721 -0.0508
 4546SOL     OW14037   0.382   4.174   3.354 -0.4045  0.3367  0.4066
 4546SOL    HW114038   0.445   4.217   3.296  0.4015 -1.6347 -0.2615
 4546SOL    HW214039   0.310   4.150   3.296  0.1207 -1.0808  0.2975
 4547SOL     OW14040   0.320   4.603   5.789  0.1480 -0.5972  0.5634
 4547SOL    HW114041   0.357   4.631   5.706 -0.6575 -1.6160 -0.1697
 4547SOL    HW214042   0.269   4.679   5.820  0.8858 -0.0312  0.4010
 4548SOL     OW14043   3.584   1.806   1.084 -0.4540  0.3740 -0.4841
 4548SOL    HW114044   3.590   1.728   1.139 -0.7992  0.1731 -0.7275
 4548SOL    HW214045   3.493   1.808   1.054 -1.1080  2.1198  1.3478
 4549SOL     OW14046   0.151   6.660   1.638 -0.1752 -0.4941  0.1948
 4549SOL    HW114047   0.060   6.651   1.666  0.1830 -0.0729  1.5490
 4549SOL    HW214048   0.150   6.634   1.545 -1.9336  0.9897 -0.2485
 4550SOL     OW14049   3.048   6.767   1.108 -0.6855 -0.2278  0.3657
 4550SOL    HW114050   3.014   6.752   1.019 -0.2814  1.8653 -0.1824
 4550SOL    HW214051   3.045   6.680   1.149 -0.2055 -1.3948 -1.9117
 4551SOL     OW14052   0.990   0.541   2.143 -0.5311  0.1650 -0.1327
 4551SOL    HW114053   1.048   0.601   2.189  3.2932 -3.3553  0.2437
 4551SOL    HW214054   0.956   0.483   2.211 -0.0762 -1.1263 -0.9646
 4552SOL     OW14055   6.622   6.599   1.383 -0.5078 -0.0379  0.0707
 4552SOL    HW114056   6.616   6.508   1.353  1.9982 -0.5261  0.8608
 4552SOL    HW214057   6.602   6.651   1.305 -1.5727 -1.2437 -0.4987
 4553SOL     OW14058   5.471   1.848   3.796 -0.7186 -0.0709  0.2639
 4553SOL    HW114059   5.565   1.868   3.792 -0.9878  1.3927  0.6662
 4553SOL    HW214060   5.436   1.886   3.715 -0.6062 -3.0501 -1.3376
 4554SOL     OW14061   0.409   3.453   0.253  0.3799  0.0944  0.2771
 4554SOL    HW114062   0.387   3.423   0.341 -1.8410  0.1933 -0.1996
 4554SOL    HW214063   0.463   3.382   0.217  0.9765 -0.1282  1.5531
 4555SOL     OW14064   3.046   1.972   1.281 -0.1601  0.5682 -0.5398
 4555SOL    HW114065   3.098   1.934   1.352  1.3113  1.6943 -0.9545
 4555SOL    HW214066   2.976   1.908   1.266  1.1714 -1.1085 -0.0318
 4556SOL     OW14067   3.708   3.518   4.069  0.1687  0.6610 -0.1328
 4556SOL    HW114068   3.777   3.485   4.127 -1.4901 -1.4565  0.8059
 4556SOL    HW214069   3.744   3.509   3.981  0.3422 -2.6634  0.1583
 4557SOL     OW14070   3.039   4.988   2.061  0.0951  0.2930  0.1688
 4557SOL    HW114071   3.098   4.925   2.019  0.2952  0.2262  0.5441
 4557SOL    HW214072   2.962   4.937   2.084 -0.2112  0.4251 -0.5151
 4558SOL     OW14073   3.876   1.224   2.535  0.2747 -0.6302  0.1317
 4558SOL    HW114074   3.925   1.285   2.481 -0.0818  0.2526  0.7857
 4558SOL    HW214075   3.786   1.258   2.535 -0.0476 -1.4543  0.0714
 4559SOL     OW14076   2.154   3.848   1.866 -0.5621  0.2981 -0.1925
 4559SOL    HW114077   2.177   3.909   1.936 -0.3852  0.8910 -0.7477
 4559SOL    HW214078   2.065   3.872   1.841 -0.6420  0.0597 -0.1365
 4560SOL     OW14079   5.715   5.149   1.518 -0.0189  0.3902 -0.2637
 4560SOL    HW114080   5.803   5.152   1.557 -0.2656 -1.3553  0.5222
 4560SOL    HW214081   5.692   5.056   1.519 -1.2068  0.6347 -2.0220
 4561SOL     OW14082   5.525   0.542   4.509  0.4517 -0.5262 -0.3070
 4561SOL    HW114083   5.574   0.621   4.487 -0.0362 -0.0076  0.4290
 4561SOL    HW214084   5.441   0.574   4.542 -0.1185 -1.3869 -0.8961
 4562SOL     OW14085   2.978   5.189   0.280 -0.7308  0.4589  0.2857
 4562SOL    HW114086   3.058   5.240   0.270 -1.1755  0.9240 -1.2567
 4562SOL    HW214087   2.908   5.251   0.259 -1.4107 -0.2726  0.3495
 4563SOL     OW14088   5.991   6.611   6.600 -0.0545 -0.2338 -0.0584
 4563SOL    HW114089   6.062   6.675   6.607  1.0551 -1.2143 -1.7241
 4563SOL    HW214090   6.013   6.544   6.665  1.2065 -1.1018 -1.3359
 4564SOL     OW14091   5.297   0.585   1.995 -0.3015  0.2930 -0.1127
 4564SOL    HW114092   5.320   0.493   2.009 -1.4603 -0.1184 -0.7748
 4564SOL    HW214093   5.361   0.634   2.048  0.7221 -0.8535 -0.2421
 4565SOL     OW14094   3.469   4.989   5.584  0.0917 -0.8312 -0.5328
 4565SOL    HW114095   3.529   5.044   5.634  0.5443 -1.8109  0.0484
 4565SOL    HW214096   3.502   4.900   5.598 -1.2342 -1.3464 -0.5733
 4566SOL     OW14097   0.429   6.746   5.369  0.0861  0.0289 -0.1327
 4566SOL    HW114098   0.342   6.707   5.367  0.2066 -0.2147 -2.4223
 4566SOL    HW214099   0.485   6.683   5.323  1.2950  0.6314  0.4633
 4567SOL     OW14100   3.093   6.403   4.890  0.3872 -0.2821 -0.8569
 4567SOL    HW114101   3.138   6.361   4.963  0.2095 -0.8079 -1.0362
 4567SOL    HW214102   3.099   6.338   4.819 -0.9678 -0.5336 -0.7713
 4568SOL     OW14103   4.907   1.261   6.435 -0.5791  0.4913  0.1811
 4568SOL    HW114104   4.938   1.332   6.378  0.4651  0.4117  0.6170
 4568SOL    HW214105   4.955   1.184   6.404 -0.6676  0.2681  0.5944
 4569SOL     OW14106   0.491   3.195   2.397 -0.5845  0.3699  0.2312
 4569SOL    HW114107   0.410   3.203   2.346 -0.9888  1.3537  0.9818
 4569SOL    HW214108   0.462   3.164   2.483  0.1962 -2.2396 -0.3613
 4570SOL     OW14109   5.825   6.178   5.253  0.0004  0.1848  0.1348
 4570SOL    HW114110   5.806   6.266   5.284  2.0709 -0.0569  2.3436
 4570SOL    HW214111   5.775   6.121   5.310  1.9653 -0.1681  1.6143
 4571SOL     OW14112   3.589   0.280   2.697  0.2485 -0.2158 -0.1540
 4571SOL    HW114113   3.589   0.187   2.718  2.0338  0.1456  1.8762
 4571SOL    HW214114   3.668   0.292   2.645 -0.6317 -0.0023 -1.4713
 4572SOL     OW14115   6.571   2.525   2.343 -0.1387 -0.4130 -0.1711
 4572SOL    HW114116   6.499   2.567   2.295  0.2831 -0.8514 -1.2082
 4572SOL    HW214117   6.537   2.513   2.432 -1.1806 -0.2096 -0.5325
 4573SOL     OW14118   5.586   1.725   4.165 -0.4753  0.6090  0.3567
 4573SOL    HW114119   5.678   1.713   4.190  0.2928  3.3528 -0.7420
 4573SOL    HW214120   5.575   1.668   4.088 -0.0873 -0.6083  1.1660
 4574SOL     OW14121   6.768   4.408   4.997  0.2936 -0.1218 -0.2163
 4574SOL    HW114122   6.680   4.393   5.029  0.8362 -0.8996  0.9797
 4574SOL    HW214123   6.809   4.321   4.996  0.4451 -0.0930 -2.6974
 4575SOL     OW14124   4.574   4.254   5.229 -0.2556 -0.0657  0.0071
 4575SOL    HW114125   4.621   4.299   5.159 -2.0127  1.0693 -0.5178
 4575SOL    HW214126   4.585   4.311   5.305 -0.7104  0.1809 -0.1059
 4576SOL     OW14127   2.051   3.832   0.769  0.0096  0.4461  0.6550
 4576SOL    HW114128   2.137   3.833   0.728 -1.2736  0.1451 -2.2700
 4576SOL    HW214129   2.005   3.906   0.731 -1.2937  0.1609  1.5989
 4577SOL     OW14130   0.742   0.562   3.098 -0.2478 -0.3179  0.0472
 4577SOL    HW114131   0.819   0.506   3.095  0.4083  0.5897 -1.5579
 4577SOL    HW214132   0.696   0.544   3.016 -1.8846 -0.9869  1.0657
 4578SOL     OW14133   0.942   0.278   2.365  0.1173  0.0186 -0.4262
 4578SOL    HW114134   0.869   0.291   2.425  0.2804  2.2557 -0.6222
 4578SOL    HW214135   0.902   0.270   2.279 -0.1139 -3.1453 -0.1197
 4579SOL     OW14136   3.814   6.697   5.814  0.4173  0.1867 -0.3517
 4579SOL    HW114137   3.753   6.683   5.741  2.1873 -3.9612 -1.2982
 4579SOL    HW214138   3.786   6.636   5.881  0.3850  2.1310  1.5050
 4580SOL     OW14139   0.689   1.347   3.026  0.1017 -0.6092 -0.3060
 4580SOL    HW114140   0.690   1.441   3.008  0.9640 -0.4708  0.3851
 4580SOL    HW214141   0.596   1.324   3.031 -0.1131  0.1513 -0.7531
 4581SOL     OW14142   2.273   5.141   0.023 -0.1302  0.5195  0.1763
 4581SOL    HW114143   2.359   5.181   0.010 -0.0104  0.5175  0.9001
 4581SOL    HW214144   2.255   5.096  -0.059 -0.0516  1.6391 -0.4684
 4582SOL     OW14145   0.496   5.612   6.385 -0.2718 -0.9430  0.4380
 4582SOL    HW114146   0.527   5.587   6.472 -0.7722  0.2428  0.9832
 4582SOL    HW214147   0.479   5.706   6.392 -0.1622 -0.7946 -0.9980
 4583SOL     OW14148   0.949   0.415   4.486  0.0974  0.2433 -0.0340
 4583SOL    HW114149   0.953   0.401   4.391 -0.4504  1.1206 -0.1896
 4583SOL    HW214150   1.033   0.455   4.507  0.1983  0.0977 -0.1485
 4584SOL     OW14151   1.048   0.151   2.602 -0.1552  0.2497  0.2813
 4584SOL    HW114152   1.021   0.202   2.526  1.0190 -0.3495 -0.5776
 4584SOL    HW214153   1.144   0.152   2.599 -0.0815 -2.0724  0.1440
 4585SOL     OW14154   3.020   0.507   0.234  0.1359 -0.6102  0.2327
 4585SOL    HW114155   3.028   0.544   0.146  1.3351 -1.7381 -0.1725
 4585SOL    HW214156   3.081   0.557   0.287  1.0597 -1.3391 -0.1043
 4586SOL     OW14157   0.835   3.627   0.513  1.0365  0.2636 -0.2071
 4586SOL    HW114158   0.818   3.638   0.606  0.7211  1.3316 -0.3834
 4586SOL    HW214159   0.929   3.611   0.508  1.0034 -0.1274  0.3146
 4587SOL     OW14160   0.597   3.174   1.209 -0.4423 -0.0520 -0.0417
 4587SOL    HW114161   0.642   3.210   1.285  0.3625 -2.4431  0.7084
 4587SOL    HW214162   0.637   3.217   1.134  2.6686 -1.5014  0.6375
 4588SOL     OW14163   3.924   6.147   0.953  0.1659  0.5220 -0.2010
 4588SOL    HW114164   3.829   6.156   0.956  0.1944  0.7603 -0.0850
 4588SOL    HW214165   3.950   6.194   0.873  0.1509  0.1590 -0.4232
 4589SOL     OW14166   1.460   1.535   6.096  0.0589 -0.5746  0.7487
 4589SOL    HW114167   1.520   1.481   6.147 -1.0568 -1.4121  1.2129
 4589SOL    HW214168   1.440   1.609   6.154  0.9231 -0.0704  0.4354
 4590SOL     OW14169   1.121   4.480   5.187  0.4148 -0.0619  0.4203
 4590SOL    HW114170   1.175   4.468   5.265  0.3503 -1.2223  0.3043
 4590SOL    HW214171   1.032   4.461   5.217  0.3069  0.0940  0.1997
 4591SOL     OW14172   6.497   3.888   0.453 -0.0531 -0.0704  0.2761
 4591SOL    HW114173   6.458   3.966   0.414  0.3981  0.3683  0.6871
 4591SOL    HW214174   6.422   3.836   0.482 -0.4127 -0.5309 -1.3763
 4592SOL     OW14175   1.648   0.613   1.469  0.2621 -0.1516  0.5791
 4592SOL    HW114176   1.554   0.604   1.453  0.3647  0.4932 -0.4849
 4592SOL    HW214177   1.680   0.523   1.469 -0.3486 -0.3798  0.9528
 4593SOL     OW14178   0.917   3.703   6.612 -0.1588  0.6777  0.1200
 4593SOL    HW114179   0.948   3.786   6.577  0.2258 -0.2035 -1.7909
 4593SOL    HW214180   0.850   3.674   6.549  1.3395 -1.5252 -0.5855
 4594SOL     OW14181   2.805   5.669   4.183  0.0201 -0.4484 -0.4654
 4594SOL    HW114182   2.758   5.589   4.208  0.8550 -0.7093  0.2981
 4594SOL    HW214183   2.876   5.676   4.246  0.5471  0.3674 -1.1322
 4595SOL     OW14184   5.386   4.889   0.947 -0.0554  0.1121 -0.0421
 4595SOL    HW114185   5.331   4.845   0.884 -0.2403 -0.3057  0.4073
 4595SOL    HW214186   5.326   4.918   1.016  0.4066 -1.3008  0.9936
 4596SOL     OW14187   2.421   4.011   1.781 -0.3735  0.0103  0.5468
 4596SOL    HW114188   2.432   3.917   1.799 -1.2648 -0.1122  0.5167
 4596SOL    HW214189   2.437   4.019   1.687 -2.5013 -0.5121  0.0812
 4597SOL     OW14190   5.264   3.041   1.647  0.0551 -0.1070 -0.5314
 4597SOL    HW114191   5.301   2.964   1.602  1.3978  0.2854 -0.1313
 4597SOL    HW214192   5.206   3.004   1.713  2.3098 -0.9175  1.1048
 4598SOL     OW14193   2.442   2.420   2.546 -0.0052  0.5562 -0.5937
 4598SOL    HW114194   2.441   2.511   2.516 -0.6486  1.3363  1.5724
 4598SOL    HW214195   2.350   2.401   2.566  0.4390  0.3545  1.4296
 4599SOL     OW14196   0.496   2.764   3.053 -0.0290 -0.0348  0.3651
 4599SOL    HW114197   0.485   2.854   3.084 -0.7958  0.8698 -2.3131
 4599SOL    HW214198   0.418   2.719   3.083 -1.2688  1.0811 -1.0554
 4600SOL     OW14199   2.555   6.393   6.332 -0.1092 -0.4429  0.5300
 4600SOL    HW114200   2.597   6.426   6.411  0.6918  0.4112 -0.2312
 4600SOL    HW214201   2.627   6.365   6.275 -0.6457 -0.5603 -0.1100
 4601SOL     OW14202   3.171   0.846   0.626  0.7972 -0.1832 -0.0797
 4601SOL    HW114203   3.260   0.855   0.660  0.5408  1.2730  0.2941
 4601SOL    HW214204   3.117   0.901   0.683  0.3639  2.5687 -2.8092
 4602SOL     OW14205   4.771   2.414   5.143  0.1226 -0.0395 -0.0362
 4602SOL    HW114206   4.857   2.421   5.184 -0.3530 -0.1026  1.0167
 4602SOL    HW214207   4.789   2.402   5.050  1.2125  1.3972 -0.0380
 4603SOL     OW14208   3.886   5.160   1.585  0.1365 -0.3269  0.2956
 4603SOL    HW114209   3.975   5.158   1.621  0.8551  0.2192 -1.3483
 4603SOL    HW214210   3.866   5.253   1.576 -0.5796 -0.4461  0.5504
 4604SOL     OW14211   5.575   3.910   6.210 -0.1403  0.2371  0.0158
 4604SOL    HW114212   5.500   3.943   6.260  0.9217  0.7340  1.3231
 4604SOL    HW214213   5.566   3.815   6.213 -0.6479  0.2895  0.2548
 4605SOL     OW14214   5.764   6.111   2.475  0.3318  0.0504 -0.5611
 4605SOL    HW114215   5.669   6.114   2.471  0.1086 -1.3808  1.7475
 4605SOL    HW214216   5.793   6.129   2.385 -2.2070 -2.2823 -1.9850
 4606SOL     OW14217   1.339   0.855   1.571  0.2873  0.6614  0.0295
 4606SOL    HW114218   1.381   0.898   1.497  0.8509 -2.9182 -1.9783
 4606SOL    HW214219   1.394   0.877   1.647  1.3614  2.1089 -1.1159
 4607SOL     OW14220   0.912   1.381   0.976  0.5588  0.1178 -0.3139
 4607SOL    HW114221   0.921   1.431   0.894 -0.4316 -1.8509 -1.7001
 4607SOL    HW214222   0.820   1.356   0.979  0.5369  0.2655  1.5297
 4608SOL     OW14223   6.047   4.582   6.135  0.3851 -0.4485 -0.0092
 4608SOL    HW114224   6.072   4.606   6.224  0.4554  1.9787 -0.6103
 4608SOL    HW214225   5.999   4.500   6.145 -1.4743  0.8019  2.5592
 4609SOL     OW14226   6.056   3.550   1.301  0.3256 -0.2293  0.1413
 4609SOL    HW114227   6.020   3.465   1.328  0.6215 -0.3629  0.1166
 4609SOL    HW214228   5.981   3.597   1.264  0.4167 -0.9709 -1.0397
 4610SOL     OW14229   2.654   1.648   1.534 -0.0164 -0.4189 -0.7154
 4610SOL    HW114230   2.741   1.662   1.495  0.7814  0.4509  1.2073
 4610SOL    HW214231   2.673   1.608   1.619 -1.4493  0.2630 -0.0450
 4611SOL     OW14232   1.686   2.242   1.088  1.3902  0.2569  0.3653
 4611SOL    HW114233   1.649   2.283   1.009  0.4777  1.4310  1.3654
 4611SOL    HW214234   1.761   2.191   1.055  0.1839 -0.4586 -1.4353
 4612SOL     OW14235   6.322   4.027   0.116  0.4852  0.0776  0.1820
 4612SOL    HW114236   6.252   3.971   0.149 -0.4884  1.1837  0.0498
 4612SOL    HW214237   6.385   3.966   0.076 -1.0234 -0.8716 -0.8642
 4613SOL     OW14238   2.355   2.155   2.795 -0.3694 -0.2944  0.2209
 4613SOL    HW114239   2.324   2.096   2.726 -1.1865  1.4104 -0.9658
 4613SOL    HW214240   2.278   2.172   2.849 -0.1060 -0.4235  0.6398
 4614SOL     OW14241   6.051   6.079   0.933 -0.1785 -0.0484  0.4545
 4614SOL    HW114242   6.132   6.028   0.931  0.0069  0.2451 -0.8187
 4614SOL    HW214243   6.001   6.043   1.006 -0.7058 -3.0765 -1.2358
 4615SOL     OW14244   4.515   3.466   3.153 -0.1009 -0.6339 -0.0881
 4615SOL    HW114245   4.585   3.482   3.090 -1.0680  0.8094 -0.8324
 4615SOL    HW214246   4.549   3.395   3.208  2.7476  1.2342  0.8076
 4616SOL     OW14247   0.328   1.547   4.043 -0.1639 -0.2194  0.8726
 4616SOL    HW114248   0.288   1.592   4.117 -3.4178 -1.5728  0.1084
 4616SOL    HW214249   0.305   1.601   3.967 -0.1844 -0.8234  0.4465
 4617SOL     OW14250   0.254   6.028   3.679 -0.2394 -0.3857 -0.5841
 4617SOL    HW114251   0.319   5.966   3.646 -1.6307 -1.1089 -2.0823
 4617SOL    HW214252   0.291   6.114   3.661  1.0341 -0.7569  0.1229
 4618SOL     OW14253   2.762   5.691   0.304 -0.2044  0.0879  0.3402
 4618SOL    HW114254   2.843   5.640   0.304 -1.3169 -1.7828  0.6567
 4618SOL    HW214255   2.767   5.743   0.225  1.0178 -0.4873  0.0099
 4619SOL     OW14256   2.972   1.731   0.923 -0.2878 -0.1348  0.1668
 4619SOL    HW114257   2.987   1.637   0.934 -1.8610 -0.4133  0.1807
 4619SOL    HW214258   2.888   1.747   0.965 -0.1790  1.2334 -0.0888
 4620SOL     OW14259   0.019   3.734   6.132  0.5072  0.4161 -0.0064
 4620SOL    HW114260  -0.037   3.807   6.160  1.2056  0.6121  0.9358
 4620SOL    HW214261   0.022   3.741   6.037 -0.8326  0.5703 -0.0586
 4621SOL     OW14262   1.342   2.004   0.758  0.2374 -0.3211 -0.3109
 4621SOL    HW114263   1.327   1.964   0.844  0.1701  1.9170  0.7886
 4621SOL    HW214264   1.327   2.098   0.772 -0.6263  0.0271 -2.9805
 4622SOL     OW14265   0.987   1.364   3.377  0.5324  0.0984 -0.2018
 4622SOL    HW114266   0.971   1.371   3.472 -0.3448  0.9642 -0.3898
 4622SOL    HW214267   0.900   1.366   3.338  0.8014 -1.7532 -0.9727
 4623SOL     OW14268   3.936   4.233   3.903  0.2029 -0.3428  0.2668
 4623SOL    HW114269   4.030   4.223   3.919 -0.2806 -0.7837  3.7104
 4623SOL    HW214270   3.901   4.144   3.912 -0.6349 -0.0723 -0.2560
 4624SOL     OW14271   4.138   3.281   0.387  0.1027  0.0079 -0.2715
 4624SOL    HW114272   4.136   3.364   0.341  0.5485  0.5554  0.6679
 4624SOL    HW214273   4.202   3.294   0.457  0.5477 -1.2799 -0.4031
 4625SOL     OW14274   6.316   3.895   1.818  0.0200  0.6399 -0.2730
 4625SOL    HW114275   6.244   3.835   1.798  0.1856  0.2157  0.3686
 4625SOL    HW214276   6.317   3.957   1.745 -0.6883  0.3627 -0.5238
 4626SOL     OW14277   2.075   2.108   2.365  0.1905 -0.0566  0.5120
 4626SOL    HW114278   2.116   2.022   2.368 -0.4951 -0.3851  0.6964
 4626SOL    HW214279   2.117   2.152   2.291 -3.1091 -2.5150 -3.2747
 4627SOL     OW14280   1.277   6.079   3.583 -0.1469 -0.1656  0.0753
 4627SOL    HW114281   1.250   6.138   3.512  2.3522 -0.0416 -0.8744
 4627SOL    HW214282   1.330   6.134   3.641  1.6258 -1.2626 -0.4346
 4628SOL     OW14283   2.193   0.689   3.704  0.6451 -0.5215 -0.1328
 4628SOL    HW114284   2.260   0.715   3.641  0.5036 -1.0717 -0.5168
 4628SOL    HW214285   2.186   0.594   3.693 -0.8618 -0.3621 -0.7566
 4629SOL     OW14286   1.477   5.902   0.473 -0.4257  0.4776 -0.2451
 4629SOL    HW114287   1.447   5.812   0.461 -0.8958  0.7417 -1.1600
 4629SOL    HW214288   1.472   5.941   0.386  1.2614  0.9603 -0.1618
 4630SOL     OW14289   0.709   3.272   0.943 -0.5418  0.1719 -0.8961
 4630SOL    HW114290   0.639   3.213   0.915 -0.5848  0.4986 -1.5058
 4630SOL    HW214291   0.774   3.267   0.873 -0.7615  1.1971 -1.1993
 4631SOL     OW14292   0.986   4.079   0.222  0.3323 -0.2658  0.5338
 4631SOL    HW114293   0.918   4.012   0.226  0.6784 -0.6287  0.4516
 4631SOL    HW214294   1.044   4.049   0.152 -0.6049  1.1831 -0.9199
 4632SOL     OW14295   6.374   6.109   4.109  0.2177 -0.3098  0.1892
 4632SOL    HW114296   6.382   6.043   4.178  1.6131 -0.3858 -0.0014
 4632SOL    HW214297   6.464   6.123   4.079 -0.0830  1.4357 -0.0147
 4633SOL     OW14298   2.322   1.174   0.236 -0.3364 -0.0295  0.1587
 4633SOL    HW114299   2.415   1.159   0.254 -0.0869  0.4349 -0.6903
 4633SOL    HW214300   2.304   1.260   0.274 -0.5648 -0.3469  0.7917
 4634SOL     OW14301   5.786   5.954   6.407  0.1653  0.0378 -0.3627
 4634SOL    HW114302   5.743   6.008   6.340  0.0513 -1.3211 -1.4106
 4634SOL    HW214303   5.719   5.943   6.475 -0.9933 -1.5105 -1.6759
 4635SOL     OW14304   1.955   3.393   0.960 -0.3608  0.3066  0.7007
 4635SOL    HW114305   2.019   3.464   0.966 -0.8889  0.6711  2.7209
 4635SOL    HW214306   1.978   3.333   1.031 -0.9088 -0.7194  0.0365
 4636SOL     OW14307   1.497   2.975   1.272 -0.0363 -0.1861  0.2208
 4636SOL    HW114308   1.472   2.912   1.204  0.2082 -0.5114  0.4269
 4636SOL    HW214309   1.428   2.968   1.338  0.0139 -0.2748  0.2648
 4637SOL     OW14310   6.701   1.204   2.372  0.3050  0.0778 -0.0473
 4637SOL    HW114311   6.707   1.146   2.295  0.8545  2.4787 -1.9230
 4637SOL    HW214312   6.791   1.219   2.398  0.1653  0.1023  0.4262
 4638SOL     OW14313   2.625   3.644   1.898  0.0532  0.2375 -0.3270
 4638SOL    HW114314   2.624   3.700   1.976 -1.2611 -2.7068  2.0027
 4638SOL    HW214315   2.533   3.620   1.885  0.3954 -0.1957 -2.1546
 4639SOL     OW14316   1.040   3.404   1.403 -0.3021  0.3044  0.1484
 4639SOL    HW114317   1.128   3.379   1.375  0.5321  1.8552  1.2853
 4639SOL    HW214318   0.985   3.387   1.326  0.7239 -1.8782 -0.1857
 4640SOL     OW14319   3.657   5.849   5.032 -0.3328 -0.1358 -0.0424
 4640SOL    HW114320   3.657   5.943   5.052  1.2479 -0.0632 -0.2728
 4640SOL    HW214321   3.730   5.814   5.082  0.2878 -0.9057 -1.4447
 4641SOL     OW14322   5.253   2.298   5.473 -0.3446 -0.5167  0.8363
 4641SOL    HW114323   5.209   2.340   5.399 -2.1380 -0.8661  1.6699
 4641SOL    HW214324   5.320   2.361   5.498  2.3681 -1.5584 -2.8164
 4642SOL     OW14325   6.282   6.317   4.251 -0.2430 -0.2180 -0.7552
 4642SOL    HW114326   6.321   6.240   4.210  1.3647  0.5695 -0.7548
 4642SOL    HW214327   6.239   6.363   4.179  1.6097  0.5719 -1.4185
 4643SOL     OW14328   3.563   5.015   3.243 -0.0019  0.4367  0.1137
 4643SOL    HW114329   3.630   4.956   3.208 -1.3985 -1.5744  0.6644
 4643SOL    HW214330   3.480   4.976   3.214 -0.9884  2.1698  0.4982
 4644SOL     OW14331   2.788   3.401   1.923  0.6435 -0.2075  0.3529
 4644SOL    HW114332   2.778   3.400   2.018  0.2190  1.4949  0.3611
 4644SOL    HW214333   2.743   3.480   1.895 -1.5563 -1.9962 -1.5703
 4645SOL     OW14334   4.667   0.439   6.768 -0.1703 -0.1141  0.0127
 4645SOL    HW114335   4.745   0.461   6.717  1.8878 -1.9277  2.1448
 4645SOL    HW214336   4.606   0.510   6.750  2.2569  1.8255 -1.1722
 4646SOL     OW14337   6.400   3.552   0.474 -0.4963  0.1178  0.4732
 4646SOL    HW114338   6.408   3.633   0.525 -1.8092 -1.1223  2.7758
 4646SOL    HW214339   6.467   3.494   0.511  0.1513 -0.0416 -0.8844
 4647SOL     OW14340   6.439   6.154   2.406  0.1126  0.5573 -0.3936
 4647SOL    HW114341   6.344   6.142   2.408  0.2330 -0.4804 -0.2266
 4647SOL    HW214342   6.469   6.090   2.342  0.7770  0.2718  0.1987
 4648SOL     OW14343   3.389   3.808   3.392 -0.2536 -0.2094 -0.5741
 4648SOL    HW114344   3.344   3.822   3.308  0.5625 -0.7611 -1.1238
 4648SOL    HW214345   3.318   3.797   3.456 -0.9803 -2.6783 -1.6791
 4649SOL     OW14346   1.001   0.198   0.930 -0.5770 -0.0543 -0.2247
 4649SOL    HW114347   0.948   0.119   0.937 -0.8512  0.1773  0.3745
 4649SOL    HW214348   0.939   0.270   0.946 -0.6799  0.3975 -2.2698
 4650SOL     OW14349   4.993   2.972   5.584  0.0328 -0.1787 -0.2213
 4650SOL    HW114350   5.003   3.028   5.661 -0.8714  0.4762 -0.5668
 4650SOL    HW214351   5.062   2.905   5.594  0.7603  0.6517  0.4826
 4651SOL     OW14352   1.325   5.634   3.644  0.6636  0.0803  0.1352
 4651SOL    HW114353   1.310   5.566   3.579  1.5290 -0.1893  0.2037
 4651SOL    HW214354   1.312   5.716   3.597 -0.6046 -0.1123  0.1070
 4652SOL     OW14355   3.564   3.687   3.220 -0.2887  0.3997 -0.4254
 4652SOL    HW114356   3.511   3.628   3.166 -0.1902 -0.7783  0.7111
 4652SOL    HW214357   3.500   3.736   3.272 -0.3180 -1.5769  1.5146
 4653SOL     OW14358   0.820   1.903   5.635  0.2553  0.1691 -0.0329
 4653SOL    HW114359   0.744   1.961   5.647  0.2157 -0.1002  1.0638
 4653SOL    HW214360   0.896   1.961   5.642  0.2460 -0.0147  1.9067
 4654SOL     OW14361   6.399   5.527   1.810  0.0455  0.0608  0.1843
 4654SOL    HW114362   6.485   5.563   1.792  1.4977 -2.3370  1.6513
 4654SOL    HW214363   6.403   5.437   1.777 -1.5416 -0.3973  1.0981
 4655SOL     OW14364   1.509   5.330   6.396 -0.5332 -0.0059 -0.5409
 4655SOL    HW114365   1.432   5.294   6.352 -1.8228  0.7287  0.9906
 4655SOL    HW214366   1.500   5.301   6.487  1.5675 -0.7509 -0.5217
 4656SOL     OW14367   0.679   4.636   0.704  0.6949 -0.2304 -0.2422
 4656SOL    HW114368   0.677   4.630   0.608  1.8275  2.3904 -0.5346
 4656SOL    HW214369   0.657   4.548   0.734 -2.2957 -0.5498 -2.8382
 4657SOL     OW14370   5.958   4.604   4.371 -0.1352 -0.3033  0.4140
 4657SOL    HW114371   6.044   4.577   4.404  0.0478 -0.9548 -0.5389
 4657SOL    HW214372   5.968   4.601   4.275 -0.8635  0.7879  0.2920
 4658SOL     OW14373   2.385   1.864   4.634 -0.1503  0.2972  0.2203
 4658SOL    HW114374   2.357   1.806   4.705  1.4704 -1.9355 -0.8180
 4658SOL    HW214375   2.415   1.804   4.565  0.5388  2.3979 -1.4066
 4659SOL     OW14376   0.426   4.747   1.286 -0.2561 -0.7119  0.2120
 4659SOL    HW114377   0.443   4.694   1.208  2.7754 -0.9035  0.9006
 4659SOL    HW214378   0.388   4.685   1.348 -3.6226 -0.3549 -1.2730
 4660SOL     OW14379   1.288   2.778   2.580 -0.1299 -0.0522  0.8444
 4660SOL    HW114380   1.299   2.699   2.528  0.1873  1.3769 -1.3738
 4660SOL    HW214381   1.202   2.768   2.622 -0.5177 -1.1600 -0.1696
 4661SOL     OW14382   6.283   3.571   2.902 -0.1059 -0.0418 -0.0182
 4661SOL    HW114383   6.337   3.500   2.938  0.5441  0.0199 -0.8427
 4661SOL    HW214384   6.287   3.558   2.807 -3.4611 -1.4733 -0.1149
 4662SOL     OW14385   4.990   1.096   1.124  0.3463  0.1681  0.1493
 4662SOL    HW114386   5.086   1.086   1.122  0.5433  1.7220  0.6835
 4662SOL    HW214387   4.961   1.064   1.039  1.4196  0.3556 -0.3017
 4663SOL     OW14388   4.109   5.956   0.785  0.1844  0.7261 -0.4076
 4663SOL    HW114389   4.043   5.992   0.844 -0.6067 -2.9244  1.1709
 4663SOL    HW214390   4.061   5.939   0.703 -0.9283 -1.6410  0.6369
 4664SOL     OW14391   2.889   6.355   4.005 -0.4839 -0.4039 -0.3995
 4664SOL    HW114392   2.940   6.435   3.990  0.1391 -1.0793 -2.1612
 4664SOL    HW214393   2.829   6.378   4.076 -1.5375  2.2186 -2.0012
 4665SOL     OW14394   3.776   1.030   0.225 -0.1825  0.1693 -0.2039
 4665SOL    HW114395   3.859   1.068   0.197  0.0808 -0.0213  0.2894
 4665SOL    HW214396   3.772   0.945   0.180 -0.5974  0.6161 -1.0196
 4666SOL     OW14397   5.077   1.784   4.086 -0.0782 -0.7089  0.3081
 4666SOL    HW114398   5.161   1.823   4.062 -0.7410  0.1358 -0.7233
 4666SOL    HW214399   5.011   1.844   4.051 -1.1449 -2.4101 -0.7788
 4667SOL     OW14400   4.736   0.943   0.504 -0.1467 -0.1668 -0.2205
 4667SOL    HW114401   4.753   0.907   0.417 -0.7754 -1.9846  0.3685
 4667SOL    HW214402   4.785   0.887   0.564 -1.6454 -0.4657  0.7903
 4668SOL     OW14403   5.361   3.661   3.706  0.0154  0.0201  0.5646
 4668SOL    HW114404   5.335   3.577   3.743 -0.3704  0.3475  1.0401
 4668SOL    HW214405   5.407   3.705   3.777 -0.6356  0.6054  0.6273
 4669SOL     OW14406   6.502   3.022   1.488  0.2477 -0.2145 -0.2360
 4669SOL    HW114407   6.490   3.094   1.550 -1.5437  0.9032 -1.8004
 4669SOL    HW214408   6.425   2.966   1.502  1.9851 -2.3840  1.5211
 4670SOL     OW14409   3.192   5.266   2.922 -0.3944 -0.6706  0.0708
 4670SOL    HW114410   3.225   5.233   3.006 -0.6563 -1.6128 -0.1854
 4670SOL    HW214411   3.249   5.339   2.901  1.4050 -2.0899 -0.2279
 4671SOL     OW14412   6.196   4.415   1.677  0.4320 -0.1231  0.3831
 4671SOL    HW114413   6.141   4.460   1.613  0.7570 -0.4609 -0.1403
 4671SOL    HW214414   6.152   4.429   1.761 -0.2013 -0.0045  0.0351
 4672SOL     OW14415   0.880   6.682   3.650  0.2306 -0.2908 -0.1087
 4672SOL    HW114416   0.871   6.773   3.679  0.5375 -0.1708 -0.3860
 4672SOL    HW214417   0.892   6.633   3.731 -1.4596 -0.2875  0.1801
 4673SOL     OW14418   1.203   6.212   6.365  0.0549  0.1312  0.1205
 4673SOL    HW114419   1.220   6.128   6.407  3.6619  0.0463 -1.1246
 4673SOL    HW214420   1.265   6.273   6.407 -1.7225  1.9697  0.2500
 4674SOL     OW14421   3.713   0.051   2.445 -0.3030 -0.7191 -0.0375
 4674SOL    HW114422   3.809   0.045   2.444 -0.0824  1.9473 -0.9519
 4674SOL    HW214423   3.689   0.027   2.534  0.9879 -3.3203 -0.2790
 4675SOL     OW14424   0.463   5.541   5.881 -0.7780 -0.1132 -0.0710
 4675SOL    HW114425   0.533   5.564   5.942 -0.1042 -0.3524 -0.7394
 4675SOL    HW214426   0.419   5.624   5.863 -0.3004  0.1406 -0.0872
 4676SOL     OW14427   3.721   0.570   0.148 -0.0887  0.1794  0.3444
 4676SOL    HW114428   3.769   0.634   0.096 -1.2612 -0.8224 -2.1561
 4676SOL    HW214429   3.637   0.612   0.166 -1.0751 -0.7513 -1.7759
 4677SOL     OW14430   3.547   6.769   4.653  0.5194  0.0742 -0.0288
 4677SOL    HW114431   3.522   6.697   4.711 -1.1283 -0.8980 -1.8410
 4677SOL    HW214432   3.470   6.825   4.648  0.7356  0.3187 -1.0046
 4678SOL     OW14433   6.320   6.209   1.998  0.2161 -0.0830  0.5061
 4678SOL    HW114434   6.379   6.262   1.944 -1.3981  0.0442 -1.2440
 4678SOL    HW214435   6.326   6.121   1.961 -1.9688  0.2893 -0.9459
 4679SOL     OW14436   3.402   1.822   3.357  0.4110  0.2432 -0.0646
 4679SOL    HW114437   3.456   1.744   3.370 -1.7786 -1.4469 -0.5264
 4679SOL    HW214438   3.325   1.791   3.310 -0.6998  2.6405  0.0091
 4680SOL     OW14439   1.604   6.581   4.624 -0.2306 -0.1109 -0.5088
 4680SOL    HW114440   1.579   6.559   4.714 -0.2025  0.7180 -0.2983
 4680SOL    HW214441   1.612   6.676   4.623  1.5842 -0.2376 -0.9170
 4681SOL     OW14442   6.404   6.064   0.246 -0.2123 -0.2117 -0.0067
 4681SOL    HW114443   6.329   6.081   0.303 -0.2933 -1.7066  0.3610
 4681SOL    HW214444   6.440   5.981   0.276  2.2136  0.9046  0.4461
 4682SOL     OW14445   6.569   4.814   4.041  0.1858 -0.3218  0.6346
 4682SOL    HW114446   6.515   4.767   4.104  0.1055  0.1359  0.9061
 4682SOL    HW214447   6.627   4.867   4.095  0.4607 -0.3132  0.3301
 4683SOL     OW14448   1.598   5.172   6.616  0.5483 -0.4975  0.0305
 4683SOL    HW114449   1.565   5.125   6.692 -0.0504 -2.6855 -1.4715
 4683SOL    HW214450   1.685   5.203   6.641 -0.9462  2.0156  2.7635
 4684SOL     OW14451   6.011   3.008   1.524  0.5834  0.2371 -0.4179
 4684SOL    HW114452   5.951   3.079   1.543  1.2419  0.2720  1.8396
 4684SOL    HW214453   5.974   2.932   1.568  1.6113  0.0104  0.0991
 4685SOL     OW14454   5.887   1.095   6.744 -0.0289  0.5627 -0.1828
 4685SOL    HW114455   5.887   1.004   6.712 -3.2159  0.4263 -0.1288
 4685SOL    HW214456   5.867   1.148   6.667 -2.4328  0.7419  0.4934
 4686SOL     OW14457   6.780   2.376   5.966  0.3628  0.2271 -0.0028
 4686SOL    HW114458   6.722   2.439   6.009 -1.1947  0.0499 -1.6755
 4686SOL    HW214459   6.830   2.336   6.037 -1.8141  0.1712  1.6118
 4687SOL     OW14460   2.041   5.583   2.167  0.4617 -0.2057 -0.5444
 4687SOL    HW114461   2.098   5.660   2.175  2.2434 -1.3215 -1.6426
 4687SOL    HW214462   2.086   5.515   2.219 -0.1219 -0.9821 -1.0388
 4688SOL     OW14463   1.005   5.317   4.936 -0.2398  0.0244 -0.5226
 4688SOL    HW114464   1.074   5.369   4.894  0.1782 -0.0900  0.0025
 4688SOL    HW214465   0.951   5.382   4.982  0.1091  0.0274 -0.1100
 4689SOL     OW14466   0.756   4.296   6.641  0.0843 -0.5843  0.2484
 4689SOL    HW114467   0.766   4.310   6.547  0.8519  0.5757  0.4766
 4689SOL    HW214468   0.675   4.343   6.664  2.3557  3.5119  0.9140
 4690SOL     OW14469   1.937   0.653   0.731 -0.1804 -0.0135  0.5809
 4690SOL    HW114470   2.018   0.699   0.754 -0.2581  0.2063  0.4213
 4690SOL    HW214471   1.907   0.613   0.812  0.2277 -0.3097  0.5872
 4691SOL     OW14472   4.034   2.404   4.003  0.2270 -0.1005  0.3776
 4691SOL    HW114473   4.020   2.331   3.942 -0.8274  0.1525  0.2996
 4691SOL    HW214474   3.996   2.373   4.085  1.0122 -0.1629  0.7286
 4692SOL     OW14475   1.438   2.433   3.867 -0.0592 -0.3039  0.3244
 4692SOL    HW114476   1.381   2.507   3.847  1.8416  1.2061  0.1946
 4692SOL    HW214477   1.379   2.366   3.900 -1.7777  1.5616  1.2688
 4693SOL     OW14478   1.353   0.394   5.583 -0.2212  0.0700 -0.3045
 4693SOL    HW114479   1.271   0.345   5.591 -0.0575 -0.1900 -0.1970
 4693SOL    HW214480   1.351   0.430   5.495 -1.1503  1.3428  0.2166
 4694SOL     OW14481   4.501   1.569   5.762  0.3692  0.4024 -0.5116
 4694SOL    HW114482   4.533   1.651   5.798 -1.4566  0.6512  0.6636
 4694SOL    HW214483   4.504   1.507   5.835 -2.2976  0.6131 -0.1017
 4695SOL     OW14484   6.037   1.167   4.326  0.1125 -0.0928 -0.0241
 4695SOL    HW114485   6.070   1.255   4.311  0.2918 -0.2106 -0.3274
 4695SOL    HW214486   5.975   1.177   4.398 -0.0635  0.3279 -0.2272
 4696SOL     OW14487   3.159   4.371   4.857  0.2848  0.3120  0.0327
 4696SOL    HW114488   3.183   4.429   4.785  0.5397  0.9883  0.6466
 4696SOL    HW214489   3.097   4.422   4.909 -2.2915 -1.2363 -1.3103
 4697SOL     OW14490   0.223   6.543   5.425 -0.1636 -0.3497  0.1024
 4697SOL    HW114491   0.212   6.452   5.454  0.2179 -0.1374  0.9223
 4697SOL    HW214492   0.158   6.592   5.474 -0.3148 -0.1646 -0.2814
 4698SOL     OW14493   0.640   0.065   5.171  0.0516  0.0682 -0.4443
 4698SOL    HW114494   0.669  -0.012   5.220 -2.1515 -0.5736 -0.0200
 4698SOL    HW214495   0.715   0.088   5.116  1.5180 -1.0741  0.9566
 4699SOL     OW14496   0.100   4.883   3.722  0.2905 -0.0455 -0.2503
 4699SOL    HW114497   0.167   4.912   3.660 -0.9552  1.3366 -1.0085
 4699SOL    HW214498   0.114   4.937   3.799 -0.4035  0.7990 -0.6979
 4700SOL     OW14499   1.632   0.478   2.361 -0.2242  0.6921  0.4313
 4700SOL    HW114500   1.643   0.413   2.430 -1.1746 -0.3130 -0.3200
 4700SOL    HW214501   1.657   0.561   2.401  0.5687 -0.0713  1.5531
 4701SOL     OW14502   0.214   4.283   0.658 -0.5563 -0.3192  0.2173
 4701SOL    HW114503   0.289   4.232   0.689 -0.6771 -0.4480  0.3015
 4701SOL    HW214504   0.152   4.217   0.628 -0.7532 -0.2264  0.4166
 4702SOL     OW14505   0.248   5.594   6.313 -0.2097 -0.5806 -0.2109
 4702SOL    HW114506   0.341   5.613   6.321 -0.2886 -0.4323  0.4243
 4702SOL    HW214507   0.208   5.639   6.387 -0.4270 -2.9527  1.2445
 4703SOL     OW14508   5.238   5.337   3.004 -0.0459  0.3260 -0.0154
 4703SOL    HW114509   5.283   5.394   3.067 -0.3528  0.6702 -0.1043
 4703SOL    HW214510   5.146   5.361   3.011 -0.2262 -0.3928  0.1822
 4704SOL     OW14511   6.592   4.340   0.697 -0.4929 -0.0205 -0.4195
 4704SOL    HW114512   6.588   4.436   0.699  0.3853  0.0123  1.5414
 4704SOL    HW214513   6.586   4.314   0.788  3.2168 -1.6305 -0.4675
 4705SOL     OW14514   1.247   4.140   5.431 -0.0630  0.2947  0.0519
 4705SOL    HW114515   1.264   4.121   5.339 -3.0231  0.5240 -0.6284
 4705SOL    HW214516   1.185   4.073   5.459 -1.3424  1.8317  1.0503
 4706SOL     OW14517   5.952   4.305   1.279 -0.1824 -0.4582  0.4183
 4706SOL    HW114518   5.951   4.365   1.354  0.6907 -1.2373  1.0748
 4706SOL    HW214519   5.924   4.221   1.315 -0.4192 -0.6863 -0.2774
 4707SOL     OW14520   1.023   1.659   5.144 -0.2112  0.2473 -0.2074
 4707SOL    HW114521   0.954   1.710   5.101  1.4071  0.1996 -3.0930
 4707SOL    HW214522   1.032   1.699   5.230  0.4301  4.4574 -1.9830
 4708SOL     OW14523   2.911   1.005   6.232 -0.0258 -0.3520 -0.2204
 4708SOL    HW114524   2.864   1.037   6.155 -0.0262  0.1223 -0.0238
 4708SOL    HW214525   2.843   0.983   6.295 -0.0097 -0.3245 -0.1932
 4709SOL     OW14526   2.109   3.393   3.868 -0.1439 -0.5165  0.5808
 4709SOL    HW114527   2.082   3.475   3.911  1.1795  0.2673 -0.0318
 4709SOL    HW214528   2.178   3.358   3.924  0.0507 -0.6379  0.2671
 4710SOL     OW14529   1.129   0.754   4.319  0.3508 -0.0841 -0.2909
 4710SOL    HW114530   1.118   0.769   4.413 -0.7340 -0.8779 -0.2668
 4710SOL    HW214531   1.183   0.675   4.313  1.3037  0.5545 -0.3618
 4711SOL     OW14532   5.245   2.021   5.481 -0.3702  0.1793 -0.0277
 4711SOL    HW114533   5.253   1.987   5.570  1.3329 -0.2468 -0.3064
 4711SOL    HW214534   5.230   2.115   5.493 -1.3948 -0.0572  0.7027
 4712SOL     OW14535   1.639   4.807   1.338  0.5523 -0.8035 -0.2923
 4712SOL    HW114536   1.710   4.789   1.399  0.9775 -3.4433 -1.4597
 4712SOL    HW214537   1.610   4.721   1.307 -2.2854  0.2356 -0.8644
 4713SOL     OW14538   2.956   2.149   0.176 -0.1801  0.3363 -0.0918
 4713SOL    HW114539   2.974   2.075   0.234 -1.3048 -0.1821 -0.3710
 4713SOL    HW214540   2.883   2.119   0.122 -1.6949  2.1764  0.8029
 4714SOL     OW14541   3.166   1.521   5.074 -0.1509  0.1687 -0.7928
 4714SOL    HW114542   3.235   1.505   5.138  1.4272  0.5698 -2.3143
 4714SOL    HW214543   3.181   1.610   5.044 -1.1345  0.1466 -1.4129
 4715SOL     OW14544   6.726   3.509   2.156 -0.0128  0.4423 -0.5496
 4715SOL    HW114545   6.649   3.456   2.175  0.5093  0.5106  2.1851
 4715SOL    HW214546   6.800   3.449   2.169  0.5925  1.6766  2.7096
 4716SOL     OW14547   2.193   0.885   1.372 -0.1426  0.0220 -0.3854
 4716SOL    HW114548   2.198   0.965   1.424 -0.6189 -0.6254  0.6986
 4716SOL    HW214549   2.284   0.866   1.349  0.2072 -0.1898  1.0578
 4717SOL     OW14550   4.169   4.452   6.518  0.9222  0.6262 -0.5425
 4717SOL    HW114551   4.154   4.541   6.485 -1.2938 -0.4908 -2.9714
 4717SOL    HW214552   4.085   4.425   6.555  1.2937 -0.6980 -0.5919
 4718SOL     OW14553   2.316   3.600   1.204 -0.0757 -0.2639 -0.4467
 4718SOL    HW114554   2.351   3.557   1.127  1.1912  0.6080 -0.3836
 4718SOL    HW214555   2.284   3.529   1.259 -3.4487 -0.8432 -2.8269
 4719SOL     OW14556   6.320   3.876   2.070 -0.7336 -0.4096  0.0532
 4719SOL    HW114557   6.230   3.854   2.094 -0.8107 -1.0808 -0.7950
 4719SOL    HW214558   6.323   3.865   1.975  0.3671 -0.8788  0.1274
 4720SOL     OW14559   6.727   1.295   5.174 -0.5607 -0.2832 -0.1237
 4720SOL    HW114560   6.783   1.361   5.215 -1.5356  0.9563 -0.6816
 4720SOL    HW214561   6.761   1.211   5.204  1.4635  0.4144 -0.3154
 4721SOL     OW14562   0.887   4.955   5.835  0.4769  0.2954 -0.0877
 4721SOL    HW114563   0.801   4.948   5.793  0.3679  0.7442  0.0528
 4721SOL    HW214564   0.949   4.926   5.769  0.1280 -1.0853  0.1732
 4722SOL     OW14565   4.200   1.857   3.398  0.2721  0.1377 -0.2655
 4722SOL    HW114566   4.131   1.899   3.347 -0.1093 -1.6877 -1.3429
 4722SOL    HW214567   4.280   1.875   3.350  0.3073  0.7241  0.0017
 4723SOL     OW14568   4.514   2.009   6.698 -0.1993  0.0542  0.3071
 4723SOL    HW114569   4.520   1.920   6.734 -1.0905 -0.3665 -0.5454
 4723SOL    HW214570   4.596   2.021   6.650 -0.7314 -0.9227 -0.8942
 4724SOL     OW14571   1.357   5.661   2.637 -0.5259 -0.2443 -0.6868
 4724SOL    HW114572   1.383   5.732   2.578 -1.5075 -1.8715 -3.2809
 4724SOL    HW214573   1.439   5.622   2.666  0.0886  2.4636  1.6655
 4725SOL     OW14574   5.421   6.307   6.714  0.2190 -0.0976  0.0905
 4725SOL    HW114575   5.355   6.372   6.737  1.6398  1.1031  0.9604
 4725SOL    HW214576   5.372   6.225   6.704 -1.3080  0.6150  1.3240
 4726SOL     OW14577   1.738   0.648   2.613 -0.1153  0.8753 -0.0880
 4726SOL    HW114578   1.815   0.676   2.564  0.3565  0.4166  0.3809
 4726SOL    HW214579   1.773   0.601   2.688 -0.8631 -0.8608 -0.7641
 4727SOL     OW14580   1.261   0.737   2.514 -0.3464 -0.3174 -0.0883
 4727SOL    HW114581   1.354   0.724   2.499 -0.0588 -1.0362  1.9366
 4727SOL    HW214582   1.253   0.829   2.540 -0.3437 -0.0410 -1.0226
 4728SOL     OW14583   0.146   4.832   2.920 -0.0342  0.0699  0.1784
 4728SOL    HW114584   0.071   4.846   2.977 -0.2604  0.8850 -0.3065
 4728SOL    HW214585   0.111   4.839   2.831  0.3041 -1.2334 -0.0903
 4729SOL     OW14586   3.773   1.103   1.437 -0.5558 -0.1845  0.1090
 4729SOL    HW114587   3.749   1.021   1.480  1.5708  0.0997  2.0235
 4729SOL    HW214588   3.866   1.093   1.416  0.1894  2.2099  1.7829
 4730SOL     OW14589   3.150   0.243   1.011 -0.2361 -0.6587 -0.7703
 4730SOL    HW114590   3.110   0.317   1.057 -0.2438 -0.7738 -0.5892
 4730SOL    HW214591   3.126   0.167   1.063  1.1605 -0.6126 -0.0138
 4731SOL     OW14592   5.839   1.105   4.916 -0.0524  0.3613  0.4403
 4731SOL    HW114593   5.855   1.037   4.981  1.9114 -0.0966 -0.4339
 4731SOL    HW214594   5.753   1.085   4.880 -0.0618 -0.8905  1.1149
 4732SOL     OW14595   3.438   6.400   0.738 -0.1835  0.1823 -0.0549
 4732SOL    HW114596   3.351   6.410   0.776 -0.3842  1.9718 -0.8711
 4732SOL    HW214597   3.493   6.462   0.786  0.5350 -0.6151  0.1595
 4733SOL     OW14598   1.937   4.898   1.826  0.5761  0.2351  0.2720
 4733SOL    HW114599   1.966   4.985   1.854 -0.9075  0.2705  1.9085
 4733SOL    HW214600   1.843   4.907   1.812  0.5695 -0.8768 -0.5802
 4734SOL     OW14601   3.095   4.745   0.621  0.2020  0.2651 -0.2815
 4734SOL    HW114602   3.172   4.722   0.568  1.3232  0.7614  1.0606
 4734SOL    HW214603   3.067   4.662   0.659  0.4444  0.1726 -0.3000
 4735SOL     OW14604   2.728   0.021   0.276  0.0425 -0.3515  0.2926
 4735SOL    HW114605   2.776  -0.060   0.293  1.5640  0.2361 -0.9792
 4735SOL    HW214606   2.786   0.073   0.221 -1.5229  0.9729 -0.2128
 4736SOL     OW14607   5.001   4.688   3.676  0.1510 -0.0664 -0.8957
 4736SOL    HW114608   4.911   4.680   3.645  0.4060 -1.9863 -1.2528
 4736SOL    HW214609   5.035   4.765   3.630 -0.9892  0.0671 -1.5600
 4737SOL     OW14610   3.612   5.270   1.501  0.0826 -0.1153  0.6376
 4737SOL    HW114611   3.660   5.194   1.531  1.2739 -0.0367 -0.9124
 4737SOL    HW214612   3.523   5.239   1.485  0.0524 -0.6890  1.8870
 4738SOL     OW14613   1.464   3.433   6.196 -0.0969  0.4276 -0.4610
 4738SOL    HW114614   1.390   3.407   6.141 -1.2886  1.4386  0.6114
 4738SOL    HW214615   1.498   3.350   6.231 -2.2898  0.0580  0.9789
 4739SOL     OW14616   5.166   1.717   5.422 -0.3283  0.0938 -1.0877
 4739SOL    HW114617   5.184   1.715   5.515 -0.4710 -0.0813 -1.0644
 4739SOL    HW214618   5.246   1.752   5.383 -0.0637 -0.3471 -0.9526
 4740SOL     OW14619   1.459   6.225   1.950  0.6227 -0.4341  0.1618
 4740SOL    HW114620   1.396   6.162   1.985  0.2494 -0.4408 -0.5097
 4740SOL    HW214621   1.531   6.171   1.918  1.5078 -0.3701  1.9478
 4741SOL     OW14622   0.646   6.480   3.946  0.0925  0.2532  0.4249
 4741SOL    HW114623   0.679   6.394   3.973  0.8288  0.3106 -0.2620
 4741SOL    HW214624   0.650   6.533   4.025  1.1432  0.0951  0.4893
 4742SOL     OW14625   2.155   3.128   6.669  0.1395 -0.0738 -0.1942
 4742SOL    HW114626   2.116   3.073   6.600 -0.5925 -2.2886  1.8468
 4742SOL    HW214627   2.249   3.109   6.665 -0.2229 -2.4804  1.2069
 4743SOL     OW14628   4.285   3.781   5.260  0.0511  0.5258 -0.0488
 4743SOL    HW114629   4.260   3.806   5.171  1.4896  0.0362 -0.6167
 4743SOL    HW214630   4.360   3.723   5.248  0.6041  0.8760  1.5118
 4744SOL     OW14631   1.862   0.742   0.405  0.1285  0.4942 -0.6438
 4744SOL    HW114632   1.853   0.683   0.480  0.6065  0.8233 -0.3275
 4744SOL    HW214633   1.952   0.732   0.377  0.6067  2.0123  0.2085
 4745SOL     OW14634   2.073   3.349   0.108 -0.5132 -0.2901  0.0929
 4745SOL    HW114635   2.154   3.303   0.087 -0.8837 -0.1960 -1.6943
 4745SOL    HW214636   2.008   3.280   0.121 -0.2914 -0.3486  0.9199
 4746SOL     OW14637   6.458   6.514   5.518 -0.5520  0.0664  0.2896
 4746SOL    HW114638   6.488   6.470   5.597 -1.2134 -0.2205  0.3834
 4746SOL    HW214639   6.363   6.519   5.527 -0.5404  0.9714  0.0009
 4747SOL     OW14640   2.094   5.015   4.498  0.2874 -0.6748 -0.4027
 4747SOL    HW114641   2.177   5.032   4.453  0.2878 -2.3571 -1.1248
 4747SOL    HW214642   2.027   5.054   4.441  0.5051 -0.2675 -0.3778
 4748SOL     OW14643   1.310   0.298   3.240  0.0876  0.3660  0.8142
 4748SOL    HW114644   1.356   0.310   3.157  0.3253 -2.2789  0.4691
 4748SOL    HW214645   1.300   0.386   3.275 -0.8555  1.7225 -2.4538
 4749SOL     OW14646   6.701   3.331   6.415 -0.2496 -0.1776  0.1133
 4749SOL    HW114647   6.663   3.418   6.424 -0.4630 -0.2769  0.1826
 4749SOL    HW214648   6.647   3.275   6.471 -0.2091 -0.3810 -0.0482
 4750SOL     OW14649   0.694   4.316   2.899  0.0886  0.2153 -0.0480
 4750SOL    HW114650   0.744   4.330   2.980  0.2626  1.1593 -0.3175
 4750SOL    HW214651   0.683   4.403   2.862 -0.1998 -0.1914 -0.9278
 4751SOL     OW14652   3.891   3.285   0.502  0.1281  0.7140  0.5045
 4751SOL    HW114653   3.919   3.239   0.581  0.9075  0.5069  0.1193
 4751SOL    HW214654   3.964   3.276   0.442 -0.5156  0.7457 -0.2996
 4752SOL     OW14655   6.455   1.292   0.164 -0.7205 -0.0377 -0.2039
 4752SOL    HW114656   6.526   1.324   0.220 -0.6578 -0.0010 -0.3043
 4752SOL    HW214657   6.474   1.328   0.077 -0.3259 -0.8184 -0.4516
 4753SOL     OW14658   0.265   4.236   2.977  0.3864 -0.1727  0.5446
 4753SOL    HW114659   0.224   4.177   3.040 -0.2201 -0.9929 -0.5723
 4753SOL    HW214660   0.217   4.319   2.986  1.1290  0.1305  2.0046
 4754SOL     OW14661   0.165   5.223   1.504  0.5727  0.1522  0.0578
 4754SOL    HW114662   0.123   5.212   1.419  2.2500  0.9410 -0.9233
 4754SOL    HW214663   0.175   5.134   1.538 -2.1134 -0.0733  0.5294
 4755SOL     OW14664   0.025   0.491   2.403 -0.0564  0.1960  0.2176
 4755SOL    HW114665   0.103   0.471   2.352  0.5433  0.6196  0.9475
 4755SOL    HW214666   0.035   0.439   2.483 -0.0343  0.9723  0.7342
 4756SOL     OW14667   5.444   2.404   3.538  0.4729  0.1890  0.2431
 4756SOL    HW114668   5.412   2.369   3.455  0.4692  1.8013 -0.4737
 4756SOL    HW214669   5.512   2.342   3.565  1.2267  0.1875 -1.5243
 4757SOL     OW14670   6.007   3.070   5.226  0.0259 -0.3406  0.3310
 4757SOL    HW114671   6.084   3.041   5.274  2.9529  2.3659 -2.2933
 4757SOL    HW214672   6.001   3.011   5.152 -0.8012 -0.8720  0.8090
 4758SOL     OW14673   4.493   3.740   0.353  0.0852  0.2265  0.6818
 4758SOL    HW114674   4.584   3.731   0.324 -0.3397  0.1086 -0.6817
 4758SOL    HW214675   4.500   3.765   0.445  1.4910 -0.1540  0.7074
 4759SOL     OW14676   6.576   2.530   6.043  0.8694  0.5772 -0.3512
 4759SOL    HW114677   6.496   2.553   6.090  0.0432 -1.2765 -0.7738
 4759SOL    HW214678   6.578   2.589   5.968  1.7762  3.0162  1.4461
 4760SOL     OW14679   3.277   3.495   1.917  0.1263 -0.4653  0.0724
 4760SOL    HW114680   3.367   3.521   1.938  0.6300  0.2972 -2.5545
 4760SOL    HW214681   3.285   3.448   1.834 -1.7400 -1.9947  0.6862
 4761SOL     OW14682   5.192   1.783   4.723  0.3800  0.4652  0.7696
 4761SOL    HW114683   5.194   1.823   4.810 -0.1670  1.9334  0.1436
 4761SOL    HW214684   5.202   1.856   4.663 -0.5464 -0.3588 -0.4306
 4762SOL     OW14685   4.674   6.033   0.810  0.5895  0.4110  0.3116
 4762SOL    HW114686   4.704   5.961   0.754  0.7281  0.5134  0.2526
 4762SOL    HW214687   4.709   6.013   0.896  1.8398  1.1279  0.0014
 4763SOL     OW14688   3.367   4.851   3.096  0.0031  0.1335  0.3543
 4763SOL    HW114689   3.290   4.813   3.138 -0.0660 -0.0391  0.0699
 4763SOL    HW214690   3.425   4.777   3.079  0.0228  0.2003  0.1249
 4764SOL     OW14691   6.522   2.030   2.637  0.2019 -0.1096 -0.2344
 4764SOL    HW114692   6.508   1.941   2.604  0.7207 -1.0731  1.8973
 4764SOL    HW214693   6.616   2.034   2.654  0.1099  0.6687  0.1225
 4765SOL     OW14694   0.867   0.718   4.012 -0.0679 -0.2537 -0.4745
 4765SOL    HW114695   0.878   0.695   3.920  1.1195 -0.6712 -0.2428
 4765SOL    HW214696   0.780   0.683   4.035 -0.5808  0.2660 -1.5350
 4766SOL     OW14697   6.136   4.062   5.995 -0.6754  0.1799  0.5618
 4766SOL    HW114698   6.052   4.021   5.976 -0.3460 -0.1174 -0.3003
 4766SOL    HW214699   6.196   4.025   5.930 -0.1290  1.2208  0.4513
 4767SOL     OW14700   6.409   6.458   4.453 -0.1777 -0.1323  0.7509
 4767SOL    HW114701   6.408   6.546   4.416  1.0131 -0.3373  0.1601
 4767SOL    HW214702   6.364   6.404   4.387 -0.1706 -0.1022  0.7212
 4768SOL     OW14703   4.391   1.943   2.331 -0.6429  0.6049 -0.1616
 4768SOL    HW114704   4.418   2.021   2.283  0.9318 -1.0860 -2.2494
 4768SOL    HW214705   4.375   1.877   2.262  2.0781 -2.0889  1.5559
 4769SOL     OW14706   0.108   5.069   4.402 -0.2974  0.2957  1.2148
 4769SOL    HW114707   0.082   5.039   4.489 -1.2037  2.2157  1.6596
 4769SOL    HW214708   0.166   5.143   4.419  1.7484 -0.9894  0.1633
 4770SOL     OW14709   3.533   3.352   3.581 -0.2369  0.4485 -0.3913
 4770SOL    HW114710   3.616   3.304   3.575  2.0129  3.4893  2.6039
 4770SOL    HW214711   3.475   3.295   3.630  1.7203 -0.0343  1.5024
 4771SOL     OW14712   0.870   4.388   3.157 -0.2882  0.5535 -0.0181
 4771SOL    HW114713   0.783   4.387   3.197 -1.9051  0.3040 -3.2497
 4771SOL    HW214714   0.882   4.478   3.127  0.1303  0.3453 -0.4869
 4772SOL     OW14715   2.625   0.064   3.412  0.1941  0.2626 -0.3047
 4772SOL    HW114716   2.691   0.055   3.343  0.5785  2.6499 -0.3386
 4772SOL    HW214717   2.623   0.158   3.431 -1.0950 -0.1211  1.7822
 4773SOL     OW14718   2.683   6.475   5.000  0.0818 -0.1055  0.5454
 4773SOL    HW114719   2.622   6.408   4.968  1.0563 -0.8581  0.2321
 4773SOL    HW214720   2.649   6.499   5.086 -0.4737 -0.7536  0.5169
 4774SOL     OW14721   5.189   2.716   5.896 -0.3131 -0.0727  0.3593
 4774SOL    HW114722   5.269   2.768   5.898 -0.6518  0.6032 -1.3974
 4774SOL    HW214723   5.138   2.744   5.972  0.2429  0.9461  0.3614
 4775SOL     OW14724   4.069   1.829   1.511  0.0039  0.1610 -0.2020
 4775SOL    HW114725   4.047   1.771   1.438  0.6598 -0.8609  0.3820
 4775SOL    HW214726   4.010   1.904   1.502  0.2149  0.1522 -1.8902
 4776SOL     OW14727   0.354   5.268   4.903 -0.9096 -0.6088  0.4752
 4776SOL    HW114728   0.290   5.201   4.927 -1.5524 -0.9767 -1.9760
 4776SOL    HW214729   0.323   5.301   4.819  1.9946 -0.6570 -0.7131
 4777SOL     OW14730   5.991   0.993   5.787  0.3582  0.0625 -0.0346
 4777SOL    HW114731   6.050   1.032   5.721 -0.9644  0.9947 -0.7173
 4777SOL    HW214732   6.045   0.928   5.831  1.5522  0.0159 -1.4614
 4778SOL     OW14733   2.631   0.738   2.593  0.3030  0.0050  0.2228
 4778SOL    HW114734   2.582   0.670   2.545 -0.2526 -0.2803  1.1637
 4778SOL    HW214735   2.568   0.810   2.603  1.1462  1.0438 -1.5038
 4779SOL     OW14736   2.373   1.125   4.788  0.0417  0.4676  0.4123
 4779SOL    HW114737   2.309   1.143   4.718  1.2428  1.0245 -0.5858
 4779SOL    HW214738   2.430   1.057   4.752  1.2301  1.4080  0.4600
 4780SOL     OW14739   1.087   3.129   2.159  0.3137  0.4506  0.0316
 4780SOL    HW114740   1.048   3.065   2.099  0.8950  0.7251 -0.6497
 4780SOL    HW214741   1.029   3.128   2.236  0.3337 -0.9229  0.0522
 4781SOL     OW14742   2.290   3.755   0.620  0.2265  0.0017 -0.5827
 4781SOL    HW114743   2.244   3.698   0.558  2.3999 -0.5827 -1.7828
 4781SOL    HW214744   2.305   3.836   0.572 -0.5788  0.6476  0.2204
 4782SOL     OW14745   1.491   1.310   2.337  0.3401  0.0547 -0.2552
 4782SOL    HW114746   1.585   1.328   2.341  0.3215 -0.0712  0.9425
 4782SOL    HW214747   1.485   1.230   2.285  1.1465 -1.5410  1.9865
 4783SOL     OW14748   2.264   1.092   2.267 -0.3463  0.0076  0.1285
 4783SOL    HW114749   2.190   1.041   2.301 -0.6043  0.0514 -0.3573
 4783SOL    HW214750   2.332   1.082   2.333 -0.6063 -0.4708  0.3316
 4784SOL     OW14751   3.656   2.798   0.189 -0.1018  0.0467 -0.3246
 4784SOL    HW114752   3.608   2.857   0.131 -0.9223  0.8356  1.1064
 4784SOL    HW214753   3.591   2.736   0.221 -0.1315  0.8588  1.2948
 4785SOL     OW14754   0.452   3.069   4.236 -0.4279  0.3602 -0.1299
 4785SOL    HW114755   0.539   3.035   4.257 -1.1139 -0.8321  0.9713
 4785SOL    HW214756   0.463   3.164   4.232  1.1165  0.1822 -1.0855
 4786SOL     OW14757   0.654   1.205   0.540 -0.0378 -0.0104  0.0799
 4786SOL    HW114758   0.623   1.242   0.623 -3.9687 -0.6183 -0.9313
 4786SOL    HW214759   0.638   1.111   0.548 -1.9028  0.0751 -1.7905
 4787SOL     OW14760   6.554   2.809   3.664  0.6545  0.2419 -0.4263
 4787SOL    HW114761   6.639   2.803   3.620  0.8566 -1.0142  0.1125
 4787SOL    HW214762   6.490   2.790   3.595  0.9101 -0.5995 -0.4431
 4788SOL     OW14763   0.169   0.695   6.577 -0.6577  0.2172 -0.3921
 4788SOL    HW114764   0.263   0.688   6.594 -0.6803  2.4096  0.9584
 4788SOL    HW214765   0.156   0.650   6.493  2.1460  2.5969 -2.2534
 4789SOL     OW14766   0.380   6.458   6.582  0.3565 -0.0306 -0.5595
 4789SOL    HW114767   0.346   6.547   6.596  0.6588  0.1521 -0.9503
 4789SOL    HW214768   0.334   6.427   6.505 -0.3852 -0.5524  0.0793
 4790SOL     OW14769   0.738   3.234   5.872  0.1495  0.0823  0.2025
 4790SOL    HW114770   0.712   3.157   5.821  1.3160 -0.5408  0.4977
 4790SOL    HW214771   0.691   3.307   5.832  1.5882 -0.2378 -2.3010
 4791SOL     OW14772   4.658   0.202   1.102  0.2473 -0.4106  0.1694
 4791SOL    HW114773   4.700   0.264   1.161 -1.1548  0.6881  0.0852
 4791SOL    HW214774   4.676   0.116   1.140  1.3830  0.1126  0.8508
 4792SOL     OW14775   2.851   0.538   0.456  0.3288  0.1814  0.1879
 4792SOL    HW114776   2.922   0.493   0.501  1.2258 -1.0177 -2.2589
 4792SOL    HW214777   2.869   0.526   0.363 -1.0816  3.0240 -0.5921
 4793SOL     OW14778   6.353   5.210   0.538  0.6095  0.2385 -0.7275
 4793SOL    HW114779   6.310   5.202   0.453 -1.7729  1.3611  0.2610
 4793SOL    HW214780   6.322   5.134   0.588  0.8701  0.3303 -0.4208
 4794SOL     OW14781   5.071   4.603   6.402 -0.9888 -0.2899  0.0231
 4794SOL    HW114782   4.978   4.579   6.410 -1.2229  0.9424  1.3011
 4794SOL    HW214783   5.101   4.615   6.492  0.4708 -0.7730 -0.3674
 4795SOL     OW14784   1.020   1.630   0.525 -0.4998 -0.0940  0.7986
 4795SOL    HW114785   1.104   1.669   0.550  0.0013  0.7372 -1.9300
 4795SOL    HW214786   1.044   1.553   0.473 -1.4034  0.2847 -0.2119
 4796SOL     OW14787   5.423   1.397   4.578  0.3765  0.4081 -0.4163
 4796SOL    HW114788   5.358   1.451   4.622 -1.1863 -1.5087 -0.2245
 4796SOL    HW214789   5.372   1.344   4.517  1.2261 -3.2295  1.7305
 4797SOL     OW14790   2.431   1.275   1.730 -0.0418 -0.7130  0.1025
 4797SOL    HW114791   2.386   1.302   1.810  0.5937  0.4627  0.0868
 4797SOL    HW214792   2.506   1.224   1.761  0.3354 -0.0637  0.2863
 4798SOL     OW14793   4.331   1.696   2.136 -0.0913 -0.0623 -0.4233
 4798SOL    HW114794   4.323   1.601   2.136  3.6333 -0.5980  1.5895
 4798SOL    HW214795   4.382   1.716   2.057  0.9269 -0.0785  0.2012
 4799SOL     OW14796   3.743   4.858   0.643 -0.3007 -0.3878  0.1420
 4799SOL    HW114797   3.824   4.908   0.643 -1.4619  1.6580 -1.6525
 4799SOL    HW214798   3.677   4.920   0.674 -1.2808 -1.9150  1.2684
 4800SOL     OW14799   2.032   2.588   6.471 -0.1011 -0.1335  0.2044
 4800SOL    HW114800   2.118   2.601   6.431 -1.2604  2.9419 -1.7204
 4800SOL    HW214801   1.977   2.555   6.400 -1.2944  1.6083  0.2311
 4801SOL     OW14802   5.143   4.894   3.579 -0.3618  0.0783 -0.0707
 4801SOL    HW114803   5.152   4.938   3.664 -1.9931 -0.4248  0.3941
 4801SOL    HW214804   5.082   4.949   3.530  0.9571  0.6386 -1.1468
 4802SOL     OW14805   0.736   2.669   5.624  0.4479  0.0948  0.0173
 4802SOL    HW114806   0.649   2.691   5.658  0.2668 -0.6345  0.0435
 4802SOL    HW214807   0.794   2.674   5.701  0.1882 -0.7302  0.2742
 4803SOL     OW14808   2.436   4.139   0.864 -0.1811 -0.3633 -0.4873
 4803SOL    HW114809   2.349   4.163   0.896  0.7056 -1.1007  2.7859
 4803SOL    HW214810   2.455   4.055   0.904  2.1937 -0.0606 -0.8146
 4804SOL     OW14811   4.652   4.037   3.035  0.3055  0.0148  0.0062
 4804SOL    HW114812   4.611   4.082   2.961 -1.2577  1.3681  1.5979
 4804SOL    HW214813   4.594   3.963   3.053  0.4877 -0.1071  0.0946
 4805SOL     OW14814   4.003   6.288   6.093  0.0194  0.3849  0.1431
 4805SOL    HW114815   3.975   6.272   6.183 -0.2275  0.3230  0.0550
 4805SOL    HW214816   4.082   6.342   6.102 -0.0490  0.4442  0.3945
 4806SOL     OW14817   3.701   6.736   3.304 -0.4446  0.3883 -0.4721
 4806SOL    HW114818   3.731   6.719   3.215  0.8220 -0.5975  0.1081
 4806SOL    HW214819   3.680   6.649   3.340 -1.0629  0.7817  0.1569
 4807SOL     OW14820   2.949   5.532   1.756 -0.3661 -0.4233 -0.3339
 4807SOL    HW114821   2.922   5.585   1.831 -0.4165 -1.5149  0.4447
 4807SOL    HW214822   2.901   5.450   1.766 -0.1915 -0.6705 -1.4394
 4808SOL     OW14823   4.735   1.489   1.316 -0.1749  0.1219  0.2039
 4808SOL    HW114824   4.797   1.416   1.316 -0.1529  0.1298  0.9419
 4808SOL    HW214825   4.652   1.450   1.346 -0.6163  0.0465 -1.0627
 4809SOL     OW14826   0.778   5.156   6.501 -0.2316  0.3984  0.6016
 4809SOL    HW114827   0.792   5.242   6.541 -1.1363  0.9678 -0.2842
 4809SOL    HW214828   0.715   5.113   6.559 -1.0285  0.9664  0.1674
 4810SOL     OW14829   2.911   2.989   1.991 -0.1132  0.2713  0.3767
 4810SOL    HW114830   2.816   2.989   2.004 -0.3539 -2.4138 -0.5681
 4810SOL    HW214831   2.925   3.050   1.919 -1.0818  0.8913  0.6899
 4811SOL     OW14832   5.194   0.626   2.492 -0.4122 -0.2209 -0.3676
 4811SOL    HW114833   5.194   0.706   2.545  1.5250 -0.3712 -0.0432
 4811SOL    HW214834   5.262   0.641   2.427 -0.6699 -1.2462 -0.8829
 4812SOL     OW14835   1.397   5.007   4.600  0.7599  0.8138 -0.0727
 4812SOL    HW114836   1.467   4.943   4.611  1.0414  1.0353 -0.5674
 4812SOL    HW214837   1.329   4.960   4.551  1.6196  1.3491 -1.8376
 4813SOL     OW14838   5.438   0.589   3.417 -0.0618 -0.2358 -0.4369
 4813SOL    HW114839   5.452   0.506   3.372  1.2934  0.1807 -0.8136
 4813SOL    HW214840   5.407   0.649   3.349 -0.7244 -0.3297 -0.2299
 4814SOL     OW14841   6.448   2.274   0.605 -0.2204 -0.4788 -1.1827
 4814SOL    HW114842   6.527   2.327   0.594  0.0772 -0.4817  0.5996
 4814SOL    HW214843   6.440   2.226   0.523  2.6866 -1.8384 -0.8103
 4815SOL     OW14844   1.464   6.643   0.556 -0.4401  0.1060  0.4691
 4815SOL    HW114845   1.468   6.732   0.521  0.6951  0.3776  1.2213
 4815SOL    HW214846   1.413   6.594   0.492 -1.1323  1.3103  0.0769
 4816SOL     OW14847   6.039   3.496   6.702 -0.3286  0.1533  0.0817
 4816SOL    HW114848   6.056   3.488   6.796  0.2975 -0.0721 -0.0470
 4816SOL    HW214849   6.120   3.467   6.660 -0.4008  0.7850 -0.5197
 4817SOL     OW14850   3.567   2.216   2.332 -0.6750  0.3108  0.3524
 4817SOL    HW114851   3.522   2.152   2.388  1.4674 -1.5314  0.1261
 4817SOL    HW214852   3.583   2.170   2.250  2.3608  0.4462  0.7294
 4818SOL     OW14853   4.482   5.811   3.325 -0.1859 -0.2203 -0.3047
 4818SOL    HW114854   4.515   5.837   3.411 -2.5301  0.0692  0.5950
 4818SOL    HW214855   4.542   5.852   3.263  2.0501 -1.0975  1.1457
 4819SOL     OW14856   6.515   3.689   1.334  0.2802 -0.5558 -0.1167
 4819SOL    HW114857   6.569   3.620   1.295  1.0437 -0.4559  0.7321
 4819SOL    HW214858   6.482   3.739   1.259  1.6614 -0.4070 -0.6609
 4820SOL     OW14859   3.852   6.743   1.996 -0.3919 -0.4949 -0.0967
 4820SOL    HW114860   3.829   6.836   1.989 -3.6412 -1.1867 -0.6111
 4820SOL    HW214861   3.924   6.740   2.059 -1.7824  2.1993  1.8496
 4821SOL     OW14862   4.195   3.954   5.766  0.1174  0.8518  0.4212
 4821SOL    HW114863   4.132   3.960   5.695  0.0547 -0.7841  0.2991
 4821SOL    HW214864   4.265   3.899   5.731  0.6745  1.0362  1.2186
 4822SOL     OW14865   3.377   3.995   0.929 -0.0805  0.0478  1.0970
 4822SOL    HW114866   3.354   3.906   0.902  0.7461  0.3381 -0.6794
 4822SOL    HW214867   3.449   3.984   0.991  0.8411 -0.5006 -0.0422
 4823SOL     OW14868   4.899   6.596   3.718 -0.4377 -0.7525  0.6555
 4823SOL    HW114869   4.932   6.513   3.753  2.1357 -0.7674 -1.5081
 4823SOL    HW214870   4.923   6.594   3.625  0.1939  2.6282  0.6444
 4824SOL     OW14871   2.720   1.425   4.587  0.3489 -0.3238 -0.2051
 4824SOL    HW114872   2.659   1.458   4.653 -0.5215 -1.3791 -0.4398
 4824SOL    HW214873   2.806   1.445   4.622 -0.1141  0.0432  0.7756
 4825SOL     OW14874   1.267   4.403   6.388 -0.3497 -0.9226 -0.2750
 4825SOL    HW114875   1.230   4.344   6.454  0.7268 -0.7274  0.5303
 4825SOL    HW214876   1.209   4.478   6.387  0.0258 -0.5957  1.0043
 4826SOL     OW14877   2.223   4.596   1.636 -0.0088  0.2429  0.5115
 4826SOL    HW114878   2.257   4.534   1.572 -1.8855 -0.8953  0.5415
 4826SOL    HW214879   2.228   4.549   1.720 -1.7361 -0.0484  0.4893
 4827SOL     OW14880   5.417   4.010   5.887 -0.3669 -0.3229 -0.0172
 4827SOL    HW114881   5.328   4.046   5.883 -0.0616  0.5195  0.6952
 4827SOL    HW214882   5.437   4.004   5.980  0.4869 -0.1099 -0.1783
 4828SOL     OW14883   0.407   5.809   0.178  0.0394 -0.1596 -0.2697
 4828SOL    HW114884   0.445   5.766   0.255  1.4120  0.4432 -0.5622
 4828SOL    HW214885   0.479   5.810   0.115 -0.3480  1.4089 -0.7145
 4829SOL     OW14886   5.539   6.120   0.760 -0.7268 -0.3697  0.0396
 4829SOL    HW114887   5.573   6.209   0.761  0.6405 -0.8324 -1.1865
 4829SOL    HW214888   5.466   6.121   0.821 -2.5326  2.2916 -1.9498
 4830SOL     OW14889   3.566   3.965   5.592  0.2736 -0.6401 -0.6925
 4830SOL    HW114890   3.483   3.989   5.634  0.3203 -1.6727  0.0176
 4830SOL    HW214891   3.547   3.968   5.498  0.3415  2.3519 -0.7104
 4831SOL     OW14892   5.561   4.210   0.828  0.1913 -1.0423  0.1077
 4831SOL    HW114893   5.584   4.302   0.817  0.7020 -1.2874 -1.0579
 4831SOL    HW214894   5.645   4.164   0.830 -0.0782 -1.6012 -0.7066
 4832SOL     OW14895   0.791   6.537   5.698  0.0673  0.2449  0.5434
 4832SOL    HW114896   0.735   6.611   5.673  1.3650  1.4463  1.1042
 4832SOL    HW214897   0.729   6.466   5.713 -1.3994  1.6586  1.6676
 4833SOL     OW14898   1.044   3.592   4.557  0.0849  0.2662 -0.4436
 4833SOL    HW114899   1.108   3.635   4.499 -0.0681 -0.5760 -1.2482
 4833SOL    HW214900   1.058   3.499   4.542 -1.6256  0.0628 -0.9574
 4834SOL     OW14901   1.495   0.185   4.569 -0.2573  0.2746  0.5837
 4834SOL    HW114902   1.588   0.167   4.557  0.0721  0.8283  2.0441
 4834SOL    HW214903   1.451   0.129   4.506  0.8833 -2.9660  2.4387
 4835SOL     OW14904   2.970   1.975   0.398 -0.1885 -0.0320 -0.1637
 4835SOL    HW114905   3.016   1.898   0.431  0.1565  0.1436 -0.2377
 4835SOL    HW214906   2.887   1.941   0.365 -0.5047 -0.2277  0.7974
 4836SOL     OW14907   1.154   2.083   1.485  0.1808 -0.0557 -1.0695
 4836SOL    HW114908   1.092   2.020   1.522 -0.0270  0.8333  0.1546
 4836SOL    HW214909   1.213   2.030   1.432  0.4479 -1.4246  0.4933
 4837SOL     OW14910   2.357   5.600   3.041  0.0613 -0.3918  0.1423
 4837SOL    HW114911   2.450   5.613   3.061  0.2436  0.1471 -0.9497
 4837SOL    HW214912   2.354   5.594   2.945 -1.2644  1.9349 -0.0381
 4838SOL     OW14913   1.699   6.276   6.008  0.1385  0.5249 -0.3783
 4838SOL    HW114914   1.695   6.195   5.957 -0.2450  1.2909 -1.5913
 4838SOL    HW214915   1.787   6.276   6.046  0.9351  0.6002 -2.1546
 4839SOL     OW14916   6.634   0.935   5.068 -0.3893  0.3143 -0.2966
 4839SOL    HW114917   6.599   0.958   4.982  0.4997  0.4449 -0.6295
 4839SOL    HW214918   6.720   0.896   5.050 -0.0750  0.5929  0.5460
 4840SOL     OW14919   4.804   3.352   6.446  0.2866  0.2952 -0.3466
 4840SOL    HW114920   4.760   3.274   6.413 -0.2563  1.1207 -1.6386
 4840SOL    HW214921   4.843   3.324   6.530 -2.4679 -0.5539  0.7540
 4841SOL     OW14922   6.388   0.781   3.298  0.0579  0.5478 -0.3305
 4841SOL    HW114923   6.352   0.770   3.386 -0.1249  1.0437 -0.3461
 4841SOL    HW214924   6.454   0.711   3.291 -0.1578  0.2999  0.0758
 4842SOL     OW14925   1.717   2.694   3.791 -0.2065 -0.2743 -0.0958
 4842SOL    HW114926   1.703   2.610   3.749  3.1659 -1.0598  0.0390
 4842SOL    HW214927   1.734   2.673   3.883  0.9321  0.4702 -0.1127
 4843SOL     OW14928   3.700   5.874   5.443 -0.1419 -0.2247 -0.0031
 4843SOL    HW114929   3.673   5.961   5.471  0.7224  0.0962 -0.1286
 4843SOL    HW214930   3.703   5.823   5.523  1.0852  0.3508  0.3473
 4844SOL     OW14931   0.502   3.360   4.319  0.1053 -0.2111 -0.6263
 4844SOL    HW114932   0.538   3.366   4.230  1.4553  0.9580 -0.0405
 4844SOL    HW214933   0.573   3.323   4.371  0.0202  0.9003  0.3194
 4845SOL     OW14934   2.990   2.356   3.906 -0.3861  0.2606  0.0451
 4845SOL    HW114935   3.015   2.289   3.842 -2.5549 -1.1735  0.6023
 4845SOL    HW214936   3.015   2.318   3.990  0.6639  1.2863  0.2133
 4846SOL     OW14937   0.640   4.130   2.368  0.2320 -0.0045  0.1426
 4846SOL    HW114938   0.647   4.123   2.273  0.7453 -0.0975  0.1828
 4846SOL    HW214939   0.669   4.045   2.401  0.5338  0.1927  0.3962
 4847SOL     OW14940   1.049   3.076   5.251  0.2294 -0.0460 -0.3422
 4847SOL    HW114941   1.136   3.050   5.281  0.0138  0.4219  0.7235
 4847SOL    HW214942   1.018   3.001   5.199  1.8060  0.3185 -1.9112
 4848SOL     OW14943   0.780   2.669   0.163 -0.6475  0.1825  0.4393
 4848SOL    HW114944   0.700   2.661   0.111 -1.6762  3.5553  1.2695
 4848SOL    HW214945   0.810   2.759   0.146  1.6405 -0.2101  2.0069
 4849SOL     OW14946   4.007   1.478   0.405  0.0832 -0.1642  0.1643
 4849SOL    HW114947   3.921   1.513   0.380 -1.3933 -1.3488  3.1291
 4849SOL    HW214948   4.053   1.553   0.443 -0.6889 -0.1010  0.9877
 4850SOL     OW14949   0.479   2.083   4.483  0.3853  0.5067  0.4644
 4850SOL    HW114950   0.483   2.004   4.537  0.0649 -0.7549 -1.2559
 4850SOL    HW214951   0.483   2.156   4.545 -0.3320 -0.8595  2.1824
 4851SOL     OW14952   1.188   3.486   3.203  0.3875 -0.1910  0.0659
 4851SOL    HW114953   1.207   3.530   3.120 -1.2909  1.6501  0.6042
 4851SOL    HW214954   1.256   3.517   3.262  1.8806 -1.8779 -0.6622
 4852SOL     OW14955   3.517   0.959   4.269  0.6080 -0.1032 -0.0471
 4852SOL    HW114956   3.552   0.887   4.216  0.4737 -1.0442  1.0769
 4852SOL    HW214957   3.571   0.958   4.348 -1.1270 -0.8181  1.2083
 4853SOL     OW14958   0.730   4.143   3.297 -0.0190 -1.1170 -0.0563
 4853SOL    HW114959   0.677   4.115   3.371  0.5674 -2.0478  0.0284
 4853SOL    HW214960   0.692   4.097   3.222 -1.2082  0.5403 -0.5394
 4854SOL     OW14961   2.675   1.162   5.115 -0.0340  0.2480  0.1111
 4854SOL    HW114962   2.617   1.230   5.082 -0.7084  0.2362  1.2244
 4854SOL    HW214963   2.655   1.085   5.061  0.0710  0.6630 -0.5337
 4855SOL     OW14964   5.748   1.529   6.385  0.0681  0.4585  0.2319
 4855SOL    HW114965   5.744   1.589   6.460 -2.3688 -0.6990  1.1411
 4855SOL    HW214966   5.734   1.585   6.309 -1.7891  1.1654  1.0296
 4856SOL     OW14967   0.444   4.530   2.587  0.4294 -0.1836  0.5197
 4856SOL    HW114968   0.467   4.444   2.550 -0.4151  0.4629 -1.6795
 4856SOL    HW214969   0.519   4.586   2.566  0.6698 -0.1950  1.3179
 4857SOL     OW14970   4.106   5.220   0.756  0.0780  0.2193  0.1739
 4857SOL    HW114971   4.101   5.171   0.674  0.0302 -0.4793  0.5859
 4857SOL    HW214972   4.019   5.258   0.767 -1.7678 -4.0757  2.5341
 4858SOL     OW14973   2.390   5.409   6.338 -0.1932  0.3846  0.6803
 4858SOL    HW114974   2.446   5.368   6.404  2.0019  0.8192 -0.7993
 4858SOL    HW214975   2.310   5.431   6.386  0.6301 -0.7921  2.7764
 4859SOL     OW14976   4.779   0.886   0.212  0.5984 -0.1468  0.0032
 4859SOL    HW114977   4.797   0.970   0.170  0.0110  0.3335  0.6877
 4859SOL    HW214978   4.846   0.827   0.177  1.5012  0.7928  0.0822
 4860SOL     OW14979   4.240   5.597   4.603 -0.0624 -0.9246  0.1512
 4860SOL    HW114980   4.331   5.585   4.580 -0.3209 -1.1577 -0.7675
 4860SOL    HW214981   4.242   5.654   4.680  0.8447 -0.8440  0.0737
 4861SOL     OW14982   3.777   6.411   2.059  0.0515 -0.1402 -0.1334
 4861SOL    HW114983   3.831   6.486   2.034 -0.5040  0.6780  1.0284
 4861SOL    HW214984   3.758   6.366   1.976  2.0710 -0.1794 -0.6254
 4862SOL     OW14985   5.654   1.290   6.308  0.4581  0.0999 -0.5876
 4862SOL    HW114986   5.679   1.380   6.330 -1.8775  0.8546 -0.7196
 4862SOL    HW214987   5.642   1.291   6.213 -0.1984 -0.1662 -0.5142
 4863SOL     OW14988   4.985   6.298   6.574 -0.3851 -0.1990 -0.4614
 4863SOL    HW114989   5.051   6.288   6.506 -0.1973 -0.9378 -0.1695
 4863SOL    HW214990   5.028   6.271   6.655 -0.5552  0.8328 -0.0109
 4864SOL     OW14991   3.373   2.594   4.393 -0.2361 -0.2387  0.1172
 4864SOL    HW114992   3.300   2.635   4.440 -0.2713 -0.4276  0.2271
 4864SOL    HW214993   3.450   2.617   4.444 -0.4203 -1.6848  1.1293
 4865SOL     OW14994   6.097   1.638   3.374  0.2758 -0.7041  0.4508
 4865SOL    HW114995   6.170   1.655   3.433  1.4814 -1.5467 -0.7439
 4865SOL    HW214996   6.068   1.725   3.346  1.5705 -0.3829  0.0582
 4866SOL     OW14997   4.921   4.931   5.577 -0.4343 -0.0568  0.4880
 4866SOL    HW114998   4.828   4.950   5.565  0.0076  0.6706 -2.5416
 4866SOL    HW214999   4.932   4.841   5.544 -0.1164 -0.2850  1.1978
 4867SOL     OW15000   3.572   4.092   1.640 -0.1630 -0.2110  0.2114
 4867SOL    HW115001   3.588   4.030   1.712  0.3033  0.0772  0.3607
 4867SOL    HW215002   3.613   4.173   1.670  1.0426 -0.3931 -0.8747
 4868SOL     OW15003   2.284   1.927   0.577 -0.3096 -0.4137  0.0461
 4868SOL    HW115004   2.329   1.846   0.553  1.7090  0.3785  0.9442
 4868SOL    HW215005   2.222   1.901   0.646  1.6121 -0.9858  1.6650
 4869SOL     OW15006   1.851   5.527   5.206 -0.3213  0.4645  0.2814
 4869SOL    HW115007   1.779   5.489   5.157 -0.4078  0.2621  0.5613
 4869SOL    HW215008   1.814   5.604   5.249 -0.2958  0.5306  0.1837
 4870SOL     OW15009   1.103   1.177   1.274 -0.0240 -0.6275 -0.0008
 4870SOL    HW115010   1.062   1.260   1.251  0.9217 -0.5938 -1.6943
 4870SOL    HW215011   1.100   1.175   1.370  0.8174  1.8139  0.1521
 4871SOL     OW15012   0.405   3.486   2.925 -0.0814  0.1926 -0.0516
 4871SOL    HW115013   0.500   3.472   2.920 -0.3530 -1.7849 -0.6205
 4871SOL    HW215014   0.394   3.580   2.910  1.8750  0.7954  1.7652
 4872SOL     OW15015   5.012   4.719   1.760  0.2732  0.2607  0.3258
 4872SOL    HW115016   4.917   4.711   1.763  0.2990  0.1593  0.9939
 4872SOL    HW215017   5.035   4.758   1.844  0.8512 -0.0213  0.3018
 4873SOL     OW15018   1.025   5.753   5.056  0.4666 -1.1306 -0.2410
 4873SOL    HW115019   1.019   5.831   5.110  1.0231 -2.1949  1.4544
 4873SOL    HW215020   0.946   5.703   5.078  0.2019 -1.1409 -1.1769
 4874SOL     OW15021   4.297   2.081   5.277  0.4933  0.4717 -0.1104
 4874SOL    HW115022   4.386   2.110   5.256  0.2870 -0.6116 -2.9513
 4874SOL    HW215023   4.240   2.140   5.228 -0.3998  1.0179  1.5042
 4875SOL     OW15024   3.393   6.158   1.523 -0.7210 -0.2312  0.1762
 4875SOL    HW115025   3.435   6.131   1.605  1.5398 -1.3221 -1.2258
 4875SOL    HW215026   3.414   6.087   1.462 -1.3332  1.0952 -1.6439
 4876SOL     OW15027   4.839   3.194   2.695  0.7552  0.5352 -0.2030
 4876SOL    HW115028   4.831   3.121   2.756 -0.5455 -0.0704 -1.0576
 4876SOL    HW215029   4.828   3.272   2.749 -1.4369 -0.0116  0.2492
 4877SOL     OW15030   4.619   1.261   6.189 -0.2752 -0.5701  0.4418
 4877SOL    HW115031   4.583   1.270   6.277 -0.6875 -1.2728  0.3463
 4877SOL    HW215032   4.712   1.283   6.200 -0.3145 -0.6832  1.0539
 4878SOL     OW15033   1.976   2.220   1.984 -0.6678 -0.3337  0.0132
 4878SOL    HW115034   2.002   2.155   1.919  1.7219 -0.1784  0.7289
 4878SOL    HW215035   2.053   2.230   2.040 -2.0443  0.8434  1.7996
 4879SOL     OW15036   1.176   3.908   5.797 -0.0198 -0.0429 -0.1188
 4879SOL    HW115037   1.239   3.916   5.726  0.7731 -0.4149  0.5285
 4879SOL    HW215038   1.212   3.962   5.868 -0.5819 -0.0107  0.1500
 4880SOL     OW15039   5.742   1.936   3.645 -0.3547 -0.1349  0.7721
 4880SOL    HW115040   5.808   1.988   3.599 -1.0848  0.2149  0.1109
 4880SOL    HW215041   5.707   1.878   3.579  0.7853 -1.8648  1.5977
 4881SOL     OW15042   3.116   6.500   4.444 -0.3615 -0.3048  0.2959
 4881SOL    HW115043   3.082   6.542   4.365 -1.1154  0.1757  0.8678
 4881SOL    HW215044   3.171   6.566   4.485  0.6799 -0.8221 -0.2280
 4882SOL     OW15045   3.653   4.021   0.206  0.3819 -0.1228 -0.3562
 4882SOL    HW115046   3.701   4.103   0.219  0.4901 -0.0258 -1.2490
 4882SOL    HW215047   3.561   4.048   0.199  0.4838  0.0333 -1.3697
 4883SOL     OW15048   0.600   1.707   6.082  0.5498  0.0129  0.3678
 4883SOL    HW115049   0.593   1.776   6.148 -0.9587  0.5805 -0.3187
 4883SOL    HW215050   0.516   1.710   6.036  0.3075 -2.5152  0.5142
 4884SOL     OW15051   6.254   1.692   5.299 -0.0569  0.1726  0.0178
 4884SOL    HW115052   6.348   1.691   5.280 -0.1222  0.2027 -0.3190
 4884SOL    HW215053   6.221   1.611   5.261  0.0461 -0.4890  1.2929
 4885SOL     OW15054   6.504   1.544   2.007 -0.5155 -0.3338  0.4574
 4885SOL    HW115055   6.435   1.596   2.048  0.0999  0.2573  0.7444
 4885SOL    HW215056   6.539   1.490   2.077 -0.3135 -0.2363  0.4311
 4886SOL     OW15057   0.062   5.393   6.493  0.1647  0.0590  0.0632
 4886SOL    HW115058   0.066   5.355   6.405 -0.2327 -1.1489  0.5542
 4886SOL    HW215059   0.152   5.416   6.513  0.5034 -1.0759 -0.0679
 4887SOL     OW15060   6.353   3.753   0.653  0.3809 -0.2226  0.2106
 4887SOL    HW115061   6.408   3.714   0.721  0.8986  0.0833 -0.0259
 4887SOL    HW215062   6.352   3.846   0.674  1.2489 -0.0003 -0.6824
 4888SOL     OW15063   5.510   2.831   5.244  0.3244 -0.0345  0.1227
 4888SOL    HW115064   5.480   2.921   5.231  1.6720  0.5417  0.9061
 4888SOL    HW215065   5.597   2.828   5.205  0.5203 -0.8449  0.5974
 4889SOL     OW15066   3.856   3.102   4.176  0.1716  0.0687  0.2760
 4889SOL    HW115067   3.806   3.111   4.095  0.3493 -0.6417  0.0791
 4889SOL    HW215068   3.829   3.017   4.211  0.2752  0.2661  0.8392
 4890SOL     OW15069   4.424   3.384   0.485 -0.6273 -0.1069 -0.1603
 4890SOL    HW115070   4.363   3.368   0.557 -1.0878  0.7562 -0.3586
 4890SOL    HW215071   4.385   3.454   0.434 -0.1244 -0.4579 -1.0576
 4891SOL     OW15072   4.222   0.852   2.800 -0.0638 -0.4904  0.0692
 4891SOL    HW115073   4.201   0.789   2.731 -0.3928  0.1864 -0.4541
 4891SOL    HW215074   4.138   0.886   2.829  0.1746  1.0697 -0.9473
 4892SOL     OW15075   0.709   4.082   3.624 -0.0501 -0.3120  0.2498
 4892SOL    HW115076   0.729   4.020   3.554 -0.7098 -0.0630 -0.1762
 4892SOL    HW215077   0.657   4.032   3.687 -2.1228  0.2111 -0.9549
 4893SOL     OW15078   1.395   6.254   0.374  0.0967 -0.3746 -0.4107
 4893SOL    HW115079   1.474   6.279   0.422  0.7294  2.4181 -2.6162
 4893SOL    HW215080   1.324   6.302   0.417  0.0732 -0.6380 -0.1544
 4894SOL     OW15081   2.771   3.663   4.620 -0.0975 -0.1755  0.3080
 4894SOL    HW115082   2.697   3.659   4.680  1.0708 -0.6924  1.7741
 4894SOL    HW215083   2.754   3.739   4.565 -2.1047 -0.7451  0.0424
 4895SOL     OW15084   6.755   6.036   4.330 -0.2629 -0.3156 -0.4721
 4895SOL    HW115085   6.771   5.954   4.376  1.1805  0.7644  1.0421
 4895SOL    HW215086   6.833   6.050   4.277 -0.0704  0.5537  0.0245
 4896SOL     OW15087   4.654   3.825   4.810  0.0633 -0.8425  0.0825
 4896SOL    HW115088   4.726   3.771   4.777  0.9257  1.6283 -2.4700
 4896SOL    HW215089   4.696   3.894   4.860 -0.5466  0.1717 -0.7622
 4897SOL     OW15090   0.636   3.777   1.321  0.2363 -0.0793 -0.3403
 4897SOL    HW115091   0.702   3.785   1.389 -1.4419 -0.5451  1.4308
 4897SOL    HW215092   0.686   3.767   1.240  2.3051  1.8145  0.6032
 4898SOL     OW15093   0.842   0.400   4.036  0.6218  0.0330 -0.3187
 4898SOL    HW115094   0.756   0.417   4.076  0.6204  0.0794 -0.3408
 4898SOL    HW215095   0.845   0.459   3.960  0.8312  0.3183 -0.0932
 4899SOL     OW15096   3.148   3.509   4.641  0.5091 -0.1695  0.6757
 4899SOL    HW115097   3.072   3.487   4.693  0.2085 -1.4703 -0.2493
 4899SOL    HW215098   3.193   3.577   4.690  0.1399 -1.2012  2.5225
 4900SOL     OW15099   2.564   0.916   1.725 -0.7687 -0.3494 -0.1469
 4900SOL    HW115100   2.640   0.867   1.756  0.0273  0.8068 -0.1916
 4900SOL    HW215101   2.584   0.939   1.635 -1.1538  0.0057 -0.1488
 4901SOL     OW15102   4.697   6.153   0.308 -0.4151  0.2579 -0.3404
 4901SOL    HW115103   4.666   6.242   0.323  0.4382  0.3765  0.8378
 4901SOL    HW215104   4.778   6.147   0.358  0.4233 -0.6708 -1.7614
 4902SOL     OW15105   6.737   2.539   3.754 -0.1936 -0.3107 -0.2668
 4902SOL    HW115106   6.670   2.551   3.688  0.4733  2.0488 -0.6189
 4902SOL    HW215107   6.800   2.478   3.715 -0.7616 -0.4273 -1.0054
 4903SOL     OW15108   0.916   2.690   1.309 -0.0685  0.5191 -0.5504
 4903SOL    HW115109   0.841   2.748   1.294 -0.5875  0.1366  0.5182
 4903SOL    HW215110   0.986   2.748   1.340 -0.1538  0.7642 -0.8138
 4904SOL     OW15111   1.007   4.410   0.993 -0.0478  0.0869 -0.5306
 4904SOL    HW115112   0.974   4.340   0.937  0.7359 -1.0941  0.4621
 4904SOL    HW215113   0.973   4.490   0.952 -2.5257 -0.9284 -0.6436
 4905SOL     OW15114   1.973   5.671   3.378 -0.1484  0.4338  0.7956
 4905SOL    HW115115   2.030   5.642   3.307 -0.8958  0.8342  0.0125
 4905SOL    HW215116   1.887   5.683   3.337 -0.5702  0.7690  1.7430
 4906SOL     OW15117   1.735   0.205   0.727  0.0578  0.4534 -0.0980
 4906SOL    HW115118   1.678   0.196   0.651  0.0606  0.6866 -0.1286
 4906SOL    HW215119   1.683   0.253   0.791 -0.5096 -1.0753  0.6425
 4907SOL     OW15120   0.893   5.017   4.254  0.2142 -0.6276 -0.1703
 4907SOL    HW115121   0.959   5.080   4.282 -0.1184 -0.0338 -0.6848
 4907SOL    HW215122   0.880   4.960   4.330  1.5715 -0.9888 -0.1827
 4908SOL     OW15123   6.421   0.248   2.766 -0.2914  0.6381  0.1349
 4908SOL    HW115124   6.496   0.237   2.825 -1.0741 -1.2468  0.8839
 4908SOL    HW215125   6.389   0.159   2.752 -1.0263  1.1918 -2.0032
 4909SOL     OW15126   1.295   4.843   6.549 -0.2581 -0.3082  0.3612
 4909SOL    HW115127   1.234   4.916   6.534  1.6394  1.1267 -0.8687
 4909SOL    HW215128   1.349   4.873   6.623  1.0921 -0.0325 -0.7011
 4910SOL     OW15129   0.851   4.028   1.875 -0.0596  0.3801 -0.2960
 4910SOL    HW115130   0.926   3.978   1.843  1.7772  2.5963  0.2383
 4910SOL    HW215131   0.817   4.072   1.797  0.1573  0.5218 -0.3131
 4911SOL     OW15132   2.033   3.928   5.023  0.7080 -0.1324 -0.1620
 4911SOL    HW115133   2.079   3.983   5.086 -1.6542  3.0484 -0.9377
 4911SOL    HW215134   1.942   3.959   5.026 -1.0111 -4.4489 -0.3274
 4912SOL     OW15135   3.538   2.710   6.491 -0.3442 -0.3092  1.1044
 4912SOL    HW115136   3.626   2.675   6.502 -0.6942 -1.8119 -0.4425
 4912SOL    HW215137   3.549   2.788   6.436 -0.2293 -2.9021 -2.9870
 4913SOL     OW15138   5.596   2.339   2.216 -0.4007  0.0910  0.2318
 4913SOL    HW115139   5.577   2.337   2.122 -0.2642  0.8798  0.1761
 4913SOL    HW215140   5.689   2.362   2.221 -0.4492  0.2270  0.5564
 4914SOL     OW15141   5.763   6.581   2.993  0.8003 -0.0188 -0.2626
 4914SOL    HW115142   5.772   6.597   2.899  0.3893  0.3362 -0.2438
 4914SOL    HW215143   5.852   6.561   3.023  1.1955  1.3550 -0.4532
 4915SOL     OW15144   5.134   0.210   6.186  0.6098  0.1908  0.2350
 4915SOL    HW115145   5.181   0.267   6.247  3.0329 -1.9222  0.4743
 4915SOL    HW215146   5.183   0.215   6.104  0.3816 -0.9290  0.0152
 4916SOL     OW15147   3.035   5.757   1.601  0.6020 -0.2137 -0.2806
 4916SOL    HW115148   3.009   5.682   1.654 -1.1001  0.1023 -0.6286
 4916SOL    HW215149   3.036   5.830   1.663 -1.6117  0.2005 -0.6507
 4917SOL     OW15150   5.067   1.853   6.079 -0.3171 -0.3861  0.5125
 4917SOL    HW115151   5.039   1.815   5.996 -2.2822 -1.8897  1.7885
 4917SOL    HW215152   5.007   1.927   6.092 -0.2437 -0.3685  0.7464
 4918SOL     OW15153   5.155   6.752   0.298 -0.0076  0.3320  0.5891
 4918SOL    HW115154   5.066   6.784   0.283  0.4475  1.1335 -0.5200
 4918SOL    HW215155   5.207   6.831   0.311  1.1051  0.1123 -1.9750
 4919SOL     OW15156   6.778   3.242   2.389  0.1237 -0.0622  0.7824
 4919SOL    HW115157   6.697   3.282   2.357 -0.5363 -1.7394  0.2795
 4919SOL    HW215158   6.823   3.314   2.434 -0.8445  1.3328 -0.3558
 4920SOL     OW15159   0.583   6.041   4.567 -0.0422 -0.3810  0.2001
 4920SOL    HW115160   0.655   6.027   4.630  1.6245  0.4677 -1.4242
 4920SOL    HW215161   0.608   6.120   4.520 -1.0155 -1.2319 -1.8272
 4921SOL     OW15162   5.376   1.691   4.994  0.4913  0.0423  0.0967
 4921SOL    HW115163   5.356   1.627   4.926 -0.2443  0.4033 -0.0288
 4921SOL    HW215164   5.327   1.769   4.970  1.8444  0.8691 -0.0731
 4922SOL     OW15165   3.356   0.032   0.093  0.0095 -0.3039 -0.4756
 4922SOL    HW115166   3.335   0.057   0.003  2.3164 -1.8722 -1.5196
 4922SOL    HW215167   3.352   0.115   0.142  0.7114  0.9374 -2.4125
 4923SOL     OW15168   1.239   3.296   1.846 -0.1774  0.2095 -0.4144
 4923SOL    HW115169   1.202   3.328   1.928 -0.3248  0.2188 -0.4851
 4923SOL    HW215170   1.332   3.319   1.852 -0.4297  1.4683 -0.8472
 4924SOL     OW15171   1.767   2.947   6.754  0.0330  0.1231 -0.7772
 4924SOL    HW115172   1.723   2.877   6.802 -2.4273  0.6354 -2.1096
 4924SOL    HW215173   1.798   2.905   6.674  1.8943 -0.1834  0.0531
 4925SOL     OW15174   4.694   2.925   0.607  0.6591 -0.8902  0.0343
 4925SOL    HW115175   4.637   2.946   0.533  2.6907  1.5540 -1.0105
 4925SOL    HW215176   4.643   2.950   0.685 -0.6665 -1.3509 -0.6607
 4926SOL     OW15177   3.226   5.249   6.318  0.3050  0.1557  0.1123
 4926SOL    HW115178   3.196   5.239   6.227 -3.9928 -2.0019  1.5176
 4926SOL    HW215179   3.294   5.182   6.327  1.0202  0.5900 -1.5078
 4927SOL     OW15180   1.313   1.406   3.904 -0.8549 -0.4349  0.4817
 4927SOL    HW115181   1.351   1.481   3.948 -0.1183 -1.0911  0.9915
 4927SOL    HW215182   1.242   1.377   3.962 -0.4954 -0.7243  0.7853
 4928SOL     OW15183   2.742   5.664   3.877 -0.0159 -0.3957  0.2214
 4928SOL    HW115184   2.649   5.651   3.899  0.3340 -2.0114  0.9120
 4928SOL    HW215185   2.783   5.688   3.960  0.2100  0.1764 -0.0551
 4929SOL     OW15186   5.870   3.657   2.267 -0.1674  0.6016 -0.6611
 4929SOL    HW115187   5.920   3.621   2.194  0.7409 -0.5452  0.4844
 4929SOL    HW215188   5.779   3.633   2.248  0.1406 -0.2531 -1.0939
 4930SOL     OW15189   2.846   3.607   5.860 -0.0203  0.0157  0.4172
 4930SOL    HW115190   2.831   3.587   5.952 -0.7568  0.9000  0.5053
 4930SOL    HW215191   2.940   3.625   5.855 -0.0799  0.6166  1.1466
 4931SOL     OW15192   4.714   5.277   0.483 -0.2577  0.1457  0.8903
 4931SOL    HW115193   4.706   5.193   0.437  0.4995 -1.3273  3.2657
 4931SOL    HW215194   4.736   5.339   0.415 -0.2328 -1.6987 -0.8887
 4932SOL     OW15195   3.353   2.893   4.753 -0.3270  0.4441 -0.0195
 4932SOL    HW115196   3.302   2.923   4.829  1.3140 -0.4606  1.5183
 4932SOL    HW215197   3.399   2.815   4.784  2.8683  1.8113 -0.9047
 4933SOL     OW15198   2.775   0.358   5.604 -0.1323 -0.1075  0.4285
 4933SOL    HW115199   2.704   0.372   5.542  1.9238  0.9340 -1.8870
 4933SOL    HW215200   2.777   0.263   5.617 -1.0842 -0.2826 -0.5433
 4934SOL     OW15201   2.892   4.812   1.244 -0.1132 -0.2557 -0.2342
 4934SOL    HW115202   2.924   4.883   1.299  0.8990 -0.1588 -0.9213
 4934SOL    HW215203   2.945   4.818   1.165  1.1388 -2.7818  0.3276
 4935SOL     OW15204   3.718   5.587   0.967 -0.6190  0.6914 -0.3626
 4935SOL    HW115205   3.732   5.659   1.029  0.1368 -0.7152  1.1785
 4935SOL    HW215206   3.692   5.513   1.022  0.9279 -0.8553 -1.6019
 4936SOL     OW15207   5.873   2.346   6.775  0.2840 -0.3834  0.1748
 4936SOL    HW115208   5.791   2.378   6.738  1.6472  0.9245 -1.9112
 4936SOL    HW215209   5.878   2.387   6.861 -0.6658  0.4903 -0.1676
 4937SOL     OW15210   1.264   2.125   3.143 -0.2646  0.2826 -0.3664
 4937SOL    HW115211   1.346   2.173   3.161 -0.8631  1.4741 -0.7047
 4937SOL    HW215212   1.291   2.051   3.090  0.5397  0.9742 -0.9578
 4938SOL     OW15213   5.452   6.252   1.840  0.5000  0.2850  0.6412
 4938SOL    HW115214   5.476   6.212   1.756  0.8284  1.1596  0.3052
 4938SOL    HW215215   5.372   6.301   1.822  0.5387  0.4284  0.8482
 4939SOL     OW15216   4.805   4.405   5.523 -0.0711  0.2038 -0.5586
 4939SOL    HW115217   4.872   4.348   5.487  0.4511  0.1787  0.4288
 4939SOL    HW215218   4.732   4.347   5.544  0.5844 -0.1776  0.7566
 4940SOL     OW15219   6.155   0.223   3.780 -0.4640 -0.1913 -0.2675
 4940SOL    HW115220   6.074   0.254   3.741 -0.2236  1.4287  0.4425
 4940SOL    HW215221   6.137   0.221   3.874  0.1493 -0.3070 -0.1490
 4941SOL     OW15222   1.013   4.863   1.710 -0.2870  0.3462  0.0907
 4941SOL    HW115223   0.945   4.910   1.661  0.0189  1.3380  0.6028
 4941SOL    HW215224   0.983   4.866   1.801 -1.0047 -1.7370 -0.0105
 4942SOL     OW15225   6.558   2.135   0.801  0.4324  0.2709  0.4649
 4942SOL    HW115226   6.615   2.191   0.854  1.6964  0.2339 -0.7760
 4942SOL    HW215227   6.516   2.195   0.739 -0.0191  0.1442  0.6453
 4943SOL     OW15228   4.261   2.904   0.275 -0.3778 -0.5242 -0.3072
 4943SOL    HW115229   4.171   2.938   0.274 -0.1561  0.1090 -1.5954
 4943SOL    HW215230   4.265   2.847   0.351 -2.1922 -1.4217 -0.8363
 4944SOL     OW15231   3.605   3.620   3.671  0.3088  0.4151 -0.5353
 4944SOL    HW115232   3.551   3.566   3.615 -1.3699  1.8765 -0.4018
 4944SOL    HW215233   3.654   3.557   3.725 -2.4710 -1.0039  0.4948
 4945SOL     OW15234   4.537   2.546   1.525 -0.0713  0.3860  0.0321
 4945SOL    HW115235   4.554   2.560   1.431 -0.5489 -0.7496 -0.2384
 4945SOL    HW215236   4.623   2.558   1.566  0.2750  0.2552 -0.6304
 4946SOL     OW15237   4.489   6.160   2.733  0.3425  0.1977  0.1213
 4946SOL    HW115238   4.421   6.098   2.707  0.6005  0.0671 -0.2473
 4946SOL    HW215239   4.564   6.138   2.678  0.7785  0.1569  0.7248
 4947SOL     OW15240   0.849   0.784   3.463 -0.6526  0.7054 -0.7618
 4947SOL    HW115241   0.921   0.794   3.402 -0.2687  2.3331 -0.0913
 4947SOL    HW215242   0.795   0.861   3.450  0.5788  2.2542  2.3503
 4948SOL     OW15243   5.147   2.009   5.794  0.4301  0.0304  0.7823
 4948SOL    HW115244   5.238   2.038   5.796  0.4264  0.0149  2.1872
 4948SOL    HW215245   5.146   1.932   5.852 -0.6653  0.6512  1.6170
 4949SOL     OW15246   3.862   5.066   2.596  0.6993  1.0876 -0.4559
 4949SOL    HW115247   3.942   5.079   2.545  0.2887  0.0883 -1.4043
 4949SOL    HW215248   3.796   5.043   2.531  0.5727 -2.0433  0.6019
 4950SOL     OW15249   1.121   5.557   0.181 -0.1949 -0.7091 -0.3905
 4950SOL    HW115250   1.053   5.592   0.238 -0.1846 -0.8237 -0.3068
 4950SOL    HW215251   1.168   5.494   0.236 -0.5922 -1.2967 -0.7162
 4951SOL     OW15252   5.306   6.697   6.055  0.2368  0.4004  0.3325
 4951SOL    HW115253   5.323   6.790   6.039  1.3724  0.2989  0.8141
 4951SOL    HW215254   5.258   6.696   6.138  1.8704  0.4970  1.3370
 4952SOL     OW15255   0.083   0.069   4.376  0.7699 -0.3623 -0.2607
 4952SOL    HW115256   0.058   0.114   4.295 -0.5585  2.0121  1.3630
 4952SOL    HW215257   0.138   0.132   4.423  0.1881 -1.0217  1.3777
 4953SOL     OW15258   2.180   1.835   2.255 -0.1716  0.0016 -0.5649
 4953SOL    HW115259   2.113   1.771   2.281  0.3172 -1.5418 -2.7689
 4953SOL    HW215260   2.245   1.832   2.326 -1.3851 -0.0374  0.5878
 4954SOL     OW15261   2.087   6.126   0.458  0.4352  0.5997  0.3975
 4954SOL    HW115262   1.998   6.151   0.433  0.4912  1.4610  1.0518
 4954SOL    HW215263   2.080   6.095   0.548  0.4270 -1.4826 -0.2630
 4955SOL     OW15264   4.524   3.180   2.256  0.0558 -0.5318 -0.2057
 4955SOL    HW115265   4.470   3.110   2.220  0.3328 -0.2861 -1.1513
 4955SOL    HW215266   4.465   3.229   2.313 -1.9754  1.9854 -4.0118
 4956SOL     OW15267   1.057   1.649   2.090 -0.1850 -0.1659 -0.4644
 4956SOL    HW115268   1.113   1.582   2.128 -0.4511 -0.7500 -1.0899
 4956SOL    HW215269   1.044   1.712   2.161  0.2952 -0.6278  0.0417
 4957SOL     OW15270   5.354   6.516   4.778 -0.4137  0.0006 -0.4821
 4957SOL    HW115271   5.310   6.455   4.720 -0.5952 -0.0093 -0.3365
 4957SOL    HW215272   5.355   6.472   4.863 -0.5730  0.2130 -0.3706
 4958SOL     OW15273   5.128   1.658   4.483  0.7049  0.5301  0.5331
 4958SOL    HW115274   5.147   1.677   4.575  0.8298  0.3468  0.5458
 4958SOL    HW215275   5.214   1.657   4.441  0.6601  0.4605  0.4434
 4959SOL     OW15276   4.582   2.766   6.069  0.1724 -0.1578  0.0615
 4959SOL    HW115277   4.608   2.854   6.041 -0.6307 -0.7942 -3.0400
 4959SOL    HW215278   4.494   2.754   6.033 -0.0618 -1.9488  1.1181
 4960SOL     OW15279   0.857   2.129   1.981  0.1805 -0.3159 -0.4247
 4960SOL    HW115280   0.893   2.066   1.919  0.0647 -0.5627 -0.2394
 4960SOL    HW215281   0.867   2.088   2.066 -2.8209 -1.5296 -0.5316
 4961SOL     OW15282   3.726   4.421   3.496  0.0105  0.0007 -0.3343
 4961SOL    HW115283   3.767   4.440   3.581  0.6476  0.4271 -0.7302
 4961SOL    HW215284   3.676   4.500   3.476  1.2055  0.5797 -1.1299
 4962SOL     OW15285   4.919   4.657   5.511  0.4763 -0.4040  0.1399
 4962SOL    HW115286   4.950   4.638   5.422 -0.2128 -0.4223 -0.1014
 4962SOL    HW215287   4.866   4.580   5.534  1.5845 -0.9283  1.0173
 4963SOL     OW15288   0.168   6.660   1.347  0.1311 -0.0942  1.0081
 4963SOL    HW115289   0.153   6.753   1.359  0.9849  0.1582  0.2087
 4963SOL    HW215290   0.239   6.654   1.283  0.6842 -1.2773  1.6823
 4964SOL     OW15291   5.354   4.100   4.596  0.2117  0.1123  0.3388
 4964SOL    HW115292   5.377   4.169   4.533 -0.2399 -0.3336 -0.3335
 4964SOL    HW215293   5.426   4.038   4.591  0.0803 -0.0232  0.1074
 4965SOL     OW15294   0.259   1.106   5.209  0.1805  0.1693  0.0911
 4965SOL    HW115295   0.302   1.069   5.286  0.4605  1.3022  0.4921
 4965SOL    HW215296   0.279   1.200   5.212  0.7581  0.1529 -1.7227
 4966SOL     OW15297   1.082   6.772   0.489 -0.2833  0.8586 -0.0853
 4966SOL    HW115298   1.019   6.772   0.418 -1.4610 -0.8667  0.8887
 4966SOL    HW215299   1.044   6.830   0.555 -1.4533 -0.9631  0.9280
 4967SOL     OW15300   0.123   2.536   6.368 -0.0296  0.2062  0.1184
 4967SOL    HW115301   0.209   2.496   6.364  0.5249  1.3922 -0.4871
 4967SOL    HW215302   0.130   2.613   6.311 -1.7699 -0.2007 -0.7060
 4968SOL     OW15303   5.222   3.668   1.324  0.2990 -0.1087 -0.0215
 4968SOL    HW115304   5.220   3.622   1.408 -0.5061  2.2669  1.3497
 4968SOL    HW215305   5.144   3.636   1.278 -0.0726 -0.3420  0.7597
 4969SOL     OW15306   5.111   1.209   4.151 -0.1637  0.3357  0.4643
 4969SOL    HW115307   5.175   1.247   4.211  0.2591  1.6785 -0.7969
 4969SOL    HW215308   5.074   1.283   4.105 -1.9895 -0.5051  0.5039
 4970SOL     OW15309   0.824   0.079   0.645 -0.4651  1.2117 -0.3004
 4970SOL    HW115310   0.885   0.150   0.626  0.7545  0.0464 -0.8901
 4970SOL    HW215311   0.738   0.121   0.646  0.0924  2.4912 -1.8692
 4971SOL     OW15312   5.522   0.875   4.122 -0.0711 -0.3070 -0.5508
 4971SOL    HW115313   5.452   0.913   4.068  0.4093  0.6319 -0.5355
 4971SOL    HW215314   5.588   0.847   4.058 -0.8185 -2.0193 -0.6284
 4972SOL     OW15315   3.325   5.152   1.610  0.7194  0.5455 -0.2431
 4972SOL    HW115316   3.243   5.185   1.575  0.4221 -1.1648 -1.2803
 4972SOL    HW215317   3.337   5.198   1.693 -0.4229  2.0280 -0.8660
 4973SOL     OW15318   2.764   4.151   6.173 -0.1216  0.5111 -0.0939
 4973SOL    HW115319   2.673   4.124   6.185  0.0535  0.4633  1.2829
 4973SOL    HW215320   2.761   4.213   6.100 -1.0903 -0.2984 -0.7703
 4974SOL     OW15321   3.503   5.256   2.845  0.4285 -0.1997 -0.2724
 4974SOL    HW115322   3.499   5.317   2.918 -3.5238  0.3168 -0.7207
 4974SOL    HW215323   3.501   5.169   2.886 -1.5156  0.0846  0.3395
 4975SOL     OW15324   1.574   2.847   5.958 -0.1529 -0.3374 -0.2024
 4975SOL    HW115325   1.507   2.781   5.939  0.2236 -0.2344 -2.1623
 4975SOL    HW215326   1.657   2.803   5.938  0.3962 -0.4137  2.0379
 4976SOL     OW15327   5.997   5.241   2.147 -0.0630 -0.2560  0.3698
 4976SOL    HW115328   5.926   5.231   2.084 -0.5846  1.1154  0.7020
 4976SOL    HW215329   6.066   5.287   2.099 -0.6037  1.1262  0.8428
 4977SOL     OW15330   1.589   6.319   4.026  0.0354 -0.0185  0.1753
 4977SOL    HW115331   1.580   6.261   3.951  0.4279 -0.9668  0.8444
 4977SOL    HW215332   1.661   6.378   4.002 -0.5011  0.3321 -0.5905
 4978SOL     OW15333   1.605   3.014   6.529 -0.5673 -0.6295  0.2227
 4978SOL    HW115334   1.525   3.064   6.515  0.0347 -0.0718 -1.5770
 4978SOL    HW215335   1.638   3.043   6.614 -1.2998  0.5130  0.1278
 4979SOL     OW15336   3.658   5.425   0.614  0.7423 -0.7253  0.7775
 4979SOL    HW115337   3.682   5.512   0.645  0.6737  0.1080 -1.3203
 4979SOL    HW215338   3.661   5.432   0.518  3.1151 -3.6626  0.4722
 4980SOL     OW15339   5.748   4.720   0.800  0.1022 -0.4006  0.0336
 4980SOL    HW115340   5.783   4.635   0.772 -0.4918 -0.7786  0.4344
 4980SOL    HW215341   5.808   4.750   0.868  0.5428 -0.3077 -0.3923
 4981SOL     OW15342   3.922   6.489   5.047 -0.2371 -0.6811 -0.7915
 4981SOL    HW115343   3.917   6.534   5.131  0.0882 -2.4204  0.2247
 4981SOL    HW215344   3.955   6.554   4.986  4.1243 -0.4668  1.3939
 4982SOL     OW15345   2.336   6.413   3.296 -0.0001  0.4137  0.1679
 4982SOL    HW115346   2.302   6.415   3.385  0.3364 -0.7739  0.3403
 4982SOL    HW215347   2.401   6.483   3.293  0.6434 -0.1215  1.1394
 4983SOL     OW15348   1.785   3.260   5.169 -0.5108  0.2346  0.1071
 4983SOL    HW115349   1.699   3.252   5.211 -1.3403  0.9668 -1.3645
 4983SOL    HW215350   1.782   3.199   5.095 -0.0745  0.8545 -0.4352
 4984SOL     OW15351   0.252   3.142   5.188  0.3290  0.0631 -0.2767
 4984SOL    HW115352   0.196   3.167   5.114 -0.0802 -0.2513 -0.0753
 4984SOL    HW215353   0.195   3.089   5.244  0.5659  0.4849  0.3786
 4985SOL     OW15354   6.354   6.635   6.320 -0.1787 -0.4965  0.3396
 4985SOL    HW115355   6.278   6.613   6.265  0.2616 -0.4654 -0.2974
 4985SOL    HW215356   6.425   6.581   6.285  0.7105  1.2469 -0.7058
 4986SOL     OW15357   5.676   5.183   6.418  0.0007 -0.0061  0.1720
 4986SOL    HW115358   5.670   5.108   6.478  0.5570 -1.3513 -1.3984
 4986SOL    HW215359   5.718   5.148   6.340 -3.5055  0.8384 -2.3267
 4987SOL     OW15360   4.256   5.118   5.718 -0.1409  0.4201 -0.1186
 4987SOL    HW115361   4.317   5.045   5.713  0.1405  0.7026 -1.0317
 4987SOL    HW215362   4.266   5.152   5.807  2.2499  1.4750 -0.7005
 4988SOL     OW15363   2.982   3.570   1.364 -0.1254 -0.4362 -0.5525
 4988SOL    HW115364   2.948   3.483   1.342 -0.5417 -1.0594  2.2150
 4988SOL    HW215365   3.016   3.561   1.453 -1.8597  2.6588  0.5605
 4989SOL     OW15366   4.004   2.639   6.676 -0.6579  0.4039 -0.4814
 4989SOL    HW115367   3.971   2.666   6.762  0.5042  0.8410 -0.1480
 4989SOL    HW215368   4.080   2.696   6.661 -0.0577 -0.5559 -1.2077
 4990SOL     OW15369   5.815   0.946   5.136  0.5921 -0.2651  0.2544
 4990SOL    HW115370   5.838   0.871   5.191 -0.1976 -0.5439  0.2196
 4990SOL    HW215371   5.721   0.956   5.148  0.7844  1.1755  0.8200
 4991SOL     OW15372   4.867   4.938   1.138 -0.0824  0.0349 -0.0520
 4991SOL    HW115373   4.821   4.882   1.076 -1.2917  0.4716  0.4269
 4991SOL    HW215374   4.875   5.022   1.093  2.3715 -0.6259 -1.0634
 4992SOL     OW15375   6.595   6.050   3.672 -0.0104 -0.4928 -0.3053
 4992SOL    HW115376   6.662   6.114   3.647 -0.6385  0.5280  0.5721
 4992SOL    HW215377   6.632   5.965   3.645  1.3577  0.1104 -0.3947
 4993SOL     OW15378   0.880   0.362   6.432 -0.0273  0.2236  0.1753
 4993SOL    HW115379   0.809   0.408   6.477 -0.4535  0.0200 -0.2819
 4993SOL    HW215380   0.862   0.376   6.339 -1.0316 -2.1019 -0.0525
 4994SOL     OW15381   0.852   0.421   0.951  0.0490 -0.3395  0.7132
 4994SOL    HW115382   0.773   0.422   0.897  0.2337  0.4365  0.4539
 4994SOL    HW215383   0.844   0.498   1.007  1.3794  0.6996 -0.4510
 4995SOL     OW15384   5.475   6.476   1.533 -0.5536  0.2160 -0.3468
 4995SOL    HW115385   5.458   6.499   1.442  0.4606 -0.6566 -0.7864
 4995SOL    HW215386   5.400   6.424   1.560 -1.0157  0.7623 -0.5673
 4996SOL     OW15387   3.873   4.740   3.418  0.6537  0.0523  0.1944
 4996SOL    HW115388   3.868   4.780   3.331  2.4728 -1.9625 -0.9526
 4996SOL    HW215389   3.789   4.697   3.430 -0.1951  1.6207  0.1557
 4997SOL     OW15390   3.480   1.476   4.328  0.3151 -0.0946 -0.0760
 4997SOL    HW115391   3.552   1.538   4.340 -1.4296  1.9875  0.3522
 4997SOL    HW215392   3.401   1.531   4.328 -1.3892 -2.3952  0.8285
 4998SOL     OW15393   2.844   2.190   0.575 -0.5958 -0.4573 -0.0034
 4998SOL    HW115394   2.828   2.137   0.654 -0.0029 -0.8951 -0.1719
 4998SOL    HW215395   2.873   2.127   0.509 -1.6403 -0.1836 -0.7573
 4999SOL     OW15396   0.893   6.730   4.205  0.0949 -0.1717 -0.0550
 4999SOL    HW115397   0.960   6.765   4.264  0.6653 -2.1186  0.5555
 4999SOL    HW215398   0.887   6.793   4.134 -0.0223  1.8417  1.6567
 5000SOL     OW15399   0.009   3.538   5.624 -0.5854 -0.1713 -0.4171
 5000SOL    HW115400  -0.073   3.531   5.671 -1.3114 -1.6208 -1.8088
 5000SOL    HW215401   0.028   3.449   5.593 -1.0228  0.8457 -4.1524
 5001SOL     OW15402   4.862   0.735   2.582 -0.0792 -0.1022 -0.2860
 5001SOL    HW115403   4.819   0.671   2.638 -1.0688  0.8811  0.1349
 5001SOL    HW215404   4.893   0.685   2.506 -1.5548 -0.9417 -0.3729
 5002SOL     OW15405   4.830   2.093   4.495  0.2792 -0.4933 -0.6064
 5002SOL    HW115406   4.864   2.072   4.581 -2.7462 -2.1681  0.3062
 5002SOL    HW215407   4.837   2.011   4.445 -0.6812 -0.3726 -0.9626
 5003SOL     OW15408   5.057   0.453   4.702  0.2958 -0.3240  0.6025
 5003SOL    HW115409   4.974   0.417   4.672  0.4982 -0.3944  0.1134
 5003SOL    HW215410   5.107   0.377   4.732  0.7757 -0.4832 -0.5564
 5004SOL     OW15411   3.364   2.350   0.625  0.1539 -0.3819  0.4180
 5004SOL    HW115412   3.328   2.264   0.604  0.3891 -0.5522  0.6990
 5004SOL    HW215413   3.450   2.330   0.662  0.3715 -0.0042  0.1214
 5005SOL     OW15414   3.684   2.928   5.748 -0.4486  0.0705 -0.0049
 5005SOL    HW115415   3.592   2.942   5.770 -0.8720  0.1702 -1.6863
 5005SOL    HW215416   3.683   2.855   5.686  0.5722  0.3197 -0.3409
 5006SOL     OW15417   4.809   5.367   5.917  0.2989  0.1331  0.0145
 5006SOL    HW115418   4.753   5.401   5.987  1.9556  1.5402  0.7258
 5006SOL    HW215419   4.821   5.275   5.938 -0.5654  0.1539  0.6523
 5007SOL     OW15420   5.466   0.865   4.992 -0.0703 -0.0206  0.1374
 5007SOL    HW115421   5.518   0.920   4.933 -1.0994  0.1300 -0.6557
 5007SOL    HW215422   5.513   0.782   4.997  1.0480  0.6247  0.6626
 5008SOL     OW15423   6.581   0.939   1.848 -0.1715 -0.2870 -0.4357
 5008SOL    HW115424   6.664   0.978   1.821 -0.4840  0.8710  0.2168
 5008SOL    HW215425   6.515   0.993   1.805 -0.6101 -0.7729 -0.3853
 5009SOL     OW15426   3.860   6.144   5.323 -0.5064  0.0170 -0.4221
 5009SOL    HW115427   3.884   6.234   5.344 -0.1258 -0.2677  0.4009
 5009SOL    HW215428   3.774   6.133   5.362 -1.9474  0.9272 -3.0717
 5010SOL     OW15429   4.650   3.485   1.838  0.4357  0.4254  0.0445
 5010SOL    HW115430   4.743   3.507   1.836  0.4764  0.3896  0.9705
 5010SOL    HW215431   4.634   3.441   1.754  0.9442  1.6059 -0.6927
 5011SOL     OW15432   1.057   0.293   4.820 -0.2712  0.3254 -0.4633
 5011SOL    HW115433   1.016   0.301   4.906  1.9591 -1.8019  0.9489
 5011SOL    HW215434   1.078   0.382   4.794 -0.4323  0.9839  1.5118
 5012SOL     OW15435   0.899   1.201   0.402  0.2667  0.5132  0.1459
 5012SOL    HW115436   0.808   1.207   0.431  0.7688 -0.1587  2.0574
 5012SOL    HW215437   0.906   1.115   0.360  0.1394  0.2945  0.5635
 5013SOL     OW15438   6.126   4.983   6.040 -0.1760 -0.4411  0.3858
 5013SOL    HW115439   6.194   5.032   6.086  1.4074 -1.8791 -0.3198
 5013SOL    HW215440   6.093   5.045   5.974  1.2083 -0.0176  0.0533
 5014SOL     OW15441   0.375   1.210   0.237  0.2102 -0.1779 -0.0367
 5014SOL    HW115442   0.468   1.223   0.220 -0.4915  1.9514 -3.0134
 5014SOL    HW215443   0.361   1.117   0.217  1.3231  0.0037 -1.9936
 5015SOL     OW15444   5.509   5.271   5.007 -0.0054 -0.1563 -0.1494
 5015SOL    HW115445   5.567   5.207   4.966  1.0592  1.0749 -0.6658
 5015SOL    HW215446   5.567   5.321   5.065 -1.0126 -0.2879  0.9966
 5016SOL     OW15447   4.680   2.881   3.342  0.1317  0.5902  0.2577
 5016SOL    HW115448   4.681   2.813   3.275 -3.1152  0.9058 -0.2646
 5016SOL    HW215449   4.716   2.839   3.420 -0.4143 -1.2694 -0.4469
 5017SOL     OW15450   4.484   0.989   3.205  0.3432  0.3243  0.4680
 5017SOL    HW115451   4.503   0.934   3.281  0.1081  0.5170  0.6694
 5017SOL    HW215452   4.411   0.945   3.161  1.3753 -0.5388 -0.4339
 5018SOL     OW15453   2.998   1.280   1.654  0.7235 -0.1804  0.0766
 5018SOL    HW115454   2.948   1.199   1.664 -0.3483  0.0433 -2.6607
 5018SOL    HW215455   2.949   1.344   1.706 -0.6528 -0.4670 -0.8066
 5019SOL     OW15456   1.175   2.026   6.402  0.4890  0.2962  0.0740
 5019SOL    HW115457   1.120   1.967   6.351 -0.1784  1.7229 -0.9269
 5019SOL    HW215458   1.204   2.093   6.340 -1.2969  2.7624  1.6748
 5020SOL     OW15459   3.727   3.526   3.370 -0.3600  0.1864  0.5554
 5020SOL    HW115460   3.705   3.443   3.328 -0.8542  0.0835  1.0056
 5020SOL    HW215461   3.651   3.581   3.353 -0.5770  0.1312  1.3442
 5021SOL     OW15462   1.907   3.583   0.723 -0.1315  0.1000 -0.1354
 5021SOL    HW115463   1.923   3.523   0.795 -0.2233  1.4831  1.0984
 5021SOL    HW215464   1.966   3.657   0.740 -0.2838  0.5370 -1.3918
 5022SOL     OW15465   5.612   1.781   0.891 -0.0348 -0.0742  0.4536
 5022SOL    HW115466   5.593   1.846   0.823 -0.9972 -2.0972 -1.3520
 5022SOL    HW215467   5.528   1.763   0.932  0.2325 -0.1411  0.9876
 5023SOL     OW15468   6.125   2.611   5.780 -0.9799  0.1348 -0.4364
 5023SOL    HW115469   6.036   2.608   5.815 -0.8391 -1.0573 -0.1488
 5023SOL    HW215470   6.174   2.549   5.834  0.7047  2.7334  1.2364
 5024SOL     OW15471   0.354   3.566   0.038  0.4791  0.0955  0.2499
 5024SOL    HW115472   0.362   3.514   0.118  1.4581  1.2763  0.9625
 5024SOL    HW215473   0.437   3.614   0.033  0.0208  0.7996 -0.9384
 5025SOL     OW15474   6.644   1.675   5.516 -0.2460  0.0745  0.0179
 5025SOL    HW115475   6.733   1.638   5.519 -0.5298 -0.5556  0.8095
 5025SOL    HW215476   6.590   1.604   5.481 -0.4357  0.4894 -0.5526
 5026SOL     OW15477   1.917   3.977   1.816  0.2915  0.0534  0.3774
 5026SOL    HW115478   1.870   4.030   1.880  0.3545 -0.3123  0.7261
 5026SOL    HW215479   1.851   3.956   1.750  0.0516 -0.1586  0.6816
 5027SOL     OW15480   3.323   2.567   1.515  0.1444  0.0987 -0.7906
 5027SOL    HW115481   3.316   2.572   1.611  2.2782 -0.8154 -0.5318
 5027SOL    HW215482   3.261   2.633   1.483 -1.1016 -0.0248  1.1873
 5028SOL     OW15483   3.236   6.423   0.436 -0.3894 -0.3245  0.1362
 5028SOL    HW115484   3.204   6.509   0.407 -0.0710 -0.2950 -0.1389
 5028SOL    HW215485   3.174   6.395   0.503  2.0777  2.3927  3.9971
 5029SOL     OW15486   4.694   5.606   6.341 -0.0049  0.0460  0.2912
 5029SOL    HW115487   4.700   5.527   6.287 -2.3790 -1.3397  1.9049
 5029SOL    HW215488   4.784   5.623   6.367  0.5907 -2.1564 -0.0816
 5030SOL     OW15489   1.888   0.412   0.335 -0.0410 -0.5103 -0.3791
 5030SOL    HW115490   1.901   0.374   0.422  0.5819  0.6280  0.0536
 5030SOL    HW215491   1.804   0.457   0.341  0.1755 -0.1219 -0.2463
 5031SOL     OW15492   2.572   1.420   2.318 -0.3286  0.3039  0.2044
 5031SOL    HW115493   2.519   1.373   2.383 -1.3518  0.8919 -0.1880
 5031SOL    HW215494   2.594   1.503   2.360  1.8708 -0.6481  1.0764
 5032SOL     OW15495   2.417   1.640   4.460  0.4132  0.3894  0.7080
 5032SOL    HW115496   2.410   1.565   4.519 -2.3809  0.4071  0.5452
 5032SOL    HW215497   2.366   1.615   4.383 -0.6357  2.4183  0.6686
 5033SOL     OW15498   1.394   4.242   4.612 -0.3262  0.0394  0.0184
 5033SOL    HW115499   1.469   4.257   4.670 -0.4261 -2.2917  0.8359
 5033SOL    HW215500   1.430   4.194   4.537 -0.8419 -0.2812 -0.0303
 5034SOL     OW15501   3.755   1.734   2.083 -0.1816  0.2251 -0.2449
 5034SOL    HW115502   3.832   1.710   2.032 -0.9115 -0.6694 -0.9538
 5034SOL    HW215503   3.789   1.754   2.170  1.0032  1.1229 -0.8893
 5035SOL     OW15504   5.710   1.264   6.006 -0.1573  1.1380 -0.1180
 5035SOL    HW115505   5.701   1.220   5.921 -0.2782  1.2074 -0.1406
 5035SOL    HW215506   5.789   1.317   5.997  1.1724 -0.6202  0.5772
 5036SOL     OW15507   6.135   1.497   5.136  0.5171  0.4361 -0.0016
 5036SOL    HW115508   6.168   1.511   5.048  0.3188 -0.5464 -0.2393
 5036SOL    HW215509   6.042   1.482   5.125  0.3475  1.0948  0.4626
 5037SOL     OW15510   3.936   1.905   4.151  0.2496 -0.0410  0.5040
 5037SOL    HW115511   3.932   1.812   4.171 -0.0037 -0.5854 -1.7946
 5037SOL    HW215512   4.029   1.922   4.137  0.3908  0.2713  1.6843
 5038SOL     OW15513   1.348   4.289   0.462 -0.3024  0.1613  0.4432
 5038SOL    HW115514   1.290   4.328   0.397 -0.5192 -2.5941 -1.1954
 5038SOL    HW215515   1.418   4.249   0.410  0.2439 -1.0087  1.9903
 5039SOL     OW15516   1.742   3.014   0.332  0.5230 -0.3321 -0.0399
 5039SOL    HW115517   1.764   3.020   0.239 -2.2214  0.4968 -0.7255
 5039SOL    HW215518   1.785   3.089   0.372 -0.8801  1.2373 -1.3051
 5040SOL     OW15519   1.021   3.168   3.796 -0.1677  0.3343 -0.4805
 5040SOL    HW115520   1.032   3.226   3.722  0.4311 -1.1212 -1.5804
 5040SOL    HW215521   1.109   3.158   3.833 -0.0145 -0.8424 -1.1006
 5041SOL     OW15522   6.707   5.121   5.952 -0.4408  0.4350  0.1812
 5041SOL    HW115523   6.614   5.115   5.932 -0.0582  0.1435 -1.6795
 5041SOL    HW215524   6.728   5.039   5.996 -1.4307  1.3247  2.4573
 5042SOL     OW15525   4.810   6.111   1.213 -0.8271  0.0947  0.2878
 5042SOL    HW115526   4.812   6.028   1.166 -0.3201  1.8643 -3.1427
 5042SOL    HW215527   4.720   6.142   1.205 -0.2241  1.4939 -1.7568
 5043SOL     OW15528   0.994   4.110   3.679  0.7523  0.0415  0.1457
 5043SOL    HW115529   0.898   4.107   3.675  0.7693 -0.2277 -0.0753
 5043SOL    HW215530   1.013   4.189   3.730  0.4366  0.5930 -0.5682
 5044SOL     OW15531   1.118   0.204   5.618  0.2702 -0.0665 -0.2559
 5044SOL    HW115532   1.048   0.145   5.589 -1.4250  0.4956  2.3846
 5044SOL    HW215533   1.170   0.151   5.678  1.4730 -0.1344 -1.3197
 5045SOL     OW15534   0.447   5.159   1.087  0.1619  0.1609 -0.3161
 5045SOL    HW115535   0.461   5.138   0.995  0.6104  1.9631 -0.6921
 5045SOL    HW215536   0.395   5.085   1.121 -0.5616 -0.2262 -2.1491
 5046SOL     OW15537   0.939   4.804   4.859 -0.1699 -0.0782  0.0526
 5046SOL    HW115538   0.900   4.739   4.801  0.4811  0.0470 -0.5426
 5046SOL    HW215539   0.869   4.867   4.875 -0.6623 -0.6615  0.2437
 5047SOL     OW15540   3.248   4.279   6.256 -0.5789  0.5673  0.3263
 5047SOL    HW115541   3.167   4.294   6.305 -1.7063 -1.2241 -0.8998
 5047SOL    HW215542   3.299   4.359   6.270 -1.8066  1.0652  2.5088
 5048SOL     OW15543   5.249   5.820   0.150  0.7798  0.4663 -0.5461
 5048SOL    HW115544   5.179   5.840   0.087  1.2013  2.3631 -0.4628
 5048SOL    HW215545   5.304   5.757   0.104 -1.4171 -1.8049 -0.2812
 5049SOL     OW15546   5.521   1.787   5.709  0.1254 -0.5325 -0.2495
 5049SOL    HW115547   5.497   1.722   5.644 -2.0467 -0.3630  0.3084
 5049SOL    HW215548   5.460   1.773   5.781  0.6467  1.0730  0.5608
 5050SOL     OW15549   4.971   4.622   3.962 -0.0464 -0.0418 -0.8211
 5050SOL    HW115550   5.045   4.662   4.007  0.4242 -0.0367 -1.5872
 5050SOL    HW215551   4.988   4.637   3.869 -1.2243  0.3461 -0.9958
 5051SOL     OW15552   6.116   4.985   5.617 -0.1177  0.2180  0.1720
 5051SOL    HW115553   6.121   5.023   5.529 -0.5157  1.1014  0.5212
 5051SOL    HW215554   6.186   4.920   5.619  0.5026  0.8583 -0.4795
 5052SOL     OW15555   0.053   5.115   4.731 -0.4344 -0.4053 -0.0582
 5052SOL    HW115556   0.072   5.209   4.739 -1.5384 -0.1812  0.1596
 5052SOL    HW215557   0.060   5.081   4.820 -1.4550 -0.2250  0.1038
 5053SOL     OW15558   5.526   2.412   1.934  0.0983 -0.2807 -0.6197
 5053SOL    HW115559   5.530   2.395   1.840 -1.1028  0.1003 -0.7641
 5053SOL    HW215560   5.484   2.498   1.941  1.9749  0.6343  0.2229
 5054SOL     OW15561   0.684   6.309   1.693 -0.1019  0.5466  0.4680
 5054SOL    HW115562   0.655   6.355   1.615 -0.5191  0.1076  0.3634
 5054SOL    HW215563   0.779   6.310   1.688 -0.1046 -1.4372 -1.2114
 5055SOL     OW15564   2.187   4.513   3.357  0.6555 -0.3141 -0.2731
 5055SOL    HW115565   2.142   4.522   3.273  2.5933  1.2153 -1.2392
 5055SOL    HW215566   2.141   4.575   3.414  0.1047 -0.4531 -0.5531
 5056SOL     OW15567   2.241   3.592   4.392 -0.1491 -0.4853  0.5639
 5056SOL    HW115568   2.224   3.686   4.398 -1.7544 -0.5805 -1.3677
 5056SOL    HW215569   2.333   3.582   4.418  0.6652  1.8761 -1.0731
 5057SOL     OW15570   2.484   6.266   5.010 -0.8234 -0.0464 -0.6450
 5057SOL    HW115571   2.465   6.268   5.104 -0.8096  0.4101 -0.6525
 5057SOL    HW215572   2.409   6.221   4.972 -0.3048 -1.2490 -0.2918
 5058SOL     OW15573   3.971   2.147   4.828  0.4700  0.1852 -0.0178
 5058SOL    HW115574   3.993   2.217   4.766 -1.5516  0.1791 -0.8307
 5058SOL    HW215575   3.877   2.155   4.841  0.2478 -2.0987  0.2240
 5059SOL     OW15576   2.035   4.840   0.323  0.5067 -0.1506  0.3834
 5059SOL    HW115577   1.985   4.811   0.247  0.5845 -2.7790  1.2220
 5059SOL    HW215578   2.114   4.880   0.286  0.7933 -1.8534 -0.9528
 5060SOL     OW15579   4.296   5.238   4.536 -0.0546  0.4133  0.1694
 5060SOL    HW115580   4.289   5.319   4.486 -0.6145 -1.0780 -2.3948
 5060SOL    HW215581   4.292   5.265   4.628 -1.2177  3.1648 -0.5896
 5061SOL     OW15582   4.777   1.753   3.083 -0.2917  0.3939  0.0954
 5061SOL    HW115583   4.870   1.767   3.066 -0.5082  1.1153 -0.4914
 5061SOL    HW215584   4.758   1.808   3.159 -0.0714 -0.3690  0.7278
 5062SOL     OW15585   2.321   6.045   0.342 -0.4757 -0.4298 -0.3055
 5062SOL    HW115586   2.329   6.103   0.266 -3.0240 -0.8763 -1.0295
 5062SOL    HW215587   2.235   6.065   0.378  0.3069 -0.8910  1.9528
 5063SOL     OW15588   0.615   4.742   0.441 -0.3500  0.3235  0.3983
 5063SOL    HW115589   0.597   4.813   0.380  1.6785 -0.5523 -1.3402
 5063SOL    HW215590   0.608   4.662   0.388 -0.9244 -0.6850  1.9063
 5064SOL     OW15591   6.620   1.928   5.447  0.1363 -0.2777  0.0252
 5064SOL    HW115592   6.530   1.962   5.454 -0.3104 -1.5871  1.3327
 5064SOL    HW215593   6.609   1.833   5.445  1.4564 -0.4252 -1.0548
 5065SOL     OW15594   2.197   3.291   4.242  0.5796 -0.6335 -0.4248
 5065SOL    HW115595   2.176   3.315   4.332  0.4883 -1.6120 -0.1765
 5065SOL    HW215596   2.161   3.204   4.231  0.7909 -0.6156 -1.3437
 5066SOL     OW15597   3.878   2.028   5.087  0.5289 -0.2239 -0.0812
 5066SOL    HW115598   3.812   2.050   5.021 -1.0372  1.4962  1.8984
 5066SOL    HW215599   3.860   2.088   5.159  3.1469 -0.9620  1.3044
 5067SOL     OW15600   5.310   1.469   6.504 -0.2699  0.3901  0.3183
 5067SOL    HW115601   5.400   1.453   6.531  0.0253  0.0420 -0.8230
 5067SOL    HW215602   5.317   1.516   6.421 -1.1452  1.2111  0.6912
 5068SOL     OW15603   4.070   3.036   6.527  0.1569  0.5522 -0.4222
 5068SOL    HW115604   4.092   3.111   6.471  1.2307 -0.9671 -2.1364
 5068SOL    HW215605   4.135   2.970   6.506 -0.6732 -0.8442  1.1527
 5069SOL     OW15606   2.008   5.088   1.156  0.0184  0.1566  0.2292
 5069SOL    HW115607   2.000   4.993   1.156  0.0156  0.1509 -0.8290
 5069SOL    HW215608   2.094   5.105   1.118  0.7019  0.5493  1.8347
 5070SOL     OW15609   1.173   5.350   0.363  0.2844 -0.0332  0.7241
 5070SOL    HW115610   1.145   5.380   0.450 -2.2376 -0.0620  0.0204
 5070SOL    HW215611   1.104   5.289   0.336  2.1988 -1.8494 -0.3634
 5071SOL     OW15612   0.738   2.301   1.778  0.6447 -0.7974  0.1405
 5071SOL    HW115613   0.750   2.224   1.832  0.4563 -1.4153 -0.6788
 5071SOL    HW215614   0.752   2.375   1.838  1.1760 -1.4560  0.8477
 5072SOL     OW15615   3.683   2.912   1.259  0.1119  0.0430 -0.3234
 5072SOL    HW115616   3.741   2.863   1.318 -0.3726 -0.4909 -0.2842
 5072SOL    HW215617   3.634   2.844   1.212 -0.9588  0.5002  0.1186
 5073SOL     OW15618   5.527   4.160   1.890 -0.3251 -0.5739 -0.1211
 5073SOL    HW115619   5.589   4.189   1.958 -0.3545 -2.1538  0.6279
 5073SOL    HW215620   5.500   4.240   1.846  1.3054  0.2834  0.3609
 5074SOL     OW15621   5.217   1.370   0.005  0.3897 -0.1377  0.2125
 5074SOL    HW115622   5.229   1.414  -0.079 -0.7599 -0.5937 -0.2098
 5074SOL    HW215623   5.186   1.283  -0.018 -0.6585 -0.0238  1.1191
 5075SOL     OW15624   3.935   6.597   6.123 -0.4443  0.5755 -0.2311
 5075SOL    HW115625   3.971   6.564   6.205 -1.4369  0.6411  0.2528
 5075SOL    HW215626   3.858   6.542   6.106 -1.0731  1.4723 -0.3613
 5076SOL     OW15627   4.506   4.022   3.738 -0.1486  0.2871 -0.2788
 5076SOL    HW115628   4.468   3.936   3.756 -0.7762  0.9398  1.8324
 5076SOL    HW215629   4.435   4.084   3.755  1.1526  1.4000  1.3778
 5077SOL     OW15630   1.465   0.868   3.244  0.0320 -0.0510 -0.5909
 5077SOL    HW115631   1.436   0.846   3.332 -1.8121  0.1853 -1.1053
 5077SOL    HW215632   1.553   0.829   3.238 -0.1707 -0.8607  1.0172
 5078SOL     OW15633   0.212   5.359   5.619 -0.7505  0.1106  0.0412
 5078SOL    HW115634   0.187   5.340   5.710  0.0998 -1.2808  0.0247
 5078SOL    HW215635   0.302   5.391   5.625 -0.1013 -1.5194 -0.3924
 5079SOL     OW15636   3.682   3.420   5.689 -0.7640  0.2410 -0.5093
 5079SOL    HW115637   3.653   3.371   5.766 -1.7346  1.6280  0.0714
 5079SOL    HW215638   3.745   3.483   5.723 -2.3197  1.8973 -0.4977
 5080SOL     OW15639   3.018   0.662   5.919 -0.5370 -0.1285 -0.3178
 5080SOL    HW115640   3.091   0.640   5.862 -0.0971 -1.1251  0.6039
 5080SOL    HW215641   2.941   0.658   5.862  0.2803  3.1303 -1.8415
 5081SOL     OW15642   4.299   4.296   2.240  0.6806 -0.3008  1.3631
 5081SOL    HW115643   4.237   4.352   2.286  1.1074  0.2314  1.3046
 5081SOL    HW215644   4.330   4.235   2.308  1.0982  0.3014  1.7300
 5082SOL     OW15645   6.147   2.021   3.138  0.2693 -0.0635 -0.5664
 5082SOL    HW115646   6.108   2.007   3.225 -0.7035  1.6386 -0.6840
 5082SOL    HW215647   6.196   2.102   3.147  0.1994  0.0977 -1.5873
 5083SOL     OW15648   0.972   3.848   4.695 -0.3722  0.0789 -0.3748
 5083SOL    HW115649   1.007   3.772   4.647  3.2015  0.1590  1.7234
 5083SOL    HW215650   1.006   3.924   4.647  0.8546  0.1875  0.6082
 5084SOL     OW15651   1.722   1.114   0.734  0.6257  0.1091 -0.3968
 5084SOL    HW115652   1.781   1.043   0.707  0.9826 -0.4433  1.6518
 5084SOL    HW215653   1.764   1.152   0.811 -1.4535 -0.0418  0.9064
 5085SOL     OW15654   0.900   4.354   0.478  0.2299  0.1577  0.1326
 5085SOL    HW115655   0.981   4.367   0.428 -0.5574 -0.9019 -1.5236
 5085SOL    HW215656   0.875   4.442   0.507  1.2938  0.6730 -0.4502
 5086SOL     OW15657   4.879   1.758   0.070  1.2254  0.0227 -0.3565
 5086SOL    HW115658   4.905   1.756   0.162 -0.0411  0.8925  0.0552
 5086SOL    HW215659   4.798   1.809   0.070  0.4210 -1.1868 -1.7597
 5087SOL     OW15660   2.262   5.995   6.766 -0.1533  0.0447  0.1726
 5087SOL    HW115661   2.199   5.971   6.834 -0.1223  0.9887  0.5471
 5087SOL    HW215662   2.309   6.070   6.802 -0.8134  1.2047 -1.2651
 5088SOL     OW15663   2.598   0.332   3.464 -0.1079  0.3087  0.3769
 5088SOL    HW115664   2.646   0.413   3.483 -2.3230  1.5823  0.9140
 5088SOL    HW215665   2.557   0.308   3.547  1.6187 -2.2378  0.6038
 5089SOL     OW15666   5.193   3.437   6.471 -0.6073  0.7379  0.1846
 5089SOL    HW115667   5.179   3.426   6.377  2.4631 -0.7100 -0.2222
 5089SOL    HW215668   5.211   3.530   6.483  0.3323  0.7227 -0.9277
 5090SOL     OW15669   0.138   2.220   6.586 -1.0417 -0.3966 -0.1841
 5090SOL    HW115670   0.113   2.175   6.505 -0.6897  1.3199 -1.2948
 5090SOL    HW215671   0.224   2.258   6.566 -0.1556 -1.3263  1.5954
 5091SOL     OW15672   0.339   4.760   3.372 -0.2493  0.0436 -0.5125
 5091SOL    HW115673   0.426   4.779   3.406 -0.6191  0.2219  0.3718
 5091SOL    HW215674   0.311   4.841   3.329 -0.8621  0.7796  1.1694
 5092SOL     OW15675   1.616   5.405   5.133  0.0708 -0.8605  0.2571
 5092SOL    HW115676   1.605   5.310   5.140 -1.7212 -0.6609  0.5382
 5092SOL    HW215677   1.579   5.428   5.048 -0.3726 -0.2912  0.5988
 5093SOL     OW15678   3.045   3.240   3.480 -0.3666  0.1021  0.1880
 5093SOL    HW115679   3.139   3.246   3.468 -0.5101 -0.2946 -1.4050
 5093SOL    HW215680   3.015   3.183   3.409 -1.5859 -1.3795  1.7813
 5094SOL     OW15681   2.504   3.165   3.783  0.0487  0.3294 -0.0532
 5094SOL    HW115682   2.590   3.186   3.820  1.0620 -3.6283  0.2851
 5094SOL    HW215683   2.523   3.107   3.709 -2.3036  0.9516 -1.2205
 5095SOL     OW15684   2.134   1.936   3.667  0.2109  0.2038 -0.7939
 5095SOL    HW115685   2.092   2.022   3.665  1.8956  1.1197  0.1577
 5095SOL    HW215686   2.209   1.948   3.726 -0.1262 -2.2356  0.2283
 5096SOL     OW15687   3.538   0.027   5.315 -0.0532 -0.0528  0.3998
 5096SOL    HW115688   3.496   0.047   5.231 -1.3886 -1.0504  0.8001
 5096SOL    HW215689   3.532  -0.068   5.323  3.4109 -0.4215 -0.0582
 5097SOL     OW15690   3.891   2.855   2.929 -0.2032  0.2593  0.1179
 5097SOL    HW115691   3.814   2.911   2.938 -0.4725 -0.2761  1.3876
 5097SOL    HW215692   3.875   2.781   2.988  1.4710  0.3566  0.7762
 5098SOL     OW15693   1.546   2.741   3.139 -0.0713 -0.0894 -0.1785
 5098SOL    HW115694   1.600   2.775   3.211  1.0860 -0.4862 -0.8294
 5098SOL    HW215695   1.467   2.795   3.141 -0.7576 -1.0539  2.3250
 5099SOL     OW15696   5.329   1.238   2.625  0.1354  0.3691  0.0213
 5099SOL    HW115697   5.372   1.195   2.699  1.6554  1.7818  0.0147
 5099SOL    HW215698   5.398   1.290   2.584 -1.4311  2.2460 -0.3852
 5100SOL     OW15699   0.973   5.237   5.713  0.2955 -0.1804  0.3678
 5100SOL    HW115700   0.971   5.180   5.636  1.0525  0.7370 -0.3576
 5100SOL    HW215701   0.881   5.250   5.737  0.0323 -0.1147 -0.6595
 5101SOL     OW15702   1.297   4.232   3.812 -0.2323 -0.3637  0.4227
 5101SOL    HW115703   1.381   4.195   3.785  1.0119  1.1728  1.9996
 5101SOL    HW215704   1.269   4.285   3.737 -0.3584 -1.6753 -0.5053
 5102SOL     OW15705   1.635   2.065   5.954  0.1213 -0.3877  0.6071
 5102SOL    HW115706   1.668   2.021   6.033  0.7421 -0.5158  0.2802
 5102SOL    HW215707   1.564   2.009   5.923  1.8498 -1.9762 -0.6423
 5103SOL     OW15708   1.289   4.505   4.588 -0.4341  0.0191  0.4687
 5103SOL    HW115709   1.315   4.414   4.576  1.3778  0.6476 -0.7812
 5103SOL    HW215710   1.250   4.531   4.505  0.7224  0.8608  0.1516
 5104SOL     OW15711   3.026   1.705   5.355 -0.8703 -0.3051 -0.0668
 5104SOL    HW115712   3.038   1.612   5.337  0.8924 -0.2701  0.6941
 5104SOL    HW215713   3.112   1.735   5.384 -1.4538  1.5221 -0.0861
 5105SOL     OW15714   0.727   1.740   4.924  0.1762 -0.0325  0.1010
 5105SOL    HW115715   0.658   1.754   4.989  0.9771  0.3704  0.8988
 5105SOL    HW215716   0.791   1.809   4.943  0.7872 -0.3877 -0.6291
 5106SOL     OW15717   2.143   4.724   4.126 -0.0633  0.0662  0.4426
 5106SOL    HW115718   2.112   4.782   4.196 -1.7331 -0.8109  0.4707
 5106SOL    HW215719   2.124   4.636   4.157 -0.6956 -0.3480 -1.0282
 5107SOL     OW15720   2.581   2.226   1.396 -0.4775  0.1636 -0.8259
 5107SOL    HW115721   2.602   2.279   1.473 -0.9292 -1.9487  0.8695
 5107SOL    HW215722   2.634   2.263   1.326  0.1875  1.9967  0.5676
 5108SOL     OW15723   1.511   2.435   5.124  0.1495  0.1183 -0.3024
 5108SOL    HW115724   1.480   2.502   5.186  1.2461  0.1056  0.2824
 5108SOL    HW215725   1.463   2.454   5.044 -0.9955  0.4027  0.4160
 5109SOL     OW15726   1.092   1.393   2.305  0.1764  0.3447  0.0252
 5109SOL    HW115727   1.034   1.352   2.369  0.8778 -0.5627  0.0936
 5109SOL    HW215728   1.141   1.457   2.356  0.5290 -0.1731  0.3452
 5110SOL     OW15729   0.334   4.958   5.455 -0.2224  0.4534 -0.3189
 5110SOL    HW115730   0.396   5.023   5.422  0.3182  0.2920  0.3544
 5110SOL    HW215731   0.315   4.986   5.545  0.7621 -0.8203  0.3199
 5111SOL     OW15732   0.210   5.732   2.762  0.7699  0.2216 -0.1385
 5111SOL    HW115733   0.293   5.777   2.777  1.3359 -0.8273  0.0335
 5111SOL    HW215734   0.146   5.779   2.815  1.0829  1.5220 -0.8802
 5112SOL     OW15735   5.357   1.449   5.387  0.1006 -0.2211 -0.2668
 5112SOL    HW115736   5.435   1.502   5.408  2.1605 -1.3650 -4.0882
 5112SOL    HW215737   5.287   1.514   5.375  0.9631  1.0453  1.1240
 5113SOL     OW15738   3.016   4.067   2.153 -0.1438  0.2498  0.0968
 5113SOL    HW115739   2.978   4.032   2.072 -0.7764 -1.4052  1.0725
 5113SOL    HW215740   3.110   4.070   2.135 -0.1412 -1.3087 -0.2946
 5114SOL     OW15741   1.135   2.610   3.558 -0.0558 -0.4520  0.4452
 5114SOL    HW115742   1.047   2.584   3.531 -0.1246  0.2146  0.0114
 5114SOL    HW215743   1.155   2.686   3.504  0.8142 -0.6371  0.4945
 5115SOL     OW15744   3.647   3.726   2.350  0.2108 -0.2329 -0.5885
 5115SOL    HW115745   3.573   3.783   2.327  0.2010  0.2375  0.5279
 5115SOL    HW215746   3.708   3.783   2.397 -0.9292 -1.5525  2.8221
 5116SOL     OW15747   4.662   5.417   2.018 -0.5370 -0.1325  0.0390
 5116SOL    HW115748   4.615   5.337   1.992  1.1517 -0.6288 -1.6840
 5116SOL    HW215749   4.698   5.451   1.936  2.7847 -0.2499  1.3075
 5117SOL     OW15750   5.212   0.233   5.729 -0.5675  0.6398  0.8278
 5117SOL    HW115751   5.170   0.319   5.728  0.4703  1.1634 -1.5390
 5117SOL    HW215752   5.143   0.173   5.701 -0.8868  0.8749  1.0940
 5118SOL     OW15753   3.789   1.563   4.580  0.1898  0.5341 -0.3081
 5118SOL    HW115754   3.800   1.508   4.502 -0.3600 -0.6811  0.4593
 5118SOL    HW215755   3.857   1.631   4.570  1.6725 -0.9342 -0.6915
 5119SOL     OW15756   4.832   2.017   3.593  0.1860  0.4990  0.2457
 5119SOL    HW115757   4.848   2.087   3.530 -0.7264 -0.0331 -0.6056
 5119SOL    HW215758   4.742   2.030   3.622  0.0759 -0.1800  0.2383
 5120SOL     OW15759   1.215   3.709   6.013 -0.1061 -0.1230  0.1925
 5120SOL    HW115760   1.239   3.625   5.975  1.9836  0.3815  0.2786
 5120SOL    HW215761   1.174   3.757   5.941  1.2268 -0.2211 -0.6775
 5121SOL     OW15762   0.124   6.417   1.251 -0.3312 -0.0935 -0.1867
 5121SOL    HW115763   0.125   6.513   1.253 -0.3793 -0.0271 -2.1353
 5121SOL    HW215764   0.050   6.393   1.307 -0.1087  0.9769  0.6073
 5122SOL     OW15765   6.045   2.536   6.593  0.8220 -0.1444  0.3097
 5122SOL    HW115766   6.127   2.567   6.631 -0.8837  2.0568  2.5227
 5122SOL    HW215767   6.005   2.483   6.662 -0.2707  0.0022 -0.1918
 5123SOL     OW15768   2.056   2.225   3.699  0.4509 -0.7705 -0.6263
 5123SOL    HW115769   2.007   2.214   3.617  0.3051 -0.1301 -0.6320
 5123SOL    HW215770   2.146   2.242   3.670  0.4622 -0.8600 -0.6446
 5124SOL     OW15771   2.524   0.708   3.963 -0.0308  0.3358 -0.1950
 5124SOL    HW115772   2.504   0.761   3.887 -0.9259 -0.4133 -0.4975
 5124SOL    HW215773   2.454   0.642   3.967  0.0412  0.2969  1.2128
 5125SOL     OW15774   1.731   5.689   6.202  0.3899  0.1729 -0.3655
 5125SOL    HW115775   1.784   5.688   6.122 -0.1455 -0.0792 -0.7199
 5125SOL    HW215776   1.673   5.764   6.192  0.6344  0.4140 -0.0024
 5126SOL     OW15777   5.933   5.375   2.822  0.1479  0.8119  0.2747
 5126SOL    HW115778   5.999   5.444   2.815  0.6282  0.4212  0.8988
 5126SOL    HW215779   5.880   5.401   2.897  1.0738 -0.1163  1.2677
 5127SOL     OW15780   5.790   3.768   3.963  0.3355  1.1480  0.0939
 5127SOL    HW115781   5.767   3.819   4.041 -0.2148  0.5454  0.3279
 5127SOL    HW215782   5.854   3.823   3.918  0.8374  1.4158  1.0838
 5128SOL     OW15783   6.629   6.213   0.484  0.0496  0.2309 -0.5182
 5128SOL    HW115784   6.624   6.206   0.389 -0.6112  1.3633 -0.5864
 5128SOL    HW215785   6.709   6.263   0.500 -0.0249  0.3467 -0.5044
 5129SOL     OW15786   4.965   1.773   0.345  0.4349 -0.8893  0.1620
 5129SOL    HW115787   4.998   1.684   0.334 -1.0128 -1.4065 -0.2773
 5129SOL    HW215788   4.969   1.789   0.439 -2.4808 -2.7788  0.7309
 5130SOL     OW15789   3.343   1.895   1.042 -0.8161  0.7362 -0.1313
 5130SOL    HW115790   3.321   1.978   1.000 -2.6913  0.4980  0.2716
 5130SOL    HW215791   3.374   1.920   1.129 -1.7456  1.0249  0.1297
 5131SOL     OW15792   5.046   3.218   1.051 -0.0339  0.1198  0.2666
 5131SOL    HW115793   5.137   3.190   1.050 -0.9009 -3.0914 -0.3454
 5131SOL    HW215794   5.045   3.301   1.004  2.1720 -1.2972 -2.5589
 5132SOL     OW15795   1.580   5.354   1.809 -0.1928  0.2521 -0.0119
 5132SOL    HW115796   1.651   5.290   1.810 -0.6161 -0.2289  0.8502
 5132SOL    HW215797   1.621   5.437   1.835  0.1068  0.0338  0.2189
 5133SOL     OW15798   2.137   3.879   5.769  0.6769  0.0198  0.6842
 5133SOL    HW115799   2.176   3.924   5.693 -0.0621  0.0216  0.2965
 5133SOL    HW215800   2.150   3.786   5.750  1.1439  0.0383  0.9103
 5134SOL     OW15801   2.318   4.199   4.557 -0.6550  0.1731  0.0780
 5134SOL    HW115802   2.351   4.288   4.546 -1.4904  0.7231  1.7093
 5134SOL    HW215803   2.228   4.211   4.586 -1.6339 -1.2610 -2.1374
 5135SOL     OW15804   0.942   3.862   6.365  0.0320  0.8156 -0.4353
 5135SOL    HW115805   0.926   3.817   6.282 -1.4397 -0.3134  0.4157
 5135SOL    HW215806   0.999   3.935   6.342 -2.5482  2.2400 -2.9802
 5136SOL     OW15807   4.883   2.865   4.840  0.1271 -0.1947 -0.0927
 5136SOL    HW115808   4.913   2.901   4.756  0.0521 -0.9368 -0.4476
 5136SOL    HW215809   4.961   2.828   4.880  0.5157  1.6824  0.9871
 5137SOL     OW15810   0.249   0.693   1.453 -0.2324 -0.1663 -0.1887
 5137SOL    HW115811   0.216   0.769   1.404 -4.3505  0.0009  2.4264
 5137SOL    HW215812   0.299   0.731   1.525 -1.5068  0.0562  0.5920
 5138SOL     OW15813   5.142   3.077   4.902 -0.0639  0.5046  0.1755
 5138SOL    HW115814   5.196   3.017   4.954 -0.1570 -0.3859 -0.7349
 5138SOL    HW215815   5.128   3.031   4.819  0.3175  2.0107 -0.7558
 5139SOL     OW15816   4.926   4.834   3.303  0.1383 -0.4876 -0.0796
 5139SOL    HW115817   5.011   4.791   3.302 -0.5782 -2.0142  0.6497
 5139SOL    HW215818   4.864   4.763   3.322 -1.6233  0.0024 -3.3557
 5140SOL     OW15819   2.182   3.429   2.988  0.2040  0.5924  0.2421
 5140SOL    HW115820   2.168   3.519   3.019  1.8516  1.5104 -1.5024
 5140SOL    HW215821   2.242   3.391   3.052  0.0325  0.9554  0.6274
 5141SOL     OW15822   1.219   5.735   4.088 -0.0159  0.0713  1.0069
 5141SOL    HW115823   1.300   5.692   4.059 -0.1625  0.7498 -0.5366
 5141SOL    HW215824   1.244   5.827   4.097 -0.4343  0.1574  1.3042
 5142SOL     OW15825   2.866   0.747   2.437 -0.2200 -0.6316 -0.7820
 5142SOL    HW115826   2.807   0.724   2.508  2.0602 -1.8322  0.8294
 5142SOL    HW215827   2.922   0.670   2.426  0.3341  0.0161 -3.0270
 5143SOL     OW15828   5.437   3.117   3.663  1.0141  0.1730  0.2950
 5143SOL    HW115829   5.496   3.091   3.592 -1.4264 -0.8378 -1.4701
 5143SOL    HW215830   5.366   3.054   3.660 -0.2341  1.3736  2.3045
 5144SOL     OW15831   1.893   2.029   0.826  0.0458 -0.4419 -0.3077
 5144SOL    HW115832   1.975   1.982   0.814 -0.0810 -0.2863 -2.1291
 5144SOL    HW215833   1.839   1.970   0.879  1.3720 -0.4520  1.1003
 5145SOL     OW15834   3.708   0.501   2.898 -0.0939 -0.5733  0.3581
 5145SOL    HW115835   3.760   0.572   2.860  0.9036 -1.7911 -0.6594
 5145SOL    HW215836   3.643   0.480   2.832  0.2531 -1.2432  0.2132
 5146SOL     OW15837   0.441   2.232   1.860  0.2337  0.0742  0.3428
 5146SOL    HW115838   0.429   2.311   1.807  0.6889 -0.2383 -0.2391
 5146SOL    HW215839   0.375   2.239   1.928 -0.4782  0.4143 -0.3599
 5147SOL     OW15840   1.319   2.695   2.940 -0.3010 -0.0340 -0.2983
 5147SOL    HW115841   1.322   2.652   2.854  0.7610 -0.8842  0.1277
 5147SOL    HW215842   1.342   2.625   3.002 -2.8280  0.1034  0.8931
 5148SOL     OW15843   6.765   0.321   2.607 -0.4646  0.7011 -0.8977
 5148SOL    HW115844   6.692   0.310   2.668 -0.5039  0.2615 -1.0250
 5148SOL    HW215845   6.838   0.349   2.662 -0.6588  0.8991 -0.7359
 5149SOL     OW15846   4.138   1.210   3.398  0.2765 -0.0384 -0.1580
 5149SOL    HW115847   4.146   1.129   3.347 -0.1498  0.2212 -0.6498
 5149SOL    HW215848   4.089   1.185   3.476  0.6159 -0.3635 -0.0435
 5150SOL     OW15849   1.591   1.611   4.612  0.5809 -0.1015  0.2782
 5150SOL    HW115850   1.508   1.655   4.593  0.7841 -0.4892 -1.7060
 5150SOL    HW215851   1.617   1.645   4.697 -1.0157  0.9371  0.3936
 5151SOL     OW15852   6.043   3.337   5.195 -0.2447 -0.0154  0.1603
 5151SOL    HW115853   6.103   3.341   5.270 -0.7411 -0.5327  0.5936
 5151SOL    HW215854   6.030   3.244   5.180  0.9051  0.0457 -1.4382
 5152SOL     OW15855   5.016   6.658   5.437 -0.4644 -0.3013 -0.0852
 5152SOL    HW115856   4.997   6.601   5.363  0.5398 -0.2155 -0.4224
 5152SOL    HW215857   5.047   6.739   5.397 -0.7085  0.0452  0.4204
 5153SOL     OW15858   6.007   6.541   1.276 -0.0518  0.2237 -0.1435
 5153SOL    HW115859   5.929   6.583   1.242 -0.0678  0.7708  0.5503
 5153SOL    HW215860   6.043   6.493   1.201 -0.4916  0.7867 -0.7278
 5154SOL     OW15861   1.734   5.186   1.134  0.0939 -0.6484  0.3583
 5154SOL    HW115862   1.768   5.272   1.158  0.1680 -0.8407  0.9711
 5154SOL    HW215863   1.811   5.130   1.131  0.0404 -0.7022  0.0040
 5155SOL     OW15864   5.995   4.356   3.937  0.3847 -0.2529  0.4167
 5155SOL    HW115865   6.022   4.303   3.863 -0.7835  0.4342 -0.5291
 5155SOL    HW215866   6.032   4.311   4.013  1.2881 -1.1710 -0.5330
 5156SOL     OW15867   4.660   0.170   1.423 -0.6043  0.5837  0.2541
 5156SOL    HW115868   4.737   0.201   1.376 -0.9653 -0.6635 -1.2785
 5156SOL    HW215869   4.693   0.137   1.506  0.3348  1.2400  0.1466
 5157SOL     OW15870   6.680   3.365   4.205  0.2432  0.7884  0.0135
 5157SOL    HW115871   6.657   3.309   4.130  0.8209  0.3344  0.1628
 5157SOL    HW215872   6.775   3.374   4.198  0.6090 -0.9515  1.8339
 5158SOL     OW15873   2.736   5.727   1.600 -0.1924 -0.1020  0.2497
 5158SOL    HW115874   2.687   5.750   1.678  0.9644  3.5280  0.1099
 5158SOL    HW215875   2.827   5.719   1.630 -0.0317 -0.9909 -0.4079
 5159SOL     OW15876   4.643   5.503   2.284  0.4378  0.6269  0.1375
 5159SOL    HW115877   4.689   5.460   2.356  0.5587  1.6700  0.7152
 5159SOL    HW215878   4.664   5.451   2.207 -0.4847 -1.1059  0.9886
 5160SOL     OW15879   3.196   4.013   4.043  0.0871 -0.1015 -0.6840
 5160SOL    HW115880   3.185   4.052   4.130  0.8508 -1.8172  0.2307
 5160SOL    HW215881   3.149   4.072   3.984 -1.2203  0.6357  1.0066
 5161SOL     OW15882   3.861   0.073   6.450  0.3854  0.2275 -0.1125
 5161SOL    HW115883   3.950   0.109   6.445  0.1873  0.5999 -0.9754
 5161SOL    HW215884   3.817   0.104   6.371 -1.2524  1.9998  1.4069
 5162SOL     OW15885   0.174   3.148   4.885 -0.0887  0.1400 -0.5379
 5162SOL    HW115886   0.150   3.235   4.852 -1.5142 -0.0111  0.0351
 5162SOL    HW215887   0.205   3.101   4.807  1.5961  1.4083 -0.7106
 5163SOL     OW15888   0.748   1.834   4.158  0.2730  0.0027 -0.3130
 5163SOL    HW115889   0.825   1.868   4.112  0.0316  0.0555 -0.6804
 5163SOL    HW215890   0.723   1.905   4.217  0.9460 -0.2946  0.3554
 5164SOL     OW15891   0.022   4.793   1.226  0.0804  0.5812 -0.4507
 5164SOL    HW115892   0.047   4.749   1.145 -0.9922 -0.2768 -0.3372
 5164SOL    HW215893  -0.050   4.850   1.201  0.9138  1.6662 -0.4299
 5165SOL     OW15894   3.992   4.324   3.418  0.2475 -0.3390 -0.3392
 5165SOL    HW115895   4.028   4.370   3.342 -1.5939  2.0875  0.1338
 5165SOL    HW215896   3.901   4.353   3.422 -0.1473 -1.6829  1.8542
 5166SOL     OW15897   4.640   4.813   4.684  0.1881  0.7124  0.5741
 5166SOL    HW115898   4.590   4.811   4.766 -2.7787 -1.3900 -1.0899
 5166SOL    HW215899   4.609   4.892   4.639  1.0270  1.2934  0.9963
 5167SOL     OW15900   2.718   1.009   5.619 -0.1082  0.4967 -0.0696
 5167SOL    HW115901   2.675   0.924   5.607 -0.1407  0.6231 -0.8602
 5167SOL    HW215902   2.652   1.073   5.594  0.1518  0.7344 -0.1474
 5168SOL     OW15903   3.006   5.867   6.222  0.4834 -0.0332  0.3195
 5168SOL    HW115904   2.923   5.915   6.223  0.9052  0.7143  0.6178
 5168SOL    HW215905   3.038   5.874   6.312  0.8378 -0.3744  0.2218
 5169SOL     OW15906   2.426   0.472   0.680  0.0392 -0.3860 -0.1960
 5169SOL    HW115907   2.379   0.449   0.600 -1.1569  1.5207 -0.1000
 5169SOL    HW215908   2.517   0.449   0.661 -0.0517  0.7808 -2.4832
 5170SOL     OW15909   0.865   0.159   3.728 -0.4884 -0.1312  0.8063
 5170SOL    HW115910   0.786   0.176   3.677 -0.5802 -0.8467  0.7049
 5170SOL    HW215911   0.931   0.217   3.690 -0.9858  0.5649  0.9728
 5171SOL     OW15912   2.555   4.284   0.403 -0.8192  0.4325 -0.1630
 5171SOL    HW115913   2.507   4.224   0.345  0.3165  0.3460 -1.0390
 5171SOL    HW215914   2.554   4.240   0.488  0.9290 -1.4208 -1.0275
 5172SOL     OW15915   1.757   5.193   3.060 -0.3979  0.0947 -0.4776
 5172SOL    HW115916   1.797   5.276   3.034 -1.9447  0.5881 -1.4030
 5172SOL    HW215917   1.809   5.127   3.015  1.1455  0.4934  0.6360
 5173SOL     OW15918   3.021   1.916   2.015  0.4433 -0.4888  0.2957
 5173SOL    HW115919   2.996   1.997   1.970 -0.2799 -0.3067  0.9983
 5173SOL    HW215920   2.958   1.851   1.985  0.0883 -0.4162  0.8645
 5174SOL     OW15921   3.221   6.615   5.986  0.0656 -0.3542  0.2351
 5174SOL    HW115922   3.149   6.677   5.998  2.7781  2.8432  1.6058
 5174SOL    HW215923   3.209   6.551   6.056 -1.8201 -0.3487 -0.0344
 5175SOL     OW15924   4.611   4.334   1.775 -0.1527 -0.4312 -0.5815
 5175SOL    HW115925   4.576   4.335   1.864 -1.0199 -2.1210 -0.8567
 5175SOL    HW215926   4.556   4.395   1.726 -0.7768 -0.7785 -0.3218
 5176SOL     OW15927   4.360   2.489   4.054 -0.1386  0.3914  0.7358
 5176SOL    HW115928   4.359   2.394   4.048  0.6063  0.3434  1.2287
 5176SOL    HW215929   4.450   2.514   4.032 -0.3569  0.9897  0.4849
 5177SOL     OW15930   2.055   2.652   5.003 -0.2695  0.1206  0.1718
 5177SOL    HW115931   2.003   2.644   4.923 -0.6513 -0.8867  0.5068
 5177SOL    HW215932   2.146   2.642   4.975 -0.3053  1.0635 -0.3048
 5178SOL     OW15933   6.477   3.884   6.714 -0.6390 -0.8579 -0.1694
 5178SOL    HW115934   6.567   3.855   6.695 -0.6616  0.3475 -2.6043
 5178SOL    HW215935   6.431   3.873   6.631 -1.9703  1.2168  0.2246
 5179SOL     OW15936   0.829   5.289   0.587  0.1348  0.3247  0.0886
 5179SOL    HW115937   0.744   5.304   0.545  1.4091 -1.8937 -3.7563
 5179SOL    HW215938   0.808   5.238   0.665 -2.1614  1.3700  0.2339
 5180SOL     OW15939   0.942   2.312   6.286  0.1542 -0.2378 -0.1088
 5180SOL    HW115940   0.973   2.400   6.266 -2.7463  0.6694 -1.2454
 5180SOL    HW215941   0.971   2.259   6.212  0.0689  0.2959 -0.5326
 5181SOL     OW15942   3.599   3.260   4.964  0.8251  0.7873 -0.4731
 5181SOL    HW115943   3.553   3.315   5.027 -1.6243 -0.1240 -1.3457
 5181SOL    HW215944   3.628   3.184   5.015 -0.6016  0.3418 -0.3008
 5182SOL     OW15945   2.097   0.924   1.745  0.3529  0.3682  1.0180
 5182SOL    HW115946   2.124   0.934   1.653  0.9408 -0.1446  1.1264
 5182SOL    HW215947   2.042   0.846   1.745 -0.9049  1.2425  0.8501
 5183SOL     OW15948   5.121   0.551   6.510  0.0410  0.6298 -0.3062
 5183SOL    HW115949   5.203   0.598   6.525  0.2813  0.7568 -1.8450
 5183SOL    HW215950   5.088   0.586   6.427 -1.4379  0.3836  0.1390
 5184SOL     OW15951   6.298   4.096   0.852 -0.5113 -0.1339  0.3155
 5184SOL    HW115952   6.230   4.147   0.895  0.6522  3.8223 -1.9720
 5184SOL    HW215953   6.379   4.145   0.870  1.1584 -2.5335 -0.1829
 5185SOL     OW15954   1.686   6.017   5.845 -0.1775  0.0019 -0.5115
 5185SOL    HW115955   1.770   6.019   5.798 -0.0051  0.7611 -0.1791
 5185SOL    HW215956   1.625   5.978   5.783  0.5614 -1.2205 -0.5216
 5186SOL     OW15957   3.648   4.204   3.359  0.0343  0.6899  0.0281
 5186SOL    HW115958   3.704   4.134   3.393 -0.6898 -1.0037 -2.0925
 5186SOL    HW215959   3.689   4.285   3.392  2.2906 -0.5839  0.5673
 5187SOL     OW15960   4.494   0.614   6.695 -1.0177  0.3572  0.1469
 5187SOL    HW115961   4.534   0.693   6.660  0.6478 -0.2361  0.6340
 5187SOL    HW215962   4.471   0.562   6.617  0.5091  0.0816 -0.1449
 5188SOL     OW15963   5.886   4.315   4.891  0.3289 -0.1596 -0.6111
 5188SOL    HW115964   5.812   4.257   4.872 -0.2170 -0.7280  2.7401
 5188SOL    HW215965   5.850   4.383   4.947  2.0350  0.4974 -0.2553
 5189SOL     OW15966   5.184   3.300   5.355 -0.2804 -0.1578  0.5340
 5189SOL    HW115967   5.265   3.252   5.371 -0.4438 -1.2034 -1.4296
 5189SOL    HW215968   5.127   3.237   5.311 -0.9248  1.4837 -1.1026
 5190SOL     OW15969   5.361   3.768   2.357  0.3672 -0.2953 -0.1175
 5190SOL    HW115970   5.380   3.837   2.420  0.7358 -0.0340 -0.5122
 5190SOL    HW215971   5.274   3.736   2.382  0.5715 -0.2975  0.6106
 5191SOL     OW15972   0.024   0.234   0.064  0.0539 -0.1357  0.1631
 5191SOL    HW115973   0.036   0.250   0.158 -1.1809 -0.1636  0.3376
 5191SOL    HW215974   0.101   0.183   0.039  0.2994 -0.3084  1.2107
 5192SOL     OW15975   2.774   0.022   6.432 -0.0235 -0.0794 -0.0508
 5192SOL    HW115976   2.809   0.111   6.435 -0.6241  0.1458  0.4973
 5192SOL    HW215977   2.834  -0.026   6.374 -1.2395  1.3692 -2.6669
 5193SOL     OW15978   2.907   0.884   6.774 -0.5917 -0.1005 -0.8058
 5193SOL    HW115979   2.950   0.890   6.689  1.3432 -0.8321  0.0568
 5193SOL    HW215980   2.976   0.907   6.837 -1.4919 -1.2354  0.6592
 5194SOL     OW15981   5.946   6.751   1.879 -0.0543 -0.1850 -0.0526
 5194SOL    HW115982   5.937   6.797   1.962 -0.3340 -0.8186  0.2826
 5194SOL    HW215983   5.893   6.672   1.890 -0.0329 -0.3146 -0.8076
 5195SOL     OW15984   5.170   3.922   1.386 -0.1653 -0.1465 -0.7474
 5195SOL    HW115985   5.171   3.827   1.373  0.4240 -0.6217  2.0887
 5195SOL    HW215986   5.077   3.946   1.385 -0.3561 -0.8702 -0.8358
 5196SOL     OW15987   2.803   3.021   2.756  0.1356  0.5139  0.0032
 5196SOL    HW115988   2.833   3.004   2.666  0.6098 -1.0663  0.4326
 5196SOL    HW215989   2.878   2.997   2.811 -0.3697  0.8617  0.8672
 5197SOL     OW15990   2.166   0.418   1.586  0.4988  0.0074  0.0748
 5197SOL    HW115991   2.242   0.362   1.574  1.7198  1.3141  1.2037
 5197SOL    HW215992   2.091   0.362   1.568  1.6696 -1.7612  0.4252
 5198SOL     OW15993   4.467   5.695   2.321 -0.1009  0.0688  0.0639
 5198SOL    HW115994   4.431   5.710   2.234 -0.3689 -0.5073  0.0737
 5198SOL    HW215995   4.529   5.623   2.309 -1.4513 -1.2372  0.6702
 5199SOL     OW15996   5.370   4.670   1.372 -0.3033  0.1330  0.1418
 5199SOL    HW115997   5.432   4.702   1.307  0.4429 -0.7045  0.4229
 5199SOL    HW215998   5.341   4.749   1.418  0.7222  0.5223  0.1511
 5200SOL     OW15999   6.110   1.117   5.481  0.3340 -0.2171  0.0318
 5200SOL    HW116000   6.064   1.095   5.400 -1.1689 -1.1888  1.0976
 5200SOL    HW216001   6.194   1.072   5.474  0.3763  0.0018 -1.1162
 5201SOL     OW16002   3.084   1.299   6.602 -0.1360  0.7770 -0.4976
 5201SOL    HW116003   3.178   1.314   6.600 -0.4275  3.0458 -0.9489
 5201SOL    HW216004   3.068   1.236   6.531  1.2691 -1.8850  1.3931
 5202SOL     OW16005   1.406   2.924   2.783  0.2390 -0.4930  0.5089
 5202SOL    HW116006   1.395   2.861   2.855 -0.4701  0.8681  1.6445
 5202SOL    HW216007   1.373   2.879   2.706  0.4080 -1.7687  1.1622
 5203SOL     OW16008   2.730   5.466   1.237  0.4090 -0.0481  0.3283
 5203SOL    HW116009   2.642   5.437   1.260  0.8024 -1.2128  0.4366
 5203SOL    HW216010   2.719   5.555   1.205 -0.9583 -0.5455 -0.6828
 5204SOL     OW16011   4.175   5.049   6.393 -0.0634 -0.5462 -0.0517
 5204SOL    HW116012   4.269   5.050   6.379  0.2350  0.7293  1.6672
 5204SOL    HW216013   4.138   5.017   6.311  1.9098 -2.1248 -0.4007
 5205SOL     OW16014   3.826   3.293   2.864 -0.1042 -0.1354  0.4083
 5205SOL    HW116015   3.856   3.384   2.863  1.0039 -0.4832 -0.2269
 5205SOL    HW216016   3.837   3.264   2.954 -0.4991  0.3655  0.6199
 5206SOL     OW16017   5.224   3.475   3.897 -0.1971 -0.4239  0.3789
 5206SOL    HW116018   5.225   3.379   3.892 -1.0845 -0.3863 -2.3484
 5206SOL    HW216019   5.298   3.497   3.953  0.0404 -2.6965  1.0596
 5207SOL     OW16020   0.441   4.477   1.888  0.2069  0.1135  0.1402
 5207SOL    HW116021   0.427   4.536   1.962 -1.6928 -0.7826  0.5420
 5207SOL    HW216022   0.448   4.390   1.927 -0.6132 -0.3475 -0.6899
 5208SOL     OW16023   2.697   4.606   4.982  0.0030  0.9043 -0.5659
 5208SOL    HW116024   2.666   4.673   5.042  0.5411  0.1557  0.5951
 5208SOL    HW216025   2.677   4.523   5.027  3.3422  0.3563  0.1870
 5209SOL     OW16026   2.591   5.216   0.747 -0.1301  0.4176 -0.3336
 5209SOL    HW116027   2.654   5.285   0.728 -0.1121  0.4322 -0.2260
 5209SOL    HW216028   2.505   5.256   0.732 -0.1886  0.9770  1.2899
 5210SOL     OW16029   1.234   5.641   4.900 -0.3153  0.5274  0.1100
 5210SOL    HW116030   1.164   5.704   4.915  0.1198  0.9246  0.5361
 5210SOL    HW216031   1.291   5.650   4.976  0.9874  1.2878 -0.9091
 5211SOL     OW16032   2.781   4.502   3.196 -0.0700 -0.7120  0.2107
 5211SOL    HW116033   2.793   4.492   3.102  1.6086 -1.3189  0.4431
 5211SOL    HW216034   2.687   4.494   3.210 -0.3204 -0.7928 -1.3896
 5212SOL     OW16035   0.009   2.829   1.610 -0.2820 -0.1487 -0.3121
 5212SOL    HW116036  -0.001   2.811   1.703  0.1346  0.5600 -0.1270
 5212SOL    HW216037  -0.002   2.923   1.602 -1.5276 -0.3447 -1.1509
 5213SOL     OW16038   4.237   4.137   3.819 -0.5403  0.0460 -0.3331
 5213SOL    HW116039   4.190   4.150   3.736  0.3838  1.4770 -0.6838
 5213SOL    HW216040   4.245   4.042   3.828 -0.7855 -0.1413 -1.8333
 5214SOL     OW16041   0.440   2.490   3.840 -0.1432  0.1102 -0.0186
 5214SOL    HW116042   0.377   2.550   3.800  0.3622  0.2449 -0.6243
 5214SOL    HW216043   0.392   2.450   3.912 -0.0567  2.3820  1.4071
 5215SOL     OW16044   4.127   3.101   5.658 -0.0857  0.1859  0.1638
 5215SOL    HW116045   4.034   3.087   5.642 -0.2991  0.6078  0.9967
 5215SOL    HW216046   4.154   3.161   5.588 -0.8911  1.5920  1.0166
 5216SOL     OW16047   1.488   4.867   5.236 -0.4176 -0.0393  0.2597
 5216SOL    HW116048   1.569   4.857   5.187 -0.9653  1.4598 -1.0691
 5216SOL    HW216049   1.499   4.812   5.313  1.5629 -0.4165 -0.2344
 5217SOL     OW16050   4.852   1.165   4.752 -0.3002 -0.0580  0.2608
 5217SOL    HW116051   4.843   1.151   4.658 -0.9763 -1.4793  0.5048
 5217SOL    HW216052   4.772   1.211   4.777  0.0322  0.6156  0.0942
 5218SOL     OW16053   2.146   1.198   0.756  0.4061 -0.3844 -0.5497
 5218SOL    HW116054   2.068   1.246   0.727 -1.4065 -3.3031 -0.9725
 5218SOL    HW216055   2.124   1.169   0.844  0.8233 -1.5321 -0.8034
 5219SOL     OW16056   6.763   3.820   0.073 -0.1933  0.1702  0.7941
 5219SOL    HW116057   6.765   3.758   0.146  0.2528  0.6990  1.2384
 5219SOL    HW216058   6.759   3.906   0.114  0.9628  0.5195  0.2191
 5220SOL     OW16059   2.466   6.730   0.279  0.0888 -0.0432 -0.1364
 5220SOL    HW116060   2.486   6.649   0.326  1.8575  1.0074  1.0639
 5220SOL    HW216061   2.547   6.752   0.233 -0.9957  0.0286 -2.1304
 5221SOL     OW16062   2.673   4.836   3.216 -0.0731  0.2144 -0.2729
 5221SOL    HW116063   2.610   4.865   3.149  0.2510  0.3239 -0.5328
 5221SOL    HW216064   2.707   4.753   3.182  1.3972  1.1164 -1.1259
 5222SOL     OW16065   5.026   5.281   2.349  0.2317  0.2460  0.0693
 5222SOL    HW116066   5.016   5.346   2.280  2.5133 -0.0014 -0.6084
 5222SOL    HW216067   4.991   5.323   2.427 -1.9326  0.7381 -1.0805
 5223SOL     OW16068   0.419   6.426   3.787 -0.1539 -0.3654 -0.5256
 5223SOL    HW116069   0.359   6.420   3.861  0.1923 -0.8793 -0.2796
 5223SOL    HW216070   0.502   6.454   3.825  0.2065 -1.2864 -0.6125
 5224SOL     OW16071   4.846   5.145   3.934  0.5140 -0.0221 -0.7123
 5224SOL    HW116072   4.786   5.218   3.950  1.3961  0.7420 -0.7378
 5224SOL    HW216073   4.847   5.134   3.839  0.6314  0.1592 -0.7327
 5225SOL     OW16074   2.935   3.791   6.211  0.0362  0.2782 -0.1621
 5225SOL    HW116075   2.993   3.740   6.268  0.7143 -0.5495 -1.5546
 5225SOL    HW216076   2.865   3.730   6.188  1.0397 -0.2285 -2.1304
 5226SOL     OW16077   1.282   0.515   4.827 -0.4934  0.0417  0.0255
 5226SOL    HW116078   1.287   0.428   4.867 -1.4311 -0.0872 -0.1122
 5226SOL    HW216079   1.345   0.568   4.876  1.3151 -1.0981 -0.9271
 5227SOL     OW16080   4.515   1.358   3.958 -0.0832  0.2245 -0.6324
 5227SOL    HW116081   4.483   1.378   3.870  0.0399 -1.5015 -1.0884
 5227SOL    HW216082   4.556   1.273   3.950 -0.0895  0.0328  1.1113
 5228SOL     OW16083   4.638   1.093   3.974 -0.0289  0.4142 -0.2861
 5228SOL    HW116084   4.621   1.002   3.949  1.5428 -0.0987  0.3857
 5228SOL    HW216085   4.599   1.102   4.060 -2.0777  1.0507 -1.2263
 5229SOL     OW16086   2.310   1.983   6.434 -0.0835  0.3255 -0.2137
 5229SOL    HW116087   2.379   1.965   6.497 -0.5165  0.7593  0.3955
 5229SOL    HW216088   2.355   1.985   6.349  0.5054 -0.2329  0.0795
 5230SOL     OW16089   3.920   4.216   5.500 -0.1250 -0.1699 -0.0904
 5230SOL    HW116090   3.957   4.142   5.549 -1.3123 -0.0395  1.0658
 5230SOL    HW216091   3.868   4.264   5.565  0.1079  1.3371 -0.9668
 5231SOL     OW16092   6.405   3.821   5.664 -0.3387  0.0805 -0.4370
 5231SOL    HW116093   6.366   3.812   5.578 -0.4692 -1.1646 -0.2668
 5231SOL    HW216094   6.499   3.809   5.650 -0.5443 -2.3184 -0.1596
 5232SOL     OW16095   5.136   0.588   5.080  0.0541  0.7366 -0.5318
 5232SOL    HW116096   5.161   0.634   5.161 -0.3779  0.2975 -0.1471
 5232SOL    HW216097   5.193   0.626   5.013  0.1529  1.3810 -0.0973
 5233SOL     OW16098   2.296   2.668   2.140 -0.3844  0.1970 -0.0290
 5233SOL    HW116099   2.367   2.678   2.076  0.6953 -0.7310  0.9821
 5233SOL    HW216100   2.293   2.753   2.185 -0.8282  0.6909 -0.9635
 5234SOL     OW16101   4.309   4.484   2.487 -0.2777  0.1233  0.4853
 5234SOL    HW116102   4.321   4.391   2.503  0.2825 -0.0245 -0.6925
 5234SOL    HW216103   4.330   4.526   2.571  2.5840 -0.5974  0.2289
 5235SOL     OW16104   0.829   4.268   1.632 -0.1376  0.2601 -0.4386
 5235SOL    HW116105   0.750   4.216   1.616 -0.6358  1.4938 -2.2947
 5235SOL    HW216106   0.797   4.357   1.645  0.4563 -0.0161  5.1703
 5236SOL     OW16107   2.119   6.480   2.103 -0.2942  0.2969  0.0787
 5236SOL    HW116108   2.133   6.413   2.170 -0.2958 -0.1154 -0.3274
 5236SOL    HW216109   2.024   6.494   2.103 -0.5562 -1.1372 -1.1759
 5237SOL     OW16110   2.909   2.449   0.281 -1.3731  0.0731 -0.3392
 5237SOL    HW116111   2.993   2.464   0.239 -0.7656  0.4256  0.9537
 5237SOL    HW216112   2.891   2.356   0.267 -0.3572 -0.1942  0.0616
 5238SOL     OW16113   3.160   5.437   4.757  0.2169  0.2504  0.1608
 5238SOL    HW116114   3.198   5.371   4.698 -3.1878 -0.3255 -1.6183
 5238SOL    HW216115   3.177   5.520   4.713  2.3261  0.4199  1.1629
 5239SOL     OW16116   5.149   3.424   2.241  0.0466 -0.0733 -0.2091
 5239SOL    HW116117   5.154   3.515   2.212 -2.8227  0.2130 -0.0179
 5239SOL    HW216118   5.178   3.427   2.332  3.1400  0.0152 -1.0823
 5240SOL     OW16119   1.366   4.805   2.781 -0.0775  0.4294 -0.2165
 5240SOL    HW116120   1.424   4.814   2.705 -1.4033  2.3512 -1.0897
 5240SOL    HW216121   1.356   4.894   2.815 -1.1052 -0.1035  0.9874
 5241SOL     OW16122   1.679   2.252   4.304  0.2711 -0.1805 -0.0741
 5241SOL    HW116123   1.621   2.294   4.241  0.4704 -1.1405 -0.9230
 5241SOL    HW216124   1.624   2.188   4.349  0.8901 -2.0375 -1.7967
 5242SOL     OW16125   4.624   2.949   4.826  0.0710  0.0508  0.2757
 5242SOL    HW116126   4.708   2.903   4.824 -0.6628 -1.3260 -0.7822
 5242SOL    HW216127   4.597   2.944   4.918  0.2798 -1.1896  0.2942
 5243SOL     OW16128   5.135   5.244   3.289 -0.3818  0.6950 -0.0172
 5243SOL    HW116129   5.132   5.206   3.201  0.4404  0.5694 -0.0036
 5243SOL    HW216130   5.222   5.283   3.294  0.9871 -2.2340  1.9103
 5244SOL     OW16131   2.522   5.297   4.417 -0.0072 -0.4708  0.3052
 5244SOL    HW116132   2.585   5.267   4.483  0.4135 -1.2333 -0.4171
 5244SOL    HW216133   2.444   5.320   4.467  0.3000 -1.0410  1.0773
 5245SOL     OW16134   5.190   4.498   4.282  0.2561 -0.0599  0.2392
 5245SOL    HW116135   5.108   4.545   4.292  0.2925 -0.1803  1.2226
 5245SOL    HW216136   5.256   4.567   4.273  0.2166  0.0703  0.8954
 5246SOL     OW16137   0.430   0.146   1.999 -0.1714  0.1444  0.5068
 5246SOL    HW116138   0.456   0.237   1.987 -0.0210  0.4753  2.8085
 5246SOL    HW216139   0.376   0.126   1.923  0.6974  1.7952 -0.6080
 5247SOL     OW16140   0.899   5.068   3.155  0.4866 -0.4793  0.1114
 5247SOL    HW116141   0.992   5.090   3.148  0.5095 -0.7752 -0.5537
 5247SOL    HW216142   0.888   5.038   3.245  0.0765  4.0529  1.8432
 5248SOL     OW16143   5.954   3.798   5.049 -0.0154 -0.0850  0.1805
 5248SOL    HW116144   5.955   3.721   5.106  1.9574 -0.1605  0.1161
 5248SOL    HW216145   5.981   3.765   4.964 -2.2265  0.1601 -0.6798
 5249SOL     OW16146   4.725   3.262   0.048  0.3615  0.0158  0.0085
 5249SOL    HW116147   4.808   3.246   0.003  1.2565  0.2684  1.4933
 5249SOL    HW216148   4.721   3.357   0.059 -0.0239 -0.0113  0.1249
 5250SOL     OW16149   0.063   4.492   4.026  0.1585  0.3731  0.2282
 5250SOL    HW116150   0.152   4.510   3.995 -0.0456 -2.6256 -2.7456
 5250SOL    HW216151   0.009   4.561   3.988  0.8938  0.8612  0.0522
 5251SOL     OW16152   5.374   4.157   3.485 -0.2007  0.0696 -0.2861
 5251SOL    HW116153   5.380   4.208   3.404 -0.9103  0.1016 -0.3280
 5251SOL    HW216154   5.409   4.071   3.461  1.4471  0.6396 -0.0886
 5252SOL     OW16155   1.571   3.227   2.164  0.3637  0.0671 -0.4010
 5252SOL    HW116156   1.531   3.141   2.152 -0.2090  0.1217  0.9219
 5252SOL    HW216157   1.656   3.208   2.204  0.1045  0.1231  0.1838
 5253SOL     OW16158   1.083   4.529   4.923 -0.4341 -0.7588  0.6422
 5253SOL    HW116159   1.107   4.540   5.015 -1.4813 -0.3628  0.8884
 5253SOL    HW216160   0.987   4.538   4.922 -0.3333  0.5928 -0.6623
 5254SOL     OW16161   6.304   4.277   4.728  0.2507  0.0586  0.4718
 5254SOL    HW116162   6.321   4.248   4.818  0.0417  0.7955  0.7522
 5254SOL    HW216163   6.384   4.256   4.681  0.7424  0.5692  1.0602
 5255SOL     OW16164   1.665   2.459   3.694 -0.1258  0.1097  0.0102
 5255SOL    HW116165   1.650   2.409   3.614 -1.0806 -0.3269  0.4536
 5255SOL    HW216166   1.599   2.428   3.755  1.2075 -0.2697  1.3197
 5256SOL     OW16167   2.267   2.689   4.295 -0.1316  0.3774 -0.2609
 5256SOL    HW116168   2.219   2.743   4.358 -1.9443 -0.8098 -0.5577
 5256SOL    HW216169   2.204   2.674   4.224  0.2694 -2.1514 -0.1733
 5257SOL     OW16170   6.697   4.026   2.507 -0.5813 -0.1727 -0.0924
 5257SOL    HW116171   6.651   4.021   2.424 -0.6381 -0.1159 -0.0648
 5257SOL    HW216172   6.641   3.978   2.568 -0.7234  0.1054 -0.0049
 5258SOL     OW16173   1.332   6.361   1.160  0.1888  0.1259  0.1824
 5258SOL    HW116174   1.351   6.455   1.155 -3.2301  0.9951  0.6840
 5258SOL    HW216175   1.297   6.340   1.074  0.0846 -0.4747  0.3731
 5259SOL     OW16176   6.237   0.326   0.604 -0.1319  0.5133  0.2076
 5259SOL    HW116177   6.271   0.357   0.688  0.6326 -2.5356  1.1511
 5259SOL    HW216178   6.162   0.271   0.626 -1.2497  1.3308 -1.3280
 5260SOL     OW16179   0.492   0.420   4.520 -0.2753  0.4151  0.0555
 5260SOL    HW116180   0.424   0.412   4.454  2.3559  1.8209 -3.0715
 5260SOL    HW216181   0.550   0.488   4.487  2.7154 -0.7333  2.4875
 5261SOL     OW16182   3.720   5.340   2.215 -0.1864 -0.7175 -0.3122
 5261SOL    HW116183   3.778   5.271   2.247 -2.3872 -1.2858  2.8962
 5261SOL    HW216184   3.642   5.293   2.184 -0.4265  0.2023 -1.1764
 5262SOL     OW16185   2.339   0.479   3.981  0.6415 -0.0605  0.0259
 5262SOL    HW116186   2.300   0.462   3.895  0.6775  0.9556 -0.2045
 5262SOL    HW216187   2.409   0.414   3.988  0.4936 -0.3002 -0.6192
 5263SOL     OW16188   4.667   4.968   3.685  0.0460  0.2018 -0.8869
 5263SOL    HW116189   4.657   4.904   3.614  0.7710 -0.4488 -0.4140
 5263SOL    HW216190   4.681   4.915   3.764  0.0427  0.9301 -0.3923
 5264SOL     OW16191   3.192   1.918   4.715 -0.0154  0.1206 -0.0105
 5264SOL    HW116192   3.207   1.959   4.630  1.2345 -1.3237 -0.5376
 5264SOL    HW216193   3.116   1.860   4.700  1.0015 -1.1245 -0.5562
 5265SOL     OW16194   5.522   5.007   1.317  0.5419 -0.3824 -0.1905
 5265SOL    HW116195   5.526   4.970   1.406 -1.5892  1.7646  0.9015
 5265SOL    HW216196   5.429   5.017   1.299  0.9341 -0.6227 -2.6695
 5266SOL     OW16197   4.105   2.529   3.334 -0.2375 -0.5986  0.3181
 5266SOL    HW116198   4.103   2.597   3.402 -0.1091 -0.3981  0.1265
 5266SOL    HW216199   4.015   2.498   3.327 -0.0184 -1.5835  1.5331
 5267SOL     OW16200   3.546   5.547   1.680  0.1832  0.0756  0.2445
 5267SOL    HW116201   3.491   5.596   1.619  2.0165  0.8156 -0.9283
 5267SOL    HW216202   3.563   5.464   1.636 -0.9234 -0.6503  1.1385
 5268SOL     OW16203   0.421   4.962   6.027 -0.2562 -0.3010  0.2027
 5268SOL    HW116204   0.475   4.947   5.950  0.7866 -0.3619  0.9226
 5268SOL    HW216205   0.435   5.054   6.049 -0.9208 -0.1550  0.0581
 5269SOL     OW16206   4.034   1.702   5.297 -0.4402  0.6007 -0.1204
 5269SOL    HW116207   4.060   1.789   5.328 -0.7346  1.3185 -1.7706
 5269SOL    HW216208   4.108   1.646   5.319  1.1329  1.9148 -1.7314
 5270SOL     OW16209   3.759   0.202   3.379 -0.1974  0.0585  0.9000
 5270SOL    HW116210   3.675   0.243   3.357 -0.8238 -0.2632  2.5333
 5270SOL    HW216211   3.750   0.111   3.349 -0.2761  0.1249  0.7212
 5271SOL     OW16212   3.292   1.499   1.069 -0.2006 -0.2827 -0.0909
 5271SOL    HW116213   3.301   1.545   0.986 -1.5328 -0.9458 -0.6298
 5271SOL    HW216214   3.215   1.539   1.110 -0.9792 -1.5571 -0.2671
 5272SOL     OW16215   0.808   5.609   1.154 -0.1736  0.1869  0.5445
 5272SOL    HW116216   0.832   5.600   1.246 -0.7760  0.0329  0.6870
 5272SOL    HW216217   0.860   5.683   1.123  0.4124 -0.0756  0.8713
 5273SOL     OW16218   4.662   6.698   4.793  0.2718 -0.0780 -0.3644
 5273SOL    HW116219   4.710   6.723   4.871 -0.5891  1.7053 -0.3551
 5273SOL    HW216220   4.694   6.758   4.725 -1.8121  1.1452 -0.3604
 5274SOL     OW16221   5.735   3.835   5.253 -0.0931 -0.5715  0.1282
 5274SOL    HW116222   5.674   3.775   5.211  0.1021 -0.6945  0.0241
 5274SOL    HW216223   5.796   3.861   5.184 -1.8352  1.9777 -0.6022
 5275SOL     OW16224   3.121   6.148   1.682  0.1762 -0.3773  0.3325
 5275SOL    HW116225   3.167   6.194   1.612  0.4235 -0.7793  0.2244
 5275SOL    HW216226   3.190   6.103   1.730  0.1138  0.6313  1.4052
 5276SOL     OW16227   1.500   3.553   5.498 -0.2416  0.4089 -0.0984
 5276SOL    HW116228   1.515   3.502   5.578  0.8706 -0.4360 -0.8207
 5276SOL    HW216229   1.526   3.642   5.521 -1.2247  0.4667  0.8753
 5277SOL     OW16230   0.283   2.264   1.118  0.0646  0.2144 -0.4022
 5277SOL    HW116231   0.228   2.332   1.158  1.6801  1.6713 -0.5406
 5277SOL    HW216232   0.226   2.222   1.054 -1.5658  0.0919  1.0593
 5278SOL     OW16233   6.679   3.839   4.294  0.2070 -0.6298 -0.6592
 5278SOL    HW116234   6.724   3.767   4.339  0.5692 -0.0618 -0.0942
 5278SOL    HW216235   6.680   3.911   4.357  1.8122  0.6010 -1.9986
 5279SOL     OW16236   1.112   6.509   0.156 -0.5486  0.3607 -0.0526
 5279SOL    HW116237   1.023   6.543   0.164 -0.2448  1.7104 -1.6078
 5279SOL    HW216238   1.120   6.486   0.063  0.2722 -1.1654  0.3625
 5280SOL     OW16239   3.201   6.419   0.854 -0.1230  0.2869 -0.0833
 5280SOL    HW116240   3.168   6.348   0.909  0.3143  0.0114 -0.1706
 5280SOL    HW216241   3.165   6.498   0.893 -0.8134 -0.0023 -0.1306
 5281SOL     OW16242   2.485   2.491   1.694  0.0655  0.2841  0.2838
 5281SOL    HW116243   2.518   2.402   1.693  0.8571  0.5655 -0.9344
 5281SOL    HW216244   2.392   2.483   1.675  0.0517 -0.3086  0.5923
 5282SOL     OW16245   0.094   5.867   1.916 -0.4335 -0.1371  0.0550
 5282SOL    HW116246   0.140   5.918   1.850  0.7109  0.8131  1.5375
 5282SOL    HW216247   0.124   5.777   1.901  1.1698  0.3235  0.3646
 5283SOL     OW16248   4.551   6.182   1.184 -0.2909 -0.2363  0.8212
 5283SOL    HW116249   4.544   6.089   1.164 -0.6824  0.1309 -0.9578
 5283SOL    HW216250   4.476   6.222   1.139 -0.8197  0.8122  2.5341
 5284SOL     OW16251   0.150   2.215   4.144 -0.2600 -0.3603 -0.5316
 5284SOL    HW116252   0.157   2.140   4.203 -0.6638 -0.2942 -0.3993
 5284SOL    HW216253   0.199   2.285   4.188  0.9946 -0.8241 -1.1268
 5285SOL     OW16254   3.513   2.237   0.176 -0.0764  0.0183 -0.6835
 5285SOL    HW116255   3.441   2.219   0.115  0.3189  0.5163 -1.3080
 5285SOL    HW216256   3.538   2.151   0.209 -0.9152 -0.1713 -0.5016
 5286SOL     OW16257   4.478   0.997   1.815 -0.3826 -0.6754 -0.3220
 5286SOL    HW116258   4.535   0.949   1.874 -0.7285 -0.4963  0.1665
 5286SOL    HW216259   4.421   1.048   1.873  0.7187  1.2139 -0.7965
 5287SOL     OW16260   3.573   6.234   5.965 -0.6208 -0.0699 -0.0476
 5287SOL    HW116261   3.654   6.184   5.949 -2.2744 -2.6342 -1.0507
 5287SOL    HW216262   3.559   6.227   6.059  0.4689  0.6758  0.1843
 5288SOL     OW16263   2.703   3.273   4.635 -0.1107 -0.5232  0.3364
 5288SOL    HW116264   2.646   3.238   4.567 -1.3212  0.8590  0.5956
 5288SOL    HW216265   2.657   3.253   4.717 -1.5273  2.6081  0.4659
 5289SOL     OW16266   2.246   5.048   1.467  0.0273  0.1270 -0.1609
 5289SOL    HW116267   2.269   4.994   1.391  0.9300  0.2962 -0.0221
 5289SOL    HW216268   2.230   4.986   1.537  1.0794  0.0191  0.0037
 5290SOL     OW16269   5.716   6.565   4.413 -0.2392 -0.2407 -0.0759
 5290SOL    HW116270   5.785   6.629   4.395  1.1494 -1.6821 -0.0429
 5290SOL    HW216271   5.721   6.503   4.341 -0.9163 -0.8684  0.4051
 5291SOL     OW16272   2.554   4.302   4.413 -0.7540 -0.3447  0.3409
 5291SOL    HW116273   2.493   4.375   4.405  0.9229  1.2380  1.3235
 5291SOL    HW216274   2.559   4.265   4.324 -2.0132  0.3777 -0.0585
 5292SOL     OW16275   1.950   5.196   2.713  0.0687  0.3477  0.1495
 5292SOL    HW116276   1.902   5.114   2.722 -2.4275  1.9379  3.9046
 5292SOL    HW216277   2.042   5.170   2.703 -0.7389 -2.8586  0.2592
 5293SOL     OW16278   5.495   4.349   5.518 -0.3777  0.1319 -0.6125
 5293SOL    HW116279   5.422   4.354   5.456 -0.1252 -0.4289 -0.9591
 5293SOL    HW216280   5.497   4.257   5.545  0.9585 -0.1427 -1.5487
 5294SOL     OW16281   0.529   1.383   4.408 -0.3097  0.2143  0.0956
 5294SOL    HW116282   0.534   1.348   4.496 -1.0563  1.2617  0.5778
 5294SOL    HW216283   0.436   1.402   4.395  0.0096  1.7511 -0.2192
 5295SOL     OW16284   5.079   2.165   2.542 -0.0096 -0.3986 -0.7793
 5295SOL    HW116285   5.092   2.173   2.448 -3.0321 -0.3723 -1.2952
 5295SOL    HW216286   5.064   2.072   2.557  1.5337 -0.5781 -0.0782
 5296SOL     OW16287   2.554   4.611   4.687 -0.2193  0.1199 -0.1340
 5296SOL    HW116288   2.621   4.638   4.750 -0.2134  0.0412 -0.1063
 5296SOL    HW216289   2.480   4.670   4.704 -0.2052  0.1206 -0.0762
 5297SOL     OW16290   1.551   3.798   1.166 -0.4074  0.2769 -0.0441
 5297SOL    HW116291   1.573   3.886   1.135  0.1276 -0.3171 -1.4425
 5297SOL    HW216292   1.467   3.808   1.210 -0.6837  1.3720 -0.7839
 5298SOL     OW16293   0.349   3.494   1.099 -0.0008  0.4691 -0.0104
 5298SOL    HW116294   0.325   3.530   1.185 -0.7460  0.8919 -0.3824
 5298SOL    HW216295   0.267   3.497   1.049  0.3544 -0.0772 -0.6313
 5299SOL     OW16296   3.809   5.882   3.758  0.0504 -0.7478  0.1231
 5299SOL    HW116297   3.847   5.869   3.671  0.5942 -1.5212  0.4734
 5299SOL    HW216298   3.800   5.977   3.765  0.8014 -0.6193 -0.4421
 5300SOL     OW16299   4.806   6.132   2.680  0.0559 -0.1468  0.3232
 5300SOL    HW116300   4.781   6.178   2.759 -0.4851 -0.1889  0.1816
 5300SOL    HW216301   4.901   6.123   2.686 -0.0134 -0.4317  1.1145
 5301SOL     OW16302   4.157   6.654   1.621 -0.7918 -0.4013  0.4734
 5301SOL    HW116303   4.160   6.559   1.627 -0.8727 -0.4454 -0.1149
 5301SOL    HW216304   4.236   6.678   1.573 -0.2514 -0.0904  1.5040
 5302SOL     OW16305   5.037   1.495   2.341  0.4033 -0.8073 -0.3292
 5302SOL    HW116306   5.121   1.526   2.307 -0.3704  2.0382  0.1085
 5302SOL    HW216307   5.053   1.480   2.434  0.5239 -0.6052 -0.3170
 5303SOL     OW16308   4.179   4.510   4.147  0.4276 -0.2030  1.1064
 5303SOL    HW116309   4.208   4.470   4.065  0.9392  1.1205  0.6131
 5303SOL    HW216310   4.225   4.461   4.215  0.4185 -0.9614  0.5847
 5304SOL     OW16311   0.312   5.348   6.022  0.2787  0.1275 -0.2726
 5304SOL    HW116312   0.331   5.438   5.993  1.7056  0.2619  0.9411
 5304SOL    HW216313   0.398   5.305   6.023 -0.5781 -1.8949 -2.6794
 5305SOL     OW16314   5.232   2.408   0.390  0.0664  0.1622 -0.3908
 5305SOL    HW116315   5.236   2.345   0.462 -0.3290 -1.2273 -1.5246
 5305SOL    HW216316   5.281   2.483   0.421 -0.0781 -0.3994  1.3148
 5306SOL     OW16317   2.184   3.849   4.481 -0.3870 -0.4820  0.0833
 5306SOL    HW116318   2.147   3.905   4.549 -0.3773 -1.7394  1.1631
 5306SOL    HW216319   2.259   3.899   4.448 -0.5353  0.2644  0.8287
 5307SOL     OW16320   1.351   2.283   5.557 -0.1892  0.2417  0.0414
 5307SOL    HW116321   1.319   2.268   5.646 -0.1727 -1.2239 -0.1637
 5307SOL    HW216322   1.445   2.293   5.567 -0.1319 -0.3572  0.1625
 5308SOL     OW16323   5.215   5.615   6.622 -0.2361 -0.6372  0.2711
 5308SOL    HW116324   5.211   5.671   6.544 -0.3914  2.8154  2.5116
 5308SOL    HW216325   5.123   5.592   6.640 -0.2825 -0.7665 -0.1432
 5309SOL     OW16326   0.545   2.734   4.946 -0.0400 -0.4461  0.5314
 5309SOL    HW116327   0.522   2.826   4.956  0.0257 -0.1721 -1.3654
 5309SOL    HW216328   0.464   2.687   4.967 -0.7785  0.2031 -0.7103
 5310SOL     OW16329   3.907   0.664   0.820  0.5284 -0.0783 -0.0202
 5310SOL    HW116330   3.905   0.759   0.825 -0.6673 -0.1525  1.2765
 5310SOL    HW216331   3.980   0.645   0.761  0.1839  1.6520 -1.0644
 5311SOL     OW16332   2.621   6.069   2.265 -0.0923  0.2954 -0.2398
 5311SOL    HW116333   2.651   6.108   2.183 -1.3554 -0.4551 -1.0916
 5311SOL    HW216334   2.551   6.127   2.295 -1.0444 -0.5429 -0.7957
 5312SOL     OW16335   0.010   0.582   1.596  0.0664  0.0363 -1.0462
 5312SOL    HW116336   0.074   0.604   1.528 -0.5691 -0.7646 -1.9296
 5312SOL    HW216337  -0.066   0.550   1.548  0.2548 -2.2818  0.0946
 5313SOL     OW16338   5.015   1.372   5.332 -0.1872 -0.1412  0.1378
 5313SOL    HW116339   4.972   1.451   5.301  0.9977  0.3445 -0.3290
 5313SOL    HW216340   4.967   1.301   5.290 -0.6794  0.3746 -0.1860
 5314SOL     OW16341   1.930   2.515   5.789 -0.2483  0.3704 -0.3733
 5314SOL    HW116342   1.865   2.497   5.721  2.1161 -1.8720 -2.2708
 5314SOL    HW216343   1.923   2.440   5.848  0.5044  0.1708 -0.5322
 5315SOL     OW16344   3.426   0.894   6.437 -0.2860  0.7162  0.0587
 5315SOL    HW116345   3.446   0.803   6.460  0.0834  1.3515  2.5287
 5315SOL    HW216346   3.440   0.899   6.342  1.5217 -1.3181  0.1532
 5316SOL     OW16347   4.534   1.806   6.372 -0.2124 -0.1069 -0.2463
 5316SOL    HW116348   4.544   1.729   6.317  0.2253  0.2691 -0.7016
 5316SOL    HW216349   4.487   1.869   6.316 -0.6599 -0.0820  0.1555
 5317SOL     OW16350   5.180   6.015   5.787 -0.5171  0.1165  0.0856
 5317SOL    HW116351   5.146   6.064   5.712 -2.6161 -1.9017 -0.3829
 5317SOL    HW216352   5.215   5.935   5.749  1.0005  0.3063  1.0275
 5318SOL     OW16353   3.107   6.341   0.096 -0.1262  0.2532  0.0319
 5318SOL    HW116354   3.162   6.388   0.159  0.7359 -0.5183 -0.1254
 5318SOL    HW216355   3.040   6.299   0.149  1.5241 -1.7145  0.6726
 5319SOL     OW16356   1.442   4.019   0.070  0.3846 -0.4047 -0.1892
 5319SOL    HW116357   1.520   4.043   0.120  1.8614 -1.3827 -1.9024
 5319SOL    HW216358   1.400   3.951   0.122 -1.1978  2.2589  2.3319
 5320SOL     OW16359   1.908   0.448   3.224 -0.4609  0.2094  0.0979
 5320SOL    HW116360   1.952   0.464   3.307  1.5829 -1.3073 -0.6099
 5320SOL    HW216361   1.853   0.372   3.240 -1.4192  0.9685  0.4892
 5321SOL     OW16362   4.545   1.997   4.921 -0.1624  0.0364 -0.5328
 5321SOL    HW116363   4.480   2.065   4.935 -0.5951 -0.6973  1.5174
 5321SOL    HW216364   4.510   1.944   4.850 -1.6979 -0.1659  0.3287
 5322SOL     OW16365   1.232   5.984   3.086 -0.1497  0.3894  0.2597
 5322SOL    HW116366   1.303   5.921   3.080 -1.3738 -0.9857 -0.2231
 5322SOL    HW216367   1.192   5.984   3.000  0.6473  2.8969 -0.2042
 5323SOL     OW16368   4.081   1.893   3.853  0.1570  0.5955  0.6820
 5323SOL    HW116369   4.107   1.842   3.929  0.9900 -0.5335 -0.3174
 5323SOL    HW216370   4.149   1.875   3.787 -0.8921  0.9768 -0.5594
 5324SOL     OW16371   4.603   1.594   6.183  0.1217 -0.4478 -0.0803
 5324SOL    HW116372   4.688   1.562   6.153  0.5448 -0.4976  1.0998
 5324SOL    HW216373   4.544   1.579   6.110  1.3246  0.5021 -1.2873
 5325SOL     OW16374   3.722   3.993   6.647  0.3958  0.4024  0.8458
 5325SOL    HW116375   3.683   4.073   6.681 -0.1766  1.1519 -1.3761
 5325SOL    HW216376   3.662   3.924   6.675 -2.5299  1.4703 -2.0779
 5326SOL     OW16377   0.326   4.764   6.576 -0.0002  0.3520 -0.3017
 5326SOL    HW116378   0.376   4.786   6.497 -1.2196 -0.7069 -1.4383
 5326SOL    HW216379   0.238   4.798   6.558 -0.1866  0.4883  0.8120
 5327SOL     OW16380   2.396   2.379   0.227  0.0998  0.1003  0.1226
 5327SOL    HW116381   2.428   2.317   0.293  0.3941 -0.0847 -0.1853
 5327SOL    HW216382   2.476   2.422   0.195 -0.1402  0.9320  0.6157
 5328SOL     OW16383   2.199   1.103   1.564  0.0182  0.0012 -0.2437
 5328SOL    HW116384   2.163   1.192   1.563  1.3518  0.6003  1.2413
 5328SOL    HW216385   2.268   1.105   1.631  0.0815 -2.1647 -0.1650
 5329SOL     OW16386   0.954   2.497   5.183 -0.1601 -0.5163  0.1234
 5329SOL    HW116387   1.029   2.474   5.238  2.3068  1.5684 -2.0395
 5329SOL    HW216388   0.912   2.570   5.228  2.6272  2.0708 -1.0727
 5330SOL     OW16389   6.248   2.557   4.003  0.2619 -0.1034 -0.6033
 5330SOL    HW116390   6.317   2.623   4.011  1.1685 -0.8361 -1.8771
 5330SOL    HW216391   6.250   2.511   4.086 -0.0127  1.1160  0.0952
 5331SOL     OW16392   5.150   4.336   5.458 -0.2387  0.0523 -0.0817
 5331SOL    HW116393   5.218   4.308   5.397 -1.6675 -1.7327 -0.9524
 5331SOL    HW216394   5.085   4.380   5.403  0.2394  1.9197  0.7680
 5332SOL     OW16395   6.268   0.111   2.391 -0.3095 -0.3017 -0.3599
 5332SOL    HW116396   6.323   0.163   2.449  1.5705 -1.5258 -0.9336
 5332SOL    HW216397   6.240   0.037   2.445 -3.3791  1.4054  0.6017
 5333SOL     OW16398   5.914   3.359   1.826 -0.1819 -0.1311  0.0758
 5333SOL    HW116399   5.861   3.300   1.880 -0.5100  0.2508  0.1720
 5333SOL    HW216400   5.851   3.409   1.775  0.1453 -1.0053 -1.2340
 5334SOL     OW16401   3.476   2.832   5.073  0.2265  0.2919 -0.7154
 5334SOL    HW116402   3.386   2.860   5.055 -0.0627 -0.4003 -0.4000
 5334SOL    HW216403   3.492   2.759   5.013  0.6904  0.6155 -0.9889
 5335SOL     OW16404   0.015   0.708   4.319  0.5625 -0.7710 -0.2384
 5335SOL    HW116405   0.032   0.756   4.400 -0.9186 -2.2411  1.0136
 5335SOL    HW216406   0.013   0.616   4.346 -0.7070 -1.2352 -1.8083
 5336SOL     OW16407   3.065   6.296   6.492  0.0973 -0.2869  0.0689
 5336SOL    HW116408   3.118   6.217   6.478  1.4868  0.3446  1.4751
 5336SOL    HW216409   3.119   6.351   6.548 -2.6845 -0.2646  3.0443
 5337SOL     OW16410   6.637   2.281   3.592 -0.0782 -0.0147  0.7726
 5337SOL    HW116411   6.601   2.352   3.538 -1.2059 -2.2102 -1.5672
 5337SOL    HW216412   6.566   2.258   3.652 -1.0841 -1.4522 -0.8920
 5338SOL     OW16413   2.848   0.797   0.586  0.9832  0.0914  0.5340
 5338SOL    HW116414   2.859   0.703   0.571 -0.3756 -0.1446  0.8527
 5338SOL    HW216415   2.858   0.836   0.499  0.8474 -0.4306  0.2756
 5339SOL     OW16416   6.180   4.348   5.970  0.5910  0.1787 -0.1933
 5339SOL    HW116417   6.098   4.381   6.007  1.0445  1.1925 -0.0558
 5339SOL    HW216418   6.167   4.253   5.963 -0.2967  0.2317  0.5514
 5340SOL     OW16419   3.412   0.407   5.342  0.2164 -0.5920 -0.3142
 5340SOL    HW116420   3.475   0.477   5.328 -0.3209 -0.0051  0.1625
 5340SOL    HW216421   3.331   0.439   5.303 -0.1040 -0.8230  0.1458
 5341SOL     OW16422   6.324   1.487   0.792 -0.1275  0.1843  0.3378
 5341SOL    HW116423   6.337   1.400   0.753  1.4115  0.3538  0.3840
 5341SOL    HW216424   6.293   1.541   0.719  0.6828  0.0009 -0.1673
 5342SOL     OW16425   0.912   4.897   1.949 -0.6825  0.2837 -0.3770
 5342SOL    HW116426   0.959   4.861   2.024  1.1252  1.1695 -1.0463
 5342SOL    HW216427   0.820   4.876   1.967 -0.7442  2.6912  3.4312
 5343SOL     OW16428   2.550   2.404   4.383  0.0635  0.4006  0.1127
 5343SOL    HW116429   2.582   2.319   4.353 -0.0964  0.7919 -1.2049
 5343SOL    HW216430   2.467   2.384   4.428 -1.1129  0.0563 -2.0959
 5344SOL     OW16431   2.071   5.252   0.380 -0.5898  0.2794 -0.3760
 5344SOL    HW116432   2.063   5.344   0.358 -0.1858 -0.1373 -2.5711
 5344SOL    HW216433   2.028   5.243   0.465  0.5615  2.7036  0.5542
 5345SOL     OW16434   5.092   0.222   4.218  0.3965 -0.4691  0.3193
 5345SOL    HW116435   5.038   0.268   4.153 -1.7663  0.7103  2.7899
 5345SOL    HW216436   5.144   0.290   4.260  0.5089 -0.9511  0.9811
 5346SOL     OW16437   5.377   1.721   4.372 -0.1380  0.3041 -0.2069
 5346SOL    HW116438   5.351   1.813   4.384 -1.7085 -0.2657  1.1706
 5346SOL    HW216439   5.449   1.724   4.310 -1.2149  2.3479 -1.4571
 5347SOL     OW16440   4.614   3.431   2.767  0.3258  0.0511  0.6666
 5347SOL    HW116441   4.686   3.482   2.730  1.2368 -0.8112  1.2031
 5347SOL    HW216442   4.547   3.432   2.698  0.2865  1.9697  0.6785
 5348SOL     OW16443   4.617   2.923   5.737  0.0108 -0.0862 -0.2914
 5348SOL    HW116444   4.534   2.909   5.781 -1.0781 -1.5032 -2.5849
 5348SOL    HW216445   4.661   2.838   5.741  0.3667  0.0553 -0.9419
 5349SOL     OW16446   3.723   1.171   5.895  0.0594  0.0906  0.0858
 5349SOL    HW116447   3.705   1.202   5.984  0.9029  0.1322  0.2443
 5349SOL    HW216448   3.794   1.227   5.864  0.4305 -0.5643 -0.2581
 5350SOL     OW16449   5.424   5.428   5.842 -0.1047  0.4421 -0.3769
 5350SOL    HW116450   5.380   5.502   5.885  1.0854 -0.2686  2.2847
 5350SOL    HW216451   5.517   5.450   5.848  0.1642 -0.4235 -1.2660
 5351SOL     OW16452   0.213   5.430   0.582 -0.4971 -0.1800  0.3489
 5351SOL    HW116453   0.217   5.510   0.530 -0.2321  0.4700  1.3330
 5351SOL    HW216454   0.168   5.367   0.527 -1.3205  0.8510 -0.1848
 5352SOL     OW16455   3.076   6.505   2.171  0.5599  0.4456  0.0966
 5352SOL    HW116456   3.074   6.435   2.107 -0.5331 -0.5833  1.1953
 5352SOL    HW216457   3.153   6.488   2.225  0.7067  0.5189 -0.0901
 5353SOL     OW16458   4.494   5.358   2.555  0.1223 -0.1443 -0.3580
 5353SOL    HW116459   4.534   5.444   2.570 -1.0364  0.1582  1.3478
 5353SOL    HW216460   4.442   5.370   2.475  1.3888  0.1845 -1.1579
 5354SOL     OW16461   4.092   3.519   6.541  0.4217  0.7136  0.1722
 5354SOL    HW116462   4.060   3.556   6.458 -1.4902 -0.0767  0.5038
 5354SOL    HW216463   4.147   3.588   6.578  0.5618  1.4498 -1.3072
 5355SOL     OW16464   2.940   4.548   1.384 -0.4128 -0.2270  0.4424
 5355SOL    HW116465   2.895   4.482   1.331 -0.4255  0.0888  0.0622
 5355SOL    HW216466   2.930   4.629   1.336  2.3995 -0.4966 -0.7613
 5356SOL     OW16467   1.299   5.213   1.053 -0.0483 -0.3114  0.5186
 5356SOL    HW116468   1.375   5.180   1.102  1.1177  0.9528 -0.3848
 5356SOL    HW216469   1.282   5.299   1.092  1.9346  1.4844 -2.2159
 5357SOL     OW16470   3.065   1.743   3.516 -0.2475 -0.0466 -0.2819
 5357SOL    HW116471   3.062   1.816   3.578  0.1646  0.2647 -0.6276
 5357SOL    HW216472   3.084   1.783   3.432 -2.0706 -0.3262 -0.8691
 5358SOL     OW16473   5.746   6.409   4.074  0.2779 -0.5503  0.3640
 5358SOL    HW116474   5.781   6.497   4.084 -1.8751  0.4346 -0.2309
 5358SOL    HW216475   5.652   6.418   4.092 -0.0294 -2.6946  0.1445
 5359SOL     OW16476   6.340   4.826   1.567 -0.4241 -0.7939  0.6001
 5359SOL    HW116477   6.416   4.874   1.598 -0.4441 -0.5810  0.3264
 5359SOL    HW216478   6.272   4.844   1.632 -0.5819 -0.0285  0.2432
 5360SOL     OW16479   0.603   6.708   1.149 -0.2909 -0.4138  0.4436
 5360SOL    HW116480   0.519   6.736   1.113  1.3027 -1.3700 -5.0041
 5360SOL    HW216481   0.606   6.613   1.133  2.5117 -0.0953 -1.8956
 5361SOL     OW16482   6.462   1.753   2.500 -0.2407 -0.1839 -0.2557
 5361SOL    HW116483   6.423   1.691   2.438  0.9413  0.1309 -1.3590
 5361SOL    HW216484   6.547   1.716   2.522 -0.1620  0.2906  0.2622
 5362SOL     OW16485   5.036   3.816   5.285  0.1465 -0.0039  0.2480
 5362SOL    HW116486   5.076   3.876   5.348 -2.5310  0.1800  1.9415
 5362SOL    HW216487   5.010   3.740   5.338  0.0460 -0.9416 -1.1210
 5363SOL     OW16488   4.636   6.635   1.664  0.0701  0.2512  0.2775
 5363SOL    HW116489   4.551   6.604   1.630  0.2667 -0.4534  0.4125
 5363SOL    HW216490   4.661   6.706   1.605  0.2784 -0.7782 -0.9114
 5364SOL     OW16491   3.240   0.077   2.091 -0.4033  0.3648  0.0190
 5364SOL    HW116492   3.256   0.165   2.058 -0.2381  0.3773  0.1273
 5364SOL    HW216493   3.315   0.026   2.060 -0.4160  0.3008  0.0931
 5365SOL     OW16494   0.084   0.255   6.534  0.0794 -0.1056  1.1596
 5365SOL    HW116495   0.176   0.265   6.508 -0.7089  1.0462 -1.4386
 5365SOL    HW216496   0.084   0.274   6.628  2.4468  0.1509  1.1711
 5366SOL     OW16497   3.455   6.600   3.660 -0.2934 -0.1877 -0.3130
 5366SOL    HW116498   3.404   6.526   3.693 -0.2600  0.2339  0.7320
 5366SOL    HW216499   3.416   6.676   3.702  0.7673  0.2114 -0.0160
 5367SOL     OW16500   0.604   1.157   2.687  0.0916  0.2551  0.6247
 5367SOL    HW116501   0.592   1.135   2.594 -0.0407  2.1678  0.1373
 5367SOL    HW216502   0.698   1.168   2.697 -0.0586  2.5543  0.0309
 5368SOL     OW16503   1.792   1.950   4.238  0.1213 -0.3181 -0.0335
 5368SOL    HW116504   1.789   1.866   4.284 -0.8539 -1.1648 -1.5287
 5368SOL    HW216505   1.885   1.964   4.218  0.7667  0.7458  3.2310
 5369SOL     OW16506   0.343   3.826   4.128  0.5495 -0.0707 -0.3473
 5369SOL    HW116507   0.424   3.822   4.179 -0.4470 -2.9043  1.2021
 5369SOL    HW216508   0.289   3.890   4.175  0.3375 -1.2946  1.1384
 5370SOL     OW16509   0.310   4.551   0.644 -0.2486  0.1169  0.3627
 5370SOL    HW116510   0.371   4.552   0.717 -0.8289 -0.6991  0.8770
 5370SOL    HW216511   0.265   4.467   0.652  0.1100 -0.2579 -1.2968
 5371SOL     OW16512   4.657   5.741   0.107  0.0969  0.2688  0.2184
 5371SOL    HW116513   4.702   5.659   0.088 -2.1980 -1.5693  2.0385
 5371SOL    HW216514   4.608   5.723   0.187 -2.4541  2.6037 -0.6559
 5372SOL     OW16515   1.940   1.030   4.461 -0.4592 -0.4568 -0.2369
 5372SOL    HW116516   1.909   1.082   4.534  0.4770 -0.2566  0.0312
 5372SOL    HW216517   1.875   1.044   4.392 -0.2804  0.9963 -0.1371
 5373SOL     OW16518   1.627   6.478   5.293 -0.0405  0.5020  0.2140
 5373SOL    HW116519   1.621   6.510   5.383 -1.5716  1.4014 -0.1715
 5373SOL    HW216520   1.628   6.557   5.239 -2.5252  0.0115 -0.6901
 5374SOL     OW16521   1.285   2.331   6.460  0.7052  0.4715  0.4227
 5374SOL    HW116522   1.326   2.261   6.511 -0.1775 -1.9360 -1.9325
 5374SOL    HW216523   1.198   2.342   6.499  1.5689  1.7728  2.0697
 5375SOL     OW16524   1.895   3.981   3.556  0.8499  0.2629 -0.4081
 5375SOL    HW116525   1.904   3.998   3.650 -0.8623  0.2570 -0.1971
 5375SOL    HW216526   1.803   3.955   3.546  1.4267 -1.4188 -1.8354
 5376SOL     OW16527   1.053   2.946   1.364  0.1196  0.6707  0.8587
 5376SOL    HW116528   0.973   2.961   1.414 -0.4855 -1.1250  0.5131
 5376SOL    HW216529   1.024   2.936   1.274  0.3951 -1.9393  0.9652
 5377SOL     OW16530   2.038   0.817   3.147  0.2136  0.3764 -0.2797
 5377SOL    HW116531   1.959   0.770   3.119  1.0193 -1.5025  0.4235
 5377SOL    HW216532   2.087   0.832   3.066 -0.2635  0.4202 -0.5647
 5378SOL     OW16533   6.547   0.554   0.762  0.2756 -0.6320  0.2437
 5378SOL    HW116534   6.481   0.495   0.798  0.0528 -2.0615 -2.2948
 5378SOL    HW216535   6.501   0.637   0.752  0.7533  0.3386  4.4139
 5379SOL     OW16536   2.172   1.414   2.610  0.0228 -0.8036 -0.3528
 5379SOL    HW116537   2.089   1.381   2.576  0.4144 -1.5023 -0.6448
 5379SOL    HW216538   2.170   1.394   2.704  0.1116 -1.3526 -0.4681
 5380SOL     OW16539   4.509   1.738   3.553 -0.3606  0.5988 -0.9605
 5380SOL    HW116540   4.455   1.675   3.505 -1.1127  1.0957 -0.7928
 5380SOL    HW216541   4.593   1.737   3.508 -0.7316  0.3212 -1.6638
 5381SOL     OW16542   3.866   0.281   5.192 -0.3019  0.3496  0.2736
 5381SOL    HW116543   3.805   0.313   5.125 -2.0566 -3.7604 -0.4511
 5381SOL    HW216544   3.813   0.277   5.272  0.0824  0.0660  0.5178
 5382SOL     OW16545   5.713   1.099   1.304 -0.6475 -0.3836 -0.1498
 5382SOL    HW116546   5.781   1.160   1.273  0.1315 -1.0591  0.1879
 5382SOL    HW216547   5.748   1.064   1.386 -1.8078 -0.1018  0.4761
 5383SOL     OW16548   1.409   3.189   6.539 -0.0930  0.2300  0.4939
 5383SOL    HW116549   1.437   3.176   6.630  1.8800 -1.0083 -0.2277
 5383SOL    HW216550   1.403   3.284   6.530  3.1197  0.6298  1.0538
 5384SOL     OW16551   3.394   4.014   5.364 -0.1674  0.1072  0.0788
 5384SOL    HW116552   3.317   3.958   5.369 -1.4244  1.7874  0.4234
 5384SOL    HW216553   3.398   4.042   5.272  1.0350 -1.2503 -0.3263
 5385SOL     OW16554   3.134   0.936   5.938  0.1968 -0.0980  0.8197
 5385SOL    HW116555   3.080   0.945   5.860  2.4761 -1.0872 -1.0144
 5385SOL    HW216556   3.138   0.842   5.955  0.8673 -0.0011  1.2539
 5386SOL     OW16557   2.709   2.806   1.423  0.3570  0.4332  0.5587
 5386SOL    HW116558   2.724   2.719   1.461 -0.9587  0.0501  0.2597
 5386SOL    HW216559   2.664   2.855   1.491 -1.1372  0.0540 -0.1119
 5387SOL     OW16560   1.886   1.092   1.694 -0.0002 -0.4281 -0.1098
 5387SOL    HW116561   1.955   1.048   1.744 -0.1166  0.9011  1.2450
 5387SOL    HW216562   1.933   1.140   1.626  0.4072  0.2394  0.6310
 5388SOL     OW16563   3.253   1.898   6.607 -0.3567 -0.5091 -0.2108
 5388SOL    HW116564   3.175   1.953   6.594 -0.5863 -0.7754  0.0262
 5388SOL    HW216565   3.270   1.861   6.520  1.2095  1.7618 -0.9409
 5389SOL     OW16566   6.039   6.669   5.106 -0.2818 -0.3667 -0.3954
 5389SOL    HW116567   6.129   6.702   5.106 -0.3780 -0.0390  0.8132
 5389SOL    HW216568   6.047   6.577   5.080  1.0067 -1.6916  3.8717
 5390SOL     OW16569   3.651   0.563   5.742  0.3269 -0.1912 -0.4607
 5390SOL    HW116570   3.571   0.557   5.690 -1.0292  0.7283  1.3703
 5390SOL    HW216571   3.718   0.594   5.681 -1.4829  2.1842 -1.4032
 5391SOL     OW16572   5.884   0.852   4.325  0.0285 -0.1435  0.0072
 5391SOL    HW116573   5.836   0.776   4.295  2.0601 -0.9296 -1.5199
 5391SOL    HW216574   5.873   0.917   4.256 -0.2174  0.3009  0.4528
 5392SOL     OW16575   1.524   2.494   5.836 -0.2052  0.0530  0.1016
 5392SOL    HW116576   1.609   2.501   5.880 -0.3112  0.9351  0.1931
 5392SOL    HW216577   1.539   2.431   5.765  0.2417 -0.5989  0.7632
 5393SOL     OW16578   2.812   1.842   2.649 -0.5004  0.1248 -0.6085
 5393SOL    HW116579   2.862   1.905   2.596 -0.3312  0.4234 -0.1058
 5393SOL    HW216580   2.783   1.893   2.724 -0.2658 -0.4301 -0.1378
 5394SOL     OW16581   0.469   3.025   3.128 -0.3282  0.6079 -0.1515
 5394SOL    HW116582   0.461   3.024   3.223  0.9496 -1.1119 -0.0199
 5394SOL    HW216583   0.556   3.061   3.112 -0.3293  0.3907 -0.6529
 5395SOL     OW16584   0.535   2.795   0.712 -0.2036  0.2156 -0.8140
 5395SOL    HW116585   0.501   2.848   0.640  0.9289  0.8815 -0.8850
 5395SOL    HW216586   0.608   2.747   0.673  0.0168  0.1042 -0.2690
 5396SOL     OW16587   3.183   3.059   6.122 -0.0299  0.8836 -0.0726
 5396SOL    HW116588   3.101   3.026   6.086 -0.2374  2.1605 -0.8674
 5396SOL    HW216589   3.155   3.122   6.189  0.2825  1.5614 -0.5721
 5397SOL     OW16590   0.194   5.823   4.946  0.1024  0.9681  0.5206
 5397SOL    HW116591   0.170   5.892   5.008 -0.1603  1.2983  0.0549
 5397SOL    HW216592   0.285   5.842   4.922  0.4318  0.4468  1.3186
 5398SOL     OW16593   1.817   4.492   5.523  0.0233  0.3629 -0.3195
 5398SOL    HW116594   1.825   4.581   5.488  0.4129  0.7975  0.8118
 5398SOL    HW216595   1.729   4.488   5.559  0.7857  1.1671  1.8157
 5399SOL     OW16596   5.740   5.151   0.610  0.1140 -0.0080 -0.1496
 5399SOL    HW116597   5.710   5.219   0.670  0.8182  1.2620 -1.1847
 5399SOL    HW216598   5.679   5.078   0.624 -0.5610  0.7531  1.1017
 5400SOL     OW16599   5.740   0.316   5.363  0.4434  0.5917  0.3449
 5400SOL    HW116600   5.823   0.323   5.411  0.7730 -0.6895  0.0022
 5400SOL    HW216601   5.701   0.234   5.394  1.2492 -0.9571 -2.3821
 5401SOL     OW16602   2.902   4.361   2.890 -0.1169 -0.8337  0.2932
 5401SOL    HW116603   2.844   4.296   2.850 -2.3132  0.4120  1.2740
 5401SOL    HW216604   2.890   4.440   2.837  0.1208 -0.3606  0.9360
 5402SOL     OW16605   5.840   3.056   4.742  0.4320 -0.2736 -0.3915
 5402SOL    HW116606   5.796   3.065   4.826  0.4708 -0.5250 -0.3449
 5402SOL    HW216607   5.827   3.141   4.699  0.0469 -0.2881 -0.3080
 5403SOL     OW16608   3.036   1.101   2.644  0.1238  0.2292  0.0774
 5403SOL    HW116609   3.028   1.104   2.549  3.2440 -1.6179 -0.3579
 5403SOL    HW216610   3.109   1.160   2.664  0.3134 -0.3464  1.1618
 5404SOL     OW16611   3.872   4.637   1.767  0.3153  0.1381  0.5084
 5404SOL    HW116612   3.791   4.656   1.720  0.7333  0.8337  0.0417
 5404SOL    HW216613   3.897   4.549   1.737  0.4903  0.5070 -0.4645
 5405SOL     OW16614   4.627   5.640   5.865 -0.1991  0.1480 -0.4877
 5405SOL    HW116615   4.674   5.599   5.792 -0.0596 -1.3203  0.3848
 5405SOL    HW216616   4.560   5.576   5.889 -0.9232  1.0740  0.0017
 5406SOL     OW16617   2.450   6.369   0.753  0.4445 -0.0334  0.1674
 5406SOL    HW116618   2.479   6.320   0.829  1.9110 -0.2432 -0.4977
 5406SOL    HW216619   2.510   6.443   0.747  0.3591 -0.0216 -0.7799
 5407SOL     OW16620   4.056   0.311   2.198 -0.5174  0.3021 -0.0013
 5407SOL    HW116621   4.142   0.283   2.227 -0.2657  0.1465 -0.8597
 5407SOL    HW216622   4.003   0.315   2.277 -0.2274 -1.4247  0.3121
 5408SOL     OW16623   6.078   1.814   3.926  0.4828 -0.4577  0.4761
 5408SOL    HW116624   6.012   1.798   3.859  2.4267  0.3857 -1.7771
 5408SOL    HW216625   6.123   1.730   3.937 -0.2154 -0.7519  1.2279
 5409SOL     OW16626   6.278   6.737   3.351 -0.0717  0.2729  0.1378
 5409SOL    HW116627   6.260   6.680   3.426 -0.3339 -1.5704 -1.2562
 5409SOL    HW216628   6.265   6.825   3.384  0.9248 -0.4115  2.5588
 5410SOL     OW16629   3.223   3.765   4.765 -0.2706 -0.0132  0.1988
 5410SOL    HW116630   3.164   3.801   4.697 -2.0538 -0.9550  1.1771
 5410SOL    HW216631   3.310   3.795   4.739 -1.0129  0.4575 -1.9832
 5411SOL     OW16632   0.764   6.258   4.383  0.1233 -0.4755 -0.3101
 5411SOL    HW116633   0.835   6.321   4.392  1.5717 -2.1095  0.3224
 5411SOL    HW216634   0.691   6.309   4.348  1.7449  1.1641 -1.4909
 5412SOL     OW16635   6.599   1.204   5.512 -0.3855  0.1018  0.0919
 5412SOL    HW116636   6.669   1.250   5.559  0.0114  2.3179 -2.4367
 5412SOL    HW216637   6.640   1.125   5.479  1.2757  1.6869 -1.9268
 5413SOL     OW16638   2.784   0.252   3.221 -0.4683 -0.5123 -0.0387
 5413SOL    HW116639   2.720   0.323   3.227  1.4732  1.3430  0.1608
 5413SOL    HW216640   2.838   0.275   3.146  1.5594 -0.5611  1.3344
 5414SOL     OW16641   2.039   4.447   1.038 -0.1260 -0.1789  0.0750
 5414SOL    HW116642   1.954   4.468   1.076 -0.6651 -0.9848 -0.6492
 5414SOL    HW216643   2.083   4.532   1.030  0.8698 -0.0534  4.2820
 5415SOL     OW16644   1.741   5.849   0.598 -0.0904 -1.1476  0.2907
 5415SOL    HW116645   1.693   5.856   0.515 -1.5295  0.6518  1.1789
 5415SOL    HW216646   1.720   5.761   0.630 -0.4580 -1.4431 -0.7174
 5416SOL     OW16647   6.050   2.490   5.384 -0.0593 -0.1749 -0.5494
 5416SOL    HW116648   6.055   2.579   5.418 -1.0862  0.2622 -1.5054
 5416SOL    HW216649   6.129   2.448   5.418  0.9992  1.4025 -0.9599
 5417SOL     OW16650   2.824   6.634   2.585 -0.1402  0.2515 -0.1570
 5417SOL    HW116651   2.830   6.580   2.506 -0.6394 -0.1625  0.0904
 5417SOL    HW216652   2.796   6.720   2.552  1.9898  0.7962 -0.7237
 5418SOL     OW16653   3.733   2.978   1.752  0.3099 -0.2482  0.2560
 5418SOL    HW116654   3.787   3.029   1.691  0.2578  0.9595  1.1889
 5418SOL    HW216655   3.796   2.921   1.796  0.5720 -0.0426  0.1525
 5419SOL     OW16656   1.931   5.441   6.392  0.0570 -0.4482 -0.2579
 5419SOL    HW116657   1.865   5.379   6.362 -1.8694  0.7531  1.2361
 5419SOL    HW216658   1.881   5.514   6.428  2.2304  1.2859 -0.5377
 5420SOL     OW16659   3.746   2.043   6.750 -0.0627 -0.7047  0.1157
 5420SOL    HW116660   3.664   2.036   6.700 -0.5088  0.6649  0.6262
 5420SOL    HW216661   3.719   2.040   6.842  0.1410  2.1510  0.3539
 5421SOL     OW16662   6.432   0.322   2.501 -0.5634  0.1405 -0.1193
 5421SOL    HW116663   6.431   0.418   2.507  1.5176  0.2976 -1.3197
 5421SOL    HW216664   6.437   0.292   2.591 -0.4794  1.1788  0.2291
 5422SOL     OW16665   6.187   4.662   1.412 -0.2486 -0.2069 -0.2808
 5422SOL    HW116666   6.226   4.647   1.326 -0.8568  1.1710 -0.8328
 5422SOL    HW216667   6.247   4.722   1.456  0.0626 -0.9077  0.2806
 5423SOL     OW16668   3.900   5.815   6.372  0.1064 -0.0523 -0.2243
 5423SOL    HW116669   3.847   5.873   6.428 -0.1514 -0.7914  0.3183
 5423SOL    HW216670   3.982   5.804   6.420 -0.3416 -1.1646  0.3221
 5424SOL     OW16671   0.640   4.854   0.069 -0.0883 -0.1936 -0.1419
 5424SOL    HW116672   0.734   4.847   0.089 -0.4237 -4.6005  0.9610
 5424SOL    HW216673   0.602   4.895   0.147  0.8257  1.1429 -0.3749
 5425SOL     OW16674   4.415   1.226   3.381 -0.4205  0.2590 -0.0949
 5425SOL    HW116675   4.434   1.138   3.347 -2.1102  0.6685 -2.3126
 5425SOL    HW216676   4.322   1.223   3.404 -0.7575  1.6724 -1.0956
 5426SOL     OW16677   0.214   6.076   4.172 -0.0022  0.2603  0.0858
 5426SOL    HW116678   0.261   5.998   4.142 -0.4449 -0.1723  0.4966
 5426SOL    HW216679   0.167   6.107   4.095 -0.2527 -0.1987  0.0476
 5427SOL     OW16680   5.693   1.741   6.153  0.4102  0.0633 -0.1838
 5427SOL    HW116681   5.744   1.759   6.074  0.7382  1.1598  0.2563
 5427SOL    HW216682   5.753   1.758   6.225  0.2215 -1.2837  0.3213
 5428SOL     OW16683   4.006   4.398   1.433  0.4323  1.1338 -0.1110
 5428SOL    HW116684   4.072   4.393   1.364  0.8079 -1.5029  0.3103
 5428SOL    HW216685   3.923   4.399   1.387  0.6527 -1.2985 -0.6909
 5429SOL     OW16686   3.004   6.078   3.862  0.1806 -0.0718  0.2182
 5429SOL    HW116687   2.965   6.013   3.920 -0.1462  0.8479  1.0498
 5429SOL    HW216688   2.931   6.134   3.836  0.1609 -0.9106 -1.7339
 5430SOL     OW16689   5.310   3.627   0.910 -0.3027 -0.0333 -0.1108
 5430SOL    HW116690   5.249   3.700   0.897 -2.2297 -1.1682  1.8383
 5430SOL    HW216691   5.384   3.665   0.957 -0.7680  0.8750 -0.1054
 5431SOL     OW16692   5.759   4.601   1.655  0.6007 -0.3839  0.3750
 5431SOL    HW116693   5.785   4.523   1.704  0.3221 -1.6027 -1.3469
 5431SOL    HW216694   5.666   4.588   1.636  0.9306 -0.4661 -1.3467
 5432SOL     OW16695   1.807   1.809   0.373 -0.7092  0.0794  0.1429
 5432SOL    HW116696   1.783   1.734   0.319 -0.5757  1.1520 -1.4608
 5432SOL    HW216697   1.724   1.839   0.411 -1.0632  0.2821 -0.7644
 5433SOL     OW16698   3.201   2.494   4.211 -0.1191  0.4466  0.5550
 5433SOL    HW116699   3.170   2.585   4.203 -1.0417  0.2281  1.4424
 5433SOL    HW216700   3.275   2.500   4.272  0.2414  0.6815  0.1037
 5434SOL     OW16701   5.181   6.401   1.339  0.0354 -0.1135  0.8767
 5434SOL    HW116702   5.254   6.461   1.326 -0.7453  0.5522 -0.7709
 5434SOL    HW216703   5.108   6.458   1.363  0.3703 -0.9200  4.2604
 5435SOL     OW16704   1.227   3.676   1.705  0.2441  0.1621 -0.3628
 5435SOL    HW116705   1.175   3.597   1.687  0.7864 -0.0036 -1.2301
 5435SOL    HW216706   1.310   3.661   1.660  0.9812  0.5161  0.8404
 5436SOL     OW16707   2.667   2.450   0.844 -0.3068 -0.0153  0.1076
 5436SOL    HW116708   2.599   2.487   0.788 -0.1498 -0.6470 -0.5235
 5436SOL    HW216709   2.741   2.511   0.835 -1.7675  2.5491  3.3854
 5437SOL     OW16710   5.438   2.660   2.976 -0.9142 -0.5418 -0.1103
 5437SOL    HW116711   5.386   2.643   2.897 -1.5416 -0.0873  0.1980
 5437SOL    HW216712   5.376   2.701   3.037 -0.4803 -1.0347  0.6782
 5438SOL     OW16713   4.313   3.913   0.165  0.1469 -0.0728  0.1110
 5438SOL    HW116714   4.267   3.969   0.228  1.2264  0.6983  0.2622
 5438SOL    HW216715   4.359   3.849   0.219  0.7967  0.3769  0.1134
 5439SOL     OW16716   4.644   4.117   2.721  0.4759 -0.3660  0.6186
 5439SOL    HW116717   4.573   4.176   2.697 -1.5544 -2.9334 -0.1639
 5439SOL    HW216718   4.724   4.164   2.695 -1.0783  1.3643 -1.4465
 5440SOL     OW16719   4.800   5.896   4.719  0.4207 -0.7840 -0.7205
 5440SOL    HW116720   4.794   5.991   4.732 -1.6531 -0.8749 -0.6284
 5440SOL    HW216721   4.840   5.887   4.632  2.3423  0.0948  0.0192
 5441SOL     OW16722   2.633   6.504   5.684  0.2325 -0.2117 -0.2982
 5441SOL    HW116723   2.686   6.496   5.764 -0.1586 -0.3873 -0.0512
 5441SOL    HW216724   2.560   6.560   5.710  0.3275  0.0779 -0.6521
 5442SOL     OW16725   0.608   1.664   3.951  0.5931  0.1908 -0.2711
 5442SOL    HW116726   0.545   1.698   4.015 -0.9050  1.8226 -2.4274
 5442SOL    HW216727   0.685   1.719   3.962  0.7401 -0.2232  0.8056
 5443SOL     OW16728   4.721   5.690   4.222  0.3784 -0.3964  0.2201
 5443SOL    HW116729   4.688   5.732   4.302 -0.5779 -0.6514 -0.0178
 5443SOL    HW216730   4.735   5.762   4.162  0.2366 -0.2789  0.3259
 5444SOL     OW16731   3.520   4.361   4.929 -0.3664 -0.4172 -0.7061
 5444SOL    HW116732   3.582   4.307   4.880 -0.3126 -0.3411 -0.7226
 5444SOL    HW216733   3.465   4.298   4.977 -0.1085 -0.4761 -0.4861
 5445SOL     OW16734   1.318   3.839   0.260 -0.2122 -0.0203 -0.4821
 5445SOL    HW116735   1.333   3.748   0.286  2.0609  0.6045  0.5843
 5445SOL    HW216736   1.241   3.834   0.203  0.6711 -2.7824 -1.6097
 5446SOL     OW16737   1.796   4.805   3.598 -0.1590  0.2777  0.4593
 5446SOL    HW116738   1.779   4.857   3.676  1.3603  1.4778  0.0221
 5446SOL    HW216739   1.788   4.867   3.525  0.3448 -0.3971 -0.1895
 5447SOL     OW16740   0.074   2.998   5.355  0.3298 -0.1967  0.0800
 5447SOL    HW116741   0.136   2.940   5.398 -0.1278 -0.4715  0.3767
 5447SOL    HW216742   0.026   2.941   5.294 -0.2644 -0.1811  0.5239
 5448SOL     OW16743   0.904   3.337   3.189  0.2064 -0.2241  0.4987
 5448SOL    HW116744   0.995   3.361   3.208 -0.1816  1.6279  0.2124
 5448SOL    HW216745   0.907   3.243   3.175  2.0630 -0.2279  0.6212
 5449SOL     OW16746   4.050   3.198   3.814 -0.4803 -0.0737  0.0578
 5449SOL    HW116747   4.041   3.226   3.723  0.1158 -0.2829 -0.0685
 5449SOL    HW216748   3.961   3.174   3.841 -0.5581 -0.6780 -0.6938
 5450SOL     OW16749   2.237   0.967   4.975 -0.0928  0.1459 -0.8171
 5450SOL    HW116750   2.166   0.928   4.924  1.2130 -1.0655 -1.7891
 5450SOL    HW216751   2.280   1.028   4.915  0.3972 -0.0064 -0.6306
 5451SOL     OW16752   4.413   2.739   4.458 -0.9545  0.7340 -0.0101
 5451SOL    HW116753   4.345   2.801   4.432 -0.1920  0.8516 -1.9094
 5451SOL    HW216754   4.383   2.655   4.422 -0.7408  0.5213  0.3095
 5452SOL     OW16755   2.556   0.927   4.682 -0.6483  0.5205 -0.3548
 5452SOL    HW116756   2.616   0.996   4.655  1.2177 -0.1020  1.9433
 5452SOL    HW216757   2.567   0.859   4.615  1.8585  0.1042  0.3852
 5453SOL     OW16758   5.058   4.295   3.502 -0.5791  0.1866  0.0460
 5453SOL    HW116759   4.972   4.257   3.487 -0.5002  0.3578 -0.8604
 5453SOL    HW216760   5.102   4.233   3.561 -0.6729 -0.8367 -0.9251
 5454SOL     OW16761   2.691   1.611   2.634  0.0147  0.1042 -0.2757
 5454SOL    HW116762   2.730   1.696   2.654  0.5802  0.2746 -1.9708
 5454SOL    HW216763   2.660   1.618   2.544  0.9507 -1.7467 -0.8215
 5455SOL     OW16764   1.599   4.751   2.890 -0.5236 -0.1021  0.3167
 5455SOL    HW116765   1.505   4.756   2.870 -0.2618  1.6130 -0.7461
 5455SOL    HW216766   1.609   4.800   2.972 -0.3554  1.4640 -0.5860
 5456SOL     OW16767   3.983   5.604   0.521  0.1155 -0.2400  0.4382
 5456SOL    HW116768   3.906   5.549   0.504 -0.4288  0.1451  1.5078
 5456SOL    HW216769   3.951   5.694   0.514  1.2036  0.0306 -2.1863
 5457SOL     OW16770   4.029   2.269   3.073 -0.2525 -0.2363 -0.1036
 5457SOL    HW116771   3.968   2.342   3.077 -1.2988 -1.1396  1.5782
 5457SOL    HW216772   4.069   2.266   3.160 -0.8259 -2.1411  0.1371
 5458SOL     OW16773   2.603   0.166   4.198 -0.4342 -0.6520 -0.1258
 5458SOL    HW116774   2.582   0.260   4.195 -0.3667 -0.6551 -1.9735
 5458SOL    HW216775   2.530   0.126   4.244 -0.4773  0.2941  0.6570
 5459SOL     OW16776   1.103   6.130   1.189 -0.4012 -0.3988 -0.2064
 5459SOL    HW116777   1.151   6.136   1.271 -0.4140 -1.8237 -0.0668
 5459SOL    HW216778   1.038   6.200   1.193 -0.2394 -0.3064  0.8894
 5460SOL     OW16779   0.971   3.806   1.305 -0.4567  0.5659 -0.5995
 5460SOL    HW116780   1.007   3.754   1.233  1.3667  0.4996  0.2915
 5460SOL    HW216781   0.966   3.895   1.270  0.1186  0.4767 -0.9292
 5461SOL     OW16782   0.612   0.484   0.838 -0.5237 -0.5274  0.6448
 5461SOL    HW116783   0.576   0.541   0.906  0.8298 -0.0719  0.9949
 5461SOL    HW216784   0.534   0.445   0.797 -1.5789  2.2056 -0.2174
 5462SOL     OW16785   6.460   0.020   1.288 -0.1968  0.2712  0.3771
 5462SOL    HW116786   6.515   0.097   1.296  0.2416  0.0351 -0.2618
 5462SOL    HW216787   6.387   0.036   1.348  1.4649 -0.2094  2.6905
 5463SOL     OW16788   4.952   3.213   1.881  0.4621 -0.6795  0.4139
 5463SOL    HW116789   4.995   3.224   1.796 -0.6227 -1.5622 -0.2593
 5463SOL    HW216790   5.017   3.245   1.944  0.7110  1.4375 -0.8158
 5464SOL     OW16791   2.684   5.205   1.574 -0.4572  0.0981  0.0142
 5464SOL    HW116792   2.673   5.216   1.480  3.0015  0.7067 -0.4294
 5464SOL    HW216793   2.756   5.144   1.584 -0.9799 -0.2613  2.3138
 5465SOL     OW16794   0.457   3.886   5.810 -0.6888 -0.5573  0.1223
 5465SOL    HW116795   0.482   3.923   5.895  0.0363 -0.1379 -0.2688
 5465SOL    HW216796   0.371   3.846   5.826 -1.1331  0.5897  0.7591
 5466SOL     OW16797   6.089   3.381   2.258  0.2095 -0.4668 -0.0689
 5466SOL    HW116798   6.084   3.287   2.271  0.5574 -0.5595 -0.5652
 5466SOL    HW216799   5.998   3.409   2.248  0.1503 -0.8601 -0.6656
 5467SOL     OW16800   4.313   5.379   0.375  0.5012 -0.3423 -0.4805
 5467SOL    HW116801   4.326   5.407   0.466 -1.0594  0.1742 -0.3750
 5467SOL    HW216802   4.370   5.304   0.364  1.9336  0.5765  0.4220
 5468SOL     OW16803   4.155   2.786   6.013  0.1492  0.2267 -0.6660
 5468SOL    HW116804   4.102   2.866   6.014 -0.2044  0.0007  0.6671
 5468SOL    HW216805   4.137   2.745   6.097  1.5558 -0.4592 -0.6833
 5469SOL     OW16806   0.458   4.547   4.002  0.3678  0.1225  0.5874
 5469SOL    HW116807   0.459   4.576   3.910 -1.8333 -0.2115  0.3975
 5469SOL    HW216808   0.386   4.596   4.041  0.2897 -0.8752  1.7469
 5470SOL     OW16809   3.710   6.373   5.621 -0.0586  0.1996  0.1432
 5470SOL    HW116810   3.757   6.435   5.677 -0.1555  0.5420 -0.1563
 5470SOL    HW216811   3.746   6.386   5.534 -0.4592  0.2123 -0.0235
 5471SOL     OW16812   1.112   1.591   4.227 -0.6386 -0.3290 -0.0995
 5471SOL    HW116813   1.175   1.521   4.242 -0.0863  0.1807  0.0086
 5471SOL    HW216814   1.163   1.660   4.183 -0.6208  0.8873  1.7060
 5472SOL     OW16815   5.222   1.078   5.333 -0.6549  0.3054 -0.2093
 5472SOL    HW116816   5.145   1.100   5.280 -1.4424  0.7350  1.0535
 5472SOL    HW216817   5.290   1.137   5.302 -1.4164  1.3248 -0.0042
 5473SOL     OW16818   4.053   5.274   1.981 -0.2901  0.5746 -0.2519
 5473SOL    HW116819   3.992   5.228   2.038 -0.3942  1.2231  0.1736
 5473SOL    HW216820   4.113   5.319   2.041 -0.6331  1.5777 -0.6428
 5474SOL     OW16821   1.200   4.903   4.405 -0.6157  0.1487 -0.3210
 5474SOL    HW116822   1.209   4.893   4.310 -0.2310 -3.5363 -0.0581
 5474SOL    HW216823   1.145   4.829   4.431 -0.4960  0.9046  2.3775
 5475SOL     OW16824   6.758   2.767   5.230 -0.8072 -0.1340  0.3786
 5475SOL    HW116825   6.667   2.739   5.237 -1.1605  1.2272  1.7058
 5475SOL    HW216826   6.809   2.693   5.264 -1.4429 -0.6644  0.1914
 5476SOL     OW16827   5.796   1.656   2.035  0.1426  0.1422 -0.2660
 5476SOL    HW116828   5.844   1.729   2.074 -1.0859  1.6280 -1.4224
 5476SOL    HW216829   5.863   1.606   1.987  1.0353  0.3319  0.7369
 5477SOL     OW16830   3.791   3.506   0.603 -0.6231 -0.6773  0.3591
 5477SOL    HW116831   3.842   3.450   0.546  0.1874 -0.0804  0.4877
 5477SOL    HW216832   3.742   3.445   0.659 -1.1633 -1.2558 -0.7224
 5478SOL     OW16833   6.706   4.966   0.473  0.3921  0.6639 -1.1310
 5478SOL    HW116834   6.628   5.022   0.463  0.9787  1.4223 -1.6307
 5478SOL    HW216835   6.712   4.919   0.390 -0.0534 -0.1010 -0.7409
 5479SOL     OW16836   0.553   1.767   5.118  0.3836  0.2718  0.3667
 5479SOL    HW116837   0.461   1.764   5.143  0.4961 -0.6111  0.7204
 5479SOL    HW216838   0.601   1.762   5.201  0.7581 -2.6319  0.0830
 5480SOL     OW16839   0.328   3.163   1.736  0.6943 -0.8783  0.3475
 5480SOL    HW116840   0.293   3.107   1.805 -2.8738  0.0445 -0.5003
 5480SOL    HW216841   0.337   3.249   1.778 -1.3380 -0.3524 -0.1503
 5481SOL     OW16842   0.217   1.500   1.591  0.4123  0.4229  0.3649
 5481SOL    HW116843   0.174   1.505   1.677 -0.7301  0.0073 -0.1635
 5481SOL    HW216844   0.180   1.572   1.541  0.9164  0.5273  0.1368
 5482SOL     OW16845   1.125   3.310   6.524  0.1523 -0.1889 -0.0594
 5482SOL    HW116846   1.045   3.337   6.570  0.4272 -0.5290  0.6399
 5482SOL    HW216847   1.138   3.219   6.551  1.4926  0.2579  0.9007
 5483SOL     OW16848   0.730   0.849   5.571 -0.1199  0.0972  0.2419
 5483SOL    HW116849   0.662   0.821   5.632  0.7376 -0.0411  1.1544
 5483SOL    HW216850   0.808   0.861   5.626  0.5662  0.3512 -0.7671
 5484SOL     OW16851   1.362   0.078   2.596 -0.7110  0.0284  0.1314
 5484SOL    HW116852   1.402  -0.005   2.571 -0.0555  0.6135 -0.8428
 5484SOL    HW216853   1.437   0.135   2.617 -1.0644  0.8145 -0.6652
 5485SOL     OW16854   2.427   1.594   6.143  0.3726 -0.1391 -0.1828
 5485SOL    HW116855   2.449   1.592   6.236 -0.9308 -1.1875  0.1351
 5485SOL    HW216856   2.332   1.583   6.140  0.1342  1.7451 -1.5887
 5486SOL     OW16857   1.195   4.867   5.402  0.0340  0.1996 -0.2490
 5486SOL    HW116858   1.186   4.946   5.349  1.1319  0.1001 -0.6321
 5486SOL    HW216859   1.135   4.804   5.361 -1.6386  1.1268  0.7091
 5487SOL     OW16860   3.914   4.906   5.059  0.5317  0.1221 -0.1248
 5487SOL    HW116861   3.916   4.841   4.989 -0.5500 -0.6006  0.4811
 5487SOL    HW216862   3.983   4.877   5.120 -0.5952 -1.0611  0.6307
 5488SOL     OW16863   0.514   6.329   4.286  0.2122  0.4789  0.0871
 5488SOL    HW116864   0.434   6.333   4.338  0.1945 -0.4807  0.1460
 5488SOL    HW216865   0.531   6.420   4.261 -0.9821  0.6682 -0.0715
 5489SOL     OW16866   0.926   5.658   2.989  0.6704  0.3983  0.0609
 5489SOL    HW116867   0.901   5.585   3.046  1.3698  0.6720  0.7231
 5489SOL    HW216868   0.867   5.729   3.014  0.7233  0.4027  0.1704
 5490SOL     OW16869   1.741   2.507   6.432  0.3194  0.2591  0.3401
 5490SOL    HW116870   1.755   2.589   6.479 -1.0499 -0.1540  1.5604
 5490SOL    HW216871   1.650   2.512   6.402  0.9303  0.1791 -1.6816
 5491SOL     OW16872   3.426   4.332   4.009 -0.0711  0.1648 -0.2783
 5491SOL    HW116873   3.445   4.245   4.042  0.5135  0.0665 -0.8583
 5491SOL    HW216874   3.336   4.327   3.978  0.0858 -0.3411 -0.6553
 5492SOL     OW16875   6.484   5.503   4.015 -0.0338 -0.0965  0.7663
 5492SOL    HW116876   6.413   5.568   4.012  0.3023  0.2951  1.1299
 5492SOL    HW216877   6.526   5.517   4.100  1.7388  1.0480 -0.2235
 5493SOL     OW16878   5.536   0.721   5.248 -0.8391  0.5982 -0.2044
 5493SOL    HW116879   5.565   0.676   5.169 -2.3548 -0.8110 -0.0266
 5493SOL    HW216880   5.546   0.656   5.318 -1.7990  0.9761  0.3112
 5494SOL     OW16881   2.143   4.925   4.735  0.1275 -0.7378 -0.1148
 5494SOL    HW116882   2.069   4.952   4.790  1.9312  3.3593  0.6636
 5494SOL    HW216883   2.122   4.961   4.649  0.9906  0.1121  0.0182
 5495SOL     OW16884   0.423   5.216   3.369 -0.4282  0.6801  0.3098
 5495SOL    HW116885   0.483   5.241   3.300  0.4595 -0.8622  0.4686
 5495SOL    HW216886   0.461   5.253   3.449 -0.7580  1.3656  0.1524
 5496SOL     OW16887   0.323   1.021   4.303 -0.3028  0.9751 -0.5055
 5496SOL    HW116888   0.331   1.048   4.395 -1.2960  0.5043 -0.2670
 5496SOL    HW216889   0.303   1.102   4.256 -2.9195  0.8257  0.1573
 5497SOL     OW16890   5.678   2.267   3.602  0.1708 -0.7571  0.0656
 5497SOL    HW116891   5.689   2.191   3.660 -2.3736 -1.3744 -0.1204
 5497SOL    HW216892   5.746   2.328   3.630  2.0673 -2.9079  0.4911
 5498SOL     OW16893   0.523   5.603   0.362  0.1062 -0.0266 -0.2681
 5498SOL    HW116894   0.504   5.547   0.287 -1.1507  0.6602 -0.4877
 5498SOL    HW216895   0.556   5.543   0.429 -0.7724 -0.9685 -0.6471
 5499SOL     OW16896   1.665   2.248   2.899 -0.3489  0.0731 -0.4592
 5499SOL    HW116897   1.621   2.251   2.984 -0.5878 -1.3593 -0.4958
 5499SOL    HW216898   1.662   2.155   2.874 -0.1894  0.4510 -1.9853
 5500SOL     OW16899   0.238   0.100   6.775 -0.5964 -0.2474  0.1028
 5500SOL    HW116900   0.312   0.083   6.833 -1.5003  1.0435  1.7265
 5500SOL    HW216901   0.268   0.071   6.689  1.2538 -1.0850  0.9596
 5501SOL     OW16902   0.556   6.291   0.628 -0.4574 -0.1059  0.1862
 5501SOL    HW116903   0.511   6.267   0.710  0.4456  2.0643  1.4107
 5501SOL    HW216904   0.637   6.332   0.657 -0.7519  2.0201 -1.7160
 5502SOL     OW16905   1.711   4.655   3.226  0.1449 -0.1594  0.4660
 5502SOL    HW116906   1.667   4.592   3.169  1.8922 -2.1665  1.2263
 5502SOL    HW216907   1.740   4.604   3.302  1.7414  1.5056  1.0586
 5503SOL     OW16908   2.655   2.937   6.094  0.0525  0.6386  0.0600
 5503SOL    HW116909   2.562   2.925   6.074 -0.4215  1.9282  1.3130
 5503SOL    HW216910   2.696   2.952   6.009 -0.9571  0.5013 -0.4686
 5504SOL     OW16911   0.819   5.995   2.474 -0.1844 -0.2024  0.2125
 5504SOL    HW116912   0.847   5.906   2.453  0.9896  0.0406  0.7143
 5504SOL    HW216913   0.897   6.049   2.462 -0.7134  0.6665  0.5534
 5505SOL     OW16914   0.190   0.538   6.336 -0.4601  0.2089  0.2544
 5505SOL    HW116915   0.159   0.462   6.287 -0.7961  0.0177  0.7575
 5505SOL    HW216916   0.285   0.529   6.335 -0.4524  0.3204 -0.5391
 5506SOL     OW16917   0.261   6.746   3.944 -0.3579 -0.3641 -0.1882
 5506SOL    HW116918   0.212   6.715   3.867 -2.2146 -1.5372  1.3565
 5506SOL    HW216919   0.257   6.672   4.005  0.2155  0.8704  1.4045
 5507SOL     OW16920   5.745   6.223   0.225 -0.1277  0.0871  0.0251
 5507SOL    HW116921   5.727   6.232   0.132  1.4842  0.7661 -0.2589
 5507SOL    HW216922   5.670   6.175   0.260  0.0976 -1.8813 -1.9504
 5508SOL     OW16923   2.197   0.507   1.228 -0.8170 -0.5174  0.3306
 5508SOL    HW116924   2.136   0.550   1.288  0.9125  1.5928  0.7176
 5508SOL    HW216925   2.246   0.446   1.283 -1.3893 -0.9456  0.3744
 5509SOL     OW16926   1.667   2.759   0.424  0.1108  0.6562 -0.6037
 5509SOL    HW116927   1.698   2.843   0.391  3.4365 -0.3182 -0.3227
 5509SOL    HW216928   1.632   2.779   0.511  1.1400  1.7075 -0.4184
 5510SOL     OW16929   2.633   2.473   2.157  0.2473  0.0550 -0.0479
 5510SOL    HW116930   2.702   2.489   2.221 -0.8103 -0.8219  1.3694
 5510SOL    HW216931   2.593   2.559   2.143  0.1802  0.1854  0.8649
 5511SOL     OW16932   5.121   3.256   1.659 -0.2693  0.8359  0.7812
 5511SOL    HW116933   5.167   3.172   1.647 -2.0069 -0.2265  1.1040
 5511SOL    HW216934   5.170   3.318   1.605  0.5869 -0.5768 -0.1470
 5512SOL     OW16935   5.812   0.999   1.553 -0.5703 -0.4823  0.2215
 5512SOL    HW116936   5.778   0.919   1.593 -0.3653 -0.9132 -0.4675
 5512SOL    HW216937   5.904   1.001   1.578  0.0195 -1.6974 -1.6955
 5513SOL     OW16938   4.188   3.591   3.399  0.3827  0.0797  0.5951
 5513SOL    HW116939   4.123   3.534   3.357 -0.1292 -0.5248  2.1373
 5513SOL    HW216940   4.140   3.636   3.469  1.2509  0.8898  0.6964
 5514SOL     OW16941   1.822   0.865   1.914  0.2972 -0.2994  0.6003
 5514SOL    HW116942   1.754   0.924   1.881 -0.1590 -0.1232  1.8011
 5514SOL    HW216943   1.865   0.832   1.836 -0.6766  0.1780 -0.1612
 5515SOL     OW16944   5.986   5.118   0.777 -0.3763 -0.1838 -0.0437
 5515SOL    HW116945   5.964   5.144   0.866  1.1228  0.2272  0.2241
 5515SOL    HW216946   5.912   5.150   0.724 -1.8084 -1.3583  1.1433
 5516SOL     OW16947   1.557   1.552   0.516  0.0604  0.0073  0.2066
 5516SOL    HW116948   1.502   1.604   0.457  0.3861  1.4869  1.1444
 5516SOL    HW216949   1.507   1.547   0.597  0.8312  0.4746  0.7265
 5517SOL     OW16950   6.139   0.925   6.718  0.7557  0.7492 -0.6476
 5517SOL    HW116951   6.225   0.889   6.698  0.6533  0.6401 -0.8823
 5517SOL    HW216952   6.102   0.865   6.782 -0.0003 -0.3566 -2.0895
 5518SOL     OW16953   2.184   3.611   2.055  0.5320 -0.2149  0.1773
 5518SOL    HW116954   2.166   3.553   1.981  2.0622 -0.8904  0.3074
 5518SOL    HW216955   2.132   3.690   2.037 -0.6281 -1.1299 -0.6135
 5519SOL     OW16956   0.553   2.921   1.571 -0.0776 -0.0537  0.0385
 5519SOL    HW116957   0.463   2.893   1.551  0.3600 -0.8246 -0.9327
 5519SOL    HW216958   0.543   3.005   1.615 -1.3573 -0.7966  1.2638
 5520SOL     OW16959   3.185   5.698   4.989  0.0495  0.3528  0.0703
 5520SOL    HW116960   3.111   5.648   5.025  0.9584 -1.0231  0.1115
 5520SOL    HW216961   3.144   5.762   4.930 -1.1939 -0.2030  0.2955
 5521SOL     OW16962   3.802   0.778   1.926  0.6233  0.1436 -0.3484
 5521SOL    HW116963   3.857   0.820   1.860  1.6047 -1.5281 -0.6568
 5521SOL    HW216964   3.797   0.686   1.899 -0.8065 -0.1261  0.6964
 5522SOL     OW16965   0.849   5.803   0.828  0.5201  0.1634  0.4342
 5522SOL    HW116966   0.795   5.882   0.836 -0.6682 -0.5264 -0.5072
 5522SOL    HW216967   0.917   5.828   0.765 -0.4640  0.1484 -0.6727
 5523SOL     OW16968   2.899   1.601   2.330 -0.5588  0.5636  0.0915
 5523SOL    HW116969   2.937   1.689   2.328  0.2215  0.4303  3.1661
 5523SOL    HW216970   2.819   1.612   2.382 -0.9590 -0.3899 -0.3179
 5524SOL     OW16971   3.235   1.492   4.578 -0.4081 -0.6194  0.0441
 5524SOL    HW116972   3.235   1.534   4.492  0.6024 -0.3503  0.1653
 5524SOL    HW216973   3.327   1.488   4.603 -0.6983 -0.4864  1.2104
 5525SOL     OW16974   3.551   2.916   2.373  0.2702  0.0477  0.0896
 5525SOL    HW116975   3.590   2.830   2.357  0.5868  0.0655  0.7178
 5525SOL    HW216976   3.625   2.977   2.370 -0.1486  0.5222 -1.8741
 5526SOL     OW16977   4.720   2.765   1.336  0.2972  0.4546  0.3920
 5526SOL    HW116978   4.722   2.719   1.252 -2.5419  0.2970  0.3368
 5526SOL    HW216979   4.801   2.738   1.380  0.4792 -1.6933 -1.1336
 5527SOL     OW16980   0.003   1.389   2.691  0.5407 -0.8563  0.2326
 5527SOL    HW116981  -0.089   1.414   2.701  0.8241  0.0899  0.5909
 5527SOL    HW216982   0.031   1.429   2.609  0.4724 -1.6598 -0.1889
 5528SOL     OW16983   4.891   5.163   6.712  0.4887  0.0043 -0.7435
 5528SOL    HW116984   4.814   5.166   6.768  1.2084 -1.4955  0.3882
 5528SOL    HW216985   4.965   5.178   6.771  1.2885 -1.9691 -1.1787
 5529SOL     OW16986   0.234   4.392   6.199 -0.0426 -0.2050 -0.2862
 5529SOL    HW116987   0.153   4.437   6.176  0.3042  0.0364 -1.0513
 5529SOL    HW216988   0.234   4.392   6.295 -0.0062  1.5062 -0.2534
 5530SOL     OW16989   5.127   0.791   4.280 -0.1503 -0.4540 -0.7953
 5530SOL    HW116990   5.087   0.734   4.346  2.5622  0.9962  2.3862
 5530SOL    HW216991   5.211   0.749   4.260  0.9194  1.2143 -0.0356
 5531SOL     OW16992   1.218   2.434   2.082  0.4059 -0.1712  0.9668
 5531SOL    HW116993   1.259   2.348   2.072  0.9183  0.2977 -1.9078
 5531SOL    HW216994   1.133   2.416   2.123  0.5482 -2.0403  0.5248
 5532SOL     OW16995   3.578   6.638   0.107 -0.0293 -0.4058 -0.1105
 5532SOL    HW116996   3.543   6.586   0.179  0.1231  0.5992  0.7249
 5532SOL    HW216997   3.501   6.682   0.070 -0.2586 -1.7199 -1.2665
 5533SOL     OW16998   3.332   3.084   5.354 -0.2097 -0.2294  0.4441
 5533SOL    HW116999   3.351   3.042   5.438  1.9469 -2.2114 -0.9205
 5533SOL    HW217000   3.416   3.122   5.327 -1.4776  2.7863  0.3550
 5534SOL     OW17001   2.526   3.782   5.809  0.0618 -0.5859 -0.6881
 5534SOL    HW117002   2.612   3.773   5.767  0.8186  0.0507  0.6404
 5534SOL    HW217003   2.463   3.759   5.741  1.2171  0.4387 -2.1717
 5535SOL     OW17004   3.529   4.013   3.979  0.4317 -0.4114 -0.0364
 5535SOL    HW117005   3.460   4.027   4.044  0.0075 -2.7668  0.1280
 5535SOL    HW217006   3.482   3.998   3.897  0.9177  1.1595 -0.6354
 5536SOL     OW17007   3.970   5.694   1.458  0.4066  0.0280  0.9809
 5536SOL    HW117008   3.915   5.616   1.448  0.7585  0.1155 -3.1786
 5536SOL    HW217009   3.908   5.766   1.467 -0.0891 -0.2909  0.2131
 5537SOL     OW17010   4.323   5.168   3.176  0.6607 -0.4118 -0.0914
 5537SOL    HW117011   4.300   5.087   3.221 -0.4706  0.3690  0.8114
 5537SOL    HW217012   4.273   5.165   3.094 -0.1887 -0.1881  0.4031
 5538SOL     OW17013   3.959   6.746   2.525 -0.6386 -0.0813  0.2875
 5538SOL    HW117014   4.019   6.812   2.490  1.1710 -1.4640  0.6556
 5538SOL    HW217015   3.939   6.690   2.451 -0.3521 -0.4195  0.4599
 5539SOL     OW17016   4.138   5.027   3.945 -0.1789 -0.5821 -0.6240
 5539SOL    HW117017   4.140   5.074   3.861  0.5280 -2.4011 -1.6893
 5539SOL    HW217018   4.161   5.093   4.010 -0.7328  0.8825 -1.8487
 5540SOL     OW17019   5.646   3.728   3.580  0.0642  0.1355  0.5621
 5540SOL    HW117020   5.584   3.778   3.633  0.6264 -0.1391  1.4884
 5540SOL    HW217021   5.635   3.637   3.609 -0.7275 -0.2743 -0.8867
 5541SOL     OW17022   4.579   0.736   0.299 -1.0219  0.5335 -0.4639
 5541SOL    HW117023   4.648   0.779   0.249 -0.2756 -0.8318 -0.6684
 5541SOL    HW217024   4.622   0.709   0.380 -1.5012  0.2994 -0.2875
 5542SOL     OW17025   6.571   5.611   6.080 -0.3485 -0.2321  0.0925
 5542SOL    HW117026   6.661   5.631   6.104 -0.8188  1.9662  0.2245
 5542SOL    HW217027   6.524   5.603   6.163 -0.6063  0.4130  0.0162
 5543SOL     OW17028   0.048   6.430   3.873 -0.4332  0.2327 -0.2353
 5543SOL    HW117029   0.019   6.509   3.828 -0.9581  0.0871 -0.1575
 5543SOL    HW217030  -0.024   6.407   3.931  0.6642  1.0335  1.5205
 5544SOL     OW17031   3.550   0.076   5.968  0.0396  0.0363  0.3938
 5544SOL    HW117032   3.484   0.143   5.985  0.2476  0.2828  0.2341
 5544SOL    HW217033   3.631   0.126   5.953 -0.2908 -0.1083 -2.2168
 5545SOL     OW17034   5.853   4.271   5.248 -0.0330 -0.1140  0.3306
 5545SOL    HW117035   5.920   4.255   5.181  0.2076 -0.0120  0.5447
 5545SOL    HW217036   5.876   4.211   5.319  0.7315  0.9736  1.0417
 5546SOL     OW17037   4.735   5.573   5.628 -0.2714 -0.4127 -0.4548
 5546SOL    HW117038   4.701   5.589   5.539 -1.1704  0.1759 -0.0268
 5546SOL    HW217039   4.787   5.650   5.648 -2.6601  1.0108  0.7023
 5547SOL     OW17040   1.702   6.021   3.422 -0.5913 -0.3320 -0.1139
 5547SOL    HW117041   1.735   5.941   3.381 -0.7794  0.5251 -2.0632
 5547SOL    HW217042   1.668   5.993   3.507  1.0329 -1.9864  0.0430
 5548SOL     OW17043   6.180   0.576   6.023  0.2656  0.0520 -0.0318
 5548SOL    HW117044   6.233   0.631   5.965  0.7692 -0.5329 -0.1281
 5548SOL    HW217045   6.174   0.627   6.104 -0.0775  0.6791 -0.4373
 5549SOL     OW17046   1.035   3.884   3.521 -0.1832  0.2348  0.6045
 5549SOL    HW117047   0.949   3.842   3.523 -0.1629  0.1564  0.0495
 5549SOL    HW217048   1.021   3.969   3.563 -0.8407  0.7566 -0.5966
 5550SOL     OW17049   3.240   5.098   0.686  0.0968  0.2251 -0.2909
 5550SOL    HW117050   3.244   5.045   0.606  0.8553 -0.6323  0.2934
 5550SOL    HW217051   3.152   5.136   0.685 -0.1975 -0.4437 -1.1022
 5551SOL     OW17052   5.055   4.666   6.661  0.7709  0.2706  0.0992
 5551SOL    HW117053   5.045   4.626   6.748 -0.9489 -1.0228 -0.6552
 5551SOL    HW217054   5.005   4.748   6.667  2.1084  1.0791  0.8232
 5552SOL     OW17055   1.228   6.698   6.347  0.0337  0.2967 -0.0058
 5552SOL    HW117056   1.278   6.779   6.357  0.8833 -0.0115 -1.4602
 5552SOL    HW217057   1.211   6.669   6.437 -0.8361  2.3924  0.5678
 5553SOL     OW17058   3.063   2.656   6.352 -0.6835  0.1625  0.1050
 5553SOL    HW117059   3.153   2.648   6.321 -0.7414  0.2280 -0.0835
 5553SOL    HW217060   3.064   2.732   6.410 -0.4313 -0.3557  0.7965
 5554SOL     OW17061   6.116   3.973   5.400  0.3804  0.0716 -0.0385
 5554SOL    HW117062   6.124   3.879   5.418  0.8055 -0.2253 -1.6066
 5554SOL    HW217063   6.025   3.994   5.418  0.3933 -0.5451  0.7646
 5555SOL     OW17064   5.430   6.482   1.980  0.2543  0.1398 -0.5511
 5555SOL    HW117065   5.458   6.392   1.963  2.9888  0.2807  2.3266
 5555SOL    HW217066   5.346   6.473   2.025  0.8523 -1.0744  0.3875
 5556SOL     OW17067   6.696   1.973   0.216 -0.4970  0.0655  0.4975
 5556SOL    HW117068   6.746   2.021   0.282 -0.4455  0.0402  0.4768
 5556SOL    HW217069   6.762   1.933   0.159 -0.4002 -3.0235  2.5594
 5557SOL     OW17070   1.676   4.187   2.193 -0.5468  0.0044  0.7342
 5557SOL    HW117071   1.649   4.105   2.234 -1.2129 -0.2516 -0.1894
 5557SOL    HW217072   1.601   4.245   2.204 -0.1227  0.4720  1.2798
 5558SOL     OW17073   0.851   2.157   0.154  0.2440  0.0883 -0.2011
 5558SOL    HW117074   0.795   2.179   0.229  1.0589  2.6791 -0.2614
 5558SOL    HW217075   0.795   2.173   0.077 -0.0568 -0.9278 -0.2082
 5559SOL     OW17076   2.669   5.036   5.335 -0.1249 -1.1185  0.1955
 5559SOL    HW117077   2.594   5.087   5.367 -0.3512 -1.2413 -0.1257
 5559SOL    HW217078   2.736   5.100   5.315 -0.4420 -0.9339 -0.2969
 5560SOL     OW17079   0.035   2.458   1.708  0.0708 -0.4450  0.2731
 5560SOL    HW117080   0.064   2.367   1.708  0.2802 -0.3995 -1.2898
 5560SOL    HW217081   0.111   2.508   1.679 -0.1443  0.2036  0.7929
 5561SOL     OW17082   2.917   2.694   4.952  0.2680  0.5329  0.4258
 5561SOL    HW117083   2.924   2.600   4.965  0.6416  0.3252 -1.0614
 5561SOL    HW217084   2.824   2.708   4.932  0.3282  0.3763  0.0195
 5562SOL     OW17085   2.129   6.650   2.742  0.4698  0.0374  0.2676
 5562SOL    HW117086   2.195   6.583   2.725 -1.3636 -2.1727  1.3294
 5562SOL    HW217087   2.075   6.613   2.812 -2.9638  0.9104 -1.7058
 5563SOL     OW17088   3.652   2.201   5.865  0.1175  0.0727 -0.3000
 5563SOL    HW117089   3.578   2.252   5.831 -0.6958 -1.3757 -0.8261
 5563SOL    HW217090   3.671   2.239   5.950 -0.8038  0.9060 -0.4503
 5564SOL     OW17091   4.717   3.584   2.979  0.0190 -0.1119  0.4912
 5564SOL    HW117092   4.806   3.570   3.011 -0.1402 -0.9324  0.6139
 5564SOL    HW217093   4.724   3.577   2.884  0.2999  1.1810  0.3976
 5565SOL     OW17094   6.269   3.758   3.322 -0.0693  0.2203 -0.6937
 5565SOL    HW117095   6.248   3.819   3.393 -2.6412  0.5645 -1.6537
 5565SOL    HW217096   6.259   3.810   3.243 -0.7080 -1.0265 -1.4598
 5566SOL     OW17097   0.562   5.740   3.968  0.5661  0.1468 -0.1993
 5566SOL    HW117098   0.624   5.791   3.916  0.4338 -1.1142 -1.6879
 5566SOL    HW217099   0.612   5.664   3.999  0.0172 -0.4194 -0.6656
 5567SOL     OW17100   2.388   5.904   4.590 -0.0332  0.3581 -0.0850
 5567SOL    HW117101   2.330   5.891   4.664  1.1449  0.8777  0.9845
 5567SOL    HW217102   2.333   5.944   4.522 -1.4658 -1.4686 -0.0592
 5568SOL     OW17103   2.738   3.762   5.644  0.5818  0.2490 -0.1267
 5568SOL    HW117104   2.792   3.698   5.691  1.2561  0.5981 -0.4112
 5568SOL    HW217105   2.801   3.818   5.598 -0.0654 -0.9375 -2.6055
 5569SOL     OW17106   1.564   3.746   2.010 -0.1772  0.9647 -0.0044
 5569SOL    HW117107   1.504   3.671   2.003 -1.1817  1.4450  2.4536
 5569SOL    HW217108   1.634   3.714   2.066  2.1758  0.3361 -3.0168
 5570SOL     OW17109   1.333   0.065   0.382 -0.3569  0.1029 -0.0351
 5570SOL    HW117110   1.261   0.002   0.394  0.1162 -0.4831 -0.2171
 5570SOL    HW217111   1.296   0.149   0.410 -1.3355 -0.0625 -0.7620
 5571SOL     OW17112   2.094   6.192   3.005  0.5231  0.0663 -0.6172
 5571SOL    HW117113   2.189   6.183   3.011  0.5083 -0.7762 -1.4287
 5571SOL    HW217114   2.077   6.282   3.032  1.5965  0.3686 -0.8854
 5572SOL     OW17115   5.013   2.769   0.806 -0.1432 -0.4271 -0.1319
 5572SOL    HW117116   4.978   2.855   0.829 -0.5752 -0.7321  0.3720
 5572SOL    HW217117   4.952   2.736   0.739  1.5831  0.8187 -2.4474
 5573SOL     OW17118   4.025   2.999   3.263  0.3465  0.1378 -0.0840
 5573SOL    HW117119   3.957   2.932   3.265  0.2091  0.1312 -2.3248
 5573SOL    HW217120   4.108   2.951   3.259  0.3376  0.1074  0.1392
 5574SOL     OW17121   6.666   2.868   2.923  0.1756  0.0177  0.9533
 5574SOL    HW117122   6.690   2.961   2.917  0.0760  0.0063  0.3452
 5574SOL    HW217123   6.604   2.865   2.996 -0.1532  0.5016  0.7041
 5575SOL     OW17124   4.871   2.364   4.877 -0.4760 -0.2583 -0.0553
 5575SOL    HW117125   4.800   2.325   4.825 -0.9718  0.2450  0.2253
 5575SOL    HW217126   4.936   2.392   4.812 -0.5052 -0.7829 -0.3132
 5576SOL     OW17127   2.694   6.779   0.938 -0.3872  0.2916  0.6955
 5576SOL    HW117128   2.661   6.865   0.912 -1.5689 -0.6058 -1.0272
 5576SOL    HW217129   2.628   6.746   1.000 -1.1712 -0.2682 -0.4063
 5577SOL     OW17130   0.821   5.008   0.413 -0.1713 -0.0794 -0.0055
 5577SOL    HW117131   0.841   4.943   0.346 -0.2377  0.6311 -0.7337
 5577SOL    HW217132   0.846   5.092   0.374 -0.3670  0.3691  0.7944
 5578SOL     OW17133   2.789   6.392   0.595  0.0468 -0.5992  0.2672
 5578SOL    HW117134   2.761   6.312   0.640 -1.4536 -1.1485 -1.5286
 5578SOL    HW217135   2.740   6.462   0.639 -0.9746 -1.0563 -0.1093
 5579SOL     OW17136   6.262   3.294   1.428  0.1843  0.2648  0.3603
 5579SOL    HW117137   6.337   3.298   1.487  2.8323  2.2171 -2.7832
 5579SOL    HW217138   6.188   3.324   1.480  2.7272  4.0098  2.2322
 5580SOL     OW17139   6.148   3.251   5.679  0.0920  0.0343 -0.6949
 5580SOL    HW117140   6.241   3.248   5.701  0.6217  1.6102 -2.4702
 5580SOL    HW217141   6.143   3.216   5.590 -0.9964  0.0289 -0.6413
 5581SOL     OW17142   1.668   3.642   6.356  0.1433 -0.2284 -0.4825
 5581SOL    HW117143   1.611   3.718   6.359 -1.2848 -1.2282 -0.9630
 5581SOL    HW217144   1.660   3.609   6.266  1.6803 -0.2726 -0.6321
 5582SOL     OW17145   0.472   1.413   6.262  0.3108  0.1340  0.4953
 5582SOL    HW117146   0.527   1.451   6.194 -0.2226  0.1275  0.0556
 5582SOL    HW217147   0.487   1.319   6.256  1.9569  0.2555  1.8615
 5583SOL     OW17148   3.102   6.683   5.125 -0.5605  0.6088  0.2544
 5583SOL    HW117149   3.031   6.623   5.151 -0.0396  0.5836  1.7088
 5583SOL    HW217150   3.119   6.734   5.204 -0.3198  2.0093 -0.6862
 5584SOL     OW17151   1.127   0.769   3.357 -0.1727 -0.1765 -0.0471
 5584SOL    HW117152   1.116   0.856   3.317  1.0063  0.0998  0.1725
 5584SOL    HW217153   1.180   0.786   3.435  0.1053 -1.0992 -0.0278
 5585SOL     OW17154   1.635   4.339   4.752 -0.5419 -0.3581 -0.3663
 5585SOL    HW117155   1.663   4.426   4.724 -0.5838 -0.1594  0.1977
 5585SOL    HW217156   1.585   4.354   4.831  2.1019 -1.1204  1.5988
 5586SOL     OW17157   4.618   4.271   4.941  0.6605 -0.0741 -0.0138
 5586SOL    HW117158   4.555   4.227   4.999 -0.0905  2.2104  1.0026
 5586SOL    HW217159   4.691   4.208   4.934 -0.3912 -1.5224  1.2564
 5587SOL     OW17160   5.432   2.686   2.268 -0.3721 -0.3179  0.6577
 5587SOL    HW117161   5.408   2.768   2.311 -0.7270 -1.2698  2.3608
 5587SOL    HW217162   5.521   2.702   2.235  0.6939 -0.1075  3.4092
 5588SOL     OW17163   0.491   1.904   1.373  0.3772  0.3432 -0.4925
 5588SOL    HW117164   0.430   1.973   1.402 -1.6131 -2.3692  2.4664
 5588SOL    HW217165   0.528   1.938   1.292 -1.1127  4.4816  0.2920
 5589SOL     OW17166   2.947   6.764   0.014  0.0854  0.9100  0.1008
 5589SOL    HW117167   2.932   6.848   0.057 -0.4278  0.9364 -0.1348
 5589SOL    HW217168   2.950   6.784  -0.079 -1.9200  0.4226 -0.1183
 5590SOL     OW17169   1.089   2.168   2.218  0.0301  0.2510 -0.3268
 5590SOL    HW117170   1.163   2.147   2.161  1.0315 -0.3926  1.1447
 5590SOL    HW217171   1.041   2.086   2.227  0.3465  0.1345  0.3885
 5591SOL     OW17172   1.876   3.475   1.552 -0.1081  0.4511 -0.0530
 5591SOL    HW117173   1.926   3.555   1.566 -2.7530  1.9382  1.8427
 5591SOL    HW217174   1.805   3.500   1.494 -1.0703 -0.4462  0.6840
 5592SOL     OW17175   2.508   1.217   5.872  0.2719 -0.1574  0.4793
 5592SOL    HW117176   2.446   1.271   5.823  0.9467 -0.6676 -0.9934
 5592SOL    HW217177   2.539   1.274   5.942 -0.4198  0.7470  0.0799
 5593SOL     OW17178   3.298   2.842   0.065 -0.8552  0.0600  0.3794
 5593SOL    HW117179   3.327   2.772   0.006  1.7721 -0.2078  1.8235
 5593SOL    HW217180   3.239   2.896   0.012  2.5750  0.8109 -3.1022
 5594SOL     OW17181   3.072   3.259   5.833 -0.6763 -0.4493  1.0696
 5594SOL    HW117182   3.058   3.252   5.927  1.0613 -0.7404  1.3260
 5594SOL    HW217183   3.090   3.170   5.804 -1.8721 -0.4707  0.3215
 5595SOL     OW17184   1.961   0.309   3.625 -0.2072  0.5619  0.0527
 5595SOL    HW117185   1.945   0.232   3.572 -2.8272  0.9029  0.2144
 5595SOL    HW217186   1.874   0.339   3.651  0.7624  3.0229  0.7848
 5596SOL     OW17187   6.268   0.978   1.511  0.1539  0.5114 -0.0060
 5596SOL    HW117188   6.205   1.017   1.451  0.0376  1.9747  1.0262
 5596SOL    HW217189   6.215   0.922   1.568  0.1257 -0.0735 -0.5960
 5597SOL     OW17190   4.536   4.179   5.549  0.9078  0.8242  0.5024
 5597SOL    HW117191   4.487   4.253   5.585  1.9246  1.9983 -0.4434
 5597SOL    HW217192   4.487   4.153   5.471  0.3443  0.2243  1.0404
 5598SOL     OW17193   6.086   1.102   0.183 -0.0736 -0.2181 -0.5935
 5598SOL    HW117194   6.175   1.068   0.176 -0.1582 -0.3303 -1.1519
 5598SOL    HW217195   6.051   1.098   0.094  0.5275  3.0867 -1.1101
 5599SOL     OW17196   2.655   3.491   5.085 -0.6381  1.3245 -0.1755
 5599SOL    HW117197   2.586   3.424   5.091 -1.6840  2.4239  0.6438
 5599SOL    HW217198   2.709   3.477   5.163 -1.2968  1.8805  0.3918
 5600SOL     OW17199   5.874   3.313   4.688  0.4879  0.2204  0.3993
 5600SOL    HW117200   5.929   3.379   4.647  1.5911 -0.9565 -0.0971
 5600SOL    HW217201   5.862   3.343   4.778  0.0931  1.5932 -0.0846
 5601SOL     OW17202   5.060   5.638   5.526  0.0647 -0.3085 -0.0954
 5601SOL    HW117203   5.119   5.676   5.591  1.7183 -0.4192 -1.4655
 5601SOL    HW217204   5.018   5.565   5.571 -0.0911  0.6201  1.3251
 5602SOL     OW17205   0.562   1.909   2.282 -1.2276 -0.7750 -0.1577
 5602SOL    HW117206   0.541   1.865   2.365 -0.9359 -1.0673 -0.2392
 5602SOL    HW217207   0.495   1.977   2.274  0.2462  1.0399  1.6509
 5603SOL     OW17208   6.449   5.429   0.690 -0.0364 -0.2690  0.3558
 5603SOL    HW117209   6.452   5.363   0.621 -1.3882  0.6252 -0.6185
 5603SOL    HW217210   6.539   5.464   0.693  0.2753 -0.9793 -0.2842
 5604SOL     OW17211   4.483   2.651   0.940  0.5717 -0.4081  0.4745
 5604SOL    HW117212   4.440   2.651   0.855  0.8376  0.6292  0.3153
 5604SOL    HW217213   4.575   2.631   0.921  0.6279 -0.1930  0.5168
 5605SOL     OW17214   4.179   4.911   1.480 -0.2189 -0.3629 -0.4827
 5605SOL    HW117215   4.158   5.004   1.468  1.3993  0.1322  0.1622
 5605SOL    HW217216   4.174   4.874   1.392 -0.3922  0.4455 -0.8266
 5606SOL     OW17217   1.964   0.712   4.037  0.6044 -0.1582 -0.7018
 5606SOL    HW117218   2.001   0.783   3.984 -1.2257  0.9383 -0.6038
 5606SOL    HW217219   1.889   0.682   3.986 -0.5143  0.1538  0.7043
 5607SOL     OW17220   5.337   0.652   1.550  0.5354 -0.3761  0.4786
 5607SOL    HW117221   5.375   0.564   1.553  0.2373 -0.8528 -3.7723
 5607SOL    HW217222   5.245   0.637   1.526 -0.2267  1.0755  2.3092
 5608SOL     OW17223   5.629   2.549   2.461 -0.0160  0.3716 -0.4092
 5608SOL    HW117224   5.566   2.609   2.500 -0.8405 -1.2932  0.9461
 5608SOL    HW217225   5.579   2.501   2.395  0.2680  0.2244 -0.5219
 5609SOL     OW17226   6.088   0.098   6.372  0.3003  0.2037  0.0346
 5609SOL    HW117227   6.072   0.077   6.464 -1.5696  1.4188  0.0417
 5609SOL    HW217228   6.178   0.130   6.370  0.5559 -0.3584  1.3418
 5610SOL     OW17229   4.860   2.659   0.562  0.2895  0.1876  0.4693
 5610SOL    HW117230   4.805   2.728   0.525 -0.7780 -0.7352  0.2527
 5610SOL    HW217231   4.889   2.608   0.486  2.2153  1.1609  0.4956
 5611SOL     OW17232   1.270   1.020   4.337 -0.1783  0.2085 -0.0736
 5611SOL    HW117233   1.210   1.089   4.366 -1.9306 -1.3617  0.2332
 5611SOL    HW217234   1.212   0.947   4.313  1.5531 -0.7869 -1.4223
 5612SOL     OW17235   6.311   1.990   5.396 -0.1711  0.4664 -0.5284
 5612SOL    HW117236   6.326   2.075   5.355 -1.0496  0.8542 -0.0678
 5612SOL    HW217237   6.275   1.936   5.326  0.4589  0.4413 -0.8416
 5613SOL     OW17238   0.768   3.833   3.490 -0.5589 -0.0513  0.1952
 5613SOL    HW117239   0.724   3.834   3.574 -0.0731  0.0849  0.4509
 5613SOL    HW217240   0.721   3.766   3.439  0.0377 -1.1643  1.0563
 5614SOL     OW17241   3.344   6.411   1.511  0.6344  0.3131 -0.0923
 5614SOL    HW117242   3.307   6.417   1.423  2.8486 -0.2101 -1.1241
 5614SOL    HW217243   3.376   6.321   1.517  0.3442  0.2922  1.3451
 5615SOL     OW17244   6.623   0.809   4.614  0.0080 -0.5683  0.0766
 5615SOL    HW117245   6.602   0.881   4.672  0.6732  0.3321 -0.7619
 5615SOL    HW217246   6.719   0.811   4.606 -0.0853 -0.4817 -1.2532
 5616SOL     OW17247   1.558   3.168   0.858  0.0281  0.8263 -0.5428
 5616SOL    HW117248   1.563   3.171   0.953  0.2284 -1.1855 -0.4457
 5616SOL    HW217249   1.639   3.210   0.829  0.0613  1.2759  0.1711
 5617SOL     OW17250   5.068   3.746   3.754 -0.2376 -0.0849 -0.4786
 5617SOL    HW117251   5.101   3.665   3.792 -1.5350 -0.9190 -1.0920
 5617SOL    HW217252   5.139   3.775   3.695  0.3730 -0.5637  0.0063
 5618SOL     OW17253   1.351   1.329   5.942 -0.1354 -0.3723 -0.1703
 5618SOL    HW117254   1.419   1.396   5.948 -0.3486 -0.2556  1.2754
 5618SOL    HW217255   1.272   1.372   5.972 -1.1045 -0.2417 -2.7026
 5619SOL     OW17256   5.936   1.322   5.624  0.6396  0.1604  0.3279
 5619SOL    HW117257   5.990   1.286   5.554  2.1235  0.3973  1.3140
 5619SOL    HW217258   5.861   1.361   5.579  0.4150 -1.6128 -0.9691
 5620SOL     OW17259   2.315   2.940   3.199  0.6168  0.2747 -0.3716
 5620SOL    HW117260   2.315   3.002   3.271  0.7001  0.3303 -0.4193
 5620SOL    HW217261   2.235   2.889   3.210  1.4180 -0.8149  0.7194
 5621SOL     OW17262   1.609   4.542   2.333  0.0391  0.0643 -0.0203
 5621SOL    HW117263   1.666   4.573   2.262 -0.8988  1.9757  0.0043
 5621SOL    HW217264   1.599   4.617   2.391 -0.6140 -0.9506  1.2443
 5622SOL     OW17265   1.521   3.295   0.421 -0.1260 -0.3441  0.4095
 5622SOL    HW117266   1.467   3.293   0.500 -2.0038  3.3031 -0.5578
 5622SOL    HW217267   1.488   3.223   0.367 -0.2897 -1.5141  1.9966
 5623SOL     OW17268   6.436   5.125   5.574  0.3753 -0.5398 -0.4014
 5623SOL    HW117269   6.407   5.192   5.636  1.5592 -0.9042  0.5825
 5623SOL    HW217270   6.529   5.113   5.594  0.5875 -1.2589 -1.7109
 5624SOL     OW17271   4.893   2.878   4.411 -0.9797 -0.0071  0.1334
 5624SOL    HW117272   4.942   2.931   4.474  0.8159 -0.5397 -0.7454
 5624SOL    HW217273   4.848   2.812   4.464 -2.2660  1.5945  1.1293
 5625SOL     OW17274   4.108   4.347   4.615  0.3655  0.0953 -0.2111
 5625SOL    HW117275   4.147   4.262   4.594 -0.1362 -0.1523 -0.1588
 5625SOL    HW217276   4.023   4.346   4.570 -0.0290  0.2020  0.5106
 5626SOL     OW17277   0.023   0.981   3.312  0.6489  0.3992 -0.5032
 5626SOL    HW117278  -0.030   1.005   3.235  2.4615  0.5589 -1.7507
 5626SOL    HW217279  -0.041   0.947   3.375 -0.7707 -0.8619 -2.5132
 5627SOL     OW17280   3.962   4.142   2.985 -0.4207 -0.0684 -0.1460
 5627SOL    HW117281   3.966   4.236   3.006  0.2618 -0.2457  0.5937
 5627SOL    HW217282   4.043   4.106   3.023 -0.9179 -1.0415  0.0095
 5628SOL     OW17283   3.909   2.218   1.062 -0.6043  0.3541  0.3398
 5628SOL    HW117284   3.833   2.161   1.059 -0.7719  0.6065 -1.0481
 5628SOL    HW217285   3.984   2.159   1.066 -0.8526  0.0993  1.3923
 5629SOL     OW17286   1.995   3.948   2.270 -0.0742  0.5193  0.3795
 5629SOL    HW117287   2.003   4.025   2.326  1.2919 -0.2938  1.3713
 5629SOL    HW217288   1.954   3.882   2.327  2.9026 -0.8645  1.0922
 5630SOL     OW17289   6.778   0.327   0.833  0.1191  0.0847 -0.2463
 5630SOL    HW117290   6.696   0.284   0.806 -1.2733  2.3058  0.1922
 5630SOL    HW217291   6.833   0.325   0.755 -0.3215 -1.4519 -0.5491
 5631SOL     OW17292   1.964   4.852   6.337  0.5896  0.1937  0.0758
 5631SOL    HW117293   1.970   4.862   6.242  1.2139  1.6935  0.2557
 5631SOL    HW217294   1.870   4.843   6.354  0.3219  1.5542 -0.5542
 5632SOL     OW17295   4.379   5.766   5.278  0.7743 -0.4075  0.1662
 5632SOL    HW117296   4.460   5.735   5.318  1.1017  0.4235  0.1579
 5632SOL    HW217297   4.366   5.709   5.202  0.6496 -1.3837  0.8926
 5633SOL     OW17298   0.402   2.037   4.890  0.1897 -0.1061  0.5698
 5633SOL    HW117299   0.400   2.069   4.980 -1.7126  2.2244 -0.2037
 5633SOL    HW217300   0.311   2.038   4.862  0.6156 -1.7215 -1.1345
 5634SOL     OW17301   0.822   1.498   2.793 -0.5832 -0.0447 -0.3953
 5634SOL    HW117302   0.772   1.495   2.712 -0.2088  0.2129 -0.6391
 5634SOL    HW217303   0.825   1.590   2.816 -0.2671 -0.0626 -0.3558
 5635SOL     OW17304   5.214   5.986   6.442 -0.3756 -0.4292 -0.0124
 5635SOL    HW117305   5.163   5.992   6.522  0.0063  2.7478  0.0953
 5635SOL    HW217306   5.295   6.033   6.462  1.6346 -3.2390 -0.9559
 5636SOL     OW17307   2.219   1.304   3.171 -0.2690 -0.5105  0.1461
 5636SOL    HW117308   2.214   1.228   3.229 -1.4374 -0.5115  0.0677
 5636SOL    HW217309   2.261   1.372   3.225  1.6752 -1.4609 -0.0928
 5637SOL     OW17310   6.038   4.582   0.555 -0.5173  0.1735 -0.1119
 5637SOL    HW117311   6.081   4.597   0.639 -1.1132 -0.1293  0.2545
 5637SOL    HW217312   5.973   4.513   0.573 -2.7258  2.1245 -0.0978
 5638SOL     OW17313   2.531   4.642   2.420 -0.0975 -0.1566  0.0770
 5638SOL    HW117314   2.488   4.581   2.480  0.1078  1.0475  1.4951
 5638SOL    HW217315   2.601   4.682   2.471 -0.3476  1.4202 -0.7377
 5639SOL     OW17316   0.313   6.003   0.349  0.1368  0.3612  0.1111
 5639SOL    HW117317   0.350   5.934   0.294 -0.6425  0.6446 -0.7944
 5639SOL    HW217318   0.238   6.035   0.300 -0.3638  0.8818  1.1778
 5640SOL     OW17319   4.063   6.101   4.785 -0.3729 -0.0181  0.1868
 5640SOL    HW117320   4.140   6.144   4.748 -1.8609  0.7160 -2.3561
 5640SOL    HW217321   4.021   6.168   4.839 -0.4690  0.3933 -0.3851
 5641SOL     OW17322   0.399   2.525   1.858 -0.1131  0.3090 -0.4050
 5641SOL    HW117323   0.416   2.615   1.886  0.9838  0.0799 -0.3104
 5641SOL    HW217324   0.309   2.527   1.824 -0.2749  1.3242  0.0454
 5642SOL     OW17325   5.225   3.565   1.832 -0.0819  0.2400 -0.7688
 5642SOL    HW117326   5.218   3.648   1.879 -0.4736  0.4937 -1.2615
 5642SOL    HW217327   5.204   3.498   1.897  1.0395  0.4660 -0.1633
 5643SOL     OW17328   0.143   4.021   2.129  0.1354  0.2664 -0.3812
 5643SOL    HW117329   0.201   4.012   2.204 -0.4463  1.4667  0.2388
 5643SOL    HW217330   0.057   3.996   2.163 -0.2738  1.5591 -0.4177
 5644SOL     OW17331   0.619   2.071   5.291  0.6065  0.0927 -0.4770
 5644SOL    HW117332   0.541   2.042   5.338  1.6595  0.5543  1.6575
 5644SOL    HW217333   0.661   1.989   5.263 -0.0134 -0.1884 -0.6150
 5645SOL     OW17334   2.613   6.049   5.702 -0.0258  0.2379  0.2174
 5645SOL    HW117335   2.580   6.003   5.625 -0.0498  0.7188 -0.0686
 5645SOL    HW217336   2.557   6.127   5.708  0.5239  0.6340  0.2210
 5646SOL     OW17337   5.150   2.663   5.416 -0.3195  0.2844  0.2613
 5646SOL    HW117338   5.113   2.592   5.364 -1.8078 -0.9532  2.8289
 5646SOL    HW217339   5.084   2.733   5.410 -1.2163 -0.4098  1.5863
 5647SOL     OW17340   0.547   0.780   3.184  0.2194  0.4220 -0.3188
 5647SOL    HW117341   0.580   0.690   3.179 -0.0044  0.2627  0.7760
 5647SOL    HW217342   0.457   0.774   3.153  0.2392  0.2811 -0.3501
 5648SOL     OW17343   6.363   6.221   5.877 -0.1282 -0.3744 -0.1371
 5648SOL    HW117344   6.339   6.130   5.857  3.5837 -1.5572 -0.0298
 5648SOL    HW217345   6.349   6.229   5.971  0.0086 -1.0537 -0.0489
 5649SOL     OW17346   5.421   0.705   2.348  0.2247  0.2846  0.3848
 5649SOL    HW117347   5.422   0.722   2.254 -1.9823  1.7598  0.5671
 5649SOL    HW217348   5.504   0.741   2.380  1.0609 -0.3424 -0.9682
 5650SOL     OW17349   3.299   0.661   5.824  0.7158  0.0433  0.5259
 5650SOL    HW117350   3.272   0.608   5.749  3.3639  0.3026 -0.7236
 5650SOL    HW217351   3.299   0.751   5.791 -1.8917  0.7255  2.0774
 5651SOL     OW17352   1.027   2.853   3.857 -0.3559  0.5035  0.4090
 5651SOL    HW117353   0.976   2.788   3.809  0.2707  0.0956  0.2796
 5651SOL    HW217354   1.012   2.935   3.809  3.8286 -0.5949 -3.5210
 5652SOL     OW17355   6.229   4.571   1.116 -0.3643 -0.7430  0.0723
 5652SOL    HW117356   6.228   4.666   1.106 -1.8716 -0.4988  2.0029
 5652SOL    HW217357   6.145   4.541   1.080 -0.9375 -1.0384  1.5794
 5653SOL     OW17358   2.169   2.926   2.735 -0.2107 -0.1835 -0.2500
 5653SOL    HW117359   2.141   2.990   2.670 -0.4851  0.8779  0.8793
 5653SOL    HW217360   2.089   2.880   2.759 -0.3379  0.2867  0.2430
 5654SOL     OW17361   5.969   5.953   5.496  0.4491  0.3100  0.0066
 5654SOL    HW117362   6.037   5.969   5.562  0.5238 -1.2968  0.3535
 5654SOL    HW217363   5.891   5.996   5.532  1.2392  2.2006 -0.4061
 5655SOL     OW17364   4.446   5.917   1.146 -0.2186  0.2632  0.2119
 5655SOL    HW117365   4.416   5.890   1.059  0.4258 -1.0733  0.3854
 5655SOL    HW217366   4.403   5.857   1.206  1.3484 -0.5250  0.5937
 5656SOL     OW17367   4.380   2.384   0.305  0.2184  0.0469 -0.2907
 5656SOL    HW117368   4.475   2.380   0.304  0.2476  0.6429 -0.6116
 5656SOL    HW217369   4.357   2.415   0.393  0.1696 -2.7734  0.7797
 5657SOL     OW17370   1.772   6.151   1.186  0.3035 -0.2413  0.4407
 5657SOL    HW117371   1.851   6.165   1.239 -0.1543  0.2177  1.0156
 5657SOL    HW217372   1.767   6.228   1.130 -0.5147  0.4382  1.4191
 5658SOL     OW17373   0.522   4.058   4.292  0.4591 -0.0579 -0.0075
 5658SOL    HW117374   0.522   4.109   4.211 -0.6796  0.5792  0.3873
 5658SOL    HW217375   0.615   4.055   4.318  0.4273  3.4443  0.9603
 5659SOL     OW17376   6.016   2.890   6.225  0.3876  0.8206 -0.2030
 5659SOL    HW117377   5.947   2.938   6.179 -1.6635 -3.0808 -1.7148
 5659SOL    HW217378   6.090   2.890   6.164 -0.0991  0.8651 -0.8055
 5660SOL     OW17379   3.588   0.464   3.761  0.3227  0.0099 -0.3006
 5660SOL    HW117380   3.512   0.510   3.724 -1.1194 -1.8446  0.1960
 5660SOL    HW217381   3.595   0.497   3.851  0.1498  0.2344 -0.3689
 5661SOL     OW17382   0.200   3.425   4.203  0.0500 -0.0001  0.1311
 5661SOL    HW117383   0.294   3.431   4.224 -0.0554 -1.4230  1.1262
 5661SOL    HW217384   0.198   3.422   4.107  1.0890 -0.6415  0.1063
 5662SOL     OW17385   2.252   4.311   2.391 -0.8451  0.2818  0.0827
 5662SOL    HW117386   2.185   4.247   2.415 -1.8302  0.0066 -3.0586
 5662SOL    HW217387   2.319   4.261   2.345  0.7090  0.8600  1.5751
 5663SOL     OW17388   0.899   0.250   2.800  0.1924 -0.2195  0.1199
 5663SOL    HW117389   0.967   0.213   2.743 -0.5491 -0.8586 -0.3799
 5663SOL    HW217390   0.817   0.225   2.758 -0.3534  0.8241  0.5369
 5664SOL     OW17391   5.994   3.983   1.603 -0.7317 -0.5533  0.1779
 5664SOL    HW117392   6.052   3.910   1.581 -1.4093  0.0431 -4.7393
 5664SOL    HW217393   5.906   3.952   1.582 -1.7433  0.1819  2.8280
 5665SOL     OW17394   0.066   1.432   6.330 -0.5299  0.0606 -0.4759
 5665SOL    HW117395   0.063   1.341   6.299  0.5488 -0.0890 -0.1787
 5665SOL    HW217396   0.015   1.481   6.265 -1.9224 -0.8837 -0.1290
 5666SOL     OW17397   0.891   1.847   6.010  0.0158  0.1506  0.4773
 5666SOL    HW117398   0.865   1.758   5.989 -0.5295  0.5850 -0.8159
 5666SOL    HW217399   0.971   1.861   5.959 -0.5442  0.7637 -0.2626
 5667SOL     OW17400   5.851   2.775   1.536 -0.8002 -0.0216 -0.4741
 5667SOL    HW117401   5.767   2.820   1.540 -0.9093 -0.1923 -0.8532
 5667SOL    HW217402   5.836   2.698   1.481 -0.1034  0.5849 -1.5491
 5668SOL     OW17403   4.842   4.070   4.877 -0.0313 -1.1080  0.0484
 5668SOL    HW117404   4.900   4.143   4.857 -0.7440 -0.8540 -1.1724
 5668SOL    HW217405   4.893   4.014   4.936  0.5090  0.3695  1.0448
 5669SOL     OW17406   0.679   6.034   1.599 -0.4247 -0.2436 -0.3000
 5669SOL    HW117407   0.715   6.122   1.614 -2.7177  0.6984  0.0036
 5669SOL    HW217408   0.610   6.025   1.664 -1.1873 -1.7116 -1.2802
 5670SOL     OW17409   4.013   4.862   5.666  0.6918 -0.3321  0.5685
 5670SOL    HW117410   3.989   4.954   5.677  4.2528  1.1135 -1.8888
 5670SOL    HW217411   4.058   4.839   5.748  2.5955  1.2543  0.0468
 5671SOL     OW17412   1.104   2.688   5.582 -0.1696 -0.3420 -0.5534
 5671SOL    HW117413   1.050   2.680   5.503 -0.5768 -0.1688 -0.2920
 5671SOL    HW217414   1.061   2.755   5.634  0.5697  0.1377 -0.5548
 5672SOL     OW17415   2.681   6.188   0.807  0.0154 -0.4400 -0.4064
 5672SOL    HW117416   2.603   6.178   0.861  0.0206 -0.8065 -0.4684
 5672SOL    HW217417   2.729   6.260   0.847 -0.6776  0.2288 -0.7484
 5673SOL     OW17418   2.624   2.271   1.739  0.3573 -0.3199 -0.3158
 5673SOL    HW117419   2.596   2.258   1.830 -0.5704 -1.1843 -0.7044
 5673SOL    HW217420   2.719   2.274   1.743  0.3051  0.1579  0.7484
 5674SOL     OW17421   5.969   0.263   0.433 -0.3117 -0.1338 -0.6492
 5674SOL    HW117422   5.889   0.224   0.397 -0.3006 -1.2954  0.5230
 5674SOL    HW217423   5.952   0.358   0.432 -0.8837 -0.2149 -2.2795
 5675SOL     OW17424   5.100   6.408   4.676 -0.9771 -0.3564 -0.5252
 5675SOL    HW117425   5.095   6.494   4.635  1.9434 -0.5538 -1.5240
 5675SOL    HW217426   5.014   6.395   4.716 -0.3690  4.8781  3.4949
 5676SOL     OW17427   1.065   3.525   3.841 -0.1873 -0.5615  0.2253
 5676SOL    HW117428   1.049   3.469   3.917 -1.2301 -1.1246 -0.3767
 5676SOL    HW217429   1.023   3.608   3.863 -0.7983 -0.8394  0.1427
 5677SOL     OW17430   0.738   2.819   2.422 -0.4238 -0.2075 -0.4155
 5677SOL    HW117431   0.793   2.746   2.451  0.9048  0.3766 -1.3436
 5677SOL    HW217432   0.650   2.796   2.451  0.3415 -1.0047  1.4630
 5678SOL     OW17433   0.188   1.233   2.363 -0.6252 -0.3883 -0.5266
 5678SOL    HW117434   0.240   1.200   2.290 -0.2213  1.2153 -1.0158
 5678SOL    HW217435   0.218   1.323   2.375 -1.0153 -0.4542  1.3202
 5679SOL     OW17436   1.896   2.040   6.222 -0.3237  0.5665  0.0171
 5679SOL    HW117437   1.833   2.087   6.276  0.0291  0.2928  0.6768
 5679SOL    HW217438   1.848   1.965   6.188 -0.0686 -0.2746  1.4337
 5680SOL     OW17439   6.705   5.492   2.925  0.1690  0.7621  0.2697
 5680SOL    HW117440   6.613   5.464   2.928  0.6151 -0.9371 -0.5586
 5680SOL    HW217441   6.723   5.502   2.831  0.8868  0.9330  0.4210
 5681SOL     OW17442   5.295   1.924   2.211  0.0823  0.2463 -0.0666
 5681SOL    HW117443   5.368   1.895   2.156  1.2226  0.2725  1.3616
 5681SOL    HW217444   5.331   1.996   2.263 -1.5446  1.5658 -0.6675
 5682SOL     OW17445   4.454   2.579   6.317 -0.3770 -0.0397 -0.0377
 5682SOL    HW117446   4.369   2.549   6.349 -0.1788 -1.6089 -0.8566
 5682SOL    HW217447   4.444   2.584   6.222  1.1019 -2.7653 -0.4376
 5683SOL     OW17448   0.108   6.398   3.405  0.2875 -0.3792 -0.0444
 5683SOL    HW117449   0.203   6.408   3.414  0.1570 -0.2003  1.4235
 5683SOL    HW217450   0.073   6.487   3.404  0.2377 -0.3699 -2.4811
 5684SOL     OW17451   4.533   1.978   3.635  0.4665 -0.3340 -0.0621
 5684SOL    HW117452   4.496   2.035   3.568 -1.2553  0.0799  1.1756
 5684SOL    HW217453   4.524   1.890   3.599  1.4820  0.0101 -1.2236
 5685SOL     OW17454   6.760   3.128   2.932 -0.0443 -0.0089  0.3608
 5685SOL    HW117455   6.729   3.189   2.999 -0.2902  0.1998  0.0613
 5685SOL    HW217456   6.855   3.137   2.932  0.0763 -0.9399  1.5697
 5686SOL     OW17457   6.535   2.853   1.973 -0.3644 -0.1159 -0.3760
 5686SOL    HW117458   6.629   2.840   1.961 -0.0228  1.3616  0.3303
 5686SOL    HW217459   6.496   2.766   1.966  1.1315 -0.8268 -0.1229
 5687SOL     OW17460   0.944   3.490   4.784  0.0971  0.5743  0.1514
 5687SOL    HW117461   0.954   3.525   4.696 -3.0976  0.8481 -0.2300
 5687SOL    HW217462   0.878   3.546   4.825 -1.5481 -1.9661  1.2398
 5688SOL     OW17463   0.271   4.888   4.754 -0.7610  0.0320  0.0423
 5688SOL    HW117464   0.221   4.821   4.707 -1.4149  0.1648  0.5473
 5688SOL    HW217465   0.217   4.966   4.750 -0.7824  0.0700  0.9408
 5689SOL     OW17466   4.688   4.106   2.005 -0.0227 -0.5369 -0.6405
 5689SOL    HW117467   4.774   4.070   2.026  0.5813  1.0506 -0.2393
 5689SOL    HW217468   4.694   4.198   2.031 -1.3652 -0.0454 -1.9505
 5690SOL     OW17469   4.464   4.119   0.080  0.0879  0.1006 -0.0087
 5690SOL    HW117470   4.418   4.036   0.092  2.2392 -1.1714  0.0109
 5690SOL    HW217471   4.431   4.153  -0.003  0.5160 -1.7432 -0.9780
 5691SOL     OW17472   3.210   0.808   1.038  0.0065  0.0255  0.5119
 5691SOL    HW117473   3.234   0.883   0.983  0.7811 -0.0322  0.7680
 5691SOL    HW217474   3.293   0.778   1.076 -0.7324  1.5428  3.6541
 5692SOL     OW17475   4.954   0.377   3.955 -0.1357  0.4341 -0.5800
 5692SOL    HW117476   4.898   0.402   4.028 -0.0262  1.8210 -0.9272
 5692SOL    HW217477   4.896   0.329   3.896 -0.4444  0.0904 -0.0050
 5693SOL     OW17478   0.044   6.260   6.542  0.1338  0.3626 -0.0289
 5693SOL    HW117479   0.098   6.250   6.621 -0.9486 -1.4195  0.5533
 5693SOL    HW217480  -0.022   6.324   6.566  0.1439  0.2453  0.3170
 5694SOL     OW17481   5.935   2.748   3.599 -0.1017 -0.1642  0.2539
 5694SOL    HW117482   5.947   2.805   3.523 -0.2247 -0.4770 -0.0025
 5694SOL    HW217483   5.993   2.784   3.666 -3.3448  3.0763  1.7002
 5695SOL     OW17484   0.578   6.462   1.021 -0.1784 -0.1382 -0.5142
 5695SOL    HW117485   0.668   6.429   1.022 -0.3201 -0.5320 -0.1552
 5695SOL    HW217486   0.527   6.393   1.064 -0.4865  0.5353  0.2329
 5696SOL     OW17487   3.317   0.049   6.577 -0.0551  0.4634 -0.2689
 5696SOL    HW117488   3.262   0.006   6.511 -0.4807  1.8312 -0.8367
 5696SOL    HW217489   3.398   0.071   6.530 -0.2770  1.2492 -0.3026
 5697SOL     OW17490   2.691   3.739   1.672  0.2672 -0.2973 -0.5664
 5697SOL    HW117491   2.679   3.710   1.763  2.3583 -1.0595 -0.4850
 5697SOL    HW217492   2.629   3.687   1.622  0.5426 -1.3906  0.1932
 5698SOL     OW17493   5.723   5.024   5.525  0.0736 -0.5034  0.4028
 5698SOL    HW117494   5.658   5.090   5.551  1.0094  0.5996 -0.0060
 5698SOL    HW217495   5.756   4.989   5.608  0.4663  0.4436  0.6588
 5699SOL     OW17496   1.210   0.094   2.850 -0.0178 -0.2528 -0.3976
 5699SOL    HW117497   1.225   0.013   2.801 -0.0771 -0.2907 -0.3540
 5699SOL    HW217498   1.222   0.069   2.942 -3.3080 -1.0431 -0.0556
 5700SOL     OW17499   2.668   5.645   3.539  0.0953  0.3686  0.0323
 5700SOL    HW117500   2.682   5.708   3.611 -0.0730  1.4864 -0.8807
 5700SOL    HW217501   2.755   5.633   3.501  0.3046 -0.7520  0.8260
 5701SOL     OW17502   6.701   2.164   5.297  0.0445  0.2304  0.8214
 5701SOL    HW117503   6.783   2.143   5.252 -0.8190 -1.4821 -0.0631
 5701SOL    HW217504   6.680   2.086   5.348 -1.8668 -0.0801 -0.3145
 5702SOL     OW17505   1.903   3.160   1.112 -0.2120  0.0345 -0.1124
 5702SOL    HW117506   1.807   3.165   1.109 -0.1793  0.2466 -1.4417
 5702SOL    HW217507   1.922   3.110   1.192 -1.5044 -1.6893 -0.8185
 5703SOL     OW17508   2.799   4.423   5.712 -0.0666 -0.0783 -0.3400
 5703SOL    HW117509   2.806   4.390   5.802 -1.0106 -0.8064 -0.5101
 5703SOL    HW217510   2.732   4.491   5.717 -0.7875 -0.7500 -0.6390
 5704SOL     OW17511   1.807   3.276   0.422  0.1373 -0.4372 -0.3528
 5704SOL    HW117512   1.712   3.271   0.414  0.2103 -1.7374 -0.6175
 5704SOL    HW217513   1.828   3.365   0.397 -0.9122 -0.4703 -1.4606
 5705SOL     OW17514   0.714   0.712   6.034  0.6609 -0.0767  0.0718
 5705SOL    HW117515   0.728   0.713   5.939  1.2777  1.4916  0.1454
 5705SOL    HW217516   0.775   0.778   6.067 -0.5399  0.3847  1.4201
 5706SOL     OW17517   1.310   2.207   0.395 -0.2331 -0.1848  0.6311
 5706SOL    HW117518   1.260   2.235   0.318 -0.3298 -0.7005  0.4968
 5706SOL    HW217519   1.316   2.112   0.385 -0.0047 -0.2221  1.1194
 5707SOL     OW17520   0.559   2.780   1.895 -0.1401  0.0220  0.0572
 5707SOL    HW117521   0.612   2.771   1.817  0.8862  0.0251  0.7341
 5707SOL    HW217522   0.553   2.875   1.909  2.3212  0.0180  1.6872
 5708SOL     OW17523   0.780   4.079   4.370 -0.3950 -0.1291 -0.0027
 5708SOL    HW117524   0.834   4.061   4.447 -1.6603  0.1520  0.9791
 5708SOL    HW217525   0.810   4.165   4.340 -0.7419  0.3330  0.9420
 5709SOL     OW17526   6.487   0.360   0.228  0.3138 -0.3131  0.3521
 5709SOL    HW117527   6.404   0.318   0.249  0.4970 -0.6982  0.3031
 5709SOL    HW217528   6.495   0.352   0.133  1.0131 -1.4075  0.4936
 5710SOL     OW17529   3.752   1.512   0.360 -0.1193  0.1333 -0.4275
 5710SOL    HW117530   3.703   1.458   0.299 -0.5699 -0.2177  0.2258
 5710SOL    HW217531   3.688   1.536   0.427  0.7125 -0.7675  0.7259
 5711SOL     OW17532   3.810   6.561   0.759 -0.4518  0.3354 -0.1079
 5711SOL    HW117533   3.762   6.641   0.738 -2.6950 -0.9337 -0.1852
 5711SOL    HW217534   3.857   6.582   0.839 -2.2891  1.2840  0.7932
 5712SOL     OW17535   2.690   2.666   5.714  0.3877  0.2246 -0.5164
 5712SOL    HW117536   2.602   2.631   5.705  0.4798  0.1155 -1.0448
 5712SOL    HW217537   2.700   2.725   5.639  0.5609  0.6714 -0.1466
 5713SOL     OW17538   5.443   3.259   5.423 -0.1435 -0.1634 -0.3660
 5713SOL    HW117539   5.423   3.339   5.471  0.0025 -0.4418  0.1577
 5713SOL    HW217540   5.473   3.197   5.489  1.1335 -0.1976 -0.9560
 5714SOL     OW17541   4.875   0.043   6.209 -0.0105 -0.1583 -1.0292
 5714SOL    HW117542   4.785   0.072   6.195 -0.4677 -0.9938 -0.0362
 5714SOL    HW217543   4.928   0.120   6.192 -0.9606  0.5178 -1.0487
 5715SOL     OW17544   0.352   2.178   3.918  0.1028  0.2204 -0.1254
 5715SOL    HW117545   0.414   2.197   3.988  0.4150 -0.8221 -0.0952
 5715SOL    HW217546   0.362   2.084   3.903 -0.1831  0.3768 -1.3590
 5716SOL     OW17547   1.630   5.054   6.136 -0.1885  0.3416  0.0451
 5716SOL    HW117548   1.673   4.969   6.138 -0.0973  0.3932  0.2649
 5716SOL    HW217549   1.584   5.061   6.220 -1.8288 -0.3280 -0.7369
 5717SOL     OW17550   1.906   3.325   2.920 -0.3363  0.1082 -0.5137
 5717SOL    HW117551   1.883   3.265   2.849  1.2735 -0.1630 -0.8379
 5717SOL    HW217552   1.997   3.351   2.902 -0.3202  1.0362  0.7503
 5718SOL     OW17553   3.991   5.146   1.202 -0.0660 -0.2525  0.3104
 5718SOL    HW117554   3.936   5.221   1.224 -1.7917 -0.0781 -3.7136
 5718SOL    HW217555   3.932   5.070   1.208  0.5109 -0.7129  0.2696
 5719SOL     OW17556   0.836   4.243   4.585 -0.4319  0.0732  0.1337
 5719SOL    HW117557   0.750   4.286   4.586 -0.0054  1.0776  2.7619
 5719SOL    HW217558   0.898   4.314   4.600  0.6291 -0.9553  0.7410
 5720SOL     OW17559   6.168   2.259   4.603  0.1614  0.3467 -0.8046
 5720SOL    HW117560   6.123   2.293   4.526 -0.3729 -1.5554 -1.3836
 5720SOL    HW217561   6.231   2.196   4.568 -0.6304 -1.1280  0.3302
 5721SOL     OW17562   4.644   3.558   6.293 -0.3042 -0.2641  0.4901
 5721SOL    HW117563   4.686   3.487   6.341  2.0927  0.5473 -0.2555
 5721SOL    HW217564   4.706   3.579   6.223 -1.3590  1.9712  0.1546
 5722SOL     OW17565   0.270   3.317   2.733 -0.4602  0.3532  0.1403
 5722SOL    HW117566   0.254   3.243   2.792 -0.2229  0.0280 -0.1998
 5722SOL    HW217567   0.315   3.382   2.787 -1.3918  0.5832  0.6539
 5723SOL     OW17568   3.744   6.043   1.715  0.0751  0.5017  0.2976
 5723SOL    HW117569   3.671   6.022   1.656 -1.1273  2.2811  1.0648
 5723SOL    HW217570   3.794   5.962   1.719 -2.4881 -1.2111  0.5941
 5724SOL     OW17571   5.230   4.553   3.763  0.2857  0.2373 -0.4132
 5724SOL    HW117572   5.160   4.601   3.718  1.2929  0.2634 -2.0346
 5724SOL    HW217573   5.311   4.589   3.726  1.1004 -1.4117 -0.3071
 5725SOL     OW17574   2.636   3.950   4.921 -0.9455 -0.0347 -0.2177
 5725SOL    HW117575   2.564   3.969   4.982  0.3239  2.1030  0.7376
 5725SOL    HW217576   2.680   4.034   4.910  0.2124 -0.8631 -2.3851
 5726SOL     OW17577   1.232   1.968   2.363 -0.1062 -0.5752  0.6985
 5726SOL    HW117578   1.328   1.972   2.369  0.0929  0.0517 -1.8028
 5726SOL    HW217579   1.202   2.042   2.416  0.7263 -1.0836  1.9357
 5727SOL     OW17580   1.777   4.688   5.839  0.4653 -0.2062 -0.4771
 5727SOL    HW117581   1.846   4.750   5.817  1.3908 -0.0703  2.3492
 5727SOL    HW217582   1.701   4.718   5.791  1.7679  1.0216 -1.8896
 5728SOL     OW17583   0.617   2.478   1.998 -0.1370 -0.1143  0.8533
 5728SOL    HW117584   0.613   2.552   2.058  0.5986  2.8390 -2.4000
 5728SOL    HW217585   0.534   2.483   1.949  0.0694 -1.2472  0.3548
 5729SOL     OW17586   0.146   4.986   4.134 -0.1459 -0.8312  0.1198
 5729SOL    HW117587   0.165   5.034   4.214 -1.2109  1.1442 -0.7277
 5729SOL    HW217588   0.108   5.052   4.075 -1.7403 -2.7392 -1.1151
 5730SOL     OW17589   2.078   3.245   1.501 -0.3659  0.1800  0.5115
 5730SOL    HW117590   2.016   3.318   1.495  1.6245  1.8833 -3.2978
 5730SOL    HW217591   2.059   3.191   1.424  1.7925 -0.0750  0.0931
 5731SOL     OW17592   5.747   6.326   2.226  0.4579 -0.0673 -0.1553
 5731SOL    HW117593   5.712   6.415   2.229 -1.4404 -0.7751  1.8056
 5731SOL    HW217594   5.700   6.284   2.154 -0.3568 -0.1005  0.3877
 5732SOL     OW17595   6.153   3.845   0.240  0.0154 -0.2287  0.3148
 5732SOL    HW117596   6.098   3.809   0.309  0.4347 -2.8519 -0.6229
 5732SOL    HW217597   6.108   3.822   0.159  1.8904 -1.4601 -0.4300
 5733SOL     OW17598   1.757   1.849   1.218 -0.3157  0.4643  0.0616
 5733SOL    HW117599   1.665   1.824   1.224 -0.4387  0.7613 -0.5063
 5733SOL    HW217600   1.766   1.919   1.283  0.2495 -1.5789  2.3167
 5734SOL     OW17601   2.984   0.054   3.365  0.4026 -0.3703 -0.6541
 5734SOL    HW117602   2.914   0.028   3.306  0.4615  1.2138 -1.4781
 5734SOL    HW217603   2.990   0.149   3.356  1.9119 -0.3299  0.2368
 5735SOL     OW17604   2.039   5.858   6.520  0.1086 -0.0342 -0.6601
 5735SOL    HW117605   2.016   5.778   6.472  1.9285  0.1019 -1.8728
 5735SOL    HW217606   2.127   5.841   6.553  0.4266  1.3745 -0.7229
 5736SOL     OW17607   0.309   0.982   3.194 -0.1106 -0.2940 -0.2589
 5736SOL    HW117608   0.352   1.065   3.218 -0.4971 -0.2529  0.2897
 5736SOL    HW217609   0.224   1.008   3.160  0.2609 -0.3832 -1.3004
 5737SOL     OW17610   2.838   1.102   3.432 -0.2397 -0.3422  0.2470
 5737SOL    HW117611   2.834   1.010   3.457  2.0351 -0.4369  0.4510
 5737SOL    HW217612   2.837   1.149   3.515 -0.3552 -0.2418  0.1886
 5738SOL     OW17613   3.056   2.880   6.462 -0.2370  0.3214 -0.3252
 5738SOL    HW117614   3.118   2.951   6.478 -0.4718  0.0285  2.6082
 5738SOL    HW217615   2.998   2.912   6.394 -1.0099  3.4762  1.6248
 5739SOL     OW17616   5.144   1.027   3.619  0.0056  0.0239 -0.2628
 5739SOL    HW117617   5.068   1.048   3.565 -0.9333  0.8416  1.2879
 5739SOL    HW217618   5.128   1.072   3.702  2.7399  1.1891 -0.2535
 5740SOL     OW17619   2.867   0.633   3.204  0.2381 -0.1889 -0.2492
 5740SOL    HW117620   2.899   0.642   3.114  1.1328  0.7212  0.1388
 5740SOL    HW217621   2.885   0.717   3.245 -0.3477 -0.5175  0.7326
 5741SOL     OW17622   4.177   0.294   2.567 -0.2984 -0.6481 -0.0985
 5741SOL    HW117623   4.163   0.388   2.571  0.3631 -0.5376 -0.3820
 5741SOL    HW217624   4.144   0.262   2.651 -0.8612 -0.2156 -0.1448
 5742SOL     OW17625   2.808   2.755   2.264  0.2964 -0.2356  0.1272
 5742SOL    HW117626   2.897   2.789   2.254  0.5368 -0.6341  0.8211
 5742SOL    HW217627   2.798   2.743   2.359  0.1855 -1.9359 -0.0631
 5743SOL     OW17628   4.803   1.609   5.993 -0.1043 -0.4916  0.5190
 5743SOL    HW117629   4.874   1.657   5.950 -1.0155  0.1142 -0.3866
 5743SOL    HW217630   4.726   1.666   5.982 -0.9059 -1.5003  0.7255
 5744SOL     OW17631   0.501   3.865   3.148  0.2386 -0.1977 -0.3182
 5744SOL    HW117632   0.498   3.828   3.237  2.0026 -0.0806 -0.1845
 5744SOL    HW217633   0.490   3.959   3.161 -0.4002 -0.2627 -0.3252
 5745SOL     OW17634   2.900   2.022   4.585  0.3939  0.0823 -0.1810
 5745SOL    HW117635   2.899   2.102   4.638  1.5419  0.3209 -0.4927
 5745SOL    HW217636   2.990   2.015   4.553  0.0797 -0.8384 -0.9246
 5746SOL     OW17637   3.224   6.714   3.268  0.0630 -0.4008  0.7997
 5746SOL    HW117638   3.183   6.786   3.315 -0.3998  0.1923 -0.4783
 5746SOL    HW217639   3.155   6.681   3.209  0.8980 -0.4914 -0.1626
 5747SOL     OW17640   4.693   2.010   6.473  0.1567 -0.6768 -0.5410
 5747SOL    HW117641   4.681   2.072   6.401 -0.7761  0.8240  0.8246
 5747SOL    HW217642   4.630   1.940   6.457 -0.8811  0.2450 -0.5844
 5748SOL     OW17643   1.577   5.094   0.943  0.2329  0.1292 -0.0587
 5748SOL    HW117644   1.532   5.037   1.006  1.0815  0.4368  0.8437
 5748SOL    HW217645   1.649   5.132   0.992  1.5010 -0.3528 -1.4705
 5749SOL     OW17646   4.580   3.198   1.398 -0.0741  0.0880  0.4401
 5749SOL    HW117647   4.613   3.267   1.455  1.1990  0.0364 -0.1989
 5749SOL    HW217648   4.565   3.124   1.457  0.1428  0.3888  0.8815
 5750SOL     OW17649   5.014   6.087   3.253 -0.1351 -0.8150 -0.7623
 5750SOL    HW117650   5.046   6.125   3.172  0.1684  0.1193 -0.2214
 5750SOL    HW217651   5.078   6.020   3.275 -0.2278 -1.0821 -1.3014
 5751SOL     OW17652   0.448   0.306   3.066 -0.1241 -0.4930  0.4056
 5751SOL    HW117653   0.509   0.361   3.018  0.3987  0.0067  1.6029
 5751SOL    HW217654   0.451   0.221   3.021  2.8134 -1.0461  1.4582
 5752SOL     OW17655   4.757   4.455   3.087  0.0831  0.2575  0.0574
 5752SOL    HW117656   4.769   4.369   3.128  0.3580  0.8914  1.3639
 5752SOL    HW217657   4.846   4.483   3.065  0.1786  0.9938  1.3270
 5753SOL     OW17658   2.939   3.474   1.050 -0.2547  0.0477 -0.0332
 5753SOL    HW117659   2.885   3.546   1.017  0.1425  0.6560  0.6168
 5753SOL    HW217660   3.029   3.504   1.040 -0.0179 -0.8761 -0.9050
 5754SOL     OW17661   1.368   6.245   1.401 -0.0793 -0.1485 -0.5306
 5754SOL    HW117662   1.364   6.326   1.452  1.7045 -0.1246 -0.3674
 5754SOL    HW217663   1.378   6.275   1.311 -2.9116 -0.1966 -0.9692
 5755SOL     OW17664   2.204   1.476   6.684  0.2105  0.2426  0.0664
 5755SOL    HW117665   2.205   1.461   6.779  0.8384  0.0489  0.0347
 5755SOL    HW217666   2.218   1.571   6.676 -4.2483  1.1382  0.2780
 5756SOL     OW17667   4.105   1.045   4.912  0.7627 -0.3044  0.3823
 5756SOL    HW117668   4.029   0.991   4.889  0.2558 -0.7127  2.7476
 5756SOL    HW217669   4.118   1.101   4.836 -1.0275 -1.1934 -0.6569
 5757SOL     OW17670   3.120   3.001   5.765 -0.1899  0.2415 -0.1936
 5757SOL    HW117671   3.122   2.905   5.759  0.4646  0.1658  1.0189
 5757SOL    HW217672   3.055   3.027   5.699  0.5897 -0.9383 -1.4877
 5758SOL     OW17673   4.722   1.725   3.385 -0.4603 -0.2100  0.1266
 5758SOL    HW117674   4.700   1.668   3.311  0.1126 -0.4289  0.1173
 5758SOL    HW217675   4.804   1.688   3.420 -0.3647  0.2960  0.4464
 5759SOL     OW17676   0.711   6.037   0.874  0.0923 -0.1095 -0.5445
 5759SOL    HW117677   0.751   6.046   0.960  3.9723 -2.6071 -1.8252
 5759SOL    HW217678   0.731   6.120   0.829  0.4804  0.1298  0.0637
 5760SOL     OW17679   5.930   5.050   2.857  0.4958  0.4431  0.2633
 5760SOL    HW117680   5.938   5.056   2.953 -0.2337 -0.2227  0.3785
 5760SOL    HW217681   5.921   5.141   2.828  0.3581  0.6288  0.8716
 5761SOL     OW17682   1.503   5.948   0.897  0.4564 -0.1252 -0.4244
 5761SOL    HW117683   1.435   5.962   0.963  0.2399 -0.2963 -0.6110
 5761SOL    HW217684   1.470   5.993   0.819  1.0760  0.7697 -0.1934
 5762SOL     OW17685   4.820   5.062   6.055  0.1992 -0.4776 -0.3389
 5762SOL    HW117686   4.823   5.079   5.961 -0.3420  1.7572 -0.0008
 5762SOL    HW217687   4.728   5.043   6.073 -0.0132  0.7701 -0.0303
 5763SOL     OW17688   1.681   6.072   3.881  0.3395 -0.0492 -0.4160
 5763SOL    HW117689   1.760   6.094   3.831  0.3332 -0.3663 -0.5651
 5763SOL    HW217690   1.705   5.995   3.932 -0.2701 -0.9807 -1.4714
 5764SOL     OW17691   4.693   3.185   0.826  0.5645 -0.2839 -0.1289
 5764SOL    HW117692   4.655   3.163   0.911 -2.1599  0.0024 -1.1833
 5764SOL    HW217693   4.694   3.280   0.824  1.2434 -0.2864 -0.1881
 5765SOL     OW17694   1.546   3.981   2.329  0.2329 -0.0805  0.2191
 5765SOL    HW117695   1.560   3.903   2.383 -1.4114 -1.6550 -1.4637
 5765SOL    HW217696   1.486   4.036   2.381  1.8135  0.3763  1.6452
 5766SOL     OW17697   1.091   6.652   2.224  0.0149  0.6828 -0.2079
 5766SOL    HW117698   1.163   6.708   2.253  1.2639 -0.4699 -0.9836
 5766SOL    HW217699   1.097   6.652   2.129  0.0517 -0.7717 -0.2277
 5767SOL     OW17700   2.890   0.941   3.104  0.7932  0.5286 -0.1538
 5767SOL    HW117701   2.840   0.996   3.164 -0.0747 -0.2564 -0.1374
 5767SOL    HW217702   2.847   0.952   3.020  1.6554  1.1696 -0.5363
 5768SOL     OW17703   5.475   4.861   6.439 -0.7768  0.2088  0.1250
 5768SOL    HW117704   5.404   4.914   6.403 -2.1282 -0.9078  1.0664
 5768SOL    HW217705   5.495   4.797   6.371 -2.3466 -0.9899  0.7396
 5769SOL     OW17706   2.442   5.738   0.256  0.6602 -0.4068 -0.1002
 5769SOL    HW117707   2.531   5.760   0.228  0.5111  1.1527  0.5723
 5769SOL    HW217708   2.399   5.822   0.268 -0.7494 -1.1339  0.1310
 5770SOL     OW17709   3.840   5.985   2.018 -0.6197 -0.2655 -0.1345
 5770SOL    HW117710   3.763   6.030   1.981 -1.4395 -1.7984 -0.3722
 5770SOL    HW217711   3.881   6.051   2.074  0.4381  2.0394 -3.3781
 5771SOL     OW17712   2.146   5.694   0.897 -0.1902 -0.2967 -0.1565
 5771SOL    HW117713   2.146   5.690   0.993 -0.5866 -1.6670 -0.1903
 5771SOL    HW217714   2.058   5.724   0.874  0.5070  1.9228 -0.0652
 5772SOL     OW17715   5.167   4.133   5.902  0.3581 -0.2387  0.1863
 5772SOL    HW117716   5.120   4.183   5.968  0.0087 -0.5649  0.1889
 5772SOL    HW217717   5.126   4.156   5.819 -0.1210 -0.8662  0.2375
 5773SOL     OW17718   0.758   5.942   6.059  0.2191 -0.0779  0.1136
 5773SOL    HW117719   0.776   5.980   6.145  3.6270 -1.1276  0.0324
 5773SOL    HW217720   0.668   5.967   6.039  0.0532  2.0625  2.9931
 5774SOL     OW17721   3.887   6.235   1.450  0.3562 -0.1544 -0.6797
 5774SOL    HW117722   3.978   6.257   1.430 -0.1755  0.3166 -2.8358
 5774SOL    HW217723   3.850   6.316   1.486  1.0686 -0.7271  1.5221
 5775SOL     OW17724   0.589   0.494   1.458  0.1018 -0.1372 -0.0976
 5775SOL    HW117725   0.604   0.588   1.469 -1.0221  0.5896 -3.5035
 5775SOL    HW217726   0.531   0.470   1.530  1.6106  1.3640  1.7353
 5776SOL     OW17727   4.344   3.964   2.607  0.2857 -0.1846 -0.0788
 5776SOL    HW117728   4.273   3.904   2.584  1.0624 -0.5176 -1.8008
 5776SOL    HW217729   4.411   3.908   2.646  0.1442 -0.0768  0.3261
 5777SOL     OW17730   6.335   3.902   3.066  0.0564 -0.4948  0.6089
 5777SOL    HW117731   6.427   3.900   3.089  0.2248 -0.1417 -0.0248
 5777SOL    HW217732   6.333   3.893   2.971 -0.5859 -1.0320  0.6650
 5778SOL     OW17733   4.261   2.857   6.444  0.0708 -0.1166 -0.1264
 5778SOL    HW117734   4.293   2.818   6.526  0.3196  0.3293 -0.0064
 5778SOL    HW217735   4.331   2.916   6.417  0.8718 -1.6982 -1.7224
 5779SOL     OW17736   3.044   4.420   6.410  0.7051 -0.1577  0.2456
 5779SOL    HW117737   2.949   4.426   6.403  0.6924  1.0592  1.2054
 5779SOL    HW217738   3.073   4.509   6.426  2.0186 -0.5124 -0.0304
 5780SOL     OW17739   3.383   5.857   4.350 -0.3209  0.1409  0.0202
 5780SOL    HW117740   3.304   5.807   4.330 -1.5280  0.7787  2.8148
 5780SOL    HW217741   3.372   5.940   4.304 -0.6692 -0.2098 -0.5507
 5781SOL     OW17742   2.927   1.097   4.286 -0.2888  0.4272 -0.0499
 5781SOL    HW117743   2.966   1.074   4.370  1.3377  0.3462 -0.7943
 5781SOL    HW217744   2.988   1.159   4.246 -1.8878  1.8320 -0.4520
 5782SOL     OW17745   6.769   2.112   6.326  0.1974  0.1032  0.4562
 5782SOL    HW117746   6.772   2.026   6.285 -0.9617  0.9487 -1.5343
 5782SOL    HW217747   6.703   2.104   6.395 -1.1898 -0.1810 -0.8585
 5783SOL     OW17748   1.275   4.486   3.956  0.0380  0.0905  0.5728
 5783SOL    HW117749   1.215   4.444   3.895 -1.3741  2.1324  0.4526
 5783SOL    HW217750   1.255   4.445   4.041 -0.3661 -0.4032  0.2452
 5784SOL     OW17751   4.846   3.580   0.823 -0.2062 -0.1245 -0.0165
 5784SOL    HW117752   4.806   3.595   0.909  0.3484  1.5306 -0.0146
 5784SOL    HW217753   4.782   3.526   0.776 -0.0829 -1.8865  1.7412
 5785SOL     OW17754   0.498   0.463   1.158 -0.3057  0.0318 -0.0324
 5785SOL    HW117755   0.469   0.532   1.098  2.7874 -0.4415 -2.3661
 5785SOL    HW217756   0.590   0.484   1.175 -0.4890 -1.0469  3.0018
 5786SOL     OW17757   4.943   6.436   2.580  0.1015  0.0533  0.4792
 5786SOL    HW117758   4.883   6.388   2.523  1.6149 -0.2272 -0.9796
 5786SOL    HW217759   5.000   6.484   2.519  0.1903  1.7735  1.8458
 5787SOL     OW17760   3.873   2.269   0.758  0.9596  0.2068  0.2160
 5787SOL    HW117761   3.936   2.270   0.687  0.1517  0.0374 -0.5177
 5787SOL    HW217762   3.919   2.309   0.832  1.7807  0.4441 -0.4161
 5788SOL     OW17763   0.253   4.052   3.569  0.0620 -0.3487  0.3916
 5788SOL    HW117764   0.310   4.083   3.498  0.8549  0.6677  1.4250
 5788SOL    HW217765   0.309   4.056   3.647 -0.9419 -0.9449  1.1590
 5789SOL     OW17766   4.392   1.850   3.160  0.7862  0.0322 -0.0598
 5789SOL    HW117767   4.476   1.875   3.198  0.7570 -0.2053  0.1639
 5789SOL    HW217768   4.381   1.908   3.085  0.6689  0.7728  0.5177
 5790SOL     OW17769   5.987   5.699   5.691  0.4557 -0.3108 -0.3007
 5790SOL    HW117770   5.918   5.754   5.728  0.1169 -0.5004 -0.6464
 5790SOL    HW217771   5.982   5.714   5.596  0.7376 -0.4990 -0.3487
 5791SOL     OW17772   1.985   6.105   5.727  0.1068 -0.1734  0.0430
 5791SOL    HW117773   1.952   6.075   5.643  0.5283  0.7507 -0.4647
 5791SOL    HW217774   2.076   6.131   5.710 -0.1159  1.0076  0.5254
 5792SOL     OW17775   2.752   4.127   3.299 -0.9398 -0.3549 -0.3774
 5792SOL    HW117776   2.840   4.162   3.292 -0.8696 -0.5586 -0.5205
 5792SOL    HW217777   2.763   4.032   3.289 -0.9595 -0.5806  1.3002
 5793SOL     OW17778   3.244   2.932   4.175 -0.1762  0.7469 -0.0287
 5793SOL    HW117779   3.232   2.902   4.085 -4.3189  3.3196 -0.5709
 5793SOL    HW217780   3.186   2.875   4.226  1.5247 -0.1529  0.9885
 5794SOL     OW17781   1.153   1.696   5.408  0.5901  0.2577  0.5157
 5794SOL    HW117782   1.234   1.747   5.412  1.1085 -0.4015 -0.8630
 5794SOL    HW217783   1.168   1.621   5.466  0.4748  0.7596  1.2137
 5795SOL     OW17784   4.666   4.168   1.321 -0.0518  0.3741  0.7960
 5795SOL    HW117785   4.613   4.234   1.276 -0.4828 -0.7936 -0.5069
 5795SOL    HW217786   4.674   4.097   1.257  1.4465 -0.3093  1.6930
 5796SOL     OW17787   2.143   0.988   0.348 -0.3460 -0.6205  0.1368
 5796SOL    HW117788   2.225   1.026   0.316 -0.9525  0.7028  0.0994
 5796SOL    HW217789   2.161   0.894   0.356  0.8076 -0.5174 -1.0068
 5797SOL     OW17790   6.659   0.785   2.597  0.2338  0.0498  0.0432
 5797SOL    HW117791   6.618   0.779   2.683 -0.4366  0.5719 -0.2349
 5797SOL    HW217792   6.703   0.870   2.597 -0.2889  0.3184 -0.3569
 5798SOL     OW17793   5.472   3.151   5.154  0.1454  0.3834  0.0786
 5798SOL    HW117794   5.474   3.172   5.247 -0.7968  0.0334  0.1791
 5798SOL    HW217795   5.423   3.223   5.114  0.5454  0.5317 -0.1565
 5799SOL     OW17796   6.437   2.640   3.272 -0.0832 -0.4507 -0.7139
 5799SOL    HW117797   6.376   2.673   3.339  0.6847  0.3693 -0.3945
 5799SOL    HW217798   6.481   2.719   3.240  0.6187 -1.0066 -1.1249
 5800SOL     OW17799   1.532   3.451   4.665 -0.8513 -0.0569  0.2079
 5800SOL    HW117800   1.612   3.405   4.689 -0.3171  0.2494 -0.9136
 5800SOL    HW217801   1.484   3.389   4.610 -0.1801  0.6275 -1.2163
 5801SOL     OW17802   1.198   4.860   3.100  0.2442 -0.1955  0.1489
 5801SOL    HW117803   1.203   4.954   3.080 -0.6787 -0.2730 -0.5031
 5801SOL    HW217804   1.142   4.824   3.031 -0.5129 -0.9993  1.1571
 5802SOL     OW17805   1.339   3.015   2.186  0.0909 -0.0835  0.0401
 5802SOL    HW117806   1.264   3.068   2.160 -0.5420 -1.8281 -1.9627
 5802SOL    HW217807   1.303   2.928   2.203  1.0627  0.0399  3.5339
 5803SOL     OW17808   4.871   0.053   4.348  0.2422  0.2053  0.1267
 5803SOL    HW117809   4.928   0.112   4.299 -0.5357  0.9411  0.0848
 5803SOL    HW217810   4.889   0.074   4.440  1.0635 -0.5679  0.1639
 5804SOL     OW17811   5.693   4.779   0.007  0.0785 -0.0011 -0.0538
 5804SOL    HW117812   5.719   4.829   0.084  0.6197  0.9839 -0.8534
 5804SOL    HW217813   5.771   4.728  -0.016  0.1827  0.2979 -0.3873
 5805SOL     OW17814   1.625   6.005   1.881 -0.1328  0.0911 -0.6430
 5805SOL    HW117815   1.598   5.945   1.812  2.0679  1.3722 -2.7552
 5805SOL    HW217816   1.718   5.988   1.894  0.1616  1.8310 -0.0658
 5806SOL     OW17817   1.845   6.443   4.861  0.2319 -0.1703  0.2188
 5806SOL    HW117818   1.864   6.537   4.855 -1.7445  0.2858  0.4144
 5806SOL    HW217819   1.780   6.436   4.931  1.9466 -1.9869  1.7204
 5807SOL     OW17820   0.420   5.554   3.491  0.4740 -0.5391  0.1254
 5807SOL    HW117821   0.425   5.479   3.549 -1.5754 -0.4281  0.5051
 5807SOL    HW217822   0.381   5.520   3.410  0.6041 -0.1113 -0.1240
 5808SOL     OW17823   5.925   5.041   3.134  0.1997  0.3780  0.2115
 5808SOL    HW117824   5.950   4.948   3.139  0.6323  0.5632  2.4253
 5808SOL    HW217825   6.007   5.087   3.117 -0.0961  0.3606 -1.4463
 5809SOL     OW17826   0.398   1.542   1.886  0.2256  0.0978 -0.0066
 5809SOL    HW117827   0.478   1.493   1.867  0.2662  0.3734 -0.5812
 5809SOL    HW217828   0.429   1.623   1.927  0.3611  0.8629 -1.5538
 5810SOL     OW17829   2.406   0.483   6.525 -0.3109  0.0671  0.1701
 5810SOL    HW117830   2.318   0.513   6.544 -2.0196 -3.9837 -0.2890
 5810SOL    HW217831   2.429   0.428   6.600  2.5907  2.1685  1.0148
 5811SOL     OW17832   2.229   0.990   4.518 -0.2753 -0.3950  0.8655
 5811SOL    HW117833   2.295   1.038   4.468 -1.0014 -0.3838 -0.1095
 5811SOL    HW217834   2.145   1.019   4.481 -0.8609 -0.1282  2.3214
 5812SOL     OW17835   3.502   5.445   6.424 -0.0720 -0.1668 -0.1024
 5812SOL    HW117836   3.412   5.468   6.446 -0.6519  0.0835 -2.5107
 5812SOL    HW217837   3.542   5.528   6.398  0.2640 -0.5895 -0.9451
 5813SOL     OW17838   5.614   3.315   3.880 -0.5947  0.1797 -0.3031
 5813SOL    HW117839   5.557   3.361   3.941 -0.3915 -1.1970  0.9766
 5813SOL    HW217840   5.593   3.223   3.892  0.0736 -0.1913 -1.7078
 5814SOL     OW17841   2.630   3.095   1.048  0.2078 -0.0912  0.4662
 5814SOL    HW117842   2.642   3.013   1.097  0.2200  0.3210  1.1622
 5814SOL    HW217843   2.719   3.128   1.035  0.1393  0.3280  1.0744
 5815SOL     OW17844   6.367   2.737   0.580  0.8977  0.0944  0.5490
 5815SOL    HW117845   6.317   2.676   0.526  1.2747  0.5836 -0.3593
 5815SOL    HW217846   6.458   2.726   0.551  1.1350  0.2122  1.2298
 5816SOL     OW17847   3.171   6.272   1.975  0.0759  0.3425 -0.3901
 5816SOL    HW117848   3.251   6.290   1.926 -0.5460 -0.8988 -1.9839
 5816SOL    HW217849   3.188   6.187   2.016 -0.7405 -0.4419 -1.5953
 5817SOL     OW17850   3.545   5.385   6.679 -0.0544  0.1681 -0.1620
 5817SOL    HW117851   3.463   5.429   6.700 -0.4677 -0.0745 -1.2255
 5817SOL    HW217852   3.565   5.411   6.589  0.1688 -1.0747 -0.4968
 5818SOL     OW17853   5.516   4.513   1.588  0.0905  0.1850 -0.2306
 5818SOL    HW117854   5.449   4.565   1.543 -1.6548 -1.6542  0.0772
 5818SOL    HW217855   5.476   4.488   1.671  1.6523  0.0380  0.5096
 5819SOL     OW17856   0.428   3.210   6.355  0.2461  0.0481 -0.2235
 5819SOL    HW117857   0.369   3.237   6.425  1.2890  0.6448  0.4471
 5819SOL    HW217858   0.446   3.291   6.306 -0.0673 -0.2676 -0.8812
 5820SOL     OW17859   4.676   0.536   3.083 -0.6373  0.2341  0.5131
 5820SOL    HW117860   4.669   0.558   2.990  1.4931  0.7686  0.4310
 5820SOL    HW217861   4.728   0.607   3.121 -3.0836  1.0601  2.5604
 5821SOL     OW17862   6.672   3.927   4.022 -0.1758 -0.2934  0.0346
 5821SOL    HW117863   6.721   3.999   4.061 -0.7776  1.1405 -1.7584
 5821SOL    HW217864   6.640   3.876   4.097 -0.0330  1.4964  1.3525
 5822SOL     OW17865   2.452   3.815   6.173 -0.0227 -0.1122 -0.5756
 5822SOL    HW117866   2.453   3.870   6.095  0.7995 -0.7541 -1.0258
 5822SOL    HW217867   2.451   3.726   6.140 -2.3429 -0.4146  0.1332
 5823SOL     OW17868   2.382   6.119   4.135  0.4906  0.3134  0.4336
 5823SOL    HW117869   2.475   6.139   4.137  0.3170  1.0984  1.6090
 5823SOL    HW217870   2.343   6.189   4.083  0.3373  1.0601  1.5236
 5824SOL     OW17871   5.774   5.356   6.728  0.2038  0.1408 -0.6094
 5824SOL    HW117872   5.796   5.344   6.821 -0.6318  1.3562 -0.2235
 5824SOL    HW217873   5.734   5.273   6.703 -4.7174  1.4411  1.7303
 5825SOL     OW17874   1.578   1.983   6.745 -0.1392  0.1854  0.0015
 5825SOL    HW117875   1.661   1.936   6.756 -0.2501 -0.2380 -0.8875
 5825SOL    HW217876   1.519   1.917   6.709 -1.3810 -0.0158  2.2296
 5826SOL     OW17877   4.718   5.746   0.528  0.1651 -0.0118 -0.3859
 5826SOL    HW117878   4.788   5.742   0.593  1.4928 -1.9168 -1.8345
 5826SOL    HW217879   4.640   5.713   0.574  0.6255  0.4292  0.7347
 5827SOL     OW17880   6.328   1.802   6.000  0.1329 -0.1315  0.0053
 5827SOL    HW117881   6.383   1.849   6.063 -0.7379  0.3748  0.4047
 5827SOL    HW217882   6.390   1.754   5.946  1.3314  3.4054 -2.1216
 5828SOL     OW17883   1.297   6.131   5.082 -0.3413  0.1329 -0.6003
 5828SOL    HW117884   1.376   6.181   5.098 -1.0654  0.9036  0.6585
 5828SOL    HW217885   1.300   6.111   4.988  0.5321  1.5266 -0.8909
 5829SOL     OW17886   2.890   5.492   4.880 -0.1765 -0.3662  0.7767
 5829SOL    HW117887   2.914   5.531   4.964  0.4791  1.0615 -0.0385
 5829SOL    HW217888   2.973   5.480   4.834 -0.6214  0.2774 -0.2404
 5830SOL     OW17889   3.797   5.086   4.796  0.0127 -0.4849 -0.1056
 5830SOL    HW117890   3.884   5.089   4.836 -0.2267 -0.2955  0.4119
 5830SOL    HW217891   3.811   5.045   4.710  0.1653 -3.3488  1.1518
 5831SOL     OW17892   0.243   6.256   4.380  0.5664  0.1725 -1.1057
 5831SOL    HW117893   0.172   6.306   4.340 -2.7143 -2.4874  0.8757
 5831SOL    HW217894   0.245   6.174   4.330  0.8723 -0.5832  0.1040
 5832SOL     OW17895   6.775   4.787   2.444 -0.8534  0.7594  0.1508
 5832SOL    HW117896   6.849   4.748   2.490 -2.2939 -1.7896  0.5070
 5832SOL    HW217897   6.776   4.747   2.357 -2.5849 -0.4986  0.6461
 5833SOL     OW17898   0.538   5.378   0.822 -0.3372 -0.3084  0.3041
 5833SOL    HW117899   0.596   5.449   0.852 -0.9067 -0.1555  1.0875
 5833SOL    HW217900   0.451   5.404   0.852 -0.5896 -1.2471  0.4190
 5834SOL     OW17901   5.796   0.453   6.192  0.3185  0.0878  0.2147
 5834SOL    HW117902   5.748   0.371   6.200 -0.2292  0.2500 -1.1741
 5834SOL    HW217903   5.821   0.458   6.099  1.2011  1.0186  0.4787
 5835SOL     OW17904   0.398   4.081   0.748 -0.3871 -0.5071 -0.3635
 5835SOL    HW117905   0.336   4.009   0.751  1.7178 -2.4268 -0.1836
 5835SOL    HW217906   0.432   4.087   0.838 -1.1033  1.3271 -0.1605
 5836SOL     OW17907   0.816   4.233   5.460  0.2037  0.3445  0.5672
 5836SOL    HW117908   0.841   4.150   5.501  1.7061  0.5813  0.2152
 5836SOL    HW217909   0.765   4.278   5.527  0.7730 -0.1806  1.3902
 5837SOL     OW17910   3.589   0.150   2.213  0.7403  0.2000  0.3365
 5837SOL    HW117911   3.539   0.069   2.198 -0.3738  1.1900 -1.7368
 5837SOL    HW217912   3.627   0.138   2.300  0.2265 -2.3420  0.3133
 5838SOL     OW17913   1.515   0.685   1.931 -0.6798  0.1373  0.2166
 5838SOL    HW117914   1.454   0.612   1.919 -0.5804 -0.2330  1.6724
 5838SOL    HW217915   1.583   0.671   1.866  0.4855 -2.3467  1.7803
 5839SOL     OW17916   1.976   3.921   3.808 -0.2554 -0.1207  0.1856
 5839SOL    HW117917   2.067   3.899   3.830 -0.0137  2.1459  1.8165
 5839SOL    HW217918   1.930   3.837   3.807  1.4405 -1.1221  1.4068
 5840SOL     OW17919   6.516   2.671   4.314 -0.4588  0.1000  0.3559
 5840SOL    HW117920   6.460   2.609   4.267  0.9293 -0.2958 -0.8481
 5840SOL    HW217921   6.584   2.617   4.354 -0.3644  0.6654  0.9768
 5841SOL     OW17922   0.881   1.416   4.987 -0.0138  0.0667 -0.2110
 5841SOL    HW117923   0.819   1.438   5.057 -0.6022  0.2501 -0.7765
 5841SOL    HW217924   0.909   1.501   4.952  1.4403  0.0213  0.7817
 5842SOL     OW17925   1.715   2.913   2.924  0.3196  0.5885 -0.1127
 5842SOL    HW117926   1.637   2.874   2.963 -1.1758  2.2098 -1.2872
 5842SOL    HW217927   1.760   2.956   2.997 -1.0721  1.4640  0.2610
 5843SOL     OW17928   2.192   1.494   6.279 -0.7144 -0.1074  0.3511
 5843SOL    HW117929   2.246   1.434   6.331 -0.3628 -0.7821 -0.7443
 5843SOL    HW217930   2.103   1.483   6.314 -0.3009  0.3769  1.6063
 5844SOL     OW17931   0.312   0.496   5.650  0.1912 -0.2793 -0.1585
 5844SOL    HW117932   0.273   0.428   5.595  0.7484 -1.4227  0.8223
 5844SOL    HW217933   0.400   0.465   5.669  0.3614  0.5805  0.5351
 5845SOL     OW17934   0.396   2.614   0.932  0.0844 -0.0020  0.3915
 5845SOL    HW117935   0.439   2.568   1.004  0.5084  0.3571  0.3702
 5845SOL    HW217936   0.459   2.610   0.860 -0.5310 -0.7810 -0.1230
 5846SOL     OW17937   2.710   3.178   0.350 -0.0833  0.0208 -0.8724
 5846SOL    HW117938   2.680   3.126   0.425 -0.1433 -1.6385 -1.9770
 5846SOL    HW217939   2.630   3.215   0.313 -0.2213 -0.2904 -0.8948
 5847SOL     OW17940   6.443   2.594   1.982  0.7659 -1.0615 -0.2192
 5847SOL    HW117941   6.376   2.602   2.051  1.1392 -1.6713  0.2313
 5847SOL    HW217942   6.403   2.537   1.917  0.5396 -0.7616 -0.3447
 5848SOL     OW17943   1.850   6.274   6.433 -0.8274 -0.5771 -0.2312
 5848SOL    HW117944   1.834   6.186   6.466 -0.0820 -0.3199  0.8744
 5848SOL    HW217945   1.903   6.316   6.501  0.3403  0.1436 -1.5381
 5849SOL     OW17946   2.630   0.935   6.049  0.1016 -0.1085  0.6094
 5849SOL    HW117947   2.678   1.005   6.006 -1.5380  2.0703  2.1328
 5849SOL    HW217948   2.560   0.912   5.987  0.3229 -0.0317  0.3310
 5850SOL     OW17949   0.371   0.338   1.644  0.0888 -0.5083 -0.2329
 5850SOL    HW117950   0.431   0.349   1.718  0.0511  0.1791 -0.2963
 5850SOL    HW217951   0.288   0.376   1.675  0.4104  0.9390 -1.0409
 5851SOL     OW17952   6.045   3.128   4.398  0.1719 -0.1186  0.2954
 5851SOL    HW117953   5.949   3.136   4.398  0.1244 -0.6854  0.4073
 5851SOL    HW217954   6.075   3.213   4.431 -0.3212 -0.2180  1.0531
 5852SOL     OW17955   4.108   4.133   0.301  0.0929  0.0085  0.5869
 5852SOL    HW117956   4.035   4.098   0.352  1.5558 -3.4431  0.5841
 5852SOL    HW217957   4.070   4.150   0.215 -0.7816 -1.6565  0.5998
 5853SOL     OW17958   1.583   1.759   6.504 -1.0034  0.1882  0.1868
 5853SOL    HW117959   1.667   1.791   6.537 -1.8668  1.5152  1.1824
 5853SOL    HW217960   1.606   1.682   6.451  0.6706 -0.4667  1.7687
 5854SOL     OW17961   4.911   2.175   1.924  0.3602 -0.0454 -0.1634
 5854SOL    HW117962   4.960   2.114   1.979 -1.6269 -1.2615  0.3678
 5854SOL    HW217963   4.954   2.170   1.839  2.6143  0.7986  0.8477
 5855SOL     OW17964   4.771   4.281   0.216 -0.5893 -0.1440  0.0501
 5855SOL    HW117965   4.827   4.212   0.253  0.5507 -0.1963 -1.6661
 5855SOL    HW217966   4.703   4.293   0.282  0.2163 -1.6068  1.2443
 5856SOL     OW17967   1.299   4.276   0.003  0.1166 -0.1290 -0.0128
 5856SOL    HW117968   1.361   4.217   0.047  1.7573  1.0730 -0.6000
 5856SOL    HW217969   1.284   4.347   0.066  0.4239  0.2716 -0.3820
 5857SOL     OW17970   4.036   5.056   0.505 -0.2971 -0.1145 -0.1106
 5857SOL    HW117971   4.055   5.009   0.424  1.9811 -1.3124  1.0066
 5857SOL    HW217972   4.055   4.993   0.574  1.3700  1.9311  1.4418
 5858SOL     OW17973   3.605   3.170   1.251  0.1125 -0.1175 -0.3740
 5858SOL    HW117974   3.654   3.090   1.269  0.8469  0.4815  0.4145
 5858SOL    HW217975   3.627   3.228   1.325 -2.0081  0.0836  0.1604
 5859SOL     OW17976   5.275   3.063   2.871 -0.4537  0.2418  0.1735
 5859SOL    HW117977   5.345   3.118   2.837 -0.8276  1.8496  1.8515
 5859SOL    HW217978   5.259   3.097   2.959 -1.8143 -1.5449  0.6600
 5860SOL     OW17979   1.364   2.276   1.061  0.0770 -0.2685  0.2417
 5860SOL    HW117980   1.358   2.336   1.135  1.7693 -2.3295  2.1977
 5860SOL    HW217981   1.428   2.316   1.002  0.8205  0.1062  1.2759
 5861SOL     OW17982   2.363   1.059   0.639  0.2314  0.3459 -0.4362
 5861SOL    HW117983   2.322   0.994   0.582 -0.0325 -0.7655  0.9486
 5861SOL    HW217984   2.290   1.098   0.687  0.2450  2.5979 -2.0806
 5862SOL     OW17985   4.095   1.486   6.771 -0.0600  0.0609  0.2715
 5862SOL    HW117986   4.139   1.459   6.852  3.2089  1.4056 -0.8763
 5862SOL    HW217987   4.117   1.579   6.762  1.6590 -0.5080 -3.1802
 5863SOL     OW17988   1.478   0.814   4.694  0.3546  0.0656 -0.1887
 5863SOL    HW117989   1.513   0.762   4.766  1.8591  0.9617 -0.2357
 5863SOL    HW217990   1.392   0.842   4.724 -0.0659 -1.5636  0.2442
 5864SOL     OW17991   6.267   4.153   6.546 -0.0060 -0.4378  0.6202
 5864SOL    HW117992   6.354   4.139   6.508  0.0556 -2.4640  1.3988
 5864SOL    HW217993   6.210   4.165   6.470  0.5238 -1.8811 -0.0343
 5865SOL     OW17994   3.709   2.063   3.619  0.3102 -0.3861 -0.0106
 5865SOL    HW117995   3.728   1.980   3.665  1.0391  0.2325  0.8404
 5865SOL    HW217996   3.646   2.107   3.675  0.2367 -0.1811 -0.2567
 5866SOL     OW17997   0.840   6.479   3.215  0.3385  0.0265 -0.1658
 5866SOL    HW117998   0.792   6.502   3.294  0.6116  1.3031 -0.3625
 5866SOL    HW217999   0.921   6.439   3.247 -0.4144 -1.2979  0.1692
 5867SOL     OW18000   4.317   5.417   2.950 -0.6192  0.7012 -0.5212
 5867SOL    HW118001   4.287   5.503   2.918  1.9020  2.1015  0.5342
 5867SOL    HW218002   4.359   5.437   3.034 -0.1617 -1.6524 -0.1390
 5868SOL     OW18003   3.415   2.571   5.656  0.0020  0.3971  0.1475
 5868SOL    HW118004   3.398   2.490   5.608  0.7870  0.7284 -0.7295
 5868SOL    HW218005   3.394   2.550   5.747  1.6721 -1.2880  0.2124
 5869SOL     OW18006   3.479   0.598   1.843  0.1983  0.1494  0.1251
 5869SOL    HW118007   3.567   0.594   1.805  1.1192 -2.7555  2.2307
 5869SOL    HW218008   3.449   0.507   1.845 -2.0705  0.8482  1.2050
 5870SOL     OW18009   1.612   1.992   2.829  0.2063  0.2403 -0.5035
 5870SOL    HW118010   1.601   2.013   2.737 -1.1846  1.3386 -0.1247
 5870SOL    HW218011   1.706   1.979   2.841  0.4417  0.4852 -1.9759
 5871SOL     OW18012   5.372   1.708   0.979  0.0409 -0.2612  0.0417
 5871SOL    HW118013   5.290   1.751   1.005 -0.3977  0.3512 -2.1330
 5871SOL    HW218014   5.344   1.631   0.930  0.7717 -0.5792  0.1106
 5872SOL     OW18015   3.626   0.050   2.955  0.2281 -0.2793  0.4502
 5872SOL    HW118016   3.556   0.058   3.020  1.1575 -0.5204  1.5051
 5872SOL    HW218017   3.671   0.134   2.958  1.7495 -1.0788  1.8958
 5873SOL     OW18018   5.652   2.154   6.445  0.7638  0.1575 -0.3467
 5873SOL    HW118019   5.581   2.169   6.508  0.5481 -1.3442 -0.1994
 5873SOL    HW218020   5.634   2.215   6.374  1.0541  1.9733  1.0437
 5874SOL     OW18021   3.431   3.539   3.024 -0.4551  0.0603  0.0519
 5874SOL    HW118022   3.345   3.580   3.013 -0.3160  1.0547  2.1080
 5874SOL    HW218023   3.476   3.556   2.941 -2.1895 -0.4074 -1.0284
 5875SOL     OW18024   5.833   4.903   4.146  0.2787 -0.5590  0.3953
 5875SOL    HW118025   5.785   4.871   4.222  0.6283  0.8975  1.2777
 5875SOL    HW218026   5.766   4.940   4.089 -0.0463 -2.1357 -0.3073
 5876SOL     OW18027   1.021   3.272   4.074  0.7756 -0.5910 -0.2315
 5876SOL    HW118028   0.953   3.339   4.085  2.1152  0.8176 -0.1964
 5876SOL    HW218029   0.999   3.230   3.991 -0.7913 -0.9819  0.3413
 5877SOL     OW18030   1.532   0.705   5.965 -0.4038 -0.0559 -0.1921
 5877SOL    HW118031   1.494   0.623   5.935  1.7549 -1.3380  0.3738
 5877SOL    HW218032   1.551   0.691   6.058 -1.9702  1.9012  0.4914
 5878SOL     OW18033   0.737   2.132   6.405 -0.2454  0.4987 -0.3626
 5878SOL    HW118034   0.788   2.181   6.341 -0.1424 -1.0285 -1.5144
 5878SOL    HW218035   0.650   2.126   6.367 -0.3575  0.1414 -0.0569
 5879SOL     OW18036   3.609   4.974   1.410  0.3522 -0.4937 -0.0484
 5879SOL    HW118037   3.678   4.938   1.466 -0.8392 -0.7412  1.2999
 5879SOL    HW218038   3.546   4.903   1.398  0.8190 -0.6352 -2.2096
 5880SOL     OW18039   6.008   0.747   1.410  0.1890 -0.1527 -0.3063
 5880SOL    HW118040   5.979   0.754   1.501 -0.1794 -1.9192 -0.2484
 5880SOL    HW218041   6.027   0.837   1.384  2.7809  0.2161  2.2858
 5881SOL     OW18042   0.707   1.500   5.436  0.1102  0.4721  0.4759
 5881SOL    HW118043   0.730   1.422   5.487  1.0774  0.0620 -0.5321
 5881SOL    HW218044   0.686   1.466   5.349 -0.3248  1.2641  0.2580
 5882SOL     OW18045   5.601   4.229   3.949  0.0725 -0.7557  0.2168
 5882SOL    HW118046   5.652   4.238   4.029 -2.4768  1.4873  1.7517
 5882SOL    HW218047   5.614   4.312   3.903 -1.5831 -0.4013  0.3308
 5883SOL     OW18048   0.604   5.641   6.111 -0.1589  0.1414 -0.0557
 5883SOL    HW118049   0.589   5.730   6.079 -0.4977 -0.3664 -1.4068
 5883SOL    HW218050   0.532   5.626   6.173 -0.0698  0.8164  0.2231
 5884SOL     OW18051   6.470   1.136   6.394  0.0674  0.3890 -0.5190
 5884SOL    HW118052   6.522   1.127   6.314 -0.3883 -1.0422 -0.6831
 5884SOL    HW218053   6.512   1.077   6.456 -0.3525  0.5197 -0.1045
 5885SOL     OW18054   6.140   5.235   3.556 -1.1566  0.7142  0.0816
 5885SOL    HW118055   6.110   5.323   3.534 -1.3424  1.1224  1.8565
 5885SOL    HW218056   6.167   5.240   3.647 -0.7938 -0.9860  0.1103
 5886SOL     OW18057   0.551   0.603   0.465  1.0100 -0.7127 -0.3756
 5886SOL    HW118058   0.631   0.650   0.441 -0.5551  1.4308 -1.7688
 5886SOL    HW218059   0.511   0.580   0.382 -0.8472  0.1703  0.2290
 5887SOL     OW18060   2.344   0.389   5.769 -0.0241  0.4855 -0.3309
 5887SOL    HW118061   2.273   0.451   5.755  0.3748  1.7827  2.6634
 5887SOL    HW218062   2.306   0.319   5.822  0.7359  0.8932  0.7970
 5888SOL     OW18063   5.887   5.819   1.033 -0.5489  0.2953 -0.3076
 5888SOL    HW118064   5.892   5.766   0.954 -1.0503  0.1730 -0.2586
 5888SOL    HW218065   5.796   5.847   1.038 -1.2486 -1.9395  1.6738
 5889SOL     OW18066   0.996   5.048   4.993 -0.7278  0.0609  0.9641
 5889SOL    HW118067   0.914   5.033   5.040 -1.1780 -0.2631  0.1018
 5889SOL    HW218068   0.981   5.128   4.943 -0.9630 -0.6206 -0.1021
 5890SOL     OW18069   2.364   4.812   5.898 -0.0541  0.1180 -0.0219
 5890SOL    HW118070   2.309   4.766   5.835 -0.1118 -1.1416  0.9061
 5890SOL    HW218071   2.430   4.748   5.924  1.9189  1.5908 -1.1125
 5891SOL     OW18072   1.624   1.180   5.305 -0.0897 -0.1622 -0.1144
 5891SOL    HW118073   1.654   1.270   5.316 -2.3825  0.5720  0.4686
 5891SOL    HW218074   1.585   1.156   5.389  1.5461 -2.1802  0.1618
 5892SOL     OW18075   0.268   3.216   6.618  0.4380 -0.1907  0.6749
 5892SOL    HW118076   0.304   3.161   6.689  2.1466  0.1384  0.1077
 5892SOL    HW218077   0.285   3.305   6.646 -1.8349  0.0938  1.3287
 5893SOL     OW18078   4.507   3.804   3.015  0.5384 -0.0520 -1.0820
 5893SOL    HW118079   4.423   3.777   3.051  0.2339  2.0573 -0.0438
 5893SOL    HW218080   4.563   3.728   3.025  0.3038  0.1006  3.4316
 5894SOL     OW18081   3.762   0.355   4.220  0.2294  0.1336 -0.7844
 5894SOL    HW118082   3.853   0.325   4.222  0.4954  0.8994  0.7006
 5894SOL    HW218083   3.714   0.290   4.271  0.5115  1.2432  0.9905
 5895SOL     OW18084   1.127   6.371   4.358 -0.0775 -0.3510 -0.5798
 5895SOL    HW118085   1.213   6.403   4.383  0.1594 -0.4115 -1.3079
 5895SOL    HW218086   1.122   6.282   4.394  0.1628 -0.3440 -0.5318
 5896SOL     OW18087   1.695   1.340   1.365 -0.4154  0.3895 -0.1983
 5896SOL    HW118088   1.736   1.420   1.333 -1.2446 -0.0472 -2.5469
 5896SOL    HW218089   1.756   1.270   1.340 -1.8925 -0.1402 -2.6319
 5897SOL     OW18090   1.220   4.840   5.067  0.4740  0.0573  0.2903
 5897SOL    HW118091   1.150   4.792   5.110  0.5880 -0.3574  0.0165
 5897SOL    HW218092   1.277   4.869   5.139 -0.0434  0.5151  0.5249
 5898SOL     OW18093   5.885   6.233   4.367  0.0541  0.5618 -0.7719
 5898SOL    HW118094   5.934   6.281   4.300  0.5774  0.1603 -0.6819
 5898SOL    HW218095   5.821   6.181   4.317 -0.3272  1.1280 -0.8855
 5899SOL     OW18096   5.039   0.563   0.637 -0.4386  0.5654  0.2517
 5899SOL    HW118097   5.092   0.615   0.698 -0.8891  0.4614  0.7412
 5899SOL    HW218098   5.076   0.583   0.551  1.1167 -0.3489  0.6688
 5900SOL     OW18099   2.000   5.827   0.140  0.1432 -0.5275  1.1546
 5900SOL    HW118100   1.990   5.818   0.235 -0.2871 -0.1598  1.1490
 5900SOL    HW218101   1.960   5.912   0.120 -0.9715 -1.1816  0.4766
 5901SOL     OW18102   3.452   0.862   2.754 -0.2307  0.0676  0.2385
 5901SOL    HW118103   3.494   0.907   2.680  1.0873 -0.4859  0.6169
 5901SOL    HW218104   3.449   0.770   2.728 -0.8716  0.0412  0.3891
 5902SOL     OW18105   1.631   2.708   0.138  0.3721  0.4069 -0.1919
 5902SOL    HW118106   1.606   2.731   0.228 -0.8882 -0.5331 -0.2707
 5902SOL    HW218107   1.548   2.699   0.092  0.9551 -0.4512 -1.1105
 5903SOL     OW18108   3.923   0.407   4.887 -0.0461  0.0384  0.9022
 5903SOL    HW118109   3.843   0.371   4.924  0.2365  0.3461  1.8583
 5903SOL    HW218110   3.932   0.364   4.802 -3.1367  2.6602 -0.9667
 5904SOL     OW18111   6.542   6.291   5.694 -0.3910 -0.2382 -0.3787
 5904SOL    HW118112   6.509   6.237   5.623  0.5613  0.5471 -1.4540
 5904SOL    HW218113   6.492   6.263   5.771 -1.1401 -1.3995 -1.2577
 5905SOL     OW18114   4.774   5.904   3.242 -0.6010  0.2908  0.0297
 5905SOL    HW118115   4.810   5.876   3.326  0.9784 -0.4673 -0.8427
 5905SOL    HW218116   4.831   5.976   3.214  0.0848 -0.7063 -1.2357
 5906SOL     OW18117   5.255   5.849   2.628  0.2543  0.5677 -0.3807
 5906SOL    HW118118   5.305   5.829   2.548  2.5784  0.6512  0.9538
 5906SOL    HW218119   5.175   5.797   2.620  1.4113 -1.1165 -1.7913
 5907SOL     OW18120   0.271   2.430   4.028 -0.4175 -0.4078 -0.2992
 5907SOL    HW118121   0.270   2.336   4.010 -0.9672 -0.5533  0.4300
 5907SOL    HW218122   0.300   2.436   4.119 -1.3517  0.0576 -0.0222
 5908SOL     OW18123   1.337   6.279   6.620  0.5511 -0.6603 -0.4768
 5908SOL    HW118124   1.274   6.249   6.686  0.1226 -0.0589 -0.5976
 5908SOL    HW218125   1.423   6.262   6.658  0.3086 -0.5895  0.1076
 5909SOL     OW18126   6.204   0.927   0.494 -0.1391  0.1641 -0.3141
 5909SOL    HW118127   6.156   1.009   0.495  0.7218  0.7127  1.4760
 5909SOL    HW218128   6.144   0.863   0.532  0.0786  0.5825  0.7815
 5910SOL     OW18129   3.594   1.682   0.061  0.8018 -0.1302  0.0139
 5910SOL    HW118130   3.667   1.742   0.072  1.8344 -1.1626 -0.9946
 5910SOL    HW218131   3.619   1.604   0.112  0.9460 -0.9337 -1.2513
 5911SOL     OW18132   6.075   6.311   5.680 -0.2817 -0.5682  0.7937
 5911SOL    HW118133   6.044   6.399   5.656 -0.0454 -0.2772  1.5233
 5911SOL    HW218134   6.045   6.300   5.771  1.7376 -0.2695  1.5519
 5912SOL     OW18135   2.811   5.749   5.922  0.0396 -0.1893 -0.1538
 5912SOL    HW118136   2.811   5.829   5.869  3.1190 -0.0891 -0.1759
 5912SOL    HW218137   2.869   5.768   5.995 -0.1161 -2.0179  0.5085
 5913SOL     OW18138   3.601   4.886   4.081  0.3552 -0.4054 -0.1363
 5913SOL    HW118139   3.651   4.954   4.126  2.9578 -0.5678 -2.5724
 5913SOL    HW218140   3.537   4.935   4.029 -0.7516 -0.1072  1.4174
 5914SOL     OW18141   4.349   4.224   6.157  0.0975 -0.0192 -0.3477
 5914SOL    HW118142   4.387   4.276   6.228  2.8565 -0.4658 -1.4049
 5914SOL    HW218143   4.268   4.190   6.195  0.0352  2.0210  1.6092
 5915SOL     OW18144   4.479   4.735   6.595  0.6871  0.0342 -0.1930
 5915SOL    HW118145   4.474   4.828   6.616  0.4252 -0.1055  0.3730
 5915SOL    HW218146   4.553   4.703   6.646  1.9577  0.2900 -1.7888
 5916SOL     OW18147   6.589   4.521   2.425 -0.0692  0.5968 -0.0874
 5916SOL    HW118148   6.523   4.481   2.482 -0.5607 -0.3086 -1.2592
 5916SOL    HW218149   6.647   4.449   2.401  1.3140  1.3549  0.8188
 5917SOL     OW18150   2.133   4.581   0.437  0.4626  0.2191  0.1023
 5917SOL    HW118151   2.079   4.657   0.419  2.0258  1.1655 -0.7852
 5917SOL    HW218152   2.151   4.543   0.351  1.4244  0.0916  0.3503
 5918SOL     OW18153   5.478   6.578   5.864 -0.1176  0.3491  0.2091
 5918SOL    HW118154   5.429   6.636   5.922 -0.4589  0.0640  0.2103
 5918SOL    HW218155   5.567   6.576   5.900 -0.5259 -0.4767  1.2073
 5919SOL     OW18156   1.141   4.263   5.969  0.4842 -0.1500 -0.1095
 5919SOL    HW118157   1.145   4.357   5.984  4.5296  0.0352 -1.2595
 5919SOL    HW218158   1.075   4.252   5.901  0.0621  1.8632 -0.0887
 5920SOL     OW18159   0.588   4.470   3.180  0.1557 -0.1458 -0.1162
 5920SOL    HW118160   0.519   4.461   3.246 -1.4622 -0.8030 -1.8065
 5920SOL    HW218161   0.633   4.551   3.203 -2.0974  1.0780  0.2681
 5921SOL     OW18162   3.216   1.315   4.325 -0.0083 -0.1568  0.7415
 5921SOL    HW118163   3.225   1.284   4.235 -0.1303 -0.1650  0.7312
 5921SOL    HW218164   3.218   1.411   4.317  0.8720 -0.1608  0.8299
 5922SOL     OW18165   6.504   1.793   6.571  0.1339  0.5084  0.4775
 5922SOL    HW118166   6.572   1.726   6.579  1.6326  1.8502 -0.4998
 5922SOL    HW218167   6.427   1.754   6.613  1.6078 -0.8962  2.0247
 5923SOL     OW18168   5.958   5.883   3.641 -0.1702  0.0884  0.4218
 5923SOL    HW118169   6.004   5.800   3.655 -0.2762 -0.1503 -0.5629
 5923SOL    HW218170   5.958   5.894   3.546 -0.8933  0.8021  0.4979
 5924SOL     OW18171   0.855   1.175   6.392 -0.1421 -0.0982  0.5782
 5924SOL    HW118172   0.936   1.124   6.388  0.3028  0.5664  0.9864
 5924SOL    HW218173   0.817   1.153   6.477  0.6042  1.0545  1.2366
 5925SOL     OW18174   2.307   5.619   3.459  0.5130  0.3597  0.3168
 5925SOL    HW118175   2.338   5.554   3.522 -0.9239 -0.7482 -0.0699
 5925SOL    HW218176   2.333   5.584   3.373 -0.3206  0.2507  0.1008
 5926SOL     OW18177   3.172   2.193   1.613  0.2807  0.1047 -0.6716
 5926SOL    HW118178   3.260   2.167   1.586  0.7796  1.4826 -0.4612
 5926SOL    HW218179   3.156   2.274   1.563  0.0161  1.0509  0.8818
 5927SOL     OW18180   6.379   4.558   3.710  0.0474 -0.3078  0.1365
 5927SOL    HW118181   6.411   4.648   3.704 -1.5021  0.3867  1.5220
 5927SOL    HW218182   6.286   4.564   3.685  0.2957 -1.8104 -1.3065
 5928SOL     OW18183   1.128   6.766   3.391 -0.5432 -0.1588 -0.2200
 5928SOL    HW118184   1.151   6.688   3.442 -1.5500 -0.9801 -0.9722
 5928SOL    HW218185   1.178   6.837   3.431  1.0362 -1.3275 -0.0063
 5929SOL     OW18186   6.652   3.166   1.310 -0.0931  0.3150  0.0133
 5929SOL    HW118187   6.593   3.135   1.379 -1.2528  0.5587 -0.8470
 5929SOL    HW218188   6.731   3.112   1.320 -0.8617 -0.7503  0.5131
 5930SOL     OW18189   0.495   4.408   4.293 -0.1495  0.0953 -0.2948
 5930SOL    HW118190   0.414   4.358   4.284  0.3056 -0.9682  1.1263
 5930SOL    HW218191   0.467   4.500   4.291 -1.2208 -0.2287 -1.0880
 5931SOL     OW18192   2.957   6.654   5.691 -0.5541  0.5008 -0.4540
 5931SOL    HW118193   2.995   6.703   5.763 -2.1158 -0.6425  1.2398
 5931SOL    HW218194   2.972   6.562   5.714 -0.6539  0.1057 -1.8476
 5932SOL     OW18195   1.154   4.506   6.117  0.6706 -0.2085 -0.5599
 5932SOL    HW118196   1.144   4.590   6.073  0.0502  0.5356  0.9476
 5932SOL    HW218197   1.147   4.526   6.210  2.3446 -1.6748 -0.0530
 5933SOL     OW18198   2.178   4.273   4.050  0.5417 -0.0541 -0.6754
 5933SOL    HW118199   2.087   4.244   4.039  0.2507  1.1927 -1.7873
 5933SOL    HW218200   2.174   4.338   4.120  0.9229 -1.3617  0.6200
 5934SOL     OW18201   5.799   1.168   4.524  0.0905 -0.2943 -0.5373
 5934SOL    HW118202   5.766   1.247   4.566  0.5903  0.5482 -1.6817
 5934SOL    HW218203   5.721   1.120   4.498 -0.2716  0.8799 -1.7434
 5935SOL     OW18204   4.147   4.924   3.279 -0.3676  0.3356  0.7635
 5935SOL    HW118205   4.209   4.852   3.270 -3.2798 -2.1285 -2.8341
 5935SOL    HW218206   4.125   4.926   3.372  2.1012 -1.3187  1.4498
 5936SOL     OW18207   3.717   0.219   0.184  0.1367  0.1458 -0.3943
 5936SOL    HW118208   3.786   0.160   0.212  0.1124  0.8751  1.3324
 5936SOL    HW218209   3.763   0.299   0.159 -0.0218  0.4673  0.3053
 5937SOL     OW18210   3.917   2.561   0.521 -0.2952 -0.0859 -0.1147
 5937SOL    HW118211   3.924   2.657   0.524 -0.4620 -0.0724 -0.1381
 5937SOL    HW218212   3.826   2.545   0.494  0.2360 -0.2334 -1.9830
 5938SOL     OW18213   4.858   6.199   4.161  0.5211  0.1102 -0.1736
 5938SOL    HW118214   4.889   6.290   4.162  0.0564  0.2906  1.4810
 5938SOL    HW218215   4.790   6.198   4.094 -0.5002  1.3928  0.7736
 5939SOL     OW18216   4.480   0.151   3.715  0.0227 -0.4439 -0.7052
 5939SOL    HW118217   4.477   0.071   3.768 -0.3754 -0.8926 -1.3789
 5939SOL    HW218218   4.491   0.119   3.625  1.1005  0.3193 -0.8575
 5940SOL     OW18219   1.406   3.992   5.651 -0.4378  0.0851 -0.7549
 5940SOL    HW118220   1.394   4.081   5.618 -0.9506  0.8186  1.2764
 5940SOL    HW218221   1.420   4.002   5.745  1.8203 -1.8303 -0.7829
 5941SOL     OW18222   5.523   3.971   3.690 -0.7068 -0.3657  0.1083
 5941SOL    HW118223   5.482   4.046   3.646 -0.3250 -0.1735  0.0749
 5941SOL    HW218224   5.595   4.010   3.741  1.3283 -0.9572 -2.1090
 5942SOL     OW18225   3.736   1.898   1.460  0.1532 -0.5692 -0.3703
 5942SOL    HW118226   3.697   1.812   1.480  0.5793 -0.4108  1.1927
 5942SOL    HW218227   3.663   1.960   1.470  0.1775 -0.5836 -0.1017
 5943SOL     OW18228   1.857   0.134   1.904 -0.0027 -0.1815 -0.2540
 5943SOL    HW118229   1.802   0.077   1.958  0.4368 -0.8754 -0.5306
 5943SOL    HW218230   1.897   0.195   1.967 -0.7690  0.0779 -0.0026
 5944SOL     OW18231   2.557   4.956   0.835  0.0615 -0.2094 -0.4349
 5944SOL    HW118232   2.532   4.968   0.927  0.5097 -0.7335 -0.2394
 5944SOL    HW218233   2.569   5.045   0.801  0.3209 -0.0241  0.1323
 5945SOL     OW18234   0.350   1.329   5.059  0.2088 -0.0826  0.7684
 5945SOL    HW118235   0.317   1.277   4.986  0.3064  1.3194 -0.3170
 5945SOL    HW218236   0.418   1.275   5.099 -0.9893 -1.5535  0.8659
 5946SOL     OW18237   5.578   3.054   3.883 -0.7570 -0.4634  0.2860
 5946SOL    HW118238   5.509   3.072   3.819  0.5239 -1.4022 -1.4430
 5946SOL    HW218239   5.562   2.964   3.910 -2.1848  0.3824  2.5334
 5947SOL     OW18240   5.456   5.826   2.358  0.2670  0.5001  0.4182
 5947SOL    HW118241   5.499   5.883   2.293 -1.4556 -0.0427 -1.2991
 5947SOL    HW218242   5.455   5.740   2.316 -2.1087  0.4255  0.5348
 5948SOL     OW18243   3.997   1.382   2.304 -0.4770  0.1289  0.3048
 5948SOL    HW118244   3.984   1.477   2.301 -0.2721  0.1417 -0.6973
 5948SOL    HW218245   3.942   1.348   2.233 -0.4970 -0.4932  0.6135
 5949SOL     OW18246   1.048   2.551   5.807 -0.3649  0.5024  0.3995
 5949SOL    HW118247   0.975   2.602   5.844  0.0841  1.4867 -0.0248
 5949SOL    HW218248   1.066   2.593   5.723  1.1569  0.7285  0.8079
 5950SOL     OW18249   6.724   5.829   4.810 -0.3426 -0.7405 -0.6037
 5950SOL    HW118250   6.769   5.883   4.745  1.0705 -1.5271 -0.3303
 5950SOL    HW218251   6.794   5.799   4.868 -1.4003 -1.0619  0.5574
 5951SOL     OW18252   0.906   6.298   1.254  0.2760 -0.2195 -0.7976
 5951SOL    HW118253   0.901   6.374   1.196 -0.2917  0.8745  0.6179
 5951SOL    HW218254   0.953   6.330   1.332  0.0917 -1.3350 -0.1995
 5952SOL     OW18255   4.710   2.362   2.011 -0.6081  0.4398 -0.1449
 5952SOL    HW118256   4.653   2.348   1.935  0.7338  1.3290 -1.3654
 5952SOL    HW218257   4.784   2.302   1.997 -0.3951  0.5358  0.5263
 5953SOL     OW18258   5.376   2.607   4.891  0.5586  0.0470  0.7056
 5953SOL    HW118259   5.467   2.610   4.861  0.7510  0.1691  1.2871
 5953SOL    HW218260   5.382   2.585   4.984 -0.0944 -1.9439  0.3232
 5954SOL     OW18261   2.894   6.780   0.586 -0.1134 -0.1394 -0.6614
 5954SOL    HW118262   2.940   6.855   0.549 -0.4852 -0.2600 -1.3832
 5954SOL    HW218263   2.883   6.720   0.513  1.8360 -1.7632  0.2640
 5955SOL     OW18264   5.602   5.678   5.308 -0.2512 -0.7900 -0.2393
 5955SOL    HW118265   5.615   5.766   5.271  2.6321 -0.2167  1.8181
 5955SOL    HW218266   5.513   5.681   5.344 -1.2913  0.2424 -2.6581
 5956SOL     OW18267   2.943   2.564   5.313 -0.3708  0.0542  0.3511
 5956SOL    HW118268   2.888   2.526   5.245  0.2365 -1.3940  0.6307
 5956SOL    HW218269   2.901   2.648   5.333 -0.5928  0.4886 -1.7245
 5957SOL     OW18270   1.158   2.472   0.219  0.4686  0.3144  0.3398
 5957SOL    HW118271   1.251   2.496   0.222  0.1812  1.4845  0.3448
 5957SOL    HW218272   1.112   2.551   0.248 -0.5985  0.1953 -0.9483
 5958SOL     OW18273   2.541   3.130   0.804  0.1233 -0.0921 -0.2931
 5958SOL    HW118274   2.574   3.077   0.877  0.2056  1.3496  0.7529
 5958SOL    HW218275   2.449   3.147   0.826  0.5739  1.7279  0.3626
 5959SOL     OW18276   0.908   4.624   6.524 -0.2828  0.2791 -0.0411
 5959SOL    HW118277   0.837   4.655   6.581  0.7426 -0.4388  1.7263
 5959SOL    HW218278   0.871   4.548   6.479 -0.4031 -0.6636  1.5658
 5960SOL     OW18279   4.587   3.118   3.166 -0.2259  0.3909 -0.0852
 5960SOL    HW118280   4.493   3.111   3.182 -0.1492  2.1332  1.5748
 5960SOL    HW218281   4.625   3.043   3.212 -0.6497  1.1422  1.5922
 5961SOL     OW18282   0.229   1.165   3.875  0.0372  0.2616  0.3335
 5961SOL    HW118283   0.172   1.094   3.844  1.2668 -0.4765 -0.3509
 5961SOL    HW218284   0.217   1.166   3.970 -0.1405 -0.7532  0.3329
 5962SOL     OW18285   6.156   0.092   0.108  0.1384 -0.1537  0.2991
 5962SOL    HW118286   6.189   0.160   0.167 -0.8635 -0.3138  1.0681
 5962SOL    HW218287   6.152   0.013   0.161  1.0492 -0.7665 -0.5213
 5963SOL     OW18288   0.949   4.698   3.362 -0.0545  0.3699  0.4905
 5963SOL    HW118289   0.958   4.790   3.388 -0.2940  0.3579  0.6211
 5963SOL    HW218290   1.024   4.655   3.403 -0.7494  0.2430  1.6887
 5964SOL     OW18291   1.742   1.391   4.536  0.2744 -0.8135  0.3128
 5964SOL    HW118292   1.837   1.383   4.529  0.4625  0.3785  1.1962
 5964SOL    HW218293   1.729   1.471   4.588 -1.2234 -0.2725 -0.8287
 5965SOL     OW18294   2.384   1.765   0.215  0.0237 -0.1625  0.1267
 5965SOL    HW118295   2.468   1.776   0.259  0.7808 -2.3578 -0.5942
 5965SOL    HW218296   2.325   1.733   0.283 -0.0454  0.6571  0.4658
 5966SOL     OW18297   3.182   3.509   3.594  0.0396 -0.3395  0.2463
 5966SOL    HW118298   3.243   3.437   3.610 -1.2115 -1.2056  1.3511
 5966SOL    HW218299   3.100   3.480   3.635 -0.4885  1.7528  0.7628
 5967SOL     OW18300   6.143   4.654   0.303  0.0607 -0.4454 -0.4165
 5967SOL    HW118301   6.223   4.601   0.307  0.5023  0.2701  1.4546
 5967SOL    HW218302   6.101   4.640   0.388 -1.1721  0.1768 -0.8890
 5968SOL     OW18303   1.054   1.738   1.586  0.3438 -0.6203 -0.1877
 5968SOL    HW118304   1.066   1.720   1.679  2.0196  1.5073  0.0919
 5968SOL    HW218305   0.992   1.811   1.582  0.8402 -0.2115 -0.6802
 5969SOL     OW18306   1.948   0.108   0.384 -0.6171 -0.1547 -0.4580
 5969SOL    HW118307   2.010   0.044   0.419 -0.8435 -0.2862 -0.2989
 5969SOL    HW218308   1.948   0.179   0.447  0.5511  0.5662 -1.2347
 5970SOL     OW18309   6.640   6.142   0.131 -0.6224 -0.0506  0.1509
 5970SOL    HW118310   6.550   6.118   0.153 -0.7063  1.0985  1.1407
 5970SOL    HW218311   6.639   6.237   0.123  0.0164 -0.1724 -2.2367
 5971SOL     OW18312   4.601   4.255   2.440 -0.1827  0.3386  0.8135
 5971SOL    HW118313   4.658   4.207   2.380 -2.1120  0.8121 -1.5363
 5971SOL    HW218314   4.634   4.345   2.437 -0.6651  0.4983 -0.1146
 5972SOL     OW18315   2.994   0.464   4.235  0.0711  0.3949  0.4759
 5972SOL    HW118316   3.079   0.496   4.205  0.1590 -1.6545 -1.7343
 5972SOL    HW218317   2.930   0.519   4.190  0.2467 -0.9680 -1.5664
 5973SOL     OW18318   2.913   6.026   1.070 -0.2572 -0.0628 -0.2786
 5973SOL    HW118319   2.907   5.931   1.080 -2.0936  0.0172 -0.2488
 5973SOL    HW218320   2.831   6.059   1.106 -0.7765  1.3430 -2.5604
 5974SOL     OW18321   0.924   3.700   2.288 -0.2092 -0.2664 -0.7213
 5974SOL    HW118322   0.967   3.692   2.203  1.6642 -1.4375  0.2922
 5974SOL    HW218323   0.938   3.791   2.314  0.9240 -0.4166 -0.7961
 5975SOL     OW18324   3.628   5.998   0.135 -0.7380  0.2564 -0.8644
 5975SOL    HW118325   3.670   6.068   0.185 -0.5906 -0.3951 -0.0597
 5975SOL    HW218326   3.559   5.966   0.193  1.6054 -2.8717  0.5157
 5976SOL     OW18327   2.164   2.476   1.987  0.6072  0.2209  0.4709
 5976SOL    HW118328   2.194   2.560   2.021  1.2890 -0.2184  0.9888
 5976SOL    HW218329   2.243   2.421   1.988 -0.1058 -0.8310  1.4115
 5977SOL     OW18330   0.777   1.514   1.528  0.3606 -0.4272 -0.1506
 5977SOL    HW118331   0.754   1.606   1.513 -0.7810 -0.6142  0.3030
 5977SOL    HW218332   0.710   1.483   1.590  1.5475 -1.1863  0.8019
 5978SOL     OW18333   4.894   1.515   3.449  0.3520 -0.1824 -0.5663
 5978SOL    HW118334   4.981   1.475   3.448 -0.0199 -1.0188  0.1224
 5978SOL    HW218335   4.860   1.498   3.537  0.2739  1.8747 -0.1416
 5979SOL     OW18336   0.059   5.615   3.131  0.1241  0.0595  0.1296
 5979SOL    HW118337   0.030   5.561   3.058 -0.7027 -0.8374  1.0686
 5979SOL    HW218338   0.146   5.582   3.153 -0.9084 -1.9204  1.5675
 5980SOL     OW18339   1.218   4.327   1.795  0.1344 -0.5926 -0.6803
 5980SOL    HW118340   1.287   4.263   1.810  0.1655 -0.5020 -0.4377
 5980SOL    HW218341   1.138   4.274   1.785  0.3220 -0.7277 -1.4970
 5981SOL     OW18342   5.910   4.528   2.802  0.8266  0.3024  0.0347
 5981SOL    HW118343   5.917   4.623   2.788 -0.1120  0.6693  1.7401
 5981SOL    HW218344   5.874   4.520   2.890  0.8366 -1.6595 -0.1050
 5982SOL     OW18345   5.629   6.633   3.238  0.4496 -0.3700 -0.4965
 5982SOL    HW118346   5.674   6.649   3.154 -1.0757  2.0806 -0.9644
 5982SOL    HW218347   5.661   6.703   3.295 -0.0238 -0.8187  0.3316
 5983SOL     OW18348   2.294   1.700   4.846  0.4427  0.2836  0.4886
 5983SOL    HW118349   2.328   1.735   4.929  0.4774  2.5013 -0.3974
 5983SOL    HW218350   2.202   1.680   4.865  0.7159 -0.2771  1.3259
 5984SOL     OW18351   4.169   3.867   1.513  0.1331 -0.5578  0.4657
 5984SOL    HW118352   4.093   3.925   1.519 -0.7523 -1.4946 -0.8076
 5984SOL    HW218353   4.243   3.925   1.495 -0.8300  0.1646 -1.4342
 5985SOL     OW18354   4.306   4.783   6.184 -0.2255 -0.5191  0.1346
 5985SOL    HW118355   4.233   4.751   6.132  0.6220 -1.7437 -0.3641
 5985SOL    HW218356   4.275   4.778   6.274 -1.3130  0.5502 -0.1622
 5986SOL     OW18357   5.627   4.917   0.636 -0.7089  0.2146 -0.3512
 5986SOL    HW118358   5.561   4.868   0.588 -0.6460  1.4164 -1.7405
 5986SOL    HW218359   5.680   4.850   0.680 -2.8532 -0.7715  0.8877
 5987SOL     OW18360   2.435   2.589   5.621  0.5872 -0.5717  0.6013
 5987SOL    HW118361   2.427   2.653   5.550  2.2139  1.4101  2.0849
 5987SOL    HW218362   2.358   2.603   5.675 -0.0432 -1.2614 -0.0847
 5988SOL     OW18363   6.385   0.739   1.096 -0.4707 -0.0136  0.3760
 5988SOL    HW118364   6.445   0.668   1.118 -1.0440  0.1332  2.6696
 5988SOL    HW218365   6.305   0.720   1.147 -1.7727  0.6659 -1.3179
 5989SOL     OW18366   1.941   4.791   3.135 -0.1769 -0.0056  0.0700
 5989SOL    HW118367   2.016   4.764   3.188  0.0811  0.1920 -0.1966
 5989SOL    HW218368   1.865   4.757   3.183  0.0650  0.0158  0.4728
 5990SOL     OW18369   0.909   4.318   0.073 -0.8223 -0.0205  0.1757
 5990SOL    HW118370   0.843   4.328   0.004 -0.1983 -0.3884 -0.4895
 5990SOL    HW218371   0.921   4.224   0.081  1.1509  0.0750 -1.2131
 5991SOL     OW18372   3.568   2.190   0.458  0.1053 -0.2326 -0.0588
 5991SOL    HW118373   3.490   2.223   0.413  0.8675  1.9213  0.0703
 5991SOL    HW218374   3.641   2.237   0.417  0.9542  0.8464  2.4950
 5992SOL     OW18375   0.990   5.399   1.081 -0.2409  0.1777  0.4314
 5992SOL    HW118376   0.949   5.444   1.155  0.3275  1.6392 -0.1059
 5992SOL    HW218377   1.067   5.452   1.060  0.0314 -0.6307 -0.7241
 5993SOL     OW18378   6.411   0.611   2.533 -0.4399 -0.1912 -0.2958
 5993SOL    HW118379   6.365   0.647   2.457  0.3031 -0.3558 -0.8404
 5993SOL    HW218380   6.492   0.661   2.538  0.0154 -0.9086 -0.2796
 5994SOL     OW18381   2.620   3.011   0.566  0.0853 -0.0839 -0.5499
 5994SOL    HW118382   2.541   2.961   0.541  0.1922 -0.5699  0.0510
 5994SOL    HW218383   2.597   3.052   0.649  0.2799  0.2127 -0.6430
 5995SOL     OW18384   5.440   3.470   3.152 -0.9030 -0.0668  0.4551
 5995SOL    HW118385   5.467   3.532   3.220 -0.1422  0.5388 -0.3789
 5995SOL    HW218386   5.472   3.385   3.183 -0.7285  0.1746  0.9461
 5996SOL     OW18387   1.591   1.447   4.298  0.1708 -0.2517 -0.0826
 5996SOL    HW118388   1.640   1.440   4.380  1.2847 -0.0590 -0.7105
 5996SOL    HW218389   1.572   1.356   4.273  0.5152 -0.3465 -0.0067
 5997SOL     OW18390   5.776   6.026   5.020  0.3328 -0.3540  0.1743
 5997SOL    HW118391   5.803   6.074   5.098 -1.4025  1.4524 -0.2359
 5997SOL    HW218392   5.738   6.094   4.963  0.4969 -1.7969 -1.7438
 5998SOL     OW18393   1.953   5.884   1.225 -0.0144  0.3328  0.1511
 5998SOL    HW118394   1.904   5.910   1.147 -2.5170  0.6172  1.6991
 5998SOL    HW218395   1.966   5.965   1.273  1.6354  0.1813  0.0197
 5999SOL     OW18396   0.805   4.597   3.627 -0.4604 -0.0095 -0.3103
 5999SOL    HW118397   0.754   4.677   3.636 -0.9424 -0.2660 -0.6676
 5999SOL    HW218398   0.852   4.608   3.544  0.3293  0.3677  0.1816
 6000SOL     OW18399   0.654   3.777   4.225  0.0623  0.4238  0.7553
 6000SOL    HW118400   0.704   3.696   4.237 -0.8048 -0.2172  0.1483
 6000SOL    HW218401   0.624   3.800   4.313 -0.4058 -0.3989  0.8228
 6001SOL     OW18402   1.165   3.888   4.918 -0.3197 -0.5081  0.4906
 6001SOL    HW118403   1.190   3.796   4.910 -2.7812 -1.2487  0.4565
 6001SOL    HW218404   1.090   3.898   4.859  0.6933  1.8927 -0.5535
 6002SOL     OW18405   4.499   5.687   0.306  0.4120  0.1895 -0.3148
 6002SOL    HW118406   4.416   5.662   0.347 -0.0150  0.3326 -1.0548
 6002SOL    HW218407   4.524   5.768   0.350  1.5054 -1.1652  1.6904
 6003SOL     OW18408   5.432   4.646   4.341  0.4649  0.3177  0.2746
 6003SOL    HW118409   5.507   4.596   4.373  2.8040  3.1620 -0.2178
 6003SOL    HW218410   5.448   4.655   4.247 -1.0734  0.1726 -0.0256
 6004SOL     OW18411   3.810   4.912   1.179  0.5314  0.1303 -0.3069
 6004SOL    HW118412   3.829   4.840   1.119 -1.1190 -0.4306 -0.1989
 6004SOL    HW218413   3.829   4.877   1.266 -1.1628 -0.5574 -0.1660
 6005SOL     OW18414   6.224   3.751   5.871 -0.9912  0.0820  0.4643
 6005SOL    HW118415   6.140   3.738   5.827 -0.7862 -0.7197  0.3015
 6005SOL    HW218416   6.283   3.781   5.801 -0.4762 -1.8813 -0.0178
 6006SOL     OW18417   3.373   4.101   0.236 -0.4626  0.3437 -0.0068
 6006SOL    HW118418   3.290   4.088   0.281 -0.5192  0.6299 -0.0273
 6006SOL    HW218419   3.350   4.149   0.156 -0.1346  1.4532  0.5488
 6007SOL     OW18420   6.715   5.737   5.325 -0.0383  0.2518 -0.3760
 6007SOL    HW118421   6.789   5.776   5.281  1.6077 -1.1399  0.9967
 6007SOL    HW218422   6.690   5.663   5.269 -0.5558  0.8515 -0.9498
 6008SOL     OW18423   1.021   4.804   2.898  0.5337 -0.3110  0.6703
 6008SOL    HW118424   1.086   4.770   2.835  2.5346  0.5175  2.1736
 6008SOL    HW218425   0.981   4.878   2.853  1.0845 -0.4516 -0.0828
 6009SOL     OW18426   4.603   6.421   0.356  0.3965  0.6321 -0.8430
 6009SOL    HW118427   4.635   6.429   0.446  1.0947 -0.6423 -0.9571
 6009SOL    HW218428   4.509   6.441   0.362  0.3751  0.2756  0.2284
 6010SOL     OW18429   5.021   3.342   0.333 -0.5274 -0.1196  0.0497
 6010SOL    HW118430   4.966   3.388   0.269 -1.5940  0.9309  1.6564
 6010SOL    HW218431   5.002   3.249   0.318 -2.0563  0.1818 -0.0749
 6011SOL     OW18432   0.578   5.311   3.582  0.1810  0.4571  0.0184
 6011SOL    HW118433   0.654   5.369   3.586 -0.0844  0.7855  0.4257
 6011SOL    HW218434   0.593   5.246   3.651 -0.0467  0.7009  0.3017
 6012SOL     OW18435   4.131   4.153   4.959  0.2723  0.2986 -0.4750
 6012SOL    HW118436   4.200   4.193   5.011 -0.0972  1.1271 -0.5959
 6012SOL    HW218437   4.152   4.060   4.958  1.2364  0.5048 -0.3002
 6013SOL     OW18438   4.640   3.739   3.840  0.2602  0.4516  0.5298
 6013SOL    HW118439   4.656   3.658   3.792  0.6363 -0.5689  2.2814
 6013SOL    HW218440   4.706   3.800   3.809  0.2713 -0.0596 -0.4763
 6014SOL     OW18441   2.175   0.743   5.128 -0.8467  0.4698 -0.2501
 6014SOL    HW118442   2.103   0.789   5.172 -0.6280  1.3772 -0.8062
 6014SOL    HW218443   2.218   0.810   5.075  0.2697 -0.1112 -0.1219
 6015SOL     OW18444   2.418   5.591   5.295 -0.0731  0.0727 -0.4468
 6015SOL    HW118445   2.360   5.664   5.318  1.2217  1.0401 -0.0823
 6015SOL    HW218446   2.407   5.529   5.367  0.7949  1.1650  0.6810
 6016SOL     OW18447   0.751   3.832   1.066  0.3022 -0.2352 -0.0099
 6016SOL    HW118448   0.799   3.751   1.047 -0.6829 -1.2858  1.6496
 6016SOL    HW218449   0.694   3.846   0.990 -0.6430 -2.0115  0.3239
 6017SOL     OW18450   3.778   5.679   4.559  0.7222 -1.0849 -0.5352
 6017SOL    HW118451   3.802   5.753   4.616  1.3613 -2.7376  1.4600
 6017SOL    HW218452   3.860   5.658   4.513  0.5739 -0.6651 -1.0027
 6018SOL     OW18453   4.298   4.982   3.634  0.5667 -0.1448  0.4255
 6018SOL    HW118454   4.269   5.063   3.677  0.2574 -0.1533  0.2353
 6018SOL    HW218455   4.222   4.924   3.639  0.4558 -0.0774 -0.2998
 6019SOL     OW18456   5.201   2.980   0.616  0.0806 -0.1149  0.4280
 6019SOL    HW118457   5.184   3.057   0.672 -0.3279  1.1194 -1.3152
 6019SOL    HW218458   5.242   3.016   0.538  1.0975 -1.8674  0.1031
 6020SOL     OW18459   5.686   2.799   2.996  0.5912 -0.0461  0.3170
 6020SOL    HW118460   5.663   2.840   2.912  1.3100 -1.3085 -0.5241
 6020SOL    HW218461   5.628   2.723   3.001 -0.2156  0.6101  1.5155
 6021SOL     OW18462   1.799   1.457   1.763  0.2423  0.3058  0.0870
 6021SOL    HW118463   1.876   1.442   1.817  0.4676 -1.0610 -0.5695
 6021SOL    HW218464   1.824   1.528   1.703  1.5215 -1.0616 -1.0675
 6022SOL     OW18465   5.566   1.756   0.512 -0.0652 -0.1979 -0.3047
 6022SOL    HW118466   5.605   1.696   0.575  0.8597  2.0126  1.3339
 6022SOL    HW218467   5.477   1.722   0.499  0.2230 -1.5530  1.0019
 6023SOL     OW18468   1.204   4.739   3.432 -0.0608  0.0044  0.1790
 6023SOL    HW118469   1.273   4.784   3.482  0.7658 -0.3094 -0.6467
 6023SOL    HW218470   1.213   4.772   3.343 -0.9549 -0.0811  0.0491
 6024SOL     OW18471   1.815   6.281   4.641  0.0571  0.8143 -0.4340
 6024SOL    HW118472   1.818   6.325   4.726  1.1756  0.5684 -0.3311
 6024SOL    HW218473   1.890   6.221   4.643  1.2040  2.1090 -2.2903
 6025SOL     OW18474   5.551   3.255   4.212 -0.7560  0.2930  0.3962
 6025SOL    HW118475   5.500   3.211   4.281 -0.5020  0.2412  0.5510
 6025SOL    HW218476   5.560   3.345   4.244  0.9993 -0.1856  1.3564
 6026SOL     OW18477   2.702   4.264   1.524  0.1695 -0.5762  0.0781
 6026SOL    HW118478   2.704   4.171   1.547  0.3489 -0.0279  2.5554
 6026SOL    HW218479   2.794   4.291   1.522  0.0567 -0.0182  1.4912
 6027SOL     OW18480   1.559   0.139   5.841 -0.3086  0.2521  0.0558
 6027SOL    HW118481   1.568   0.111   5.932  0.3133 -1.5196 -0.5199
 6027SOL    HW218482   1.646   0.168   5.816 -0.1748 -0.4951 -0.3573
 6028SOL     OW18483   6.730   1.040   0.740 -0.1761 -0.9915  0.2131
 6028SOL    HW118484   6.734   0.991   0.822  1.8287 -0.4927  0.4597
 6028SOL    HW218485   6.701   1.127   0.765 -1.4181 -1.3510  0.0979
 6029SOL     OW18486   4.216   2.486   2.939 -0.0840 -0.4053 -0.3976
 6029SOL    HW118487   4.177   2.399   2.950 -0.7819  0.1284  1.6472
 6029SOL    HW218488   4.159   2.545   2.989  0.2722  1.2947 -1.8652
 6030SOL     OW18489   3.979   1.945   3.254 -0.6761  0.2654 -0.3774
 6030SOL    HW118490   3.924   1.869   3.275 -0.9304 -0.2958 -2.7896
 6030SOL    HW218491   3.921   2.020   3.265 -0.7806  0.0216  0.8353
 6031SOL     OW18492   5.296   6.544   0.167  0.0058  0.5493  0.4008
 6031SOL    HW118493   5.254   6.462   0.195  1.0912 -0.0505  0.3373
 6031SOL    HW218494   5.224   6.605   0.156 -0.7504 -0.1501  1.3022
 6032SOL     OW18495   2.953   0.567   1.989  0.3880 -0.0735  0.1913
 6032SOL    HW118496   3.000   0.614   2.059  0.8786  1.0766 -0.8602
 6032SOL    HW218497   2.957   0.475   2.015  0.5084  0.3234  1.6995
 6033SOL     OW18498   6.690   5.532   1.194 -0.2681 -0.5638 -0.1637
 6033SOL    HW118499   6.782   5.553   1.177  0.1302  2.2945  3.9574
 6033SOL    HW218500   6.641   5.579   1.127  1.2558  0.6329 -0.4843
 6034SOL     OW18501   1.783   2.953   4.732  0.2730  0.0276  0.1164
 6034SOL    HW118502   1.859   2.894   4.728 -1.3871 -2.3027  0.8496
 6034SOL    HW218503   1.726   2.924   4.661 -1.0766  0.0210  1.1641
 6035SOL     OW18504   4.942   3.951   5.998  0.2718  0.6370  0.5374
 6035SOL    HW118505   4.883   3.939   6.073  0.3598  0.1204  0.5313
 6035SOL    HW218506   4.955   4.045   5.993 -0.7692  0.7894  0.3797
 6036SOL     OW18507   4.056   5.751   1.070 -0.2160 -0.3536 -0.3481
 6036SOL    HW118508   4.112   5.766   0.994  0.9571 -1.7433  0.1677
 6036SOL    HW218509   4.118   5.735   1.142 -1.2883 -0.1143  0.6593
 6037SOL     OW18510   6.693   3.747   5.462 -0.0725 -0.0704 -0.2621
 6037SOL    HW118511   6.769   3.752   5.404  1.9236  1.3375  2.2235
 6037SOL    HW218512   6.712   3.672   5.519  0.2209  1.1008  1.2555
 6038SOL     OW18513   1.043   2.862   5.773 -0.5565  0.7770  0.2035
 6038SOL    HW118514   1.101   2.932   5.804 -0.0317  1.0070 -1.2347
 6038SOL    HW218515   0.965   2.870   5.828  0.1048  1.5007  1.0845
 6039SOL     OW18516   1.684   2.271   4.981 -0.3078  0.4361 -0.1924
 6039SOL    HW118517   1.620   2.323   5.030  0.6538  3.2084 -1.5981
 6039SOL    HW218518   1.759   2.262   5.041  0.4075  2.7858 -0.6243
 6040SOL     OW18519   2.998   3.948   5.165  0.1129  0.0328 -0.1488
 6040SOL    HW118520   2.997   3.999   5.084  0.3397 -1.1084 -0.8950
 6040SOL    HW218521   3.023   4.011   5.233 -3.5721  1.8878 -0.2842
 6041SOL     OW18522   2.606   4.895   4.569  0.1468 -0.2038  0.2557
 6041SOL    HW118523   2.681   4.891   4.510 -0.6916 -1.4009 -0.7955
 6041SOL    HW218524   2.644   4.895   4.657  1.3934  0.0892 -0.2670
 6042SOL     OW18525   3.487   3.301   3.174  0.1538 -0.1532 -0.1857
 6042SOL    HW118526   3.402   3.258   3.165 -0.7279  1.1953  1.2699
 6042SOL    HW218527   3.472   3.391   3.144  1.1853 -0.0171 -0.3291
 6043SOL     OW18528   4.853   3.931   3.765  0.4984 -0.3354 -0.2128
 6043SOL    HW118529   4.836   3.940   3.672  0.3188  0.7634 -0.0865
 6043SOL    HW218530   4.941   3.894   3.770  0.4371 -0.5669 -0.8173
 6044SOL     OW18531   2.631   1.973   2.827  0.2677 -0.1141  0.1198
 6044SOL    HW118532   2.579   1.894   2.835  2.0303 -1.3633 -0.0955
 6044SOL    HW218533   2.584   2.039   2.877 -0.5859 -1.6382  1.4026
 6045SOL     OW18534   3.189   1.752   6.032 -0.0317 -0.0681  0.1847
 6045SOL    HW118535   3.163   1.726   5.944  0.0414  2.1042 -0.5361
 6045SOL    HW218536   3.252   1.685   6.059 -0.3748 -1.0063 -1.2169
 6046SOL     OW18537   1.600   2.429   2.695 -0.1819  0.4064 -0.1485
 6046SOL    HW118538   1.614   2.369   2.768  0.5359  1.8283  0.9564
 6046SOL    HW218539   1.548   2.380   2.632 -0.0354 -1.1802  0.9159
 6047SOL     OW18540   1.366   1.823   6.645  0.5234 -0.0742 -0.1039
 6047SOL    HW118541   1.285   1.774   6.630  1.1219 -1.2457  0.3958
 6047SOL    HW218542   1.428   1.789   6.580  1.6980 -1.8323  1.8322
 6048SOL     OW18543   6.066   0.600   3.192  0.0230  0.2189  0.6356
 6048SOL    HW118544   5.992   0.554   3.232 -1.9492  3.7359  1.4344
 6048SOL    HW218545   6.065   0.572   3.100 -0.6560 -1.6877  1.1674
 6049SOL     OW18546   2.193   5.098   5.845  0.0514 -0.3041 -0.0115
 6049SOL    HW118547   2.206   5.181   5.800 -1.1688  1.1640  2.1337
 6049SOL    HW218548   2.282   5.067   5.865  0.5273  0.4601 -0.8764
 6050SOL     OW18549   1.344   6.313   0.823  0.2842  0.4117  0.0098
 6050SOL    HW118550   1.398   6.271   0.757  2.2344 -0.9535  2.3193
 6050SOL    HW218551   1.324   6.399   0.787  2.1275  0.1017 -1.9022
 6051SOL     OW18552   4.733   6.779   0.533  0.1249  0.0738 -0.1292
 6051SOL    HW118553   4.823   6.804   0.557  0.0772  0.1068  0.0153
 6051SOL    HW218554   4.726   6.687   0.559  0.2537 -0.0506 -0.5281
 6052SOL     OW18555   0.340   0.700   5.429 -0.1108  0.0449 -0.0416
 6052SOL    HW118556   0.427   0.731   5.406 -0.5187  2.7236  1.4736
 6052SOL    HW218557   0.353   0.648   5.508  0.0836  1.1747  0.6964
 6053SOL     OW18558   2.322   5.041   0.520  0.4003  0.2787 -0.8896
 6053SOL    HW118559   2.416   5.056   0.519  0.7023 -1.3620 -0.4119
 6053SOL    HW218560   2.299   5.028   0.428  0.5101  1.2931 -1.0722
 6054SOL     OW18561   1.999   5.781   4.951 -0.4873 -0.0297 -0.0787
 6054SOL    HW118562   2.008   5.686   4.944  0.0359  0.0058  0.0763
 6054SOL    HW218563   1.984   5.796   5.045  0.1961  0.0999  0.0114
 6055SOL     OW18564   1.306   5.378   5.286  0.9227  0.7117 -0.3879
 6055SOL    HW118565   1.374   5.314   5.266 -0.2713 -0.2063 -1.7098
 6055SOL    HW218566   1.249   5.378   5.209 -3.6278 -2.5674  2.4360
 6056SOL     OW18567   2.698   4.523   0.462  0.3519 -0.0826 -0.0535
 6056SOL    HW118568   2.643   4.445   0.452 -0.7362  0.6020  0.4443
 6056SOL    HW218569   2.656   4.573   0.532  0.4407  1.4375 -1.0323
 6057SOL     OW18570   3.077   1.774   3.832  0.3202  0.2669  0.2470
 6057SOL    HW118571   3.051   1.862   3.862 -0.5823  0.1929 -0.2541
 6057SOL    HW218572   3.166   1.763   3.863  0.2766  1.1778  0.7340
 6058SOL     OW18573   2.502   5.915   5.461 -0.1733  0.0891 -0.4176
 6058SOL    HW118574   2.526   5.928   5.369  0.9343 -0.4112 -0.2219
 6058SOL    HW218575   2.443   5.840   5.461  1.3248 -1.1350 -0.5603
 6059SOL     OW18576   3.830   3.692   0.798  0.6908 -0.0939 -0.2339
 6059SOL    HW118577   3.812   3.640   0.720  0.8263 -0.3175 -0.1192
 6059SOL    HW218578   3.747   3.693   0.846  0.8285 -0.6619  0.0255
 6060SOL     OW18579   0.584   3.511   0.865  0.4187 -0.1232 -0.5524
 6060SOL    HW118580   0.635   3.434   0.889  0.8951  0.3883  0.1481
 6060SOL    HW218581   0.498   3.497   0.904  1.2635  0.8218  1.8493
 6061SOL     OW18582   0.893   0.699   1.557  0.9496 -0.3766 -0.1253
 6061SOL    HW118583   0.972   0.648   1.574  1.4228  0.1987 -0.5852
 6061SOL    HW218584   0.918   0.790   1.575  0.0642 -0.2952  0.8690
 6062SOL     OW18585   2.460   3.729   0.161  0.2523  0.4237  0.3581
 6062SOL    HW118586   2.546   3.759   0.132 -0.1254  1.6525  0.4523
 6062SOL    HW218587   2.471   3.711   0.254  0.8361 -1.1356  0.0178
 6063SOL     OW18588   3.857   0.286   2.426 -0.6293 -0.2991  0.6733
 6063SOL    HW118589   3.820   0.367   2.390 -0.0550 -0.4713 -0.3494
 6063SOL    HW218590   3.885   0.309   2.515 -0.5276  0.6126  0.4099
 6064SOL     OW18591   3.068   1.629   3.039 -0.3471  0.7748 -0.5401
 6064SOL    HW118592   3.096   1.651   2.950 -0.2593  1.7580 -0.2842
 6064SOL    HW218593   2.973   1.626   3.034 -0.3199  0.1238 -0.8136
 6065SOL     OW18594   1.180   0.567   5.938 -0.6869 -0.1920 -0.0557
 6065SOL    HW118595   1.130   0.632   5.988 -0.9174  0.2098 -0.7863
 6065SOL    HW218596   1.119   0.538   5.870  0.2585  0.7761 -1.3686
 6066SOL     OW18597   4.964   1.008   4.231  0.3275 -0.3150  0.2501
 6066SOL    HW118598   5.035   0.943   4.231 -1.0783 -1.9152  0.5519
 6066SOL    HW218599   5.007   1.090   4.206  2.2539 -1.2492  0.2898
 6067SOL     OW18600   6.538   0.773   2.853  0.2536 -0.0908  0.0512
 6067SOL    HW118601   6.515   0.681   2.862 -2.0219  0.5047  1.1655
 6067SOL    HW218602   6.465   0.811   2.804  0.4929  1.3394  0.7485
 6068SOL     OW18603   3.560   4.274   5.296  0.0845 -0.4865  0.0819
 6068SOL    HW118604   3.491   4.340   5.298  1.0237  0.5330 -0.2094
 6068SOL    HW218605   3.520   4.199   5.254 -0.2243  0.8451 -2.1649
 6069SOL     OW18606   6.536   3.710   3.886 -0.1380 -0.3002  0.6519
 6069SOL    HW118607   6.610   3.755   3.926 -0.6260  0.5234  0.6549
 6069SOL    HW218608   6.492   3.667   3.960  0.4065 -0.9108  0.6301
 6070SOL     OW18609   2.421   1.161   2.723 -0.4896 -0.3817  0.0437
 6070SOL    HW118610   2.424   1.257   2.728  3.9538 -0.3527  0.5798
 6070SOL    HW218611   2.449   1.132   2.810 -0.0537 -2.1238 -0.6448
 6071SOL     OW18612   6.294   0.512   0.004 -0.5166 -0.0078  0.6436
 6071SOL    HW118613   6.274   0.463  -0.076 -0.0415 -0.2593  0.6770
 6071SOL    HW218614   6.388   0.530  -0.001 -0.3912 -0.4289  1.3599
 6072SOL     OW18615   1.173   4.335   1.341 -0.0949 -0.0478 -0.1076
 6072SOL    HW118616   1.201   4.250   1.306 -0.1633  0.3518 -1.1834
 6072SOL    HW218617   1.224   4.346   1.421  0.3281 -0.8499 -0.2546
 6073SOL     OW18618   5.050   3.318   6.258 -0.3035  0.4838 -0.7376
 6073SOL    HW118619   4.970   3.354   6.297  0.8381  1.5120  0.8022
 6073SOL    HW218620   5.039   3.330   6.164 -1.5733  1.4375 -0.4954
 6074SOL     OW18621   5.238   1.085   1.088 -0.4629 -0.0975 -0.1056
 6074SOL    HW118622   5.314   1.132   1.123 -1.0126 -0.1159  1.1637
 6074SOL    HW218623   5.273   0.999   1.064  0.3450  0.5964 -1.5531
 6075SOL     OW18624   2.095   3.936   3.408  0.0077 -0.3880 -0.0821
 6075SOL    HW118625   2.016   3.940   3.462  0.5809 -1.4348  0.8859
 6075SOL    HW218626   2.153   3.876   3.455  1.3036  0.1888 -0.8799
 6076SOL     OW18627   4.773   1.195   1.204  0.3951 -0.0490 -0.6597
 6076SOL    HW118628   4.846   1.155   1.156 -0.9720 -3.5526 -0.0765
 6076SOL    HW218629   4.799   1.190   1.296 -1.1580 -2.9902 -0.2762
 6077SOL     OW18630   6.032   0.626   6.546 -0.0108  0.2098 -0.1329
 6077SOL    HW118631   6.040   0.541   6.502  0.5423  0.2538 -0.1160
 6077SOL    HW218632   6.114   0.671   6.528 -0.5922  1.0513 -0.7751
 6078SOL     OW18633   5.416   3.039   4.674 -0.0115 -0.3286  0.5251
 6078SOL    HW118634   5.331   2.996   4.658  0.0565  0.3382 -2.0640
 6078SOL    HW218635   5.439   3.014   4.764 -2.9807 -0.4374  1.3621
 6079SOL     OW18636   4.401   2.222   2.823  0.1916  0.3444 -0.1264
 6079SOL    HW118637   4.386   2.243   2.731  1.2705  2.7133  0.1645
 6079SOL    HW218638   4.459   2.291   2.854  0.3306 -0.7272  2.2067
 6080SOL     OW18639   0.614   3.649   0.000 -0.1704 -0.1124 -0.3399
 6080SOL    HW118640   0.677   3.636   0.071 -1.3910  0.9793  1.0060
 6080SOL    HW218641   0.628   3.739  -0.029 -0.5862 -0.1145 -0.5557
 6081SOL     OW18642   0.130   0.529   5.870 -0.3292  0.2498  0.1110
 6081SOL    HW118643   0.053   0.486   5.833 -0.8413  1.6857 -0.5415
 6081SOL    HW218644   0.190   0.538   5.796 -0.7411  1.7553 -0.0707
 6082SOL     OW18645   0.531   5.767   4.514 -0.1298  0.3488  0.5915
 6082SOL    HW118646   0.556   5.853   4.549  1.3744  0.0452  0.3472
 6082SOL    HW218647   0.506   5.716   4.590 -0.6217  0.8636  0.7841
 6083SOL     OW18648   1.792   4.909   2.744 -0.4259  0.1792  0.3860
 6083SOL    HW118649   1.718   4.852   2.763 -1.6790  1.5678 -0.1800
 6083SOL    HW218650   1.830   4.929   2.829 -0.5252 -0.7379  0.6576
 6084SOL     OW18651   5.752   5.544   6.261  0.2780  0.1005 -0.0575
 6084SOL    HW118652   5.719   5.595   6.187  0.1638  1.7946  1.1027
 6084SOL    HW218653   5.681   5.546   6.325  0.2095 -1.6978 -0.0317
 6085SOL     OW18654   3.389   1.843   0.131 -0.4038  0.8492 -0.5115
 6085SOL    HW118655   3.467   1.817   0.082 -1.5839 -2.2218 -0.9777
 6085SOL    HW218656   3.316   1.807   0.081 -1.7708 -1.1542  2.6191
 6086SOL     OW18657   5.472   6.437   4.470  0.4057  0.1156  0.2529
 6086SOL    HW118658   5.410   6.480   4.412  0.9057  1.9342  0.9978
 6086SOL    HW218659   5.524   6.509   4.507  2.2238 -1.2554  0.4822
 6087SOL     OW18660   3.287   5.394   0.186 -0.7423 -0.3348  0.7009
 6087SOL    HW118661   3.349   5.322   0.191  0.6426  0.5981 -1.3052
 6087SOL    HW218662   3.268   5.416   0.277  1.2791 -1.1802  1.3833
 6088SOL     OW18663   3.508   4.809   0.321 -0.5411  1.0150  0.3531
 6088SOL    HW118664   3.567   4.740   0.349 -3.1692 -1.0762  1.1329
 6088SOL    HW218665   3.527   4.821   0.228  0.8914  0.2667  0.5205
 6089SOL     OW18666   1.766   6.112   2.668  0.0346 -0.2207 -0.2473
 6089SOL    HW118667   1.741   6.122   2.577  0.5235 -0.9262 -0.4726
 6089SOL    HW218668   1.694   6.151   2.718  0.1234  0.8702 -0.9418
 6090SOL     OW18669   3.423   2.567   1.059 -0.5327  0.0009  0.2563
 6090SOL    HW118670   3.412   2.660   1.041 -0.1980 -0.0140 -0.0524
 6090SOL    HW218671   3.338   2.538   1.092 -0.6494  0.4055  0.3113
 6091SOL     OW18672   3.186   5.467   6.484 -0.0573 -0.4453  0.0698
 6091SOL    HW118673   3.193   5.384   6.437  1.1753 -0.3222  0.0005
 6091SOL    HW218674   3.162   5.442   6.574  0.1200 -0.8603  0.0039
 6092SOL     OW18675   3.334   4.969   6.640  0.8877  0.5595  0.2418
 6092SOL    HW118676   3.295   5.053   6.617 -0.5288 -0.8791 -3.2921
 6092SOL    HW218677   3.262   4.920   6.682  0.2107 -0.4132 -1.9239
 6093SOL     OW18678   4.678   3.525   6.685 -0.2023 -0.0472  0.1563
 6093SOL    HW118679   4.683   3.593   6.752 -1.9475 -0.3442  0.6463
 6093SOL    HW218680   4.753   3.542   6.627 -1.2124  3.0446 -0.4461
 6094SOL     OW18681   1.626   5.107   3.790 -0.8824  0.1709  0.1229
 6094SOL    HW118682   1.539   5.077   3.764 -0.8509 -0.3408  0.6043
 6094SOL    HW218683   1.653   5.047   3.859  0.0248  0.0787 -0.2978
 6095SOL     OW18684   1.507   1.847   4.126  0.5077 -0.0271  0.3956
 6095SOL    HW118685   1.543   1.915   4.183  0.0231 -0.0401  0.7193
 6095SOL    HW218686   1.569   1.842   4.053  0.1536  1.3185 -0.0324
 6096SOL     OW18687   1.936   4.997   2.965  0.4112 -0.2934  0.6870
 6096SOL    HW118688   2.026   4.992   2.932  0.1651  2.3023 -0.6092
 6096SOL    HW218689   1.927   4.919   3.020  2.7644 -1.7276 -0.7530
 6097SOL     OW18690   1.979   6.088   1.417  0.1186 -0.3051  0.1008
 6097SOL    HW118691   2.064   6.130   1.403  0.6833 -1.1110  0.9671
 6097SOL    HW218692   1.966   6.091   1.512 -1.3720  0.8211 -0.1105
 6098SOL     OW18693   4.178   3.868   4.944  0.4993 -0.1444 -0.2290
 6098SOL    HW118694   4.261   3.831   4.915  1.1623  1.3266 -0.2467
 6098SOL    HW218695   4.114   3.798   4.929  1.8373 -1.5751  0.4985
 6099SOL     OW18696   4.030   1.953   1.107  0.7414 -0.0464  0.6218
 6099SOL    HW118697   3.936   1.958   1.089  1.1101  1.5152 -1.0776
 6099SOL    HW218698   4.046   1.859   1.119 -0.9399 -0.3980  0.4541
 6100SOL     OW18699   2.842   2.572   2.766 -0.0697 -0.0812  0.3144
 6100SOL    HW118700   2.828   2.612   2.681  2.2706 -1.3025 -0.7326
 6100SOL    HW218701   2.794   2.489   2.763 -0.5381  0.1815  0.4590
 6101SOL     OW18702   4.910   0.578   0.931 -0.5793 -0.3280  0.3811
 6101SOL    HW118703   5.004   0.595   0.930 -0.6046  0.1112  2.0242
 6101SOL    HW218704   4.897   0.508   0.866  0.7680  0.0706 -0.3439
 6102SOL     OW18705   4.875   0.262   0.054  0.3547  0.2195  0.8418
 6102SOL    HW118706   4.819   0.333   0.024  1.6395  1.9585  2.3429
 6102SOL    HW218707   4.863   0.192  -0.010 -1.3922  1.5708 -0.3598
 6103SOL     OW18708   6.659   4.145   3.841  0.1527  0.2282 -0.5265
 6103SOL    HW118709   6.680   4.056   3.869 -1.7717 -0.3750 -0.8323
 6103SOL    HW218710   6.659   4.197   3.921  3.6949  0.5697 -0.6022
 6104SOL     OW18711   0.111   4.306   2.179  0.1359  0.2252 -0.0309
 6104SOL    HW118712   0.114   4.210   2.188 -2.0493  0.2755  2.3673
 6104SOL    HW218713   0.203   4.333   2.181  0.8569 -1.8403 -1.7061
 6105SOL     OW18714   0.064   2.245   3.004  0.2210  0.3071 -0.3231
 6105SOL    HW118715   0.103   2.166   2.968 -0.4255 -1.1677  1.9964
 6105SOL    HW218716  -0.004   2.270   2.941  2.5689  1.0663 -2.7827
 6106SOL     OW18717   6.334   0.613   4.872  0.0362  0.0955  0.0468
 6106SOL    HW118718   6.269   0.551   4.905 -0.4446  0.7586  0.3638
 6106SOL    HW218719   6.288   0.661   4.803 -0.0504  1.0378  0.7350
 6107SOL     OW18720   5.674   3.158   0.430  0.8362  0.3415  0.4793
 6107SOL    HW118721   5.609   3.178   0.364 -0.4107 -1.8186  0.9631
 6107SOL    HW218722   5.734   3.096   0.388  0.8213  0.0079  0.9339
 6108SOL     OW18723   6.630   2.705   6.623 -0.2500 -0.4699  0.1973
 6108SOL    HW118724   6.602   2.617   6.598 -1.1841 -0.5753  1.4753
 6108SOL    HW218725   6.610   2.710   6.717  0.9431  0.6735  0.4166
 6109SOL     OW18726   5.990   0.047   5.767  0.8626 -0.7291 -0.1896
 6109SOL    HW118727   5.909   0.013   5.730  1.5612 -0.8282 -1.6959
 6109SOL    HW218728   5.962   0.103   5.839 -0.5503 -0.5595 -0.8478
 6110SOL     OW18729   4.141   1.592   3.397  0.0858  0.5253  0.2678
 6110SOL    HW118730   4.075   1.567   3.333 -0.5267 -1.0278  1.4327
 6110SOL    HW218731   4.146   1.688   3.391 -1.1747  0.5408 -0.8794
 6111SOL     OW18732   2.451   4.320   0.082 -0.5270  0.1278  0.4624
 6111SOL    HW118733   2.443   4.246   0.142  0.0928 -0.1890  0.1624
 6111SOL    HW218734   2.362   4.333   0.048 -0.8003  0.0387  1.1185
 6112SOL     OW18735   2.569   0.447   4.304 -0.3070  0.1422  0.0454
 6112SOL    HW118736   2.611   0.428   4.388 -1.8003  0.4145  0.8930
 6112SOL    HW218737   2.484   0.486   4.328  0.5317  3.3616 -1.5505
 6113SOL     OW18738   0.061   4.444   0.878 -0.3887 -0.4354 -0.4683
 6113SOL    HW118739   0.082   4.395   0.799  0.0115 -1.9476  0.5216
 6113SOL    HW218740  -0.034   4.449   0.879 -0.3729  0.8501 -1.7295
 6114SOL     OW18741   0.611   2.375   6.553 -0.3160 -0.2255  0.0695
 6114SOL    HW118742   0.534   2.379   6.497  0.0967  1.4667 -0.4405
 6114SOL    HW218743   0.674   2.322   6.504 -1.0673 -1.4646  0.4129
 6115SOL     OW18744   0.754   5.918   3.918  0.1575  0.2359  0.2549
 6115SOL    HW118745   0.728   6.003   3.955 -1.0896 -0.7800  1.8203
 6115SOL    HW218746   0.845   5.907   3.947 -0.2673  0.2239  1.6775
 6116SOL     OW18747   3.672   4.893   4.434  0.0458 -0.0171 -0.5836
 6116SOL    HW118748   3.706   4.832   4.370 -1.5735 -1.0315 -0.5389
 6116SOL    HW218749   3.716   4.976   4.415 -0.2802 -0.3188 -2.9164
 6117SOL     OW18750   3.933   4.359   1.692 -0.3314 -0.8739  0.1717
 6117SOL    HW118751   4.023   4.336   1.714  0.3212  0.9298 -0.4183
 6117SOL    HW218752   3.936   4.385   1.599 -0.8353  1.8598  0.8237
 6118SOL     OW18753   0.852   5.001   3.434  0.4749  0.1947 -0.1171
 6118SOL    HW118754   0.872   5.061   3.506 -0.4802 -1.0563  1.2195
 6118SOL    HW218755   0.770   4.959   3.458  0.3125 -0.5306 -1.7693
 6119SOL     OW18756   3.324   0.034   3.821 -0.8964  0.1798  0.0848
 6119SOL    HW118757   3.247  -0.022   3.825 -1.1712  0.4840 -0.8212
 6119SOL    HW218758   3.315   0.092   3.897 -0.0155 -1.7081  1.7410
 6120SOL     OW18759   4.701   1.824   5.687  0.2089  0.4534  0.5708
 6120SOL    HW118760   4.729   1.741   5.648 -0.3714 -0.1750  1.4718
 6120SOL    HW218761   4.765   1.888   5.655  0.8420 -0.3914  0.1104
 6121SOL     OW18762   3.469   1.256   4.505 -0.0639 -0.4209 -0.1056
 6121SOL    HW118763   3.375   1.250   4.490  0.0457 -1.1120 -0.5503
 6121SOL    HW218764   3.503   1.297   4.425 -0.0453  0.3589  0.2892
 6122SOL     OW18765   4.796   2.677   6.218  0.0580 -0.0966  0.5351
 6122SOL    HW118766   4.795   2.582   6.202  0.5377  0.1933 -1.4410
 6122SOL    HW218767   4.731   2.712   6.158  0.8281  0.9551  0.2901
 6123SOL     OW18768   4.166   0.654   1.373  0.2112  0.5180  0.2148
 6123SOL    HW118769   4.160   0.680   1.465 -3.0064  0.7979  0.0422
 6123SOL    HW218770   4.158   0.559   1.374  1.8060  0.3533  0.2551
 6124SOL     OW18771   5.678   2.718   2.106 -0.0638 -0.4825 -0.2056
 6124SOL    HW118772   5.679   2.730   2.011  0.1308 -2.8711 -0.5648
 6124SOL    HW218773   5.743   2.650   2.122 -0.7794 -0.7980  1.5438
 6125SOL     OW18774   4.886   2.092   0.941  0.2689 -0.0435 -0.1759
 6125SOL    HW118775   4.965   2.145   0.952  0.7541 -0.8100  0.1149
 6125SOL    HW218776   4.913   2.019   0.886  0.5433 -1.8608  2.1909
 6126SOL     OW18777   5.585   2.232   4.728 -0.6045  0.6589  0.4438
 6126SOL    HW118778   5.528   2.297   4.769 -2.3080 -1.2295  1.1901
 6126SOL    HW218779   5.548   2.219   4.641 -0.2202  0.7494  0.2669
 6127SOL     OW18780   0.599   4.409   5.130 -0.1938  0.0333  0.0837
 6127SOL    HW118781   0.642   4.330   5.163  1.0378 -0.4589 -2.4462
 6127SOL    HW218782   0.511   4.382   5.107 -0.0294 -0.4100 -0.0241
 6128SOL     OW18783   1.625   0.412   2.111  0.4710 -0.0602 -0.1851
 6128SOL    HW118784   1.718   0.414   2.088  0.5810  2.1744  0.1600
 6128SOL    HW218785   1.622   0.445   2.201 -0.7213  1.3975 -0.7046
 6129SOL     OW18786   3.908   3.208   3.113 -0.3118 -0.3684 -0.0751
 6129SOL    HW118787   3.977   3.274   3.114 -0.4745 -0.1905 -0.4571
 6129SOL    HW218788   3.950   3.130   3.149  0.8340 -0.9830 -2.5247
 6130SOL     OW18789   1.051   3.315   4.531 -0.1949  0.0185  0.3277
 6130SOL    HW118790   1.064   3.306   4.437  0.3377 -0.2970  0.4267
 6130SOL    HW218791   1.135   3.291   4.570 -0.3115  0.4451  0.8707
 6131SOL     OW18792   5.841   0.500   5.164 -0.0215 -0.2448 -0.9459
 6131SOL    HW118793   5.809   0.453   5.240  2.6107  0.3974  0.6726
 6131SOL    HW218794   5.853   0.432   5.097  1.1306 -1.4743  0.4413
 6132SOL     OW18795   4.558   5.343   3.957 -0.0614  0.1118 -0.1029
 6132SOL    HW118796   4.503   5.421   3.963  0.4151  0.4366  0.1085
 6132SOL    HW218797   4.606   5.355   3.875 -0.7169 -0.4524 -0.5844
 6133SOL     OW18798   0.165   2.644   2.058  0.2255  0.2406 -0.1452
 6133SOL    HW118799   0.222   2.695   2.117 -2.2923  1.5640  1.3357
 6133SOL    HW218800   0.156   2.559   2.101  1.6555 -0.2553 -0.7919
 6134SOL     OW18801   1.959   2.317   5.950 -0.3749  0.0201 -0.1113
 6134SOL    HW118802   1.909   2.259   5.893 -0.2177  1.3687 -1.7075
 6134SOL    HW218803   1.909   2.320   6.031 -3.1857  1.5939 -1.7469
 6135SOL     OW18804   3.012   3.577   0.306  0.3593 -0.2102  0.4139
 6135SOL    HW118805   3.012   3.663   0.348  0.1398 -0.5579  1.1373
 6135SOL    HW218806   2.921   3.548   0.311 -0.2786  0.8615 -2.6866
 6136SOL     OW18807   6.780   1.572   3.023 -0.1965  0.0741  0.3957
 6136SOL    HW118808   6.787   1.633   3.097  0.2909 -0.2491  0.6178
 6136SOL    HW218809   6.728   1.499   3.057  0.2930 -0.2202  0.5187
 6137SOL     OW18810   4.246   3.732   2.903 -0.0140  0.3475  0.1999
 6137SOL    HW118811   4.315   3.795   2.882 -0.4155  1.0584  0.9498
 6137SOL    HW218812   4.175   3.785   2.937 -0.8511 -0.3995 -0.3406
 6138SOL     OW18813   4.386   5.236   2.189  0.0953 -0.1379 -0.3613
 6138SOL    HW118814   4.420   5.266   2.105  3.1645 -0.3739  0.6820
 6138SOL    HW218815   4.361   5.315   2.236  0.2867  0.1528 -0.7514
 6139SOL     OW18816   1.455   5.694   3.181 -0.2079  0.0034 -0.2708
 6139SOL    HW118817   1.491   5.754   3.116 -1.8809 -0.2251 -1.4644
 6139SOL    HW218818   1.360   5.708   3.177 -0.4436 -0.8213  1.3456
 6140SOL     OW18819   0.877   0.002   1.077 -0.0666 -0.3993  0.3191
 6140SOL    HW118820   0.911   0.082   1.117  0.5692 -1.6842  2.5419
 6140SOL    HW218821   0.795  -0.015   1.124 -0.8345 -0.4282 -0.9832
 6141SOL     OW18822   1.384   3.529   0.089 -0.0906  0.2176 -0.2855
 6141SOL    HW118823   1.388   3.437   0.063 -0.5941 -0.0878  0.6389
 6141SOL    HW218824   1.474   3.560   0.081  0.6703 -1.1361  2.0029
 6142SOL     OW18825   2.061   1.514   4.790  0.0330 -0.0464  0.3272
 6142SOL    HW118826   2.014   1.482   4.866 -0.3294 -0.5794 -0.1090
 6142SOL    HW218827   2.115   1.440   4.763 -1.8754 -0.8717 -1.5491
 6143SOL     OW18828   6.638   2.447   6.366  0.3271  0.4993 -0.1885
 6143SOL    HW118829   6.599   2.440   6.279 -1.8767  0.9498  0.6936
 6143SOL    HW218830   6.732   2.460   6.350  0.2064 -0.8578 -2.4333
 6144SOL     OW18831   0.154   4.235   6.676 -0.5591 -0.2426  0.2468
 6144SOL    HW118832   0.141   4.254   6.768 -0.4662 -0.0456  0.2179
 6144SOL    HW218833   0.216   4.162   6.674 -0.2241  0.0428  0.3230
 6145SOL     OW18834   5.469   1.596   6.094 -0.1656 -0.1016 -0.2513
 6145SOL    HW118835   5.550   1.617   6.140 -0.3258 -1.4868  0.7309
 6145SOL    HW218836   5.497   1.557   6.011  0.1529  0.1531 -0.2654
 6146SOL     OW18837   0.037   0.619   4.036  0.4879  0.1693 -0.4776
 6146SOL    HW118838   0.052   0.633   4.130 -2.5379  0.9855 -0.0148
 6146SOL    HW218839   0.083   0.692   3.994  0.3771  0.8316  0.5204
 6147SOL     OW18840   1.397   2.582   0.058 -0.0689 -0.3257 -0.1289
 6147SOL    HW118841   1.320   2.606   0.110  1.8512  1.2588  2.2511
 6147SOL    HW218842   1.399   2.486   0.061 -1.7614 -0.3888  0.0169
 6148SOL     OW18843   6.561   0.134   3.278 -0.1178 -0.8360  0.0424
 6148SOL    HW118844   6.619   0.188   3.225 -0.0670 -0.4023  0.5284
 6148SOL    HW218845   6.474   0.152   3.243 -0.4434  1.6511  1.8683
 6149SOL     OW18846   3.145   4.673   3.151  0.5998 -0.8348  0.1850
 6149SOL    HW118847   3.121   4.735   3.082 -0.3565 -1.4995 -0.1022
 6149SOL    HW218848   3.073   4.678   3.213  1.5248 -0.1366  1.2331
 6150SOL     OW18849   3.955   1.564   3.198 -0.1301 -0.7374  0.1066
 6150SOL    HW118850   3.899   1.486   3.203 -1.5616  0.2121 -0.3851
 6150SOL    HW218851   3.926   1.608   3.118 -0.3210  1.0003  1.0928
 6151SOL     OW18852   6.059   3.369   1.602 -0.2705 -0.5429 -0.0584
 6151SOL    HW118853   6.039   3.366   1.695 -0.9918  2.5980 -0.0197
 6151SOL    HW218854   5.976   3.349   1.559 -0.3497 -0.2709 -0.0285
 6152SOL     OW18855   6.613   6.579   2.703 -0.7836  0.5685 -0.7782
 6152SOL    HW118856   6.592   6.508   2.643  0.7610 -0.7456  0.1568
 6152SOL    HW218857   6.706   6.568   2.721 -1.0592  1.2970  1.3563
 6153SOL     OW18858   4.614   1.953   3.273  0.0352  0.1889  0.1884
 6153SOL    HW118859   4.661   1.874   3.301  2.2227  1.1037 -0.6817
 6153SOL    HW218860   4.681   2.020   3.269 -1.6750  2.0009  0.3515
 6154SOL     OW18861   0.593   6.652   0.387  0.0408  0.1907  0.4365
 6154SOL    HW118862   0.563   6.672   0.476 -2.2135  1.7286 -0.5767
 6154SOL    HW218863   0.634   6.733   0.357 -0.6192  0.2032 -0.4539
 6155SOL     OW18864   2.751   2.176   1.112 -0.5926  0.1054  0.0557
 6155SOL    HW118865   2.700   2.172   1.031  0.0705 -0.1185 -0.3586
 6155SOL    HW218866   2.842   2.169   1.083 -0.3817 -0.6778  0.8833
 6156SOL     OW18867   2.100   1.629   3.729 -0.2746  0.4836  0.2455
 6156SOL    HW118868   2.111   1.720   3.759 -0.3815  0.7319 -0.4485
 6156SOL    HW218869   2.167   1.618   3.662 -1.4474  0.6545 -0.9942
 6157SOL     OW18870   0.671   5.872   0.122  0.2279  0.3789  0.0816
 6157SOL    HW118871   0.692   5.945   0.064 -0.8195  1.4281  0.9656
 6157SOL    HW218872   0.696   5.903   0.209 -1.1732  0.1058  0.6015
 6158SOL     OW18873   0.421   3.090   3.829  0.4941  0.9751  0.4121
 6158SOL    HW118874   0.342   3.141   3.848  0.8491  1.6723  0.0390
 6158SOL    HW218875   0.492   3.138   3.872  1.2102  2.2012 -1.9599
 6159SOL     OW18876   5.146   0.177   2.676  0.1504  0.3087 -0.5821
 6159SOL    HW118877   5.232   0.214   2.695  0.5734 -0.8349 -0.2150
 6159SOL    HW218878   5.157   0.130   2.594  0.8272 -2.7014  1.0971
 6160SOL     OW18879   2.100   6.030   1.703 -0.2117  0.1551 -0.0497
 6160SOL    HW118880   2.090   5.942   1.665  0.2693 -0.1335  0.4907
 6160SOL    HW218881   2.017   6.046   1.746 -0.4338  0.1144 -0.4519
 6161SOL     OW18882   4.468   0.774   1.655 -0.5615  0.3194 -0.1124
 6161SOL    HW118883   4.463   0.689   1.700 -1.1535  0.6742  0.5156
 6161SOL    HW218884   4.458   0.839   1.726  0.6322  0.9260 -0.4829
 6162SOL     OW18885   1.189   5.883   0.746 -0.8395  0.0057 -0.4337
 6162SOL    HW118886   1.176   5.956   0.685  1.3844  0.7285 -0.1353
 6162SOL    HW218887   1.240   5.920   0.817  0.3459 -1.8332 -0.2765
 6163SOL     OW18888   2.018   4.595   6.377  0.0293  0.2817  0.2373
 6163SOL    HW118889   1.950   4.552   6.430 -0.2043 -1.2737 -1.2410
 6163SOL    HW218890   1.989   4.685   6.370 -2.3567 -0.4968 -0.9929
 6164SOL     OW18891   2.558   4.727   3.608  0.6468 -0.0816 -0.0692
 6164SOL    HW118892   2.483   4.749   3.664  0.8005  2.6506 -0.8114
 6164SOL    HW218893   2.520   4.678   3.535 -0.3173  0.6011 -0.0424
 6165SOL     OW18894   3.725   0.106   4.839 -0.4159 -0.1811  0.0092
 6165SOL    HW118895   3.655   0.084   4.778 -0.9955  0.1030  0.5686
 6165SOL    HW218896   3.803   0.066   4.801 -1.0908 -1.5517 -0.0027
 6166SOL     OW18897   4.166   6.576   2.926 -0.0888 -0.3572  0.3806
 6166SOL    HW118898   4.199   6.489   2.947 -0.2114 -0.4577  0.1492
 6166SOL    HW218899   4.083   6.561   2.881 -0.9211 -0.0820  1.7623
 6167SOL     OW18900   6.372   3.161   0.424  0.4014  0.3665  0.0438
 6167SOL    HW118901   6.352   3.220   0.351 -0.1488 -0.9485 -0.9100
 6167SOL    HW218902   6.299   3.172   0.484 -0.2192 -0.0719 -0.6150
 6168SOL     OW18903   5.290   0.810   1.117  0.0660  0.3830  0.0557
 6168SOL    HW118904   5.261   0.840   1.203  0.2849  1.0461 -0.0979
 6168SOL    HW218905   5.384   0.829   1.116  0.1590 -0.0626 -0.1545
 6169SOL     OW18906   1.534   6.243   5.185 -0.3168 -0.1351 -0.4181
 6169SOL    HW118907   1.579   6.308   5.239 -0.2209 -0.6209  0.0915
 6169SOL    HW218908   1.554   6.159   5.226  0.1177 -0.5625 -1.4628
 6170SOL     OW18909   6.026   5.374   5.088  0.3700  0.5318  0.6639
 6170SOL    HW118910   6.025   5.383   5.183  1.0614  0.2370  0.7009
 6170SOL    HW218911   5.975   5.449   5.057  0.9330  1.1644  1.2298
 6171SOL     OW18912   5.605   3.218   2.855 -0.1214  0.3119  0.3634
 6171SOL    HW118913   5.648   3.149   2.906  1.9438  0.9831 -0.3627
 6171SOL    HW218914   5.664   3.293   2.863 -2.4621  2.1597  1.4120
 6172SOL     OW18915   6.435   1.489   5.444  0.4989  0.3702  0.1853
 6172SOL    HW118916   6.485   1.437   5.381  0.7295 -0.8516  1.3453
 6172SOL    HW218917   6.347   1.453   5.441  0.8067 -0.5439  1.4473
 6173SOL     OW18918   5.703   0.174   2.526  0.2699  0.7616 -0.2338
 6173SOL    HW118919   5.753   0.101   2.489  0.5161 -0.3770  2.1459
 6173SOL    HW218920   5.733   0.179   2.617 -0.2352  3.4396 -0.1562
 6174SOL     OW18921   0.629   2.342   3.092 -0.0946  0.1329  0.1255
 6174SOL    HW118922   0.688   2.319   3.021 -1.7322  0.5058 -1.4181
 6174SOL    HW218923   0.682   2.397   3.150  2.0470 -2.3420  0.6743
 6175SOL     OW18924   4.321   0.737   4.851  0.2532  0.3722 -0.0916
 6175SOL    HW118925   4.280   0.790   4.783 -2.2811  1.1490  1.8739
 6175SOL    HW218926   4.263   0.661   4.859  1.2919 -0.4009  0.2771
 6176SOL     OW18927   0.961   1.902   4.927 -0.2703  0.1021 -0.1862
 6176SOL    HW118928   1.007   1.825   4.895  0.0004  0.5136 -0.7939
 6176SOL    HW218929   1.023   1.945   4.986 -0.3022  0.0403 -0.1066
 6177SOL     OW18930   1.080   1.604   6.702  0.3697 -0.3103  0.2298
 6177SOL    HW118931   1.093   1.570   6.613  1.2150 -1.2024  0.6752
 6177SOL    HW218932   0.989   1.632   6.704 -0.2365 -2.1478 -0.3166
 6178SOL     OW18933   2.366   0.896   1.030  0.6265 -0.2193  0.1297
 6178SOL    HW118934   2.274   0.915   1.044  0.4630 -0.7980 -0.1337
 6178SOL    HW218935   2.404   0.979   1.001 -0.2000 -0.4131 -1.6289
 6179SOL     OW18936   2.820   0.779   3.976  0.2915  0.1791 -0.3458
 6179SOL    HW118937   2.856   0.763   4.063 -0.0425  0.9108 -0.0711
 6179SOL    HW218938   2.726   0.764   3.985  0.3254 -0.2712 -0.7115
 6180SOL     OW18939   3.427   6.075   1.778  0.0522 -0.4442 -0.1105
 6180SOL    HW118940   3.408   6.147   1.839 -0.3123 -0.0386 -0.6944
 6180SOL    HW218941   3.478   6.013   1.830  0.1286  0.1030  0.4859
 6181SOL     OW18942   2.863   4.107   0.600 -0.3099  0.2472 -0.0777
 6181SOL    HW118943   2.955   4.130   0.613  0.1879 -2.1349  1.1551
 6181SOL    HW218944   2.862   4.058   0.518 -0.0090 -1.6741  0.9976
 6182SOL     OW18945   5.662   3.643   6.751  0.0052  0.0750 -0.0994
 6182SOL    HW118946   5.647   3.701   6.825  1.6495 -0.7211  0.9120
 6182SOL    HW218947   5.619   3.561   6.775  1.6066 -0.6009  0.5986
 6183SOL     OW18948   5.216   1.032   5.613  0.5153  0.5979  0.3279
 6183SOL    HW118949   5.299   0.986   5.598 -0.3782 -1.5254  1.5314
 6183SOL    HW218950   5.195   1.071   5.528 -0.4485 -4.3409 -2.0913
 6184SOL     OW18951   6.422   4.247   6.773  0.0428 -0.3755 -0.0049
 6184SOL    HW118952   6.394   4.247   6.682  0.1810  0.9954 -0.0747
 6184SOL    HW218953   6.388   4.165   6.809 -2.9151  0.5604 -0.4213
 6185SOL     OW18954   3.997   2.522   1.354 -0.2636 -0.3319 -0.1173
 6185SOL    HW118955   3.915   2.508   1.306 -0.7255 -0.7395  0.7586
 6185SOL    HW218956   4.062   2.470   1.307 -0.9480 -1.6245  0.3337
 6186SOL     OW18957   0.349   1.933   3.139  0.3062  0.1076 -0.0561
 6186SOL    HW118958   0.395   2.011   3.168 -0.1538  0.6298 -0.7258
 6186SOL    HW218959   0.269   1.932   3.191  1.0116 -0.7750  1.0748
 6187SOL     OW18960   5.658   1.026   3.520 -0.0963 -0.3551  0.0973
 6187SOL    HW118961   5.652   1.059   3.431  1.1068  0.2748  0.2234
 6187SOL    HW218962   5.751   1.034   3.542 -0.1786 -1.5909  0.9997
 6188SOL     OW18963   3.279   2.155   0.057  0.7983 -0.5127  1.2104
 6188SOL    HW118964   3.251   2.151   0.149 -0.7873  0.1712  0.7952
 6188SOL    HW218965   3.262   2.067   0.024 -1.8586  0.0827  0.7526
 6189SOL     OW18966   1.596   3.643   6.008  0.7124 -0.1404  0.3246
 6189SOL    HW118967   1.538   3.704   5.962 -0.5581 -2.4903 -1.3937
 6189SOL    HW218968   1.538   3.592   6.064  1.6241 -0.3349  1.1147
 6190SOL     OW18969   1.610   6.776   3.361 -0.2930  0.1684  0.0334
 6190SOL    HW118970   1.580   6.762   3.272 -1.3947 -0.5082  0.4941
 6190SOL    HW218971   1.541   6.829   3.402  0.3483  0.7430  0.4019
 6191SOL     OW18972   0.322   6.066   2.272  0.6383  0.5273  0.5771
 6191SOL    HW118973   0.404   6.088   2.317  0.4894  1.5565  0.3794
 6191SOL    HW218974   0.272   6.148   2.273  1.0584  0.9197 -2.3531
 6192SOL     OW18975   1.432   0.623   3.991 -0.1334 -0.0192 -0.2239
 6192SOL    HW118976   1.354   0.608   3.938 -0.6398 -0.9339  0.7614
 6192SOL    HW218977   1.487   0.546   3.975  0.4728  0.5031 -0.7208
 6193SOL     OW18978   4.705   0.267   6.520 -0.1977  0.2668  0.0062
 6193SOL    HW118979   4.782   0.215   6.540  0.9346  2.0457  0.5623
 6193SOL    HW218980   4.735   0.330   6.454 -1.5933  0.0265 -0.9022
 6194SOL     OW18981   0.542   2.939   2.822  0.1316  0.6364 -0.4850
 6194SOL    HW118982   0.604   2.896   2.764 -0.8834 -0.3038 -0.9190
 6194SOL    HW218983   0.506   2.868   2.876 -1.3693  0.9493 -1.0095
 6195SOL     OW18984   3.874   3.004   1.103 -0.0696 -0.0711  0.3014
 6195SOL    HW118985   3.797   2.971   1.150 -0.3788  2.0460  1.4111
 6195SOL    HW218986   3.938   3.024   1.171  1.8988 -2.5638 -0.6499
 6196SOL     OW18987   6.517   1.922   2.974 -0.2286  0.9716  0.1031
 6196SOL    HW118988   6.597   1.900   2.927 -1.5057 -0.0601 -1.7518
 6196SOL    HW218989   6.466   1.973   2.911 -2.0529 -0.5187  0.2841
 6197SOL     OW18990   5.779   2.928   2.583 -0.9038  0.1888  0.3159
 6197SOL    HW118991   5.841   2.876   2.531 -1.0267  0.3050  0.0514
 6197SOL    HW218992   5.835   2.984   2.638 -0.7721 -0.4152  0.8011
 6198SOL     OW18993   2.462   3.982   3.306  0.4500 -0.1173  0.2487
 6198SOL    HW118994   2.516   4.042   3.359 -0.7556  1.2882 -0.0609
 6198SOL    HW218995   2.438   3.912   3.367  0.8093  0.3809  0.9818
 6199SOL     OW18996   6.297   0.498   4.382 -0.1943  0.4785  0.1770
 6199SOL    HW118997   6.241   0.575   4.380  0.3520  0.8700 -1.2009
 6199SOL    HW218998   6.380   0.529   4.420 -0.9041 -0.1271  2.3275
 6200SOL     OW18999   6.610   6.736   0.828  0.0613 -0.0473  0.0032
 6200SOL    HW119000   6.576   6.816   0.788 -1.7045 -1.0182 -0.5378
 6200SOL    HW219001   6.617   6.757   0.922  0.3587  0.9526 -0.2284
 6201SOL     OW19002   5.952   0.879   3.275  0.1341 -0.1448 -0.1782
 6201SOL    HW119003   5.981   0.946   3.214  0.2415  0.1894  0.2313
 6201SOL    HW219004   5.991   0.798   3.243 -0.9626 -0.2285 -1.3569
 6202SOL     OW19005   4.234   2.039   4.537  0.3936  0.0344 -0.1436
 6202SOL    HW119006   4.179   2.001   4.605 -0.4274 -0.4918 -1.0832
 6202SOL    HW219007   4.279   1.964   4.498  1.7844  0.4545  0.5978
 6203SOL     OW19008   6.639   5.984   1.221  0.1455 -0.0820 -0.6322
 6203SOL    HW119009   6.727   6.020   1.233 -0.0320 -0.3356  1.9251
 6203SOL    HW219010   6.591   6.053   1.176  1.8609 -0.3219 -2.9989
 6204SOL     OW19011   0.588   6.485   2.224  0.1458  0.1756 -0.3849
 6204SOL    HW119012   0.664   6.541   2.207  0.2990  0.1594  0.2057
 6204SOL    HW219013   0.555   6.515   2.309 -0.3822  0.0437 -0.5450
 6205SOL     OW19014   5.113   0.460   1.300  0.4253  0.3053  0.0606
 6205SOL    HW119015   5.083   0.517   1.371 -0.9176  0.6868 -0.7672
 6205SOL    HW219016   5.155   0.520   1.238  0.5733  0.1415  0.0016
 6206SOL     OW19017   4.016   2.230   5.562  0.3136 -0.3377 -0.1329
 6206SOL    HW119018   3.935   2.211   5.609 -0.0784  0.5650 -0.4144
 6206SOL    HW219019   3.996   2.212   5.470  0.2368  0.4627 -0.2790
 6207SOL     OW19020   5.794   0.683   4.787  0.3996 -0.8512 -0.0015
 6207SOL    HW119021   5.873   0.676   4.840  0.9676  2.4435 -0.1951
 6207SOL    HW219022   5.805   0.764   4.737 -1.7565 -1.8929 -2.3981
 6208SOL     OW19023   5.981   3.301   3.697  0.1105  0.6466  0.1962
 6208SOL    HW119024   5.928   3.245   3.753 -0.3339  1.1786  0.3211
 6208SOL    HW219025   6.070   3.266   3.705 -0.3299 -0.6972 -0.5965
 6209SOL     OW19026   6.522   3.596   1.806 -0.0066 -0.3627 -0.7435
 6209SOL    HW119027   6.482   3.635   1.728 -0.7059 -0.2632 -0.3415
 6209SOL    HW219028   6.612   3.577   1.780 -0.0132  0.3798 -1.3331
 6210SOL     OW19029   5.750   3.464   2.900 -0.6497 -0.4067 -0.1070
 6210SOL    HW119030   5.719   3.491   2.813 -0.3360 -0.2342 -0.1664
 6210SOL    HW219031   5.763   3.546   2.947 -0.6694 -0.4949  0.0509
 6211SOL     OW19032   2.177   1.557   3.027 -0.1627 -0.4142  0.2095
 6211SOL    HW119033   2.180   1.490   2.959 -0.8531  0.8151 -1.1015
 6211SOL    HW219034   2.107   1.528   3.086 -1.8048  0.0722 -1.4166
 6212SOL     OW19035   5.342   0.090   5.158  0.2148  0.8963 -0.0124
 6212SOL    HW119036   5.270   0.065   5.216  0.8412 -0.6282  0.1736
 6212SOL    HW219037   5.321   0.050   5.074 -0.1604  2.2066 -0.5684
 6213SOL     OW19038   4.214   6.324   5.034  0.1997 -0.0572  0.0842
 6213SOL    HW119039   4.127   6.362   5.017  1.4190  1.7633 -2.7779
 6213SOL    HW219040   4.258   6.389   5.089 -0.2905 -1.1790  1.9011
 6214SOL     OW19041   3.532   3.744   5.835 -0.5512  0.0381 -0.3298
 6214SOL    HW119042   3.577   3.680   5.779 -0.9057  0.4922 -1.1528
 6214SOL    HW219043   3.447   3.757   5.792 -1.8050 -1.3364  1.5684
 6215SOL     OW19044   6.159   2.435   2.642 -0.0913  0.3221  0.0891
 6215SOL    HW119045   6.239   2.382   2.643 -0.0850  0.1147 -2.8911
 6215SOL    HW219046   6.113   2.409   2.722  0.7056 -2.9940 -0.3684
 6216SOL     OW19047   5.923   6.401   1.539  0.1007 -0.2651 -0.5657
 6216SOL    HW119048   5.940   6.468   1.473  0.0821 -0.6131 -0.9237
 6216SOL    HW219049   5.850   6.350   1.505 -1.9031  1.3719  1.0894
 6217SOL     OW19050   5.144   1.821   1.062 -0.2641 -0.1553 -1.0185
 6217SOL    HW119051   5.099   1.777   1.134 -0.2614  2.0394  0.4143
 6217SOL    HW219052   5.079   1.824   0.991 -0.7622 -1.0691 -0.6192
 6218SOL     OW19053   6.080   6.502   4.373  0.1281 -0.4329  0.4194
 6218SOL    HW119054   6.097   6.522   4.281 -0.1093  0.3644  0.5350
 6218SOL    HW219055   6.136   6.427   4.393 -0.8904 -1.5588 -0.7585
 6219SOL     OW19056   2.524   5.146   4.876 -0.3709  0.5424  0.2967
 6219SOL    HW119057   2.606   5.130   4.923  0.6104 -0.9467 -1.7187
 6219SOL    HW219058   2.507   5.064   4.829 -1.5856  1.6934 -1.4121
 6220SOL     OW19059   0.414   5.895   4.134 -0.0963 -0.8027 -0.3612
 6220SOL    HW119060   0.502   5.924   4.159 -0.7957  0.4072  0.8508
 6220SOL    HW219061   0.424   5.860   4.046  1.6460 -0.9471 -0.1365
 6221SOL     OW19062   5.609   5.161   4.358  0.0391 -0.5003 -0.1133
 6221SOL    HW119063   5.543   5.161   4.288  1.5122  0.0651 -1.5765
 6221SOL    HW219064   5.633   5.069   4.368  1.1562 -0.4349 -1.7481
 6222SOL     OW19065   0.448   1.804   4.116 -0.0838 -0.4187 -0.5440
 6222SOL    HW119066   0.382   1.772   4.177 -0.8412  1.0427 -0.5719
 6222SOL    HW219067   0.530   1.797   4.164 -0.3135 -1.7519 -0.3192
 6223SOL     OW19068   6.326   3.241   6.105  0.3008 -0.4107 -0.5230
 6223SOL    HW119069   6.301   3.321   6.152  0.0864 -0.4428 -0.5777
 6223SOL    HW219070   6.370   3.187   6.170  3.5876  1.1633 -1.2718
 6224SOL     OW19071   5.019   4.536   3.373  0.0696  0.0991 -0.5746
 6224SOL    HW119072   4.998   4.444   3.387 -1.0461  0.6337  1.7380
 6224SOL    HW219073   5.084   4.557   3.440 -0.1582  1.1550 -0.6606
 6225SOL     OW19074   4.473   1.856   4.106  0.2839  0.5021 -0.5255
 6225SOL    HW119075   4.472   1.760   4.108  1.0648  0.4942  0.0966
 6225SOL    HW219076   4.561   1.878   4.076 -0.1955  1.0255 -1.5758
 6226SOL     OW19077   5.747   3.160   1.924 -0.0263 -0.3106 -0.3269
 6226SOL    HW119078   5.809   3.105   1.973  1.9712  1.3203 -0.8681
 6226SOL    HW219079   5.714   3.222   1.989  1.2802  0.7272 -0.5954
 6227SOL     OW19080   6.186   5.662   3.419 -0.1749  0.7073  0.3150
 6227SOL    HW119081   6.131   5.672   3.496 -0.6612  0.8467 -0.0498
 6227SOL    HW219082   6.130   5.619   3.355  0.4092  0.0386  0.2335
 6228SOL     OW19083   0.225   2.639   1.658  0.0190 -0.3179  0.4182
 6228SOL    HW119084   0.160   2.708   1.646 -1.0615 -1.1595  1.2823
 6228SOL    HW219085   0.307   2.686   1.675 -1.1277  0.8285  3.4171
 6229SOL     OW19086   1.070   2.284   4.770 -0.3076 -0.5071 -0.1706
 6229SOL    HW119087   1.028   2.369   4.782  0.7692  0.4522 -2.5353
 6229SOL    HW219088   0.997   2.222   4.760 -1.1713  0.6348 -1.2848
 6230SOL     OW19089   2.909   1.855   5.137 -0.4274  0.3206  0.0650
 6230SOL    HW119090   2.816   1.834   5.138  0.0188 -1.9268  0.4807
 6230SOL    HW219091   2.946   1.803   5.208  1.1539  1.1319 -0.1179
 6231SOL     OW19092   6.381   1.031   5.440 -0.0758 -0.3412 -0.0222
 6231SOL    HW119093   6.422   0.945   5.448  0.6449  0.1007  1.3902
 6231SOL    HW219094   6.423   1.084   5.508  0.9803  1.7316 -2.1502
 6232SOL     OW19095   1.708   0.590   1.780 -0.0280 -0.3509 -0.0919
 6232SOL    HW119096   1.745   0.635   1.704 -1.6503  0.3292 -0.5241
 6232SOL    HW219097   1.783   0.574   1.837  0.9725  0.6628 -1.0618
 6233SOL     OW19098   4.896   6.158   2.161 -0.0256  0.1787 -0.3637
 6233SOL    HW119099   4.981   6.131   2.197 -1.0019 -2.5176  0.1437
 6233SOL    HW219100   4.917   6.229   2.100  2.2462  1.5012  1.7854
 6234SOL     OW19101   2.666   2.320   6.584  0.4395 -0.1504 -0.0836
 6234SOL    HW119102   2.689   2.257   6.515 -3.3453 -1.2999 -0.5669
 6234SOL    HW219103   2.732   2.389   6.577  3.2951 -2.7614 -1.2724
 6235SOL     OW19104   1.047   4.154   1.516 -1.0770 -0.6622  0.8615
 6235SOL    HW119105   0.972   4.176   1.571 -2.9896 -0.4277 -1.6467
 6235SOL    HW219106   1.052   4.226   1.453  0.2113 -1.5049 -0.0499
 6236SOL     OW19107   4.008   3.156   0.189  0.5892  0.0334  0.4567
 6236SOL    HW119108   3.923   3.126   0.222 -0.2762  0.8331 -0.9177
 6236SOL    HW219109   4.051   3.194   0.265 -1.6366  2.5309  0.6315
 6237SOL     OW19110   4.389   0.390   5.669  0.1898  0.1154 -0.6966
 6237SOL    HW119111   4.463   0.387   5.729  0.0406 -0.1142 -0.5193
 6237SOL    HW219112   4.414   0.332   5.597 -0.0953 -0.5034 -0.3068
 6238SOL     OW19113   5.994   2.293   4.130 -0.2200  0.2266 -0.3950
 6238SOL    HW119114   5.900   2.283   4.115 -0.4142 -0.1518  0.9711
 6238SOL    HW219115   6.030   2.313   4.043 -1.2040 -2.1129 -1.4278
 6239SOL     OW19116   2.720   1.719   6.229  0.5587 -0.4390 -0.3436
 6239SOL    HW119117   2.628   1.693   6.225  0.1443  0.6050  1.4186
 6239SOL    HW219118   2.767   1.637   6.244 -0.2551 -0.8076  0.3072
 6240SOL     OW19119   5.651   0.104   5.043 -0.4086 -0.2316  0.1348
 6240SOL    HW119120   5.593   0.093   5.118  0.6645  0.5068  1.1180
 6240SOL    HW219121   5.724   0.156   5.077 -0.6966  1.5926 -1.8498
 6241SOL     OW19122   4.354   5.183   5.076 -0.2216 -0.0203 -0.0484
 6241SOL    HW119123   4.405   5.226   5.145  0.5090  0.6166 -0.9657
 6241SOL    HW219124   4.339   5.094   5.110  0.7748  0.0425  0.6080
 6242SOL     OW19125   5.208   5.087   2.359 -0.3103 -0.1688 -0.2678
 6242SOL    HW119126   5.236   5.072   2.450  1.5391  0.4410 -0.6990
 6242SOL    HW219127   5.155   5.167   2.363 -0.4710 -0.2977  0.3025
 6243SOL     OW19128   3.635   1.577   5.960  0.3448 -0.2496  0.5121
 6243SOL    HW119129   3.707   1.573   5.897 -0.3235 -1.3843 -0.2288
 6243SOL    HW219130   3.677   1.569   6.045  1.2320  0.8568  0.1887
 6244SOL     OW19131   4.443   6.235   1.490  0.1196  0.2692  0.0739
 6244SOL    HW119132   4.443   6.165   1.425  1.2545  0.0523  0.2789
 6244SOL    HW219133   4.448   6.190   1.574 -0.6251  0.5641  0.2808
 6245SOL     OW19134   3.045   0.310   4.607 -0.3123 -0.7494  0.3845
 6245SOL    HW119135   3.077   0.221   4.600  0.9361 -0.1915 -3.4155
 6245SOL    HW219136   2.985   0.320   4.532  1.7063  2.2394 -1.0479
 6246SOL     OW19137   5.819   0.638   2.780 -0.4607  0.1648 -0.1332
 6246SOL    HW119138   5.735   0.637   2.735 -0.4920  0.6765 -0.0917
 6246SOL    HW219139   5.825   0.552   2.823 -0.6985 -0.0924 -0.6100
 6247SOL     OW19140   6.643   6.328   1.349 -0.4708 -0.0614  0.7879
 6247SOL    HW119141   6.562   6.340   1.300  0.1650  0.9476 -0.0538
 6247SOL    HW219142   6.632   6.244   1.394 -2.1017  0.2078  0.9432
 6248SOL     OW19143   3.287   4.793   3.604  0.0467 -0.0674  0.2908
 6248SOL    HW119144   3.264   4.748   3.523  1.2181 -0.6899  0.2921
 6248SOL    HW219145   3.306   4.723   3.666 -0.7047  0.4065  1.0815
 6249SOL     OW19146   3.250   6.099   6.467  0.0074 -0.4881  0.3276
 6249SOL    HW119147   3.312   6.060   6.528  1.4161  0.2793 -0.5539
 6249SOL    HW219148   3.261   6.049   6.386  0.4212  0.4731 -0.2239
 6250SOL     OW19149   4.388   0.787   6.333  0.1106  0.0616 -0.3807
 6250SOL    HW119150   4.303   0.830   6.336 -0.0778 -0.2182  3.9898
 6250SOL    HW219151   4.436   0.833   6.264 -3.4525  0.1855 -3.0851
 6251SOL     OW19152   3.788   0.927   6.123 -0.3586  0.6286 -0.0730
 6251SOL    HW119153   3.730   0.996   6.154  0.3354  0.7698  0.9229
 6251SOL    HW219154   3.762   0.849   6.172 -1.8771 -0.1401 -1.9613
 6252SOL     OW19155   0.346   4.641   3.098  0.3394  0.3762 -0.2824
 6252SOL    HW119156   0.323   4.674   3.185  0.8856  1.4374 -0.5325
 6252SOL    HW219157   0.415   4.576   3.115 -1.8271 -1.9301  0.3568
 6253SOL     OW19158   0.891   5.340   3.425  0.2177  0.0650 -0.2241
 6253SOL    HW119159   0.879   5.280   3.499 -1.6045  0.1138 -0.4378
 6253SOL    HW219160   0.866   5.426   3.458  0.6378  0.3225 -0.5532
 6254SOL     OW19161   5.853   1.709   5.933 -0.1585 -0.0694  0.3386
 6254SOL    HW119162   5.939   1.746   5.915  0.0010 -0.4457  0.3118
 6254SOL    HW219163   5.824   1.674   5.848 -1.0128  1.4045 -0.0140
 6255SOL     OW19164   4.846   0.302   0.449  0.0262 -0.0314  0.0073
 6255SOL    HW119165   4.889   0.229   0.403 -0.8593 -0.5983  0.0603
 6255SOL    HW219166   4.757   0.303   0.414  0.0025  0.9876  0.0705
 6256SOL     OW19167   0.934   5.990   0.262 -0.6174  0.6406  0.5653
 6256SOL    HW119168   1.019   5.960   0.296 -0.8711 -0.9421 -0.0923
 6256SOL    HW219169   0.910   6.063   0.318  0.3629  0.0014  1.8758
 6257SOL     OW19170   0.841   1.574   4.183  0.1243  0.0618  0.4615
 6257SOL    HW119171   0.805   1.660   4.163 -0.2081 -0.2760 -0.4556
 6257SOL    HW219172   0.935   1.588   4.187  0.0319  0.5850  0.9368
 6258SOL     OW19173   1.120   1.536   6.436  0.5228 -0.1767  0.4084
 6258SOL    HW119174   1.044   1.532   6.379  1.3051 -1.2086 -0.5845
 6258SOL    HW219175   1.165   1.453   6.424  1.0874 -0.1567  2.0240
 6259SOL     OW19176   1.254   2.477   2.736 -0.4536  0.2091 -0.1266
 6259SOL    HW119177   1.302   2.396   2.750  0.2857  0.9578  2.0116
 6259SOL    HW219178   1.173   2.467   2.785 -0.7590  0.4256 -0.5775
 6260SOL     OW19179   6.627   2.070   3.204 -0.1288  0.3273 -0.0630
 6260SOL    HW119180   6.573   2.016   3.147 -3.1346  0.1961  2.6387
 6260SOL    HW219181   6.592   2.158   3.193 -0.5996  0.3365  1.3216
 6261SOL     OW19182   1.023   5.441   2.428  0.0920  0.9426 -0.2368
 6261SOL    HW119183   1.009   5.489   2.510  2.8170  0.8019  0.4028
 6261SOL    HW219184   1.073   5.501   2.373  1.6156 -0.3296 -0.2887
 6262SOL     OW19185   4.683   2.086   2.560  0.1126 -0.0948  0.3313
 6262SOL    HW119186   4.715   2.059   2.474  1.9567  0.5203  0.7638
 6262SOL    HW219187   4.668   2.180   2.552  1.1525  0.1455  0.8672
 6263SOL     OW19188   5.763   2.194   3.329 -0.3342 -0.4613 -0.1089
 6263SOL    HW119189   5.720   2.196   3.414 -1.0312  1.6650 -0.4300
 6263SOL    HW219190   5.834   2.259   3.336  0.0342 -0.7562 -0.9208
 6264SOL     OW19191   4.419   3.845   6.538 -0.4599  0.0416  0.2117
 6264SOL    HW119192   4.425   3.766   6.485  1.5097  1.9354 -2.6439
 6264SOL    HW219193   4.509   3.865   6.563 -0.8247  1.6890  0.3390
 6265SOL     OW19194   4.842   6.365   1.307  0.0530  0.6038 -0.1118
 6265SOL    HW119195   4.897   6.411   1.244  0.0498  1.1139  0.2459
 6265SOL    HW219196   4.821   6.282   1.265 -0.0426  0.9818 -0.8335
 6266SOL     OW19197   2.098   3.641   5.452  0.2274  0.1365 -0.0438
 6266SOL    HW119198   2.022   3.690   5.421  0.8857  1.3174  0.1439
 6266SOL    HW219199   2.173   3.682   5.407  0.8133 -0.6066  0.2352
 6267SOL     OW19200   0.472   0.008   0.112 -0.4359 -0.1952 -0.1644
 6267SOL    HW119201   0.483  -0.087   0.105  0.2545 -0.1269 -0.0838
 6267SOL    HW219202   0.507   0.042   0.030 -2.2071 -0.1033 -0.9340
 6268SOL     OW19203   5.168   2.409   1.524  0.3626 -0.1914  0.0116
 6268SOL    HW119204   5.229   2.456   1.581 -0.0968  1.0971 -0.5145
 6268SOL    HW219205   5.222   2.342   1.481  0.4855 -2.0622  2.8135
 6269SOL     OW19206   5.797   4.689   0.413 -0.3730  0.5890 -0.5045
 6269SOL    HW119207   5.826   4.668   0.502 -3.1260 -0.0683  0.3130
 6269SOL    HW219208   5.834   4.620   0.359 -1.4772 -1.0249  0.7106
 6270SOL     OW19209   1.942   5.427   1.441  0.3918 -0.1120 -0.3725
 6270SOL    HW119210   1.885   5.358   1.476 -0.6439  0.8956  0.0069
 6270SOL    HW219211   2.017   5.429   1.500 -0.4936  0.3588  0.7698
 6271SOL     OW19212   1.946   2.206   3.437 -0.5849 -0.9156 -0.2878
 6271SOL    HW119213   2.014   2.233   3.376 -2.0093  2.8062 -0.4681
 6271SOL    HW219214   1.917   2.121   3.405  1.8868 -1.2397 -1.9318
 6272SOL     OW19215   0.271   4.277   2.603  0.4458  0.3250 -0.2243
 6272SOL    HW119216   0.197   4.280   2.663 -0.8452 -0.1715 -1.7271
 6272SOL    HW219217   0.345   4.249   2.658 -0.7271 -0.3935  1.0639
 6273SOL     OW19218   2.093   2.794   2.475 -0.2190 -0.1308  0.1490
 6273SOL    HW119219   2.156   2.799   2.547  1.2218  0.2259 -1.0768
 6273SOL    HW219220   2.103   2.705   2.441  0.1781  0.1674 -0.5221
 6274SOL     OW19221   6.690   0.856   0.495  0.3363 -0.1126 -0.3012
 6274SOL    HW119222   6.612   0.802   0.509  1.5117 -1.8957 -0.3738
 6274SOL    HW219223   6.696   0.909   0.575  0.0481 -1.2697  0.5180
 6275SOL     OW19224   3.692   0.455   4.662 -0.0263  0.0633 -0.3178
 6275SOL    HW119225   3.658   0.416   4.743  2.1542  1.2698  1.2995
 6275SOL    HW219226   3.758   0.393   4.632  0.5305  0.5178 -0.0579
 6276SOL     OW19227   4.275   6.742   1.962 -0.3919 -0.1673 -0.5820
 6276SOL    HW119228   4.221   6.767   2.037 -2.5767  1.6247 -2.5605
 6276SOL    HW219229   4.365   6.751   1.992 -1.1665  2.5167  1.2868
 6277SOL     OW19230   3.119   4.746   0.229  0.3163 -0.1582 -0.1242
 6277SOL    HW119231   3.047   4.720   0.287  1.1048  1.3043  1.6098
 6277SOL    HW219232   3.100   4.836   0.205  1.6971  0.3694  0.6370
 6278SOL     OW19233   4.847   0.405   5.555 -0.2724 -0.4450  0.0599
 6278SOL    HW119234   4.794   0.478   5.588  0.8877  1.5858 -2.2210
 6278SOL    HW219235   4.915   0.447   5.502  0.6647 -3.2119 -1.1200
 6279SOL     OW19236   3.489   3.224   1.755  0.2183 -0.1495  0.2914
 6279SOL    HW119237   3.548   3.286   1.797  2.1488 -0.2322 -2.0613
 6279SOL    HW219238   3.530   3.139   1.768  0.4362 -0.2616 -0.9925
 6280SOL     OW19239   4.800   4.055   1.086  0.3700 -0.1338  0.3576
 6280SOL    HW119240   4.820   4.141   1.050 -1.3610 -0.2741 -1.1075
 6280SOL    HW219241   4.885   4.013   1.098  1.1802  1.3230 -0.0733
 6281SOL     OW19242   5.701   0.190   0.580  0.8379  0.0121 -0.6085
 6281SOL    HW119243   5.648   0.215   0.655  0.9514 -3.0934  0.6732
 6281SOL    HW219244   5.660   0.234   0.505 -0.9136  1.0652  0.8865
 6282SOL     OW19245   5.506   5.097   5.991  0.1050 -0.1020  0.3533
 6282SOL    HW119246   5.560   5.018   5.990  0.9152  0.4429  0.2901
 6282SOL    HW219247   5.533   5.143   6.070  0.4696  0.6693 -0.2074
 6283SOL     OW19248   3.150   3.233   4.935  0.1491 -0.4769  0.3517
 6283SOL    HW119249   3.107   3.202   4.856 -1.4014 -1.0850  1.3794
 6283SOL    HW219250   3.116   3.321   4.948  2.3359  0.6633 -0.9742
 6284SOL     OW19251   3.432   6.137   4.798 -0.4201  0.2908 -0.1395
 6284SOL    HW119252   3.352   6.085   4.791  0.4339 -1.0428 -0.3518
 6284SOL    HW219253   3.430   6.195   4.722 -2.0788  1.6077  0.8518
 6285SOL     OW19254   1.456   0.917   1.805 -0.4287 -0.4482  0.0138
 6285SOL    HW119255   1.478   0.839   1.857  1.0630  1.4910  2.4917
 6285SOL    HW219256   1.529   0.977   1.820 -1.1698  1.2103 -2.4190
 6286SOL     OW19257   6.509   1.392   2.705  0.1518 -0.3789 -0.5084
 6286SOL    HW119258   6.455   1.467   2.684  1.4137  0.6445 -0.2046
 6286SOL    HW219259   6.456   1.340   2.766 -1.2007 -0.3903 -1.6479
 6287SOL     OW19260   6.641   2.724   1.294 -0.2604 -0.2148 -0.4669
 6287SOL    HW119261   6.676   2.660   1.355  0.1276 -0.1188 -0.5841
 6287SOL    HW219262   6.584   2.779   1.347 -1.2697 -1.1657 -0.5288
 6288SOL     OW19263   0.882   6.008   4.420 -0.4296 -0.9750  0.4922
 6288SOL    HW119264   0.845   6.092   4.395  0.1090 -1.1604 -1.0008
 6288SOL    HW219265   0.967   6.029   4.458  1.8744 -0.9745 -4.0410
 6289SOL     OW19266   3.399   0.367   4.526  0.1687  0.0951  0.8285
 6289SOL    HW119267   3.351   0.436   4.572  0.1428  0.6296  0.0153
 6289SOL    HW219268   3.373   0.377   4.434  2.0213  0.5556  0.3302
 6290SOL     OW19269   1.346   4.860   1.382 -0.4147 -0.6030 -0.7975
 6290SOL    HW119270   1.257   4.830   1.362 -0.3914 -1.2116 -0.0784
 6290SOL    HW219271   1.385   4.786   1.430 -0.5978  0.8362  1.7300
 6291SOL     OW19272   4.284   6.550   0.676  0.8169  0.0060  0.3991
 6291SOL    HW119273   4.250   6.598   0.600  0.9534 -0.0790  0.2838
 6291SOL    HW219274   4.377   6.540   0.657  0.2344 -3.4931 -1.3627
 6292SOL     OW19275   4.049   1.932   1.822 -0.2447  0.1630  0.0956
 6292SOL    HW119276   4.083   1.942   1.733 -0.2661  0.0410  0.0734
 6292SOL    HW219277   3.997   2.010   1.837  0.0524  0.3556  0.1322
 6293SOL     OW19278   6.689   1.944   0.655 -0.0294  0.0977  0.3037
 6293SOL    HW119279   6.703   1.916   0.746 -1.9123 -0.2347  0.5284
 6293SOL    HW219280   6.634   2.022   0.662 -0.8681 -0.3898 -0.5557
 6294SOL     OW19281   4.852   6.407   6.150  0.3493 -0.0229  0.0648
 6294SOL    HW119282   4.854   6.324   6.197  1.2142 -1.0921 -1.7326
 6294SOL    HW219283   4.820   6.470   6.214  0.4046 -1.5834  1.7197
 6295SOL     OW19284   3.426   0.699   3.031  0.4481 -0.3861  0.5145
 6295SOL    HW119285   3.467   0.765   3.087  2.2248 -1.9122  1.0953
 6295SOL    HW219286   3.422   0.740   2.944  1.6238  0.4432  0.8318
 6296SOL     OW19287   2.878   5.369   2.177  0.5295 -0.3615  0.1626
 6296SOL    HW119288   2.843   5.290   2.136 -1.2712 -0.1982  1.2431
 6296SOL    HW219289   2.800   5.417   2.205  1.5332  2.0809 -0.9214
 6297SOL     OW19290   6.024   2.004   3.563  0.2424 -0.4302  0.3938
 6297SOL    HW119291   6.076   1.941   3.614  2.0534  0.1696 -0.6250
 6297SOL    HW219292   6.054   2.090   3.594 -0.9458 -0.0509  0.5408
 6298SOL     OW19293   6.016   2.721   1.074 -0.0665 -0.4228  0.4264
 6298SOL    HW119294   5.952   2.650   1.083  0.5555 -1.1199 -0.4714
 6298SOL    HW219295   6.090   2.694   1.128  0.5545 -0.9394 -0.6399
 6299SOL     OW19296   0.963   0.359   3.533  0.0401 -0.5133  0.3653
 6299SOL    HW119297   0.880   0.405   3.524  0.7617  0.9617  0.9646
 6299SOL    HW219298   0.965   0.298   3.458 -1.1585  0.0750 -0.1707
 6300SOL     OW19299   5.819   2.095   5.466  0.4095 -0.1923  0.2421
 6300SOL    HW119300   5.860   2.176   5.496  1.2536 -0.2560 -0.7152
 6300SOL    HW219301   5.754   2.075   5.534 -0.1395  1.5213  0.2464
 6301SOL     OW19302   1.821   5.944   5.543 -0.0399  0.6840  0.3303
 6301SOL    HW119303   1.821   5.849   5.551  0.1174  0.4533 -1.9170
 6301SOL    HW219304   1.734   5.965   5.509 -0.8810  1.6158  2.8001
 6302SOL     OW19305   1.208   5.296   6.651  0.3637 -0.1905 -0.0609
 6302SOL    HW119306   1.247   5.270   6.735  1.9772 -0.2746 -0.7819
 6302SOL    HW219307   1.181   5.214   6.610  0.9426 -0.2981 -0.2399
 6303SOL     OW19308   5.112   5.500   2.047 -0.1740 -0.0635 -0.1062
 6303SOL    HW119309   5.051   5.448   1.995 -0.6343  1.1622 -0.8423
 6303SOL    HW219310   5.199   5.470   2.021 -0.4329 -1.5112  0.6133
 6304SOL     OW19311   6.549   1.945   2.031 -0.1822 -0.2178 -0.1055
 6304SOL    HW119312   6.514   1.934   2.120 -0.5273 -1.5782 -0.3802
 6304SOL    HW219313   6.611   2.016   2.038 -0.4426 -0.0946  1.1684
 6305SOL     OW19314   5.128   6.765   4.109 -0.4455 -0.2973 -0.1115
 6305SOL    HW119315   5.116   6.856   4.137 -0.2377  0.0974 -1.2612
 6305SOL    HW219316   5.100   6.764   4.018  0.6493 -1.1274 -0.4599
 6306SOL     OW19317   3.876   6.601   4.431  0.1152  0.1867 -0.6964
 6306SOL    HW119318   3.863   6.574   4.341  3.3274 -1.3103 -0.8657
 6306SOL    HW219319   3.876   6.519   4.481 -1.8168  0.9961  0.7608
 6307SOL     OW19320   5.066   0.126   1.248  0.0345 -0.1538  0.4657
 6307SOL    HW119321   5.113   0.148   1.327  1.2790  2.7401 -0.9343
 6307SOL    HW219322   5.134   0.118   1.181 -1.1833  2.4730 -1.2613
 6308SOL     OW19323   1.049   3.468   2.884  0.3320  0.4782 -0.0315
 6308SOL    HW119324   1.076   3.527   2.954  0.3288  0.5630 -0.1018
 6308SOL    HW219325   1.129   3.423   2.858  0.1047 -0.5177  0.9312
 6309SOL     OW19326   5.924   0.484   5.932 -0.3068 -0.5467  0.1119
 6309SOL    HW119327   5.965   0.490   5.846  0.2491  0.5012  0.4350
 6309SOL    HW219328   5.982   0.532   5.991 -0.9940 -0.7135  0.9633
 6310SOL     OW19329   2.211   2.621   0.497  0.3519  0.1848 -0.3227
 6310SOL    HW119330   2.156   2.633   0.420  3.2272  1.4860 -2.3555
 6310SOL    HW219331   2.225   2.527   0.502  0.5815  0.1145 -1.7936
 6311SOL     OW19332   4.164   2.940   2.928 -0.1545  0.2335 -0.2449
 6311SOL    HW119333   4.072   2.916   2.922  0.1105 -0.5657 -1.4706
 6311SOL    HW219334   4.167   3.034   2.912 -1.0060  0.8249  2.5446
 6312SOL     OW19335   3.751   1.903   2.574 -0.0602 -0.8224  0.4422
 6312SOL    HW119336   3.798   1.831   2.533 -0.9226  0.7003 -3.7430
 6312SOL    HW219337   3.818   1.969   2.592  0.0999 -0.7489 -0.4219
 6313SOL     OW19338   6.375   2.861   1.280 -0.1853  0.1785 -0.2250
 6313SOL    HW119339   6.321   2.840   1.357  1.4824 -1.6524  0.5207
 6313SOL    HW219340   6.380   2.956   1.281 -0.9068  0.2475  1.4546
 6314SOL     OW19341   1.264   1.597   5.766 -0.1556 -0.1980  0.1546
 6314SOL    HW119342   1.239   1.530   5.830  0.4205 -0.4018  0.1723
 6314SOL    HW219343   1.193   1.660   5.769 -0.9025 -1.0028 -0.1351
 6315SOL     OW19344   4.502   4.424   6.047  0.1336 -0.2773  0.0316
 6315SOL    HW119345   4.434   4.360   6.069 -2.6577  2.5795  0.4525
 6315SOL    HW219346   4.473   4.461   5.963  0.9472  1.2825  0.4049
 6316SOL     OW19347   2.254   6.758   6.576 -0.1415  0.2584 -0.3396
 6316SOL    HW119348   2.328   6.699   6.584 -0.0772  0.5075  1.3286
 6316SOL    HW219349   2.236   6.786   6.666 -2.8446 -0.5388 -0.5345
 6317SOL     OW19350   2.257   1.268   1.220  0.2883  0.8258 -0.3279
 6317SOL    HW119351   2.182   1.257   1.280 -0.4188  0.2137 -1.3037
 6317SOL    HW219352   2.334   1.261   1.277 -0.3319 -0.7244  0.3867
 6318SOL     OW19353   3.940   1.018   2.250 -0.4256  0.0598 -0.0210
 6318SOL    HW119354   3.953   0.964   2.328 -2.2490  0.0939  0.3518
 6318SOL    HW219355   3.846   1.035   2.248 -0.0525  2.4634 -0.6375
 6319SOL     OW19356   0.780   6.456   4.643 -0.3865  0.2212 -0.0413
 6319SOL    HW119357   0.853   6.464   4.704 -0.9024 -1.6963  0.9053
 6319SOL    HW219358   0.816   6.481   4.558  1.0690  0.3359  0.5884
 6320SOL     OW19359   3.037   3.880   4.609 -0.0468  0.2249  0.7584
 6320SOL    HW119360   2.979   3.888   4.685 -0.4696  0.6467  0.3974
 6320SOL    HW219361   2.991   3.925   4.539 -1.4349 -3.2543 -0.7918
 6321SOL     OW19362   2.879   2.810   5.386  0.4126 -0.2575 -0.5312
 6321SOL    HW119363   2.876   2.879   5.319 -2.0524 -1.0704 -1.3786
 6321SOL    HW219364   2.791   2.810   5.424  1.4907 -0.4065  2.1841
 6322SOL     OW19365   2.445   1.390   0.836  0.3166  0.3865  0.4718
 6322SOL    HW119366   2.397   1.455   0.785  1.8666  0.4507 -0.9829
 6322SOL    HW219367   2.434   1.417   0.927 -0.3979  1.7382  0.0025
 6323SOL     OW19368   2.099   3.490   2.314  0.3472 -0.1864 -0.0205
 6323SOL    HW119369   2.115   3.543   2.236 -0.8678  0.6555  0.2737
 6323SOL    HW219370   2.006   3.468   2.309  0.5111 -1.0694  0.6211
 6324SOL     OW19371   6.015   4.610   4.119  0.2120 -0.5198 -0.3471
 6324SOL    HW119372   6.050   4.521   4.110  0.6560 -0.2407 -1.6655
 6324SOL    HW219373   6.086   4.666   4.088  0.2631  0.3781  1.2776
 6325SOL     OW19374   0.102   5.066   4.988  0.3232 -0.5465 -0.4693
 6325SOL    HW119375   0.018   5.083   5.031 -0.4416 -0.5185 -1.9188
 6325SOL    HW219376   0.165   5.064   5.059 -1.2213 -2.9741  0.9838
 6326SOL     OW19377   4.114   0.129   6.453  0.3924  0.3078 -0.0635
 6326SOL    HW119378   4.101   0.050   6.506 -0.6326  0.8290  0.4851
 6326SOL    HW219379   4.188   0.107   6.396  0.9745 -0.5712  0.9867
 6327SOL     OW19380   2.119   0.330   2.692 -0.9767  0.2219  0.3960
 6327SOL    HW119381   2.082   0.253   2.735 -0.8773 -0.1736 -0.2100
 6327SOL    HW219382   2.206   0.303   2.664 -2.1453 -0.6176 -2.8211
 6328SOL     OW19383   0.102   0.151   1.056  0.1427 -0.0210  0.4509
 6328SOL    HW119384   0.149   0.123   0.978 -1.8558 -1.0686 -0.4443
 6328SOL    HW219385   0.042   0.219   1.025 -0.6681 -0.4419  1.0533
 6329SOL     OW19386   2.322   3.997   0.454  0.0339  0.2163 -1.1992
 6329SOL    HW119387   2.387   4.043   0.507 -0.0967 -0.1522 -0.7175
 6329SOL    HW219388   2.255   4.063   0.435  0.7995  0.7561 -2.1631
 6330SOL     OW19389   6.567   5.415   2.683 -0.3376  0.1382  0.1874
 6330SOL    HW119390   6.651   5.406   2.638 -0.2162 -0.3224  0.5076
 6330SOL    HW219391   6.516   5.472   2.625  0.5255  1.2426  0.4661
 6331SOL     OW19392   2.011   5.795   0.414  0.0094  0.2026  0.1989
 6331SOL    HW119393   1.969   5.844   0.485  0.8355  0.6763  0.3818
 6331SOL    HW219394   2.103   5.790   0.440  0.5580  1.3326 -1.3329
 6332SOL     OW19395   6.601   1.056   3.136 -0.1979 -0.3900 -0.3466
 6332SOL    HW119396   6.600   1.142   3.094  0.3025 -0.3344 -0.2586
 6332SOL    HW219397   6.518   1.016   3.112  0.1377 -0.4168 -1.5030
 6333SOL     OW19398   4.503   2.752   3.992  0.3963 -1.0839  0.0177
 6333SOL    HW119399   4.471   2.812   3.924 -1.1564 -2.1258 -0.2213
 6333SOL    HW219400   4.480   2.795   4.075 -0.8574 -1.4038 -0.1512
 6334SOL     OW19401   0.918   1.975   1.558 -0.3792  0.0634  0.0792
 6334SOL    HW119402   0.887   1.992   1.468  0.6856  1.7321 -0.0262
 6334SOL    HW219403   0.853   2.017   1.614 -2.1188 -2.6431  0.2663
 6335SOL     OW19404   5.982   0.777   0.122  0.0568  0.0455 -0.1779
 6335SOL    HW119405   6.053   0.720   0.150 -0.7382 -1.3167 -0.7901
 6335SOL    HW219406   5.922   0.779   0.197  0.4293  0.6766  0.1070
 6336SOL     OW19407   1.421   5.836   4.447  0.6768  0.7496  0.2201
 6336SOL    HW119408   1.334   5.803   4.429  0.3538  0.0850  2.6754
 6336SOL    HW219409   1.476   5.758   4.455  1.3065  1.1206 -0.3288
 6337SOL     OW19410   0.220   5.101   0.059  0.5550  0.2577  0.0728
 6337SOL    HW119411   0.255   5.098  -0.030 -0.1666 -0.7271 -0.1849
 6337SOL    HW219412   0.148   5.164   0.054 -1.7032 -2.2529 -0.8868
 6338SOL     OW19413   1.232   4.471   3.077 -0.0944 -0.0778  0.9213
 6338SOL    HW119414   1.301   4.531   3.106  1.1671 -0.2078 -1.5785
 6338SOL    HW219415   1.279   4.398   3.037 -1.6789 -0.9959  0.6575
 6339SOL     OW19416   6.332   2.616   2.250  0.1389  0.1008  0.1069
 6339SOL    HW119417   6.242   2.589   2.267  0.5341  0.4712  3.5357
 6339SOL    HW219418   6.331   2.711   2.258  0.6717  0.2191 -1.0091
 6340SOL     OW19419   4.394   0.530   6.452 -0.7629  0.2939 -0.5951
 6340SOL    HW119420   4.418   0.605   6.398 -0.3553  0.8840  0.3772
 6340SOL    HW219421   4.343   0.474   6.394 -2.2815  1.9798 -0.9962
 6341SOL     OW19422   6.178   6.240   0.133 -0.4031 -0.0757 -0.4843
 6341SOL    HW119423   6.266   6.203   0.143  0.3487  1.9584  1.8432
 6341SOL    HW219424   6.119   6.170   0.160  0.8566 -0.1905  2.4254
 6342SOL     OW19425   0.003   2.822   1.887  0.0965 -0.0944 -0.1877
 6342SOL    HW119426   0.062   2.752   1.917  0.6977  0.9211  1.1203
 6342SOL    HW219427   0.055   2.902   1.896 -1.1034  0.7020 -0.1456
 6343SOL     OW19428   3.479   2.549   1.846  0.1633 -0.3221  0.1684
 6343SOL    HW119429   3.384   2.561   1.854  0.3083  0.5979  0.6629
 6343SOL    HW219430   3.514   2.638   1.839  0.9076 -0.6786 -1.1651
 6344SOL     OW19431   4.414   4.251   2.896 -0.1073  0.5153  0.0020
 6344SOL    HW119432   4.381   4.215   2.978  1.9540 -1.4749  0.0334
 6344SOL    HW219433   4.342   4.239   2.834 -0.8483 -0.0905  0.9591
 6345SOL     OW19434   0.393   3.676   5.411  0.0714 -0.0257  0.3092
 6345SOL    HW119435   0.394   3.772   5.406 -0.8180 -0.0382 -0.5239
 6345SOL    HW219436   0.379   3.657   5.503  1.3538  0.6203  0.6534
 6346SOL     OW19437   3.416   3.787   3.807  0.5020 -0.0153  0.0179
 6346SOL    HW119438   3.500   3.761   3.769 -0.0003 -0.8510 -0.5415
 6346SOL    HW219439   3.379   3.706   3.842  0.5215  0.5770  1.4717
 6347SOL     OW19440   1.106   3.925   5.477 -0.2967 -0.0262  0.0868
 6347SOL    HW119441   1.054   3.927   5.396 -1.1396 -0.2615  0.6151
 6347SOL    HW219442   1.109   3.832   5.501  1.6404 -0.2414 -0.7248
 6348SOL     OW19443   2.467   1.118   0.920  0.3465  0.0779 -0.4762
 6348SOL    HW119444   2.486   1.072   0.838 -1.1460  0.5067 -1.1045
 6348SOL    HW219445   2.441   1.206   0.893 -1.4846 -0.1578  0.3082
 6349SOL     OW19446   2.434   2.734   3.985  0.1921 -0.2144  0.1694
 6349SOL    HW119447   2.440   2.682   4.064 -1.8138 -1.3279 -0.3583
 6349SOL    HW219448   2.503   2.699   3.928  0.8692 -0.1896  0.9513
 6350SOL     OW19449   6.714   1.007   2.182  0.7614  0.1170 -0.3519
 6350SOL    HW119450   6.783   0.967   2.129  0.2225 -0.3166 -0.7308
 6350SOL    HW219451   6.658   0.933   2.209  0.3918  0.4747 -0.1204
 6351SOL     OW19452   6.740   2.703   2.614  0.0216  0.3851  0.1076
 6351SOL    HW119453   6.764   2.695   2.522 -1.8677 -3.1052 -0.2339
 6351SOL    HW219454   6.765   2.793   2.637  4.0305  0.2696 -2.6947
 6352SOL     OW19455   3.461   5.891   2.328  0.4114  0.3395 -0.3228
 6352SOL    HW119456   3.437   5.821   2.389  1.5750 -1.0452 -1.4106
 6352SOL    HW219457   3.491   5.962   2.385 -1.3292  0.2139  0.8280
 6353SOL     OW19458   2.380   1.638   1.859 -0.5033 -0.5068 -0.4268
 6353SOL    HW119459   2.326   1.697   1.912  0.2050 -0.9721  0.8616
 6353SOL    HW219460   2.349   1.651   1.769 -2.7924 -0.7845  0.2506
 6354SOL     OW19461   0.799   0.662   1.069  0.0063 -0.1937  0.1380
 6354SOL    HW119462   0.836   0.624   1.148 -1.0063  0.2320  0.8286
 6354SOL    HW219463   0.757   0.743   1.098 -1.4171 -0.6235 -0.6032
 6355SOL     OW19464   1.020   4.743   5.241  0.0661 -0.3830  0.1289
 6355SOL    HW119465   1.036   4.649   5.254  0.5991 -0.0672  2.1696
 6355SOL    HW219466   0.925   4.749   5.228  0.0802 -1.2288 -0.4545
 6356SOL     OW19467   0.477   3.144   4.692  0.2580  0.0002  0.7313
 6356SOL    HW119468   0.558   3.098   4.717  0.1257 -0.3513  0.5249
 6356SOL    HW219469   0.415   3.073   4.673 -0.0920  0.2703  0.8722
 6357SOL     OW19470   1.591   2.023   0.393 -0.2730  0.3092  0.0007
 6357SOL    HW119471   1.497   2.005   0.385 -0.1346 -0.7807  0.6071
 6357SOL    HW219472   1.602   2.054   0.483  0.0933 -0.7103  0.3306
 6358SOL     OW19473   0.954   0.746   5.361  0.1349  0.7761 -0.0345
 6358SOL    HW119474   0.892   0.748   5.434 -0.4006 -0.3624 -0.4299
 6358SOL    HW219475   0.996   0.832   5.363  0.8847  0.4493  2.2421
 6359SOL     OW19476   6.696   4.494   5.770 -0.2231  0.4246  0.3902
 6359SOL    HW119477   6.625   4.447   5.814  2.6507  0.6140  6.2240
 6359SOL    HW219478   6.774   4.442   5.789  2.0101  3.3626 -0.0481
 6360SOL     OW19479   3.122   6.396   5.720 -0.0544 -0.5421  0.4634
 6360SOL    HW119480   3.146   6.372   5.630  0.0707  4.1050 -1.0051
 6360SOL    HW219481   3.203   6.387   5.770  1.7206  2.7908 -1.4963
 6361SOL     OW19482   2.842   2.470   3.463 -0.1444 -0.2054  0.4707
 6361SOL    HW119483   2.933   2.488   3.484 -0.2079  0.5546  0.1323
 6361SOL    HW219484   2.792   2.511   3.534 -0.2185 -0.6822  0.6934
 6362SOL     OW19485   5.690   2.075   4.958  0.2242 -0.5379  0.0051
 6362SOL    HW119486   5.655   2.133   5.025 -0.6258 -0.1452 -0.7771
 6362SOL    HW219487   5.673   2.119   4.875  0.7313 -1.2962 -0.5192
 6363SOL     OW19488   1.361   2.920   3.206  0.0167  0.1522 -0.3169
 6363SOL    HW119489   1.399   3.008   3.203 -1.7864  1.0908  1.5860
 6363SOL    HW219490   1.267   2.935   3.209 -0.3734 -1.9132 -0.7518
 6364SOL     OW19491   5.510   5.734   1.826 -0.6355 -0.1689 -0.2554
 6364SOL    HW119492   5.558   5.666   1.874 -1.2638 -1.5725 -1.5412
 6364SOL    HW219493   5.438   5.758   1.885 -2.4028 -3.0721 -1.0444
 6365SOL     OW19494   6.328   4.975   0.765 -0.4543  0.4098 -0.2862
 6365SOL    HW119495   6.333   4.931   0.680  0.1424 -0.9378  0.4229
 6365SOL    HW219496   6.236   4.969   0.791 -0.3295 -0.7294 -0.0575
 6366SOL     OW19497   0.631   4.876   5.713  0.1276 -0.0500  0.0703
 6366SOL    HW119498   0.628   4.795   5.764  0.4215  0.4452  0.8874
 6366SOL    HW219499   0.578   4.857   5.636  1.3130 -1.4976 -0.4476
 6367SOL     OW19500   0.484   1.381   3.913  0.9841  0.1852 -0.1728
 6367SOL    HW119501   0.423   1.447   3.946 -0.1256 -1.0980  0.4309
 6367SOL    HW219502   0.558   1.384   3.974  0.8103  0.6745  0.0175
 6368SOL     OW19503   5.999   6.340   6.477  0.3245  0.0547  0.4478
 6368SOL    HW119504   5.931   6.409   6.480 -0.4419 -0.6539 -0.3007
 6368SOL    HW219505   6.063   6.373   6.414 -1.8105 -1.4282 -2.7807
 6369SOL     OW19506   2.871   6.081   5.767 -0.3168  0.0149  0.6554
 6369SOL    HW119507   2.784   6.088   5.728 -0.2882  0.3727  0.6559
 6369SOL    HW219508   2.917   6.019   5.711 -1.1087 -1.5229  1.6327
 6370SOL     OW19509   5.118   2.895   3.496  0.4642 -0.4447 -0.0099
 6370SOL    HW119510   5.204   2.874   3.458  0.9887  0.5273  0.6068
 6370SOL    HW219511   5.108   2.989   3.481  0.1513 -0.2773  1.2150
 6371SOL     OW19512   5.865   3.780   2.952 -0.3719  0.3369 -0.4073
 6371SOL    HW119513   5.890   3.830   2.874 -0.2169 -0.1247 -0.6608
 6371SOL    HW219514   5.948   3.762   2.996 -0.3968  0.0855 -0.4580
 6372SOL     OW19515   4.756   6.575   6.340  0.7669  0.3123 -0.1170
 6372SOL    HW119516   4.829   6.582   6.401  1.6750 -0.6865 -1.0421
 6372SOL    HW219517   4.765   6.651   6.283  0.9830  0.2771 -0.1297
 6373SOL     OW19518   5.482   2.940   4.914 -0.3100  0.6561  0.3189
 6373SOL    HW119519   5.524   2.993   4.982  1.5580 -1.2449  0.7781
 6373SOL    HW219520   5.442   2.867   4.962  1.9252 -1.2778 -0.5658
 6374SOL     OW19521   5.212   2.551   2.313  0.0920 -0.3337 -0.4784
 6374SOL    HW119522   5.196   2.617   2.380  0.8285  0.2986 -0.9079
 6374SOL    HW219523   5.292   2.580   2.269 -1.1863  0.0892 -2.6630
 6375SOL     OW19524   5.128   3.593   0.166 -0.3189  0.3804 -0.5720
 6375SOL    HW119525   5.044   3.548   0.169 -0.1722  0.1060 -0.6066
 6375SOL    HW219526   5.113   3.668   0.108 -0.9664  1.2033  0.6241
 6376SOL     OW19527   3.885   1.654   1.094 -0.5448 -0.7873 -0.1660
 6376SOL    HW119528   3.811   1.712   1.078 -1.1258 -1.3622  0.4014
 6376SOL    HW219529   3.903   1.613   1.010 -1.0045 -0.8029 -0.2565
 6377SOL     OW19530   0.656   3.813   2.274 -0.0043 -0.1666 -0.2121
 6377SOL    HW119531   0.624   3.784   2.359 -0.0261 -1.5501 -0.6796
 6377SOL    HW219532   0.733   3.759   2.256  1.1494  1.3979 -0.2513
 6378SOL     OW19533   1.114   1.329   6.214  0.5270  0.0969 -0.3070
 6378SOL    HW119534   1.177   1.288   6.273  1.2203 -1.0759 -1.8070
 6378SOL    HW219535   1.029   1.308   6.253  0.6284 -4.8461 -2.0207
 6379SOL     OW19536   3.140   1.724   1.140  0.1058 -0.0488 -0.7153
 6379SOL    HW119537   3.065   1.738   1.082  0.6296 -1.8156 -1.8980
 6379SOL    HW219538   3.209   1.780   1.103  0.4198 -1.1232 -1.8362
 6380SOL     OW19539   6.754   4.118   0.612 -0.4071  0.2842 -0.6573
 6380SOL    HW119540   6.726   4.180   0.679  0.2300 -0.0389 -0.0755
 6380SOL    HW219541   6.722   4.033   0.643  1.0328 -0.0688 -0.0507
 6381SOL     OW19542   4.944   0.655   0.275  0.3659  0.2111  0.0679
 6381SOL    HW119543   4.918   0.633   0.186 -0.0262 -0.8899  0.4329
 6381SOL    HW219544   4.863   0.651   0.326  0.6849  0.2000  0.5849
 6382SOL     OW19545   2.432   1.632   6.465 -0.4725 -0.5374 -0.1041
 6382SOL    HW119546   2.382   1.654   6.543 -1.5009 -1.0370 -0.5940
 6382SOL    HW219547   2.433   1.536   6.463 -0.4171 -0.5320 -0.6762
 6383SOL     OW19548   3.358   4.263   1.058  0.5443 -0.1489 -0.1331
 6383SOL    HW119549   3.352   4.198   0.988 -2.6624  0.4254 -0.5166
 6383SOL    HW219550   3.383   4.344   1.013 -1.8668  0.3045 -0.7774
 6384SOL     OW19551   0.140   4.088   3.175 -0.0988  0.0297  0.3041
 6384SOL    HW119552   0.136   4.028   3.250  1.4268  2.2930  2.3301
 6384SOL    HW219553   0.050   4.120   3.164 -0.2164  0.1690  1.6063
 6385SOL     OW19554   2.763   2.475   4.077 -0.2096  0.0195  0.0470
 6385SOL    HW119555   2.842   2.439   4.038 -1.0407 -0.5481 -1.1594
 6385SOL    HW219556   2.691   2.426   4.036 -1.2766  1.7047 -0.1851
 6386SOL     OW19557   2.651   4.935   0.057 -0.1985 -0.0939  0.0251
 6386SOL    HW119558   2.623   5.013   0.104 -0.3006 -0.1060 -0.0156
 6386SOL    HW219559   2.574   4.878   0.057  0.5735 -1.2254  2.1787
 6387SOL     OW19560   1.231   1.855   4.154 -0.6242 -0.8595  0.1537
 6387SOL    HW119561   1.237   1.930   4.212  2.3788 -2.5486  2.3281
 6387SOL    HW219562   1.316   1.853   4.109 -2.1439 -0.7148 -3.0521
 6388SOL     OW19563   1.486   1.040   4.524 -0.1207 -0.1910  0.1842
 6388SOL    HW119564   1.405   1.052   4.475 -0.5011 -3.1410 -0.1067
 6388SOL    HW219565   1.469   0.963   4.578  2.0924 -0.1388  1.0313
 6389SOL     OW19566   3.884   6.686   0.999  0.1755 -0.0728 -0.2232
 6389SOL    HW119567   3.865   6.714   1.088 -0.0932 -0.4995 -0.1410
 6389SOL    HW219568   3.828   6.740   0.944  1.3921  1.2130 -0.2547
 6390SOL     OW19569   6.634   2.238   2.856  0.3065 -0.1484 -0.4841
 6390SOL    HW119570   6.584   2.195   2.925 -1.1022 -0.6452 -1.7744
 6390SOL    HW219571   6.688   2.169   2.818  0.8127  0.0508 -0.1504
 6391SOL     OW19572   3.209   6.448   6.643  0.0858 -1.2513 -0.0422
 6391SOL    HW119573   3.297   6.468   6.676 -0.2962 -0.4832  0.5140
 6391SOL    HW219574   3.164   6.409   6.718 -0.5297 -0.2430  0.1178
 6392SOL     OW19575   4.558   5.461   4.715  0.4305  0.3269  0.2471
 6392SOL    HW119576   4.507   5.519   4.771  0.7178 -1.0616  2.0418
 6392SOL    HW219577   4.506   5.380   4.711  0.0206  0.6422 -2.2117
 6393SOL     OW19578   0.099   3.990   4.688  0.1562  0.4121 -0.4524
 6393SOL    HW119579   0.036   3.954   4.751 -0.7287  0.2494 -1.4191
 6393SOL    HW219580   0.183   3.953   4.715 -0.4185 -0.7491 -0.1934
 6394SOL     OW19581   2.040   6.299   3.636  0.1300 -0.4300  0.2957
 6394SOL    HW119582   1.995   6.322   3.717 -2.3517 -0.3422 -1.0307
 6394SOL    HW219583   2.005   6.213   3.613  2.4642 -1.4978  0.3871
 6395SOL     OW19584   2.992   4.766   4.860  1.0414 -0.2836 -0.6167
 6395SOL    HW119585   2.999   4.684   4.911  1.2722 -0.5977 -1.1470
 6395SOL    HW219586   2.969   4.737   4.772  1.6697  0.1933 -0.9359
 6396SOL     OW19587   2.744   6.543   3.437  0.4263 -0.3945  0.3569
 6396SOL    HW119588   2.666   6.490   3.452  0.6062 -0.9485 -0.6038
 6396SOL    HW219589   2.718   6.631   3.462  0.0441 -0.8807  1.7308
 6397SOL     OW19590   6.279   5.941   5.305  0.1787  0.0066  0.2946
 6397SOL    HW119591   6.231   5.996   5.368  1.3622  0.8319  0.5139
 6397SOL    HW219592   6.306   6.002   5.236  1.7585 -0.2110  0.6813
 6398SOL     OW19593   3.514   3.976   2.720  0.4698  0.6917 -0.1965
 6398SOL    HW119594   3.443   3.952   2.780 -0.8100  0.8472 -1.6133
 6398SOL    HW219595   3.594   3.952   2.768 -0.5222  0.1863  1.2887
 6399SOL     OW19596   5.568   1.497   5.865 -0.5847  0.0532 -0.3929
 6399SOL    HW119597   5.614   1.571   5.825 -3.2688  1.5877 -0.9095
 6399SOL    HW219598   5.614   1.420   5.832  0.7722  1.4166 -1.9117
 6400SOL     OW19599   1.243   3.532   5.820  0.4384 -0.1248 -0.1545
 6400SOL    HW119600   1.179   3.485   5.874  0.2233  0.1551 -0.1634
 6400SOL    HW219601   1.302   3.463   5.788  0.6548 -0.2809  0.5505
 6401SOL     OW19602   2.552   6.499   4.180  0.1751  0.3618  0.4857
 6401SOL    HW119603   2.608   6.575   4.199 -0.4039  0.4856  1.7988
 6401SOL    HW219604   2.528   6.466   4.267  0.5408 -1.4183 -0.0648
 6402SOL     OW19605   5.931   2.278   5.648  0.2214 -0.2610  0.2651
 6402SOL    HW119606   6.020   2.243   5.640  0.2642 -0.2349  0.6012
 6402SOL    HW219607   5.917   2.285   5.743  0.0227  0.1451  0.2063
 6403SOL     OW19608   6.653   6.600   4.167 -0.0650 -0.7066 -0.4796
 6403SOL    HW119609   6.588   6.629   4.231  1.1754  1.9526 -0.3016
 6403SOL    HW219610   6.610   6.611   4.082 -0.3490 -0.3791 -0.2947
 6404SOL     OW19611   0.893   2.627   3.762 -0.0792  0.2628 -0.4133
 6404SOL    HW119612   0.819   2.573   3.790  2.8448 -3.7506  0.6249
 6404SOL    HW219613   0.897   2.617   3.667  0.6125 -1.8581 -0.2066
 6405SOL     OW19614   0.563   3.218   0.182 -0.2351  0.0759 -0.3947
 6405SOL    HW119615   0.519   3.148   0.134  0.6048 -0.7984  0.0927
 6405SOL    HW219616   0.654   3.214   0.153 -0.1214  0.8146 -0.1775
 6406SOL     OW19617   4.261   1.840   3.667 -0.1059 -0.4032  0.1866
 6406SOL    HW119618   4.339   1.785   3.662 -0.9114 -1.6931  1.2478
 6406SOL    HW219619   4.240   1.860   3.576  0.9184 -0.8128 -0.1551
 6407SOL     OW19620   0.169   6.665   6.244  0.2833 -0.0659 -0.2545
 6407SOL    HW119621   0.096   6.675   6.184  0.9006  0.0368 -1.0158
 6407SOL    HW219622   0.130   6.668   6.332 -0.1594  5.2931 -0.3247
 6408SOL     OW19623   0.004   4.576   1.870  0.0431 -0.3725 -0.7719
 6408SOL    HW119624  -0.061   4.514   1.839  0.7533 -1.9704  0.7213
 6408SOL    HW219625   0.087   4.528   1.867  0.5511  0.3082  0.8446
 6409SOL     OW19626   4.496   2.876   5.102 -0.4018 -0.2165  0.5256
 6409SOL    HW119627   4.544   2.793   5.109 -2.1217 -1.1969  1.3640
 6409SOL    HW219628   4.413   2.859   5.147 -1.9524  1.0800 -1.6458
 6410SOL     OW19629   3.705   3.866   5.207 -0.1305 -0.1859  0.4860
 6410SOL    HW119630   3.627   3.894   5.254 -0.5852 -2.1460  0.9891
 6410SOL    HW219631   3.765   3.940   5.213 -2.2015  1.7224 -0.6174
 6411SOL     OW19632   4.328   4.278   5.095  0.1892 -0.2973 -0.2525
 6411SOL    HW119633   4.282   4.354   5.129 -1.7610 -0.9012 -1.3337
 6411SOL    HW219634   4.388   4.253   5.164 -1.9201 -0.1029  1.7919
 6412SOL     OW19635   3.993   0.934   2.973  0.2267  0.2653 -0.5883
 6412SOL    HW119636   3.909   0.978   2.958  0.6181  2.0970  1.8193
 6412SOL    HW219637   3.970   0.842   2.985 -1.2387  0.4838 -1.4048
 6413SOL     OW19638   1.078   5.177   1.362  0.6905 -0.1424  0.3184
 6413SOL    HW119639   1.125   5.143   1.438  1.1729  0.9401  0.5192
 6413SOL    HW219640   1.128   5.255   1.336 -0.3586  0.3817 -0.1585
 6414SOL     OW19641   6.242   1.196   5.020 -0.1496  0.4178 -0.8875
 6414SOL    HW119642   6.165   1.194   5.076 -0.5400 -0.7145 -1.4431
 6414SOL    HW219643   6.299   1.127   5.054 -0.3794 -0.2664 -1.8469
 6415SOL     OW19644   0.798   0.766   4.579 -0.2214 -0.0915  0.0157
 6415SOL    HW119645   0.855   0.701   4.537 -1.5227 -0.7932 -0.7052
 6415SOL    HW219646   0.735   0.714   4.629  0.7677  0.7113  2.2127
 6416SOL     OW19647   2.320   2.239   1.851  0.2112 -0.2377 -0.1481
 6416SOL    HW119648   2.303   2.151   1.820  0.5388  0.4416 -2.4488
 6416SOL    HW219649   2.267   2.295   1.795  2.6478  1.2403 -1.1410
 6417SOL     OW19650   0.816   3.594   5.907 -0.5053 -0.1165  0.1841
 6417SOL    HW119651   0.735   3.601   5.959 -0.9889  1.0672 -0.6816
 6417SOL    HW219652   0.804   3.657   5.836  1.4702  0.5543  0.3981
 6418SOL     OW19653   4.991   0.629   3.857 -0.5041  0.2895 -0.1714
 6418SOL    HW119654   5.023   0.540   3.870  0.2353  0.7832  1.5384
 6418SOL    HW219655   4.906   0.617   3.815  0.8266 -1.1039 -2.7124
 6419SOL     OW19656   5.602   0.199   5.710 -0.6583 -0.4808  0.2153
 6419SOL    HW119657   5.531   0.136   5.717 -0.9100 -0.2050  0.1679
 6419SOL    HW219658   5.676   0.148   5.678 -1.2928 -0.4557 -1.3785
 6420SOL     OW19659   3.405   0.869   6.172  0.5752 -0.1695  0.1723
 6420SOL    HW119660   3.446   0.811   6.108 -0.3562 -1.3156  0.5591
 6420SOL    HW219661   3.376   0.945   6.121  0.4763 -0.7382 -0.6474
 6421SOL     OW19662   4.950   2.185   5.864  0.5830  0.0432 -0.3345
 6421SOL    HW119663   4.929   2.153   5.952 -3.1969 -0.6011 -1.3329
 6421SOL    HW219664   5.024   2.131   5.836  0.9009 -0.7444  1.8295
 6422SOL     OW19665   3.629   6.210   6.235  0.1469 -0.0263 -0.1760
 6422SOL    HW119666   3.717   6.248   6.243 -0.1522  0.6189  0.1798
 6422SOL    HW219667   3.627   6.141   6.301  0.6651 -0.6218 -0.7611
 6423SOL     OW19668   2.071   1.151   6.429 -0.6587  0.4991 -0.0402
 6423SOL    HW119669   2.032   1.232   6.460 -0.1327  0.6344  0.2779
 6423SOL    HW219670   2.040   1.084   6.490 -1.0694  0.4606 -0.2860
 6424SOL     OW19671   0.548   0.022   3.659  0.0340  1.3430 -0.2497
 6424SOL    HW119672   0.568   0.009   3.752 -1.4174  0.3468 -0.0548
 6424SOL    HW219673   0.596   0.102   3.636  3.1574 -0.1707  0.4646
 6425SOL     OW19674   4.041   2.381   6.636  0.8112  0.1153 -0.1301
 6425SOL    HW119675   4.038   2.476   6.645  0.8439 -0.0050  1.3159
 6425SOL    HW219676   3.950   2.354   6.623  0.8069  0.3331 -0.5738
 6426SOL     OW19677   6.742   3.990   0.294  0.0127  0.2308 -0.3606
 6426SOL    HW119678   6.730   4.084   0.301 -0.3740  0.1174  0.5938
 6426SOL    HW219679   6.667   3.952   0.339 -0.3609 -0.5503 -1.5810
 6427SOL     OW19680   2.969   2.773   0.144  0.0563  0.2849  0.8069
 6427SOL    HW119681   2.940   2.854   0.102  1.1483  0.2365 -0.0811
 6427SOL    HW219682   2.910   2.706   0.109 -1.0006  0.6989  1.7212
 6428SOL     OW19683   2.789   5.987   6.551  0.2848  0.3825  0.4772
 6428SOL    HW119684   2.805   5.930   6.475 -0.1474  0.1198  0.5816
 6428SOL    HW219685   2.718   6.045   6.523  1.2724  1.4447  0.0705
 6429SOL     OW19686   1.104   3.033   6.535  0.3321  0.6416  0.1255
 6429SOL    HW119687   1.040   3.015   6.465 -0.4577  2.1164  0.4457
 6429SOL    HW219688   1.167   2.962   6.527 -0.8799 -0.3921 -0.7533
 6430SOL     OW19689   5.114   6.172   2.698  0.0916 -0.0700  0.0640
 6430SOL    HW119690   5.138   6.206   2.612  0.6866 -3.0857 -1.1046
 6430SOL    HW219691   5.167   6.093   2.708 -1.8525 -1.2406  2.0825
 6431SOL     OW19692   4.808   5.204   3.645 -0.1362  0.0909 -0.2450
 6431SOL    HW119693   4.759   5.122   3.656  2.5590 -1.3290  3.4618
 6431SOL    HW219694   4.879   5.182   3.585  0.5304 -0.3215  0.6739
 6432SOL     OW19695   3.218   0.463   3.104  0.1888  0.3669 -0.0459
 6432SOL    HW119696   3.212   0.558   3.097  1.4216  0.4537 -0.2229
 6432SOL    HW219697   3.173   0.443   3.186 -0.4684  1.0462 -0.2236
 6433SOL     OW19698   0.847   4.375   3.768 -0.3800 -0.0384  0.5431
 6433SOL    HW119699   0.789   4.318   3.718  0.0059 -0.0605  0.1099
 6433SOL    HW219700   0.850   4.456   3.718  1.5712 -0.7217 -0.5978
 6434SOL     OW19701   4.289   3.995   4.143  0.0024 -0.2023 -0.0561
 6434SOL    HW119702   4.305   3.928   4.209 -0.9323 -1.0811 -0.6911
 6434SOL    HW219703   4.208   4.038   4.173 -0.9051 -1.1650 -1.0223
 6435SOL     OW19704   5.929   4.852   1.725 -0.4305  0.3005  0.2957
 6435SOL    HW119705   5.934   4.837   1.630 -0.2589 -1.2174  0.5045
 6435SOL    HW219706   6.021   4.852   1.754 -0.5124 -0.0651  0.5611
 6436SOL     OW19707   1.354   2.667   0.517  0.6055  0.0292  0.2983
 6436SOL    HW119708   1.433   2.708   0.550  0.5660  2.3456 -2.0619
 6436SOL    HW219709   1.384   2.608   0.448  0.4399 -1.8135  1.7297
 6437SOL     OW19710   3.926   6.718   4.788  0.3397  0.9524  0.3512
 6437SOL    HW119711   3.945   6.664   4.711 -0.6815  1.7536 -0.4911
 6437SOL    HW219712   4.003   6.774   4.798  0.4792  0.8441 -0.0912
 6438SOL     OW19713   1.605   1.406   0.871  0.5216  0.7839 -0.0500
 6438SOL    HW119714   1.546   1.378   0.941  2.6524  1.5312  2.1928
 6438SOL    HW219715   1.658   1.329   0.852  0.8746  0.9611  0.1938
 6439SOL     OW19716   3.012   1.382   3.916 -0.4328  0.4153  0.0457
 6439SOL    HW119717   3.093   1.433   3.918 -1.3280  2.0347 -1.6252
 6439SOL    HW219718   2.943   1.448   3.906 -1.7570 -1.0434 -0.8886
 6440SOL     OW19719   0.536   0.970   0.524  0.2408 -0.7013  0.0571
 6440SOL    HW119720   0.471   0.927   0.468 -0.6639  1.0327 -0.2656
 6440SOL    HW219721   0.522   0.932   0.611  0.5326 -2.1832 -0.4970
 6441SOL     OW19722   0.727   6.557   3.456  0.4826 -0.1258 -0.0243
 6441SOL    HW119723   0.774   6.591   3.532  1.2866 -1.2509  0.0017
 6441SOL    HW219724   0.691   6.635   3.414  1.1080  0.6301  0.7956
 6442SOL     OW19725   3.859   5.273   0.477 -0.2047  0.3639  0.0044
 6442SOL    HW119726   3.927   5.213   0.448  0.7459  1.7757 -0.8130
 6442SOL    HW219727   3.871   5.278   0.572  0.5015  0.1916 -0.0681
 6443SOL     OW19728   1.746   6.529   1.895  0.4356 -0.6314  0.3792
 6443SOL    HW119729   1.705   6.596   1.949 -1.6175 -0.3631 -1.3610
 6443SOL    HW219730   1.817   6.574   1.849  1.0820 -0.4519  1.5340
 6444SOL     OW19731   2.002   4.448   1.626  0.0752 -0.3427  0.6513
 6444SOL    HW119732   2.041   4.533   1.606 -2.7086  0.5430 -1.6744
 6444SOL    HW219733   1.962   4.459   1.712 -0.8395  1.0123  0.0917
 6445SOL     OW19734   5.662   0.037   3.783  0.4259  0.7493 -0.1772
 6445SOL    HW119735   5.598   0.001   3.721  0.7934 -0.0521 -0.0951
 6445SOL    HW219736   5.610   0.097   3.837 -0.7504 -1.3741  1.2070
 6446SOL     OW19737   6.013   6.053   3.890 -0.3453 -0.0395  0.4422
 6446SOL    HW119738   6.008   5.977   3.833  1.9803  0.1094 -0.0533
 6446SOL    HW219739   5.925   6.092   3.886 -0.7305 -0.9850 -1.6670
 6447SOL     OW19740   2.510   3.616   6.010 -0.3802 -0.2743 -0.0181
 6447SOL    HW119741   2.515   3.688   5.947 -0.4498  1.6221  2.0371
 6447SOL    HW219742   2.598   3.610   6.046 -0.8597  0.2188  1.2983
 6448SOL     OW19743   5.826   4.727   1.175  0.1265 -0.0840  0.0620
 6448SOL    HW119744   5.734   4.728   1.149  0.3029 -0.3989 -0.5833
 6448SOL    HW219745   5.849   4.819   1.186 -0.5059 -0.0314  1.1076
 6449SOL     OW19746   3.920   2.977   2.184  0.1236 -0.8691 -0.3993
 6449SOL    HW119747   3.926   2.958   2.278 -0.0974 -1.6500 -0.5379
 6449SOL    HW219748   3.967   3.060   2.174 -2.0542  0.6237  0.8207
 6450SOL     OW19749   2.734   1.060   6.459  0.2481  0.2050 -0.6144
 6450SOL    HW119750   2.693   0.974   6.451 -1.3138  0.9974 -1.5715
 6450SOL    HW219751   2.662   1.122   6.448  1.4868  1.6540 -0.8910
 6451SOL     OW19752   5.277   2.593   3.299  0.0421 -0.1788 -0.6291
 6451SOL    HW119753   5.372   2.584   3.305  0.0311  0.5710  0.9490
 6451SOL    HW219754   5.259   2.685   3.318 -1.0141 -0.3338 -0.7797
 6452SOL     OW19755   0.216   2.013   4.317 -0.0914 -0.4063  0.2915
 6452SOL    HW119756   0.288   2.061   4.356 -0.2021 -1.7382  2.2865
 6452SOL    HW219757   0.248   1.923   4.309 -1.5449 -1.0885  1.4684
 6453SOL     OW19758   1.164   3.208   4.313  0.3299 -0.0488 -0.4366
 6453SOL    HW119759   1.108   3.208   4.235  0.0291 -1.0628 -0.2348
 6453SOL    HW219760   1.246   3.167   4.284  0.5407  0.3519 -0.4254
 6454SOL     OW19761   0.156   0.933   1.373  0.3450  0.1729 -0.1011
 6454SOL    HW119762   0.129   0.962   1.285 -1.8544 -5.6358 -1.8243
 6454SOL    HW219763   0.075   0.936   1.424 -0.3684 -3.2923 -0.7488
 6455SOL     OW19764   2.534   1.969   5.969 -0.2056 -0.7683 -0.4433
 6455SOL    HW119765   2.480   1.987   6.046 -2.3812 -1.5808 -1.6766
 6455SOL    HW219766   2.516   2.042   5.909  0.5792 -0.7160 -0.6211
 6456SOL     OW19767   3.372   0.398   5.944  0.3830 -0.3189 -0.5502
 6456SOL    HW119768   3.311   0.417   6.015  0.5966 -0.7367 -0.2514
 6456SOL    HW219769   3.388   0.483   5.903  2.5142  0.5067  1.7356
 6457SOL     OW19770   5.208   3.335   1.982  0.5837 -0.2162  0.0234
 6457SOL    HW119771   5.267   3.260   1.989 -0.2569 -1.0472 -1.3317
 6457SOL    HW219772   5.200   3.369   2.071  0.4701 -2.1455  0.7771
 6458SOL     OW19773   2.860   1.253   3.719  0.0244  0.4208 -0.0855
 6458SOL    HW119774   2.886   1.182   3.777 -1.0617  0.3862  0.3755
 6458SOL    HW219775   2.887   1.332   3.764  0.8180  0.3352 -0.3877
 6459SOL     OW19776   4.912   5.865   5.480  0.2015 -0.0244 -0.1559
 6459SOL    HW119777   4.991   5.815   5.460 -0.6546 -1.5621  0.1948
 6459SOL    HW219778   4.878   5.826   5.560 -2.1088 -0.8935 -1.4569
 6460SOL     OW19779   4.684   5.465   0.273  0.0530  0.3354  0.0895
 6460SOL    HW119780   4.672   5.391   0.213  0.3155  2.0519 -2.1735
 6460SOL    HW219781   4.596   5.499   0.287 -0.0485 -0.2434  1.0180
 6461SOL     OW19782   0.501   0.380   1.889 -0.2399 -0.2867  0.3608
 6461SOL    HW119783   0.592   0.409   1.876 -0.0816 -0.8156  0.2760
 6461SOL    HW219784   0.460   0.453   1.935 -0.5160  1.1700 -1.9960
 6462SOL     OW19785   6.645   2.945   6.505 -0.4409  0.6191  0.0467
 6462SOL    HW119786   6.625   2.860   6.545  0.9600  0.4972  0.5717
 6462SOL    HW219787   6.741   2.945   6.497 -0.4749  1.8712 -0.5846
 6463SOL     OW19788   0.148   2.476   2.797 -0.0032 -0.0651 -0.1858
 6463SOL    HW119789   0.213   2.452   2.864  1.7938  3.7992 -0.3211
 6463SOL    HW219790   0.067   2.491   2.847 -0.1498 -2.1516  0.3343
 6464SOL     OW19791   4.299   4.245   6.673  0.4782 -0.3182 -0.1049
 6464SOL    HW119792   4.275   4.311   6.736  0.5412  0.7159 -1.1289
 6464SOL    HW219793   4.301   4.291   6.589 -0.3921 -1.8059 -0.9963
 6465SOL     OW19794   1.817   0.958   2.533 -0.2829 -0.2190  0.0923
 6465SOL    HW119795   1.856   0.908   2.604 -0.0557 -1.6672 -1.0131
 6465SOL    HW219796   1.774   1.032   2.577  2.5637  0.7673  1.4633
 6466SOL     OW19797   5.035   5.767   1.398 -0.2794 -0.3761  0.0322
 6466SOL    HW119798   5.027   5.688   1.343  0.6708 -0.3744 -0.1247
 6466SOL    HW219799   5.040   5.839   1.335 -0.8709 -0.2112  0.1702
 6467SOL     OW19800   5.939   1.998   0.780  0.2343 -0.1727  0.4857
 6467SOL    HW119801   6.012   2.032   0.727  0.4955 -0.8710  0.3867
 6467SOL    HW219802   5.872   1.975   0.716 -0.3798  1.1394  0.6197
 6468SOL     OW19803   3.527   1.484   4.665  0.7425 -0.0109  0.9058
 6468SOL    HW119804   3.609   1.509   4.622  0.2899  0.9890  0.6098
 6468SOL    HW219805   3.514   1.392   4.639  0.7963  0.3902 -0.6036
 6469SOL     OW19806   0.885   3.998   5.592 -0.0474 -0.6989 -0.1354
 6469SOL    HW119807   0.979   4.002   5.570 -0.2714  1.0976 -0.9306
 6469SOL    HW219808   0.881   3.937   5.666  1.9599  0.2858  0.8900
 6470SOL     OW19809   0.819   1.346   6.720 -0.8663 -0.7643 -1.1872
 6470SOL    HW119810   0.861   1.409   6.778  0.4268 -0.3292 -2.5380
 6470SOL    HW219811   0.747   1.395   6.679  0.7020  0.1892 -2.9303
 6471SOL     OW19812   1.814   6.745   5.777 -0.2684 -0.4245 -0.1034
 6471SOL    HW119813   1.756   6.682   5.820 -0.7023 -1.0383 -1.5297
 6471SOL    HW219814   1.902   6.710   5.788 -0.1327  0.4518  1.9794
 6472SOL     OW19815   4.128   6.434   2.219  0.0189  0.3713  0.1007
 6472SOL    HW119816   4.169   6.403   2.300 -0.0911  0.6383  0.2633
 6472SOL    HW219817   4.175   6.390   2.149  1.8806  2.0986  0.1745
 6473SOL     OW19818   5.143   3.828   1.862 -0.2628  0.0464  0.3064
 6473SOL    HW119819   5.168   3.870   1.780  1.5783 -0.3389  0.6338
 6473SOL    HW219820   5.210   3.855   1.925 -0.2524 -1.6234  1.0678
 6474SOL     OW19821   1.213   5.436   3.451  0.5365 -0.0892 -0.4232
 6474SOL    HW119822   1.167   5.352   3.441 -1.5651  0.7580  1.3276
 6474SOL    HW219823   1.182   5.489   3.378 -1.3188  0.4429  0.6900
 6475SOL     OW19824   4.241   5.197   6.002 -0.0860  0.1321  0.0312
 6475SOL    HW119825   4.333   5.188   6.029 -0.3709  0.4262  1.1528
 6475SOL    HW219826   4.197   5.124   6.045 -0.9153  1.7815  2.1516
 6476SOL     OW19827   5.987   2.645   3.980 -0.6320 -0.8747 -0.4331
 6476SOL    HW119828   6.015   2.734   4.000 -1.1033 -1.2799  2.6022
 6476SOL    HW219829   6.067   2.593   3.982 -0.3788 -0.5971 -2.0443
 6477SOL     OW19830   1.021   3.472   1.670  0.2319  0.0265  0.2753
 6477SOL    HW119831   1.064   3.406   1.725  1.7919  1.1957  0.5178
 6477SOL    HW219832   1.027   3.438   1.581  3.1137  0.8004  0.0751
 6478SOL     OW19833   1.855   2.926   2.411  0.0165 -0.8872  0.0034
 6478SOL    HW119834   1.936   2.898   2.455 -0.3241 -0.3559  1.0105
 6478SOL    HW219835   1.788   2.917   2.478 -0.5123  0.0366 -0.3901
 6479SOL     OW19836   0.277   6.211   6.764 -0.7439  0.0146 -0.2684
 6479SOL    HW119837   0.295   6.286   6.821 -1.1266  1.9886 -2.5849
 6479SOL    HW219838   0.328   6.229   6.685 -2.8541 -0.8479 -1.9037
 6480SOL     OW19839   3.403   5.150   0.227 -0.5443  0.5511  0.9117
 6480SOL    HW119840   3.483   5.130   0.178 -1.4090 -0.1330 -0.2530
 6480SOL    HW219841   3.403   5.087   0.299 -0.3603  0.1243  0.5425
 6481SOL     OW19842   2.061   5.947   5.429  0.0467  0.7554 -0.6482
 6481SOL    HW119843   2.077   6.039   5.409  2.4452  0.9445  1.5930
 6481SOL    HW219844   1.978   5.947   5.477  0.6513  1.9743  0.4543
 6482SOL     OW19845   2.618   4.287   1.027 -0.5772 -0.2704  0.0033
 6482SOL    HW119846   2.544   4.264   1.084 -0.6763  1.6207  0.6964
 6482SOL    HW219847   2.579   4.296   0.940 -1.4063  1.6892  0.5256
 6483SOL     OW19848   3.696   3.351   1.441 -0.5962  0.3236  0.2642
 6483SOL    HW119849   3.764   3.356   1.509 -0.5733  1.2328  0.1891
 6483SOL    HW219850   3.644   3.430   1.455 -1.5753 -0.3127  0.2492
 6484SOL     OW19851   3.473   5.676   1.910 -0.2041 -0.3986  0.2614
 6484SOL    HW119852   3.555   5.630   1.928  0.1384  0.3423  0.6748
 6484SOL    HW219853   3.455   5.658   1.818  1.0821  0.3959 -0.1804
 6485SOL     OW19854   2.474   5.358   1.319  0.2805 -0.3777  0.0184
 6485SOL    HW119855   2.516   5.272   1.310 -0.4044 -0.5975 -1.3686
 6485SOL    HW219856   2.380   5.339   1.316  0.1166  0.5334 -1.7476
 6486SOL     OW19857   0.500   0.800   3.481 -0.1394  0.1235  0.0187
 6486SOL    HW119858   0.472   0.887   3.508 -0.9801 -0.5134  1.3114
 6486SOL    HW219859   0.543   0.814   3.397  0.1167  1.8272  0.3922
 6487SOL     OW19860   1.896   0.027   3.823  0.2145  0.2878 -0.1506
 6487SOL    HW119861   1.986   0.022   3.791  0.2828  0.2706  0.0420
 6487SOL    HW219862   1.901   0.082   3.901 -0.0157  0.6613 -0.3965
 6488SOL     OW19863   5.903   0.336   4.956 -0.0580  0.3801  0.4612
 6488SOL    HW119864   5.966   0.369   4.892 -0.5841  0.3828 -0.0700
 6488SOL    HW219865   5.951   0.270   5.005  0.6635  1.1209  0.7672
 6489SOL     OW19866   3.666   4.539   6.724 -0.1860 -0.4513 -0.3781
 6489SOL    HW119867   3.698   4.584   6.646  2.3896 -1.2656  0.1106
 6489SOL    HW219868   3.718   4.577   6.796 -1.4922 -0.7181  0.7445
 6490SOL     OW19869   4.388   4.904   1.088  0.6484  0.2855  0.2846
 6490SOL    HW119870   4.415   4.832   1.031  2.1688  0.1666  1.1084
 6490SOL    HW219871   4.336   4.961   1.031 -0.6539 -1.4540 -0.3712
 6491SOL     OW19872   4.216   0.744   5.921 -0.0518 -0.1057  0.0777
 6491SOL    HW119873   4.126   0.774   5.935  0.2630 -0.0874  2.4226
 6491SOL    HW219874   4.211   0.689   5.843 -1.6963  1.4878 -1.0083
 6492SOL     OW19875   2.810   5.404   0.194 -0.0509 -0.1529 -0.1026
 6492SOL    HW119876   2.763   5.472   0.146  0.2764  0.1654  0.0183
 6492SOL    HW219877   2.898   5.440   0.206  0.4381 -1.0252 -0.9340
 6493SOL     OW19878   2.416   1.114   6.545 -0.4459  0.3491 -0.3238
 6493SOL    HW119879   2.414   1.068   6.629  0.2115  1.0583  0.0977
 6493SOL    HW219880   2.359   1.063   6.488 -1.2871  0.1192  0.6927
 6494SOL     OW19881   1.995   6.369   4.108  0.0146  0.0064 -0.4360
 6494SOL    HW119882   2.046   6.449   4.121  1.3368 -0.9308  0.4693
 6494SOL    HW219883   1.976   6.338   4.196 -0.7537 -0.5136 -0.7738
 6495SOL     OW19884   6.741   0.210   1.789 -0.1581 -0.1337 -0.3483
 6495SOL    HW119885   6.700   0.162   1.717 -2.2631  1.5435 -0.3731
 6495SOL    HW219886   6.669   0.232   1.848  0.9810  1.4224  0.5521
 6496SOL     OW19887   1.919   6.076   3.775 -0.3044 -0.0434  0.4828
 6496SOL    HW119888   1.849   6.063   3.712  0.8817  0.0792 -0.8973
 6496SOL    HW219889   1.979   6.003   3.761  0.6225  0.6819  0.5713
 6497SOL     OW19890   1.684   5.465   0.372  0.0836  0.3477  0.2184
 6497SOL    HW119891   1.607   5.414   0.398 -0.6805  1.6295  0.5856
 6497SOL    HW219892   1.689   5.454   0.277 -1.4471  1.3887 -0.0217
 6498SOL     OW19893   1.412   5.479   0.185  1.0730  0.2918  0.0065
 6498SOL    HW119894   1.495   5.435   0.167  0.9153  1.2745 -3.8516
 6498SOL    HW219895   1.399   5.538   0.111 -2.8011  0.5867  0.7152
 6499SOL     OW19896   1.855   4.914   2.190  0.2076  0.4833  0.3807
 6499SOL    HW119897   1.940   4.951   2.166  0.1861  0.1588 -0.2055
 6499SOL    HW219898   1.836   4.952   2.276 -0.1843  2.5140 -0.5300
 6500SOL     OW19899   4.728   3.425   5.265 -0.4907  0.3091  0.1656
 6500SOL    HW119900   4.692   3.373   5.194  2.4458 -1.3534 -0.2804
 6500SOL    HW219901   4.757   3.506   5.224 -0.4265  0.1133 -0.1751
 6501SOL     OW19902   3.708   6.695   5.054 -0.0003  0.4250  0.1389
 6501SOL    HW119903   3.714   6.724   4.962  1.0316 -0.9071 -0.2404
 6501SOL    HW219904   3.797   6.702   5.087 -0.0327 -0.7659  0.5119
 6502SOL     OW19905   0.111   6.113   1.257  0.2148 -0.0005 -0.0754
 6502SOL    HW119906   0.134   6.206   1.265 -2.2210  0.6253  0.3539
 6502SOL    HW219907   0.155   6.085   1.176  1.0636  1.4809 -0.1659
 6503SOL     OW19908   2.500   0.073   3.069  0.6854 -0.3399 -0.4203
 6503SOL    HW119909   2.433   0.015   3.035  1.6929 -2.4984  1.0239
 6503SOL    HW219910   2.455   0.126   3.135 -0.5724  1.6961 -2.7732
 6504SOL     OW19911   4.234   1.190   2.953  0.4579  0.6298  0.8095
 6504SOL    HW119912   4.188   1.110   2.980  1.0750 -0.6767 -1.6834
 6504SOL    HW219913   4.236   1.244   3.032  0.3554 -1.9572  2.7326
 6505SOL     OW19914   5.348   2.868   3.323  0.0210 -0.3582 -0.5342
 6505SOL    HW119915   5.434   2.876   3.366  0.2822 -4.4742  0.1517
 6505SOL    HW219916   5.362   2.902   3.235  1.4792  1.7264  0.4113
 6506SOL     OW19917   2.823   3.229   6.082  0.4763 -0.2997 -0.1585
 6506SOL    HW119918   2.775   3.177   6.017 -1.0181 -0.2688  0.8801
 6506SOL    HW219919   2.781   3.209   6.165  0.4577  1.8456  0.4133
 6507SOL     OW19920   3.821   4.883   3.154 -0.1696  0.4265 -0.0640
 6507SOL    HW119921   3.840   4.812   3.093 -0.6936 -1.8114  2.1949
 6507SOL    HW219922   3.898   4.939   3.151 -1.2032  1.9700 -4.6106
 6508SOL     OW19923   0.557   0.871   5.361  0.3829 -0.2989 -0.6541
 6508SOL    HW119924   0.554   0.966   5.354 -0.3021 -0.3733 -1.5095
 6508SOL    HW219925   0.609   0.854   5.440 -1.4961  0.8181  0.9169
 6509SOL     OW19926   3.281   4.146   4.773 -0.3867 -0.4370  0.5217
 6509SOL    HW119927   3.235   4.216   4.820  2.3603  0.3218  2.3598
 6509SOL    HW219928   3.308   4.085   4.842 -1.2389 -2.4823 -0.8535
 6510SOL     OW19929   2.423   5.110   5.515  0.2456  0.7771  0.3026
 6510SOL    HW119930   2.450   5.126   5.605 -2.5956  1.2357  1.1578
 6510SOL    HW219931   2.362   5.037   5.520  1.0258 -0.0707 -1.4703
 6511SOL     OW19932   1.120   1.226   4.051  0.1984 -0.8552  0.0853
 6511SOL    HW119933   1.025   1.217   4.060  0.1617 -0.3662  0.2209
 6511SOL    HW219934   1.144   1.165   3.981 -0.5872  0.9775 -1.8856
 6512SOL     OW19935   5.853   4.561   6.466  0.7257  0.3870  0.2339
 6512SOL    HW119936   5.884   4.646   6.436  0.1101  0.5172 -0.0568
 6512SOL    HW219937   5.839   4.572   6.560 -1.0430  1.1629 -0.0732
 6513SOL     OW19938   3.486   2.001   2.519  0.0368  0.1841  0.2698
 6513SOL    HW119939   3.494   1.987   2.614 -0.2263 -1.8469  0.0570
 6513SOL    HW219940   3.576   1.996   2.486 -0.0160 -1.0709  0.2396
 6514SOL     OW19941   3.002   2.678   6.094  0.5459 -0.0998 -0.3972
 6514SOL    HW119942   2.944   2.603   6.078  1.6641 -1.2117  0.5176
 6514SOL    HW219943   2.973   2.714   6.177 -0.2622  0.7626 -1.0441
 6515SOL     OW19944   0.724   5.576   4.136 -0.2535  0.3779  0.1784
 6515SOL    HW119945   0.737   5.665   4.169  0.3775  0.1599  0.5361
 6515SOL    HW219946   0.812   5.547   4.110 -0.4496 -0.1480  0.0919
 6516SOL     OW19947   6.775   5.061   3.353  0.2551  0.2240  0.4190
 6516SOL    HW119948   6.701   5.033   3.407 -0.0731 -0.5388 -0.3897
 6516SOL    HW219949   6.738   5.068   3.265  1.2498 -0.6748 -0.0853
 6517SOL     OW19950   5.476   2.184   6.638  0.5261 -0.3332 -0.4907
 6517SOL    HW119951   5.393   2.197   6.591 -0.4317  1.4327  1.5732
 6517SOL    HW219952   5.451   2.141   6.720  1.9348 -1.5142 -0.6248
 6518SOL     OW19953   4.554   4.655   0.693 -0.3331 -0.0467  0.0871
 6518SOL    HW119954   4.531   4.686   0.780 -0.0483  0.2332  0.0658
 6518SOL    HW219955   4.603   4.728   0.654 -0.8441  0.0104 -0.4664
 6519SOL     OW19956   0.391   2.407   3.022  0.1884 -0.2795  0.2534
 6519SOL    HW119957   0.373   2.486   3.073  0.8082 -0.5572  0.9285
 6519SOL    HW219958   0.471   2.371   3.062  1.3318  0.0761 -1.6043
 6520SOL     OW19959   3.766   4.212   5.963 -0.7049 -0.1172 -0.1594
 6520SOL    HW119960   3.728   4.288   6.008 -0.2627  1.7938 -2.7928
 6520SOL    HW219961   3.789   4.245   5.876  2.0005 -2.6010 -0.5217
 6521SOL     OW19962   2.405   3.103   6.590 -0.0282 -0.0409 -0.3303
 6521SOL    HW119963   2.421   3.194   6.615 -3.1503  0.3781  0.5734
 6521SOL    HW219964   2.445   3.095   6.503 -1.4306  2.8358 -1.3628
 6522SOL     OW19965   4.996   5.641   5.941  0.3457  0.1713 -0.5905
 6522SOL    HW119966   4.919   5.605   5.986  0.5569 -0.9179 -1.0581
 6522SOL    HW219967   5.063   5.573   5.950  0.2834 -0.2844 -2.8424
 6523SOL     OW19968   1.341   3.455   6.487 -0.0881  0.2702 -0.4882
 6523SOL    HW119969   1.256   3.409   6.492 -0.0212  0.2483  0.7513
 6523SOL    HW219970   1.318   3.548   6.486 -0.1249  0.3779  2.2455
 6524SOL     OW19971   4.696   2.271   3.574  0.1239 -0.2707  0.0086
 6524SOL    HW119972   4.745   2.333   3.520 -0.2369 -0.0911 -0.1141
 6524SOL    HW219973   4.683   2.316   3.658 -2.3316  0.8794 -0.8865
 6525SOL     OW19974   1.518   4.778   2.544  0.3592  0.7743  0.3478
 6525SOL    HW119975   1.613   4.786   2.545  0.2638  2.4950  2.4172
 6525SOL    HW219976   1.492   4.808   2.456  1.7372 -1.1720 -0.8067
 6526SOL     OW19977   3.297   5.303   2.331 -0.4873 -0.5187  0.0089
 6526SOL    HW119978   3.269   5.344   2.250 -0.3350 -0.6689 -0.1215
 6526SOL    HW219979   3.217   5.269   2.370 -0.7198  0.5824  0.5055
 6527SOL     OW19980   3.689   5.728   5.669 -1.0419 -0.1349 -0.0374
 6527SOL    HW119981   3.725   5.681   5.744  1.5469  1.8301  0.1050
 6527SOL    HW219982   3.645   5.804   5.708  0.3912  0.9430 -0.4080
 6528SOL     OW19983   2.911   1.711   4.107  0.4052  0.1045  0.0003
 6528SOL    HW119984   2.850   1.691   4.177  0.8661  1.7149  0.9098
 6528SOL    HW219985   2.996   1.685   4.141  0.5674  0.4272 -0.1555
 6529SOL     OW19986   5.872   5.702   2.136 -0.4020 -0.2892 -0.0091
 6529SOL    HW119987   5.819   5.703   2.216  0.4016 -1.5360  0.5832
 6529SOL    HW219988   5.889   5.609   2.120  0.6345  0.0238 -0.8254
 6530SOL     OW19989   4.862   2.706   6.535  0.0557  0.1235  0.0852
 6530SOL    HW119990   4.780   2.753   6.553  0.8977  1.0061  1.8569
 6530SOL    HW219991   4.905   2.759   6.468 -0.6591 -0.1665 -0.6164
 6531SOL     OW19992   6.574   5.031   6.593  0.3253 -0.4377  0.1829
 6531SOL    HW119993   6.596   5.116   6.556 -3.4463  0.0268 -1.4530
 6531SOL    HW219994   6.518   5.052   6.668  2.4708 -1.5282  2.2198
 6532SOL     OW19995   3.798   0.902   5.827 -0.2434 -0.2812 -0.2505
 6532SOL    HW119996   3.778   0.994   5.808  0.6684 -0.3591 -1.6721
 6532SOL    HW219997   3.764   0.889   5.916 -0.6374  1.3466 -0.1239
 6533SOL     OW19998   1.183   4.612   0.737 -0.1675  0.0648  0.1999
 6533SOL    HW119999   1.087   4.616   0.734 -0.1237  1.0924 -0.6326
 6533SOL    HW220000   1.207   4.671   0.809 -0.1413  0.4777 -0.1420
 6534SOL     OW20001   3.063   1.698   2.769 -0.1671  0.2763 -0.3545
 6534SOL    HW120002   3.137   1.756   2.786 -1.3729  1.6212  0.5813
 6534SOL    HW220003   3.004   1.751   2.715  0.0221 -1.1588 -2.0196
 6535SOL     OW20004   1.628   6.711   2.324 -0.2539 -0.0920  0.0432
 6535SOL    HW120005   1.653   6.797   2.358  0.2005 -0.8137  1.6486
 6535SOL    HW220006   1.579   6.671   2.396 -0.3689 -1.2068 -0.6421
 6536SOL     OW20007   4.705   3.846   3.317 -0.0315  0.0393  0.8115
 6536SOL    HW120008   4.734   3.868   3.229 -0.7165 -0.5082  0.4420
 6536SOL    HW220009   4.709   3.751   3.321  0.0598  0.0612  1.3984
 6537SOL     OW20010   2.098   0.578   2.943  0.1554  0.2553  0.0513
 6537SOL    HW120011   2.056   0.590   3.028  1.6218  2.3219  0.5812
 6537SOL    HW220012   2.126   0.487   2.942 -1.3138 -0.2352  1.0765
 6538SOL     OW20013   6.395   1.626   4.518  0.6588  0.2049 -0.0560
 6538SOL    HW120014   6.326   1.672   4.565 -0.4697 -0.3011 -1.1591
 6538SOL    HW220015   6.349   1.577   4.449  2.2598  1.3518 -2.0691
 6539SOL     OW20016   4.947   3.604   3.558 -0.1654 -0.5884  0.0156
 6539SOL    HW120017   4.958   3.669   3.626 -1.3816 -0.8177  0.4469
 6539SOL    HW220018   5.034   3.595   3.519  0.3948  0.0112  1.1019
 6540SOL     OW20019   4.332   6.103   3.973  0.3574  0.6178 -0.0828
 6540SOL    HW120020   4.280   6.182   3.989 -1.1840 -0.2102 -0.8179
 6540SOL    HW220021   4.355   6.108   3.880  1.1634  0.7120  0.1163
 6541SOL     OW20022   4.212   2.476   4.917  0.1525  0.7168 -0.0501
 6541SOL    HW120023   4.263   2.478   4.837  0.9762  1.2984  0.4746
 6541SOL    HW220024   4.121   2.487   4.888  0.4399  0.9094 -0.8969
 6542SOL     OW20025   2.535   2.269   2.001  0.3850  0.0669  0.1670
 6542SOL    HW120026   2.532   2.339   2.066 -0.0416  1.3328 -1.1392
 6542SOL    HW220027   2.457   2.284   1.947 -0.3743 -2.1759  0.5673
 6543SOL     OW20028   6.457   2.746   2.719  0.1342 -0.3445  0.1987
 6543SOL    HW120029   6.437   2.664   2.674 -0.0245  0.4166 -1.1655
 6543SOL    HW220030   6.553   2.751   2.718  0.1162  0.0828 -0.8734
 6544SOL     OW20031   4.865   1.388   6.141 -0.1100  0.0076 -0.2498
 6544SOL    HW120032   4.838   1.460   6.083  0.7943  0.0922 -0.5788
 6544SOL    HW220033   4.961   1.390   6.138 -0.0478 -0.0684  1.1585
 6545SOL     OW20034   1.069   2.670   1.710 -0.4253 -0.4115  0.6489
 6545SOL    HW120035   0.997   2.730   1.727 -0.1915 -0.6044  2.6124
 6545SOL    HW220036   1.029   2.594   1.669 -1.7316 -1.2973  3.3365
 6546SOL     OW20037   0.719   6.137   4.054 -0.6527  0.0229 -0.2149
 6546SOL    HW120038   0.656   6.164   4.120 -1.7820  0.1089 -1.2873
 6546SOL    HW220039   0.801   6.180   4.080 -1.3468  0.9442  0.5223
 6547SOL     OW20040   3.192   2.528   1.863 -0.5141 -0.3286  0.3156
 6547SOL    HW120041   3.167   2.473   1.938  1.8374 -0.1096  1.3618
 6547SOL    HW220042   3.132   2.602   1.867 -4.0389 -2.8009 -1.3495
 6548SOL     OW20043   3.295   4.516   6.013 -0.3319 -0.2554  0.1442
 6548SOL    HW120044   3.206   4.528   6.045 -0.2800  0.3211  0.0733
 6548SOL    HW220045   3.345   4.589   6.050 -0.2220  0.3023 -1.0482
 6549SOL     OW20046   0.051   1.867   4.882  0.4228 -0.4451 -0.0871
 6549SOL    HW120047  -0.027   1.904   4.841  1.3262  1.0016 -0.6001
 6549SOL    HW220048   0.118   1.872   4.814  1.0424 -1.4448  0.4201
 6550SOL     OW20049   3.113   1.254   2.244  0.7723  0.1626 -0.0230
 6550SOL    HW120050   3.142   1.297   2.324  1.3782  0.1870 -0.2501
 6550SOL    HW220051   3.089   1.165   2.272  0.4353  0.3410  0.2757
 6551SOL     OW20052   5.704   5.726   2.835 -0.5433  0.3902 -0.4299
 6551SOL    HW120053   5.646   5.694   2.904  1.0892  0.5940  1.1160
 6551SOL    HW220054   5.772   5.776   2.881  0.6469  0.4973 -2.1700
 6552SOL     OW20055   6.524   1.438   6.721  0.3677 -0.0154 -0.9069
 6552SOL    HW120056   6.607   1.430   6.674  0.2836 -0.5064 -0.9800
 6552SOL    HW220057   6.524   1.528   6.754  1.3960 -0.3186 -0.0340
 6553SOL     OW20058   4.654   2.527   4.713 -0.0139  0.1294  0.3383
 6553SOL    HW120059   4.638   2.479   4.795 -3.1940  1.1085  0.3942
 6553SOL    HW220060   4.653   2.459   4.645 -0.3442 -0.3405  0.8047
 6554SOL     OW20061   1.128   6.559   5.730  0.1223  0.2431 -0.3571
 6554SOL    HW120062   1.162   6.474   5.704 -1.7553 -0.3800 -0.9977
 6554SOL    HW220063   1.205   6.610   5.756  1.2315 -1.8481  0.6813
 6555SOL     OW20064   0.423   6.182   1.141 -0.6802 -0.0116  0.3684
 6555SOL    HW120065   0.381   6.136   1.068 -2.1989  0.7955  0.7002
 6555SOL    HW220066   0.510   6.142   1.147 -0.0049  0.7362 -2.7001
 6556SOL     OW20067   0.011   4.373   2.660  0.0574  0.0151 -0.0075
 6556SOL    HW120068  -0.074   4.403   2.694  0.4238  2.5789 -1.0972
 6556SOL    HW220069  -0.007   4.347   2.570 -0.0321 -2.2329  0.5930
 6557SOL     OW20070   0.573   5.522   2.669 -0.3328  1.0664  0.0847
 6557SOL    HW120071   0.649   5.490   2.717 -0.8484  1.4469  1.1869
 6557SOL    HW220072   0.589   5.497   2.578  0.1857 -0.5857  0.6026
 6558SOL     OW20073   5.499   5.682   4.280 -0.5612  0.4604 -0.4596
 6558SOL    HW120074   5.426   5.623   4.295 -0.4926  0.6599  0.7800
 6558SOL    HW220075   5.458   5.764   4.252 -0.8386  0.6427  0.4550
 6559SOL     OW20076   2.027   4.688   2.342  0.2655 -0.2986  0.2465
 6559SOL    HW120077   2.058   4.747   2.273 -0.9632 -1.5327 -1.4387
 6559SOL    HW220078   2.107   4.654   2.383  0.9989  1.0953  0.0083
 6560SOL     OW20079   6.065   0.607   2.873  0.4128  0.1624  0.4589
 6560SOL    HW120080   5.983   0.623   2.826  0.4178 -0.4786  0.2131
 6560SOL    HW220081   6.078   0.512   2.865  0.5416  0.0801  1.5546
 6561SOL     OW20082   5.577   5.439   2.727 -0.1255  0.0192 -0.2245
 6561SOL    HW120083   5.595   5.514   2.671 -2.1785  0.5003 -0.3287
 6561SOL    HW220084   5.532   5.476   2.803  0.2987 -0.9210  0.4983
 6562SOL     OW20085   4.279   4.281   1.271  0.6230  0.4728 -0.0478
 6562SOL    HW120086   4.214   4.342   1.235  1.0367  1.2513  0.5029
 6562SOL    HW220087   4.264   4.200   1.222 -1.3467  0.3519  0.6387
 6563SOL     OW20088   0.309   6.441   6.324  1.1641  0.1212  0.1206
 6563SOL    HW120089   0.294   6.368   6.264  1.2595  0.1191  0.0996
 6563SOL    HW220090   0.257   6.513   6.289 -0.9048 -0.6341  1.4638
 6564SOL     OW20091   4.036   4.231   4.276 -0.2273 -0.0327  0.2077
 6564SOL    HW120092   4.007   4.268   4.359 -3.8975 -1.3107 -0.2944
 6564SOL    HW220093   4.005   4.294   4.210  0.0286 -0.4317 -0.2975
 6565SOL     OW20094   2.930   5.973   1.801  0.2041 -0.1540 -0.2235
 6565SOL    HW120095   2.837   5.989   1.788  0.1205 -1.7229 -1.9098
 6565SOL    HW220096   2.973   6.050   1.762 -0.3443  0.0236 -0.4808
 6566SOL     OW20097   6.248   2.916   6.052  0.0419  0.4450  0.1394
 6566SOL    HW120098   6.234   3.008   6.031 -2.1881  0.3315  0.8888
 6566SOL    HW220099   6.342   2.910   6.072  0.5623  2.1775 -1.5182
 6567SOL     OW20100   5.116   5.496   0.219 -0.0217 -0.3618 -0.4201
 6567SOL    HW120101   5.180   5.499   0.290  1.8707  0.1216 -2.0678
 6567SOL    HW220102   5.038   5.538   0.256  1.6953  2.1077  0.6338
 6568SOL     OW20103   3.267   0.973   4.612  0.0076  0.0340 -0.1728
 6568SOL    HW120104   3.282   0.949   4.521 -2.3344  1.3714 -0.9993
 6568SOL    HW220105   3.333   0.924   4.661  1.8503 -0.1085 -2.6189
 6569SOL     OW20106   5.836   4.457   4.632 -0.6177 -0.0036  0.7155
 6569SOL    HW120107   5.822   4.365   4.655 -1.5685  0.2665  1.2468
 6569SOL    HW220108   5.929   4.461   4.611 -1.0689 -1.6763 -2.1186
 6570SOL     OW20109   5.517   1.445   4.268  0.5956  0.5642 -0.3501
 6570SOL    HW120110   5.503   1.475   4.358 -0.2351  0.5221 -0.4563
 6570SOL    HW220111   5.440   1.477   4.220  0.5024 -0.3260 -0.8186
 6571SOL     OW20112   0.284   5.010   5.725 -0.0819  0.4462  0.5582
 6571SOL    HW120113   0.247   4.938   5.775  2.4034 -0.2361  1.5447
 6571SOL    HW220114   0.234   5.087   5.752 -2.2145 -0.7144  0.1189
 6572SOL     OW20115   2.035   3.561   3.465 -0.5955  0.5628 -0.4527
 6572SOL    HW120116   1.951   3.605   3.481 -0.3521  0.8174  0.1518
 6572SOL    HW220117   2.063   3.593   3.379 -1.0834  0.5270 -0.6296
 6573SOL     OW20118   5.628   1.480   2.124  0.5150  0.0799  0.5627
 6573SOL    HW120119   5.611   1.517   2.210 -0.6742  0.2091  0.2912
 6573SOL    HW220120   5.687   1.543   2.081  0.5107  0.3873  1.0049
 6574SOL     OW20121   3.697   6.709   1.222 -0.3381 -0.5119 -0.7634
 6574SOL    HW120122   3.673   6.617   1.212 -1.3035 -0.2204 -1.3177
 6574SOL    HW220123   3.630   6.745   1.280  1.7863 -0.8118  2.0964
 6575SOL     OW20124   2.803   5.981   4.092 -0.2837  0.0583 -0.0301
 6575SOL    HW120125   2.812   6.041   4.166 -1.7256 -0.0194  0.2453
 6575SOL    HW220126   2.829   5.896   4.128 -0.6139  0.0893  0.2978
 6576SOL     OW20127   3.137   5.031   0.133 -0.3505  0.3004 -0.0950
 6576SOL    HW120128   3.217   5.066   0.172 -0.1947  0.7585 -0.8109
 6576SOL    HW220129   3.068   5.091   0.161 -0.1980  0.7752 -0.7329
 6577SOL     OW20130   2.879   3.318   2.696 -0.3205 -0.0114  0.2331
 6577SOL    HW120131   2.818   3.245   2.687  0.0835 -0.2548 -0.5482
 6577SOL    HW220132   2.966   3.280   2.681  0.0537  0.3133  1.4143
 6578SOL     OW20133   6.299   0.710   6.546 -0.0599 -0.8504  0.2955
 6578SOL    HW120134   6.360   0.703   6.619  1.3886 -2.0464 -0.9678
 6578SOL    HW220135   6.330   0.646   6.482 -1.2933  0.1231 -1.3620
 6579SOL     OW20136   6.015   2.372   6.329  0.4276  0.1309 -0.2994
 6579SOL    HW120137   6.007   2.436   6.400 -1.9918  1.5326 -1.7073
 6579SOL    HW220138   6.101   2.390   6.291  0.3582  1.6634  0.1866
 6580SOL     OW20139   5.594   1.062   5.427  0.0949 -0.5240 -0.1292
 6580SOL    HW120140   5.555   1.065   5.340 -0.9364 -0.7599  0.3232
 6580SOL    HW220141   5.533   1.109   5.483 -0.0757 -1.7791  0.7865
 6581SOL     OW20142   0.788   4.673   2.202  0.1507 -0.2106 -0.4561
 6581SOL    HW120143   0.862   4.729   2.225  2.1590 -2.3005 -1.3506
 6581SOL    HW220144   0.727   4.731   2.157  2.1967  1.2818 -1.4996
 6582SOL     OW20145   3.577   0.869   0.866  0.1108 -0.1346  0.1721
 6582SOL    HW120146   3.672   0.863   0.878  0.1393  0.2475  0.1586
 6582SOL    HW220147   3.559   0.963   0.872 -0.4758 -0.3139  1.8371
 6583SOL     OW20148   6.462   4.498   0.131  0.0053  0.1078 -0.6311
 6583SOL    HW120149   6.445   4.561   0.060 -1.5711 -0.1863 -0.5449
 6583SOL    HW220150   6.449   4.412   0.091 -0.8567 -0.0622 -0.0200
 6584SOL     OW20151   1.015   6.514   1.852  0.5405  0.7188 -0.6314
 6584SOL    HW120152   1.048   6.602   1.872  2.8292 -0.1512 -0.3020
 6584SOL    HW220153   0.920   6.522   1.858  0.6814  3.1799 -0.6878
 6585SOL     OW20154   0.709   5.817   3.660 -0.1305  0.3002 -0.3761
 6585SOL    HW120155   0.748   5.849   3.742  1.9256 -0.7658 -0.8494
 6585SOL    HW220156   0.713   5.891   3.601  2.2750 -0.0130 -0.7149
 6586SOL     OW20157   3.516   4.735   5.653  0.5161  0.1187 -0.1282
 6586SOL    HW120158   3.572   4.673   5.605  1.0604  0.1252  0.4970
 6586SOL    HW220159   3.433   4.689   5.663  1.5890 -1.4833  2.3248
 6587SOL     OW20160   5.181   3.535   3.447 -0.3315 -0.1698 -0.0473
 6587SOL    HW120161   5.236   3.493   3.513  1.5743  0.0004 -1.4839
 6587SOL    HW220162   5.120   3.466   3.419 -1.2798 -0.2095  1.9209
 6588SOL     OW20163   0.109   5.300   3.409  0.1224  0.4664  0.3279
 6588SOL    HW120164   0.178   5.276   3.347 -0.1864  1.3528 -0.3765
 6588SOL    HW220165   0.046   5.228   3.403 -0.2372  0.8526 -0.9213
 6589SOL     OW20166   2.019   0.496   1.004 -0.0491 -0.4628 -0.2675
 6589SOL    HW120167   2.084   0.451   0.949  0.6149  0.5440 -0.3300
 6589SOL    HW220168   2.065   0.514   1.086 -0.1784  0.4237 -0.3828
 6590SOL     OW20169   2.600   2.033   5.124  0.0829  0.6153  0.8366
 6590SOL    HW120170   2.539   2.064   5.057 -0.4629  0.8002  1.4091
 6590SOL    HW220171   2.559   1.953   5.158  0.7437  0.0903  0.4109
 6591SOL     OW20172   1.182   4.588   4.337 -0.7629  0.1463 -0.1310
 6591SOL    HW120173   1.088   4.595   4.351 -0.5130  0.3823  1.5694
 6591SOL    HW220174   1.201   4.654   4.271 -1.6643  0.6811  0.1199
 6592SOL     OW20175   0.090   4.634   2.238  0.3596 -0.6137 -0.0215
 6592SOL    HW120176   0.183   4.651   2.223  0.1432  0.6915 -0.0395
 6592SOL    HW220177   0.079   4.540   2.222  1.2510 -0.3983 -2.2593
 6593SOL     OW20178   0.821   5.153   1.785 -0.1259 -0.2109  0.3518
 6593SOL    HW120179   0.812   5.058   1.779  0.4652 -0.2536  0.0624
 6593SOL    HW220180   0.781   5.186   1.705  0.6328 -0.2873 -0.0655
 6594SOL     OW20181   6.282   3.858   6.507 -0.0431  0.5960 -0.3462
 6594SOL    HW120182   6.264   3.950   6.525  0.1042  0.4760  0.4654
 6594SOL    HW220183   6.215   3.811   6.558 -0.5620  0.2703 -1.3128
 6595SOL     OW20184   6.496   2.102   2.318 -0.0696 -0.1955  0.1693
 6595SOL    HW120185   6.519   2.073   2.407 -1.5610  1.3053  1.0807
 6595SOL    HW220186   6.562   2.168   2.297  1.4471 -1.8766 -0.6732
 6596SOL     OW20187   2.479   3.229   0.232  0.3832  0.0112  0.2548
 6596SOL    HW120188   2.484   3.140   0.196  1.6593 -0.6763  2.0262
 6596SOL    HW220189   2.449   3.282   0.158 -1.0650 -1.9596 -0.6822
 6597SOL     OW20190   4.380   2.245   2.543 -0.2381 -0.0810  0.2417
 6597SOL    HW120191   4.421   2.159   2.527  1.9684  1.0028 -0.3268
 6597SOL    HW220192   4.323   2.259   2.468  0.6082 -0.3904 -0.4777
 6598SOL     OW20193   0.530   3.577   4.478  0.3284  0.3425 -0.9154
 6598SOL    HW120194   0.554   3.512   4.412  2.3636 -0.2650  0.2988
 6598SOL    HW220195   0.468   3.531   4.535 -0.1192  0.2965 -1.4377
 6599SOL     OW20196   5.263   3.538   4.721 -0.4102 -0.0848  0.3954
 6599SOL    HW120197   5.298   3.451   4.738 -1.1188 -0.1124  1.8587
 6599SOL    HW220198   5.289   3.558   4.631 -0.4151 -1.8866 -0.0278
 6600SOL     OW20199   4.431   6.547   1.033 -0.5991 -0.9370 -0.0847
 6600SOL    HW120200   4.360   6.484   1.044 -1.1180 -0.2737  0.3832
 6600SOL    HW220201   4.427   6.603   1.111  0.6667 -1.1165  0.1433
 6601SOL     OW20202   6.563   0.760   2.096  0.1470 -0.2724 -0.9853
 6601SOL    HW120203   6.648   0.749   2.139 -0.0074  0.5362 -0.4323
 6601SOL    HW220204   6.582   0.756   2.003  0.9316  0.6955 -0.8892
 6602SOL     OW20205   1.467   2.696   5.031  0.4221 -0.4825 -0.7470
 6602SOL    HW120206   1.461   2.692   4.936 -0.1722  1.9258 -0.8951
 6602SOL    HW220207   1.544   2.751   5.048 -0.2480  0.2410  0.0757
 6603SOL     OW20208   2.732   3.396   4.174 -0.2281 -0.2475  0.0365
 6603SOL    HW120209   2.796   3.326   4.162 -1.5709 -1.9199  2.1014
 6603SOL    HW220210   2.746   3.427   4.263 -0.5521  1.2257 -0.3956
 6604SOL     OW20211   0.379   5.934   2.031 -0.2253  0.8060  0.0492
 6604SOL    HW120212   0.350   5.989   2.104 -0.5371  0.5014  0.1583
 6604SOL    HW220213   0.354   5.845   2.057 -0.9847  0.7751 -0.7534
 6605SOL     OW20214   4.634   2.407   4.062 -0.1278 -0.1411  0.4550
 6605SOL    HW120215   4.667   2.328   4.106  0.6458 -0.0489  0.0595
 6605SOL    HW220216   4.678   2.479   4.106  2.8078 -0.1545 -2.1324
 6606SOL     OW20217   2.187   5.829   4.761 -0.0683  0.2485 -0.2195
 6606SOL    HW120218   2.144   5.790   4.685 -0.6923  0.8547 -0.1778
 6606SOL    HW220219   2.124   5.819   4.833  0.5805 -0.4749  0.2818
 6607SOL     OW20220   3.842   5.198   4.032 -0.1607  0.5037  0.0998
 6607SOL    HW120221   3.864   5.165   3.944 -0.6858  0.7311 -0.1225
 6607SOL    HW220222   3.918   5.249   4.058  0.8500 -1.1974  0.6254
 6608SOL     OW20223   5.721   5.346   3.229  0.1668 -0.1035 -0.1385
 6608SOL    HW120224   5.753   5.424   3.184 -1.5419  0.5763 -0.2764
 6608SOL    HW220225   5.694   5.287   3.158  1.3109 -0.7886 -0.0319
 6609SOL     OW20226   5.579   0.515   5.415  0.6868 -0.0078 -0.1928
 6609SOL    HW120227   5.528   0.472   5.484  1.2556  0.6648  0.6551
 6609SOL    HW220228   5.640   0.447   5.385 -0.4488 -0.7202 -0.9940
 6610SOL     OW20229   2.637   2.175   0.842  0.2570 -0.1748  0.3988
 6610SOL    HW120230   2.563   2.146   0.789 -0.0171 -1.4369  1.4050
 6610SOL    HW220231   2.633   2.270   0.840 -1.6279 -0.2045  0.7180
 6611SOL     OW20232   3.661   5.925   3.034  0.2492  0.0478 -0.0626
 6611SOL    HW120233   3.695   5.860   2.973 -0.5747  1.0432 -1.6739
 6611SOL    HW220234   3.606   5.982   2.980  0.6125  1.8445  1.3381
 6612SOL     OW20235   5.259   2.242   0.612  0.0926 -0.4018 -0.6819
 6612SOL    HW120236   5.248   2.181   0.684 -0.5835 -1.5276 -1.7096
 6612SOL    HW220237   5.317   2.310   0.647 -0.9528 -0.4061  1.2051
 6613SOL     OW20238   3.422   0.578   6.427  0.0962  0.5399 -0.5051
 6613SOL    HW120239   3.415   0.595   6.333 -2.1591 -1.7643 -0.8542
 6613SOL    HW220240   3.471   0.496   6.433 -1.1989 -0.2117  0.1845
 6614SOL     OW20241   1.311   0.985   5.638 -0.2207 -0.0998  0.2630
 6614SOL    HW120242   1.365   1.063   5.646  1.0473 -1.0813  1.7303
 6614SOL    HW220243   1.296   0.956   5.728 -0.4911 -1.6711 -0.2526
 6615SOL     OW20244   3.501   0.293   1.220  0.1925  0.5455  0.0370
 6615SOL    HW120245   3.425   0.341   1.252 -0.1916 -0.4419  0.6497
 6615SOL    HW220246   3.509   0.319   1.128 -1.4476 -0.0338 -0.2893
 6616SOL     OW20247   3.634   1.367   2.429 -0.3175  0.1959  0.4311
 6616SOL    HW120248   3.555   1.314   2.440 -0.7107  0.7174  0.1784
 6616SOL    HW220249   3.601   1.453   2.403  0.4140 -0.1265 -1.7762
 6617SOL     OW20250   0.773   5.301   0.107  0.1800 -0.2244 -0.0181
 6617SOL    HW120251   0.802   5.279   0.018  1.4138  1.0030  0.0478
 6617SOL    HW220252   0.793   5.394   0.116  1.8127 -0.7278  2.1803
 6618SOL     OW20253   5.329   3.272   4.801 -0.3441  0.1122 -0.2331
 6618SOL    HW120254   5.369   3.205   4.746  2.8808  1.2973  0.4464
 6618SOL    HW220255   5.251   3.230   4.838  1.4446 -3.2405  0.1017
 6619SOL     OW20256   2.242   3.428   1.375  0.9540  0.4287  0.2949
 6619SOL    HW120257   2.174   3.370   1.411 -0.6912  1.7484 -0.5505
 6619SOL    HW220258   2.306   3.435   1.446  0.0170 -0.5505  1.2948
 6620SOL     OW20259   5.970   1.504   3.149 -0.0114 -0.9739  0.2857
 6620SOL    HW120260   5.976   1.569   3.219  0.7091 -2.9045  2.1475
 6620SOL    HW220261   5.876   1.493   3.136 -0.1580 -0.4097  0.7925
 6621SOL     OW20262   2.032   4.981   2.485  0.0921 -0.3225 -0.2375
 6621SOL    HW120263   2.097   4.911   2.487 -0.0924 -0.4878  0.1575
 6621SOL    HW220264   2.053   5.031   2.406 -0.2791 -1.3011 -0.9899
 6622SOL     OW20265   1.211   4.062   3.025 -0.0164 -0.4630  0.0653
 6622SOL    HW120266   1.139   4.102   3.075 -0.9398 -1.7082 -0.2253
 6622SOL    HW220267   1.246   3.994   3.083  0.2394 -0.5612 -0.2015
 6623SOL     OW20268   1.103   2.991   3.186 -0.1972 -0.4042  0.2086
 6623SOL    HW120269   1.138   3.070   3.144 -0.6929 -2.1751 -4.0931
 6623SOL    HW220270   1.008   3.004   3.185 -0.4050 -1.5216 -2.0218
 6624SOL     OW20271   0.751   6.565   6.516  0.3305 -0.4822  0.0333
 6624SOL    HW120272   0.818   6.508   6.477  0.6820 -0.4419  0.5662
 6624SOL    HW220273   0.729   6.627   6.446  0.9567 -0.4074 -0.1070
 6625SOL     OW20274   0.371   5.266   1.963  0.2077 -0.3820 -0.0064
 6625SOL    HW120275   0.444   5.309   2.006 -0.9653 -0.4417  2.1853
 6625SOL    HW220276   0.355   5.318   1.884  1.6545  0.4893  0.2422
 6626SOL     OW20277   1.914   4.229   3.435 -0.0401 -0.5107  0.0960
 6626SOL    HW120278   1.877   4.274   3.359 -1.0640  0.5337  1.1946
 6626SOL    HW220279   1.931   4.140   3.403 -0.3115 -0.0578 -1.3960
 6627SOL     OW20280   5.625   4.571   2.025  0.0550  0.0531  0.1993
 6627SOL    HW120281   5.622   4.543   2.117 -0.4152 -2.2564 -0.4477
 6627SOL    HW220282   5.718   4.583   2.007  0.2133 -0.2217  0.7877
 6628SOL     OW20283   5.857   1.435   5.087 -0.2122 -0.0144  0.0310
 6628SOL    HW120284   5.844   1.352   5.135  1.7863 -0.6394 -0.3961
 6628SOL    HW220285   5.860   1.409   4.995 -0.0969  0.6058 -0.1416
 6629SOL     OW20286   2.650   1.453   1.328 -0.0348  0.1537 -0.0413
 6629SOL    HW120287   2.652   1.547   1.348 -0.8287  0.4915 -1.4439
 6629SOL    HW220288   2.580   1.418   1.383  1.4705 -0.0180  1.9031
 6630SOL     OW20289   4.404   0.016   6.030  0.4021 -0.6563  0.1324
 6630SOL    HW120290   4.493  -0.016   6.018  0.5377  0.0667 -0.9626
 6630SOL    HW220291   4.405   0.105   5.994 -0.0945  0.4224  2.5975
 6631SOL     OW20292   2.906   3.381   2.974  0.6221 -0.2127  0.5324
 6631SOL    HW120293   2.985   3.422   3.008  0.4821  0.5432 -0.0273
 6631SOL    HW220294   2.926   3.361   2.882 -0.5269  1.9965 -0.2906
 6632SOL     OW20295   0.460   2.137   0.376  0.1102  0.0165 -0.4728
 6632SOL    HW120296   0.527   2.200   0.350 -2.5379  2.6744 -1.4981
 6632SOL    HW220297   0.388   2.153   0.315 -2.7133 -0.3249  2.5121
 6633SOL     OW20298   4.048   2.904   5.379  0.9281 -0.0107  0.3054
 6633SOL    HW120299   4.044   2.819   5.422 -0.5140 -0.3622 -0.4503
 6633SOL    HW220300   4.049   2.968   5.450  1.0936 -0.6264  0.8649
 6634SOL     OW20301   2.310   1.370   4.205 -0.1883 -0.3903  0.5106
 6634SOL    HW120302   2.248   1.298   4.217  0.2635 -0.6647  1.2531
 6634SOL    HW220303   2.357   1.376   4.288  0.8039 -0.2167 -0.0435
 6635SOL     OW20304   5.885   3.918   6.299  0.3718  0.0740  0.0435
 6635SOL    HW120305   5.907   3.855   6.230  1.8902  0.3417  0.2284
 6635SOL    HW220306   5.790   3.920   6.301  0.2980 -0.7276 -1.3190
 6636SOL     OW20307   0.426   2.916   0.998  0.0193 -0.1216  0.5223
 6636SOL    HW120308   0.421   2.922   1.094  1.0013  0.6402  0.5509
 6636SOL    HW220309   0.430   2.823   0.980  0.9770 -0.2568  1.3169
 6637SOL     OW20310   0.022   2.068   2.703  0.2513 -0.3497  0.0376
 6637SOL    HW120311   0.085   2.065   2.774  0.6463 -0.3435 -0.3042
 6637SOL    HW220312   0.073   2.042   2.625 -0.1419 -0.2466 -0.2571
 6638SOL     OW20313   1.773   0.912   4.209  0.5563  0.6627  0.8272
 6638SOL    HW120314   1.823   0.947   4.135  1.0844  0.2800  0.9997
 6638SOL    HW220315   1.688   0.887   4.170 -0.2722  3.0845  0.8847
 6639SOL     OW20316   5.597   3.110   5.982  0.1596  0.6397  0.6598
 6639SOL    HW120317   5.539   3.179   6.015  0.6598  0.9673  0.8715
 6639SOL    HW220318   5.631   3.145   5.900 -1.9699 -0.6392 -0.8739
 6640SOL     OW20319   1.963   1.356   0.582 -0.0065  0.1424  0.1965
 6640SOL    HW120320   1.948   1.448   0.605 -0.0009 -0.0854  1.1417
 6640SOL    HW220321   1.883   1.329   0.538  0.7744  1.1710 -1.9969
 6641SOL     OW20322   6.550   1.445   4.771  0.1356  0.2590 -0.0729
 6641SOL    HW120323   6.630   1.490   4.744  1.7093 -0.8864  2.3518
 6641SOL    HW220324   6.493   1.515   4.804  0.4987  0.9864 -0.9529
 6642SOL     OW20325   4.503   1.120   5.771  0.2655  0.2926  0.3958
 6642SOL    HW120326   4.491   1.050   5.707  0.4901  0.7844 -0.1943
 6642SOL    HW220327   4.421   1.122   5.820 -0.8698  1.4357 -1.4174
 6643SOL     OW20328   5.169   1.108   5.896  0.0428 -0.9930 -0.3623
 6643SOL    HW120329   5.238   1.171   5.879 -1.6171  1.0212 -0.0558
 6643SOL    HW220330   5.163   1.056   5.816  0.9151 -0.2378 -0.9343
 6644SOL     OW20331   1.749   2.327   0.688  0.8365 -0.3301  0.1385
 6644SOL    HW120332   1.820   2.354   0.629  0.5345 -0.0219 -0.0875
 6644SOL    HW220333   1.738   2.233   0.670  2.6887 -0.9283  1.7784
 6645SOL     OW20334   1.753   4.028   0.140  0.2516 -0.3834  0.2187
 6645SOL    HW120335   1.843   4.009   0.168 -0.2426 -1.5438  1.0573
 6645SOL    HW220336   1.708   4.054   0.220 -0.0578  0.6834 -0.2842
 6646SOL     OW20337   4.802   0.247   3.769 -0.6259 -0.3702 -0.3843
 6646SOL    HW120338   4.803   0.169   3.824  2.6778  0.3585  0.8190
 6646SOL    HW220339   4.808   0.213   3.679  1.6325 -1.5931  0.1478
 6647SOL     OW20340   1.797   3.134   6.354 -0.2286 -0.2253  0.0987
 6647SOL    HW120341   1.712   3.093   6.369  0.1283 -1.2697 -0.6607
 6647SOL    HW220342   1.807   3.194   6.428 -2.5972  1.5937 -0.9209
 6648SOL     OW20343   3.786   4.477   2.307 -0.4295  0.2492  0.0122
 6648SOL    HW120344   3.764   4.548   2.366  1.1752 -0.1623  1.1683
 6648SOL    HW220345   3.723   4.408   2.327 -0.3705  0.3979  0.7162
 6649SOL     OW20346   4.590   0.692   4.970 -0.2227  0.2012  0.5552
 6649SOL    HW120347   4.615   0.762   4.908 -1.3607 -0.8681 -1.1912
 6649SOL    HW220348   4.502   0.666   4.942 -0.1993 -1.2944  1.7872
 6650SOL     OW20349   4.577   1.918   1.221  0.0504  0.2778 -0.1401
 6650SOL    HW120350   4.495   1.895   1.176 -0.0767  0.1086  0.1722
 6650SOL    HW220351   4.619   1.834   1.239 -0.1881  0.3030  0.5830
 6651SOL     OW20352   1.462   6.404   6.348  0.4114 -0.2579 -0.3212
 6651SOL    HW120353   1.476   6.318   6.306  0.2220  1.1071 -3.4574
 6651SOL    HW220354   1.551   6.437   6.363  0.4978 -0.3799 -0.5416
 6652SOL     OW20355   4.259   6.359   5.616 -0.2148  0.0479 -0.1372
 6652SOL    HW120356   4.215   6.274   5.620  0.8503 -0.4697  0.9732
 6652SOL    HW220357   4.197   6.420   5.656  0.0364 -0.6657  1.3932
 6653SOL     OW20358   1.917   0.512   1.981  0.1548 -0.8490  0.0114
 6653SOL    HW120359   1.927   0.426   2.021 -1.8038 -0.7364  0.8686
 6653SOL    HW220360   1.919   0.573   2.055 -1.6612 -0.4698 -0.1973
 6654SOL     OW20361   5.236   3.945   6.116  0.3375  0.5383 -0.0665
 6654SOL    HW120362   5.275   3.984   6.194  1.8506  0.7279 -0.8760
 6654SOL    HW220363   5.218   4.020   6.059 -0.2947  0.3564 -0.1100
 6655SOL     OW20364   3.860   5.878   3.209 -0.0227  0.0749  0.1209
 6655SOL    HW120365   3.869   5.789   3.174  1.5304  0.6290 -1.0639
 6655SOL    HW220366   3.784   5.914   3.164  1.0898  0.2836 -1.6894
 6656SOL     OW20367   4.348   4.984   5.249  0.2099 -0.1170  0.0951
 6656SOL    HW120368   4.277   4.978   5.312  0.6133  0.4467  0.6137
 6656SOL    HW220369   4.428   4.969   5.300  0.5675  0.6868 -0.2064
 6657SOL     OW20370   3.425   4.581   6.584  0.5775  0.0544 -0.4090
 6657SOL    HW120371   3.497   4.539   6.631 -1.6294 -0.3084  3.0014
 6657SOL    HW220372   3.361   4.602   6.652 -2.6278  0.2831 -3.2267
 6658SOL     OW20373   0.119   3.257   0.535  0.2484 -0.1720 -0.1228
 6658SOL    HW120374   0.199   3.232   0.488 -0.3541 -2.4720 -0.0851
 6658SOL    HW220375   0.090   3.175   0.575 -0.7410  1.1569  2.0087
 6659SOL     OW20376   6.702   1.727   1.973  1.0949 -0.2585 -0.1027
 6659SOL    HW120377   6.660   1.809   1.999  0.6966 -0.4091 -0.2580
 6659SOL    HW220378   6.633   1.661   1.983  1.1474 -0.4330 -0.8503
 6660SOL     OW20379   1.756   5.263   5.631 -0.1974 -0.2461  0.1358
 6660SOL    HW120380   1.739   5.173   5.657 -1.0441  0.0235  0.5501
 6660SOL    HW220381   1.670   5.298   5.610 -0.0059  0.7905  1.0278
 6661SOL     OW20382   5.666   6.466   5.621  0.3287 -0.4656 -0.5132
 6661SOL    HW120383   5.649   6.416   5.701 -3.6399  0.8360 -0.3461
 6661SOL    HW220384   5.636   6.408   5.550  2.0044 -0.8375 -0.9628
 6662SOL     OW20385   0.853   4.621   6.084 -0.1612 -0.1237  0.3556
 6662SOL    HW120386   0.876   4.528   6.082 -0.3747 -0.1756  0.3396
 6662SOL    HW220387   0.934   4.666   6.058 -0.0892 -0.3113  0.2547
 6663SOL     OW20388   4.572   4.408   1.007  0.5804 -0.6378  0.2917
 6663SOL    HW120389   4.655   4.448   1.032  2.0847 -4.2296  1.6023
 6663SOL    HW220390   4.586   4.378   0.917 -0.0840  0.5254 -0.2230
 6664SOL     OW20391   5.850   6.086   3.175  0.6143  0.1129  0.3647
 6664SOL    HW120392   5.900   6.153   3.130 -1.0173  0.3872 -1.1664
 6664SOL    HW220393   5.763   6.091   3.136 -0.0885 -1.5890  1.5867
 6665SOL     OW20394   6.182   2.397   0.173  0.2658 -0.3388 -0.1750
 6665SOL    HW120395   6.096   2.361   0.196  0.6203  0.0220  1.9049
 6665SOL    HW220396   6.206   2.352   0.093 -1.7981 -0.5493 -0.7388
 6666SOL     OW20397   5.744   0.688   6.304 -0.3076  0.1845 -0.3956
 6666SOL    HW120398   5.767   0.602   6.268 -0.4704 -0.4824  1.0356
 6666SOL    HW220399   5.772   0.750   6.236 -0.4627 -0.9951 -1.5921
 6667SOL     OW20400   3.873   6.118   3.493  0.0173 -0.6216 -0.2119
 6667SOL    HW120401   3.877   6.023   3.488 -0.9591 -0.7415  0.8416
 6667SOL    HW220402   3.915   6.140   3.576  1.0900 -0.0461 -0.8849
 6668SOL     OW20403   1.928   1.983   2.826  0.6047 -0.2456  0.3200
 6668SOL    HW120404   1.892   2.004   2.912 -0.9683  0.6372 -0.5181
 6668SOL    HW220405   2.002   2.042   2.816  1.1102 -0.6961  1.2510
 6669SOL     OW20406   2.837   2.820   5.880 -0.3078 -0.8547 -0.3271
 6669SOL    HW120407   2.907   2.778   5.930 -1.7970 -2.2813  0.6721
 6669SOL    HW220408   2.812   2.755   5.814 -0.0605  0.0216 -1.3017
 6670SOL     OW20409   0.492   2.465   2.310  0.6022  0.0213 -0.2691
 6670SOL    HW120410   0.409   2.463   2.262  0.5269 -0.8064 -0.1231
 6670SOL    HW220411   0.530   2.551   2.290 -1.0306  1.0754  0.9321
 6671SOL     OW20412   6.085   5.207   4.860  0.4147  0.0000 -0.3539
 6671SOL    HW120413   6.133   5.128   4.886  1.3281  0.4850 -0.5202
 6671SOL    HW220414   6.071   5.255   4.942 -1.5928 -1.0642  0.0135
 6672SOL     OW20415   0.870   1.405   2.047 -0.2429  0.0907  0.2657
 6672SOL    HW120416   0.867   1.369   2.136  0.9634  0.3668  0.4275
 6672SOL    HW220417   0.923   1.484   2.055  1.9240 -1.1432 -1.1143
 6673SOL     OW20418   4.730   3.744   0.116  0.3503  0.1547  0.3462
 6673SOL    HW120419   4.766   3.812   0.060 -2.2572  1.3296 -0.0769
 6673SOL    HW220420   4.698   3.791   0.193 -0.5506 -0.7091  0.5247
 6674SOL     OW20421   6.352   4.199   3.332 -0.0715  0.4587  0.4787
 6674SOL    HW120422   6.268   4.161   3.358 -0.2868  0.2303 -0.4983
 6674SOL    HW220423   6.392   4.228   3.414 -0.8362  0.0242  1.0179
 6675SOL     OW20424   0.332   4.552   6.745 -0.0815 -0.2792  0.7082
 6675SOL    HW120425   0.323   4.610   6.669 -1.4715 -3.3119 -1.6138
 6675SOL    HW220426   0.316   4.609   6.820 -0.9917  2.4029 -1.3633
 6676SOL     OW20427   3.842   1.301   3.946 -0.5994 -0.5533 -0.4941
 6676SOL    HW120428   3.830   1.303   4.041  2.7749 -1.7052  0.0709
 6676SOL    HW220429   3.809   1.215   3.920 -0.2538 -0.7946 -0.1442
 6677SOL     OW20430   3.038   0.331   0.563  0.4444 -0.1278  0.7754
 6677SOL    HW120431   3.085   0.271   0.621  1.0964 -1.2509 -0.8251
 6677SOL    HW220432   3.107   0.381   0.520  0.0185  0.2019  0.4758
 6678SOL     OW20433   4.747   1.876   2.092  0.2595  0.0786  0.5184
 6678SOL    HW120434   4.818   1.812   2.082  0.4645  0.5123 -1.1160
 6678SOL    HW220435   4.754   1.931   2.014 -1.2792  0.7328  0.8163
 6679SOL     OW20436   2.571   5.402   5.680  0.7701 -0.9836  0.2331
 6679SOL    HW120437   2.593   5.487   5.719 -0.1325 -0.5173 -0.2388
 6679SOL    HW220438   2.507   5.423   5.613  1.9853 -1.8099 -1.2614
 6680SOL     OW20439   1.043   5.878   6.218 -0.3861  0.4582 -0.6403
 6680SOL    HW120440   1.055   5.914   6.131  0.8187  0.6577 -0.4133
 6680SOL    HW220441   0.975   5.811   6.207 -1.2960  1.4663 -1.4210
 6681SOL     OW20442   2.511   3.357   6.666  0.1246  0.0332  0.5346
 6681SOL    HW120443   2.446   3.385   6.730 -1.2415  0.1365 -0.8304
 6681SOL    HW220444   2.595   3.367   6.711 -0.4458  3.5898  1.1514
 6682SOL     OW20445   2.529   0.075   1.337  0.3945  0.5171 -0.3646
 6682SOL    HW120446   2.512  -0.010   1.297  0.8985  0.2194  0.0431
 6682SOL    HW220447   2.623   0.090   1.323 -0.0412  1.9196 -2.1901
 6683SOL     OW20448   5.014   2.674   1.384 -0.3689  0.1044  0.6109
 6683SOL    HW120449   5.059   2.610   1.439 -0.9052  0.0412  0.9949
 6683SOL    HW220450   5.077   2.696   1.316 -0.8600 -2.3980 -0.8024
 6684SOL     OW20451   5.404   1.442   3.576 -0.2332  0.1812  0.5214
 6684SOL    HW120452   5.371   1.493   3.651 -2.1618 -0.1266 -0.0609
 6684SOL    HW220453   5.464   1.379   3.615 -0.3107  0.7783  1.6757
 6685SOL     OW20454   2.496   1.104   6.223  0.2974  0.1659  0.0608
 6685SOL    HW120455   2.557   1.044   6.180 -1.5805 -0.2877 -2.1660
 6685SOL    HW220456   2.428   1.047   6.259  0.1091  0.7813  0.6992
 6686SOL     OW20457   1.568   0.661   6.661  0.3819 -0.0269  0.0269
 6686SOL    HW120458   1.626   0.719   6.709 -1.1950  1.3566  0.3490
 6686SOL    HW220459   1.595   0.573   6.686  1.8116  0.5909  0.7446
 6687SOL     OW20460   5.666   4.272   3.301 -0.4544 -0.0571  0.2177
 6687SOL    HW120461   5.571   4.276   3.297 -0.5754 -1.5296  0.8552
 6687SOL    HW220462   5.691   4.224   3.222 -0.4123 -1.3941  1.0183
 6688SOL     OW20463   3.100   3.366   5.574 -0.1795  0.6124 -0.6683
 6688SOL    HW120464   3.063   3.352   5.661 -1.4771  0.9839 -1.1481
 6688SOL    HW220465   3.193   3.383   5.590 -0.8164  3.1501  0.8625
 6689SOL     OW20466   5.496   4.644   4.078  0.1529  0.3564 -0.0299
 6689SOL    HW120467   5.425   4.598   4.033 -0.5442  0.7874  0.6096
 6689SOL    HW220468   5.574   4.620   4.030 -0.1230 -1.8693  0.5196
 6690SOL     OW20469   1.354   0.928   0.817 -0.4597  0.0705  0.4299
 6690SOL    HW120470   1.352   0.924   0.913 -0.0777  1.0037  0.4906
 6690SOL    HW220471   1.353   1.021   0.797 -0.3691 -0.1120 -0.4732
 6691SOL     OW20472   3.904   0.384   2.672  0.2204 -0.1188 -0.6552
 6691SOL    HW120473   3.934   0.337   2.749 -2.1515 -0.9058 -0.1058
 6691SOL    HW220474   3.936   0.473   2.683 -1.6595  0.3143  2.2853
 6692SOL     OW20475   5.381   0.529   1.229  0.2711  0.3342 -0.0111
 6692SOL    HW120476   5.396   0.611   1.276  1.0400  0.0326  0.2802
 6692SOL    HW220477   5.432   0.464   1.276 -1.8000 -0.7299  0.8831
 6693SOL     OW20478   2.235   2.387   1.599  0.2605 -0.3037  0.0909
 6693SOL    HW120479   2.196   2.456   1.546  0.2964  1.3026  2.0427
 6693SOL    HW220480   2.197   2.306   1.565  0.5449  0.5598 -2.5605
 6694SOL     OW20481   3.564   1.851   4.481 -0.4372  0.5166 -0.7239
 6694SOL    HW120482   3.517   1.855   4.398  1.0175 -0.1659 -1.6134
 6694SOL    HW220483   3.550   1.762   4.513 -1.3671  0.9081  0.0235
 6695SOL     OW20484   2.973   5.970   4.974  0.4345 -0.5120 -0.0873
 6695SOL    HW120485   2.925   6.050   4.954 -0.3353 -1.0148 -0.2933
 6695SOL    HW220486   3.048   5.972   4.915  0.8001  0.3847  0.3841
 6696SOL     OW20487   6.448   5.511   2.404 -0.2007  0.0781 -0.2856
 6696SOL    HW120488   6.436   5.524   2.310  0.3680  0.8338 -0.2691
 6696SOL    HW220489   6.486   5.594   2.434  1.1626 -0.7191  0.3097
 6697SOL     OW20490   2.757   5.220   1.061  0.0399  0.4552  0.4895
 6697SOL    HW120491   2.674   5.178   1.083 -0.0007  0.1475 -0.2197
 6697SOL    HW220492   2.745   5.312   1.087  0.1211  0.0497  2.0169
 6698SOL     OW20493   4.557   0.848   5.630  0.4435 -0.1969  0.0331
 6698SOL    HW120494   4.590   0.921   5.577  0.3249  1.1587  1.7459
 6698SOL    HW220495   4.469   0.832   5.595  0.0238  1.2555  0.3355
 6699SOL     OW20496   1.170   0.206   6.541 -0.7841 -0.6318  0.0527
 6699SOL    HW120497   1.233   0.207   6.469  0.4476  0.8555  1.0879
 6699SOL    HW220498   1.088   0.178   6.501  0.2977 -1.7050 -1.5327
 6700SOL     OW20499   4.991   0.516   5.326  0.0549 -0.4535 -0.0006
 6700SOL    HW120500   5.014   0.505   5.234  0.0554 -0.3515 -0.0129
 6700SOL    HW220501   5.053   0.459   5.373  0.4783 -0.0118 -0.0169
 6701SOL     OW20502   0.701   3.905   3.946  0.1223 -0.3808 -0.3477
 6701SOL    HW120503   0.652   3.987   3.945 -1.4026 -1.2434 -0.5387
 6701SOL    HW220504   0.703   3.880   4.038  3.6474  1.5218  0.2631
 6702SOL     OW20505   1.693   2.877   1.970  0.4225  0.0799  0.4358
 6702SOL    HW120506   1.734   2.802   2.014  1.6431  0.0059 -0.7395
 6702SOL    HW220507   1.767   2.922   1.928 -0.6644  0.1597 -1.4709
 6703SOL     OW20508   3.070   1.704   0.455 -0.1057  0.2795 -0.3065
 6703SOL    HW120509   3.158   1.696   0.419  0.1082  2.4495 -0.3620
 6703SOL    HW220510   3.016   1.647   0.400  1.4182 -2.1891  0.5695
 6704SOL     OW20511   3.049   2.164   1.858 -1.1292 -0.0495  0.1800
 6704SOL    HW120512   2.976   2.212   1.897 -0.9779  0.5298 -0.2384
 6704SOL    HW220513   3.054   2.195   1.768  1.6943  2.4378  1.0293
 6705SOL     OW20514   3.819   5.988   2.523  0.6759 -0.0692 -0.0142
 6705SOL    HW120515   3.902   6.017   2.561  1.5528 -1.6620 -0.6112
 6705SOL    HW220516   3.824   5.892   2.524 -1.4718 -0.2449  0.5882
 6706SOL     OW20517   1.563   0.445   4.539  0.2781 -0.4999 -0.2472
 6706SOL    HW120518   1.527   0.416   4.622  0.3821  0.7407  0.2537
 6706SOL    HW220519   1.534   0.380   4.476 -0.6657 -0.9086  0.5892
 6707SOL     OW20520   3.860   6.502   4.172  0.4089 -0.1042  0.4302
 6707SOL    HW120521   3.802   6.569   4.135 -0.3793 -1.3928 -0.7666
 6707SOL    HW220522   3.891   6.453   4.096  1.2255 -0.8965  1.2591
 6708SOL     OW20523   5.384   3.371   5.670  0.0932 -0.6866 -0.6626
 6708SOL    HW120524   5.375   3.286   5.714  0.0509 -0.7134 -0.7230
 6708SOL    HW220525   5.298   3.412   5.679  0.4930 -0.0690  0.5696
 6709SOL     OW20526   6.596   0.388   5.326 -0.1231  0.6484 -0.0728
 6709SOL    HW120527   6.679   0.363   5.366 -0.8149 -1.0620  0.3770
 6709SOL    HW220528   6.619   0.460   5.268  2.0545 -0.9290 -1.3624
 6710SOL     OW20529   4.603   4.804   3.374  0.2549 -0.3644 -0.4209
 6710SOL    HW120530   4.580   4.778   3.284 -0.2552  1.7116 -0.9443
 6710SOL    HW220531   4.561   4.889   3.385  0.7410 -0.3563  1.6318
 6711SOL     OW20532   1.648   2.879   4.510  0.2616  0.2477 -0.1264
 6711SOL    HW120533   1.600   2.806   4.469 -1.1582  0.5707  0.8513
 6711SOL    HW220534   1.645   2.949   4.446 -1.4613  0.5689  0.2338
 6712SOL     OW20535   3.871   3.559   5.305  0.2751 -0.2128  0.1739
 6712SOL    HW120536   3.810   3.600   5.366  0.3192  1.5439 -0.9075
 6712SOL    HW220537   3.948   3.615   5.306 -0.7131  1.4523 -3.3850
 6713SOL     OW20538   4.983   3.749   6.269  0.3202  0.4105  0.3082
 6713SOL    HW120539   4.945   3.722   6.185  2.1587 -1.2140 -0.0832
 6713SOL    HW220540   5.008   3.841   6.256 -1.1814  0.7688 -0.2178
 6714SOL     OW20541   0.099   2.973   2.390 -0.0220 -0.3215  0.0583
 6714SOL    HW120542   0.078   3.007   2.477 -2.5303 -0.8222 -0.2900
 6714SOL    HW220543   0.084   2.879   2.398 -0.0282 -0.3998 -0.8605
 6715SOL     OW20544   5.321   5.102   4.263  0.0618  0.0553 -0.2864
 6715SOL    HW120545   5.268   5.162   4.211  0.2752  0.1983 -0.3380
 6715SOL    HW220546   5.351   5.035   4.201 -0.3987 -0.2581 -0.1769
 6716SOL     OW20547   1.896   5.003   0.488  0.5330 -0.3042 -0.2082
 6716SOL    HW120548   1.955   4.993   0.563  1.7063  0.6308 -0.9835
 6716SOL    HW220549   1.944   4.967   0.414  0.9624  2.1561 -1.2234
 6717SOL     OW20550   1.733   4.545   3.484  0.1821 -1.0994  0.2752
 6717SOL    HW120551   1.677   4.497   3.544  0.1013 -0.7081  0.5174
 6717SOL    HW220552   1.772   4.614   3.538  0.4692 -1.0324 -0.0161
 6718SOL     OW20553   0.406   4.806   0.653  0.1138 -0.0494  0.0568
 6718SOL    HW120554   0.362   4.728   0.620  0.7558 -0.8391  1.0246
 6718SOL    HW220555   0.492   4.805   0.611  0.1812  0.0512  0.1900
 6719SOL     OW20556   3.475   5.328   3.693 -0.1507  0.0887 -0.1384
 6719SOL    HW120557   3.464   5.360   3.783  1.8945  0.2120  0.1259
 6719SOL    HW220558   3.413   5.379   3.641  0.1831  1.6160  0.8909
 6720SOL     OW20559   3.757   2.447   3.777 -0.0366 -0.3057 -0.1219
 6720SOL    HW120560   3.752   2.365   3.826 -1.8276 -0.1660 -0.0075
 6720SOL    HW220561   3.719   2.426   3.691  0.3291  0.1845 -0.4076
 6721SOL     OW20562   0.144   1.683   1.409  0.1709  0.2610  0.0398
 6721SOL    HW120563   0.063   1.733   1.405 -0.2470 -0.3647  0.4507
 6721SOL    HW220564   0.200   1.722   1.342 -0.3390  0.9228 -0.0090
 6722SOL     OW20565   2.855   1.984   0.812  0.1631 -0.9282  0.2690
 6722SOL    HW120566   2.897   2.043   0.875 -0.3557 -1.2678  0.9445
 6722SOL    HW220567   2.761   1.998   0.825  0.0511 -1.1055 -0.3353
 6723SOL     OW20568   1.063   0.227   0.645  0.0406  0.0528  0.3347
 6723SOL    HW120569   1.073   0.213   0.739 -2.5026 -2.2906  0.3510
 6723SOL    HW220570   0.986   0.283   0.637  0.4526  0.5324 -0.3576
 6724SOL     OW20571   3.674   2.001   3.356  0.0370  0.4249 -0.8053
 6724SOL    HW120572   3.673   2.027   3.448  0.1793  0.9185 -0.9380
 6724SOL    HW220573   3.751   2.045   3.320  1.7570 -2.1357 -0.4977
 6725SOL     OW20574   3.420   6.004   6.265  0.1849  0.3670 -0.1170
 6725SOL    HW120575   3.482   5.996   6.337  1.0132  1.3104 -0.6935
 6725SOL    HW220576   3.472   5.985   6.187  0.2120  2.8152 -0.7670
 6726SOL     OW20577   1.001   3.174   5.686  0.8488  0.1801  0.2314
 6726SOL    HW120578   0.926   3.138   5.638 -0.7454  1.4102  1.6860
 6726SOL    HW220579   1.072   3.176   5.621 -1.2257  1.9298 -2.1585
 6727SOL     OW20580   3.865   3.781   1.834 -0.4372  0.2876 -0.4418
 6727SOL    HW120581   3.863   3.876   1.825 -4.1321  0.5716  1.2911
 6727SOL    HW220582   3.901   3.766   1.922 -0.0055  0.0827 -0.6504
 6728SOL     OW20583   1.194   6.482   4.019  0.0244  0.5398  0.2597
 6728SOL    HW120584   1.263   6.487   4.086  0.0605  0.4989  0.2255
 6728SOL    HW220585   1.186   6.572   3.987  1.4803  0.1986 -1.1763
 6729SOL     OW20586   0.711   2.458   0.935 -0.0527 -0.3144 -0.0757
 6729SOL    HW120587   0.788   2.498   0.975  0.2091  0.0583 -0.9483
 6729SOL    HW220588   0.649   2.449   1.008  0.5179  0.1049  0.4719
 6730SOL     OW20589   3.426   6.587   6.357 -0.0192  0.2931  0.0743
 6730SOL    HW120590   3.455   6.554   6.442  2.3680  3.2872  0.5939
 6730SOL    HW220591   3.481   6.542   6.293  0.0953  0.0040  0.3766
 6731SOL     OW20592   3.544   3.481   1.656 -0.5448  0.2352  0.0054
 6731SOL    HW120593   3.523   3.572   1.632 -0.4766 -0.1610 -1.6801
 6731SOL    HW220594   3.459   3.436   1.654 -0.3669 -0.0749 -0.7764
 6732SOL     OW20595   0.066   3.760   5.201 -0.4791  0.0696  0.0583
 6732SOL    HW120596   0.011   3.797   5.131  2.1879 -0.0334 -2.2827
 6732SOL    HW220597   0.131   3.828   5.218  0.9586 -1.2380 -0.0290
 6733SOL     OW20598   1.662   4.592   4.338  0.2048  0.0102 -0.2534
 6733SOL    HW120599   1.616   4.548   4.266 -1.7619  0.4423  0.6744
 6733SOL    HW220600   1.693   4.520   4.394 -1.5075 -0.2769  0.3704
 6734SOL     OW20601   5.346   2.331   4.854 -0.0767 -0.3745  0.1979
 6734SOL    HW120602   5.348   2.316   4.949 -0.0911 -0.8197  0.1302
 6734SOL    HW220603   5.353   2.426   4.845  1.5615 -0.4203  0.5953
 6735SOL     OW20604   6.201   6.549   1.961  0.9670  0.2486  0.2835
 6735SOL    HW120605   6.285   6.591   1.944  0.2360  1.1984 -1.1536
 6735SOL    HW220606   6.143   6.582   1.893 -0.4013 -0.9278  0.8209
 6736SOL     OW20607   5.968   1.946   2.412 -0.7789  0.5244  0.5116
 6736SOL    HW120608   5.877   1.927   2.435 -0.6441 -0.6423  0.1584
 6736SOL    HW220609   5.980   2.039   2.434 -1.7686  0.4458  1.4486
 6737SOL     OW20610   2.919   1.023   1.730 -0.5453  0.5378 -0.0602
 6737SOL    HW120611   2.947   0.960   1.663  1.4203  1.0619  0.2133
 6737SOL    HW220612   2.980   1.012   1.802 -2.4728  0.1580  1.6296
 6738SOL     OW20613   3.790   3.335   1.072  0.8882  0.1509  0.0466
 6738SOL    HW120614   3.721   3.285   1.115  1.4694 -1.0898 -0.3971
 6738SOL    HW220615   3.865   3.327   1.130  0.1096  3.4450  1.7057
 6739SOL     OW20616   4.729   6.762   1.918  0.0444 -0.5507  0.2897
 6739SOL    HW120617   4.738   6.858   1.921 -1.0796 -0.4664  2.7086
 6739SOL    HW220618   4.698   6.744   1.829 -1.1352  1.4916  0.2209
 6740SOL     OW20619   0.788   6.333   2.823 -0.2035 -0.0173 -0.1006
 6740SOL    HW120620   0.860   6.275   2.799 -0.8677 -2.1429  2.5013
 6740SOL    HW220621   0.709   6.283   2.801 -0.8762  1.2937 -0.7716
 6741SOL     OW20622   6.230   5.726   1.863  0.0970 -0.0583  0.4097
 6741SOL    HW120623   6.159   5.728   1.799 -0.7873  0.5204  1.3827
 6741SOL    HW220624   6.281   5.648   1.839  0.2735  0.5887 -1.4748
 6742SOL     OW20625   0.821   5.862   6.511  0.7925  0.6441  0.5621
 6742SOL    HW120626   0.760   5.936   6.519  1.0194  0.8211  0.6547
 6742SOL    HW220627   0.894   5.885   6.568  1.4795  0.9677 -0.4248
 6743SOL     OW20628   6.514   0.205   3.934  0.3194 -0.4512 -0.2524
 6743SOL    HW120629   6.432   0.252   3.921 -0.0366 -0.4717  1.6544
 6743SOL    HW220630   6.580   0.273   3.947  0.7981 -0.4110 -2.4475
 6744SOL     OW20631   6.759   2.089   4.403 -0.1371  0.3856 -0.3959
 6744SOL    HW120632   6.841   2.056   4.366  0.2434 -0.0697  0.7907
 6744SOL    HW220633   6.727   2.018   4.458 -1.8457  0.1924 -1.5727
 6745SOL     OW20634   2.290   3.465   5.122 -0.5343 -0.3516  0.1825
 6745SOL    HW120635   2.262   3.534   5.063 -2.2639 -1.1973 -0.0450
 6745SOL    HW220636   2.209   3.421   5.148  0.3317 -1.0158  1.9180
 6746SOL     OW20637   6.688   5.350   3.916  0.0186 -0.4026 -0.0508
 6746SOL    HW120638   6.743   5.428   3.908 -1.1607  0.4930  0.2388
 6746SOL    HW220639   6.611   5.380   3.963 -1.2083 -1.3610 -1.3664
 6747SOL     OW20640   5.750   2.503   3.937 -0.2916 -0.2680  0.0504
 6747SOL    HW120641   5.831   2.552   3.939 -0.9322  0.8642 -0.8320
 6747SOL    HW220642   5.693   2.547   4.001 -1.1645  0.7016 -1.3600
 6748SOL     OW20643   5.460   5.834   1.581 -0.6954  0.6010 -0.5510
 6748SOL    HW120644   5.490   5.787   1.659  1.8228  0.6416 -1.3913
 6748SOL    HW220645   5.416   5.768   1.529 -0.5267  0.0653 -0.0263
 6749SOL     OW20646   2.844   0.046   1.540  0.6357  0.2685  0.0404
 6749SOL    HW120647   2.876   0.088   1.620  1.3756 -1.5582  0.7469
 6749SOL    HW220648   2.757   0.013   1.564  0.5741  0.3088 -0.1283
 6750SOL     OW20649   3.910   2.086   2.897  0.3068 -0.0714 -0.1342
 6750SOL    HW120650   3.973   2.073   2.826  0.0006  0.9271 -0.6073
 6750SOL    HW220651   3.956   2.141   2.960  0.6484 -1.1139  0.5670
 6751SOL     OW20652   4.840   1.176   4.441  0.7016 -0.1864 -0.3028
 6751SOL    HW120653   4.874   1.103   4.388 -1.3624 -1.3000 -0.1887
 6751SOL    HW220654   4.773   1.216   4.385 -0.7696 -0.7172  1.0212
 6752SOL     OW20655   3.081   4.777   5.797  0.0006  0.6298  0.1826
 6752SOL    HW120656   3.133   4.856   5.813  1.4007 -0.5314  1.7617
 6752SOL    HW220657   3.140   4.720   5.747 -0.4663  0.0325  0.3115
 6753SOL     OW20658   3.533   2.121   3.841  0.0213  0.0355 -0.2857
 6753SOL    HW120659   3.503   2.150   3.928 -0.1179 -0.4510 -0.1697
 6753SOL    HW220660   3.457   2.077   3.803 -0.1409  0.8624 -0.9449
 6754SOL     OW20661   6.469   2.271   3.104  0.3495  0.5456 -0.2840
 6754SOL    HW120662   6.458   2.359   3.068 -0.5625  1.2858  1.6442
 6754SOL    HW220663   6.392   2.258   3.160 -0.9858 -2.5882 -2.5251
 6755SOL     OW20664   2.196   6.388   0.800  0.6160 -0.1632  0.2911
 6755SOL    HW120665   2.170   6.479   0.791  1.4406 -0.0882 -2.1529
 6755SOL    HW220666   2.288   6.387   0.774  0.1014 -1.9492 -1.7708
 6756SOL     OW20667   1.626   6.387   4.440 -0.1782  0.6952 -0.1314
 6756SOL    HW120668   1.630   6.458   4.504 -0.7604 -1.3785  2.3496
 6756SOL    HW220669   1.685   6.320   4.475 -0.0393 -0.3011 -2.1251
 6757SOL     OW20670   3.239   0.707   5.348  0.0299  0.0565 -0.3154
 6757SOL    HW120671   3.300   0.779   5.333  1.2240 -0.6368  1.0302
 6757SOL    HW220672   3.271   0.664   5.427 -3.4424  0.9670  1.7662
 6758SOL     OW20673   5.369   1.008   3.455 -0.3968 -0.2317  0.9107
 6758SOL    HW120674   5.324   0.990   3.538 -2.1806  0.8425  0.2376
 6758SOL    HW220675   5.442   1.064   3.480 -1.5618  1.0118  1.6808
 6759SOL     OW20676   5.203   0.019   2.448  0.1113 -0.5471  0.1332
 6759SOL    HW120677   5.292   0.017   2.482  1.0901 -2.6084 -2.2456
 6759SOL    HW220678   5.174  -0.072   2.451 -1.5053 -0.0772 -0.2164
 6760SOL     OW20679   3.701   0.734   1.451  0.0369  0.1424 -0.0052
 6760SOL    HW120680   3.718   0.722   1.358  0.5242  1.7344 -0.1486
 6760SOL    HW220681   3.636   0.804   1.455  0.9383  0.9595  0.8798
 6761SOL     OW20682   1.895   4.146   2.707 -0.1265 -0.4054  0.6636
 6761SOL    HW120683   1.841   4.224   2.705  0.1684 -0.2205 -0.3735
 6761SOL    HW220684   1.856   4.087   2.644  0.8118 -0.2995 -0.0444
 6762SOL     OW20685   0.686   2.069   4.320  0.1845 -0.8818 -0.0744
 6762SOL    HW120686   0.756   2.048   4.382 -0.2568  0.5606  0.9928
 6762SOL    HW220687   0.608   2.080   4.375 -0.5122 -0.8374 -1.0448
 6763SOL     OW20688   6.367   4.379   2.553  0.0335  0.2734 -0.2661
 6763SOL    HW120689   6.292   4.368   2.612  1.3703  0.7380  1.5987
 6763SOL    HW220690   6.379   4.292   2.514 -1.7224  0.2984 -0.9796
 6764SOL     OW20691   1.437   1.878   5.812  0.0117  0.5903  0.2337
 6764SOL    HW120692   1.488   1.798   5.823  1.1007  1.3019  0.4955
 6764SOL    HW220693   1.428   1.888   5.717  0.2154  0.3852  0.1926
 6765SOL     OW20694   3.768   4.526   1.316 -0.1000  0.1418 -0.3138
 6765SOL    HW120695   3.841   4.567   1.268 -1.1090  0.3733 -1.7195
 6765SOL    HW220696   3.693   4.534   1.257 -1.0233 -1.0856  0.6388
 6766SOL     OW20697   5.150   5.415   5.982 -0.3647 -0.0721  0.1758
 6766SOL    HW120698   5.091   5.359   6.033 -1.8619  2.7666  1.7924
 6766SOL    HW220699   5.234   5.370   5.984 -1.5293 -2.3718  1.1140
 6767SOL     OW20700   2.666   3.006   5.170  0.0737 -0.2507  0.3456
 6767SOL    HW120701   2.692   3.094   5.144 -1.0181  0.6215  2.0544
 6767SOL    HW220702   2.573   3.012   5.190 -0.3939 -2.1744 -0.9841
 6768SOL     OW20703   1.614   5.067   1.466  0.0579  0.2609  0.1095
 6768SOL    HW120704   1.606   4.982   1.423  1.6629  0.7706 -1.3254
 6768SOL    HW220705   1.585   5.052   1.556 -1.0143 -1.4537 -0.4758
 6769SOL     OW20706   1.506   2.467   6.326 -0.3636  0.4535  0.0827
 6769SOL    HW120707   1.459   2.418   6.394 -0.9987  0.8755 -0.0427
 6769SOL    HW220708   1.438   2.490   6.262  0.2228  0.0697 -0.6950
 6770SOL     OW20709   0.615   1.364   0.977 -0.3244  0.0343 -0.9863
 6770SOL    HW120710   0.537   1.419   0.981 -0.6261 -0.3570 -1.4095
 6770SOL    HW220711   0.602   1.308   0.901  0.1287 -0.3984 -0.7566
 6771SOL     OW20712   1.562   5.665   1.953  0.4276  0.2305 -0.0643
 6771SOL    HW120713   1.467   5.660   1.966  0.5401  0.9858  1.2491
 6771SOL    HW220714   1.595   5.582   1.987  0.2705  0.1657 -0.0664
 6772SOL     OW20715   1.934   0.676   6.027 -0.9711 -0.6827  0.4759
 6772SOL    HW120716   1.859   0.704   5.974  0.6613  0.6812 -1.2849
 6772SOL    HW220717   1.943   0.744   6.094  0.5936  1.0692 -1.3663
 6773SOL     OW20718   5.757   4.421   5.474 -0.1672  0.5607  0.2001
 6773SOL    HW120719   5.668   4.389   5.492  0.5304 -2.1188 -0.6988
 6773SOL    HW220720   5.782   4.378   5.392  1.0379  3.3202 -1.0304
 6774SOL     OW20721   5.030   2.830   3.212 -0.4810 -0.4270  0.0742
 6774SOL    HW120722   5.005   2.841   3.304  0.5019 -1.7097  0.5314
 6774SOL    HW220723   5.125   2.839   3.212 -0.6343  2.3519 -1.3074
 6775SOL     OW20724   5.309   0.609   4.670 -0.8540 -0.5256  0.0222
 6775SOL    HW120725   5.232   0.565   4.634 -1.7307  0.8591  0.1128
 6775SOL    HW220726   5.328   0.562   4.751 -2.1613 -0.3562  0.4583
 6776SOL     OW20727   3.288   5.759   1.013 -0.0490 -0.8136 -0.2181
 6776SOL    HW120728   3.334   5.691   0.964  0.3347 -0.7866  0.1038
 6776SOL    HW220729   3.243   5.810   0.946  2.7986  1.0371 -0.8677
 6777SOL     OW20730   3.169   1.525   1.844  0.1566  0.0107  0.0277
 6777SOL    HW120731   3.192   1.433   1.860 -0.1140 -0.3308 -1.3952
 6777SOL    HW220732   3.079   1.522   1.812  0.4991  0.6535 -1.0483
 6778SOL     OW20733   4.671   6.167   5.606  0.1568  0.0805  0.2544
 6778SOL    HW120734   4.714   6.233   5.551 -0.4680  1.5374  1.4470
 6778SOL    HW220735   4.671   6.088   5.553  1.0373  1.0065 -1.1892
 6779SOL     OW20736   1.398   6.434   5.501  0.0463  0.0871 -0.2388
 6779SOL    HW120737   1.373   6.363   5.560 -0.1052 -1.1725 -1.7648
 6779SOL    HW220738   1.411   6.510   5.559  1.4945 -1.4707  1.6141
 6780SOL     OW20739   5.624   2.235   0.553 -0.4810 -0.9448 -0.7393
 6780SOL    HW120740   5.555   2.270   0.609 -1.3649 -1.7710 -1.2818
 6780SOL    HW220741   5.620   2.288   0.474 -1.0908 -1.5538 -1.1232
 6781SOL     OW20742   2.129   5.018   3.739 -0.1374  0.3459 -0.5428
 6781SOL    HW120743   2.089   5.052   3.659 -0.3558  0.9857 -0.1661
 6781SOL    HW220744   2.198   5.081   3.759 -1.1666  1.1193  0.6907
 6782SOL     OW20745   4.760   4.663   3.531  0.0025  0.1025  0.1330
 6782SOL    HW120746   4.774   4.589   3.472 -0.3267  0.9753 -1.0836
 6782SOL    HW220747   4.714   4.728   3.477  0.4395  1.2616  1.1155
 6783SOL     OW20748   3.670   0.277   5.380  0.3017  0.1316 -0.4688
 6783SOL    HW120749   3.591   0.330   5.389  1.3354  1.6083  0.1424
 6783SOL    HW220750   3.637   0.186   5.379 -1.3475  0.6834  0.2550
 6784SOL     OW20751   0.147   5.214   5.846  0.0306 -0.6646  0.5938
 6784SOL    HW120752   0.168   5.260   5.927 -1.4957 -0.5701  0.9526
 6784SOL    HW220753   0.062   5.175   5.861  0.2050 -1.5698 -0.5881
 6785SOL     OW20754   6.250   0.186   1.202  0.3723  0.8333  0.2751
 6785SOL    HW120755   6.308   0.113   1.223  2.2565  1.8280 -1.1364
 6785SOL    HW220756   6.164   0.147   1.192  0.6371 -0.6457  2.9261
 6786SOL     OW20757   2.593   5.780   1.823 -0.1342 -0.2386  0.4383
 6786SOL    HW120758   2.503   5.781   1.788 -0.3855 -0.2480  1.0685
 6786SOL    HW220759   2.586   5.823   1.909  0.3124 -0.9599  0.8451
 6787SOL     OW20760   1.045   3.387   3.607  0.0658  0.0119  0.2668
 6787SOL    HW120761   1.012   3.452   3.545  1.2598  0.4109  0.0119
 6787SOL    HW220762   1.041   3.430   3.692 -0.8810 -0.2703  0.3792
 6788SOL     OW20763   5.700   3.313   2.139  0.0559  0.3040 -0.0700
 6788SOL    HW120764   5.762   3.291   2.208 -1.6809 -1.9245  0.9270
 6788SOL    HW220765   5.615   3.314   2.182 -1.0180 -0.4480 -2.0218
 6789SOL     OW20766   3.010   4.096   1.563 -0.2068  0.4249  0.6964
 6789SOL    HW120767   3.047   4.184   1.557  0.8936 -0.0908 -0.5670
 6789SOL    HW220768   3.085   4.039   1.579 -0.9772 -0.2478  2.0500
 6790SOL     OW20769   1.429   4.551   1.006 -0.1789 -0.9736 -0.5074
 6790SOL    HW120770   1.420   4.626   0.948  0.9494 -1.8078 -1.7991
 6790SOL    HW220771   1.384   4.479   0.961 -0.5420 -1.2936  0.3289
 6791SOL     OW20772   1.909   2.042   1.398  0.1589  0.1531  0.1594
 6791SOL    HW120773   1.897   1.967   1.456 -0.1562 -0.6269 -0.8761
 6791SOL    HW220774   1.843   2.105   1.425 -1.6714 -1.2067 -0.8955
 6792SOL     OW20775   2.766   5.348   1.821 -0.4389 -0.7714  0.8164
 6792SOL    HW120776   2.705   5.365   1.893 -0.8892  0.7720  0.1182
 6792SOL    HW220777   2.709   5.324   1.748 -0.2254  0.5161  0.2038
 6793SOL     OW20778   2.459   4.559   3.328  0.3556 -0.6572 -0.3831
 6793SOL    HW120779   2.455   4.549   3.233 -1.1801 -2.7640 -0.1748
 6793SOL    HW220780   2.370   4.579   3.354  0.6405 -0.6724  0.6556
 6794SOL     OW20781   2.355   5.052   5.137 -0.2240  0.7882  0.0194
 6794SOL    HW120782   2.379   5.023   5.049 -2.3172  2.5145 -1.2087
 6794SOL    HW220783   2.386   4.981   5.194 -0.5582 -1.3561 -2.2726
 6795SOL     OW20784   3.286   2.140   0.953 -0.1090  0.7039  0.8407
 6795SOL    HW120785   3.367   2.190   0.963 -0.0336  1.3425 -2.0901
 6795SOL    HW220786   3.272   2.135   0.858 -2.7154 -0.6793  1.2006
 6796SOL     OW20787   6.466   0.005   4.808 -0.2937 -0.3289  0.1771
 6796SOL    HW120788   6.517   0.056   4.870  0.1252  2.4170 -2.2201
 6796SOL    HW220789   6.531  -0.037   4.752 -0.6784 -2.1771  1.0265
 6797SOL     OW20790   0.912   6.683   2.663 -0.4887  0.3092 -0.4567
 6797SOL    HW120791   0.838   6.716   2.713  0.7577 -0.5155  2.0943
 6797SOL    HW220792   0.969   6.759   2.652  0.5023 -0.0098  1.9001
 6798SOL     OW20793   2.704   4.663   6.160  0.7419 -0.0817 -0.4651
 6798SOL    HW120794   2.644   4.692   6.228 -0.1399 -2.2631 -0.2102
 6798SOL    HW220795   2.790   4.692   6.190  0.0564  1.4997  0.0911
 6799SOL     OW20796   6.764   4.346   1.573 -0.2080 -0.1080 -0.0760
 6799SOL    HW120797   6.852   4.372   1.601 -0.1585  0.8488 -1.0480
 6799SOL    HW220798   6.707   4.415   1.604 -0.4227 -0.0404 -0.6030
 6800SOL     OW20799   2.479   4.218   4.793  0.2416  0.5958  0.3187
 6800SOL    HW120800   2.423   4.198   4.718 -0.2147 -0.9782  1.0286
 6800SOL    HW220801   2.553   4.266   4.756  0.4820 -0.9250 -1.3134
 6801SOL     OW20802   3.331   4.416   5.313  0.4834  0.2669  0.3619
 6801SOL    HW120803   3.265   4.483   5.330 -2.6579 -1.6829 -2.9555
 6801SOL    HW220804   3.310   4.345   5.373  1.5926  0.7931  1.4181
 6802SOL     OW20805   3.536   2.773   3.450  0.1326 -0.2194 -0.1533
 6802SOL    HW120806   3.512   2.866   3.442 -3.4725 -1.0531 -0.7833
 6802SOL    HW220807   3.479   2.740   3.519  0.6759 -2.1814 -0.5952
 6803SOL     OW20808   2.269   6.493   5.161  0.0121 -1.3232  0.2163
 6803SOL    HW120809   2.212   6.423   5.128  0.5886 -1.2570 -0.9499
 6803SOL    HW220810   2.238   6.572   5.116 -0.4789 -0.8441  1.3455
 6804SOL     OW20811   6.727   0.376   3.942 -0.0181  0.2361 -0.0579
 6804SOL    HW120812   6.763   0.458   3.976  0.3636 -0.2053  0.5966
 6804SOL    HW220813   6.728   0.388   3.847  1.9540  0.1948 -0.0788
 6805SOL     OW20814   4.590   4.571   0.343  0.0390 -0.6032  0.0773
 6805SOL    HW120815   4.501   4.601   0.362  0.0032 -1.1002  0.7392
 6805SOL    HW220816   4.581   4.477   0.327  0.4424 -0.6524  0.1287
 6806SOL     OW20817   1.704   3.779   5.612  0.0722 -0.2137 -0.0613
 6806SOL    HW120818   1.617   3.788   5.651 -0.9530 -2.5314 -1.6043
 6806SOL    HW220819   1.759   3.749   5.684  0.4649  3.9990  1.7011
 6807SOL     OW20820   1.691   2.926   2.635 -0.0576 -0.2647 -0.5336
 6807SOL    HW120821   1.726   2.940   2.723 -1.5567 -1.8488  0.3614
 6807SOL    HW220822   1.597   2.943   2.644 -0.3940 -1.4667 -1.5585
 6808SOL     OW20823   1.348   4.767   0.261  0.9767 -0.0305  0.1153
 6808SOL    HW120824   1.415   4.771   0.329  1.7493  0.3810 -0.6628
 6808SOL    HW220825   1.332   4.674   0.247  0.4362 -0.1210  1.2084
 6809SOL     OW20826   2.386   2.190   5.013  0.1219 -0.0032 -0.4612
 6809SOL    HW120827   2.330   2.155   4.944 -1.0237  1.3849 -0.2736
 6809SOL    HW220828   2.440   2.255   4.969  1.6778 -1.3603 -0.6488
 6810SOL     OW20829   0.112   5.124   3.883  0.1321  0.0476  0.0242
 6810SOL    HW120830   0.023   5.154   3.862 -0.5415 -2.1862 -0.5680
 6810SOL    HW220831   0.169   5.186   3.838 -1.1849  0.1412 -1.6400
 6811SOL     OW20832   4.571   1.744   5.109  0.3289 -0.1464  0.3837
 6811SOL    HW120833   4.497   1.765   5.166 -0.6139  0.7881 -1.0950
 6811SOL    HW220834   4.622   1.825   5.106 -1.4655  1.0737 -2.6399
 6812SOL     OW20835   6.466   1.572   0.506  0.2475 -0.1700  0.1447
 6812SOL    HW120836   6.486   1.479   0.520 -0.3070 -0.2456  0.4619
 6812SOL    HW220837   6.551   1.616   0.517  0.5032 -0.6293  0.0548
 6813SOL     OW20838   2.876   4.030   1.889 -0.6969 -0.0503 -0.1538
 6813SOL    HW120839   2.921   3.971   1.829  3.7967 -0.9574  3.5374
 6813SOL    HW220840   2.912   4.116   1.869  0.0391 -0.1958  0.4803
 6814SOL     OW20841   5.186   4.301   2.254 -0.1477  0.4618  0.6980
 6814SOL    HW120842   5.182   4.391   2.223  0.7104 -0.1740 -1.4632
 6814SOL    HW220843   5.280   4.284   2.267 -0.1628 -0.5078 -0.2692
 6815SOL     OW20844   5.973   1.999   5.997  0.0514 -0.0809 -0.0497
 6815SOL    HW120845   6.004   1.974   6.084  0.4216 -0.0013 -0.1580
 6815SOL    HW220846   6.018   1.939   5.937  0.2772  0.2728 -0.2374
 6816SOL     OW20847   5.345   1.017   6.101 -0.2203  0.1884  0.1002
 6816SOL    HW120848   5.281   1.026   6.030 -2.1134  1.6051  1.8471
 6816SOL    HW220849   5.422   0.977   6.060 -1.5267  0.1753 -2.5275
 6817SOL     OW20850   5.729   2.520   5.172  0.0334 -0.3672 -0.4839
 6817SOL    HW120851   5.694   2.446   5.122  0.6295 -1.5121  0.7563
 6817SOL    HW220852   5.823   2.516   5.158  0.1818 -0.5422  0.4921
 6818SOL     OW20853   5.707   1.402   5.506 -0.3576  0.2519  0.4675
 6818SOL    HW120854   5.659   1.482   5.488 -1.3786 -0.1605  1.2661
 6818SOL    HW220855   5.641   1.340   5.537  0.5584 -0.5848  0.8180
 6819SOL     OW20856   4.303   3.113   1.213  0.5111  0.2733  0.3009
 6819SOL    HW120857   4.288   3.037   1.157 -0.5704 -0.1573  1.1374
 6819SOL    HW220858   4.236   3.106   1.281  1.4862  1.0355  1.3795
 6820SOL     OW20859   0.974   4.390   5.714 -0.0063  0.0869 -0.1624
 6820SOL    HW120860   0.898   4.341   5.745  0.6346 -0.0330  1.3367
 6820SOL    HW220861   0.938   4.460   5.660 -1.0058 -1.3123 -1.3398
 6821SOL     OW20862   0.095   5.573   3.918 -0.1827  0.1777  0.1041
 6821SOL    HW120863   0.178   5.568   3.871 -0.6061 -0.3529 -0.6158
 6821SOL    HW220864   0.115   5.543   4.007  0.5105  0.6314  0.1070
 6822SOL     OW20865   0.888   3.267   2.684 -0.0980  0.0964 -0.0610
 6822SOL    HW120866   0.836   3.201   2.731 -3.3674  1.5323 -1.3962
 6822SOL    HW220867   0.934   3.314   2.754  0.8930 -2.3192  1.0508
 6823SOL     OW20868   1.834   6.343   5.764  0.0902  0.1455 -0.1712
 6823SOL    HW120869   1.890   6.267   5.749 -2.1137 -1.1508 -2.7795
 6823SOL    HW220870   1.857   6.403   5.692  0.4798  1.1502  0.7623
 6824SOL     OW20871   3.955   2.203   3.542  0.6025 -0.6112  0.0196
 6824SOL    HW120872   4.032   2.169   3.588 -0.1320 -0.8762  1.0915
 6824SOL    HW220873   3.881   2.161   3.585 -0.1430 -0.6720 -1.2600
 6825SOL     OW20874   5.898   3.508   4.267 -0.3747  0.2054 -0.1386
 6825SOL    HW120875   5.874   3.439   4.330  1.7884 -0.2832  0.2144
 6825SOL    HW220876   5.865   3.476   4.183  0.0543 -0.9702  0.1286
 6826SOL     OW20877   2.901   3.941   4.092 -0.0426 -0.2527 -0.4249
 6826SOL    HW120878   2.925   3.968   4.181 -0.5774 -1.2808  0.0534
 6826SOL    HW220879   2.815   3.899   4.102 -0.3463  0.0687 -1.5141
 6827SOL     OW20880   3.537   4.113   2.214  0.0883  0.2654  0.6132
 6827SOL    HW120881   3.541   4.155   2.299 -0.3472 -0.4732  1.0127
 6827SOL    HW220882   3.496   4.028   2.231  1.1927 -0.4417 -0.1114
 6828SOL     OW20883   4.184   1.195   2.180  0.0038 -0.2823  0.1281
 6828SOL    HW120884   4.183   1.129   2.249  3.5416  1.0992  1.7352
 6828SOL    HW220885   4.104   1.246   2.195  0.1809 -0.5934  2.6905
 6829SOL     OW20886   6.172   6.148   3.274  0.3288 -0.5932 -0.0790
 6829SOL    HW120887   6.255   6.195   3.272 -0.3463  0.6873  0.8788
 6829SOL    HW220888   6.120   6.188   3.203 -0.2436  0.1562  0.7348
 6830SOL     OW20889   2.138   2.859   4.739 -0.0057  0.5735 -0.0319
 6830SOL    HW120890   2.209   2.821   4.791 -1.1756  0.9817  1.9948
 6830SOL    HW220891   2.079   2.786   4.721 -0.5094  0.7355  0.8597
 6831SOL     OW20892   3.757   5.866   6.724  0.0982 -0.3190  0.3550
 6831SOL    HW120893   3.721   5.915   6.650  1.1833  1.6583  1.0458
 6831SOL    HW220894   3.728   5.915   6.801  0.3710 -1.3907  1.1615
 6832SOL     OW20895   1.991   2.597   0.688  0.2042  0.1986 -0.0537
 6832SOL    HW120896   2.008   2.524   0.630  1.6172 -0.3504  1.0074
 6832SOL    HW220897   2.033   2.672   0.645 -2.6074  0.8379 -1.9606
 6833SOL     OW20898   0.048   3.230   5.534  0.1631 -0.0895  0.0872
 6833SOL    HW120899   0.026   3.197   5.447 -1.2660  2.1880 -0.5144
 6833SOL    HW220900   0.019   3.161   5.594  1.4859 -1.8450 -1.1919
 6834SOL     OW20901   6.675   2.609   5.489 -0.4031  0.0078 -0.5824
 6834SOL    HW120902   6.591   2.655   5.493 -0.0868  0.5227  1.1038
 6834SOL    HW220903   6.729   2.653   5.555  0.1546 -2.3381  0.6239
 6835SOL     OW20904   2.043   2.982   6.395  0.1319  0.4258 -0.2776
 6835SOL    HW120905   2.011   2.927   6.466 -0.6287  0.3486 -0.6715
 6835SOL    HW220906   1.966   3.029   6.364  0.4288  0.3628 -1.1450
 6836SOL     OW20907   1.090   4.751   5.979 -0.0451 -0.3834 -0.3444
 6836SOL    HW120908   1.030   4.826   5.974 -0.2422 -0.4592  0.7467
 6836SOL    HW220909   1.170   4.782   5.936  0.0704  0.6626  0.5885
 6837SOL     OW20910   6.226   6.105   4.451 -0.1231  0.4727  0.3507
 6837SOL    HW120911   6.198   6.166   4.519 -1.8763  2.7564 -2.1958
 6837SOL    HW220912   6.235   6.159   4.373 -1.0678 -2.3944 -1.9351
 6838SOL     OW20913   5.187   4.831   0.775  0.0638 -0.4948  0.1329
 6838SOL    HW120914   5.098   4.798   0.781  0.2308 -0.8827  0.5731
 6838SOL    HW220915   5.182   4.906   0.716 -0.9288  0.7946  1.7754
 6839SOL     OW20916   3.415   3.174   4.772 -0.4637 -0.1136  0.8643
 6839SOL    HW120917   3.341   3.209   4.820 -0.5032  1.0894 -0.0375
 6839SOL    HW220918   3.488   3.177   4.834 -0.8281  0.0665  1.2881
 6840SOL     OW20919   0.308   0.372   4.286  0.4128  0.0680 -0.1919
 6840SOL    HW120920   0.378   0.308   4.280  0.2881 -0.1554  0.6769
 6840SOL    HW220921   0.308   0.415   4.200 -0.7122 -2.3410 -1.5054
 6841SOL     OW20922   3.066   5.448   4.163  0.3506 -0.2925 -0.2949
 6841SOL    HW120923   3.062   5.460   4.068 -1.6958 -0.4194 -0.2762
 6841SOL    HW220924   3.048   5.534   4.199 -0.8878 -0.6253 -0.0668
 6842SOL     OW20925   6.415   5.023   5.892  0.0340  0.4580  0.0471
 6842SOL    HW120926   6.365   4.994   5.968 -1.8201  2.4495 -0.3371
 6842SOL    HW220927   6.365   4.992   5.816  0.6332  0.5003 -0.3773
 6843SOL     OW20928   6.246   0.084   5.953  0.0456  0.3365 -0.7398
 6843SOL    HW120929   6.291   0.099   5.870 -0.2910  0.2000 -0.9503
 6843SOL    HW220930   6.293   0.138   6.017  0.3595  0.3730 -1.0003
 6844SOL     OW20931   4.099   2.485   0.724 -0.0889 -0.2797  0.5310
 6844SOL    HW120932   4.056   2.489   0.638  1.6418  0.3813 -0.3690
 6844SOL    HW220933   4.038   2.529   0.783 -1.7209 -1.5230 -0.1402
 6845SOL     OW20934   4.541   2.369   6.031 -0.0794  0.1798  0.8355
 6845SOL    HW120935   4.500   2.300   6.082  1.1886  1.3107  3.5467
 6845SOL    HW220936   4.485   2.446   6.044  0.2265  0.4733  0.4654
 6846SOL     OW20937   3.227   5.917   4.800  0.1323 -0.3120  0.5665
 6846SOL    HW120938   3.195   5.877   4.719  1.8937 -0.5266 -0.0773
 6846SOL    HW220939   3.304   5.865   4.823 -0.9175 -0.9144  2.9950
 6847SOL     OW20940   2.233   0.524   6.090 -0.8235 -0.5467 -0.3932
 6847SOL    HW120941   2.182   0.508   6.011 -1.8003  1.2916 -0.2010
 6847SOL    HW220942   2.245   0.619   6.092 -0.9630 -0.5133  1.7222
 6848SOL     OW20943   6.717   4.094   2.856 -0.2237 -0.0716  0.2706
 6848SOL    HW120944   6.764   4.045   2.788 -1.9704  0.0362 -1.0677
 6848SOL    HW220945   6.716   4.184   2.824  1.4867  0.6069  1.9128
 6849SOL     OW20946   1.893   4.323   1.378 -0.1863 -0.3702  0.0962
 6849SOL    HW120947   1.951   4.350   1.449 -0.0387  1.3363 -0.6326
 6849SOL    HW220948   1.931   4.242   1.345  0.7029 -0.2695  0.8427
 6850SOL     OW20949   2.148   4.682   0.962  0.7133 -0.1395 -0.0061
 6850SOL    HW120950   2.239   4.711   0.961  0.5944  0.2631  0.5614
 6850SOL    HW220951   2.117   4.698   0.873  0.7297  1.2423  0.2253
 6851SOL     OW20952   6.328   6.707   0.614 -0.0462  0.4619  0.0177
 6851SOL    HW120953   6.392   6.758   0.565 -0.1658  1.3351  0.7467
 6851SOL    HW220954   6.253   6.765   0.624 -0.9348 -0.5083 -0.7360
 6852SOL     OW20955   4.470   5.755   0.639  0.0185  0.0667  0.0507
 6852SOL    HW120956   4.378   5.739   0.660  0.4265 -1.5010  0.7774
 6852SOL    HW220957   4.467   5.815   0.564 -1.5498  1.1647  0.9197
 6853SOL     OW20958   2.764   4.401   1.221  0.1750 -0.5404 -0.3595
 6853SOL    HW120959   2.672   4.377   1.208 -0.0333 -0.5329  0.9569
 6853SOL    HW220960   2.791   4.440   1.138 -1.3315  0.4418 -0.4117
 6854SOL     OW20961   5.728   6.577   5.952  0.4686 -0.2085 -0.2054
 6854SOL    HW120962   5.791   6.511   5.983  0.5244  0.6022  1.5474
 6854SOL    HW220963   5.755   6.658   5.997 -0.8725  0.5195 -0.6702
 6855SOL     OW20964   4.138   3.086   5.928  0.1513  0.6007  0.4058
 6855SOL    HW120965   4.175   3.172   5.949 -0.9285  1.5212 -1.2733
 6855SOL    HW220966   4.123   3.088   5.834  1.6977 -2.0959 -0.0344
 6856SOL     OW20967   2.122   6.273   2.260  0.0296  0.3822  0.0220
 6856SOL    HW120968   2.195   6.214   2.243  1.0933  1.3695  0.8944
 6856SOL    HW220969   2.142   6.310   2.347 -1.6400  0.4976  0.3824
 6857SOL     OW20970   5.647   2.038   5.721 -1.0994 -0.3775 -0.1439
 6857SOL    HW120971   5.678   2.066   5.807  0.0873  0.2802 -0.7577
 6857SOL    HW220972   5.613   1.950   5.736  1.0643 -1.1641  0.6172
 6858SOL     OW20973   0.559   5.105   0.835  0.3482  0.1651 -0.5701
 6858SOL    HW120974   0.541   5.198   0.827  1.1403  0.2655 -1.3734
 6858SOL    HW220975   0.483   5.062   0.795 -1.1379  0.3585  1.8543
 6859SOL     OW20976   4.581   0.700   4.625  0.4125 -0.2484  0.0892
 6859SOL    HW120977   4.577   0.783   4.577  0.1857  0.4049  1.2054
 6859SOL    HW220978   4.502   0.699   4.679 -0.6649 -2.1504 -1.3713
 6860SOL     OW20979   4.504   4.385   1.380  0.2546 -0.3414  0.0199
 6860SOL    HW120980   4.459   4.439   1.445 -1.3216 -0.1143 -1.2205
 6860SOL    HW220981   4.434   4.350   1.325  1.4801 -1.3593 -0.9487
 6861SOL     OW20982   1.449   5.335   4.303  0.5436 -0.5064  0.5670
 6861SOL    HW120983   1.543   5.338   4.324  0.8099  0.9795 -0.6863
 6861SOL    HW220984   1.434   5.245   4.273  1.5329 -0.7973  0.9060
 6862SOL     OW20985   5.539   5.444   3.403  0.1627 -0.2790 -0.3467
 6862SOL    HW120986   5.605   5.435   3.333 -1.1618 -1.4751 -1.4997
 6862SOL    HW220987   5.540   5.359   3.447  0.4212  0.2084  0.6070
 6863SOL     OW20988   4.394   4.350   6.403 -0.5512 -0.0544 -0.4078
 6863SOL    HW120989   4.438   4.430   6.375 -0.5817  0.3634  0.7070
 6863SOL    HW220990   4.306   4.378   6.429 -1.3345 -0.7913 -2.0593
 6864SOL     OW20991   6.527   6.601   5.871 -0.0847  0.1472 -0.0918
 6864SOL    HW120992   6.461   6.547   5.827 -3.0497  1.8695  1.8904
 6864SOL    HW220993   6.524   6.685   5.825 -1.9257  1.3751  2.0902
 6865SOL     OW20994   5.358   3.634   2.729 -0.2508 -0.2355  0.4296
 6865SOL    HW120995   5.437   3.587   2.703  0.1932  1.4991 -1.6074
 6865SOL    HW220996   5.390   3.715   2.767 -1.0041  0.8201 -1.1032
 6866SOL     OW20997   4.137   6.201   2.375 -0.0748 -0.0945  0.2082
 6866SOL    HW120998   4.132   6.121   2.324 -0.6180  0.5389 -0.7492
 6866SOL    HW220999   4.226   6.201   2.412 -0.5662 -1.8947  1.5223
 6867SOL     OW21000   4.402   3.650   6.348 -0.2480 -0.2564  0.1412
 6867SOL    HW121001   4.394   3.585   6.418 -0.8912 -0.3965 -0.0599
 6867SOL    HW221002   4.489   3.634   6.311 -0.6565 -1.4724 -0.3549
 6868SOL     OW21003   2.916   2.815   4.495  0.5031  0.2325 -0.0960
 6868SOL    HW121004   2.860   2.740   4.518  0.9510  0.3072  1.3882
 6868SOL    HW221005   2.872   2.890   4.535  0.2165  0.7315 -1.3174
 6869SOL     OW21006   6.515   3.358   4.402  0.8137 -0.3314 -0.3748
 6869SOL    HW121007   6.433   3.382   4.359 -0.1016  1.9001  2.3588
 6869SOL    HW221008   6.583   3.379   4.338 -0.5722  0.6148 -1.6001
 6870SOL     OW21009   6.104   5.686   0.218 -0.2866  0.1630 -0.3004
 6870SOL    HW121010   6.021   5.640   0.231  0.1381 -0.8798 -1.1333
 6870SOL    HW221011   6.087   5.745   0.144 -0.8591  1.4677  0.8294
 6871SOL     OW21012   3.061   2.356   2.232 -0.0690 -0.3077 -0.3190
 6871SOL    HW121013   3.108   2.420   2.287  0.3883 -1.2505  0.4120
 6871SOL    HW221014   3.130   2.315   2.180 -0.4302  0.1495 -1.1737
 6872SOL     OW21015   4.655   6.146   3.930  0.0202 -0.3039  0.3944
 6872SOL    HW121016   4.722   6.124   3.866 -1.8379 -1.8544 -1.1386
 6872SOL    HW221017   4.578   6.171   3.878 -1.2287 -0.5463  2.0221
 6873SOL     OW21018   2.016   3.015   3.811  0.1389  0.0559  0.2800
 6873SOL    HW121019   2.059   2.939   3.850 -0.2520  0.4438  1.5054
 6873SOL    HW221020   2.085   3.080   3.802  0.3256 -0.1910 -0.1151
 6874SOL     OW21021   3.654   0.626   3.454 -0.2033  0.2487 -0.2804
 6874SOL    HW121022   3.707   0.581   3.520 -0.3604 -0.2413 -0.4827
 6874SOL    HW221023   3.564   0.615   3.484 -0.4232 -1.3863 -1.3871
 6875SOL     OW21024   6.323   4.786   0.518  0.5304 -0.3449  0.3041
 6875SOL    HW121025   6.298   4.732   0.593 -0.8456 -1.5879 -0.9735
 6875SOL    HW221026   6.363   4.725   0.456 -1.6133 -0.1166 -1.4308
 6876SOL     OW21027   3.028   5.768   6.698  0.4773 -0.3471 -0.4203
 6876SOL    HW121028   2.937   5.780   6.673  0.1926 -1.7146 -0.0997
 6876SOL    HW221029   3.075   5.761   6.615  0.2164 -0.1513 -0.5854
 6877SOL     OW21030   5.602   0.949   2.517  0.1328  0.3799  0.1305
 6877SOL    HW121031   5.648   0.884   2.464 -0.1656  0.2895 -0.0214
 6877SOL    HW221032   5.599   1.028   2.462  1.1500  0.7640  0.6025
 6878SOL     OW21033   5.430   0.439   6.303 -0.5183 -0.7095  0.2396
 6878SOL    HW121034   5.437   0.526   6.263 -2.1334 -0.5889  0.1624
 6878SOL    HW221035   5.465   0.379   6.237  0.1423 -0.1735  0.0959
 6879SOL     OW21036   1.470   4.343   4.964 -0.2875 -0.8770  0.0053
 6879SOL    HW121037   1.407   4.412   4.943  2.0423  1.0573 -1.0961
 6879SOL    HW221038   1.497   4.362   5.054  0.4240 -0.2553 -0.3303
 6880SOL     OW21039   3.829   0.986   2.691  0.3618  0.5807  0.5798
 6880SOL    HW121040   3.777   1.023   2.762  1.9635  0.9430  1.6045
 6880SOL    HW221041   3.852   1.061   2.636 -0.4645  0.3699 -0.0764
 6881SOL     OW21042   3.812   1.374   1.153 -0.0557 -0.1538 -0.3638
 6881SOL    HW121043   3.891   1.384   1.205 -1.3939  0.1857  1.7350
 6881SOL    HW221044   3.772   1.461   1.153 -0.5990 -0.3965 -1.1010
 6882SOL     OW21045   2.559   5.329   2.671 -0.0123 -0.0922 -0.0659
 6882SOL    HW121046   2.604   5.263   2.619 -0.5290 -1.6529  1.3722
 6882SOL    HW221047   2.566   5.410   2.619  0.7211 -1.2322 -1.8296
 6883SOL     OW21048   6.197   6.226   3.797 -0.7121 -0.2442 -0.0200
 6883SOL    HW121049   6.194   6.202   3.704  2.2533  0.4696 -0.3930
 6883SOL    HW221050   6.139   6.163   3.840 -2.0739 -0.6713 -2.3012
 6884SOL     OW21051   6.576   4.405   2.820 -0.7071  0.4222 -0.2566
 6884SOL    HW121052   6.607   4.366   2.902 -0.7470  0.8938 -0.0132
 6884SOL    HW221053   6.512   4.343   2.787  0.1290 -0.3177 -0.5066
 6885SOL     OW21054   1.916   0.654   4.292 -0.2997  0.2528 -0.3786
 6885SOL    HW121055   1.932   0.674   4.200 -0.6047 -0.6060 -0.6287
 6885SOL    HW221056   1.842   0.709   4.316 -0.6773 -0.0464 -0.8503
 6886SOL     OW21057   6.271   2.527   4.611  0.0011  0.7212  0.1710
 6886SOL    HW121058   6.363   2.508   4.593 -0.0578  0.2506  0.3525
 6886SOL    HW221059   6.228   2.441   4.614 -0.8667  1.0177 -2.0756
 6887SOL     OW21060   0.592   4.371   4.585 -0.1414  0.9559  0.0048
 6887SOL    HW121061   0.534   4.358   4.660 -0.6401 -1.2511 -0.6776
 6887SOL    HW221062   0.533   4.373   4.510  0.5512 -1.4369 -0.7135
 6888SOL     OW21063   0.426   5.851   6.064  0.2052 -0.0282 -0.1850
 6888SOL    HW121064   0.376   5.863   5.983  1.3947  0.8262 -0.8332
 6888SOL    HW221065   0.384   5.909   6.127 -1.1671 -1.2149  0.0531
 6889SOL     OW21066   0.106   0.797   4.590  0.0093  0.7086 -0.6348
 6889SOL    HW121067   0.131   0.711   4.622 -0.5532  0.0610 -1.8822
 6889SOL    HW221068   0.185   0.832   4.549  0.0885  0.5675 -0.6015
 6890SOL     OW21069   2.532   5.701   5.825 -0.4210 -0.9028  0.2192
 6890SOL    HW121070   2.625   5.690   5.844 -0.0769 -0.2600 -0.9796
 6890SOL    HW221071   2.488   5.678   5.907  0.8448 -0.1181  1.1589
 6891SOL     OW21072   0.093   2.751   6.195 -0.1179  0.0396  0.2963
 6891SOL    HW121073   0.129   2.816   6.134 -1.7772  1.0691  0.3253
 6891SOL    HW221074   0.013   2.720   6.152 -0.1030 -0.9257  0.9367
 6892SOL     OW21075   4.855   0.772   4.558  0.0371  0.2392  0.5899
 6892SOL    HW121076   4.769   0.737   4.582 -0.5113  0.8521 -0.3954
 6892SOL    HW221077   4.915   0.738   4.625 -0.8483 -0.7739  0.8956
 6893SOL     OW21078   5.786   4.300   2.603 -0.0452  0.1426 -0.2412
 6893SOL    HW121079   5.837   4.220   2.612  0.2266  0.3623  0.2355
 6893SOL    HW221080   5.709   4.286   2.659 -2.1777 -1.4398 -3.2473
 6894SOL     OW21081   4.710   6.562   5.350 -0.1775  0.5982  0.4131
 6894SOL    HW121082   4.643   6.539   5.285  0.3170 -0.8110  0.3564
 6894SOL    HW221083   4.672   6.635   5.398 -0.6258  1.5657 -1.3328
 6895SOL     OW21084   3.508   2.047   6.638 -0.2506 -0.5330  0.4589
 6895SOL    HW121085   3.425   2.004   6.660 -0.3432 -1.1385 -0.9222
 6895SOL    HW221086   3.485   2.139   6.625 -0.8055 -0.7675 -0.3037
 6896SOL     OW21087   3.198   2.113   0.324  0.3697 -0.0964  0.4306
 6896SOL    HW121088   3.120   2.081   0.370 -0.1482 -0.7611 -0.8584
 6896SOL    HW221089   3.265   2.048   0.342  0.5003  0.2201  1.1344
 6897SOL     OW21090   1.340   5.654   1.568 -1.0954 -0.1565 -0.4262
 6897SOL    HW121091   1.332   5.560   1.582 -1.2384 -0.3592 -1.6850
 6897SOL    HW221092   1.254   5.689   1.590 -0.7953 -0.1781  0.8769
 6898SOL     OW21093   0.406   1.332   0.488 -0.3940  0.0396  0.4190
 6898SOL    HW121094   0.499   1.326   0.509  0.0668  4.6904  0.8760
 6898SOL    HW221095   0.400   1.309   0.395  1.1520 -0.4662  0.4297
 6899SOL     OW21096   1.778   6.326   2.979 -0.3934 -0.6179 -0.2385
 6899SOL    HW121097   1.841   6.260   3.007  0.0997 -0.7783 -1.6690
 6899SOL    HW221098   1.705   6.275   2.943  0.0896 -0.4109 -1.5654
 6900SOL     OW21099   4.623   5.588   3.257  0.2440  0.6599 -0.2045
 6900SOL    HW121100   4.656   5.597   3.168  1.3441  0.7643  0.1924
 6900SOL    HW221101   4.576   5.669   3.274 -0.6376  0.3240 -0.9376
 6901SOL     OW21102   2.163   5.848   3.451  0.3546  0.1026  0.1897
 6901SOL    HW121103   2.228   5.779   3.462 -0.7580 -0.9189  0.6623
 6901SOL    HW221104   2.085   5.802   3.420 -0.3356  1.1876  0.2723
 6902SOL     OW21105   0.561   6.203   5.574 -0.1431  0.2312  0.1704
 6902SOL    HW121106   0.620   6.152   5.629  0.3780  0.4447 -0.1791
 6902SOL    HW221107   0.544   6.146   5.499 -0.3757  0.1718  0.2694
 6903SOL     OW21108   2.179   0.522   0.109 -0.5676 -0.3078 -0.1879
 6903SOL    HW121109   2.257   0.487   0.152 -1.6418  0.4782  2.5533
 6903SOL    HW221110   2.116   0.450   0.111 -1.3667  0.3781  1.6982
 6904SOL     OW21111   1.314   2.936   5.322  0.6003 -0.0767 -0.0312
 6904SOL    HW121112   1.314   2.975   5.234  0.3006  0.8285  0.3580
 6904SOL    HW221113   1.396   2.967   5.361  0.8115 -0.6131 -0.0445
 6905SOL     OW21114   4.507   5.295   3.516 -0.4467  0.4073  0.2571
 6905SOL    HW121115   4.589   5.313   3.563 -1.3372  2.8682  1.0208
 6905SOL    HW221116   4.439   5.332   3.573 -2.1983 -2.0243 -0.0966
 6906SOL     OW21117   1.095   4.612   3.725  0.0116 -0.8680  0.3228
 6906SOL    HW121118   1.007   4.611   3.686  0.1567  1.6618 -0.2794
 6906SOL    HW221119   1.079   4.611   3.819 -0.6002 -1.4536  0.2233
 6907SOL     OW21120   5.176   0.708   0.428  0.1775  0.0411 -0.2274
 6907SOL    HW121121   5.101   0.693   0.372  0.8333 -1.2906 -0.8066
 6907SOL    HW221122   5.226   0.777   0.385 -0.6602  0.8787  0.1252
 6908SOL     OW21123   4.566   4.745   4.287 -1.1025 -0.4411  0.0523
 6908SOL    HW121124   4.574   4.659   4.245  1.2425 -1.6071  2.5324
 6908SOL    HW221125   4.498   4.733   4.353 -0.5756 -0.5173  0.5912
 6909SOL     OW21126   2.457   2.092   3.426  0.1047  0.4703 -0.2059
 6909SOL    HW121127   2.432   2.170   3.377  0.2775  0.8177  0.2575
 6909SOL    HW221128   2.510   2.125   3.499 -1.1549  0.0761  0.9246
 6910SOL     OW21129   0.492   0.125   0.819 -0.6194 -0.1824  0.6072
 6910SOL    HW121130   0.533   0.170   0.893  0.4597 -0.4539  0.1972
 6910SOL    HW221131   0.483   0.192   0.752  1.1628 -0.5584 -0.0728
 6911SOL     OW21132   3.867   0.777   3.786 -0.2744 -0.8335 -0.0591
 6911SOL    HW121133   3.865   0.686   3.759  0.0298 -0.5194 -1.1623
 6911SOL    HW221134   3.949   0.812   3.751 -0.3599 -0.1445  0.3884
 6912SOL     OW21135   6.719   6.470   4.984  0.3532 -0.3900 -0.6313
 6912SOL    HW121136   6.768   6.539   5.030 -0.9475 -0.1732  0.5219
 6912SOL    HW221137   6.786   6.412   4.949  1.4832  1.2900 -1.3791
 6913SOL     OW21138   2.870   3.755   3.815  0.3772 -0.0690  0.4836
 6913SOL    HW121139   2.885   3.822   3.749  0.4551 -0.7767 -0.2385
 6913SOL    HW221140   2.775   3.745   3.818  0.4078 -0.8009 -0.3410
 6914SOL     OW21141   1.740   2.019   4.851 -0.5918 -0.1839 -0.0476
 6914SOL    HW121142   1.720   2.101   4.896 -0.1554  1.3073 -2.3927
 6914SOL    HW221143   1.693   1.952   4.900 -2.7020  1.7531  0.7174
 6915SOL     OW21144   0.905   4.284   1.278 -0.4071  0.4382  0.1858
 6915SOL    HW121145   0.898   4.190   1.267 -0.3440  0.5471 -0.8806
 6915SOL    HW221146   0.816   4.313   1.299 -0.5154  0.2001  0.0513
 6916SOL     OW21147   4.097   4.253   2.749 -0.2925 -0.4182  0.1387
 6916SOL    HW121148   4.104   4.256   2.844  1.2105 -0.8113  0.0669
 6916SOL    HW221149   4.030   4.318   2.727 -2.1470 -1.7269  1.5679
 6917SOL     OW21150   6.122   3.136   3.018  0.0565 -0.1963 -0.4888
 6917SOL    HW121151   6.148   3.077   3.089 -1.4091 -1.0802 -0.6288
 6917SOL    HW221152   6.126   3.081   2.939 -1.7192 -0.2694 -0.5667
 6918SOL     OW21153   4.239   2.835   5.194  0.7317  0.2015 -0.1054
 6918SOL    HW121154   4.244   2.745   5.227  1.4392 -0.3037 -1.5002
 6918SOL    HW221155   4.176   2.878   5.252  1.0025 -0.9582  1.1036
 6919SOL     OW21156   5.908   3.261   6.032 -0.0251 -0.8242 -0.6400
 6919SOL    HW121157   5.869   3.189   6.080  0.3425 -1.4396 -1.2435
 6919SOL    HW221158   5.991   3.226   5.998  0.0245 -0.2153 -1.1835
 6920SOL     OW21159   6.639   0.975   4.383  0.2594 -0.4680  0.0660
 6920SOL    HW121160   6.648   0.896   4.330 -0.1203  0.1205 -0.8937
 6920SOL    HW221161   6.598   0.945   4.464 -0.8064 -1.1095 -0.6845
 6921SOL     OW21162   2.396   4.864   4.163  0.1489  0.5675  0.1951
 6921SOL    HW121163   2.387   4.835   4.254  0.6218 -1.3032 -0.3325
 6921SOL    HW221164   2.321   4.825   4.118 -1.1214  2.9508  0.0675
 6922SOL     OW21165   4.251   5.508   1.830 -0.2983  0.5376 -0.0311
 6922SOL    HW121166   4.171   5.474   1.869 -0.6698 -0.0730 -1.2619
 6922SOL    HW221167   4.222   5.580   1.775  0.0309  0.5063 -0.2507
 6923SOL     OW21168   2.491   0.655   4.946  0.3362  0.3037 -0.3036
 6923SOL    HW121169   2.424   0.627   5.008  0.3748  1.7100  0.4126
 6923SOL    HW221170   2.448   0.652   4.860 -1.6177  3.6485  0.3567
 6924SOL     OW21171   2.459   5.020   2.253  0.0462 -0.3851  0.0838
 6924SOL    HW121172   2.533   4.959   2.251 -0.8367 -1.5065 -0.1491
 6924SOL    HW221173   2.436   5.033   2.161  0.3250  0.4390  0.1261
 6925SOL     OW21174   0.095   3.360   4.729 -0.9565 -0.1591  0.0871
 6925SOL    HW121175   0.077   3.444   4.771 -1.4947 -0.3733  0.2987
 6925SOL    HW221176   0.048   3.365   4.646  0.0005  0.2134 -0.4405
 6926SOL     OW21177   3.847   2.460   1.118  0.0160 -0.1555  0.2387
 6926SOL    HW121178   3.860   2.378   1.069  1.6636  1.1322 -1.6415
 6926SOL    HW221179   3.784   2.509   1.066  0.1546  0.3679  0.5582
 6927SOL     OW21180   2.876   1.124   0.269 -0.1475 -0.1662  0.0224
 6927SOL    HW121181   2.910   1.140   0.181  0.8628 -0.6992  0.2984
 6927SOL    HW221182   2.896   1.032   0.286 -0.2235 -0.0378  0.8583
 6928SOL     OW21183   3.167   0.745   3.325 -0.4664  0.0956 -0.1289
 6928SOL    HW121184   3.247   0.694   3.317 -0.7890 -0.6079  0.8899
 6928SOL    HW221185   3.139   0.760   3.235  1.2177  1.0482 -0.5378
 6929SOL     OW21186   5.682   0.757   0.634 -0.0909  0.3164 -0.0814
 6929SOL    HW121187   5.718   0.679   0.677 -1.0497  0.3369  0.8045
 6929SOL    HW221188   5.693   0.827   0.698  0.6638  0.8897 -0.8301
 6930SOL     OW21189   1.849   5.347   0.551 -0.0134  0.2154 -0.3877
 6930SOL    HW121190   1.781   5.286   0.525 -0.4670  0.9279 -0.9223
 6930SOL    HW221191   1.831   5.427   0.501 -0.0088  1.1318  1.0039
 6931SOL     OW21192   4.109   4.349   2.047 -0.0132 -0.0686 -0.4010
 6931SOL    HW121193   4.185   4.349   2.104  0.8060  0.2866 -1.4466
 6931SOL    HW221194   4.125   4.277   1.985 -0.1376  0.4778 -1.0900
 6932SOL     OW21195   5.074   2.499   6.415 -0.1989 -0.2209 -0.0319
 6932SOL    HW121196   5.131   2.450   6.356 -0.0593  0.4607 -0.4734
 6932SOL    HW221197   5.104   2.590   6.408  0.3049 -0.2304  1.6558
 6933SOL     OW21198   5.150   6.099   3.818 -0.7188  0.2989 -0.5925
 6933SOL    HW121199   5.068   6.130   3.779 -0.4446  0.7787 -0.8056
 6933SOL    HW221200   5.139   6.005   3.826 -0.4996  0.0564 -2.5418
 6934SOL     OW21201   3.350   1.376   6.627  0.1123 -0.4652  0.3535
 6934SOL    HW121202   3.446   1.372   6.625  0.1693  0.4490 -1.9463
 6934SOL    HW221203   3.329   1.461   6.588 -1.6521 -0.0090  2.1037
 6935SOL     OW21204   1.056   3.398   0.267  0.2621 -0.4115  0.5774
 6935SOL    HW121205   1.039   3.310   0.301  1.6445 -0.9757 -0.0930
 6935SOL    HW221206   1.141   3.422   0.306  1.1123 -0.4290 -1.1845
 6936SOL     OW21207   1.934   3.571   0.175  0.0879 -0.4850  0.0122
 6936SOL    HW121208   1.980   3.500   0.130 -1.1045 -0.7934 -0.7497
 6936SOL    HW221209   1.941   3.547   0.268  2.2141 -0.0454  0.0262
 6937SOL     OW21210   5.141   4.542   5.642 -0.4577  0.0347 -0.0641
 6937SOL    HW121211   5.178   4.481   5.578  0.7672  1.1072 -0.4369
 6937SOL    HW221212   5.054   4.562   5.609 -1.7013 -2.9394  1.0796
 6938SOL     OW21213   4.663   2.729   4.536  0.0602 -0.0506 -0.1677
 6938SOL    HW121214   4.572   2.723   4.507 -0.3096 -1.2546  1.0977
 6938SOL    HW221215   4.666   2.673   4.614  1.8060  0.2574  0.0137
 6939SOL     OW21216   0.983   0.341   3.042 -0.0565 -0.0288  0.2158
 6939SOL    HW121217   0.960   0.310   2.954  3.2951  0.6608 -1.0264
 6939SOL    HW221218   1.002   0.261   3.091 -2.1029 -0.4288  0.4659
 6940SOL     OW21219   3.409   2.311   3.618  0.0647  0.0267 -0.0770
 6940SOL    HW121220   3.344   2.262   3.568 -1.0300  2.1027 -0.8039
 6940SOL    HW221221   3.372   2.318   3.706 -0.5138  0.8338 -0.3762
 6941SOL     OW21222   1.887   5.844   3.085 -0.7562 -0.1555 -0.7801
 6941SOL    HW121223   1.963   5.878   3.133 -0.8519 -2.2340  0.9948
 6941SOL    HW221224   1.891   5.888   3.000  0.6573  2.1006  0.3388
 6942SOL     OW21225   5.749   2.031   1.034  0.3727  0.2520  0.0345
 6942SOL    HW121226   5.656   2.052   1.021  0.3685  0.4511  0.3669
 6942SOL    HW221227   5.786   2.034   0.946 -0.4069 -2.2388 -0.4571
 6943SOL     OW21228   2.264   3.232   0.630  0.2689 -0.0453  0.3689
 6943SOL    HW121229   2.247   3.193   0.544 -3.5402  0.6107  0.6704
 6943SOL    HW221230   2.246   3.162   0.692  0.3155  0.2571  0.7236
 6944SOL     OW21231   5.601   0.868   1.125  0.2159  0.1162  0.4024
 6944SOL    HW121232   5.655   0.924   1.180  1.5167 -0.4346 -0.2633
 6944SOL    HW221233   5.649   0.863   1.042  0.7918 -2.9433  0.8251
 6945SOL     OW21234   2.959   4.435   3.372  0.1425 -0.3722 -0.2529
 6945SOL    HW121235   2.921   4.491   3.305 -1.6078 -1.0011  0.1678
 6945SOL    HW221236   2.971   4.350   3.329  1.3323 -0.1265 -0.4443
 6946SOL     OW21237   2.374   0.297   3.270  0.3153  0.3826  0.4911
 6946SOL    HW121238   2.445   0.311   3.332 -0.3473 -0.8628  1.5758
 6946SOL    HW221239   2.320   0.230   3.310  0.2603 -1.0460 -1.7966
 6947SOL     OW21240   2.644   4.045   2.352  0.3592  0.4271  0.8303
 6947SOL    HW121241   2.622   4.136   2.335 -0.3577 -0.0214 -0.8695
 6947SOL    HW221242   2.632   4.001   2.267  0.6054 -1.2581  1.6228
 6948SOL     OW21243   2.640   3.435   3.342  0.1876  0.2060  0.4519
 6948SOL    HW121244   2.597   3.438   3.428  0.0654  0.0334  0.3983
 6948SOL    HW221245   2.733   3.435   3.362  0.1684  0.8401  0.5605
 6949SOL     OW21246   5.709   4.465   0.951 -0.3156 -0.5280  0.1167
 6949SOL    HW121247   5.792   4.484   0.994 -0.0988  2.1919 -1.3302
 6949SOL    HW221248   5.723   4.489   0.860 -2.7338  0.2024 -0.1228
 6950SOL     OW21249   5.215   1.954   1.730 -0.8603  0.0793  0.0277
 6950SOL    HW121250   5.260   1.872   1.707 -0.8385  0.2454 -0.5359
 6950SOL    HW221251   5.285   2.018   1.739 -0.9747  0.3364 -0.8392
 6951SOL     OW21252   3.781   3.884   5.718  0.1476 -0.8617  0.4288
 6951SOL    HW121253   3.699   3.905   5.672  1.8872  0.9957 -2.0978
 6951SOL    HW221254   3.772   3.927   5.803 -0.1113  2.8017 -1.2407
 6952SOL     OW21255   6.168   4.359   4.173 -0.3199  0.5947  0.7322
 6952SOL    HW121256   6.161   4.265   4.191  0.2280  0.5122  0.5146
 6952SOL    HW221257   6.192   4.398   4.257  1.2857  0.3196  0.4328
 6953SOL     OW21258   6.633   0.906   3.549  0.0327 -0.4619 -0.0406
 6953SOL    HW121259   6.652   0.920   3.642 -0.3940 -2.2188  0.3502
 6953SOL    HW221260   6.562   0.968   3.530 -0.4421 -0.6397  1.0457
 6954SOL     OW21261   2.044   4.544   4.787 -0.6740  0.0901 -0.2480
 6954SOL    HW121262   2.026   4.463   4.739  0.9647 -0.2419 -0.3716
 6954SOL    HW221263   2.062   4.515   4.876 -0.1185  0.3060 -0.2841
 6955SOL     OW21264   2.359   4.383   6.154 -0.2384 -0.1183 -0.5206
 6955SOL    HW121265   2.418   4.385   6.079  0.5474 -0.4755  0.0674
 6955SOL    HW221266   2.331   4.474   6.164  0.5275  0.1350 -0.5793
 6956SOL     OW21267   0.845   1.711   0.329 -0.4597 -0.0984  0.0016
 6956SOL    HW121268   0.885   1.674   0.408  0.4569 -0.5450 -0.6645
 6956SOL    HW221269   0.802   1.791   0.360  1.9164  1.0519  0.5630
 6957SOL     OW21270   3.797   0.257   2.975  0.6134  0.1341  0.0815
 6957SOL    HW121271   3.887   0.270   2.945  1.0062 -0.4260  0.9648
 6957SOL    HW221272   3.755   0.343   2.965  1.4778  0.6058  0.4133
 6958SOL     OW21273   0.895   6.776   5.782  0.4096 -0.8094  0.1482
 6958SOL    HW121274   0.880   6.856   5.832  0.4808 -1.4654  1.2488
 6958SOL    HW221275   0.868   6.798   5.693  2.5218  1.1407 -0.0879
 6959SOL     OW21276   4.440   2.193   3.502  0.2611 -0.0247 -0.1086
 6959SOL    HW121277   4.529   2.228   3.510  0.5686 -1.0844  1.6333
 6959SOL    HW221278   4.406   2.231   3.421  2.3410  0.2867 -0.8856
 6960SOL     OW21279   5.524   2.425   5.865  0.1573  0.5751 -0.2130
 6960SOL    HW121280   5.494   2.427   5.774  0.0732  0.1378 -0.1957
 6960SOL    HW221281   5.620   2.424   5.859  0.1518  0.5473 -0.2961
 6961SOL     OW21282   3.141   6.485   3.944  0.1893 -0.3790  0.2009
 6961SOL    HW121283   3.212   6.517   4.000 -0.3932  0.8762  0.2422
 6961SOL    HW221284   3.148   6.389   3.950  1.8318 -0.2908  0.2522
 6962SOL     OW21285   4.581   3.041   4.228 -0.1933  0.2959 -0.1568
 6962SOL    HW121286   4.499   2.996   4.207  0.8980 -2.3523  0.8752
 6962SOL    HW221287   4.590   3.032   4.322  0.9349  1.2201 -0.1611
 6963SOL     OW21288   4.469   0.652   0.964  0.2996 -0.1725  0.1962
 6963SOL    HW121289   4.516   0.697   1.035 -0.9643  1.0870  0.2707
 6963SOL    HW221290   4.378   0.680   0.973 -0.8779 -3.6871  0.9662
 6964SOL     OW21291   3.663   4.561   1.046 -0.6460 -0.0215 -0.3921
 6964SOL    HW121292   3.677   4.478   1.001  0.5859  1.0362 -2.0539
 6964SOL    HW221293   3.742   4.612   1.028 -2.1516  2.2320 -1.0527
 6965SOL     OW21294   5.374   0.507   4.931  0.0863 -0.1608  0.2944
 6965SOL    HW121295   5.466   0.528   4.949 -0.1700  0.7002  0.6174
 6965SOL    HW221296   5.349   0.448   5.002  0.8568 -1.7876 -0.7143
 6966SOL     OW21297   0.548   1.150   5.376  0.1914  0.4485  0.0482
 6966SOL    HW121298   0.642   1.136   5.388  0.1062 -0.3711 -0.2148
 6966SOL    HW221299   0.514   1.158   5.465  0.3350 -0.4377  0.1893
 6967SOL     OW21300   4.438   2.737   1.287 -0.0623  0.1190 -0.0258
 6967SOL    HW121301   4.514   2.776   1.331  0.4836  0.1709 -0.9740
 6967SOL    HW221302   4.469   2.651   1.259 -0.1919  0.3322 -0.8440
 6968SOL     OW21303   2.342   2.211   1.236 -0.0414  0.0782  0.2397
 6968SOL    HW121304   2.311   2.138   1.290  0.0471  0.7888  1.2874
 6968SOL    HW221305   2.429   2.232   1.272  0.3547  0.0795 -0.6857
 6969SOL     OW21306   2.508   3.599   4.426 -0.8971  0.0865 -0.5172
 6969SOL    HW121307   2.545   3.684   4.452 -0.9612 -0.0850  0.1502
 6969SOL    HW221308   2.583   3.550   4.393 -0.3457 -0.5316  1.5241
 6970SOL     OW21309   2.706   4.705   2.612  0.2747 -0.9077 -0.0983
 6970SOL    HW121310   2.733   4.783   2.563 -1.5663 -0.3369 -0.3024
 6970SOL    HW221311   2.727   4.726   2.703 -2.2265  0.8845  0.1777
 6971SOL     OW21312   5.461   4.218   2.313  0.2263  0.2145 -0.6374
 6971SOL    HW121313   5.425   4.163   2.383 -0.0298 -1.4452 -1.9891
 6971SOL    HW221314   5.554   4.224   2.332  0.3345 -1.0775 -0.6620
 6972SOL     OW21315   3.893   6.610   1.775 -0.2980 -0.4074 -0.8264
 6972SOL    HW121316   3.977   6.564   1.775  0.8806  1.6349 -0.7457
 6972SOL    HW221317   3.891   6.656   1.859 -0.7735  0.7836 -1.4683
 6973SOL     OW21318   1.135   6.630   6.585  0.5519 -0.0349 -0.1977
 6973SOL    HW121319   1.111   6.541   6.611 -0.5966  0.1107 -0.6794
 6973SOL    HW221320   1.088   6.687   6.647  1.6900  0.2524  0.4396
 6974SOL     OW21321   1.170   5.713   4.359  0.2123  0.2821  0.3021
 6974SOL    HW121322   1.082   5.676   4.364  0.5790 -0.5978  0.3984
 6974SOL    HW221323   1.198   5.698   4.269  1.3804 -2.1318  0.9892
 6975SOL     OW21324   5.920   1.926   2.048 -0.0306 -0.0836 -0.3890
 6975SOL    HW121325   5.838   1.968   2.073  0.4441 -0.0750  1.2518
 6975SOL    HW221326   5.951   1.978   1.974  0.5673  2.6173  1.6065
 6976SOL     OW21327   3.990   4.157   0.048  0.4528  0.1185 -0.6631
 6976SOL    HW121328   3.977   4.202  -0.036 -2.1739 -0.7682 -0.8176
 6976SOL    HW221329   3.903   4.157   0.089  1.0775 -1.8958  0.8156
 6977SOL     OW21330   4.730   4.630   4.960  0.2625 -0.8333 -0.1960
 6977SOL    HW121331   4.656   4.688   4.947  1.3240  1.4190  2.5388
 6977SOL    HW221332   4.796   4.660   4.898  0.3199 -0.0055  0.2580
 6978SOL     OW21333   3.572   6.128   2.510 -0.1600 -0.2876 -0.5377
 6978SOL    HW121334   3.547   6.136   2.601 -2.0087 -0.8566 -0.9646
 6978SOL    HW221335   3.653   6.075   2.512 -0.7388 -1.1735  0.6944
 6979SOL     OW21336   0.690   5.905   2.815 -0.3003 -0.0928  0.1626
 6979SOL    HW121337   0.673   5.898   2.909  0.9179  0.7371  0.4799
 6979SOL    HW221338   0.733   5.823   2.792 -1.4117 -0.6757  0.1229
 6980SOL     OW21339   4.439   2.235   4.350 -0.1657  0.5274 -0.0991
 6980SOL    HW121340   4.424   2.240   4.256  2.0812  0.8534 -0.4833
 6980SOL    HW221341   4.482   2.150   4.363 -0.5216  0.4503  0.6539
 6981SOL     OW21342   2.896   1.287   0.519  0.8237  0.0579 -0.1583
 6981SOL    HW121343   2.872   1.235   0.442 -0.1271 -1.2122  0.9419
 6981SOL    HW221344   2.813   1.326   0.547  1.0183 -0.0621  0.6075
 6982SOL     OW21345   6.431   4.706   1.897  0.5060  0.4850  0.6017
 6982SOL    HW121346   6.479   4.705   1.979  1.1727 -0.4663  0.2231
 6982SOL    HW221347   6.469   4.634   1.846 -1.1909 -0.1881  0.2183
 6983SOL     OW21348   2.240   0.152   5.921 -0.1197  0.0557  0.1987
 6983SOL    HW121349   2.156   0.127   5.960 -0.2746 -2.9534 -1.7966
 6983SOL    HW221350   2.305   0.117   5.981 -0.3101 -0.4828  0.0903
 6984SOL     OW21351   1.534   3.611   2.436  0.3838  0.1993  0.5157
 6984SOL    HW121352   1.446   3.576   2.421  0.9535 -1.1681  0.2376
 6984SOL    HW221353   1.520   3.683   2.497 -0.9090 -0.1063  0.6209
 6985SOL     OW21354   6.585   5.686   3.261  0.1373  0.1888 -0.0164
 6985SOL    HW121355   6.521   5.664   3.194 -0.2288  2.0814 -0.3519
 6985SOL    HW221356   6.666   5.645   3.231  0.0288  1.1583 -1.7661
 6986SOL     OW21357   0.314   3.169   0.359 -0.0611  0.0383  0.0079
 6986SOL    HW121358   0.388   3.198   0.306  0.1498 -0.2941  0.1144
 6986SOL    HW221359   0.276   3.096   0.310  0.1428 -0.2785  0.3142
 6987SOL     OW21360   2.405   4.973   6.124  0.5377  0.3463 -0.4233
 6987SOL    HW121361   2.414   4.920   6.045 -0.3073 -1.2974  0.5401
 6987SOL    HW221362   2.364   5.054   6.094  1.3598  0.2646 -1.8453
 6988SOL     OW21363   1.526   4.252   2.726 -0.4595  0.1207 -0.0462
 6988SOL    HW121364   1.590   4.314   2.690 -2.1559  1.6149 -0.5978
 6988SOL    HW221365   1.580   4.183   2.765  1.4896  1.2549 -0.5897
 6989SOL     OW21366   3.935   1.076   4.387  0.0426  0.4365  0.3916
 6989SOL    HW121367   3.987   1.078   4.307 -1.3442  3.0623 -0.5755
 6989SOL    HW221368   3.995   1.105   4.456  0.0834  3.0484 -0.6428
 6990SOL     OW21369   4.609   0.116   3.260  0.0563 -0.2779  1.0455
 6990SOL    HW121370   4.530   0.066   3.238  0.5841 -0.5582 -0.3791
 6990SOL    HW221371   4.681   0.057   3.238  0.6928  0.9274 -0.3367
 6991SOL     OW21372   6.016   5.478   5.385 -0.0068 -0.1791  0.8677
 6991SOL    HW121373   5.978   5.390   5.382 -2.2630  0.7577 -1.1247
 6991SOL    HW221374   5.947   5.532   5.425  0.7718  0.9369  0.7325
 6992SOL     OW21375   5.513   3.185   1.654  0.3430 -0.1177 -0.1571
 6992SOL    HW121376   5.424   3.154   1.638  0.3974  0.7593 -2.5072
 6992SOL    HW221377   5.502   3.262   1.710 -0.4320  0.1589 -0.6715
 6993SOL     OW21378   6.408   2.695   5.467  0.6731 -0.7666  0.7485
 6993SOL    HW121379   6.425   2.683   5.373  1.9369 -0.1202  0.8659
 6993SOL    HW221380   6.314   2.713   5.472  0.8746  0.9529 -0.6117
 6994SOL     OW21381   2.288   0.027   1.141  0.4319 -0.2453  0.6597
 6994SOL    HW121382   2.214   0.079   1.109  2.5978  1.3906 -2.1911
 6994SOL    HW221383   2.341   0.088   1.192  1.1149 -0.6930  0.5019
 6995SOL     OW21384   4.359   0.022   0.309  0.3711  0.0279  0.2519
 6995SOL    HW121385   4.311   0.085   0.256 -0.0429 -1.0723 -0.7511
 6995SOL    HW221386   4.444   0.062   0.325  0.6292  0.2787 -1.5521
 6996SOL     OW21387   3.797   1.351   2.119 -0.0044 -0.2173 -0.2941
 6996SOL    HW121388   3.768   1.266   2.153 -0.2224  0.2001  0.5838
 6996SOL    HW221389   3.716   1.397   2.097 -0.0503  0.8462  1.9070
 6997SOL     OW21390   4.777   5.977   0.115  0.1581 -0.0083  0.5881
 6997SOL    HW121391   4.727   5.896   0.112  1.0039 -0.6299  2.1175
 6997SOL    HW221392   4.736   6.029   0.184  0.9614 -0.0895  1.1459
 6998SOL     OW21393   3.107   1.340   4.812  0.4047 -0.3679 -0.4050
 6998SOL    HW121394   3.129   1.381   4.729  0.4260  1.7321  0.5723
 6998SOL    HW221395   3.029   1.287   4.793 -0.0381  0.6724 -1.6175
 6999SOL     OW21396   6.190   6.021   2.342  0.2821 -0.0488  0.0748
 6999SOL    HW121397   6.119   6.072   2.301 -0.3959 -0.1993  1.0298
 6999SOL    HW221398   6.196   5.942   2.289 -0.4105 -0.1253  0.0982
 7000SOL     OW21399   0.177   4.408   6.464  0.1609  0.1427  0.8344
 7000SOL    HW121400   0.105   4.470   6.472 -0.8000 -0.9161  0.6561
 7000SOL    HW221401   0.177   4.359   6.546  0.1489 -0.4158  0.5056
 7001SOL     OW21402   4.492   6.753   2.870  0.1140  0.0431 -0.2274
 7001SOL    HW121403   4.584   6.763   2.896  0.2707  0.1301 -0.8078
 7001SOL    HW221404   4.484   6.661   2.845  0.1490  0.1353 -0.5803
 7002SOL     OW21405   0.983   1.939   5.367  0.3608  0.8347 -0.1378
 7002SOL    HW121406   0.984   2.034   5.379  0.5151  0.8064  0.0837
 7002SOL    HW221407   1.029   1.904   5.443  1.4438  0.6528 -0.8550
 7003SOL     OW21408   1.019   5.481   6.180 -0.1867  0.3986  0.1794
 7003SOL    HW121409   0.976   5.397   6.198  1.8814 -1.0161 -1.1269
 7003SOL    HW221410   0.983   5.540   6.247 -1.8452 -1.4380  1.0398
 7004SOL     OW21411   0.068   4.243   3.666 -0.3491 -0.1436 -0.6711
 7004SOL    HW121412   0.020   4.199   3.736  0.7773  0.8779  0.7951
 7004SOL    HW221413   0.114   4.172   3.621 -2.3082 -1.0046 -1.4298
 7005SOL     OW21414   0.707   1.941   0.354  0.4011 -1.0279  0.2060
 7005SOL    HW121415   0.686   1.922   0.262  1.0845 -1.3750  0.1125
 7005SOL    HW221416   0.754   2.024   0.352 -1.9095  0.3589  0.5367
 7006SOL     OW21417   4.582   2.439   2.827  0.1273 -0.9818 -0.2619
 7006SOL    HW121418   4.622   2.443   2.741 -0.9417 -0.0171 -0.7398
 7006SOL    HW221419   4.587   2.529   2.860 -1.3356 -0.9064 -0.2066
 7007SOL     OW21420   5.125   2.711   4.796  0.4441  0.2808 -0.9086
 7007SOL    HW121421   5.143   2.795   4.754  1.2730  0.2201 -0.7053
 7007SOL    HW221422   5.211   2.682   4.827 -0.1587  0.4241  1.0105
 7008SOL     OW21423   6.011   3.058   2.030  0.0051  0.1542 -0.0978
 7008SOL    HW121424   6.047   3.137   1.988 -1.8976  0.7754 -0.6313
 7008SOL    HW221425   6.087   3.000   2.039  1.7327  2.4280  1.3370
 7009SOL     OW21426   1.293   3.025   1.472  0.2130  0.2776 -0.2133
 7009SOL    HW121427   1.295   3.036   1.567 -1.4443 -1.6939  0.1238
 7009SOL    HW221428   1.206   2.991   1.454  1.4694 -2.3523 -2.0355
 7010SOL     OW21429   6.227   6.677   5.448  0.4169  0.1631  0.2130
 7010SOL    HW121430   6.233   6.608   5.381 -1.9130  0.3717 -0.2914
 7010SOL    HW221431   6.174   6.638   5.518  0.9498  0.7128  0.9380
 7011SOL     OW21432   0.891   4.584   1.264 -0.1179  0.2543 -0.0046
 7011SOL    HW121433   0.816   4.535   1.297 -0.1812  0.8701  0.7921
 7011SOL    HW221434   0.854   4.664   1.227  0.0407 -0.0092 -0.7702
 7012SOL     OW21435   4.572   6.248   3.618 -0.1567 -0.2928  0.0918
 7012SOL    HW121436   4.579   6.309   3.544 -0.9812  1.7095  1.5869
 7012SOL    HW221437   4.663   6.226   3.639  0.0757 -1.3378 -1.8166
 7013SOL     OW21438   5.693   2.179   5.227 -0.9114  0.0918  0.2033
 7013SOL    HW121439   5.768   2.236   5.248 -0.7925  0.6637 -1.5871
 7013SOL    HW221440   5.686   2.121   5.302  2.0207 -0.6947  0.0142
 7014SOL     OW21441   0.147   1.409   4.373  0.2718  0.2923  0.1151
 7014SOL    HW121442   0.156   1.504   4.364 -2.8492  0.6866 -0.0801
 7014SOL    HW221443   0.164   1.375   4.285 -2.4050  1.1977 -0.8742
 7015SOL     OW21444   6.164   5.617   2.323  0.0518  0.4820  0.6303
 7015SOL    HW121445   6.247   5.571   2.317  0.1824  0.4247  2.3982
 7015SOL    HW221446   6.175   5.695   2.269  0.7931 -0.1469 -0.1513
 7016SOL     OW21447   0.772   1.875   3.843 -0.6315 -0.0531 -0.4689
 7016SOL    HW121448   0.845   1.884   3.904 -1.0219  1.5648 -0.1917
 7016SOL    HW221449   0.720   1.954   3.856 -1.4436 -0.3018 -1.9622
 7017SOL     OW21450   4.820   1.244   6.701  0.0891  0.0710  0.0303
 7017SOL    HW121451   4.839   1.247   6.607 -2.0413  0.6354 -0.4433
 7017SOL    HW221452   4.805   1.336   6.725  1.4213  0.0293  1.1441
 7018SOL     OW21453   6.674   0.973   5.346  0.0170 -0.0109 -0.0977
 7018SOL    HW121454   6.765   0.968   5.375  0.4262  0.9809 -1.1074
 7018SOL    HW221455   6.677   0.941   5.256 -0.3524  1.3681 -0.6313
 7019SOL     OW21456   5.809   4.127   3.076 -0.8502  0.0196  0.1422
 7019SOL    HW121457   5.872   4.199   3.086 -1.1841  0.4025 -0.4709
 7019SOL    HW221458   5.852   4.052   3.116 -0.2849  0.4441  0.3405
 7020SOL     OW21459   6.740   1.066   3.924 -0.1756 -0.0940  0.1170
 7020SOL    HW121460   6.707   0.978   3.905  0.8243 -1.0135  2.3567
 7020SOL    HW221461   6.678   1.102   3.987 -0.2699  0.6177 -0.3651
 7021SOL     OW21462   1.800   3.739   4.742 -0.5736  0.0840 -0.0542
 7021SOL    HW121463   1.713   3.706   4.765 -1.1676  0.6036 -1.4490
 7021SOL    HW221464   1.795   3.756   4.648  1.3785 -0.8630 -0.3804
 7022SOL     OW21465   2.973   6.296   0.321 -0.5872 -0.0101 -0.4511
 7022SOL    HW121466   2.881   6.271   0.322 -0.2070 -1.5692  1.3926
 7022SOL    HW221467   3.017   6.229   0.373  1.4820  1.1398 -0.5925
 7023SOL     OW21468   4.977   4.471   0.072 -0.1328  0.2084  0.0239
 7023SOL    HW121469   4.934   4.494   0.153 -0.1496 -0.0956  0.1014
 7023SOL    HW221470   4.920   4.406   0.031 -1.5680  2.3354 -1.5748
 7024SOL     OW21471   3.156   4.150   0.640  0.0808 -0.4143  0.4388
 7024SOL    HW121472   3.198   4.084   0.695 -0.2726 -1.1326 -0.1370
 7024SOL    HW221473   3.129   4.219   0.701  1.8370 -0.0564  0.8534
 7025SOL     OW21474   1.601   6.141   2.212 -0.8030 -0.0547  0.0402
 7025SOL    HW121475   1.658   6.208   2.174  0.3048  0.3388  2.2004
 7025SOL    HW221476   1.597   6.072   2.146 -1.1309  1.6514 -1.8246
 7026SOL     OW21477   5.546   6.583   6.642  0.0951 -0.6016  0.2092
 7026SOL    HW121478   5.614   6.642   6.610 -1.7755  1.3464 -0.4637
 7026SOL    HW221479   5.540   6.603   6.735  0.4149 -0.7461  0.2614
 7027SOL     OW21480   0.300   4.730   0.172 -0.4407  0.3040  0.2381
 7027SOL    HW121481   0.350   4.811   0.183 -1.0862  0.7812 -0.2017
 7027SOL    HW221482   0.252   4.720   0.254 -0.9629  0.8022 -0.0020
 7028SOL     OW21483   5.498   2.889   4.254 -0.4322  0.1824 -0.3123
 7028SOL    HW121484   5.588   2.887   4.222 -0.1171  1.2558  0.4389
 7028SOL    HW221485   5.492   2.971   4.303 -1.3082 -0.6915  1.1122
 7029SOL     OW21486   2.260   0.383   5.114 -0.1049 -0.1335  0.6086
 7029SOL    HW121487   2.273   0.440   5.190 -2.1683  0.5682  0.5050
 7029SOL    HW221488   2.215   0.438   5.050  0.6435 -1.0171 -0.7209
 7030SOL     OW21489   1.644   6.276   3.377  0.9978 -0.1647  0.2570
 7030SOL    HW121490   1.619   6.299   3.466 -3.3194 -0.4694 -0.6605
 7030SOL    HW221491   1.655   6.181   3.378 -0.8389 -0.4072  0.1853
 7031SOL     OW21492   3.970   1.149   5.337 -0.0178  0.2070 -0.0143
 7031SOL    HW121493   4.033   1.080   5.355 -0.4034 -0.4851 -1.2277
 7031SOL    HW221494   4.002   1.224   5.387  1.7200 -0.1463 -0.5315
 7032SOL     OW21495   1.998   0.179   1.159 -0.0036 -0.5930  0.0299
 7032SOL    HW121496   1.998   0.223   1.244 -0.6984  1.4711 -1.0029
 7032SOL    HW221497   1.906   0.161   1.140  0.0858 -0.3866 -0.6192
 7033SOL     OW21498   4.238   0.066   2.897 -0.4067  0.2640  0.0862
 7033SOL    HW121499   4.331   0.044   2.886 -0.0140  2.1734 -0.7073
 7033SOL    HW221500   4.195  -0.019   2.904  1.4543 -0.6709  1.0638
 7034SOL     OW21501   6.675   4.890   4.310 -0.5038  0.0754 -0.3809
 7034SOL    HW121502   6.756   4.937   4.287  0.3125 -1.2850 -0.4134
 7034SOL    HW221503   6.680   4.879   4.405  0.1377 -1.3266 -0.5470
 7035SOL     OW21504   3.748   2.591   5.790 -0.0554 -0.1756  0.5754
 7035SOL    HW121505   3.739   2.618   5.699 -1.2278  2.2408  1.2970
 7035SOL    HW221506   3.842   2.580   5.803  0.1604 -0.1813 -0.8284
 7036SOL     OW21507   0.194   3.190   3.910 -0.2027 -0.0297 -0.0024
 7036SOL    HW121508   0.151   3.274   3.930 -1.5135 -0.2464 -1.6776
 7036SOL    HW221509   0.132   3.124   3.942 -0.1761 -0.3496 -0.6015
 7037SOL     OW21510   6.432   3.201   5.731  0.3481 -0.2737  0.6747
 7037SOL    HW121511   6.447   3.117   5.688  0.7813 -0.1974  0.6734
 7037SOL    HW221512   6.504   3.208   5.794  1.1773  0.7731 -0.3489
 7038SOL     OW21513   6.139   0.779   6.210  0.0623  0.0337 -0.5433
 7038SOL    HW121514   6.115   0.808   6.298  2.8917 -1.9287  1.0518
 7038SOL    HW221515   6.057   0.746   6.172 -0.9596 -0.5128  1.9742
 7039SOL     OW21516   4.608   0.423   5.851 -0.0126 -0.0997  0.3229
 7039SOL    HW121517   4.679   0.361   5.835  0.5917  0.3505  1.2181
 7039SOL    HW221518   4.641   0.506   5.817 -1.2083 -0.4122 -1.8182
 7040SOL     OW21519   5.069   3.449   5.071  0.0283  0.1609  0.3615
 7040SOL    HW121520   5.042   3.379   5.131  1.5525 -0.7373  0.0399
 7040SOL    HW221521   5.131   3.502   5.121  0.5450 -0.0093 -0.0830
 7041SOL     OW21522   4.932   4.702   2.860 -0.1481  0.1109  0.3012
 7041SOL    HW121523   4.987   4.672   2.932  1.3928  0.4133 -0.6983
 7041SOL    HW221524   4.893   4.783   2.892  0.6850  0.3560  0.7478
 7042SOL     OW21525   0.298   1.702   5.171  0.4417  0.3978 -0.3473
 7042SOL    HW121526   0.308   1.649   5.092 -1.0053  0.9792 -0.9773
 7042SOL    HW221527   0.204   1.722   5.174  0.0040 -1.5523  2.8403
 7043SOL     OW21528   1.281   5.651   6.763 -0.2102  0.0233  0.2940
 7043SOL    HW121529   1.232   5.637   6.681 -0.9840  0.6994  0.6241
 7043SOL    HW221530   1.217   5.630   6.831 -0.7122  2.7885  0.7764
 7044SOL     OW21531   4.022   3.304   1.227 -0.4329  0.1034  0.5437
 7044SOL    HW121532   4.015   3.365   1.301  0.6427 -0.5053  1.1765
 7044SOL    HW221533   4.068   3.228   1.263 -0.0307 -0.2730 -0.7090
 7045SOL     OW21534   6.338   5.342   6.562  0.5195 -0.3825  0.4590
 7045SOL    HW121535   6.350   5.387   6.646  0.2225 -0.9982  0.8416
 7045SOL    HW221536   6.427   5.318   6.536  0.7439  0.9339 -0.0508
 7046SOL     OW21537   5.101   0.314   2.090  0.7920 -0.4457  0.2305
 7046SOL    HW121538   5.076   0.385   2.031  2.0719 -0.7807 -0.7567
 7046SOL    HW221539   5.196   0.320   2.097  0.8619 -1.6318  0.6806
 7047SOL     OW21540   2.115   6.131   6.555 -0.7016 -0.3407  0.3861
 7047SOL    HW121541   2.028   6.091   6.552  0.0218 -1.9670 -0.4359
 7047SOL    HW221542   2.170   6.064   6.597  0.3026  0.3350  0.1777
 7048SOL     OW21543   3.528   5.040   4.811 -0.0301 -0.2944 -0.1049
 7048SOL    HW121544   3.502   5.018   4.722  0.1999  2.2150 -0.8776
 7048SOL    HW221545   3.624   5.046   4.808 -0.1226  2.9707 -0.6580
 7049SOL     OW21546   6.748   5.509   3.529 -0.0869 -0.0053 -0.1432
 7049SOL    HW121547   6.799   5.585   3.502 -0.1122  0.5563  1.3114
 7049SOL    HW221548   6.780   5.437   3.473  2.1666  0.3650  0.5826
 7050SOL     OW21549   3.963   3.649   6.350 -0.1457  0.0814 -0.3530
 7050SOL    HW121550   3.915   3.656   6.267 -0.9206 -1.2152 -0.0528
 7050SOL    HW221551   3.974   3.739   6.380 -1.4699  0.4746 -0.9789
 7051SOL     OW21552   5.922   1.182   1.037 -0.1219  0.3755 -0.3915
 7051SOL    HW121553   5.936   1.254   0.974 -0.0750  1.3395  0.6828
 7051SOL    HW221554   6.009   1.165   1.073 -0.3389  0.6464  0.2659
 7052SOL     OW21555   1.656   3.927   6.050 -0.7704  0.4924  0.2500
 7052SOL    HW121556   1.628   3.911   6.140 -1.6894  2.2727  0.3118
 7052SOL    HW221557   1.711   4.005   6.055  0.1820 -0.0966 -0.5841
 7053SOL     OW21558   4.088   4.377   3.004 -0.6339  0.0576 -0.3612
 7053SOL    HW121559   4.066   4.454   2.951 -0.1316  1.1700  1.0117
 7053SOL    HW221560   4.128   4.412   3.083 -1.1832 -1.5742  0.6990
 7054SOL     OW21561   4.619   1.181   3.079  0.4170 -0.3560  0.2680
 7054SOL    HW121562   4.565   1.109   3.111  0.2409 -0.6159 -0.6050
 7054SOL    HW221563   4.557   1.251   3.059  0.3843 -0.6528 -0.7285
 7055SOL     OW21564   4.060   6.014   1.608  0.6088  0.0523 -0.1407
 7055SOL    HW121565   3.978   6.032   1.562  0.3577 -2.9101 -1.0746
 7055SOL    HW221566   4.128   6.055   1.555  0.0218 -0.5953 -1.4272
 7056SOL     OW21567   0.430   3.376   1.926 -0.5375  0.1151  0.0858
 7056SOL    HW121568   0.489   3.419   1.987  0.4070 -0.3003 -0.5175
 7056SOL    HW221569   0.455   3.408   1.840 -1.1784 -0.0817 -0.1849
 7057SOL     OW21570   2.354   4.453   4.907  0.0949  0.5195 -0.1176
 7057SOL    HW121571   2.296   4.389   4.865 -0.9920  1.7170 -0.4934
 7057SOL    HW221572   2.420   4.474   4.841 -0.1963  0.6035 -0.3807
 7058SOL     OW21573   3.829   6.213   2.769  0.4272  0.4111  0.2627
 7058SOL    HW121574   3.877   6.163   2.702  0.1528 -0.7796  0.9216
 7058SOL    HW221575   3.841   6.304   2.744 -0.0309 -0.0119 -1.6711
 7059SOL     OW21576   0.290   4.705   1.562 -0.2792  0.0693 -0.1723
 7059SOL    HW121577   0.207   4.685   1.517  0.0927 -0.1890 -0.7471
 7059SOL    HW221578   0.283   4.798   1.585 -0.6557  0.0909 -0.3695
 7060SOL     OW21579   3.176   4.699   2.119 -0.7260  0.1700  0.0622
 7060SOL    HW121580   3.201   4.715   2.028  0.1713  1.7824  0.5594
 7060SOL    HW221581   3.241   4.637   2.151 -0.0239  0.8993  0.0698
 7061SOL     OW21582   4.406   3.201   3.456  0.4984 -0.5937  0.5436
 7061SOL    HW121583   4.313   3.208   3.433  0.5322  0.1460  0.6131
 7061SOL    HW221584   4.437   3.292   3.459  1.1168 -0.8133  0.9580
 7062SOL     OW21585   3.918   5.074   4.518 -0.7435 -0.1461 -0.0457
 7062SOL    HW121586   3.996   5.070   4.463 -0.7136  1.1967 -0.1361
 7062SOL    HW221587   3.879   5.159   4.498 -0.9061  0.2497  1.7634
 7063SOL     OW21588   2.677   3.990   6.538 -0.6126 -0.1495 -0.6612
 7063SOL    HW121589   2.618   3.927   6.497 -1.4661 -0.1675  0.5381
 7063SOL    HW221590   2.635   4.012   6.621 -0.6446  2.4799 -1.2915
 7064SOL     OW21591   2.861   0.614   5.676  0.4510 -0.2973  0.3310
 7064SOL    HW121592   2.828   0.534   5.636 -1.7880  0.4254  0.5622
 7064SOL    HW221593   2.907   0.660   5.606  0.1473 -0.9441 -0.3003
 7065SOL     OW21594   5.366   2.989   0.141  0.4146 -0.7270  0.0669
 7065SOL    HW121595   5.371   3.030   0.054 -1.6455 -2.1792 -0.8130
 7065SOL    HW221596   5.436   2.924   0.141  1.1978  0.1001 -0.0202
 7066SOL     OW21597   3.239   1.294   2.628  0.1248 -0.3350  0.0168
 7066SOL    HW121598   3.276   1.342   2.703  1.8817 -0.9513 -0.4086
 7066SOL    HW221599   3.227   1.361   2.561  0.4844 -0.1220  0.1611
 7067SOL     OW21600   5.461   5.083   6.700 -0.2939 -0.0981 -0.8841
 7067SOL    HW121601   5.428   4.998   6.729  0.3416 -0.2314 -0.5376
 7067SOL    HW221602   5.484   5.069   6.608  3.1268 -1.3524  0.0244
 7068SOL     OW21603   1.790   4.542   2.914  0.7343 -0.1956 -0.2640
 7068SOL    HW121604   1.729   4.613   2.892  1.3692  0.0725 -1.2386
 7068SOL    HW221605   1.740   4.485   2.973 -0.0934  0.5785 -0.1864
 7069SOL     OW21606   2.305   2.239   4.137 -0.0003 -0.2643  0.2489
 7069SOL    HW121607   2.364   2.215   4.208  0.1459 -0.7590 -0.0344
 7069SOL    HW221608   2.237   2.292   4.179  0.2910 -0.2395  0.6896
 7070SOL     OW21609   5.820   2.359   4.642 -0.9369  0.0956 -0.5789
 7070SOL    HW121610   5.881   2.304   4.592  1.7453  0.2885  2.2022
 7070SOL    HW221611   5.748   2.300   4.665  1.6969 -2.4270  2.0837
 7071SOL     OW21612   1.763   5.824   2.580  0.1982 -0.0763  0.2419
 7071SOL    HW121613   1.802   5.908   2.559 -1.0062  0.2371 -0.8708
 7071SOL    HW221614   1.831   5.777   2.629  0.8862  1.5319  0.9097
 7072SOL     OW21615   3.062   4.894   2.987  0.2338  0.1284 -0.0612
 7072SOL    HW121616   3.019   4.884   2.902  1.1221  1.6032 -0.7004
 7072SOL    HW221617   3.000   4.945   3.039 -0.1734 -0.5113  0.1001
 7073SOL     OW21618   4.219   1.399   2.490  0.0698 -0.2837  0.0675
 7073SOL    HW121619   4.143   1.378   2.437  0.3286 -0.8821 -0.0759
 7073SOL    HW221620   4.204   1.353   2.573  0.0715 -0.0549  0.1946
 7074SOL     OW21621   1.977   4.019   1.353  0.0993  0.0592 -0.3814
 7074SOL    HW121622   2.032   3.989   1.426  1.1244  1.0423 -0.7245
 7074SOL    HW221623   2.011   3.971   1.277 -0.9638 -0.9594 -0.2419
 7075SOL     OW21624   5.417   5.233   3.970 -0.0930  0.3649 -0.3234
 7075SOL    HW121625   5.459   5.313   4.001 -0.8728  0.3251  0.9040
 7075SOL    HW221626   5.488   5.180   3.935  0.4586  1.5080 -0.9813
 7076SOL     OW21627   6.591   2.991   0.382 -0.7627  0.3278 -0.0284
 7076SOL    HW121628   6.518   3.052   0.389 -1.9366 -1.2723  3.4487
 7076SOL    HW221629   6.644   3.007   0.460  0.9841 -0.6110 -0.9476
 7077SOL     OW21630   1.254   6.313   5.713  0.4344 -0.1844  0.2484
 7077SOL    HW121631   1.188   6.251   5.745 -1.0092  1.3044  0.3548
 7077SOL    HW221632   1.313   6.324   5.787 -0.5404  0.1603  1.0104
 7078SOL     OW21633   0.571   1.343   1.669 -0.3084 -0.0951  0.1021
 7078SOL    HW121634   0.637   1.366   1.735  0.5961 -1.2461 -0.3725
 7078SOL    HW221635   0.525   1.267   1.706  0.2334 -0.7767 -0.6012
 7079SOL     OW21636   3.961   1.858   0.603  0.4518  0.0378  0.0402
 7079SOL    HW121637   4.046   1.896   0.580  0.1670  1.1792  0.8138
 7079SOL    HW221638   3.909   1.932   0.633 -1.0666 -0.5182 -1.0655
 7080SOL     OW21639   0.097   0.143   2.207 -0.2897  0.3154  0.1571
 7080SOL    HW121640   0.044   0.158   2.128  0.3746 -0.1999 -0.3980
 7080SOL    HW221641   0.143   0.061   2.189 -2.5935 -1.6469  2.4202
 7081SOL     OW21642   6.472   2.129   3.866  0.3583  0.5967  0.2351
 7081SOL    HW121643   6.557   2.171   3.879  1.1789 -0.7824 -0.4191
 7081SOL    HW221644   6.456   2.082   3.948  1.0597 -0.4991 -0.2266
 7082SOL     OW21645   1.417   5.153   5.163  0.5570  0.3253 -0.4782
 7082SOL    HW121646   1.369   5.111   5.092  1.7777 -0.9254 -0.6015
 7082SOL    HW221647   1.473   5.084   5.198  1.3937  1.4281  0.4376
 7083SOL     OW21648   1.246   0.379   2.816  0.0058 -0.2852  0.1679
 7083SOL    HW121649   1.253   0.397   2.723  1.1041  0.6332  0.4030
 7083SOL    HW221650   1.229   0.285   2.821  0.7045 -0.4868 -0.9358
 7084SOL     OW21651   5.443   2.473   5.592 -0.3040 -0.3254  0.3968
 7084SOL    HW121652   5.518   2.426   5.555 -0.1488 -2.0124  2.6644
 7084SOL    HW221653   5.449   2.561   5.554  0.3742 -1.5823 -2.7082
 7085SOL     OW21654   1.319   1.976   1.292  0.1855 -0.0761 -0.0754
 7085SOL    HW121655   1.392   1.916   1.282 -0.3510 -0.5989 -0.9865
 7085SOL    HW221656   1.270   1.968   1.210 -1.0560  0.0423  0.6346
 7086SOL     OW21657   2.860   2.737   2.965 -0.2598 -0.1114 -0.0433
 7086SOL    HW121658   2.857   2.693   2.880 -0.4100  2.4705 -1.4539
 7086SOL    HW221659   2.769   2.763   2.981 -0.0582  0.3109  0.4282
 7087SOL     OW21660   6.148   4.204   1.091  0.1025  0.3007 -0.0120
 7087SOL    HW121661   6.053   4.215   1.082 -0.0354 -0.6883  0.1537
 7087SOL    HW221662   6.163   4.207   1.185 -0.4629 -4.3943  0.4740
 7088SOL     OW21663   3.428   5.053   6.309  0.0489 -0.0177  0.9864
 7088SOL    HW121664   3.469   4.984   6.361  0.7900  0.8640  1.6070
 7088SOL    HW221665   3.352   5.011   6.269  0.7691 -1.3234  0.9317
 7089SOL     OW21666   3.322   6.107   5.799 -0.4388 -0.3685 -0.0266
 7089SOL    HW121667   3.296   6.059   5.877 -0.0365  0.6042  0.7164
 7089SOL    HW221668   3.369   6.183   5.831  0.8755 -0.6177 -1.2565
 7090SOL     OW21669   5.536   4.104   5.191 -0.1523  0.0165 -0.0431
 7090SOL    HW121670   5.547   4.034   5.255 -0.3354  1.0707  1.1732
 7090SOL    HW221671   5.609   4.091   5.130 -0.2278 -1.2669  0.1069
 7091SOL     OW21672   6.486   2.777   4.555  0.2324 -0.0312  0.2358
 7091SOL    HW121673   6.395   2.808   4.557  0.6322  1.3611 -0.9265
 7091SOL    HW221674   6.498   2.743   4.467  0.6426 -0.9256  0.6239
 7092SOL     OW21675   6.543   3.595   0.763  0.3653  0.2107  0.6181
 7092SOL    HW121676   6.482   3.550   0.823  1.2730 -0.7047  0.8904
 7092SOL    HW221677   6.615   3.533   0.752  1.2868  1.3016  0.3564
 7093SOL     OW21678   2.891   1.509   2.760 -0.4882  0.6611  0.2557
 7093SOL    HW121679   2.947   1.581   2.788  0.7359 -0.1415 -0.0381
 7093SOL    HW221680   2.821   1.551   2.710  0.7788  1.5789 -0.8234
 7094SOL     OW21681   2.222   3.999   6.622 -0.2175 -0.4352  0.3002
 7094SOL    HW121682   2.212   4.003   6.527  0.8071 -1.5337  0.1225
 7094SOL    HW221683   2.139   4.031   6.657 -0.8968 -0.7781 -0.9651
 7095SOL     OW21684   4.268   2.294   6.779  0.3682 -0.8391 -0.0258
 7095SOL    HW121685   4.188   2.296   6.726 -0.8708 -0.5785  1.7793
 7095SOL    HW221686   4.257   2.365   6.842  2.7474  0.2184 -0.6891
 7096SOL     OW21687   4.820   2.460   5.452 -0.3443  0.0208 -0.1270
 7096SOL    HW121688   4.805   2.369   5.477 -1.3922  0.1839 -0.1284
 7096SOL    HW221689   4.911   2.462   5.421 -0.3916 -1.0767 -0.3662
 7097SOL     OW21690   2.276   2.483   0.916 -0.4572  0.5602  0.0272
 7097SOL    HW121691   2.249   2.430   0.841  0.8402 -0.7550  0.4445
 7097SOL    HW221692   2.314   2.562   0.878 -1.4300  0.7286 -0.6354
 7098SOL     OW21693   6.164   0.826   5.880  0.2425  0.3249 -0.2545
 7098SOL    HW121694   6.217   0.858   5.953  0.3509  0.0743 -0.2209
 7098SOL    HW221695   6.228   0.807   5.811  0.1967  0.0267 -0.2158
 7099SOL     OW21696   5.180   0.676   5.542 -0.0345  0.0057 -0.0709
 7099SOL    HW121697   5.212   0.660   5.453  1.3723  1.8741  0.0317
 7099SOL    HW221698   5.242   0.740   5.578  0.3750 -1.8482  2.8161
 7100SOL     OW21699   4.042   0.383   6.721  0.6677 -0.2547  0.1205
 7100SOL    HW121700   4.100   0.308   6.730  0.8726 -0.6242 -3.1695
 7100SOL    HW221701   3.956   0.344   6.704  0.3507  0.2900  0.4474
 7101SOL     OW21702   1.042   3.132   1.064  0.2332 -0.2767  0.7208
 7101SOL    HW121703   1.053   3.184   1.143  1.8362 -2.3498  1.9608
 7101SOL    HW221704   0.969   3.073   1.083 -2.1638  1.8915 -0.9976
 7102SOL     OW21705   1.843   5.117   5.183 -0.1899  0.4811 -0.6937
 7102SOL    HW121706   1.930   5.111   5.145 -0.4638 -0.8952 -1.1971
 7102SOL    HW221707   1.855   5.164   5.265  1.1801 -0.4242 -0.3373
 7103SOL     OW21708   1.971   0.875   5.490 -0.1773 -0.1399 -0.1571
 7103SOL    HW121709   1.958   0.909   5.401  0.4222 -0.1108 -0.2380
 7103SOL    HW221710   2.064   0.851   5.493  0.9677  3.6257  1.7079
 7104SOL     OW21711   4.171   3.584   3.760  0.0613 -0.3691 -0.1427
 7104SOL    HW121712   4.260   3.552   3.776  0.3291  0.6896  0.5324
 7104SOL    HW221713   4.146   3.542   3.678  0.5093 -2.0590  0.5361
 7105SOL     OW21714   5.210   3.614   3.174 -0.0021 -0.5420  0.0377
 7105SOL    HW121715   5.210   3.601   3.269  0.7764  1.2565  0.3324
 7105SOL    HW221716   5.294   3.577   3.145 -0.3369 -1.2896  0.0025
 7106SOL     OW21717   0.106   4.428   3.004  0.3555  0.1723  0.1662
 7106SOL    HW121718   0.026   4.434   3.056  0.1308 -0.3055 -0.1264
 7106SOL    HW221719   0.121   4.518   2.974 -0.5175  0.1255 -0.4464
 7107SOL     OW21720   5.548   3.778   4.435  0.0189 -0.1887  0.8016
 7107SOL    HW121721   5.570   3.830   4.513 -3.0938  1.4628  0.7258
 7107SOL    HW221722   5.588   3.826   4.363 -0.4102  0.5298  1.0241
 7108SOL     OW21723   1.106   3.656   0.528 -0.1157 -0.2515  0.2932
 7108SOL    HW121724   1.183   3.664   0.472 -0.2917  1.4775  0.2324
 7108SOL    HW221725   1.142   3.650   0.617  0.1224  0.0588  0.2222
 7109SOL     OW21726   4.446   5.970   4.261 -0.1173 -0.1865  0.3352
 7109SOL    HW121727   4.433   6.060   4.230  4.0022  0.6688  0.6008
 7109SOL    HW221728   4.437   5.916   4.183 -1.3307  0.5684 -0.0794
 7110SOL     OW21729   4.706   1.070   2.693  0.2780 -0.2461 -0.0947
 7110SOL    HW121730   4.725   1.117   2.612  1.3361 -1.4215 -0.5620
 7110SOL    HW221731   4.621   1.029   2.677  0.0397  0.2931 -0.2398
 7111SOL     OW21732   4.154   1.387   2.783  0.2885 -0.1045  0.3238
 7111SOL    HW121733   4.152   1.314   2.845  0.0640  0.3119  0.8197
 7111SOL    HW221734   4.186   1.461   2.835 -0.8494  0.4908  0.2105
 7112SOL     OW21735   5.620   5.983   3.024  0.3484  0.4042  0.4748
 7112SOL    HW121736   5.531   5.980   3.060 -0.0522  0.3344 -0.4961
 7112SOL    HW221737   5.611   5.948   2.935  1.5095 -0.4481  0.6803
 7113SOL     OW21738   4.330   1.368   0.956  0.3528 -0.0500  0.3436
 7113SOL    HW121739   4.401   1.339   0.899 -0.3582 -0.2008 -0.4889
 7113SOL    HW221740   4.295   1.445   0.913 -0.7283 -0.6415  0.1367
 7114SOL     OW21741   4.441   1.470   0.427 -0.3870  0.2222 -0.0374
 7114SOL    HW121742   4.473   1.455   0.338  0.8642 -1.8547  0.7016
 7114SOL    HW221743   4.367   1.409   0.436 -0.2003  0.0672  0.4865
 7115SOL     OW21744   1.458   6.441   2.136  0.1452 -0.6253  0.1779
 7115SOL    HW121745   1.549   6.469   2.147  0.1299 -0.6573  0.3784
 7115SOL    HW221746   1.461   6.380   2.062  0.1817 -0.1124 -0.2530
 7116SOL     OW21747   2.716   3.222   3.111 -0.1228 -0.0041 -0.0578
 7116SOL    HW121748   2.762   3.280   3.050  1.6255 -1.8756 -0.6210
 7116SOL    HW221749   2.692   3.280   3.184  1.3498  1.4852 -0.6705
 7117SOL     OW21750   6.516   4.714   2.878  0.9050  0.1314  0.1473
 7117SOL    HW121751   6.576   4.642   2.860  0.8993  0.0081  0.6210
 7117SOL    HW221752   6.429   4.675   2.871  0.9057 -0.6273  3.2234
 7118SOL     OW21753   4.718   2.682   3.843  0.4818  0.1951 -0.1395
 7118SOL    HW121754   4.652   2.690   3.911  0.6849  2.9379 -0.1296
 7118SOL    HW221755   4.802   2.690   3.889  0.8017 -1.5816 -0.3429
 7119SOL     OW21756   0.101   2.491   5.320 -0.0170 -0.0126  0.8261
 7119SOL    HW121757   0.143   2.418   5.365 -1.6176 -1.2431  0.4152
 7119SOL    HW221758   0.025   2.513   5.375  0.0358  0.8616  0.5668
 7120SOL     OW21759   4.004   5.511   3.765 -0.4921 -0.0193 -0.0203
 7120SOL    HW121760   4.024   5.571   3.693  0.7798 -0.7602 -0.3060
 7120SOL    HW221761   3.979   5.429   3.722  2.0210 -1.0334  0.3284
 7121SOL     OW21762   6.376   3.784   1.120  0.1468 -0.1027 -0.0891
 7121SOL    HW121763   6.404   3.700   1.083  0.5593 -0.0997  0.2042
 7121SOL    HW221764   6.356   3.838   1.044 -0.3230 -0.5327 -0.2772
 7122SOL     OW21765   4.378   6.665   4.860  0.1857 -0.6526 -0.7071
 7122SOL    HW121766   4.358   6.580   4.822  0.0949 -2.2005  2.5186
 7122SOL    HW221767   4.457   6.694   4.815  0.1763 -2.3919 -1.9207
 7123SOL     OW21768   4.766   1.396   3.667 -0.3248  0.4748  0.2270
 7123SOL    HW121769   4.744   1.309   3.633  0.6789  0.7805 -1.2894
 7123SOL    HW221770   4.699   1.413   3.734 -1.3928 -0.8510 -0.4552
 7124SOL     OW21771   4.301   0.837   3.087  0.1330 -0.1385 -0.1587
 7124SOL    HW121772   4.287   0.857   2.994 -0.9733  0.4168  0.1162
 7124SOL    HW221773   4.301   0.741   3.091  0.9184 -0.1798 -0.8254
 7125SOL     OW21774   2.819   4.874   6.639 -0.1899  0.1562  0.2973
 7125SOL    HW121775   2.772   4.919   6.708 -1.1757  0.2866 -0.4332
 7125SOL    HW221776   2.778   4.787   6.635 -1.8225  0.9389 -1.6919
 7126SOL     OW21777   5.558   1.279   0.613  0.6086  0.3918 -0.2419
 7126SOL    HW121778   5.586   1.366   0.640  1.2565  0.3363 -0.6909
 7126SOL    HW221779   5.581   1.223   0.687 -1.0588  0.7967  0.6068
 7127SOL     OW21780   1.169   2.152   0.131 -0.0985  0.0537 -0.5864
 7127SOL    HW121781   1.113   2.213   0.082 -0.5414  0.2191  0.1134
 7127SOL    HW221782   1.131   2.066   0.114  0.6699 -0.0692 -1.7706
 7128SOL     OW21783   6.609   6.390   3.590  0.0348  0.3881  0.0353
 7128SOL    HW121784   6.622   6.453   3.519 -1.5177 -1.3785 -1.9238
 7128SOL    HW221785   6.680   6.327   3.579  1.0872  1.2385  1.4865
 7129SOL     OW21786   4.838   2.471   6.745 -0.4798  0.4108  0.1319
 7129SOL    HW121787   4.764   2.528   6.763 -1.2484 -0.2807 -0.7458
 7129SOL    HW221788   4.826   2.397   6.805 -2.0401 -1.0122 -1.8073
 7130SOL     OW21789   5.848   6.692   2.437  0.7341 -0.3436 -0.5798
 7130SOL    HW121790   5.935   6.682   2.397  0.1702 -0.8204 -1.7098
 7130SOL    HW221791   5.805   6.608   2.421  0.2339 -0.2919  0.4242
 7131SOL     OW21792   4.328   1.298   5.503  0.1811  0.6547  0.2596
 7131SOL    HW121793   4.401   1.265   5.556  1.1453  1.2913 -0.6206
 7131SOL    HW221794   4.369   1.324   5.420 -1.2217  0.0201 -0.6732
 7132SOL     OW21795   0.352   3.918   4.750  0.0137  0.1348  0.6421
 7132SOL    HW121796   0.435   3.966   4.745 -0.0862  0.4481  1.6747
 7132SOL    HW221797   0.353   3.877   4.837 -2.0730  2.3975  1.8653
 7133SOL     OW21798   0.898   0.972   4.378  0.6672  0.5438 -0.0308
 7133SOL    HW121799   0.859   0.884   4.372 -0.9196  1.2097  0.0512
 7133SOL    HW221800   0.892   0.994   4.471 -0.3522  1.3441 -0.2787
 7134SOL     OW21801   6.318   5.884   3.593 -0.1257 -0.4473  0.7703
 7134SOL    HW121802   6.349   5.958   3.542 -0.5667 -0.8044 -0.0323
 7134SOL    HW221803   6.315   5.917   3.683  0.2834  0.3123  0.5157
 7135SOL     OW21804   0.265   1.130   4.549  0.6267  0.8702 -0.4738
 7135SOL    HW121805   0.224   1.214   4.569 -0.4559  0.1202  0.5373
 7135SOL    HW221806   0.295   1.097   4.633 -0.7361 -0.6611 -0.5373
 7136SOL     OW21807   6.318   5.383   3.793 -0.0336 -0.5517 -0.4453
 7136SOL    HW121808   6.264   5.459   3.770 -1.9570 -1.4977  0.6632
 7136SOL    HW221809   6.380   5.417   3.857  0.0240  0.3568 -0.9601
 7137SOL     OW21810   0.142   4.117   5.717  0.3805 -0.5187  0.0779
 7137SOL    HW121811   0.052   4.122   5.685  0.2057 -0.4207  0.5809
 7137SOL    HW221812   0.182   4.200   5.691  1.0254 -1.4556 -2.1963
 7138SOL     OW21813   3.298   1.851   6.349  0.0260 -0.6151  0.0810
 7138SOL    HW121814   3.267   1.940   6.335 -1.2583 -0.8905  0.9780
 7138SOL    HW221815   3.352   1.831   6.273 -0.7176  0.4783 -0.7526
 7139SOL     OW21816   2.568   5.719   6.562 -0.0628  0.0298 -0.4188
 7139SOL    HW121817   2.492   5.701   6.508 -2.2541  1.2926  2.0022
 7139SOL    HW221818   2.642   5.682   6.514 -2.1714 -1.2465 -2.8906
 7140SOL     OW21819   5.366   4.910   1.522 -0.0086  0.8691  0.7288
 7140SOL    HW121820   5.276   4.879   1.515  0.0292  1.1470 -2.0187
 7140SOL    HW221821   5.358   5.000   1.554 -0.4638  0.0487  3.1214
 7141SOL     OW21822   3.374   6.135   0.831  0.3215 -0.1368 -0.3977
 7141SOL    HW121823   3.395   6.222   0.796  2.0642 -0.7172 -0.8636
 7141SOL    HW221824   3.334   6.153   0.916  0.4795  1.1202 -0.5626
 7142SOL     OW21825   0.434   6.603   3.220 -0.0958 -0.5771 -0.6589
 7142SOL    HW121826   0.352   6.643   3.248  0.6327  0.4476  0.0964
 7142SOL    HW221827   0.497   6.675   3.219  0.2480 -0.7890 -3.7477
 7143SOL     OW21828   0.333   5.312   4.137  0.1846  0.1499  0.0183
 7143SOL    HW121829   0.366   5.259   4.209  1.0416  0.0715 -0.4079
 7143SOL    HW221830   0.412   5.348   4.097 -0.3363  1.0667 -0.2160
 7144SOL     OW21831   6.048   2.164   1.895 -0.2411 -0.8646  0.8005
 7144SOL    HW121832   6.028   2.124   1.811  0.9710 -1.5600  0.8147
 7144SOL    HW221833   6.144   2.171   1.895 -0.2970  0.0739  1.6935
 7145SOL     OW21834   6.584   3.290   0.095 -0.4392  0.0523 -0.1878
 7145SOL    HW121835   6.636   3.358   0.053 -1.1747  0.5056 -0.3747
 7145SOL    HW221836   6.637   3.263   0.171  0.3570  0.0412 -0.7370
 7146SOL     OW21837   4.841   0.313   3.242  0.1923 -0.0100 -0.2928
 7146SOL    HW121838   4.876   0.245   3.184 -0.8751 -0.0500 -0.9232
 7146SOL    HW221839   4.802   0.377   3.183  0.7184  0.8948  0.3235
 7147SOL     OW21840   5.153   6.746   6.740 -0.3544  0.0218  0.1981
 7147SOL    HW121841   5.231   6.800   6.742 -0.0994 -0.2500 -1.0716
 7147SOL    HW221842   5.176   6.673   6.682 -1.3190 -0.4189  0.3486
 7148SOL     OW21843   1.679   0.283   6.589  0.1945  0.2536  0.1147
 7148SOL    HW121844   1.661   0.318   6.676 -3.1009 -0.7632 -0.0310
 7148SOL    HW221845   1.629   0.341   6.530 -0.1909 -0.9303 -0.7506
 7149SOL     OW21846   4.184   2.297   4.436 -0.9581  0.3362  0.4110
 7149SOL    HW121847   4.273   2.286   4.402 -0.4399  0.0111  1.8167
 7149SOL    HW221848   4.151   2.207   4.443 -0.8676  0.3672  1.2447
 7150SOL     OW21849   3.670   1.999   0.223 -0.3041  0.1446  0.1362
 7150SOL    HW121850   3.672   1.912   0.263  1.1095  0.1515  0.1560
 7150SOL    HW221851   3.727   2.052   0.280  0.0627  0.6854 -0.7184
 7151SOL     OW21852   5.542   6.308   3.220  0.3436 -0.0557  0.5891
 7151SOL    HW121853   5.569   6.281   3.132  1.7139 -1.4191  1.3693
 7151SOL    HW221854   5.467   6.251   3.240  0.1591  0.1126  0.3735
 7152SOL     OW21855   0.696   3.714   1.918  0.3190 -0.4467  0.1931
 7152SOL    HW121856   0.709   3.637   1.863  1.0304  0.5391 -1.0913
 7152SOL    HW221857   0.634   3.768   1.869  0.1042 -0.0490  0.8949
 7153SOL     OW21858   0.374   3.962   5.427 -0.0701  0.3490 -0.0933
 7153SOL    HW121859   0.382   4.055   5.449  0.6438 -0.1292  1.7954
 7153SOL    HW221860   0.450   3.921   5.467 -0.2887 -1.0495 -1.0529
 7154SOL     OW21861   1.099   0.756   2.280 -0.1555 -0.4252  0.0149
 7154SOL    HW121862   1.170   0.767   2.216 -0.6581 -0.2221 -0.5225
 7154SOL    HW221863   1.144   0.745   2.364  0.5211 -0.8029 -0.3848
 7155SOL     OW21864   5.972   5.995   1.216 -0.2462 -0.1583  0.4907
 7155SOL    HW121865   5.953   5.911   1.174  2.8928  0.2966 -2.2910
 7155SOL    HW221866   6.052   5.979   1.266  0.1953  1.0414  0.2028
 7156SOL     OW21867   3.422   2.049   3.117 -0.3484  0.4092  0.2193
 7156SOL    HW121868   3.434   2.114   3.048 -0.2678 -0.0347 -0.1968
 7156SOL    HW221869   3.328   2.031   3.118 -0.5156  1.2606  1.0247
 7157SOL     OW21870   5.386   2.818   0.492  0.3504  0.7794 -0.3119
 7157SOL    HW121871   5.451   2.811   0.422  1.3168  1.1218  0.5358
 7157SOL    HW221872   5.304   2.789   0.451  1.0921  0.0141 -1.2995
 7158SOL     OW21873   0.493   1.476   5.809  0.2245  0.5004  0.1722
 7158SOL    HW121874   0.549   1.535   5.758 -0.4493  1.1944  0.2222
 7158SOL    HW221875   0.422   1.531   5.841  0.6886  0.1268  1.9974
 7159SOL     OW21876   3.140   0.847   3.617 -0.4485 -0.3728 -0.2203
 7159SOL    HW121877   3.058   0.895   3.618  0.6920  1.8400 -2.5907
 7159SOL    HW221878   3.135   0.793   3.538  0.0132 -0.9197  0.1183
 7160SOL     OW21879   6.340   2.255   6.759 -0.0641 -0.1479 -0.1750
 7160SOL    HW121880   6.395   2.319   6.714 -1.6373  2.0677  0.8572
 7160SOL    HW221881   6.397   2.179   6.771  1.9268  1.0446 -1.4012
 7161SOL     OW21882   3.429   5.636   0.148 -0.2385  0.5392 -0.0432
 7161SOL    HW121883   3.378   5.555   0.150 -2.5596  1.8794  1.9812
 7161SOL    HW221884   3.383   5.694   0.209  2.5230  2.6810  0.2111
 7162SOL     OW21885   4.533   1.618   1.128 -0.2937 -0.3847  0.0583
 7162SOL    HW121886   4.455   1.663   1.159 -1.5552 -0.4650 -2.7263
 7162SOL    HW221887   4.520   1.526   1.154 -0.2456 -0.1080  1.1197
 7163SOL     OW21888   1.855   5.275   6.704  0.0000 -0.1342  0.2772
 7163SOL    HW121889   1.890   5.236   6.624  0.8735  0.9472  0.1114
 7163SOL    HW221890   1.918   5.250   6.772 -0.3614 -0.4585  0.4932
 7164SOL     OW21891   0.230   0.546   4.684  0.2164  0.1281 -0.1170
 7164SOL    HW121892   0.170   0.475   4.708 -1.8437  1.5967 -0.6896
 7164SOL    HW221893   0.311   0.501   4.659 -0.1687 -1.8572  1.8911
 7165SOL     OW21894   3.842   5.001   4.213 -0.2173 -0.3147  0.1829
 7165SOL    HW121895   3.925   4.953   4.205 -0.5837 -1.0312  0.5299
 7165SOL    HW221896   3.852   5.077   4.156  0.6090 -0.4933  0.0807
 7166SOL     OW21897   0.505   2.680   5.741  0.0697  0.1213 -0.6727
 7166SOL    HW121898   0.496   2.688   5.836 -0.9741  1.0694 -0.8342
 7166SOL    HW221899   0.416   2.660   5.711  0.4820 -0.6358 -1.4134
 7167SOL     OW21900   5.685   2.658   1.348 -0.4728 -0.1306  0.1918
 7167SOL    HW121901   5.599   2.676   1.308 -0.5180 -1.5307 -0.4249
 7167SOL    HW221902   5.688   2.562   1.355  1.0746 -0.1167  0.1159
 7168SOL     OW21903   4.254   3.691   6.717  0.1018 -0.6766  0.2216
 7168SOL    HW121904   4.240   3.760   6.652  4.2076 -0.5701 -0.7835
 7168SOL    HW221905   4.265   3.738   6.800  0.2304 -0.3704  0.0307
 7169SOL     OW21906   6.772   3.000   5.030  0.0948  0.4049  0.4131
 7169SOL    HW121907   6.842   3.050   4.988  1.3059 -0.5334  1.2330
 7169SOL    HW221908   6.791   2.909   5.007 -1.7493  0.2334 -0.5923
 7170SOL     OW21909   0.861   3.041   6.356 -0.4218 -0.8067 -0.1898
 7170SOL    HW121910   0.833   3.100   6.286 -0.2329 -0.2507  0.2019
 7170SOL    HW221911   0.811   3.069   6.432 -0.6865 -1.4676 -0.1184
 7171SOL     OW21912   3.162   3.776   1.325  0.1698  0.7329  0.5148
 7171SOL    HW121913   3.083   3.722   1.320  0.9435 -0.4007  0.0557
 7171SOL    HW221914   3.175   3.807   1.235  1.2435 -0.6224  0.1549
 7172SOL     OW21915   1.926   1.944   2.149  0.2574 -0.0893  0.0659
 7172SOL    HW121916   1.982   1.920   2.075 -0.7388 -1.2132 -0.3616
 7172SOL    HW221917   1.977   2.008   2.198  2.6063 -2.1721  0.5723
 7173SOL     OW21918   4.930   0.105   6.618 -0.0920  0.2562 -0.5091
 7173SOL    HW121919   4.890   0.028   6.578 -0.9046  0.5762 -0.3236
 7173SOL    HW221920   5.010   0.072   6.658 -0.3869 -0.4797 -0.5060
 7174SOL     OW21921   2.336   1.452   0.485 -0.3555 -0.5956 -0.5496
 7174SOL    HW121922   2.346   1.498   0.569  0.8745  0.2683 -1.1463
 7174SOL    HW221923   2.309   1.520   0.424  1.2506 -0.6760 -1.3972
 7175SOL     OW21924   1.554   2.292   6.626 -0.0932  0.3096 -0.2145
 7175SOL    HW121925   1.525   2.204   6.653  1.3064 -0.0589  0.2088
 7175SOL    HW221926   1.496   2.352   6.673 -2.2989 -0.3413 -1.9238
 7176SOL     OW21927   2.161   2.915   4.417  0.8148  0.1367  0.2928
 7176SOL    HW121928   2.151   2.985   4.481  0.3111 -0.0227  0.3856
 7176SOL    HW221929   2.154   2.959   4.332  1.1092  0.2900  0.3462
 7177SOL     OW21930   6.530   1.170   1.129  0.6567 -0.2447  0.4624
 7177SOL    HW121931   6.516   1.102   1.063  1.3666 -0.5335  0.6042
 7177SOL    HW221932   6.535   1.122   1.212 -1.0575  0.1806  0.8620
 7178SOL     OW21933   4.173   5.209   3.750  0.0748  0.3044 -0.0539
 7178SOL    HW121934   4.233   5.281   3.734 -1.0537  0.9983 -1.4037
 7178SOL    HW221935   4.089   5.239   3.714 -0.4094 -1.7052 -0.7405
 7179SOL     OW21936   6.190   6.403   5.010 -0.4187 -0.3406 -0.1357
 7179SOL    HW121937   6.111   6.361   4.978  0.1807 -0.9413 -0.8503
 7179SOL    HW221938   6.242   6.421   4.931 -1.1645  2.8861 -0.0644
 7180SOL     OW21939   6.284   1.060   6.033 -0.3510  0.2724 -0.7372
 7180SOL    HW121940   6.372   1.055   6.071 -0.7862 -0.9384  0.1677
 7180SOL    HW221941   6.225   1.059   6.108 -1.1447  1.8245 -1.3058
 7181SOL     OW21942   2.624   4.912   1.476 -0.1574  0.1871 -0.2052
 7181SOL    HW121943   2.673   4.895   1.556  1.6902  1.9050 -0.8925
 7181SOL    HW221944   2.627   4.829   1.428  0.2919 -0.3228  0.6800
 7182SOL     OW21945   3.391   1.695   1.850 -0.4111 -0.6283 -0.0099
 7182SOL    HW121946   3.305   1.653   1.847 -1.0847  0.7081 -0.1481
 7182SOL    HW221947   3.372   1.788   1.864  1.0711 -0.5182  1.5170
 7183SOL     OW21948   0.546   0.680   2.235  0.5582  0.1501 -0.2681
 7183SOL    HW121949   0.605   0.723   2.173  1.4581  0.9114  1.0508
 7183SOL    HW221950   0.471   0.653   2.183 -0.3373  3.7879 -1.1794
 7184SOL     OW21951   6.602   6.393   4.627  0.0112 -0.4456  0.4016
 7184SOL    HW121952   6.549   6.417   4.702  0.6133  0.1501  0.6479
 7184SOL    HW221953   6.542   6.396   4.553 -0.4603 -0.5057  0.7786
 7185SOL     OW21954   2.258   6.301   3.954  0.4062  0.7904  0.0631
 7185SOL    HW121955   2.164   6.291   3.971  0.4658 -0.5294 -0.2719
 7185SOL    HW221956   2.262   6.368   3.886 -0.1626  2.1441  1.3218
 7186SOL     OW21957   4.300   2.743   3.093 -0.0839  0.7586  0.0257
 7186SOL    HW121958   4.261   2.804   3.031 -0.4660  0.5777  0.0874
 7186SOL    HW221959   4.255   2.761   3.176 -2.4465 -1.6860 -0.5971
 7187SOL     OW21960   0.424   5.543   4.748  0.5356 -0.6873 -0.1464
 7187SOL    HW121961   0.477   5.471   4.712  0.2812 -1.2474  0.5657
 7187SOL    HW221962   0.341   5.537   4.701  1.0420  0.1233 -1.1876
 7188SOL     OW21963   5.737   2.778   5.480  0.1863  0.7103  0.4393
 7188SOL    HW121964   5.778   2.704   5.524 -0.2015  1.3790  1.9853
 7188SOL    HW221965   5.730   2.751   5.388  0.8838 -0.7846  0.8057
 7189SOL     OW21966   2.372   2.222   5.533  0.1904 -0.0751 -0.0113
 7189SOL    HW121967   2.303   2.243   5.596 -1.2711  0.0916 -1.6129
 7189SOL    HW221968   2.430   2.163   5.581  0.5078  1.9391  2.2758
 7190SOL     OW21969   1.998   2.884   3.494  0.1105  0.1573  0.3167
 7190SOL    HW121970   2.035   2.843   3.573  0.2680  0.2210  0.2753
 7190SOL    HW221971   1.917   2.925   3.524 -0.5199 -0.9518  0.1876
 7191SOL     OW21972   5.772   0.489   2.268 -0.2825  0.5738 -0.3757
 7191SOL    HW121973   5.762   0.440   2.350 -1.0373 -0.5351 -1.1089
 7191SOL    HW221974   5.853   0.456   2.230 -2.4666 -2.8586 -2.5869
 7192SOL     OW21975   0.198   6.098   0.613 -0.5857  0.8337  0.1613
 7192SOL    HW121976   0.242   6.078   0.530 -0.9275 -0.6239  0.3066
 7192SOL    HW221977   0.152   6.180   0.596 -0.3952  0.7178 -1.0043
 7193SOL     OW21978   5.714   6.074   4.258  0.2572 -0.1079 -0.0724
 7193SOL    HW121979   5.630   6.116   4.278  0.6888  0.4325  0.6807
 7193SOL    HW221980   5.698   6.023   4.179 -0.1576  1.9115 -1.3713
 7194SOL     OW21981   0.589   5.499   6.709 -0.7272 -0.4110 -0.0316
 7194SOL    HW121982   0.563   5.424   6.763 -1.9582  0.5134  0.7071
 7194SOL    HW221983   0.648   5.550   6.765  1.4043 -1.5708 -1.0789
 7195SOL     OW21984   1.748   6.715   1.293 -0.3317 -0.0431 -0.1037
 7195SOL    HW121985   1.762   6.637   1.239  0.3361 -0.1695  0.2412
 7195SOL    HW221986   1.782   6.691   1.379 -2.9285 -0.4610  0.9196
 7196SOL     OW21987   3.642   2.554   6.047  0.2178 -0.0350  0.4236
 7196SOL    HW121988   3.678   2.555   5.959  1.2365 -1.4222  0.7832
 7196SOL    HW221989   3.576   2.623   6.047  0.6779  0.4484 -1.2065
 7197SOL     OW21990   3.954   3.152   0.784 -0.4141  0.6908  0.7406
 7197SOL    HW121991   3.889   3.091   0.749 -0.7134  2.2858 -1.7004
 7197SOL    HW221992   3.974   3.118   0.871 -1.0364 -2.4897 -0.2251
 7198SOL     OW21993   5.800   6.684   4.109 -0.1909  0.5156  0.2020
 7198SOL    HW121994   5.830   6.731   4.186  0.4884  1.4118 -0.5772
 7198SOL    HW221995   5.705   6.696   4.109 -0.6118 -2.0258  2.4871
 7199SOL     OW21996   4.168   2.401   1.213  0.4300 -0.7386 -0.0454
 7199SOL    HW121997   4.242   2.354   1.251  1.2611 -0.1526 -0.8959
 7199SOL    HW221998   4.168   2.373   1.121 -0.6953 -1.0793  0.0440
 7200SOL     OW21999   5.285   5.157   1.559  0.0711  0.2068  0.1560
 7200SOL    HW122000   5.200   5.159   1.603  0.6654  1.5522  1.3522
 7200SOL    HW222001   5.268   5.194   1.473 -0.5929  0.2758  0.3101
 7201SOL     OW22002   1.517   0.240   4.183  0.0857 -0.0166  0.1529
 7201SOL    HW122003   1.523   0.151   4.147 -0.6325 -0.1630  0.3711
 7201SOL    HW222004   1.562   0.295   4.119 -0.5351 -0.3696 -0.6108
 7202SOL     OW22005   6.292   0.033   5.073 -0.3043 -0.0331  0.2748
 7202SOL    HW122006   6.316   0.044   4.981 -0.1453 -1.6788  0.1032
 7202SOL    HW222007   6.325   0.112   5.116  1.3472 -0.1224 -0.7429
 7203SOL     OW22008   5.863   5.602   5.103  0.2994  0.1146 -0.0124
 7203SOL    HW122009   5.917   5.663   5.154  1.0398  0.0790 -0.7245
 7203SOL    HW222010   5.824   5.656   5.035 -0.6290  0.1490  0.5320
 7204SOL     OW22011   5.567   0.956   5.966 -0.7385  0.0774 -0.6615
 7204SOL    HW122012   5.631   0.997   6.025 -0.6829 -1.4443  0.4072
 7204SOL    HW222013   5.617   0.889   5.920 -0.8825  0.9865 -2.1971
 7205SOL     OW22014   4.493   6.096   2.059 -0.1063 -0.2587 -0.1139
 7205SOL    HW122015   4.475   6.009   2.023  1.8670 -0.9370  0.3784
 7205SOL    HW222016   4.531   6.078   2.145 -0.1992  1.1277  0.2347
 7206SOL     OW22017   4.593   0.798   1.158 -0.2676  0.1891 -0.3701
 7206SOL    HW122018   4.591   0.744   1.237  0.8640  0.1717 -0.3325
 7206SOL    HW222019   4.566   0.885   1.187  0.1767  0.1914  0.0512
 7207SOL     OW22020   6.127   1.701   2.849 -0.1179 -0.0869 -0.9366
 7207SOL    HW122021   6.185   1.658   2.786  0.5913 -0.4793 -0.0453
 7207SOL    HW222022   6.184   1.726   2.921 -1.2497 -1.7371  0.6117
 7208SOL     OW22023   6.698   2.479   1.437 -0.0513  0.4512 -0.4005
 7208SOL    HW122024   6.605   2.482   1.461 -0.6219 -2.5546 -1.7506
 7208SOL    HW222025   6.744   2.483   1.521 -1.5572 -0.6381  0.5391
 7209SOL     OW22026   2.867   3.943   5.482  0.2958 -0.0680 -0.7209
 7209SOL    HW122027   2.860   4.026   5.437 -0.6506 -0.3198 -1.0729
 7209SOL    HW222028   2.828   3.879   5.422 -1.0220 -0.4055  0.4365
 7210SOL     OW22029   0.341   6.032   5.876 -0.1221  0.1922 -0.0368
 7210SOL    HW122030   0.306   6.122   5.876  0.7660  0.5483 -1.0591
 7210SOL    HW222031   0.435   6.043   5.884 -0.1515 -0.7910  3.4173
 7211SOL     OW22032   3.142   3.883   5.408 -0.7132  0.9461  0.1013
 7211SOL    HW122033   3.050   3.890   5.433 -1.3523 -0.7948 -1.5213
 7211SOL    HW222034   3.154   3.791   5.387  1.0931  1.3649 -0.9194
 7212SOL     OW22035   3.825   3.043   6.130  0.4445  0.2360 -1.1591
 7212SOL    HW122036   3.917   3.070   6.133  0.5818 -0.3065 -0.3775
 7212SOL    HW222037   3.821   2.975   6.062  1.7856 -3.8893  2.4557
 7213SOL     OW22038   1.895   5.425   1.053 -0.5463 -0.0155 -0.3881
 7213SOL    HW122039   1.910   5.339   1.015  0.5503 -0.6029  1.3045
 7213SOL    HW222040   1.834   5.467   0.992 -1.8672 -2.3072 -0.7874
 7214SOL     OW22041   6.425   1.787   0.271  0.7536  0.0597 -0.2348
 7214SOL    HW122042   6.471   1.850   0.327  1.2465 -1.5545  1.2839
 7214SOL    HW222043   6.396   1.718   0.332  0.3523 -1.2359 -1.8340
 7215SOL     OW22044   1.750   1.505   2.749 -0.3867  0.4966 -0.1421
 7215SOL    HW122045   1.685   1.552   2.697  0.1107  1.4233  0.0551
 7215SOL    HW222046   1.827   1.562   2.750  0.5560 -0.7308 -0.6399
 7216SOL     OW22047   0.947   0.985   2.164 -0.3555  0.1880 -0.5556
 7216SOL    HW122048   1.006   1.006   2.092  1.6455  0.4296  1.0662
 7216SOL    HW222049   0.982   0.904   2.201 -1.0918  0.2852  0.3986
 7217SOL     OW22050   1.946   1.655   4.594 -0.3183  0.5672 -0.3979
 7217SOL    HW122051   2.013   1.720   4.577  1.3073 -1.7611 -4.0673
 7217SOL    HW222052   1.990   1.588   4.646 -0.2323 -0.1793 -1.3983
 7218SOL     OW22053   1.062   2.213   3.775  0.2455  0.6598 -0.4588
 7218SOL    HW122054   1.089   2.294   3.819 -1.0981  0.7223  0.3128
 7218SOL    HW222055   0.972   2.199   3.805  0.8939 -1.8782  0.5630
 7219SOL     OW22056   5.868   2.592   5.603 -0.0596  0.4743  0.0318
 7219SOL    HW122057   5.833   2.568   5.689 -0.4885  0.1380 -0.2373
 7219SOL    HW222058   5.916   2.514   5.574 -0.2908  0.4290 -0.2305
 7220SOL     OW22059   1.250   0.498   4.441 -0.0619 -0.3251 -0.2065
 7220SOL    HW122060   1.329   0.550   4.425  0.2091 -0.3810  0.9204
 7220SOL    HW222061   1.270   0.413   4.403  0.5058 -0.4034  0.2540
 7221SOL     OW22062   0.039   4.467   4.720  0.5520  0.2265  0.1885
 7221SOL    HW122063   0.024   4.458   4.814 -0.7531 -2.3131 -0.1692
 7221SOL    HW222064   0.108   4.404   4.700  0.3263  0.2323 -0.6551
 7222SOL     OW22065   2.474   3.991   1.450 -0.2325 -0.0811 -0.7098
 7222SOL    HW122066   2.568   4.007   1.443 -0.1636  1.0846  1.7308
 7222SOL    HW222067   2.465   3.896   1.447  1.3173 -0.3506  1.1808
 7223SOL     OW22068   6.650   6.461   6.667  0.4016  0.1923  0.3384
 7223SOL    HW122069   6.665   6.446   6.761 -0.3753  1.6241  0.7315
 7223SOL    HW222070   6.573   6.518   6.664 -0.4674 -0.9973 -1.2604
 7224SOL     OW22071   2.258   4.853   3.164 -0.4412  0.2601  0.2269
 7224SOL    HW122072   2.301   4.780   3.120 -1.8460  0.6437 -1.9376
 7224SOL    HW222073   2.252   4.921   3.097 -0.9281  1.6283  1.6171
 7225SOL     OW22074   0.371   1.353   5.440  0.4697  0.3448  0.4997
 7225SOL    HW122075   0.399   1.281   5.496  0.7402  0.8266  0.9909
 7225SOL    HW222076   0.452   1.383   5.398 -0.0053 -1.5276 -2.0156
 7226SOL     OW22077   5.696   3.708   1.985  0.7153 -0.6190 -0.1893
 7226SOL    HW122078   5.640   3.746   2.053  1.4693 -1.8038  1.1513
 7226SOL    HW222079   5.699   3.775   1.917 -0.3070  0.4966  0.8019
 7227SOL     OW22080   5.621   1.308   4.734  0.4035 -0.0878  0.4979
 7227SOL    HW122081   5.603   1.349   4.819  2.2097 -0.7973  1.2697
 7227SOL    HW222082   5.563   1.353   4.673  0.0141  1.3658  1.8747
 7228SOL     OW22083   0.893   4.846   0.207  0.2231 -0.5568 -0.0683
 7228SOL    HW122084   0.984   4.832   0.233  0.3066 -0.0099 -0.0493
 7228SOL    HW222085   0.854   4.759   0.207  1.0632 -0.9633 -1.2595
 7229SOL     OW22086   0.536   0.837   3.761 -0.4900 -0.2740  0.0170
 7229SOL    HW122087   0.497   0.924   3.768 -0.2235 -0.1313 -0.2250
 7229SOL    HW222088   0.556   0.827   3.667  0.5566 -0.1187  0.2096
 7230SOL     OW22089   4.189   1.385   0.212  0.2202  0.5421 -0.2442
 7230SOL    HW122090   4.264   1.341   0.252 -0.1224  0.8181  0.7228
 7230SOL    HW222091   4.128   1.400   0.284 -0.0666  1.7972 -0.7176
 7231SOL     OW22092   6.486   1.337   1.484  0.4059  0.5051  0.2564
 7231SOL    HW122093   6.510   1.340   1.392 -0.2189 -0.2639  0.0585
 7231SOL    HW222094   6.530   1.412   1.523  0.4616  0.9852 -0.7137
 7232SOL     OW22095   5.872   5.084   6.241  0.2262 -0.4826  0.0206
 7232SOL    HW122096   5.903   5.173   6.253 -1.2999  0.1571 -0.5927
 7232SOL    HW222097   5.867   5.073   6.146  1.0880 -1.4844  0.0666
 7233SOL     OW22098   1.526   0.373   1.776  0.1821 -0.2743 -0.2691
 7233SOL    HW122099   1.560   0.298   1.727 -1.4424  0.1439 -2.2107
 7233SOL    HW222100   1.598   0.437   1.776  0.6678 -0.8087 -0.9833
 7234SOL     OW22101   5.948   1.254   3.281  0.1111  0.2502  0.1270
 7234SOL    HW122102   5.950   1.176   3.226  0.4425  0.9120 -0.8232
 7234SOL    HW222103   5.985   1.323   3.226 -0.6515  1.1926  0.7776
 7235SOL     OW22104   1.475   6.194   3.741  0.1139  0.0005  0.1004
 7235SOL    HW122105   1.528   6.124   3.781 -0.0196  0.6939  1.5400
 7235SOL    HW222106   1.539   6.252   3.700  0.3788  0.1207  0.6775
 7236SOL     OW22107   6.428   1.900   1.261 -0.2329 -0.3571 -0.2524
 7236SOL    HW122108   6.343   1.863   1.287 -0.8550  0.8807 -0.4607
 7236SOL    HW222109   6.411   1.942   1.177  0.2472  1.0561  0.3354
 7237SOL     OW22110   1.606   6.686   1.577 -0.0795  0.6126 -0.2186
 7237SOL    HW122111   1.557   6.691   1.495  1.1777  2.6834 -0.9293
 7237SOL    HW222112   1.664   6.611   1.566  0.3815  1.1295 -1.4437
 7238SOL     OW22113   4.271   2.738   0.477 -0.2568 -0.2312 -0.0260
 7238SOL    HW122114   4.201   2.749   0.542 -0.1874  0.2012 -0.0235
 7238SOL    HW222115   4.310   2.654   0.499 -1.4263 -0.9706 -0.6486
 7239SOL     OW22116   3.434   3.069   5.731  0.3729  0.7949  0.0830
 7239SOL    HW122117   3.426   3.150   5.681 -1.9345  0.6795  0.1369
 7239SOL    HW222118   3.378   3.006   5.685  1.8712 -0.7125  0.2069
 7240SOL     OW22119   4.282   2.727   6.699 -0.1501 -0.3922  0.0166
 7240SOL    HW122120   4.309   2.812   6.732 -1.0707  0.0568 -0.3461
 7240SOL    HW222121   4.311   2.665   6.766 -1.7923  0.4721  1.6286
 7241SOL     OW22122   2.099   6.437   3.160  0.2563  0.7866  0.3656
 7241SOL    HW122123   2.029   6.435   3.226 -1.3604  2.3248 -1.1813
 7241SOL    HW222124   2.176   6.406   3.206 -1.4192 -0.9914  2.1902
 7242SOL     OW22125   2.206   0.342   3.018 -0.1045  0.0061 -0.8831
 7242SOL    HW122126   2.219   0.273   2.954  0.2825  0.8544 -1.7534
 7242SOL    HW222127   2.240   0.306   3.100  1.2980 -0.3784 -1.5965
 7243SOL     OW22128   3.428   0.985   3.844 -0.5646  0.6316  0.5619
 7243SOL    HW122129   3.364   0.922   3.876  1.1303  0.0274  3.0295
 7243SOL    HW222130   3.382   1.069   3.847 -1.3710  0.1747  1.9898
 7244SOL     OW22131   0.499   2.015   2.709  0.1037 -0.6631  0.1883
 7244SOL    HW122132   0.478   2.102   2.744  1.0378 -0.1043 -0.5765
 7244SOL    HW222133   0.590   2.000   2.735  0.9208 -0.1248 -2.0766
 7245SOL     OW22134   0.531   3.091   0.833 -0.4624 -0.1715  0.9311
 7245SOL    HW122135   0.530   3.056   0.744  2.3243 -1.7159  1.3938
 7245SOL    HW222136   0.476   3.031   0.883 -1.1287  0.0569  0.4861
 7246SOL     OW22137   4.069   5.783   4.983  0.1923  0.7334 -0.1388
 7246SOL    HW122138   4.116   5.836   5.047  1.2289  0.8727 -0.9935
 7246SOL    HW222139   4.019   5.720   5.035 -2.5308  3.5861  1.0631
 7247SOL     OW22140   3.264   1.338   5.455  0.1200  0.0434  0.1461
 7247SOL    HW122141   3.340   1.331   5.398  0.3273  1.5446  0.1935
 7247SOL    HW222142   3.294   1.393   5.527 -1.0356  0.7585  0.1000
 7248SOL     OW22143   4.815   4.170   3.230  0.6507  0.9224  0.5366
 7248SOL    HW122144   4.771   4.133   3.154 -0.0598 -0.6662  1.6811
 7248SOL    HW222145   4.881   4.105   3.254  1.3966  1.7652  0.8315
 7249SOL     OW22146   1.714   0.754   3.349  0.2677  0.1396 -0.1055
 7249SOL    HW122147   1.648   0.699   3.391  0.1917 -0.2899 -0.7707
 7249SOL    HW222148   1.787   0.756   3.412  2.0378 -4.1575 -1.6353
 7250SOL     OW22149   5.757   0.002   6.636 -0.0767 -0.1591  0.6442
 7250SOL    HW122150   5.772   0.092   6.663 -0.9370  0.1114  0.2523
 7250SOL    HW222151   5.842  -0.028   6.603  0.0202  0.7935 -0.0142
 7251SOL     OW22152   5.186   4.496   0.876  0.0194  0.8502 -0.2688
 7251SOL    HW122153   5.272   4.510   0.915  0.7999  1.5609 -2.1797
 7251SOL    HW222154   5.197   4.420   0.819 -0.3264  1.5802 -1.3358
 7252SOL     OW22155   1.067   1.189   4.415 -0.3901  0.1332  0.0746
 7252SOL    HW122156   1.041   1.274   4.451 -0.5371 -1.4917  4.4381
 7252SOL    HW222157   0.987   1.136   4.418  0.2535 -0.8868 -0.1011
 7253SOL     OW22158   1.309   2.598   6.155  0.1215  0.5063 -0.5244
 7253SOL    HW122159   1.218   2.580   6.178  0.0341  1.0982 -0.3792
 7253SOL    HW222160   1.307   2.623   6.063  0.1903  0.1407 -0.6250
 7254SOL     OW22161   4.354   1.961   0.272 -0.1413  0.0626  0.0662
 7254SOL    HW122162   4.448   1.982   0.273 -0.6064  2.5298 -1.0053
 7254SOL    HW222163   4.351   1.871   0.239  1.8061  0.3722 -1.1397
 7255SOL     OW22164   0.992   1.205   0.710 -0.8661 -0.2683 -0.5859
 7255SOL    HW122165   0.973   1.219   0.617  1.1979 -0.4423 -1.0766
 7255SOL    HW222166   0.992   1.293   0.748  0.6039  0.0539 -1.2669
 7256SOL     OW22167   3.315   5.344   5.492 -0.4846 -0.2456  0.2501
 7256SOL    HW122168   3.360   5.280   5.436 -0.2180  0.3585 -0.2473
 7256SOL    HW222169   3.356   5.335   5.577  0.1353 -0.1544 -0.0344
 7257SOL     OW22170   1.473   3.826   4.346  0.3070 -0.1878  0.3458
 7257SOL    HW122171   1.527   3.749   4.328 -0.5232 -0.5433 -0.7153
 7257SOL    HW222172   1.432   3.846   4.262  1.1111  1.9048  0.4093
 7258SOL     OW22173   0.090   0.182   3.684 -0.0577  0.3029  0.0467
 7258SOL    HW122174   0.057   0.272   3.676 -1.2216 -0.2495 -2.1488
 7258SOL    HW222175   0.020   0.128   3.648  0.7297 -1.5022  1.0780
 7259SOL     OW22176   4.627   4.313   6.539  0.2884  0.1105  0.6014
 7259SOL    HW122177   4.609   4.354   6.624 -1.9231 -0.0344  0.2710
 7259SOL    HW222178   4.556   4.342   6.482  0.3882 -1.6599 -0.5253
 7260SOL     OW22179   5.933   3.829   3.545 -0.2009 -0.0847  0.3103
 7260SOL    HW122180   5.838   3.829   3.543 -0.2761  0.8132  2.0714
 7260SOL    HW222181   5.958   3.737   3.545 -1.0685 -0.3194 -0.1709
 7261SOL     OW22182   1.626   4.275   6.347 -0.6578  0.1147  0.4836
 7261SOL    HW122183   1.593   4.240   6.430 -1.0167 -0.8513 -0.0577
 7261SOL    HW222184   1.548   4.281   6.291 -0.3224  0.2203  0.0254
 7262SOL     OW22185   4.009   6.326   1.167 -0.3488 -0.2730 -0.2164
 7262SOL    HW122186   4.006   6.263   1.239 -1.4554 -0.2159 -0.1929
 7262SOL    HW222187   3.997   6.273   1.088 -1.7222 -0.0855 -0.1697
 7263SOL     OW22188   4.206   5.056   2.094  0.5128  0.5397 -0.0074
 7263SOL    HW122189   4.263   5.111   2.148  0.3148 -0.0479  0.8094
 7263SOL    HW222190   4.119   5.069   2.131  0.3156  0.4181 -0.4266
 7264SOL     OW22191   5.562   3.611   5.610  0.3610  0.3274  0.1719
 7264SOL    HW122192   5.532   3.693   5.650  2.4300 -0.0744  2.8179
 7264SOL    HW222193   5.491   3.549   5.627  0.7225  0.4443  2.4775
 7265SOL     OW22194   4.694   1.986   5.184 -0.3383  0.0116 -0.4118
 7265SOL    HW122195   4.631   2.050   5.151 -0.0512  0.7316  0.3963
 7265SOL    HW222196   4.762   2.038   5.226  0.1340 -0.8059 -0.1317
 7266SOL     OW22197   4.795   4.366   3.420 -0.0018 -0.2791  0.1026
 7266SOL    HW122198   4.806   4.313   3.341 -0.5655 -0.3214  0.0440
 7266SOL    HW222199   4.741   4.311   3.478  0.3043 -0.1985  0.4689
 7267SOL     OW22200   6.009   4.099   0.495 -0.1038 -0.0981  0.1292
 7267SOL    HW122201   5.967   4.027   0.448  1.6559 -0.6996 -0.5695
 7267SOL    HW222202   6.086   4.060   0.535  2.1053  1.7625 -2.0237
 7268SOL     OW22203   4.028   5.921   6.755 -0.7303 -0.2562  0.1824
 7268SOL    HW122204   4.089   5.903   6.827  0.0896  2.6055  0.3549
 7268SOL    HW222205   3.942   5.899   6.790 -0.3472  1.0862  2.1178
 7269SOL     OW22206   2.131   4.965   3.390 -0.4905 -0.4145  0.2333
 7269SOL    HW122207   2.174   4.929   3.312  0.0032 -0.7006  0.6334
 7269SOL    HW222208   2.116   5.058   3.369 -2.2444 -0.9281 -1.0136
 7270SOL     OW22209   0.742   6.128   6.774  0.4306  0.8815 -0.3577
 7270SOL    HW122210   0.694   6.206   6.747 -0.8246  0.8945  1.7073
 7270SOL    HW222211   0.749   6.135   6.869  1.5792 -0.8119 -0.2668
 7271SOL     OW22212   0.743   6.734   1.445 -0.1803  0.0395 -0.1460
 7271SOL    HW122213   0.704   6.654   1.411 -2.5903 -0.1181  2.5568
 7271SOL    HW222214   0.695   6.805   1.402 -2.4102 -0.1468  1.8248
 7272SOL     OW22215   2.193   5.348   2.242  0.3275 -0.4624 -0.2434
 7272SOL    HW122216   2.212   5.377   2.332  1.0493  1.6095 -0.9837
 7272SOL    HW222217   2.275   5.364   2.195 -0.2759 -0.7947 -1.4297
 7273SOL     OW22218   4.845   1.447   2.765  0.1634 -0.0878 -0.3674
 7273SOL    HW122219   4.784   1.514   2.795 -0.0059 -0.6800  0.6484
 7273SOL    HW222220   4.833   1.444   2.670  0.8290  1.9542 -0.5618
 7274SOL     OW22221   4.460   1.472   2.349 -0.3347 -0.0456  0.1324
 7274SOL    HW122222   4.391   1.451   2.412  0.3793 -1.5940  0.4589
 7274SOL    HW222223   4.428   1.439   2.265 -0.6800  0.7398 -0.0546
 7275SOL     OW22224   3.051   5.166   2.345  0.0698  0.2862  0.0717
 7275SOL    HW122225   2.985   5.197   2.407  0.5141 -0.9862  1.2241
 7275SOL    HW222226   3.010   5.176   2.260 -0.9271  1.1676  0.6242
 7276SOL     OW22227   2.615   5.712   1.148  0.2465 -0.2576 -0.4061
 7276SOL    HW122228   2.605   5.776   1.077 -2.8148  1.2228  1.1268
 7276SOL    HW222229   2.529   5.671   1.155  0.6116 -0.7597  2.0215
 7277SOL     OW22230   3.225   5.555   1.768  0.0195  0.5450 -0.0764
 7277SOL    HW122231   3.229   5.643   1.804 -0.3464  0.1769  0.9175
 7277SOL    HW222232   3.131   5.535   1.764  0.0857  0.3113 -0.5859
 7278SOL     OW22233   0.395   5.221   2.797  0.3652 -0.1392 -0.2614
 7278SOL    HW122234   0.352   5.143   2.763  0.2684  0.3378 -1.2853
 7278SOL    HW222235   0.355   5.294   2.749 -1.3182  0.8321  2.3946
 7279SOL     OW22236   1.145   1.014   3.852  0.7597  0.1312  0.2265
 7279SOL    HW122237   1.116   0.958   3.925 -1.6112  0.4940 -0.3710
 7279SOL    HW222238   1.089   0.989   3.779  2.6306  0.2673 -1.3269
 7280SOL     OW22239   1.728   1.056   2.267  0.1677  0.5221 -0.2580
 7280SOL    HW122240   1.669   0.986   2.238 -1.3072  1.7666 -0.3551
 7280SOL    HW222241   1.765   1.022   2.349  1.0302 -1.1777 -1.2886
 7281SOL     OW22242   0.383   4.326   0.189  0.0006 -0.1576  0.6739
 7281SOL    HW122243   0.413   4.245   0.147  0.8481 -0.0446  1.0499
 7281SOL    HW222244   0.293   4.337   0.158  0.4527 -0.3143 -0.7583
 7282SOL     OW22245   0.015   2.372   0.366 -0.4910  0.5204  0.6798
 7282SOL    HW122246   0.015   2.455   0.414 -1.0473 -0.0851  1.7666
 7282SOL    HW222247  -0.050   2.384   0.297 -0.4101  1.0654  0.6970
 7283SOL     OW22248   1.976   0.094   3.140  0.5787 -0.1733 -0.1275
 7283SOL    HW122249   2.036   0.054   3.077 -0.2294  0.9140 -1.6641
 7283SOL    HW222250   2.030   0.110   3.218  2.6412  1.7548 -1.7998
 7284SOL     OW22251   0.523   5.997   3.338  0.2685  0.3760  0.1959
 7284SOL    HW122252   0.559   6.077   3.300  0.8646 -0.6030 -1.3725
 7284SOL    HW222253   0.561   5.993   3.426 -0.6191  2.3394  0.7238
 7285SOL     OW22254   5.735   2.786   5.084  0.2480 -0.0720  0.0957
 7285SOL    HW122255   5.810   2.813   5.031 -1.9588 -1.8213 -4.4799
 7285SOL    HW222256   5.753   2.694   5.104  0.6811  0.3612  1.8770
 7286SOL     OW22257   2.374   4.091   5.039  0.4994 -0.3060 -0.0445
 7286SOL    HW122258   2.280   4.107   5.049 -0.2119 -2.9286 -1.6678
 7286SOL    HW222259   2.402   4.156   4.975 -0.2928  0.2178  0.1229
 7287SOL     OW22260   6.306   1.830   1.625 -0.3777  0.7361 -0.5825
 7287SOL    HW122261   6.227   1.816   1.677  0.2469  1.5650  0.6269
 7287SOL    HW222262   6.284   1.797   1.538 -1.9076  0.5661 -0.1474
 7288SOL     OW22263   5.579   6.425   6.388  0.0759  0.1589 -0.2309
 7288SOL    HW122264   5.564   6.395   6.478 -1.8191 -1.9377 -1.1463
 7288SOL    HW222265   5.604   6.516   6.398  0.3503 -0.1022  2.4426
 7289SOL     OW22266   4.942   3.028   0.524 -0.4748 -0.3714  0.5234
 7289SOL    HW122267   4.868   2.992   0.572 -0.2195 -2.8783 -0.8252
 7289SOL    HW222268   5.019   3.000   0.573 -0.3085 -0.4629  0.2117
 7290SOL     OW22269   5.984   5.678   4.188 -0.0565 -0.5596 -0.7230
 7290SOL    HW122270   5.893   5.654   4.206 -0.0355  0.6962  1.5376
 7290SOL    HW222271   5.997   5.760   4.236  2.8915 -1.8513  1.0247
 7291SOL     OW22272   6.659   2.575   0.961 -0.2489  0.0048 -1.0137
 7291SOL    HW122273   6.586   2.536   0.914  0.2023 -0.6801 -1.1634
 7291SOL    HW222274   6.619   2.636   1.023 -0.8218  2.4159 -3.5660
 7292SOL     OW22275   2.670   5.691   5.555 -0.1803  0.0394 -0.0206
 7292SOL    HW122276   2.665   5.717   5.463 -0.3041  0.8632  0.2179
 7292SOL    HW222277   2.622   5.758   5.602  1.1348  0.4357  0.7992
 7293SOL     OW22278   6.108   1.920   5.195 -0.4393 -0.1948  0.1492
 7293SOL    HW122279   6.014   1.925   5.211 -1.0035 -2.3313 -1.9806
 7293SOL    HW222280   6.132   1.830   5.217  0.8834 -0.0057 -0.4123
 7294SOL     OW22281   3.289   4.667   4.211  0.2108 -0.7134  0.1278
 7294SOL    HW122282   3.374   4.634   4.183  0.9066  0.9914  0.1386
 7294SOL    HW222283   3.233   4.657   4.133  1.1999  0.7815 -0.8018
 7295SOL     OW22284   1.388   6.610   1.006 -0.0023 -0.4202 -0.1067
 7295SOL    HW122285   1.480   6.621   0.982  0.5308 -2.2026  0.9393
 7295SOL    HW222286   1.348   6.570   0.929  0.2328 -0.2079 -0.3432
 7296SOL     OW22287   0.280   1.668   2.966 -0.5787  0.4233  0.7035
 7296SOL    HW122288   0.190   1.640   2.980 -0.4653 -0.7794 -0.7618
 7296SOL    HW222289   0.274   1.764   2.960 -1.7313  0.3676  0.7555
 7297SOL     OW22290   5.940   1.291   1.321  0.1642 -0.1928  0.1922
 7297SOL    HW122291   6.033   1.281   1.300  0.4398  0.3457  1.1191
 7297SOL    HW222292   5.909   1.356   1.257  0.4957 -0.1457  0.0754
 7298SOL     OW22293   3.958   1.372   0.649 -0.1904 -0.1099 -0.0959
 7298SOL    HW122294   3.863   1.377   0.659 -0.1189  2.9198 -0.1050
 7298SOL    HW222295   3.973   1.369   0.555 -0.2464 -0.4977 -0.0960
 7299SOL     OW22296   0.188   5.811   2.254  0.3760 -0.3792 -0.3480
 7299SOL    HW122297   0.095   5.829   2.248  0.3559  0.0811  0.9656
 7299SOL    HW222298   0.227   5.893   2.286  0.8312 -1.3363  1.7781
 7300SOL     OW22299   5.595   2.901   2.768  0.4091  0.1174 -0.4714
 7300SOL    HW122300   5.514   2.877   2.723  0.3131  1.2757 -0.9462
 7300SOL    HW222301   5.663   2.895   2.701  0.9975 -2.2389  0.2566
 7301SOL     OW22302   6.355   3.579   5.473 -0.7663  0.5901  0.3095
 7301SOL    HW122303   6.398   3.542   5.550 -0.2981  1.2202  0.3566
 7301SOL    HW222304   6.420   3.573   5.404 -0.8140  0.9838  0.2276
 7302SOL     OW22305   4.415   3.658   0.858 -0.5166  0.2842  0.0552
 7302SOL    HW122306   4.320   3.662   0.844 -1.0582 -1.1199  2.7591
 7302SOL    HW222307   4.428   3.697   0.944  1.2087 -0.8228  0.3386
 7303SOL     OW22308   4.372   5.660   4.237  0.0175 -0.1107  0.2793
 7303SOL    HW122309   4.376   5.692   4.327  0.5955  0.7286 -0.0259
 7303SOL    HW222310   4.284   5.681   4.207 -0.0059  0.0786  0.4834
 7304SOL     OW22311   3.001   4.021   6.094  0.0880  0.4706  0.1053
 7304SOL    HW122312   2.912   4.058   6.093 -0.0227  0.2026 -0.8794
 7304SOL    HW222313   2.994   3.943   6.149 -0.0523  0.9944  0.8441
 7305SOL     OW22314   5.909   2.129   2.710  0.5000 -0.4039 -0.1230
 7305SOL    HW122315   5.928   2.221   2.727 -1.0523 -0.4367  2.2951
 7305SOL    HW222316   5.980   2.082   2.753  0.6954 -0.3790 -0.4112
 7306SOL     OW22317   3.853   5.747   5.242  0.1896  0.6960  0.0863
 7306SOL    HW122318   3.807   5.783   5.318 -1.1646  0.1844 -0.4711
 7306SOL    HW222319   3.862   5.653   5.262  2.1460  0.9618  0.7413
 7307SOL     OW22320   5.066   0.975   0.538 -0.4107 -0.0691 -0.2834
 7307SOL    HW122321   4.991   0.917   0.525 -0.3290  0.1054 -1.5851
 7307SOL    HW222322   5.117   0.968   0.458 -0.2780  1.6334 -0.3798
 7308SOL     OW22323   3.620   4.762   1.702 -0.1468  0.2602  0.2569
 7308SOL    HW122324   3.677   4.825   1.745 -0.1216  0.2635  0.2183
 7308SOL    HW222325   3.535   4.806   1.696  0.0148  0.5135 -0.2890
 7309SOL     OW22326   4.494   2.195   3.831 -0.2565  0.0431 -0.3603
 7309SOL    HW122327   4.498   2.115   3.779 -0.7213  0.0483 -0.4087
 7309SOL    HW222328   4.452   2.258   3.774  1.3060  0.7233 -0.8235
 7310SOL     OW22329   0.515   1.969   3.599 -0.1028 -0.3287  0.4286
 7310SOL    HW122330   0.434   1.990   3.644  0.6481 -0.3511  1.8469
 7310SOL    HW222331   0.580   1.957   3.669  1.1165 -0.3625 -0.6532
 7311SOL     OW22332   0.146   0.970   2.407  0.5886 -0.5580 -0.0195
 7311SOL    HW122333   0.061   0.945   2.372 -0.2506  0.0786  1.4554
 7311SOL    HW222334   0.160   1.059   2.373  0.4825 -0.5209  0.0323
 7312SOL     OW22335   0.530   3.573   2.086 -0.2872 -0.3730 -0.2368
 7312SOL    HW122336   0.595   3.632   2.048 -0.3804  0.4017  0.7678
 7312SOL    HW222337   0.580   3.520   2.148 -0.3699 -0.7176 -0.4663
 7313SOL     OW22338   4.726   1.275   5.404  0.0807 -0.2298 -0.2509
 7313SOL    HW122339   4.648   1.322   5.375  0.0875  0.8215  1.3558
 7313SOL    HW222340   4.756   1.322   5.481  2.0940 -0.8521 -0.5840
 7314SOL     OW22341   5.826   0.473   0.740  0.2237  0.2936 -0.1004
 7314SOL    HW122342   5.797   0.400   0.795 -0.9000 -0.2967 -1.4076
 7314SOL    HW222343   5.910   0.499   0.777 -0.7792  0.3786  2.3059
 7315SOL     OW22344   6.177   1.547   0.413 -0.2657 -0.3082  0.1509
 7315SOL    HW122345   6.178   1.586   0.325 -1.3002 -1.8662 -0.5919
 7315SOL    HW222346   6.263   1.505   0.421  1.3985  2.9591  1.4559
 7316SOL     OW22347   6.572   0.528   1.414 -0.0968 -0.0473 -0.2739
 7316SOL    HW122348   6.576   0.510   1.320  0.0297  0.1958 -0.3138
 7316SOL    HW222349   6.478   0.538   1.432 -0.3337 -2.1968  0.0227
 7317SOL     OW22350   1.255   0.555   3.243 -0.7014  0.0125  0.2354
 7317SOL    HW122351   1.231   0.640   3.281 -2.2893 -0.9739  1.5330
 7317SOL    HW222352   1.195   0.543   3.170  2.1793  1.7879 -2.7271
 7318SOL     OW22353   3.363   5.938   0.276 -0.7251 -0.1026 -0.1894
 7318SOL    HW122354   3.288   5.907   0.326 -1.7812  0.4336 -1.3834
 7318SOL    HW222355   3.332   5.942   0.185  1.1111 -1.0062 -0.9037
 7319SOL     OW22356   4.400   0.742   0.596  0.2746  0.2984  0.0734
 7319SOL    HW122357   4.350   0.766   0.517  0.1056  0.7187  0.3039
 7319SOL    HW222358   4.351   0.669   0.634 -0.0333  0.5432  0.1591
 7320SOL     OW22359   2.436   5.352   2.102 -0.2854 -0.3750 -0.1679
 7320SOL    HW122360   2.501   5.385   2.164  0.4001 -1.3831 -0.3394
 7320SOL    HW222361   2.450   5.405   2.023 -1.0347  0.7825  0.4472
 7321SOL     OW22362   2.323   4.032   5.552  0.7372 -0.6784  0.3357
 7321SOL    HW122363   2.389   3.963   5.546  1.2231 -0.2489  0.6473
 7321SOL    HW222364   2.370   4.107   5.590  0.8564  0.6030 -2.1039
 7322SOL     OW22365   6.636   1.723   4.620 -0.0981  0.6018 -0.3146
 7322SOL    HW122366   6.676   1.719   4.533 -0.1304  2.2725 -0.4503
 7322SOL    HW222367   6.542   1.716   4.602 -0.0323 -0.7411 -0.2342
 7323SOL     OW22368   2.983   5.895   5.234  0.6515  0.3774 -0.1330
 7323SOL    HW122369   2.963   5.985   5.260  0.6209  0.6491 -1.0592
 7323SOL    HW222370   2.969   5.894   5.140  1.4253 -0.3958 -0.2500
 7324SOL     OW22371   5.026   6.087   4.342  0.5581  0.3027 -0.3486
 7324SOL    HW122372   4.975   6.150   4.292  2.2198  0.9382 -1.3450
 7324SOL    HW222373   5.044   6.016   4.280  0.1333 -0.3378  0.2549
 7325SOL     OW22374   4.442   2.870   2.275 -0.4713  0.2371  0.3085
 7325SOL    HW122375   4.435   2.775   2.268  1.6438  0.0723  0.0323
 7325SOL    HW222376   4.379   2.903   2.211 -0.3189 -0.9932 -0.5038
 7326SOL     OW22377   1.483   2.750   1.085 -1.1062 -0.4912 -0.4805
 7326SOL    HW122378   1.463   2.745   0.992 -0.9772 -1.2326 -0.4710
 7326SOL    HW222379   1.542   2.677   1.101 -0.1526  0.3527 -0.0568
 7327SOL     OW22380   4.520   2.229   0.104  0.2925  0.5661  0.1094
 7327SOL    HW122381   4.519   2.137   0.076  0.6197  1.3698 -2.8236
 7327SOL    HW222382   4.427   2.252   0.114  0.2162 -0.2928  1.9470
 7328SOL     OW22383   1.514   6.171   6.204 -0.0751 -0.1243  0.1645
 7328SOL    HW122384   1.573   6.120   6.260  1.4259 -1.9412 -2.7834
 7328SOL    HW222385   1.572   6.217   6.143 -1.6285  0.7786 -0.7079
 7329SOL     OW22386   2.636   0.267   2.606  0.6717 -0.1503 -0.2800
 7329SOL    HW122387   2.644   0.248   2.700 -4.2656  0.3630  0.5387
 7329SOL    HW222388   2.634   0.181   2.564  0.8550 -0.4842  0.3884
 7330SOL     OW22389   0.563   6.464   1.497  0.2051 -0.2290 -0.2699
 7330SOL    HW122390   0.524   6.532   1.551 -0.3512 -2.7491  2.8486
 7330SOL    HW222391   0.492   6.434   1.440 -1.0477 -1.4084  1.8177
 7331SOL     OW22392   1.218   1.456   3.002  0.3589  0.0373  0.2023
 7331SOL    HW122393   1.215   1.385   3.066 -1.6524  0.0588  0.2073
 7331SOL    HW222394   1.298   1.504   3.022 -0.3672  0.2516  2.9624
 7332SOL     OW22395   1.125   3.201   0.804  0.1909 -0.9347 -0.0530
 7332SOL    HW122396   1.042   3.238   0.776  0.5776  2.0837  2.3002
 7332SOL    HW222397   1.104   3.148   0.880  0.3926 -0.1157  0.5844
 7333SOL     OW22398   2.156   5.643   6.764 -0.1375  0.7030 -0.1807
 7333SOL    HW122399   2.202   5.582   6.821  0.4021 -0.3563 -1.6778
 7333SOL    HW222400   2.101   5.694   6.823  2.3474  1.5180  1.5987
 7334SOL     OW22401   1.628   2.549   4.028 -0.2525 -0.0795  0.8180
 7334SOL    HW122402   1.564   2.558   4.099  0.2825 -0.0473  1.3068
 7334SOL    HW222403   1.582   2.503   3.959 -0.4094 -1.2336  1.6711
 7335SOL     OW22404   0.237   6.657   4.599 -0.2989 -0.0132  0.1931
 7335SOL    HW122405   0.249   6.750   4.581 -0.5545  0.1241  0.7292
 7335SOL    HW222406   0.202   6.622   4.517  0.0460  0.3081 -0.0983
 7336SOL     OW22407   3.127   1.817   0.702  0.3956 -0.1720 -0.3962
 7336SOL    HW122408   3.062   1.822   0.773  0.4688 -1.7566 -0.1938
 7336SOL    HW222409   3.079   1.781   0.628  0.8116 -0.4718 -0.5236
 7337SOL     OW22410   6.449   1.062   0.488 -0.5315 -0.3214  0.2506
 7337SOL    HW122411   6.474   1.095   0.401 -0.0396  1.0192  0.8665
 7337SOL    HW222412   6.360   1.029   0.476 -1.3334  1.8217 -0.3457
 7338SOL     OW22413   4.678   0.254   1.891 -0.3535  0.1376 -0.0079
 7338SOL    HW122414   4.691   0.335   1.842 -0.3445 -1.1460 -2.2311
 7338SOL    HW222415   4.598   0.216   1.856  0.0740 -1.2182  0.4050
 7339SOL     OW22416   3.679   2.552   0.394  0.2761 -1.2751  0.0844
 7339SOL    HW122417   3.699   2.511   0.310 -0.5590  1.3302 -1.4956
 7339SOL    HW222418   3.590   2.585   0.385  1.3783  2.2535  0.5343
 7340SOL     OW22419   2.295   6.377   5.927  0.2344 -0.0977 -0.2169
 7340SOL    HW122420   2.277   6.437   6.000 -0.7947  1.5294 -1.7159
 7340SOL    HW222421   2.390   6.375   5.921  0.3252  0.1346  0.8515
 7341SOL     OW22422   5.812   4.843   2.509 -0.3638 -0.5798 -0.0707
 7341SOL    HW122423   5.881   4.887   2.458 -0.6091 -2.2696 -1.9991
 7341SOL    HW222424   5.824   4.750   2.489 -2.8119 -0.9680  0.0218
 7342SOL     OW22425   2.168   4.249   6.320  0.1784  0.4573 -0.0368
 7342SOL    HW122426   2.208   4.307   6.255 -0.6632  2.0674  0.8282
 7342SOL    HW222427   2.202   4.162   6.298 -0.2828  0.8796 -2.7814
 7343SOL     OW22428   0.089   4.932   1.478 -0.4554  0.4629 -0.2654
 7343SOL    HW122429  -0.002   4.909   1.497 -0.0399 -0.8262  0.3393
 7343SOL    HW222430   0.098   4.919   1.384 -0.6533 -0.4106 -0.1730
 7344SOL     OW22431   0.495   4.183   5.755  0.4135 -0.3185  0.1416
 7344SOL    HW122432   0.479   4.088   5.752 -0.6015 -0.1638  0.1975
 7344SOL    HW222433   0.441   4.214   5.828  3.1214 -0.1001  2.2218
 7345SOL     OW22434   4.309   6.092   3.404  0.0153  0.3593  0.1217
 7345SOL    HW122435   4.264   6.020   3.449  0.1677  0.4515  0.4222
 7345SOL    HW222436   4.326   6.058   3.317  1.2155 -0.4471  0.6383
 7346SOL     OW22437   0.233   2.439   2.264 -0.1925  0.3845  0.4149
 7346SOL    HW122438   0.215   2.427   2.357 -0.1893 -2.2063  0.1381
 7346SOL    HW222439   0.189   2.366   2.221 -0.2917  1.5734 -1.6666
 7347SOL     OW22440   0.466   2.078   6.304 -0.4514 -0.3617  0.3982
 7347SOL    HW122441   0.428   2.158   6.341 -2.7160 -1.6468  1.0137
 7347SOL    HW222442   0.419   2.007   6.346  2.4454 -2.1415  0.8861
 7348SOL     OW22443   5.913   0.501   1.827 -0.1735  0.0165 -0.0469
 7348SOL    HW122444   5.926   0.576   1.885 -0.3857  1.4303 -1.7546
 7348SOL    HW222445   5.868   0.436   1.882  0.7737  0.7585  1.7144
 7349SOL     OW22446   0.435   2.723   5.996  0.0856  0.1871  0.1852
 7349SOL    HW122447   0.466   2.646   6.044  1.3437  1.1040  0.9110
 7349SOL    HW222448   0.367   2.760   6.051  0.0845  0.0836  0.2532
 7350SOL     OW22449   1.494   3.721   4.693 -0.0050 -0.1188  0.0790
 7350SOL    HW122450   1.412   3.726   4.742  0.6238  0.1163  1.1408
 7350SOL    HW222451   1.508   3.628   4.678  0.2939 -0.2745  1.2440
 7351SOL     OW22452   1.233   2.128   4.606 -0.3405  0.2069  0.3818
 7351SOL    HW122453   1.203   2.195   4.669 -0.4825 -0.6377  1.2309
 7351SOL    HW222454   1.304   2.083   4.651 -0.7390 -0.7038  0.1111
 7352SOL     OW22455   1.694   4.558   6.217 -0.0069  0.2238  0.1450
 7352SOL    HW122456   1.697   4.639   6.267 -0.0067  0.8052 -0.7736
 7352SOL    HW222457   1.659   4.493   6.278 -1.2807  1.2152  0.5048
 7353SOL     OW22458   4.168   6.714   0.484 -0.0872 -0.1525  0.0317
 7353SOL    HW122459   4.148   6.790   0.537 -1.6234 -0.4724 -0.0390
 7353SOL    HW222460   4.247   6.738   0.436 -0.2886  1.2124  0.3521
 7354SOL     OW22461   5.299   0.517   3.961  0.3229 -0.2679 -0.4924
 7354SOL    HW122462   5.307   0.558   3.875  1.3252 -0.4060 -0.4871
 7354SOL    HW222463   5.225   0.458   3.954  0.8198 -0.7801 -1.4742
 7355SOL     OW22464   0.724   3.212   1.724  0.1407  0.2288 -0.1421
 7355SOL    HW122465   0.801   3.231   1.778 -1.2494  2.4944  1.1924
 7355SOL    HW222466   0.667   3.161   1.780  0.1425 -0.4392 -0.7290
 7356SOL     OW22467   0.713   4.983   5.039 -0.1950 -0.4181  0.0650
 7356SOL    HW122468   0.632   4.953   4.998 -0.7844 -0.5370  1.2533
 7356SOL    HW222469   0.684   5.043   5.108  0.6773 -1.1013  1.0544
 7357SOL     OW22470   4.496   5.732   6.552  0.6332 -0.4681  0.2059
 7357SOL    HW122471   4.440   5.665   6.592 -1.7086  0.6810 -0.9238
 7357SOL    HW222472   4.549   5.684   6.489 -1.1546 -1.3139 -0.7504
 7358SOL     OW22473   5.339   4.164   1.011  0.7771  1.2776  0.0218
 7358SOL    HW122474   5.311   4.247   1.050  1.7714  1.9074 -0.5665
 7358SOL    HW222475   5.388   4.189   0.932  1.2235  0.1393 -0.0875
 7359SOL     OW22476   2.690   1.874   3.710  0.0605  0.1662  0.1969
 7359SOL    HW122477   2.731   1.886   3.796 -0.1728 -2.9284  0.8366
 7359SOL    HW222478   2.645   1.957   3.694  2.2948  1.8110  1.7922
 7360SOL     OW22479   1.042   1.177   6.636  0.4608  0.3904 -0.9464
 7360SOL    HW122480   0.955   1.212   6.655  0.3182 -0.7823  0.7810
 7360SOL    HW222481   1.056   1.111   6.703  1.8987 -0.8301 -2.3667
 7361SOL     OW22482   0.632   4.446   2.196  0.7277  0.4524 -0.6536
 7361SOL    HW122483   0.639   4.427   2.289 -1.9414  0.2717 -0.4227
 7361SOL    HW222484   0.703   4.508   2.179  3.0808 -1.6016  0.8134
 7362SOL     OW22485   6.439   1.191   2.179 -0.0485  0.0809 -0.6488
 7362SOL    HW122486   6.456   1.191   2.084  1.8397 -1.0176 -0.3652
 7362SOL    HW222487   6.457   1.101   2.207 -0.2802  0.4583  0.8043
 7363SOL     OW22488   6.750   3.019   0.595  0.4434  0.5383 -0.0068
 7363SOL    HW122489   6.813   2.948   0.587  0.2846  0.3962 -0.0181
 7363SOL    HW222490   6.716   3.011   0.684 -1.0802 -0.6888 -0.6453
 7364SOL     OW22491   3.536   1.574   2.039  0.0248  0.3571 -0.0599
 7364SOL    HW122492   3.495   1.616   1.964 -0.9132  1.1464  0.8645
 7364SOL    HW222493   3.607   1.633   2.065  0.0338  0.3327 -0.0282
 7365SOL     OW22494   0.192   5.912   6.780  0.8812  0.3196 -0.5302
 7365SOL    HW122495   0.214   5.998   6.816  0.8822  0.4357 -0.8057
 7365SOL    HW222496   0.258   5.853   6.815 -0.0125  0.1268  0.9108
 7366SOL     OW22497   5.058   0.982   1.620 -0.0566  0.0854 -0.0232
 7366SOL    HW122498   4.998   0.995   1.693  0.4408 -0.4369  0.4935
 7366SOL    HW222499   5.098   1.068   1.606 -0.0968  0.1729  0.3782
 7367SOL     OW22500   2.954   5.694   1.349 -0.2745  0.2051  0.0980
 7367SOL    HW122501   3.005   5.731   1.421 -0.2693 -0.1011  0.2515
 7367SOL    HW222502   2.915   5.615   1.385 -1.5955  0.9017  0.2727
 7368SOL     OW22503   2.222   5.237   4.112  0.2618 -0.4419 -0.3848
 7368SOL    HW122504   2.218   5.208   4.203 -0.5248  1.5688  0.2804
 7368SOL    HW222505   2.274   5.317   4.114 -1.5774  0.8466 -1.3101
 7369SOL     OW22506   5.944   5.517   3.371 -0.0349 -0.2728  0.2858
 7369SOL    HW122507   5.919   5.428   3.396  0.6035 -0.1937  1.2355
 7369SOL    HW222508   5.905   5.573   3.438  0.3568  0.0850  0.2169
 7370SOL     OW22509   3.754   3.383   0.115 -0.1274  0.0301 -0.0645
 7370SOL    HW122510   3.788   3.456   0.064 -0.0738 -0.2562 -0.4428
 7370SOL    HW222511   3.801   3.306   0.082  0.3867 -0.0735  0.8600
 7371SOL     OW22512   2.347   3.358   4.015  0.2832  0.2067  0.6171
 7371SOL    HW122513   2.390   3.275   3.994 -2.6951 -1.1644 -0.6653
 7371SOL    HW222514   2.317   3.347   4.105  0.3727  0.1104  0.6355
 7372SOL     OW22515   3.595   4.986   2.911  0.1830 -0.6365  0.2754
 7372SOL    HW122516   3.508   4.947   2.918  0.4011 -1.0411  0.7151
 7372SOL    HW222517   3.655   4.912   2.906  0.4108 -0.3764 -1.3766
 7373SOL     OW22518   5.696   6.114   6.197 -0.0466 -0.1114  0.3479
 7373SOL    HW122519   5.764   6.179   6.181  0.9295 -1.0680  0.4769
 7373SOL    HW222520   5.616   6.165   6.212  0.6627  1.0345  0.3078
 7374SOL     OW22521   0.240   3.973   1.060 -0.0528 -0.4563 -0.9968
 7374SOL    HW122522   0.225   3.962   0.966 -0.2080 -1.8023 -0.8334
 7374SOL    HW222523   0.313   3.915   1.080 -1.3717 -1.8450  0.0769
 7375SOL     OW22524   0.875   4.359   6.067  0.5870 -0.7230  0.2683
 7375SOL    HW122525   0.882   4.280   6.121 -1.7552 -1.3584 -0.2474
 7375SOL    HW222526   0.867   4.326   5.978  3.6798  0.2950 -0.4969
 7376SOL     OW22527   3.863   1.566   6.633 -0.0593 -0.0202  0.2440
 7376SOL    HW122528   3.918   1.529   6.703 -1.5021 -1.8122  0.5344
 7376SOL    HW222529   3.802   1.623   6.679 -0.7370 -0.8727  0.4394
 7377SOL     OW22530   6.411   1.184   4.796  0.3901  0.0305  0.5874
 7377SOL    HW122531   6.373   1.192   4.883  1.0399 -0.5525  0.9417
 7377SOL    HW222532   6.457   1.267   4.782 -2.3522  1.4664 -0.5631
 7378SOL     OW22533   0.994   4.723   3.965 -0.4470  0.4256 -0.0949
 7378SOL    HW122534   0.929   4.664   4.003 -1.1695  0.6440 -0.9432
 7378SOL    HW222535   0.943   4.797   3.933  0.1590  0.4127 -1.1530
 7379SOL     OW22536   6.502   5.136   2.736  0.0368 -0.1884 -0.1363
 7379SOL    HW122537   6.545   5.090   2.663  2.0468 -0.1553  0.9646
 7379SOL    HW222538   6.524   5.228   2.723  0.3107 -0.1689  0.4355
 7380SOL     OW22539   0.203   2.539   5.765 -0.6118 -0.8010  0.3390
 7380SOL    HW122540   0.133   2.499   5.818 -1.6590 -0.3020 -0.6094
 7380SOL    HW222541   0.176   2.630   5.756  0.1078 -0.6335 -0.1482
 7381SOL     OW22542   0.074   0.472   5.170 -0.2586  0.0784 -0.0259
 7381SOL    HW122543   0.123   0.554   5.163  1.0061 -0.6681 -0.4221
 7381SOL    HW222544   0.141   0.404   5.164 -1.2429 -0.9840  0.6228
 7382SOL     OW22545   5.367   2.976   1.107 -0.4026 -0.2949  0.1557
 7382SOL    HW122546   5.344   3.061   1.070 -0.7197 -1.3906 -2.4167
 7382SOL    HW222547   5.454   2.957   1.072 -0.6278 -1.3076  0.1129
 7383SOL     OW22548   4.923   2.450   0.395 -0.6071  0.4427 -0.2424
 7383SOL    HW122549   4.911   2.378   0.334 -0.1628  1.1972 -1.2502
 7383SOL    HW222550   5.018   2.461   0.402 -0.6617  0.7209  0.1528
 7384SOL     OW22551   2.960   6.662   5.979 -0.3863 -0.8286  0.0194
 7384SOL    HW122552   2.932   6.573   5.956 -1.2927 -0.4308 -0.4626
 7384SOL    HW222553   2.879   6.709   5.998 -0.0302  0.2335 -0.9766
 7385SOL     OW22554   0.205   1.935   2.112  0.0906  0.3733  0.2359
 7385SOL    HW122555   0.233   1.888   2.033 -0.4848 -0.4396  0.4982
 7385SOL    HW222556   0.182   1.866   2.174 -0.9651  0.9894  0.5633
 7386SOL     OW22557   5.873   5.264   3.455 -0.1767  0.1920 -0.6392
 7386SOL    HW122558   5.781   5.238   3.457 -0.0164 -0.3669  0.7462
 7386SOL    HW222559   5.913   5.204   3.392 -0.8433  0.8040 -1.6747
 7387SOL     OW22560   1.801   0.695   2.141  0.5438  0.3778  0.5563
 7387SOL    HW122561   1.714   0.656   2.135  0.7943 -0.4590  1.8488
 7387SOL    HW222562   1.802   0.765   2.075 -0.7537 -0.2451 -0.1391
 7388SOL     OW22563   3.939   0.407   3.910  0.3613  0.7743  0.4043
 7388SOL    HW122564   3.965   0.341   3.975  1.1042  0.4244 -0.2287
 7388SOL    HW222565   4.009   0.405   3.845 -1.0788  0.0587 -1.1963
 7389SOL     OW22566   2.502   5.648   5.010  0.1873  0.3014  0.3762
 7389SOL    HW122567   2.479   5.630   5.101  1.7797  0.3961  0.8273
 7389SOL    HW222568   2.569   5.583   4.989 -0.4332  0.0441 -0.8535
 7390SOL     OW22569   6.737   2.841   3.340 -0.0416 -0.4766 -0.2903
 7390SOL    HW122570   6.830   2.863   3.350 -0.0923 -0.1994 -0.4082
 7390SOL    HW222571   6.736   2.747   3.322  0.2171 -0.4742 -0.3209
 7391SOL     OW22572   6.541   5.258   3.301  0.0334  0.4962 -0.2484
 7391SOL    HW122573   6.477   5.328   3.288  0.1828  0.5890 -0.4820
 7391SOL    HW222574   6.545   5.213   3.217  2.4835  2.3348 -1.1966
 7392SOL     OW22575   0.014   3.059   4.270  1.0698  0.0216  0.1770
 7392SOL    HW122576   0.058   3.135   4.309  1.2131  0.5241 -0.9110
 7392SOL    HW222577   0.084   2.994   4.261  0.9326 -0.2731  1.1769
 7393SOL     OW22578   5.772   4.561   4.005  0.1254  0.4179  0.3087
 7393SOL    HW122579   5.853   4.586   4.049  0.5771  1.5770 -1.0882
 7393SOL    HW222580   5.798   4.488   3.948  0.1870  0.7303 -0.0710
 7394SOL     OW22581   4.322   4.125   3.120 -0.2880  0.8758 -0.4628
 7394SOL    HW122582   4.392   4.154   3.179 -0.4014  0.4860 -0.1310
 7394SOL    HW222583   4.305   4.034   3.145 -1.6093  1.2678  0.1676
 7395SOL     OW22584   0.756   4.752   6.302 -0.6648 -0.2316  0.4280
 7395SOL    HW122585   0.774   4.702   6.382 -1.2453 -1.2876 -0.0816
 7395SOL    HW222586   0.784   4.694   6.231  2.0989  1.6103 -0.1331
 7396SOL     OW22587   4.136   6.076   0.362 -0.8465  0.1899  0.1097
 7396SOL    HW122588   4.220   6.043   0.332 -0.9088  0.7369 -0.7004
 7396SOL    HW222589   4.143   6.171   0.353 -0.9921  0.3458  1.5302
 7397SOL     OW22590   0.321   4.820   0.924  0.4075 -0.0850  0.2525
 7397SOL    HW122591   0.366   4.740   0.950 -0.1470 -0.7635 -0.8197
 7397SOL    HW222592   0.358   4.842   0.838  0.9742  1.1499  0.7797
 7398SOL     OW22593   3.405   4.245   5.977 -0.6755  0.3987  0.1662
 7398SOL    HW122594   3.500   4.237   5.964 -0.8278  0.0902 -0.9015
 7398SOL    HW222595   3.388   4.339   5.977 -0.9206  0.6561 -4.8402
 7399SOL     OW22596   3.865   4.631   5.369  0.0520  0.3216 -0.1824
 7399SOL    HW122597   3.877   4.602   5.278 -0.7405  0.3378 -0.3055
 7399SOL    HW222598   3.775   4.603   5.390  1.0228 -1.8884  1.4100
 7400SOL     OW22599   4.512   3.545   5.436 -0.0850  0.4773  0.1117
 7400SOL    HW122600   4.572   3.471   5.424  0.0039  0.2230  1.8621
 7400SOL    HW222601   4.483   3.567   5.347  1.4773 -0.3172 -0.6470
 7401SOL     OW22602   1.861   3.189   1.948 -0.1651  0.4718  0.1354
 7401SOL    HW122603   1.800   3.239   1.894 -0.9908  0.4000  0.9661
 7401SOL    HW222604   1.810   3.167   2.026 -0.4221 -3.0632 -0.8581
 7402SOL     OW22605   1.306   6.404   3.782 -0.3344  0.1686  0.1660
 7402SOL    HW122606   1.355   6.323   3.793  0.7235  0.9470  1.5852
 7402SOL    HW222607   1.258   6.415   3.864  0.0158  1.2648  0.2506
 7403SOL     OW22608   2.974   3.479   2.445  0.0180 -0.4115  0.3522
 7403SOL    HW122609   2.959   3.402   2.499  1.2340 -1.1063 -0.2566
 7403SOL    HW222610   2.985   3.550   2.508 -1.1998 -0.6929  0.9176
 7404SOL     OW22611   2.381   2.846   0.511 -0.3757 -0.4124  0.1840
 7404SOL    HW122612   2.319   2.915   0.488  0.5974  0.1399 -0.8616
 7404SOL    HW222613   2.327   2.767   0.515 -0.9736 -0.1715 -1.9296
 7405SOL     OW22614   3.589   4.539   4.691  0.3528  0.0893  0.1737
 7405SOL    HW122615   3.534   4.509   4.619  0.4569 -0.9215  0.5050
 7405SOL    HW222616   3.552   4.497   4.769 -1.2429  2.9539  1.1572
 7406SOL     OW22617   4.232   4.483   3.219 -0.3370  0.4237  0.1200
 7406SOL    HW122618   4.295   4.417   3.249  0.2146  0.6450 -0.5103
 7406SOL    HW222619   4.278   4.566   3.230  0.1979  0.4676 -1.9927
 7407SOL     OW22620   2.664   2.552   5.152  0.0195 -0.0980  0.2210
 7407SOL    HW122621   2.580   2.528   5.192  0.3192  0.7379  1.3956
 7407SOL    HW222622   2.650   2.641   5.119  0.6355  0.3053  1.0213
 7408SOL     OW22623   4.794   2.308   0.619 -0.0352 -0.8533  0.3130
 7408SOL    HW122624   4.805   2.400   0.594 -1.8407 -0.6544  0.1243
 7408SOL    HW222625   4.851   2.297   0.695 -0.8026  0.8057  1.1744
 7409SOL     OW22626   3.115   1.981   4.103 -0.4675  0.3837 -0.3527
 7409SOL    HW122627   3.101   1.923   4.178 -2.6565  0.6838 -0.4539
 7409SOL    HW222628   3.186   1.940   4.054 -1.3095 -1.7147  0.0699
 7410SOL     OW22629   4.062   0.362   6.115 -0.3657 -0.4265 -0.0522
 7410SOL    HW122630   4.090   0.379   6.025 -1.1503  1.0408 -0.0627
 7410SOL    HW222631   4.029   0.272   6.114 -4.3243  0.7678 -2.3639
 7411SOL     OW22632   6.272   3.357   3.132 -0.1730 -0.3359 -0.0877
 7411SOL    HW122633   6.240   3.380   3.220 -1.3360  1.6281 -0.9670
 7411SOL    HW222634   6.216   3.284   3.105 -1.0477  0.2596  0.0866
 7412SOL     OW22635   0.945   3.869   5.242 -0.4889  0.3128 -0.0558
 7412SOL    HW122636   1.014   3.895   5.181 -0.8599 -0.4940 -0.8433
 7412SOL    HW222637   0.897   3.800   5.196 -0.4040 -0.7507  1.3750
 7413SOL     OW22638   4.163   4.255   1.776  0.4177 -0.0397  0.2281
 7413SOL    HW122639   4.221   4.242   1.701 -0.3546 -2.3299 -0.0257
 7413SOL    HW222640   4.175   4.177   1.830 -0.8767  0.4342  1.2629
 7414SOL     OW22641   2.910   0.778   4.215  0.6967  0.3742 -0.5237
 7414SOL    HW122642   2.865   0.855   4.251  0.8929  0.4831 -0.5105
 7414SOL    HW222643   2.991   0.771   4.266  0.8819  0.4131 -0.8124
 7415SOL     OW22644   0.664   3.353   2.970 -0.0192 -0.2617 -0.6086
 7415SOL    HW122645   0.707   3.287   2.917  0.8717 -0.5251  0.4203
 7415SOL    HW222646   0.707   3.349   3.055 -0.7538  0.8208 -0.1512
 7416SOL     OW22647   1.786   0.855   2.862  0.4443  0.2891 -0.4396
 7416SOL    HW122648   1.787   0.775   2.915 -0.5945 -0.8177 -1.9928
 7416SOL    HW222649   1.875   0.861   2.825 -0.0855 -1.5582 -2.2148
 7417SOL     OW22650   4.656   5.429   3.697  0.5805 -0.2414 -0.0535
 7417SOL    HW122651   4.737   5.381   3.678  0.7550 -0.0267  0.1388
 7417SOL    HW222652   4.674   5.519   3.667  0.3528 -0.2324 -0.1654
 7418SOL     OW22653   1.966   5.512   0.300 -0.3484  0.6724  0.5356
 7418SOL    HW122654   1.879   5.541   0.271 -1.1827 -0.7026  1.5639
 7418SOL    HW222655   1.997   5.583   0.356 -0.8584  1.1076  0.2831
 7419SOL     OW22656   2.722   4.827   5.505  0.1731 -0.0881 -0.2682
 7419SOL    HW122657   2.756   4.858   5.589 -0.8134  0.7454 -0.1515
 7419SOL    HW222658   2.717   4.906   5.451  0.4639 -0.5615 -1.0013
 7420SOL     OW22659   6.106   0.725   4.381  0.1320  0.0316 -0.0217
 7420SOL    HW122660   6.019   0.765   4.375  0.4333  0.6436 -0.4256
 7420SOL    HW222661   6.167   0.799   4.381  0.6013 -0.3143  1.8669
 7421SOL     OW22662   2.967   0.304   5.203 -0.3111 -0.0652 -0.6210
 7421SOL    HW122663   3.024   0.275   5.132  0.9402 -0.3837  0.4672
 7421SOL    HW222664   2.949   0.396   5.183  1.6876  0.4325 -0.3358
 7422SOL     OW22665   3.311   4.513   3.371 -0.1793  0.3992 -0.5388
 7422SOL    HW122666   3.230   4.529   3.323  1.3106  0.7921 -3.0987
 7422SOL    HW222667   3.319   4.418   3.374 -0.9527  0.3404  0.2137
 7423SOL     OW22668   2.750   2.485   2.429 -0.9452 -0.3225  0.1675
 7423SOL    HW122669   2.805   2.537   2.487  0.2570  0.5347 -1.6462
 7423SOL    HW222670   2.700   2.429   2.488  0.4107  0.2808  2.0012
 7424SOL     OW22671   6.512   0.118   0.495  0.2073 -0.1407 -0.2665
 7424SOL    HW122672   6.482   0.179   0.428  0.5534  0.0546 -0.2445
 7424SOL    HW222673   6.602   0.145   0.514  0.1893 -0.3371  0.1115
 7425SOL     OW22674   2.954   0.639   0.829 -0.1470 -0.0281  0.0202
 7425SOL    HW122675   2.955   0.724   0.786  0.2030 -0.0897 -0.0938
 7425SOL    HW222676   3.046   0.612   0.831 -0.4252 -1.2082 -1.5140
 7426SOL     OW22677   4.840   2.798   2.515  0.5501  0.4902  0.4822
 7426SOL    HW122678   4.753   2.827   2.542  0.8900  1.6221  0.4458
 7426SOL    HW222679   4.827   2.709   2.482 -0.6639  0.7881  0.0961
 7427SOL     OW22680   5.039   4.263   1.662 -0.3700 -0.3156  0.4798
 7427SOL    HW122681   4.988   4.311   1.597  0.6768 -0.2555 -0.3359
 7427SOL    HW222682   5.006   4.293   1.746 -0.9605  0.4914 -0.0283
 7428SOL     OW22683   2.739   4.906   2.200  0.2332 -0.1285 -0.1516
 7428SOL    HW122684   2.752   4.822   2.156 -1.8382 -0.1000 -0.9401
 7428SOL    HW222685   2.776   4.893   2.287 -0.0295 -1.8806 -0.2633
 7429SOL     OW22686   4.062   6.064   1.232 -0.1083  0.0078  0.2922
 7429SOL    HW122687   4.024   6.074   1.145  1.1436  0.6758 -0.2037
 7429SOL    HW222688   4.135   6.004   1.220  1.8999  2.2700  0.2246
 7430SOL     OW22689   1.835   5.960   4.845 -0.2901  0.4213  0.4980
 7430SOL    HW122690   1.889   5.896   4.891 -0.2071  0.0595 -0.0918
 7430SOL    HW222691   1.840   6.039   4.899  0.3382  0.2100  0.7576
 7431SOL     OW22692   3.341   1.879   3.978 -0.2756 -0.0434  0.5949
 7431SOL    HW122693   3.346   1.908   3.887  0.8683  2.3902  1.3458
 7431SOL    HW222694   3.395   1.799   3.980 -0.0600  0.0419 -0.7857
 7432SOL     OW22695   5.898   5.276   4.669 -0.3842  0.6985  0.2535
 7432SOL    HW122696   5.883   5.184   4.645  1.1873  0.7543 -1.1652
 7432SOL    HW222697   5.974   5.273   4.727 -1.5000  0.9808  1.7995
 7433SOL     OW22698   4.639   4.908   5.339 -0.1009  0.0907  0.3703
 7433SOL    HW122699   4.701   4.969   5.299  1.1801 -0.7798  0.9457
 7433SOL    HW222700   4.633   4.937   5.430  1.0004 -0.9902  0.8021
 7434SOL     OW22701   2.545   2.014   5.603  0.4318  0.0375 -0.5537
 7434SOL    HW122702   2.521   1.976   5.518 -0.8566  0.7582 -0.5391
 7434SOL    HW222703   2.577   1.940   5.654  0.6541 -0.5139 -1.4725
 7435SOL     OW22704   2.416   3.273   2.591  0.3283  0.3405  0.1672
 7435SOL    HW122705   2.480   3.218   2.637 -0.4632 -0.5872  0.1810
 7435SOL    HW222706   2.356   3.302   2.660 -1.3074 -1.6655 -0.3110
 7436SOL     OW22707   4.548   4.199   4.231  0.6277 -0.0396  1.3180
 7436SOL    HW122708   4.541   4.129   4.165  3.0380 -0.2005  1.1138
 7436SOL    HW222709   4.461   4.205   4.269 -2.1737  2.6017 -4.3188
 7437SOL     OW22710   4.945   4.410   2.833 -0.5051 -0.2134 -0.2893
 7437SOL    HW122711   4.988   4.420   2.918 -0.2481  1.1195 -0.5594
 7437SOL    HW222712   4.960   4.493   2.788  1.8352 -1.8495 -2.8103
 7438SOL     OW22713   3.994   3.135   5.212 -0.1989 -0.0983  0.0222
 7438SOL    HW122714   4.015   3.056   5.261 -0.0244  0.1610  0.3719
 7438SOL    HW222715   3.985   3.106   5.121  1.7008 -0.2205 -0.1603
 7439SOL     OW22716   6.323   6.429   2.207  0.7843  0.2567  0.0144
 7439SOL    HW122717   6.276   6.504   2.170  0.3234  0.5035  1.0713
 7439SOL    HW222718   6.297   6.355   2.151 -0.2222  0.5429  0.0733
 7440SOL     OW22719   1.384   1.156   2.055 -0.2154 -0.0060 -0.3319
 7440SOL    HW122720   1.366   1.234   2.003 -1.7752 -0.6496 -0.8164
 7440SOL    HW222721   1.451   1.109   2.006  0.9976  1.1732  0.1442
 7441SOL     OW22722   0.484   1.135   6.310 -0.2824 -0.0719 -0.1807
 7441SOL    HW122723   0.448   1.177   6.388 -0.4831 -1.0483  0.2709
 7441SOL    HW222724   0.556   1.082   6.344  0.1331  0.1065 -0.7735
 7442SOL     OW22725   1.657   6.609   0.040  0.0494 -0.0257 -0.4835
 7442SOL    HW122726   1.725   6.651  -0.012 -0.3071  0.1754 -0.8005
 7442SOL    HW222727   1.586   6.594  -0.023 -0.0248 -0.6341 -0.2550
 7443SOL     OW22728   1.747   3.420   1.785  0.9066  0.3142  0.4978
 7443SOL    HW122729   1.789   3.502   1.809  1.5613 -0.2769  1.4083
 7443SOL    HW222730   1.785   3.398   1.700 -0.5614  1.8147 -0.6081
 7444SOL     OW22731   2.652   0.613   3.364  0.9084 -0.0418  0.0802
 7444SOL    HW122732   2.726   0.608   3.303 -0.9629 -0.3347 -2.2904
 7444SOL    HW222733   2.591   0.674   3.323 -0.7844 -0.8586  1.2744
 7445SOL     OW22734   1.580   1.359   1.839 -0.6285 -0.5381 -0.5907
 7445SOL    HW122735   1.530   1.382   1.760  0.5015 -1.2227 -1.5526
 7445SOL    HW222736   1.671   1.372   1.813 -0.2782  0.8289  1.1684
 7446SOL     OW22737   6.691   0.852   5.648  0.3153  0.3548 -0.0336
 7446SOL    HW122738   6.677   0.910   5.723 -0.2050 -0.4313  0.4939
 7446SOL    HW222739   6.782   0.825   5.655  0.2196  0.1295  0.4479
 7447SOL     OW22740   6.250   3.245   3.694  0.4557 -0.2001  0.1834
 7447SOL    HW122741   6.301   3.217   3.771  2.3022  0.3656 -0.7705
 7447SOL    HW222742   6.296   3.323   3.663 -0.0705 -0.6011 -1.6835
 7448SOL     OW22743   4.506   1.404   5.312  0.3984 -0.2438  0.5816
 7448SOL    HW122744   4.485   1.389   5.220 -1.3663  0.5916  0.8037
 7448SOL    HW222745   4.551   1.489   5.313  0.5257 -0.3111  0.4723
 7449SOL     OW22746   0.574   4.528   1.552  0.3789  0.0580 -0.0152
 7449SOL    HW122747   0.491   4.570   1.533  0.3413  0.0901  0.2164
 7449SOL    HW222748   0.591   4.548   1.644 -1.1001 -2.9196  1.0297
 7450SOL     OW22749   4.035   4.781   3.848  0.3551  0.4642 -0.0128
 7450SOL    HW122750   3.942   4.766   3.867  0.4563 -1.0345 -0.6066
 7450SOL    HW222751   4.058   4.856   3.903 -0.8458 -0.0212  1.2088
 7451SOL     OW22752   1.217   2.223   2.871  0.0529  0.1637  0.1507
 7451SOL    HW122753   1.275   2.170   2.926  0.4358 -0.4349 -0.8128
 7451SOL    HW222754   1.138   2.234   2.924 -0.5993 -2.5381 -0.1027
 7452SOL     OW22755   6.463   4.257   1.606 -0.3088  0.2614  0.0810
 7452SOL    HW122756   6.455   4.207   1.524  1.1692  0.5427 -0.2629
 7452SOL    HW222757   6.383   4.236   1.655 -0.2400 -1.5805 -0.5191
 7453SOL     OW22758   5.877   5.590   6.602  0.3082 -0.2298 -0.0032
 7453SOL    HW122759   5.962   5.564   6.566  0.3936 -0.3141  0.2614
 7453SOL    HW222760   5.855   5.519   6.663  0.0359 -0.2220 -0.0946
 7454SOL     OW22761   5.315   2.238   3.357 -0.3066  0.5070 -0.0897
 7454SOL    HW122762   5.298   2.149   3.326  2.2450  0.4939 -1.8189
 7454SOL    HW222763   5.240   2.289   3.327 -1.5476 -0.9400  0.4540
 7455SOL     OW22764   5.659   0.682   1.424 -0.1224  0.2673 -0.5123
 7455SOL    HW122765   5.707   0.722   1.496  0.1116  1.2458 -1.1930
 7455SOL    HW222766   5.723   0.626   1.380  0.0146  0.4769 -0.5793
 7456SOL     OW22767   4.276   4.206   2.554 -0.2394 -0.4104 -0.9012
 7456SOL    HW122768   4.324   4.125   2.566 -0.0758 -0.0219  1.5699
 7456SOL    HW222769   4.221   4.214   2.632  0.6613  2.4302 -0.4329
 7457SOL     OW22770   3.439   2.897   1.518  1.1037  0.0411  0.1616
 7457SOL    HW122771   3.486   2.972   1.481  1.0619 -0.9936 -2.1563
 7457SOL    HW222772   3.356   2.895   1.471 -0.0391  0.0200  2.0453
 7458SOL     OW22773   1.236   3.347   2.218 -0.4127  0.2229  0.3037
 7458SOL    HW122774   1.181   3.273   2.191  0.6728 -0.8578  0.9538
 7458SOL    HW222775   1.239   3.341   2.314  0.7368  0.3183  0.2899
 7459SOL     OW22776   2.539   3.528   3.610 -0.2608  0.1424 -0.2482
 7459SOL    HW122777   2.546   3.607   3.556 -2.2844 -0.6239 -1.7754
 7459SOL    HW222778   2.445   3.522   3.630 -0.1496 -1.8851 -0.1909
 7460SOL     OW22779   1.763   6.394   2.324  0.3705  0.0866  0.3149
 7460SOL    HW122780   1.785   6.485   2.301 -0.2248  0.3759  0.8497
 7460SOL    HW222781   1.796   6.342   2.251  1.8009  0.6114  0.5501
 7461SOL     OW22782   0.321   1.271   3.237 -0.0923  0.4548 -0.2553
 7461SOL    HW122783   0.362   1.339   3.184  0.2086 -0.1745 -0.8439
 7461SOL    HW222784   0.350   1.290   3.326  1.3148  0.1535 -0.6258
 7462SOL     OW22785   4.447   0.140   2.152  0.0641  0.6875  0.0217
 7462SOL    HW122786   4.497   0.134   2.070 -1.5894  0.5905 -1.0282
 7462SOL    HW222787   4.437   0.235   2.166 -0.1419  0.7059 -0.2257
 7463SOL     OW22788   5.910   4.070   6.663  0.0653  0.0321 -0.5952
 7463SOL    HW122789   5.951   4.002   6.609  1.7565  1.3526 -1.0456
 7463SOL    HW222790   5.816   4.061   6.645  0.3821 -1.1982 -1.8083
 7464SOL     OW22791   2.691   0.884   2.283  0.0506 -0.6996  0.6980
 7464SOL    HW122792   2.721   0.971   2.309  0.4135 -0.2216 -1.1635
 7464SOL    HW222793   2.740   0.824   2.339  2.1640  0.1900 -0.0967
 7465SOL     OW22794   2.892   1.430   1.856 -0.2636  0.0430  0.2829
 7465SOL    HW122795   2.805   1.470   1.864 -0.8534 -1.2506  0.5944
 7465SOL    HW222796   2.924   1.425   1.946 -0.8884 -1.6053  0.4546
 7466SOL     OW22797   3.033   1.599   5.741  0.4316 -0.1119 -0.5220
 7466SOL    HW122798   3.004   1.690   5.738  2.4318  0.5462 -1.2774
 7466SOL    HW222799   2.965   1.554   5.792 -1.7692  1.3230 -2.0045
 7467SOL     OW22800   0.090   5.726   0.785  0.5327  0.5036  0.1133
 7467SOL    HW122801   0.042   5.807   0.804 -1.7770 -0.5521 -0.8102
 7467SOL    HW222802   0.163   5.726   0.847 -1.6906  1.3464  2.9669
 7468SOL     OW22803   3.797   3.993   2.804 -0.1729 -0.7843 -0.3574
 7468SOL    HW122804   3.871   3.968   2.750  0.2870  0.0405 -0.1337
 7468SOL    HW222805   3.834   4.055   2.868 -0.9353 -0.8130  0.1256
 7469SOL     OW22806   1.628   3.559   0.681  0.5251  0.0644  0.1091
 7469SOL    HW122807   1.716   3.578   0.715 -0.1233  1.0926  1.3028
 7469SOL    HW222808   1.625   3.604   0.597  1.8689 -1.8081 -1.0160
 7470SOL     OW22809   5.784   2.296   6.198 -0.3515  0.0693  0.3530
 7470SOL    HW122810   5.867   2.310   6.244 -0.2256  1.0797 -0.1434
 7470SOL    HW222811   5.723   2.358   6.238 -0.5361  0.1904 -0.1022
 7471SOL     OW22812   1.443   4.691   5.459 -0.4653  0.7402 -0.3912
 7471SOL    HW122813   1.404   4.604   5.459  1.2918 -0.1203 -1.8004
 7471SOL    HW222814   1.371   4.751   5.440 -1.2387 -0.6924 -2.1268
 7472SOL     OW22815   1.452   5.072   4.236 -0.7132 -0.0031  0.3684
 7472SOL    HW122816   1.499   4.989   4.231  1.1840  1.0287 -0.1682
 7472SOL    HW222817   1.397   5.073   4.158 -1.8742 -1.3580  1.1356
 7473SOL     OW22818   4.874   2.120   2.783 -0.0978  0.0503 -0.5882
 7473SOL    HW122819   4.793   2.080   2.751 -0.7387  1.0343 -0.2710
 7473SOL    HW222820   4.924   2.139   2.703  0.7996 -2.4464 -0.6974
 7474SOL     OW22821   6.094   3.339   4.020  0.7107  0.9141  0.0255
 7474SOL    HW122822   6.111   3.406   3.953 -0.7639  0.7644 -0.5258
 7474SOL    HW222823   5.999   3.337   4.029  0.7340 -0.9344  0.2154
 7475SOL     OW22824   1.629   5.632   5.335 -1.0108 -0.2589  0.4396
 7475SOL    HW122825   1.537   5.651   5.351 -1.2952 -1.1437 -0.0720
 7475SOL    HW222826   1.629   5.546   5.292 -0.1223  0.6991 -1.6135
 7476SOL     OW22827   6.480   5.630   6.352  0.0271 -0.3062 -0.2584
 7476SOL    HW122828   6.399   5.673   6.379 -0.5094 -0.8285 -0.9746
 7476SOL    HW222829   6.548   5.669   6.406 -0.5913  0.7053 -0.1948
 7477SOL     OW22830   1.938   2.649   4.730 -0.0084 -0.1594 -0.1206
 7477SOL    HW122831   1.865   2.587   4.738 -0.3670  0.1069 -1.1681
 7477SOL    HW222832   1.964   2.643   4.638 -0.0235  1.2102 -0.2349
 7478SOL     OW22833   5.566   3.852   2.186  0.2362 -0.4412 -0.0565
 7478SOL    HW122834   5.488   3.852   2.242  0.6964 -1.3335  0.6140
 7478SOL    HW222835   5.631   3.901   2.236  0.4761 -0.7507 -0.0639
 7479SOL     OW22836   0.146   6.008   5.697  0.2212  0.2427  0.3069
 7479SOL    HW122837   0.215   6.006   5.764 -0.5426  2.0312  1.2265
 7479SOL    HW222838   0.064   6.010   5.747 -0.5049 -1.3696 -0.7579
 7480SOL     OW22839   3.350   5.289   0.858  0.2380 -0.2767  0.8052
 7480SOL    HW122840   3.303   5.263   0.938 -0.9603 -0.3151  0.1102
 7480SOL    HW222841   3.331   5.220   0.795  2.5945 -1.1545  0.9552
 7481SOL     OW22842   3.115   4.799   2.364 -0.5841 -0.0197 -0.7669
 7481SOL    HW122843   3.180   4.869   2.368 -0.2525 -0.3579  0.3346
 7481SOL    HW222844   3.126   4.760   2.278  0.0367  0.5257 -0.9414
 7482SOL     OW22845   0.698   1.601   2.324 -0.5821 -0.2145  0.2830
 7482SOL    HW122846   0.782   1.643   2.343  0.2961 -1.2724 -1.0606
 7482SOL    HW222847   0.638   1.674   2.306  0.4795  0.5267 -0.3330
 7483SOL     OW22848   2.791   5.429   6.485  0.3254  0.3608 -0.0391
 7483SOL    HW122849   2.827   5.366   6.423  0.6612 -1.3979  1.8536
 7483SOL    HW222850   2.832   5.512   6.461  1.0128 -0.4097 -1.6792
 7484SOL     OW22851   5.063   4.743   5.012  0.3017  0.2050  0.1627
 7484SOL    HW122852   5.155   4.717   5.007 -0.3002 -2.1105  0.1089
 7484SOL    HW222853   5.029   4.726   4.924  0.2264  2.9487 -0.4174
 7485SOL     OW22854   1.149   2.343   0.595  0.1052  0.2188 -0.5887
 7485SOL    HW122855   1.198   2.287   0.534  1.8008  0.3727  0.5598
 7485SOL    HW222856   1.175   2.312   0.682 -2.6018 -0.2924  0.1170
 7486SOL     OW22857   0.779   5.285   2.261 -0.3382 -0.8812  0.3198
 7486SOL    HW122858   0.864   5.320   2.234 -0.1667 -2.0081 -0.7060
 7486SOL    HW222859   0.741   5.353   2.316  0.4621  0.3960 -0.6533
 7487SOL     OW22860   0.228   2.477   3.571  0.0503  0.2054  0.3931
 7487SOL    HW122861   0.257   2.560   3.608  0.6022 -0.3111  1.1536
 7487SOL    HW222862   0.308   2.436   3.538 -0.4107  0.6134 -1.3413
 7488SOL     OW22863   4.272   2.648   2.547 -0.5897 -0.1555 -0.1613
 7488SOL    HW122864   4.304   2.652   2.637 -1.8868 -1.2903  0.3984
 7488SOL    HW222865   4.210   2.721   2.539 -0.9709 -0.4450  0.0964
 7489SOL     OW22866   5.598   4.256   1.533  0.2714 -0.7774  0.2329
 7489SOL    HW122867   5.522   4.217   1.576  0.6434 -0.6829  0.9769
 7489SOL    HW222868   5.595   4.349   1.555  0.2849 -0.6658 -0.2140
 7490SOL     OW22869   2.860   5.224   5.259 -0.4699 -0.1353  0.1692
 7490SOL    HW122870   2.926   5.234   5.327  0.9373  0.7342 -1.2564
 7490SOL    HW222871   2.833   5.314   5.238  0.7853 -0.1969 -1.9449
 7491SOL     OW22872   3.539   0.332   6.764  0.7851  0.3654 -0.0782
 7491SOL    HW122873   3.587   0.414   6.762  3.3670 -1.0151  0.4829
 7491SOL    HW222874   3.562   0.292   6.848 -0.2209 -1.0413 -0.4258
 7492SOL     OW22875   3.176   0.406   6.387  0.2739  0.1273 -0.0869
 7492SOL    HW122876   3.115   0.358   6.443  1.1571 -0.6619  0.2235
 7492SOL    HW222877   3.190   0.489   6.432 -0.6807  0.3868 -0.2414
 7493SOL     OW22878   2.702   3.614   3.093 -0.2074 -0.2504 -0.1613
 7493SOL    HW122879   2.665   3.569   3.169 -2.7730  0.4484 -0.8863
 7493SOL    HW222880   2.644   3.589   3.021 -0.0793  1.9993 -1.1271
 7494SOL     OW22881   4.095   1.546   3.681  0.0340  0.1740 -0.1702
 7494SOL    HW122882   4.110   1.543   3.586  0.0269  2.6359 -0.3108
 7494SOL    HW222883   4.002   1.525   3.690  0.0972 -0.3646 -0.6789
 7495SOL     OW22884   1.036   0.816   0.998  0.4569 -0.1465 -0.0814
 7495SOL    HW122885   1.043   0.813   0.902 -2.4333  0.6759 -0.4192
 7495SOL    HW222886   0.952   0.774   1.016  0.7895  0.0351  2.1003
 7496SOL     OW22887   1.107   6.041   1.738 -0.0332 -0.5373  0.4675
 7496SOL    HW122888   1.186   6.048   1.686 -0.0174 -2.1072  0.2454
 7496SOL    HW222889   1.036   6.060   1.677  0.1436  0.7528  0.6397
 7497SOL     OW22890   0.180   5.422   0.097  0.2726 -0.4277 -0.2124
 7497SOL    HW122891   0.145   5.477   0.168  2.4657  0.7559  0.0161
 7497SOL    HW222892   0.104   5.371   0.068 -0.9870 -0.0977  2.1734
 7498SOL     OW22893   0.811   2.115   1.331 -0.0517  0.1273 -0.2818
 7498SOL    HW122894   0.845   2.203   1.314  1.5145 -0.3447  0.2859
 7498SOL    HW222895   0.764   2.124   1.414  0.3805  0.3663 -0.0572
 7499SOL     OW22896   2.657   6.710   1.881  0.1051  0.3028  0.5532
 7499SOL    HW122897   2.635   6.710   1.788  3.0599  1.3882 -0.2571
 7499SOL    HW222898   2.752   6.698   1.884  0.0178 -0.6717  3.5035
 7500SOL     OW22899   3.765   4.769   3.878  0.2870  0.3543  0.1828
 7500SOL    HW122900   3.719   4.811   3.950  0.3859  1.1180 -0.1837
 7500SOL    HW222901   3.698   4.716   3.835  0.2119 -0.0480  0.7847
 7501SOL     OW22902   4.754   3.579   1.468  0.4865 -0.1786 -0.2066
 7501SOL    HW122903   4.803   3.498   1.450 -0.6568 -0.7577 -0.7959
 7501SOL    HW222904   4.819   3.637   1.509  1.2312 -1.5450  0.6556
 7502SOL     OW22905   6.061   0.938   6.452 -0.4984 -0.7178 -0.5657
 7502SOL    HW122906   6.098   0.916   6.538 -0.8889 -1.6214 -0.6196
 7502SOL    HW222907   5.982   0.988   6.473 -1.7347 -2.6809 -0.3067
 7503SOL     OW22908   3.964   6.064   4.486 -0.1536  0.0645 -0.0633
 7503SOL    HW122909   3.947   6.053   4.579 -1.1140  0.9377 -0.1219
 7503SOL    HW222910   3.888   6.025   4.443  1.4572 -2.7658 -0.6193
 7504SOL     OW22911   5.804   0.936   2.169 -0.1490 -0.1239 -0.7377
 7504SOL    HW122912   5.789   1.030   2.173  0.1283 -0.1104  0.6773
 7504SOL    HW222913   5.898   0.928   2.153 -0.1868 -0.1551 -0.9380
 7505SOL     OW22914   6.037   5.453   1.482  0.0031  0.3612 -0.1154
 7505SOL    HW122915   5.997   5.401   1.551  0.9337 -0.8281 -0.4297
 7505SOL    HW222916   6.131   5.440   1.494  0.2258  1.4547 -0.6118
 7506SOL     OW22917   0.360   6.116   4.741 -0.0529 -0.2844  0.3649
 7506SOL    HW122918   0.383   6.105   4.833  0.4547  0.3861  0.3180
 7506SOL    HW222919   0.429   6.070   4.693  0.8381  1.1298  0.2516
 7507SOL     OW22920   4.624   4.854   2.335 -0.1604 -0.2130  0.2476
 7507SOL    HW122921   4.654   4.929   2.284  0.5937 -1.1199 -0.6900
 7507SOL    HW222922   4.678   4.856   2.414  0.2357 -0.0718 -0.0219
 7508SOL     OW22923   2.477   5.120   5.867  0.0489 -0.1984  0.1756
 7508SOL    HW122924   2.477   5.207   5.906  0.9118  0.1005 -0.4783
 7508SOL    HW222925   2.551   5.120   5.808 -1.8463 -0.2417 -2.3754
 7509SOL     OW22926   5.291   6.559   6.565  0.4898 -0.2304 -0.1715
 7509SOL    HW122927   5.378   6.573   6.603 -0.4396  0.5485  1.7862
 7509SOL    HW222928   5.299   6.477   6.516  2.2193 -0.3623  0.2779
 7510SOL     OW22929   0.101   6.080   0.223 -0.5764  0.0911  0.2611
 7510SOL    HW122930   0.008   6.095   0.203 -0.7795  0.5044  1.4059
 7510SOL    HW222931   0.143   6.165   0.206 -0.4523 -0.0278 -0.0252
 7511SOL     OW22932   3.981   3.833   3.491  0.2159 -0.7519  0.3810
 7511SOL    HW122933   3.905   3.891   3.488 -0.0963 -1.1620  0.3510
 7511SOL    HW222934   4.056   3.892   3.486 -0.0602 -0.2465  1.8348
 7512SOL     OW22935   5.983   3.840   6.535  0.6105  0.0325  0.2088
 7512SOL    HW122936   5.943   3.871   6.453  0.5837  0.9472  0.5545
 7512SOL    HW222937   5.934   3.761   6.557  0.1759  0.1507 -0.3128
 7513SOL     OW22938   4.127   2.071   2.713 -0.3002  0.0239  0.1338
 7513SOL    HW122939   4.216   2.105   2.728 -0.9591  1.6202  0.6841
 7513SOL    HW222940   4.075   2.149   2.692 -1.6953 -0.7924  0.4289
 7514SOL     OW22941   4.771   3.266   5.906  0.0849 -0.4913 -0.2373
 7514SOL    HW122942   4.747   3.196   5.967  0.1310 -0.2275  0.0936
 7514SOL    HW222943   4.745   3.234   5.820 -2.2177  0.0543  0.1598
 7515SOL     OW22944   5.908   6.605   5.394 -0.2351 -0.1802 -0.0916
 7515SOL    HW122945   5.839   6.587   5.330  0.0807  0.9582 -0.7913
 7515SOL    HW222946   5.990   6.593   5.345  0.1217 -2.2166  0.9192
 7516SOL     OW22947   3.615   5.039   0.906  0.3081  0.7326 -0.3210
 7516SOL    HW122948   3.540   4.980   0.909  1.9636 -1.4595  1.1670
 7516SOL    HW222949   3.612   5.085   0.990  0.6581  0.5907 -0.2307
 7517SOL     OW22950   5.230   2.133   0.844 -0.2684 -0.3366 -0.9113
 7517SOL    HW122951   5.142   2.165   0.864 -0.3907  0.1287 -2.1333
 7517SOL    HW222952   5.217   2.045   0.811 -0.4673  0.3396 -2.7254
 7518SOL     OW22953   6.567   2.528   3.488  0.1712 -0.7624  0.3902
 7518SOL    HW122954   6.516   2.568   3.418 -0.7079 -2.3185  0.0834
 7518SOL    HW222955   6.658   2.550   3.469 -0.1490 -0.3621 -0.7032
 7519SOL     OW22956   3.458   2.265   1.918  0.1471 -0.4230 -0.7169
 7519SOL    HW122957   3.521   2.201   1.884  1.5892  0.4638  0.1488
 7519SOL    HW222958   3.473   2.344   1.865 -0.4399 -0.2751 -0.6725
 7520SOL     OW22959   5.820   4.894   5.746 -0.1833 -0.1460 -0.1590
 7520SOL    HW122960   5.825   4.810   5.793 -1.0522 -1.1919 -1.8102
 7520SOL    HW222961   5.910   4.912   5.719  0.1781  0.0190  1.1148
 7521SOL     OW22962   0.854   0.545   5.530  0.5206  0.0792 -0.0869
 7521SOL    HW122963   0.947   0.530   5.510  0.2323 -1.1423 -0.5927
 7521SOL    HW222964   0.811   0.543   5.444  0.1025  1.3937  0.0644
 7522SOL     OW22965   0.503   4.086   1.142  0.3383 -0.4120 -0.0672
 7522SOL    HW122966   0.512   3.991   1.138  1.3002 -0.4567  1.7938
 7522SOL    HW222967   0.508   4.107   1.236 -0.9652  1.3860 -0.3421
 7523SOL     OW22968   2.553   4.588   1.009 -0.4291 -0.0651 -0.8883
 7523SOL    HW122969   2.480   4.598   0.948  0.0047  0.1176 -1.3916
 7523SOL    HW222970   2.600   4.511   0.978  0.4620  0.7093 -1.5086
 7524SOL     OW22971   4.741   5.978   6.535 -0.8557 -0.2799 -0.1813
 7524SOL    HW122972   4.798   5.900   6.533  0.6034  0.7316  0.5013
 7524SOL    HW222973   4.656   5.945   6.565  0.1725 -1.3737  1.7305
 7525SOL     OW22974   5.099   6.504   4.145  0.2924  0.3425 -0.5879
 7525SOL    HW122975   5.111   6.596   4.118 -3.7365  0.8608 -1.1909
 7525SOL    HW222976   5.033   6.508   4.215 -0.6869 -2.1372 -1.2801
 7526SOL     OW22977   3.775   1.210   0.441 -0.1017 -0.1783  0.1244
 7526SOL    HW122978   3.788   1.141   0.377  0.8863  0.0571  0.0572
 7526SOL    HW222979   3.775   1.291   0.389  1.2489  0.0561  0.4647
 7527SOL     OW22980   6.500   5.080   4.211 -0.7101 -0.2001 -0.3939
 7527SOL    HW122981   6.563   5.019   4.249 -1.3618 -1.4889 -1.3083
 7527SOL    HW222982   6.553   5.155   4.184  0.3789 -1.0667 -0.7480
 7528SOL     OW22983   1.808   3.226   2.678 -0.1808 -0.6201  0.0390
 7528SOL    HW122984   1.717   3.198   2.672 -0.6629  1.0017 -0.8651
 7528SOL    HW222985   1.813   3.302   2.620  1.3814  0.2349  1.2230
 7529SOL     OW22986   6.742   0.635   4.867 -0.2513 -0.1423  0.0243
 7529SOL    HW122987   6.801   0.705   4.896 -0.1744 -0.5222  0.8133
 7529SOL    HW222988   6.707   0.667   4.784  1.4899 -0.1398 -0.7592
 7530SOL     OW22989   4.435   5.021   0.791  0.1050 -0.0336  0.2052
 7530SOL    HW122990   4.526   5.043   0.771 -0.0645  1.1986  0.6572
 7530SOL    HW222991   4.399   5.102   0.829 -1.3693 -0.2803 -0.5951
 7531SOL     OW22992   6.300   1.476   4.219 -1.0572  0.2387 -0.0155
 7531SOL    HW122993   6.290   1.411   4.149  0.4613 -0.0859  0.0517
 7531SOL    HW222994   6.309   1.425   4.299 -1.3437  0.5748  0.2324
 7532SOL     OW22995   6.517   4.669   2.188  0.0162 -0.6547 -0.5506
 7532SOL    HW122996   6.541   4.617   2.264 -0.9850  2.0803  1.8415
 7532SOL    HW222997   6.600   4.687   2.144  0.9236 -0.6837  1.0694
 7533SOL     OW22998   1.779   2.776   4.246  0.5183 -0.5902 -0.0253
 7533SOL    HW122999   1.768   2.870   4.264  0.1710 -0.9080  1.5121
 7533SOL    HW223000   1.697   2.749   4.205  0.4580 -0.3167 -0.0862
 7534SOL     OW23001   6.739   0.747   2.346  0.3035  0.8920 -0.2392
 7534SOL    HW123002   6.772   0.658   2.345 -0.5715  0.5533 -0.2410
 7534SOL    HW223003   6.699   0.757   2.433  1.9215  1.8845  0.4530
 7535SOL     OW23004   4.336   1.521   1.811 -0.1791  0.0489  0.1714
 7535SOL    HW123005   4.400   1.506   1.742 -1.2765  1.2491 -1.2038
 7535SOL    HW223006   4.258   1.552   1.764 -1.0027  0.8165  1.9445
 7536SOL     OW23007   2.690   0.503   4.065 -0.0132  0.8374  0.6733
 7536SOL    HW123008   2.640   0.580   4.038 -0.0071  0.8741  0.7633
 7536SOL    HW223009   2.650   0.477   4.148 -1.6072 -0.7316 -0.5147
 7537SOL     OW23010   2.147   3.704   3.256  0.0220  0.4129  0.0643
 7537SOL    HW123011   2.091   3.781   3.244  0.8867  1.2346  1.0929
 7537SOL    HW223012   2.202   3.703   3.177 -1.5065 -0.5100 -1.0427
 7538SOL     OW23013   0.244   2.896   4.247 -0.3520 -0.0092  0.3684
 7538SOL    HW123014   0.298   2.863   4.318  0.0138 -1.6414 -0.5933
 7538SOL    HW223015   0.304   2.944   4.190 -0.2632 -0.3050  0.2105
 7539SOL     OW23016   1.164   6.689   5.476 -0.6022 -0.0104 -0.0220
 7539SOL    HW123017   1.116   6.628   5.421 -0.4401  0.9309 -1.2424
 7539SOL    HW223018   1.152   6.656   5.565 -0.3450 -1.9335 -0.6531
 7540SOL     OW23019   1.288   0.771   2.883  0.1470  0.0876 -0.0160
 7540SOL    HW123020   1.355   0.734   2.826  1.2686 -0.4323  1.5743
 7540SOL    HW223021   1.321   0.859   2.904  0.9999 -0.6099  1.7417
 7541SOL     OW23022   1.777   4.117   5.508  0.2817  0.6885 -1.0376
 7541SOL    HW123023   1.767   4.141   5.600 -1.8676 -0.6989 -0.8304
 7541SOL    HW223024   1.822   4.032   5.511 -1.1749 -0.1140 -1.1313
 7542SOL     OW23025   5.348   0.683   6.567 -0.6399 -0.7655  0.1906
 7542SOL    HW123026   5.442   0.675   6.587 -0.7473 -1.1726  0.5592
 7542SOL    HW223027   5.334   0.777   6.557 -0.2682 -0.6710  0.5226
 7543SOL     OW23028   6.107   1.804   5.854  0.2097 -0.3014  0.5369
 7543SOL    HW123029   6.148   1.823   5.769  0.0760 -1.1333  0.2801
 7543SOL    HW223030   6.180   1.800   5.915  0.5280 -1.6432  0.1043
 7544SOL     OW23031   5.456   0.282   4.592  0.5044  0.0742 -0.2651
 7544SOL    HW123032   5.467   0.360   4.538  0.1515 -0.4651 -1.1226
 7544SOL    HW223033   5.521   0.292   4.662  0.9561  0.7784 -0.7791
 7545SOL     OW23034   0.882   4.899   4.517  0.5971  0.2833 -0.1811
 7545SOL    HW123035   0.915   4.809   4.507  0.5450  0.3740 -1.3604
 7545SOL    HW223036   0.814   4.893   4.584  0.8873 -0.4772  0.0539
 7546SOL     OW23037   3.763   2.050   4.582  0.2194 -0.5288 -0.0165
 7546SOL    HW123038   3.716   1.968   4.563 -0.3553  0.2079 -2.0927
 7546SOL    HW223039   3.725   2.081   4.664 -1.9846 -0.6877 -0.9037
 7547SOL     OW23040   2.719   1.755   6.521 -0.5563 -0.3090  0.4029
 7547SOL    HW123041   2.642   1.705   6.495  0.1967 -0.5523 -1.5125
 7547SOL    HW223042   2.758   1.784   6.439  1.4376 -0.2441  1.3081
 7548SOL     OW23043   5.301   4.555   3.238  0.1080  0.2566  0.1996
 7548SOL    HW123044   5.287   4.582   3.328  1.6396  1.2943  0.1707
 7548SOL    HW223045   5.286   4.634   3.187 -1.1750 -0.4226 -0.5313
 7549SOL     OW23046   3.277   1.586   6.448  0.1291 -0.2390 -0.6655
 7549SOL    HW123047   3.314   1.675   6.445 -0.1931 -0.0287  0.7890
 7549SOL    HW223048   3.334   1.534   6.391  2.2201  0.2383  0.8941
 7550SOL     OW23049   6.690   1.351   0.334 -0.0299 -0.4098  0.2690
 7550SOL    HW123050   6.746   1.275   0.322 -1.0281 -1.0847 -0.2436
 7550SOL    HW223051   6.665   1.348   0.426 -0.3565 -0.9212  0.1688
 7551SOL     OW23052   6.345   2.335   1.407 -0.3205 -0.9947  0.1662
 7551SOL    HW123053   6.365   2.424   1.436 -0.2169 -0.0136 -2.5977
 7551SOL    HW223054   6.251   2.326   1.420 -0.4042 -0.2983  0.0716
 7552SOL     OW23055   3.888   1.781   3.454 -0.3976  0.9645  0.6493
 7552SOL    HW123056   3.868   1.811   3.543 -1.1407  2.1688  0.0966
 7552SOL    HW223057   3.981   1.756   3.458 -0.2319  1.6655  1.5991
 7553SOL     OW23058   3.276   2.867   0.357  0.1057  0.3963 -0.0923
 7553SOL    HW123059   3.270   2.858   0.262 -1.6128  0.9037 -0.0726
 7553SOL    HW223060   3.186   2.851   0.387  1.1288 -2.7795  1.7410
 7554SOL     OW23061   3.852   1.383   3.647  0.6047  0.4536 -0.1938
 7554SOL    HW123062   3.829   1.370   3.739 -2.3270  1.1570 -0.7360
 7554SOL    HW223063   3.872   1.295   3.614  1.6831  0.1985  1.0702
 7555SOL     OW23064   0.864   6.292   0.494  0.0903  0.5374 -0.3469
 7555SOL    HW123065   0.797   6.314   0.429 -1.4373 -2.3476  0.0812
 7555SOL    HW223066   0.815   6.283   0.576  1.4088  0.6486  0.4847
 7556SOL     OW23067   1.150   6.242   1.948 -0.4855 -0.1149  0.1037
 7556SOL    HW123068   1.104   6.200   1.875  0.9338  0.8899 -1.4433
 7556SOL    HW223069   1.122   6.333   1.945  0.1517  0.0943  0.3264
 7557SOL     OW23070   2.637   5.350   3.372  0.2652  0.0160 -0.1657
 7557SOL    HW123071   2.716   5.399   3.395 -0.4171  1.6200 -1.0289
 7557SOL    HW223072   2.641   5.340   3.277  0.4623 -1.8107  0.0064
 7558SOL     OW23073   6.171   3.295   1.930 -0.5461 -0.4363  0.0514
 7558SOL    HW123074   6.233   3.364   1.907 -0.8189 -0.2861 -0.2354
 7558SOL    HW223075   6.089   3.320   1.886 -1.2692  0.1833  1.6534
 7559SOL     OW23076   4.728   3.540   3.406 -0.2194  0.6918 -0.4715
 7559SOL    HW123077   4.805   3.574   3.451  1.4925 -1.6339 -1.4592
 7559SOL    HW223078   4.757   3.459   3.365 -3.0342  0.0614 -1.4863
 7560SOL     OW23079   0.885   4.650   3.063 -0.7485  0.7965  0.0880
 7560SOL    HW123080   0.931   4.697   2.993  2.0952 -1.2792  0.3594
 7560SOL    HW223081   0.937   4.666   3.142 -0.4002 -1.5989  0.4435
 7561SOL     OW23082   1.114   0.751   0.747 -0.3659  0.0421 -0.0442
 7561SOL    HW123083   1.203   0.784   0.752 -0.6652  0.7898  0.5278
 7561SOL    HW223084   1.089   0.762   0.655  0.5017 -1.2015 -0.4524
 7562SOL     OW23085   5.087   5.679   3.595 -0.7539  0.5417  0.2667
 7562SOL    HW123086   5.025   5.609   3.574  0.6867 -0.5456 -0.5578
 7562SOL    HW223087   5.166   5.634   3.623  1.1814  1.6263 -2.8541
 7563SOL     OW23088   4.121   3.770   0.871 -0.4232 -0.7336 -0.2586
 7563SOL    HW123089   4.097   3.771   0.964 -3.2228 -0.3750 -0.8981
 7563SOL    HW223090   4.100   3.858   0.840 -3.0737 -1.8471 -1.9590
 7564SOL     OW23091   4.486   2.396   6.649 -0.2002  0.3514  0.5185
 7564SOL    HW123092   4.392   2.389   6.663 -0.3470  0.6581 -0.2896
 7564SOL    HW223093   4.524   2.337   6.715 -0.9320  0.4712  1.0663
 7565SOL     OW23094   3.222   5.981   6.047 -0.3604  0.1267  0.2721
 7565SOL    HW123095   3.135   6.017   6.029  0.3958  1.9240 -0.0608
 7565SOL    HW223096   3.239   6.006   6.138  0.4172  1.2047 -0.1451
 7566SOL     OW23097   5.787   4.185   5.805  0.3735  0.2442 -0.2457
 7566SOL    HW123098   5.815   4.103   5.844  0.1809  0.1658 -0.2742
 7566SOL    HW223099   5.702   4.166   5.767  1.2887 -0.1461 -2.2242
 7567SOL     OW23100   1.644   4.918   3.159  0.5094 -0.3374 -0.3756
 7567SOL    HW123101   1.715   4.971   3.196  1.3587 -1.5767 -0.1643
 7567SOL    HW223102   1.655   4.832   3.200 -1.8034 -0.2727  0.5038
 7568SOL     OW23103   3.154   0.053   4.587 -0.1721 -0.2465 -0.6902
 7568SOL    HW123104   3.113   0.015   4.666 -0.6366 -0.7209 -1.1470
 7568SOL    HW223105   3.236   0.091   4.618 -0.5008 -0.1442  0.0809
 7569SOL     OW23106   4.596   0.107   5.193  0.6532 -0.4225  0.6792
 7569SOL    HW123107   4.628   0.197   5.192  0.2913 -0.2003 -3.0444
 7569SOL    HW223108   4.589   0.086   5.286  1.8647  2.9532  1.6973
 7570SOL     OW23109   2.844   0.588   5.367  0.6185 -0.0894  0.1780
 7570SOL    HW123110   2.809   0.677   5.358  0.7455 -0.0135  0.4386
 7570SOL    HW223111   2.870   0.564   5.278 -2.4072 -1.1213 -0.5481
 7571SOL     OW23112   1.114   1.044   1.965 -0.0142 -0.3307  0.2121
 7571SOL    HW123113   1.195   1.083   1.935  0.1026 -1.0453 -0.4567
 7571SOL    HW223114   1.045   1.093   1.920  0.0444  0.2309  0.7283
 7572SOL     OW23115   0.605   1.696   0.853  0.0545  0.5597  0.1965
 7572SOL    HW123116   0.640   1.753   0.785  1.1468 -0.5204 -0.1730
 7572SOL    HW223117   0.510   1.710   0.850  0.2283  1.6745 -0.4802
 7573SOL     OW23118   2.691   5.971   0.657  0.2004 -0.1382 -0.0072
 7573SOL    HW123119   2.678   5.997   0.566  2.4872 -0.2645 -0.4243
 7573SOL    HW223120   2.687   6.052   0.707 -2.3725 -0.1944  0.0378
 7574SOL     OW23121   1.477   5.270   5.562 -0.2318  0.3035 -0.3264
 7574SOL    HW123122   1.450   5.181   5.538  0.4922  0.1461 -0.5596
 7574SOL    HW223123   1.395   5.320   5.564 -0.5387 -0.1518 -1.1249
 7575SOL     OW23124   1.624   5.992   4.468  0.2531  0.6965  0.3123
 7575SOL    HW123125   1.550   5.932   4.457  2.1905 -1.5642 -1.6081
 7575SOL    HW223126   1.627   6.041   4.385  2.3071 -1.0813 -0.7612
 7576SOL     OW23127   2.776   6.366   6.662  0.3656 -0.3243 -0.1155
 7576SOL    HW123128   2.814   6.445   6.701  0.9008 -0.2895 -0.7049
 7576SOL    HW223129   2.832   6.295   6.693  0.0616 -0.4493  0.1663
 7577SOL     OW23130   3.678   2.736   3.786  0.0128  0.3590 -0.1428
 7577SOL    HW123131   3.744   2.751   3.853  0.5864  0.3353 -0.6944
 7577SOL    HW223132   3.704   2.654   3.745 -2.2303 -1.4954  1.8272
 7578SOL     OW23133   1.803   6.659   6.586  0.3755  0.1746  0.6989
 7578SOL    HW123134   1.741   6.590   6.563  1.6134 -0.8267  0.2849
 7578SOL    HW223135   1.823   6.703   6.503 -0.4854  1.1311  0.9736
 7579SOL     OW23136   4.152   5.908   3.230  0.9333  0.2692 -0.0033
 7579SOL    HW123137   4.057   5.905   3.223  0.9657  1.2754 -1.2591
 7579SOL    HW223138   4.176   5.826   3.272 -0.6310  0.8725  2.2701
 7580SOL     OW23139   6.310   2.681   4.974  0.0293 -0.4219 -0.0893
 7580SOL    HW123140   6.276   2.723   4.895 -0.5171 -0.3368  0.1827
 7580SOL    HW223141   6.393   2.643   4.948 -0.8408 -1.7087 -1.1249
 7581SOL     OW23142   6.501   6.049   2.945 -0.5795  0.0339  0.1285
 7581SOL    HW123143   6.546   6.132   2.958 -0.9284  0.3849 -0.7596
 7581SOL    HW223144   6.510   6.002   3.028 -0.0173  0.7836  0.4971
 7582SOL     OW23145   6.463   1.246   1.913  0.5303  0.0027  0.1346
 7582SOL    HW123146   6.517   1.324   1.909 -0.7381  0.9546  0.8595
 7582SOL    HW223147   6.475   1.203   1.828  0.4485  1.5276 -0.6686
 7583SOL     OW23148   5.372   3.049   6.279  0.4315  0.2336  0.2479
 7583SOL    HW123149   5.441   2.983   6.279 -0.9742 -1.3267 -0.9684
 7583SOL    HW223150   5.410   3.124   6.233  1.6215 -0.2248  0.4671
 7584SOL     OW23151   0.315   1.634   4.606  0.4293 -0.0585  0.3439
 7584SOL    HW123152   0.280   1.635   4.517 -0.0100  3.1754  0.4388
 7584SOL    HW223153   0.409   1.616   4.595  0.6112  1.4331 -0.9399
 7585SOL     OW23154   3.878   3.577   6.734 -0.0267 -0.6639  0.1395
 7585SOL    HW123155   3.913   3.662   6.759 -0.2363 -0.4568 -0.2524
 7585SOL    HW223156   3.934   3.548   6.662 -1.6918  0.4847 -1.7073
 7586SOL     OW23157   2.918   2.971   1.529 -0.7144 -0.0885 -0.2117
 7586SOL    HW123158   2.861   2.933   1.596 -1.2491  0.6132 -0.2615
 7586SOL    HW223159   2.858   3.012   1.467 -0.3650 -2.2290 -2.1190
 7587SOL     OW23160   6.300   0.302   4.658  0.1836  0.1287 -0.2297
 7587SOL    HW123161   6.335   0.287   4.746  0.4630  0.0141 -0.3605
 7587SOL    HW223162   6.327   0.391   4.636 -1.9946  1.1243  0.7952
 7588SOL     OW23163   1.419   4.027   5.957  0.3403  0.1365  0.1588
 7588SOL    HW123164   1.414   4.097   6.022  1.2979  0.4528 -0.0889
 7588SOL    HW223165   1.510   3.999   5.959 -0.0003 -0.9911  0.1310
 7589SOL     OW23166   1.254   6.435   6.134 -0.3208 -0.4292  0.2488
 7589SOL    HW123167   1.310   6.402   6.064 -1.3394 -0.7863 -0.4335
 7589SOL    HW223168   1.312   6.445   6.209  0.6875 -0.5738 -0.4878
 7590SOL     OW23169   1.551   3.229   2.524  0.4449 -0.0136  0.2670
 7590SOL    HW123170   1.621   3.218   2.459 -0.5885 -0.1558 -0.8458
 7590SOL    HW223171   1.486   3.163   2.501 -0.6241  0.9204  0.5229
 7591SOL     OW23172   5.793   2.334   4.970  0.0006 -0.4512 -0.4877
 7591SOL    HW123173   5.787   2.256   5.025 -2.6132 -0.2581 -0.3597
 7591SOL    HW223174   5.886   2.359   4.972  0.2250 -1.1371  2.8380
 7592SOL     OW23175   5.648   3.588   1.389  0.2138  0.6344 -0.2048
 7592SOL    HW123176   5.726   3.631   1.356  0.2905  0.5651 -0.1182
 7592SOL    HW223177   5.583   3.657   1.397  0.2109  0.6583 -0.4511
 7593SOL     OW23178   4.958   2.121   4.980  0.0480  0.2263  0.3509
 7593SOL    HW123179   4.958   2.109   5.075  1.4844  0.6907  0.4217
 7593SOL    HW223180   4.927   2.211   4.968 -1.9195 -0.4127  0.2551
 7594SOL     OW23181   1.600   1.691   2.580 -0.3665  0.0278  0.3398
 7594SOL    HW123182   1.582   1.673   2.488  1.6819 -0.4294 -0.0104
 7594SOL    HW223183   1.665   1.761   2.579 -0.9736  0.6260  1.4765
 7595SOL     OW23184   3.665   6.183   0.973  0.1468 -0.2346 -0.3984
 7595SOL    HW123185   3.610   6.167   0.897 -0.7075  0.7015  0.0048
 7595SOL    HW223186   3.613   6.155   1.048  0.4407  0.1344 -0.0500
 7596SOL     OW23187   5.314   4.848   0.385  0.1349  0.2093 -0.1029
 7596SOL    HW123188   5.238   4.855   0.442  0.5794 -1.2176  0.6985
 7596SOL    HW223189   5.277   4.831   0.298 -0.4785  0.4156  0.1123
 7597SOL     OW23190   5.342   5.547   3.201 -0.7067  0.5551 -0.3324
 7597SOL    HW123191   5.294   5.615   3.248 -0.7053 -0.4251  1.1509
 7597SOL    HW223192   5.397   5.506   3.268  1.5147  1.0016 -1.7652
 7598SOL     OW23193   5.548   3.599   0.359  0.4107 -0.0361  0.0086
 7598SOL    HW123194   5.454   3.602   0.375  0.4988 -0.9105  0.7928
 7598SOL    HW223195   5.556   3.598   0.264 -0.4363 -1.3114 -0.0700
 7599SOL     OW23196   6.325   5.871   6.678  0.1109 -0.4373 -0.1699
 7599SOL    HW123197   6.391   5.857   6.746 -0.6615  1.1987  0.9784
 7599SOL    HW223198   6.366   5.931   6.616 -0.8253  2.1969  1.5622
 7600SOL     OW23199   3.839   1.780   0.126  0.0435 -0.0849  0.1694
 7600SOL    HW123200   3.827   1.787   0.221  0.2632 -2.1807  0.4060
 7600SOL    HW223201   3.933   1.796   0.113  0.4631 -1.9636  0.6160
 7601SOL     OW23202   0.915   6.061   3.121 -0.5928 -0.0851 -0.0202
 7601SOL    HW123203   0.966   6.132   3.082 -0.0613 -0.7197 -0.5072
 7601SOL    HW223204   0.980   5.995   3.144 -1.1492 -0.6853 -0.1550
 7602SOL     OW23205   2.827   1.755   1.869  0.8730  0.1050 -0.0307
 7602SOL    HW123206   2.895   1.750   1.801  0.0750 -0.7197 -0.7822
 7602SOL    HW223207   2.761   1.692   1.842 -0.4969  1.3163  0.3717
 7603SOL     OW23208   5.951   4.791   2.749  0.3508  0.5428  0.8702
 7603SOL    HW123209   5.917   4.825   2.666 -1.4159 -1.2005  0.7995
 7603SOL    HW223210   5.951   4.867   2.807  1.0367  1.6662 -0.5191
 7604SOL     OW23211   4.930   4.269   5.297  0.7046  0.2975  0.4872
 7604SOL    HW123212   4.944   4.189   5.246 -0.2635 -0.7154  1.7428
 7604SOL    HW223213   4.887   4.329   5.235 -1.0638 -1.1433  0.2455
 7605SOL     OW23214   5.424   2.543   6.106 -0.2268 -0.1005  0.0914
 7605SOL    HW123215   5.455   2.539   6.016  1.4385  2.1897  0.4688
 7605SOL    HW223216   5.350   2.604   6.104 -1.9696 -2.0919 -0.0687
 7606SOL     OW23217   5.537   1.819   6.771 -0.5179 -0.4370  0.2048
 7606SOL    HW123218   5.592   1.835   6.848 -2.3936 -0.1127  1.5569
 7606SOL    HW223219   5.476   1.751   6.799 -2.9233  1.4749 -0.0365
 7607SOL     OW23220   4.082   2.496   0.302 -0.3593 -0.1921  0.0659
 7607SOL    HW123221   4.096   2.404   0.327 -2.0370  0.3183  3.6119
 7607SOL    HW223222   4.046   2.536   0.382 -1.5831  3.0953 -1.9634
 7608SOL     OW23223   6.061   6.476   2.778 -0.4551  0.6654 -0.2431
 7608SOL    HW123224   6.026   6.388   2.793 -1.3299  1.1172  0.4767
 7608SOL    HW223225   6.084   6.477   2.685  1.1587 -0.8560  0.0925
 7609SOL     OW23226   3.733   4.029   4.632 -0.1050 -0.2513  0.2335
 7609SOL    HW123227   3.728   4.112   4.677  3.8557 -0.3717  1.2060
 7609SOL    HW223228   3.686   3.967   4.689 -1.8961  0.9620  0.1557
 7610SOL     OW23229   2.995   5.538   5.130 -0.2840 -0.0369 -0.3716
 7610SOL    HW123230   2.919   5.515   5.183  0.6291 -0.1353  0.9220
 7610SOL    HW223231   3.065   5.553   5.193  0.9622 -0.6249 -1.5629
 7611SOL     OW23232   2.914   1.990   1.524 -0.2744 -0.1280  0.1870
 7611SOL    HW123233   2.828   2.006   1.485 -0.3299  1.4133  0.8543
 7611SOL    HW223234   2.904   1.909   1.573 -1.3031 -0.0539  0.1128
 7612SOL     OW23235   2.615   1.952   1.733 -0.2813  0.1335  0.2443
 7612SOL    HW123236   2.645   1.925   1.820  0.2490 -0.1397 -0.0226
 7612SOL    HW223237   2.633   2.046   1.730 -0.3376  0.1522  0.4401
 7613SOL     OW23238   2.996   0.038   2.187  0.0279 -0.2257 -0.4019
 7613SOL    HW123239   3.087   0.034   2.158  0.7595  0.6612  1.5843
 7613SOL    HW223240   2.957  -0.043   2.154  1.5651 -0.6826 -1.1915
 7614SOL     OW23241   0.771   2.420   2.852  0.4775 -0.7284  0.0463
 7614SOL    HW123242   0.863   2.437   2.871  0.2088  1.4861 -0.3102
 7614SOL    HW223243   0.725   2.500   2.879 -1.3052 -1.6479 -0.0675
 7615SOL     OW23244   6.561   6.481   1.625  0.1308  0.0909 -0.4176
 7615SOL    HW123245   6.610   6.525   1.555  0.8802  0.3036  0.2250
 7615SOL    HW223246   6.628   6.440   1.679 -0.4540 -0.2464  0.0603
 7616SOL     OW23247   6.483   4.373   5.911 -0.2482 -0.1108  0.0520
 7616SOL    HW123248   6.392   4.390   5.934  0.1775  1.6099  0.6505
 7616SOL    HW223249   6.483   4.284   5.877 -2.6119  0.6695 -2.4229
 7617SOL     OW23250   4.017   5.635   6.021 -0.0604  0.7487 -0.1740
 7617SOL    HW123251   3.930   5.613   5.985 -0.3912 -0.0293  1.0229
 7617SOL    HW223252   4.018   5.730   6.025 -1.0499  0.7521  0.2231
 7618SOL     OW23253   3.696   4.329   2.083  0.1528  0.3087  0.3408
 7618SOL    HW123254   3.646   4.264   2.132 -0.8007  0.9233  0.2185
 7618SOL    HW223255   3.739   4.383   2.150  1.4515 -0.7978  0.4367
 7619SOL     OW23256   0.217   0.273   3.208 -0.3323  0.3294  0.1929
 7619SOL    HW123257   0.241   0.334   3.278 -0.8141 -0.4345  1.0338
 7619SOL    HW223258   0.290   0.279   3.146 -0.1846  1.4643  0.4481
 7620SOL     OW23259   4.118   3.835   3.156 -0.6246 -0.1586  0.3438
 7620SOL    HW123260   4.024   3.820   3.144 -0.3489 -2.0445  0.2765
 7620SOL    HW223261   4.138   3.798   3.242  0.5983 -2.7821 -0.9604
 7621SOL     OW23262   5.515   1.471   3.873  0.2565  0.0865 -0.2954
 7621SOL    HW123263   5.450   1.522   3.825  1.1476  1.1771 -0.3975
 7621SOL    HW223264   5.478   1.461   3.961 -0.3580  0.0544 -0.5503
 7622SOL     OW23265   3.018   3.780   2.516  0.4265  0.4873  0.0588
 7622SOL    HW123266   3.006   3.875   2.510 -0.4106  0.3282 -0.9915
 7622SOL    HW223267   3.068   3.757   2.439 -1.6693 -0.2482 -1.1633
 7623SOL     OW23268   1.031   1.872   0.820  0.1698  0.3525  0.7206
 7623SOL    HW123269   0.942   1.903   0.805 -0.3914 -0.9952  1.0622
 7623SOL    HW223270   1.063   1.849   0.733  0.6822  2.0365  0.4334
 7624SOL     OW23271   4.834   5.310   4.410  0.2074 -0.3158  0.4482
 7624SOL    HW123272   4.767   5.324   4.342  0.2551 -0.5992  0.3398
 7624SOL    HW223273   4.873   5.396   4.423 -0.9627  0.1091  1.3432
 7625SOL     OW23274   1.474   3.467   2.117  0.0388  0.1022 -0.3418
 7625SOL    HW123275   1.386   3.443   2.148 -0.0532  2.3139  1.3944
 7625SOL    HW223276   1.526   3.388   2.130 -1.7052 -1.3196 -1.6020
 7626SOL     OW23277   2.145   0.133   2.114 -0.2798  0.0560 -0.2293
 7626SOL    HW123278   2.159   0.040   2.093  1.3773  0.0864  0.5984
 7626SOL    HW223279   2.232   0.166   2.136 -1.1852  1.1560  2.0282
 7627SOL     OW23280   3.986   3.346   3.570 -0.4905 -0.0815 -0.1685
 7627SOL    HW123281   4.038   3.319   3.495  0.8373 -0.5330  0.8718
 7627SOL    HW223282   3.970   3.439   3.557 -0.7336 -0.2592 -1.2500
 7628SOL     OW23283   6.439   4.734   4.293  0.1830  0.4803  0.2098
 7628SOL    HW123284   6.522   4.777   4.312  0.0304  0.9247 -0.0967
 7628SOL    HW223285   6.397   4.722   4.378  0.8972 -0.4576  0.4446
 7629SOL     OW23286   0.134   3.089   3.477 -0.8055 -0.1852  0.2319
 7629SOL    HW123287   0.170   3.166   3.523 -1.0563 -0.6863  1.2896
 7629SOL    HW223288   0.147   3.109   3.385 -0.5093  0.9648  0.5014
 7630SOL     OW23289   3.490   5.974   3.794 -0.1155  0.3118 -0.4372
 7630SOL    HW123290   3.524   5.891   3.828  2.0444  0.4887 -1.9498
 7630SOL    HW223291   3.396   5.968   3.808 -0.1695 -2.7927 -1.2439
 7631SOL     OW23292   4.489   1.411   5.981 -0.0072 -0.3905  0.0335
 7631SOL    HW123293   4.398   1.382   5.967  0.5158 -1.8156 -0.5319
 7631SOL    HW223294   4.507   1.388   6.072  0.1818 -1.2405 -0.2142
 7632SOL     OW23295   0.978   4.507   1.940  0.7940  0.4200 -0.1697
 7632SOL    HW123296   0.978   4.412   1.954  0.2514  0.5330  0.6694
 7632SOL    HW223297   1.068   4.534   1.963  0.0541  0.5578  3.1967
 7633SOL     OW23298   6.071   0.465   4.790  0.3921  0.3354  0.5752
 7633SOL    HW123299   6.101   0.497   4.705 -0.3237  1.2068  0.6408
 7633SOL    HW223300   6.047   0.544   4.838 -2.3145 -0.2915  0.4047
 7634SOL     OW23301   5.808   1.084   6.441 -0.2307  0.1241  0.3670
 7634SOL    HW123302   5.728   1.034   6.454  0.8891 -1.5012  1.3485
 7634SOL    HW223303   5.785   1.150   6.376 -1.9132 -1.3380 -0.6028
 7635SOL     OW23304   1.307   0.888   5.111  0.2725 -0.2799  0.0494
 7635SOL    HW123305   1.362   0.842   5.048  0.1863 -1.0352  0.5185
 7635SOL    HW223306   1.314   0.837   5.192  0.9114  1.0327  0.8649
 7636SOL     OW23307   4.320   3.093   3.191  0.2370  0.2054 -0.4069
 7636SOL    HW123308   4.269   3.047   3.124  1.2289  0.5654 -1.4257
 7636SOL    HW223309   4.260   3.159   3.225 -0.3107 -0.0505 -0.8595
 7637SOL     OW23310   1.960   4.487   3.158  0.1666 -0.8557  0.6908
 7637SOL    HW123311   1.895   4.423   3.186 -0.1130 -1.3807 -1.0169
 7637SOL    HW223312   1.925   4.523   3.076 -0.0357  2.0260  1.9070
 7638SOL     OW23313   5.770   0.309   1.909 -0.8257 -0.3773 -0.1120
 7638SOL    HW123314   5.788   0.227   1.955 -0.3951 -0.4060 -0.3298
 7638SOL    HW223315   5.718   0.282   1.833 -3.6031 -0.0860  1.5562
 7639SOL     OW23316   0.158   4.357   1.101 -0.2493 -0.1812 -0.0124
 7639SOL    HW123317   0.081   4.380   1.152  0.1024  0.7439  0.1148
 7639SOL    HW223318   0.134   4.376   1.010 -0.1219  0.2323  0.0416
 7640SOL     OW23319   3.429   0.214   0.285 -0.3088 -0.1213  0.0630
 7640SOL    HW123320   3.525   0.220   0.279 -0.3704  2.1796  0.7116
 7640SOL    HW223321   3.413   0.140   0.344  1.0225 -1.0659 -0.7041
 7641SOL     OW23322   4.164   4.586   1.870 -0.2047 -0.2271  0.5547
 7641SOL    HW123323   4.166   4.500   1.828 -1.2254 -0.5540  1.1526
 7641SOL    HW223324   4.242   4.630   1.837  0.4114 -1.4314  0.3432
 7642SOL     OW23325   0.030   5.881   3.624 -0.2854 -0.1842  0.0474
 7642SOL    HW123326   0.115   5.916   3.651 -0.6433 -0.0442  1.0480
 7642SOL    HW223327   0.050   5.826   3.549  0.2516  2.4033 -1.8417
 7643SOL     OW23328   1.608   4.844   4.260  0.0676  0.4122  0.1747
 7643SOL    HW123329   1.655   4.873   4.338 -0.0133 -1.0510  0.8004
 7643SOL    HW223330   1.595   4.750   4.274  0.2465  0.0732 -1.6951
 7644SOL     OW23331   5.309   5.813   5.645  0.5369  0.3712 -0.2165
 7644SOL    HW123332   5.328   5.765   5.726  1.3349  1.6166  0.3688
 7644SOL    HW223333   5.391   5.814   5.597  0.7192  1.6833  0.0887
 7645SOL     OW23334   6.082   2.500   0.720 -0.1000  0.3227  0.2472
 7645SOL    HW123335   6.148   2.433   0.733  0.6965  1.0099 -0.1445
 7645SOL    HW223336   5.999   2.456   0.739  0.3657 -0.8585 -0.3212
 7646SOL     OW23337   0.399   0.072   2.910 -0.3067 -0.5148 -0.5451
 7646SOL    HW123338   0.407  -0.023   2.912 -1.7239 -0.6679 -1.0968
 7646SOL    HW223339   0.471   0.101   2.854  1.3060 -1.0683  1.1443
 7647SOL     OW23340   2.664   0.205   4.712  0.1538 -0.4051 -0.1070
 7647SOL    HW123341   2.698   0.170   4.795 -0.1080 -1.8463 -0.5735
 7647SOL    HW223342   2.572   0.223   4.730  0.3764  0.4396  0.2433
 7648SOL     OW23343   1.939   2.106   4.658 -0.2475 -0.4511 -0.3468
 7648SOL    HW123344   1.860   2.123   4.709  0.2791  2.1609 -0.2690
 7648SOL    HW223345   1.934   2.166   4.584  1.2772 -0.7948 -0.7741
 7649SOL     OW23346   6.713   2.241   1.236 -0.0521  0.4533 -0.0353
 7649SOL    HW123347   6.768   2.172   1.272 -0.9681 -0.5303 -0.4422
 7649SOL    HW223348   6.732   2.318   1.289  1.7307  0.1708 -0.2043
 7650SOL     OW23349   5.852   3.088   3.836  0.2229  0.3613  0.1141
 7650SOL    HW123350   5.839   3.104   3.930 -0.0771 -0.4916  0.2293
 7650SOL    HW223351   5.763   3.079   3.801  0.2336 -3.9406  0.6168
 7651SOL     OW23352   4.291   2.349   5.518  0.1438  0.8311 -0.3017
 7651SOL    HW123353   4.198   2.330   5.526  0.5511 -0.9431  0.9131
 7651SOL    HW223354   4.334   2.281   5.571  2.1894  0.8978 -1.7537
 7652SOL     OW23355   4.923   5.030   4.378 -0.6918 -0.3206  0.0099
 7652SOL    HW123356   4.847   4.990   4.337 -0.0524 -0.2080 -1.3390
 7652SOL    HW223357   4.889   5.109   4.421 -1.5793 -1.1143  0.8122
 7653SOL     OW23358   0.819   1.570   6.008 -0.1567  0.5583  0.8061
 7653SOL    HW123359   0.741   1.611   6.047 -2.4884 -2.2030 -0.6455
 7653SOL    HW223360   0.829   1.488   6.057  0.7484  0.0398 -0.2299
 7654SOL     OW23361   2.872   3.833   4.840  0.3368 -0.7549 -0.2294
 7654SOL    HW123362   2.852   3.760   4.781  0.2921 -0.7447 -0.2269
 7654SOL    HW223363   2.787   3.875   4.856  0.4050 -0.5345 -0.4524
 7655SOL     OW23364   4.562   5.124   6.410  0.4350 -0.1304 -0.5575
 7655SOL    HW123365   4.549   5.139   6.316  1.8583 -0.6345 -0.8618
 7655SOL    HW223366   4.654   5.102   6.418  0.1960 -0.7146  0.8951
 7656SOL     OW23367   6.225   2.285   0.732  0.0355  0.5093 -0.1420
 7656SOL    HW123368   6.306   2.294   0.682  0.9837 -0.5005  1.1258
 7656SOL    HW223369   6.190   2.201   0.706 -0.7897  1.0705 -0.8983
 7657SOL     OW23370   2.162   3.918   2.956  0.4256 -0.1581  0.5230
 7657SOL    HW123371   2.103   3.966   3.014  0.2731  1.6702 -1.0329
 7657SOL    HW223372   2.237   3.976   2.944  0.7222 -0.7433 -0.6064
 7658SOL     OW23373   4.658   6.192   6.277  0.5406 -0.2918 -0.1366
 7658SOL    HW123374   4.751   6.185   6.301  0.3831  2.1966  1.5832
 7658SOL    HW223375   4.657   6.190   6.182  2.5584  1.0442 -0.2416
 7659SOL     OW23376   3.732   0.157   6.230  0.1876 -0.0332  0.0510
 7659SOL    HW123377   3.736   0.180   6.137 -0.5300 -0.7710 -0.1759
 7659SOL    HW223378   3.649   0.110   6.239  0.8438 -1.0700  0.8156
 7660SOL     OW23379   4.437   3.943   3.334 -0.0142  0.1371 -0.0163
 7660SOL    HW123380   4.517   3.964   3.382 -0.2697 -1.7978  1.3938
 7660SOL    HW223381   4.451   3.853   3.303 -0.8420  0.5000 -1.5460
 7661SOL     OW23382   0.485   6.651   0.637  0.1647  0.6213 -0.3904
 7661SOL    HW123383   0.446   6.586   0.695 -1.2681  2.5131  0.8914
 7661SOL    HW223384   0.463   6.735   0.677  1.1751  1.9401 -2.4381
 7662SOL     OW23385   1.581   5.336   3.620 -0.3623 -0.2688 -0.6286
 7662SOL    HW123386   1.632   5.262   3.651 -0.7882 -0.2570  0.1225
 7662SOL    HW223387   1.492   5.301   3.611 -0.6246  0.2168  0.0104
 7663SOL     OW23388   3.994   2.644   4.276  0.4545 -0.1492  0.1558
 7663SOL    HW123389   3.973   2.553   4.255  0.2279  0.1881 -1.1661
 7663SOL    HW223390   4.074   2.638   4.327 -0.5595 -1.1987  1.7214
 7664SOL     OW23391   0.003   3.682   5.850 -0.1443  0.2049 -0.0984
 7664SOL    HW123392  -0.044   3.760   5.820  0.7930  0.1080 -1.9913
 7664SOL    HW223393   0.044   3.648   5.771 -0.2457 -2.0269  0.7552
 7665SOL     OW23394   1.312   5.455   0.929 -0.4166  0.2501 -0.1070
 7665SOL    HW123395   1.354   5.527   0.881  1.3991  0.1690  1.2424
 7665SOL    HW223396   1.367   5.379   0.911 -0.9615 -0.2663  0.3656
 7666SOL     OW23397   0.818   1.999   2.660  0.2546 -0.2042  0.5070
 7666SOL    HW123398   0.883   1.998   2.730  1.1471  0.9727 -0.2585
 7666SOL    HW223399   0.830   1.915   2.615 -0.2162 -0.9001  1.6234
 7667SOL     OW23400   3.258   1.461   0.107  0.1648 -0.6837 -0.1440
 7667SOL    HW123401   3.287   1.427   0.023  2.5762  1.2311 -0.2309
 7667SOL    HW223402   3.201   1.535   0.085  0.9629 -0.0515 -0.1515
 7668SOL     OW23403   6.505   1.150   2.546 -0.0672  0.6081 -1.1647
 7668SOL    HW123404   6.583   1.162   2.492 -0.7893  2.6720 -1.8498
 7668SOL    HW223405   6.490   1.236   2.586  0.0770 -0.6498  1.9184
 7669SOL     OW23406   2.587   1.885   0.391  0.0155 -0.1893 -0.1135
 7669SOL    HW123407   2.665   1.850   0.348 -0.3401 -2.3516  0.8943
 7669SOL    HW223408   2.603   1.872   0.484 -1.3590 -0.2553  0.1281
 7670SOL     OW23409   3.712   0.977   3.920 -0.2241 -0.6223  0.0081
 7670SOL    HW123410   3.625   0.961   3.883 -0.8059  1.1827  0.5270
 7670SOL    HW223411   3.770   0.920   3.869 -1.4189 -0.4123 -1.6756
 7671SOL     OW23412   3.811   4.688   2.957 -0.2177 -0.2279 -0.0911
 7671SOL    HW123413   3.857   4.756   2.906  0.6396 -1.2569 -0.7484
 7671SOL    HW223414   3.748   4.651   2.895  1.2957 -1.9522 -0.7146
 7672SOL     OW23415   4.694   3.508   0.427 -0.3019  0.2440  0.0781
 7672SOL    HW123416   4.732   3.427   0.461  0.3522  0.3709 -0.3474
 7672SOL    HW223417   4.602   3.487   0.411  0.1328 -0.7779 -1.1978
 7673SOL     OW23418   3.589   2.403   4.106 -0.5432  0.1510 -0.2439
 7673SOL    HW123419   3.643   2.345   4.052 -2.6698 -1.0656 -1.1727
 7673SOL    HW223420   3.551   2.345   4.172 -1.6097  0.7591 -0.3151
 7674SOL     OW23421   4.943   4.600   5.925 -0.3239 -0.0544 -0.4030
 7674SOL    HW123422   4.922   4.511   5.896  0.2401 -0.4329  0.3059
 7674SOL    HW223423   4.893   4.612   6.006  1.0329 -0.4537  0.5370
 7675SOL     OW23424   0.419   1.949   1.844  0.4865 -0.3175 -0.2188
 7675SOL    HW123425   0.456   2.037   1.833  0.8425 -0.5659 -1.0828
 7675SOL    HW223426   0.380   1.928   1.759 -1.5207 -0.1448  0.6006
 7676SOL     OW23427   0.478   2.987   0.487  0.7556  0.0075  0.5043
 7676SOL    HW123428   0.570   3.013   0.485  0.8113 -0.2255 -1.4540
 7676SOL    HW223429   0.430   3.064   0.455  0.2637  0.0974  1.4252
 7677SOL     OW23430   6.239   0.279   0.324  0.0992  0.4153 -0.0886
 7677SOL    HW123431   6.255   0.264   0.417  1.3051  1.6613 -0.0685
 7677SOL    HW223432   6.148   0.308   0.320  0.0116  0.2718  0.6947
 7678SOL     OW23433   1.246   3.294   6.063 -0.3971  0.2607  0.9075
 7678SOL    HW123434   1.200   3.315   5.982  0.7976 -0.5176 -0.0073
 7678SOL    HW223435   1.283   3.208   6.048  2.6624  1.4345  0.9539
 7679SOL     OW23436   6.076   2.024   1.227  0.5539 -0.0662  0.0593
 7679SOL    HW123437   6.045   2.070   1.304 -0.3629  0.8033 -0.7982
 7679SOL    HW223438   6.080   2.091   1.159  1.9739 -0.6713 -0.4952
 7680SOL     OW23439   5.778   5.368   4.435 -0.7517  0.5975 -0.5504
 7680SOL    HW123440   5.724   5.292   4.414  0.8182 -0.3240 -1.4698
 7680SOL    HW223441   5.822   5.344   4.516 -1.8917  1.4673  0.3605
 7681SOL     OW23442   4.307   6.261   1.033 -0.0612  0.1123  0.3453
 7681SOL    HW123443   4.360   6.222   0.963 -0.6555 -0.6260  0.3056
 7681SOL    HW223444   4.234   6.303   0.987 -0.8384 -0.9796  0.5593
 7682SOL     OW23445   0.586   6.089   0.403 -0.3684 -0.0841  0.4417
 7682SOL    HW123446   0.508   6.040   0.374 -0.3517  0.4800 -0.6302
 7682SOL    HW223447   0.552   6.155   0.463 -0.3643 -1.5079  2.1029
 7683SOL     OW23448   2.562   3.143   2.765  0.0123  0.1394 -0.0013
 7683SOL    HW123449   2.647   3.099   2.765  0.6745  1.3535  0.9590
 7683SOL    HW223450   2.510   3.092   2.827  0.3487 -0.0575  0.1231
 7684SOL     OW23451   5.171   0.259   1.502  0.0273 -0.2923 -0.5102
 7684SOL    HW123452   5.135   0.316   1.434  0.7705 -0.7414 -1.3095
 7684SOL    HW223453   5.132   0.290   1.583 -2.3307 -0.9051 -1.3470
 7685SOL     OW23454   3.094   2.098   3.220  0.0952 -0.6853  0.6648
 7685SOL    HW123455   3.030   2.028   3.209  0.0114 -0.3062 -1.8346
 7685SOL    HW223456   3.041   2.178   3.225  0.2783 -0.5440  0.4182
 7686SOL     OW23457   5.219   1.065   3.249 -0.0050 -0.5634 -0.0542
 7686SOL    HW123458   5.283   1.044   3.317  0.1776  1.2246  0.3851
 7686SOL    HW223459   5.259   1.035   3.168  0.1990 -1.8554  0.4994
 7687SOL     OW23460   2.659   5.440   4.241 -0.0158  0.1233  0.2174
 7687SOL    HW123461   2.694   5.361   4.201  0.9857 -0.3339  1.8986
 7687SOL    HW223462   2.604   5.409   4.313  2.6352  0.8528  2.7533
 7688SOL     OW23463   6.127   4.137   6.291  0.2595 -0.2817 -0.2727
 7688SOL    HW123464   6.054   4.167   6.345 -0.1163  0.1752 -1.0108
 7688SOL    HW223465   6.090   4.069   6.236  0.5119 -0.3967 -0.3014
 7689SOL     OW23466   4.167   3.552   1.992 -0.5417 -0.5042  0.2298
 7689SOL    HW123467   4.171   3.503   1.909 -0.2078  1.3414 -0.9035
 7689SOL    HW223468   4.212   3.496   2.055  0.8093 -1.1877 -1.2570
 7690SOL     OW23469   5.775   3.466   5.513  0.1835 -0.4717  0.5534
 7690SOL    HW123470   5.740   3.441   5.428  0.5455 -0.2787  0.3461
 7690SOL    HW223471   5.707   3.519   5.553  0.2585 -0.0533  0.1303
 7691SOL     OW23472   4.432   1.923   5.615  0.5342 -0.3013 -0.5463
 7691SOL    HW123473   4.438   2.011   5.577  0.9389 -0.5304 -1.0054
 7691SOL    HW223474   4.522   1.899   5.636  0.4123 -0.5619 -0.3152
 7692SOL     OW23475   6.240   4.695   4.498  0.3923 -0.7091  0.0807
 7692SOL    HW123476   6.216   4.603   4.504  1.7123 -1.0773 -0.0106
 7692SOL    HW223477   6.165   4.742   4.535 -1.3859 -1.6472 -2.0769
 7693SOL     OW23478   5.191   0.374   6.729  0.1769 -0.0933  0.3942
 7693SOL    HW123479   5.114   0.321   6.750  0.5693 -0.9313 -0.2101
 7693SOL    HW223480   5.175   0.406   6.640  1.0174 -1.2149 -0.1824
 7694SOL     OW23481   2.273   0.972   5.288  0.3873  0.4112  0.7221
 7694SOL    HW123482   2.287   1.056   5.244 -0.6932  0.2316 -0.0011
 7694SOL    HW223483   2.193   0.937   5.249 -0.5223  0.1451  2.7362
 7695SOL     OW23484   0.603   0.026   3.274  0.1116  0.1456 -0.6236
 7695SOL    HW123485   0.595   0.109   3.320  2.8983  0.2064 -0.0354
 7695SOL    HW223486   0.628   0.049   3.185 -0.8876 -0.0505 -0.9634
 7696SOL     OW23487   5.312   6.036   6.762 -0.0718  0.1863  0.3370
 7696SOL    HW123488   5.312   6.005   6.852 -0.5769  0.6054  0.4863
 7696SOL    HW223489   5.386   5.990   6.720 -0.6366 -1.0063  0.6159
 7697SOL     OW23490   6.460   2.256   5.911 -0.2900 -0.3147  0.3029
 7697SOL    HW123491   6.514   2.177   5.912 -1.7880 -1.4356 -1.1765
 7697SOL    HW223492   6.521   2.328   5.929  1.5829 -1.5434 -0.8610
 7698SOL     OW23493   5.732   3.177   4.962 -0.4917 -0.0316  0.6146
 7698SOL    HW123494   5.671   3.250   4.975 -0.1083  0.3650  0.2464
 7698SOL    HW223495   5.750   3.144   5.050 -1.3049 -0.2143  0.7176
 7699SOL     OW23496   5.236   3.638   5.658 -0.2515  0.2463 -0.2472
 7699SOL    HW123497   5.179   3.665   5.730 -0.1684  2.0201 -0.7851
 7699SOL    HW223498   5.176   3.617   5.586 -0.2924  0.6935 -0.3516
 7700SOL     OW23499   3.216   0.190   6.159  0.0877 -0.5132 -0.0949
 7700SOL    HW123500   3.189   0.216   6.071 -1.6739 -1.4445  0.1336
 7700SOL    HW223501   3.220   0.273   6.208 -1.4388 -0.2231 -0.4135
 7701SOL     OW23502   3.619   3.590   2.823 -0.0496 -0.2567  0.0354
 7701SOL    HW123503   3.594   3.575   2.732  0.9574 -1.2464 -0.0890
 7701SOL    HW223504   3.713   3.577   2.826 -0.1287 -0.7602  1.3140
 7702SOL     OW23505   4.448   3.490   2.522 -0.7034 -0.6411 -0.8201
 7702SOL    HW123506   4.443   3.396   2.501  0.1828 -0.7426 -0.6287
 7702SOL    HW223507   4.430   3.534   2.439 -2.8395 -0.9264 -0.5661
 7703SOL     OW23508   1.291   3.131   3.829 -0.3832  0.6880 -0.3288
 7703SOL    HW123509   1.314   3.041   3.808 -0.8897  0.2973  0.7713
 7703SOL    HW223510   1.372   3.180   3.816 -0.1218  0.0980 -0.9930
 7704SOL     OW23511   2.596   0.480   2.450 -0.1146  0.3646  0.1490
 7704SOL    HW123512   2.630   0.460   2.363 -1.7742  0.0955 -0.4887
 7704SOL    HW223513   2.629   0.409   2.505  1.1204  0.6472 -0.1925
 7705SOL     OW23514   1.527   5.107   0.225  0.2894  0.7956  0.5543
 7705SOL    HW123515   1.619   5.125   0.243  0.3570 -1.2296  2.7760
 7705SOL    HW223516   1.483   5.121   0.309 -0.7856 -1.6730  0.4968
 7706SOL     OW23517   6.219   1.030   1.922 -0.3284  0.0452 -0.1482
 7706SOL    HW123518   6.265   1.115   1.927  0.0130 -0.1244 -0.3776
 7706SOL    HW223519   6.277   0.969   1.968  0.6038 -0.5666 -2.0438
 7707SOL     OW23520   2.700   5.708   2.268 -1.0930  0.7980 -0.5583
 7707SOL    HW123521   2.753   5.739   2.342 -0.3597  0.0885 -0.7660
 7707SOL    HW223522   2.664   5.624   2.298 -1.7818  1.0862 -0.5676
 7708SOL     OW23523   4.921   0.823   4.913  0.0801 -0.3302  0.3137
 7708SOL    HW123524   4.887   0.860   4.995  1.6645 -2.0469  1.8589
 7708SOL    HW223525   5.017   0.828   4.923  0.3166 -0.0469 -1.7201
 7709SOL     OW23526   4.913   3.931   5.591 -0.3005  0.0243  0.0127
 7709SOL    HW123527   4.863   3.857   5.557 -0.4517  0.2661 -0.2964
 7709SOL    HW223528   4.851   3.978   5.646 -0.1102 -0.2597  0.4794
 7710SOL     OW23529   3.315   1.237   3.846  0.0317  0.0650 -0.7245
 7710SOL    HW123530   3.285   1.246   3.756  0.1909  1.4672 -0.6534
 7710SOL    HW223531   3.363   1.318   3.864 -0.2583 -0.0474  0.7109
 7711SOL     OW23532   2.323   4.858   2.470 -0.0605  0.1054 -0.1261
 7711SOL    HW123533   2.362   4.775   2.443 -0.6441 -0.5308  0.9548
 7711SOL    HW223534   2.343   4.918   2.397 -0.6483 -1.2667 -1.4651
 7712SOL     OW23535   5.002   3.425   4.829 -0.2737 -0.0980  0.0869
 7712SOL    HW123536   4.951   3.348   4.854 -0.1625 -0.8947 -1.9212
 7712SOL    HW223537   5.047   3.452   4.909 -2.6378 -0.2589  1.5805
 7713SOL     OW23538   6.734   4.067   1.465  0.5372 -0.2840 -0.2629
 7713SOL    HW123539   6.828   4.080   1.457  0.3721  0.9728 -0.4589
 7713SOL    HW223540   6.703   4.145   1.513 -0.6347  0.2766 -1.8212
 7714SOL     OW23541   0.267   5.016   3.268  0.4516  0.3007  0.0907
 7714SOL    HW123542   0.179   5.037   3.299  0.5789  0.2104  0.5167
 7714SOL    HW223543   0.318   5.095   3.287  0.5298  0.2445  0.1133
 7715SOL     OW23544   0.216   0.961   0.687 -0.0063 -0.2810 -0.0384
 7715SOL    HW123545   0.185   0.871   0.699 -0.7418 -0.0691 -0.3234
 7715SOL    HW223546   0.146   1.016   0.723 -0.6598  0.2443 -2.0225
 7716SOL     OW23547   5.751   1.133   5.726  0.1679  0.1821  0.0063
 7716SOL    HW123548   5.806   1.055   5.724  0.4098  0.3661 -1.0315
 7716SOL    HW223549   5.809   1.204   5.699  0.0456  0.7991  1.2782
 7717SOL     OW23550   0.306   1.770   6.330 -0.1751 -0.5115 -0.1089
 7717SOL    HW123551   0.334   1.791   6.419 -0.8135  0.3994 -0.1090
 7717SOL    HW223552   0.256   1.689   6.339 -0.0786 -0.5246  0.3403
 7718SOL     OW23553   0.099   4.654   5.436 -0.1289  0.1928  0.3866
 7718SOL    HW123554   0.048   4.668   5.516  0.0013 -0.2203  0.5396
 7718SOL    HW223555   0.136   4.740   5.416  3.3650 -0.4920  3.1454
 7719SOL     OW23556   2.442   4.776   0.135 -0.4342  0.0847  0.0132
 7719SOL    HW123557   2.407   4.726   0.061  0.8226 -2.5612  1.0640
 7719SOL    HW223558   2.492   4.712   0.185  0.3756  2.2231  2.1221
 7720SOL     OW23559   5.299   6.086   3.243  0.1287  0.2269  0.2642
 7720SOL    HW123560   5.247   6.146   3.297  0.5865  0.9079 -0.0450
 7720SOL    HW223561   5.383   6.080   3.287  0.5303  0.8413 -0.3942
 7721SOL     OW23562   3.004   2.415   0.569  0.4631  0.3278 -0.1283
 7721SOL    HW123563   3.018   2.438   0.478  0.0827  0.5295 -0.1366
 7721SOL    HW223564   2.936   2.348   0.567  0.8952 -0.1193 -0.0366
 7722SOL     OW23565   2.159   3.722   3.992  0.5534 -0.1495 -0.2647
 7722SOL    HW123566   2.151   3.638   4.038  1.8015 -0.2456 -0.2033
 7722SOL    HW223567   2.105   3.782   4.043  2.2395 -0.1429  1.6369
 7723SOL     OW23568   4.733   5.296   5.588 -0.2366  0.7612 -0.0807
 7723SOL    HW123569   4.814   5.292   5.537 -0.5297  0.1577 -0.5169
 7723SOL    HW223570   4.728   5.386   5.618 -0.3558  1.2891 -1.6130
 7724SOL     OW23571   4.178   5.779   1.328 -0.0171  0.1776  0.0413
 7724SOL    HW123572   4.249   5.719   1.351  1.0093  0.9160 -1.0860
 7724SOL    HW223573   4.103   5.748   1.378  0.1793 -2.6822 -1.2579
 7725SOL     OW23574   3.505   6.521   2.624 -0.0472  0.5549  0.5062
 7725SOL    HW123575   3.455   6.484   2.551  0.8033  0.6966 -0.1541
 7725SOL    HW223576   3.453   6.498   2.701 -2.1185  2.2804 -0.2663
 7726SOL     OW23577   3.049   3.341   0.126  0.2572 -0.4126 -0.0231
 7726SOL    HW123578   3.042   3.385   0.211 -0.4716 -2.8600  1.2692
 7726SOL    HW223579   2.975   3.375   0.076 -0.4541 -0.3272  1.0362
 7727SOL     OW23580   0.410   1.996   5.812  0.5608  0.1112  0.0771
 7727SOL    HW123581   0.434   2.042   5.893  0.6677 -0.0109  0.1137
 7727SOL    HW223582   0.478   2.022   5.749  0.9073 -0.4005  0.2399
 7728SOL     OW23583   2.474   6.210   0.966  0.0184  0.1987 -0.5313
 7728SOL    HW123584   2.469   6.228   1.060 -0.2759 -0.0863 -0.4916
 7728SOL    HW223585   2.389   6.172   0.945  0.6979 -1.3545 -0.5715
 7729SOL     OW23586   1.074   2.498   4.130  0.8356  0.5022  0.5282
 7729SOL    HW123587   0.986   2.468   4.152 -0.0433  1.4396 -1.4455
 7729SOL    HW223588   1.087   2.469   4.039  3.5711 -1.7471  1.5064
 7730SOL     OW23589   5.039   4.568   3.092  0.2510  0.4754  0.2120
 7730SOL    HW123590   5.035   4.556   3.187 -0.9850  2.6751  0.5240
 7730SOL    HW223591   5.131   4.557   3.070  0.5782  0.0514  1.6962
 7731SOL     OW23592   2.043   2.593   0.277 -0.3314 -0.0835  0.2201
 7731SOL    HW123593   1.994   2.596   0.195 -1.6794  0.0297  0.9924
 7731SOL    HW223594   1.977   2.568   0.343  1.1371 -2.3120  0.9557
 7732SOL     OW23595   4.355   1.558   0.693  0.1375 -0.0832  0.2312
 7732SOL    HW123596   4.334   1.472   0.659  0.1868 -0.2120  0.5239
 7732SOL    HW223597   4.436   1.545   0.743  0.2559  0.1702  0.1067
 7733SOL     OW23598   3.607   3.948   6.365  0.0603 -0.4090 -0.6796
 7733SOL    HW123599   3.681   3.974   6.310 -0.0177  1.2125 -0.0891
 7733SOL    HW223600   3.641   3.952   6.454  0.0914 -2.6867 -0.5380
 7734SOL     OW23601   4.882   5.640   0.279  0.1978  0.1851 -0.1978
 7734SOL    HW123602   4.813   5.578   0.301  0.3836 -0.1300 -0.4768
 7734SOL    HW223603   4.879   5.706   0.348 -0.1239 -0.0362  0.0026
 7735SOL     OW23604   0.793   6.303   3.469  0.1580  0.0731  0.0676
 7735SOL    HW123605   0.760   6.393   3.465 -0.6361 -0.2491 -1.0446
 7735SOL    HW223606   0.884   6.310   3.438 -0.3937  0.2967 -1.6287
 7736SOL     OW23607   0.748   5.599   0.121  0.6643  0.0906 -0.3045
 7736SOL    HW123608   0.681   5.667   0.116 -1.5522 -1.8112  1.3040
 7736SOL    HW223609   0.803   5.625   0.196 -0.2689  0.0450  0.4094
 7737SOL     OW23610   5.551   1.463   6.615  0.5951  0.0029  0.5869
 7737SOL    HW123611   5.569   1.549   6.576  0.5041 -0.5800 -0.8199
 7737SOL    HW223612   5.602   1.462   6.696 -0.3915  1.8487  1.2934
 7738SOL     OW23613   1.483   3.446   3.036  0.6919  0.3848  0.5073
 7738SOL    HW123614   1.535   3.395   3.098  1.8722  1.5839  0.5487
 7738SOL    HW223615   1.536   3.451   2.957 -0.6433 -0.8107 -0.5167
 7739SOL     OW23616   1.143   2.611   0.657  0.2735 -0.3127  0.2245
 7739SOL    HW123617   1.143   2.527   0.612  0.4393 -0.3995  0.3823
 7739SOL    HW223618   1.189   2.671   0.598  1.9468 -0.8091  0.9640
 7740SOL     OW23619   2.070   0.679   1.536 -0.1444  0.3973 -0.0410
 7740SOL    HW123620   2.154   0.720   1.517 -0.1205 -0.2199 -1.3504
 7740SOL    HW223621   2.092   0.591   1.567 -0.3063 -0.8638 -3.1636
 7741SOL     OW23622   1.190   5.021   1.551 -0.1420  0.0183  0.2097
 7741SOL    HW123623   1.163   4.957   1.617  0.6110 -0.9720 -0.4216
 7741SOL    HW223624   1.251   4.974   1.495  0.5425  1.3422 -0.1937
 7742SOL     OW23625   6.472   4.103   5.854 -0.0887  0.5197 -0.1133
 7742SOL    HW123626   6.453   4.032   5.915 -0.9762  1.1256  0.3391
 7742SOL    HW223627   6.388   4.121   5.811  0.1686  1.1740 -0.3565
 7743SOL     OW23628   2.049   4.710   3.477 -0.3409 -0.7444 -0.1245
 7743SOL    HW123629   1.981   4.721   3.544  1.1134 -1.0952  1.4649
 7743SOL    HW223630   2.082   4.798   3.462  1.0563 -0.9077  1.5707
 7744SOL     OW23631   3.278   2.951   4.518  0.8043 -0.3989  0.0965
 7744SOL    HW123632   3.300   2.952   4.611 -1.0522 -0.6605  0.5793
 7744SOL    HW223633   3.235   2.867   4.504  2.0185 -0.8392 -1.2760
 7745SOL     OW23634   0.236   2.972   1.961  0.6033 -0.1703 -0.3480
 7745SOL    HW123635   0.288   2.928   2.028 -0.8239 -0.1783  0.7897
 7745SOL    HW223636   0.190   3.042   2.008  1.0112  1.0566 -1.6842
 7746SOL     OW23637   3.041   4.183   3.343  0.3578  0.3151 -0.0790
 7746SOL    HW123638   3.135   4.198   3.347  0.3845 -0.0855  1.1048
 7746SOL    HW223639   3.032   4.088   3.344 -0.0782  0.3585  0.2923
 7747SOL     OW23640   5.198   2.800   4.203  0.2560  0.3760  0.5933
 7747SOL    HW123641   5.196   2.727   4.142  1.2344  1.1001 -0.3609
 7747SOL    HW223642   5.287   2.835   4.195 -0.1925  1.6720  1.0144
 7748SOL     OW23643   1.139   5.127   5.295  0.1486  0.5067 -0.7643
 7748SOL    HW123644   1.177   5.214   5.299 -0.7100  0.8421  1.4639
 7748SOL    HW223645   1.101   5.121   5.207  0.3006  2.3423 -0.9806
 7749SOL     OW23646   1.831   5.398   2.556  0.2647  0.1747  0.0498
 7749SOL    HW123647   1.863   5.323   2.605  0.6877  1.3184  1.6064
 7749SOL    HW223648   1.741   5.409   2.585  0.1484  0.1608 -0.3061
 7750SOL     OW23649   4.992   1.625   6.521  0.3325  0.5695 -0.5927
 7750SOL    HW123650   5.056   1.629   6.450 -0.6898 -0.8341 -1.6377
 7750SOL    HW223651   5.036   1.574   6.589  0.3950 -0.2254 -1.2252
 7751SOL     OW23652   2.731   5.938   6.225 -0.7028 -0.0441 -0.1013
 7751SOL    HW123653   2.711   5.957   6.133 -2.1452 -0.3892  0.1194
 7751SOL    HW223654   2.658   5.975   6.274  0.2744  0.5240  0.9597
 7752SOL     OW23655   1.341   0.017   2.281 -0.2037  0.2126 -0.1122
 7752SOL    HW123656   1.381  -0.018   2.361  0.7962  1.7448  0.0944
 7752SOL    HW223657   1.326   0.109   2.300  1.7696  1.0697 -2.2842
 7753SOL     OW23658   4.866   2.960   4.147 -0.2906  0.7871  0.2518
 7753SOL    HW123659   4.907   2.940   4.231  0.1316 -3.3827 -0.7459
 7753SOL    HW223660   4.775   2.980   4.168 -0.1786 -0.1322  1.7158
 7754SOL     OW23661   4.513   3.785   2.712  0.5338  0.0712 -0.4009
 7754SOL    HW123662   4.591   3.733   2.693  1.7058  1.0445  1.4391
 7754SOL    HW223663   4.510   3.790   2.807 -0.5078  1.8956 -0.4729
 7755SOL     OW23664   3.087   0.030   4.869  0.3643 -0.3215 -0.4362
 7755SOL    HW123665   3.102  -0.012   4.953 -1.7403  0.4539  0.3759
 7755SOL    HW223666   2.994   0.015   4.850  0.0397  2.1310 -1.1145
 7756SOL     OW23667   2.873   2.271   2.050  0.4401 -0.5284  0.4638
 7756SOL    HW123668   2.791   2.318   2.050 -0.6810 -2.3739  0.7155
 7756SOL    HW223669   2.915   2.294   2.133 -0.3464 -0.4221  0.8370
 7757SOL     OW23670   1.205   5.836   5.452 -0.2602 -0.0222  0.1337
 7757SOL    HW123671   1.270   5.766   5.455 -1.3082 -1.1403 -1.5824
 7757SOL    HW223672   1.239   5.898   5.388 -0.4567 -0.1593 -0.1044
 7758SOL     OW23673   1.707   1.276   5.008  0.2042  0.4266 -0.0664
 7758SOL    HW123674   1.644   1.270   4.936  1.8709  1.0272 -1.6431
 7758SOL    HW223675   1.682   1.205   5.067 -1.1699 -0.1491 -1.2574
 7759SOL     OW23676   3.526   2.971   0.002 -0.0242 -0.4445  0.1710
 7759SOL    HW123677   3.432   2.956  -0.005 -0.3459  1.2393  0.3352
 7759SOL    HW223678   3.534   3.065   0.018  1.7203 -0.3751 -0.7772
 7760SOL     OW23679   6.242   0.993   3.919 -0.0985  0.2753  0.5473
 7760SOL    HW123680   6.152   0.973   3.893 -0.7488  2.2759  1.1093
 7760SOL    HW223681   6.283   1.029   3.840 -1.0384  3.0805  1.2270
 7761SOL     OW23682   5.183   0.890   1.360 -0.0322 -0.7330 -0.1114
 7761SOL    HW123683   5.135   0.895   1.442  0.3619 -2.3846  0.2736
 7761SOL    HW223684   5.275   0.896   1.386  0.0853  2.4864 -0.8444
 7762SOL     OW23685   0.419   4.978   0.205  0.1968  0.0563  0.0299
 7762SOL    HW123686   0.481   5.048   0.222 -0.2206  0.3194  0.4965
 7762SOL    HW223687   0.342   5.022   0.169 -0.0501 -0.1657  0.2830
 7763SOL     OW23688   3.963   5.784   1.884 -0.4945  0.4315 -0.1384
 7763SOL    HW123689   3.922   5.858   1.927  1.8427  1.1433  1.0319
 7763SOL    HW223690   3.991   5.727   1.956  0.7411  0.1184 -0.8352
 7764SOL     OW23691   0.051   0.313   6.253 -0.1803 -0.0777  0.8170
 7764SOL    HW123692  -0.003   0.392   6.241 -0.3161 -0.2851 -0.0434
 7764SOL    HW223693   0.048   0.296   6.347  0.6272  1.4886  1.1692
 7765SOL     OW23694   5.780   5.745   1.336  0.5335  0.1217 -0.0714
 7765SOL    HW123695   5.757   5.838   1.336 -0.7892 -0.1790 -0.5514
 7765SOL    HW223696   5.741   5.710   1.416  1.5088  0.0893  0.3896
 7766SOL     OW23697   1.772   2.946   1.344 -0.0878 -0.3707  0.2477
 7766SOL    HW123698   1.689   2.974   1.304  0.4004  0.6955 -0.0594
 7766SOL    HW223699   1.753   2.939   1.437 -0.9369 -1.7114 -0.0118
 7767SOL     OW23700   5.746   3.299   3.208  0.8269 -0.0115  0.5257
 7767SOL    HW123701   5.760   3.380   3.159  0.0525  0.8609  1.6880
 7767SOL    HW223702   5.789   3.232   3.156  2.2953  1.2757 -0.0127
 7768SOL     OW23703   0.518   2.814   4.654  0.3507 -0.6612  0.0536
 7768SOL    HW123704   0.441   2.835   4.708  1.4893 -1.1385  1.9732
 7768SOL    HW223705   0.585   2.876   4.684  0.8884 -0.5975 -1.2216
 7769SOL     OW23706   2.327   5.094   4.346 -0.0230  0.2367  0.3822
 7769SOL    HW123707   2.382   5.027   4.307 -1.4445  0.6068 -2.4948
 7769SOL    HW223708   2.384   5.170   4.355  0.6982 -0.2852  0.3329
 7770SOL     OW23709   1.421   3.045   5.087 -0.4856 -0.2964 -0.2271
 7770SOL    HW123710   1.384   3.130   5.062 -0.6155 -0.2756  0.0273
 7770SOL    HW223711   1.459   3.010   5.006  1.7042  1.0662  0.1364
 7771SOL     OW23712   0.347   5.666   4.260 -0.4296  0.0930 -0.4387
 7771SOL    HW123713   0.366   5.746   4.212  0.1570 -0.1818 -0.6699
 7771SOL    HW223714   0.265   5.634   4.223 -1.0339  0.9593  0.1384
 7772SOL     OW23715   6.685   4.996   2.177  0.1833 -0.6402  0.1632
 7772SOL    HW123716   6.752   5.047   2.223 -1.8990  1.3315  1.2477
 7772SOL    HW223717   6.730   4.917   2.147  2.5028 -0.3180  2.4825
 7773SOL     OW23718   0.938   6.129   4.869 -0.0214  1.1713  0.1956
 7773SOL    HW123719   1.009   6.176   4.826 -1.1983  1.4383 -1.5915
 7773SOL    HW223720   0.912   6.061   4.807  0.0621 -0.3404  1.7282
 7774SOL     OW23721   2.176   1.057   2.664  1.0856 -0.1154  0.2261
 7774SOL    HW123722   2.266   1.086   2.673  0.7464  0.9695  0.2201
 7774SOL    HW223723   2.124   1.137   2.661  0.3011 -0.6271 -1.9080
 7775SOL     OW23724   0.009   0.582   0.008 -0.3352 -0.1138  0.5152
 7775SOL    HW123725   0.029   0.578   0.101 -0.0734 -1.5887  0.4102
 7775SOL    HW223726   0.081   0.631  -0.031  0.8720 -1.6633  0.7453
 7776SOL     OW23727   4.175   1.666   0.499 -0.5303 -0.0065  0.7303
 7776SOL    HW123728   4.115   1.723   0.548 -1.5163 -0.3326 -0.0599
 7776SOL    HW223729   4.245   1.645   0.561 -0.4708  1.5531  1.2292
 7777SOL     OW23730   4.770   4.084   4.576 -0.3080  0.1274 -0.0119
 7777SOL    HW123731   4.804   4.061   4.662 -0.5422  0.4615  0.1667
 7777SOL    HW223732   4.828   4.153   4.544 -0.0161 -0.2298 -0.2668
 7778SOL     OW23733   4.402   4.056   2.331  0.4708 -0.1820  0.2470
 7778SOL    HW123734   4.423   3.976   2.378  0.2681 -0.0979  0.4804
 7778SOL    HW223735   4.427   4.127   2.391 -0.0464 -0.0777  0.3428
 7779SOL     OW23736   0.455   4.205   2.784  0.1953  0.3797  0.1304
 7779SOL    HW123737   0.539   4.226   2.826  0.5345 -0.7887  0.0834
 7779SOL    HW223738   0.390   4.221   2.853  0.4530  1.2064  0.1959
 7780SOL     OW23739   3.679   4.911   6.064 -0.2915  0.2137 -0.3561
 7780SOL    HW123740   3.749   4.912   6.129  0.4590 -0.7776 -1.1239
 7780SOL    HW223741   3.708   4.847   5.999 -2.1399 -0.6260 -0.4232
 7781SOL     OW23742   5.284   1.947   3.308 -0.0629  0.2043  0.0115
 7781SOL    HW123743   5.352   1.882   3.293 -0.4118  0.0268 -0.8709
 7781SOL    HW223744   5.202   1.897   3.311 -0.3541  0.5993 -0.8687
 7782SOL     OW23745   1.782   1.872   1.606  0.0088  0.0939 -0.6373
 7782SOL    HW123746   1.824   1.788   1.587 -0.9601 -0.4872 -0.3009
 7782SOL    HW223747   1.754   1.865   1.697 -2.5096 -0.3387 -1.3587
 7783SOL     OW23748   1.260   1.615   2.344  0.2158 -0.0154 -0.3759
 7783SOL    HW123749   1.333   1.658   2.300 -0.4284  1.4328 -0.0926
 7783SOL    HW223750   1.278   1.628   2.437 -1.3640  2.2097 -0.2810
 7784SOL     OW23751   4.183   5.470   1.186  0.1061  0.4521 -0.4346
 7784SOL    HW123752   4.091   5.462   1.161  0.5244 -1.0994 -1.6802
 7784SOL    HW223753   4.181   5.479   1.281 -1.3096 -0.8177 -0.2999
 7785SOL     OW23754   1.900   3.457   5.492 -0.9276  0.3131  0.6066
 7785SOL    HW123755   1.829   3.468   5.554 -0.2905 -1.4956  1.7591
 7785SOL    HW223756   1.975   3.499   5.534 -0.1317 -2.1600  1.8797
 7786SOL     OW23757   3.544   2.129   4.167 -0.3185 -0.1125 -0.3412
 7786SOL    HW123758   3.626   2.097   4.204 -0.2165 -1.0794 -1.3379
 7786SOL    HW223759   3.477   2.098   4.228  0.0619  1.0980  0.7364
 7787SOL     OW23760   6.123   4.621   2.496  0.1321  0.2619 -0.4028
 7787SOL    HW123761   6.059   4.603   2.564  2.0513 -3.1472  0.7506
 7787SOL    HW223762   6.095   4.566   2.422  0.5579  0.3668 -0.6449
 7788SOL     OW23763   6.081   4.734   3.155  0.1242  0.0786 -0.0073
 7788SOL    HW123764   6.117   4.773   3.234 -1.3026  0.0621  0.6829
 7788SOL    HW223765   6.157   4.724   3.096  1.1021  0.6243  1.1186
 7789SOL     OW23766   6.179   0.596   1.256 -0.0497  0.2421  0.3355
 7789SOL    HW123767   6.121   0.665   1.286  1.5792  2.9790 -2.2378
 7789SOL    HW223768   6.244   0.585   1.326  1.1027  3.2229 -0.1314
 7790SOL     OW23769   5.226   2.714   4.465  0.1595 -0.2265  0.1269
 7790SOL    HW123770   5.200   2.788   4.521  1.7081  0.0904  0.4686
 7790SOL    HW223771   5.218   2.747   4.376 -1.1926 -0.3518  0.1816
 7791SOL     OW23772   3.180   0.696   0.391  0.3498  0.1392 -0.0481
 7791SOL    HW123773   3.154   0.740   0.473  0.7041  0.5485 -0.1553
 7791SOL    HW223774   3.273   0.676   0.403 -0.0639 -1.6817  0.4925
 7792SOL     OW23775   2.816   5.587   4.582  0.1187  0.1635  0.4893
 7792SOL    HW123776   2.728   5.578   4.546  0.3476 -1.7665  0.3101
 7792SOL    HW223777   2.808   5.560   4.674  0.5457 -0.1544  0.4380
 7793SOL     OW23778   3.770   5.562   4.234 -0.8821  0.2055 -0.0795
 7793SOL    HW123779   3.831   5.633   4.254 -1.1361 -0.0430  1.7473
 7793SOL    HW223780   3.738   5.582   4.146  1.0789  0.8637 -0.7097
 7794SOL     OW23781   2.814   4.282   5.464  0.2724  0.2227  0.0061
 7794SOL    HW123782   2.834   4.292   5.557  0.2901  0.0691  0.0185
 7794SOL    HW223783   2.896   4.250   5.425 -0.7932 -3.7536  0.5967
 7795SOL     OW23784   3.137   4.340   2.352  0.2933  0.4397 -0.6000
 7795SOL    HW123785   3.053   4.345   2.307 -0.1517 -0.9076  0.0225
 7795SOL    HW223786   3.198   4.306   2.286  0.1241  0.5070 -0.7911
 7796SOL     OW23787   0.070   1.965   3.288 -0.8543  0.1761 -0.4448
 7796SOL    HW123788  -0.016   1.998   3.264 -1.1489  0.2449  0.6444
 7796SOL    HW223789   0.113   2.038   3.332 -0.8675 -0.3579  0.4783
 7797SOL     OW23790   4.409   4.549   1.991 -0.0756  0.0388 -0.0683
 7797SOL    HW123791   4.394   4.587   2.077  1.1796  1.9676 -0.6491
 7797SOL    HW223792   4.330   4.499   1.972 -1.1368  1.1053  1.4140
 7798SOL     OW23793   1.826   4.146   4.795  0.1265 -0.5579  0.5911
 7798SOL    HW123794   1.809   4.106   4.880  0.7805  0.3756  1.1667
 7798SOL    HW223795   1.750   4.202   4.779 -0.4646 -1.4714  0.0938
 7799SOL     OW23796   5.924   3.137   2.690 -0.2272  0.0151 -0.7594
 7799SOL    HW123797   5.893   3.225   2.706 -0.6665 -0.0577 -1.1953
 7799SOL    HW223798   6.016   3.148   2.663 -0.2786  0.3332 -0.8003
 7800SOL     OW23799   6.388   5.478   0.025  0.4744 -0.0097 -0.1210
 7800SOL    HW123800   6.472   5.522   0.023  0.7961 -0.6299 -0.4888
 7800SOL    HW223801   6.347   5.509   0.106  1.9970 -1.4067  1.2652
 7801SOL     OW23802   1.987   4.438   0.758  0.0145 -0.2500  0.4920
 7801SOL    HW123803   1.992   4.426   0.853  0.8242  1.7187  0.7456
 7801SOL    HW223804   1.999   4.532   0.745 -1.0216 -0.3410 -1.5197
 7802SOL     OW23805   0.016   4.802   4.906 -0.4144  0.1899  0.4861
 7802SOL    HW123806   0.059   4.880   4.942 -1.6192 -0.1334  2.7771
 7802SOL    HW223807   0.059   4.728   4.950  0.7328 -0.5191 -1.6732
 7803SOL     OW23808   6.484   0.792   5.413  0.2519  0.1186  0.2792
 7803SOL    HW123809   6.560   0.848   5.404  0.0407  0.3816  0.1239
 7803SOL    HW223810   6.511   0.708   5.375  0.2592  0.3996 -0.3367
 7804SOL     OW23811   4.284   1.155   2.646  0.1840 -0.3394 -0.2784
 7804SOL    HW123812   4.254   1.167   2.736  1.3745 -2.3015  0.4345
 7804SOL    HW223813   4.358   1.216   2.637  1.4006 -1.6112  0.7969
 7805SOL     OW23814   3.365   0.544   3.355 -0.4112 -0.2962  0.5881
 7805SOL    HW123815   3.437   0.490   3.322 -0.3506  0.0554  0.1305
 7805SOL    HW223816   3.313   0.485   3.409 -0.0919 -0.6983  0.4579
 7806SOL     OW23817   4.631   3.257   3.720  0.3922  0.1413  0.2540
 7806SOL    HW123818   4.633   3.236   3.626 -1.2514  1.2214 -0.0655
 7806SOL    HW223819   4.563   3.201   3.756  0.9723 -0.2197  0.8070
 7807SOL     OW23820   5.890   0.519   0.477 -0.0289 -0.7783 -0.4324
 7807SOL    HW123821   5.868   0.523   0.570 -2.3465 -0.2631 -0.9310
 7807SOL    HW223822   5.805   0.517   0.433  0.9658  0.7771 -2.6114
 7808SOL     OW23823   1.592   0.413   5.468  0.2104  0.4145 -0.0406
 7808SOL    HW123824   1.668   0.415   5.527  0.3425  0.3219 -0.2059
 7808SOL    HW223825   1.521   0.378   5.522 -0.0010  1.5441  0.4402
 7809SOL     OW23826   0.669   3.388   2.248  0.4256 -0.8122 -0.5130
 7809SOL    HW123827   0.608   3.367   2.319 -1.7835  2.8533 -1.0678
 7809SOL    HW223828   0.748   3.419   2.294 -0.5812  0.5040  0.4270
 7810SOL     OW23829   5.787   3.245   3.480  0.3159 -0.3813 -0.5865
 7810SOL    HW123830   5.778   3.282   3.392 -0.1301  0.6607 -0.1166
 7810SOL    HW223831   5.881   3.231   3.490  0.4693  0.3419 -0.9080
 7811SOL     OW23832   5.704   1.747   3.445  0.1601  0.1950  0.1675
 7811SOL    HW123833   5.659   1.664   3.428 -0.9540  1.0935 -1.5801
 7811SOL    HW223834   5.692   1.797   3.364  2.4686  1.3336  0.4629
 7812SOL     OW23835   3.958   4.244   6.288  0.0938  0.0960 -0.0154
 7812SOL    HW123836   4.031   4.183   6.284 -0.7412 -0.9026 -0.6609
 7812SOL    HW223837   3.891   4.205   6.231 -0.0924  2.1285 -1.2954
 7813SOL     OW23838   4.784   1.477   1.019  0.5388 -0.0328  0.3982
 7813SOL    HW123839   4.789   1.411   1.088  0.7865  2.0642  2.5085
 7813SOL    HW223840   4.712   1.535   1.045  0.6402  0.8330 -1.0968
 7814SOL     OW23841   1.357   1.079   2.958 -0.1008  0.2769  0.4642
 7814SOL    HW123842   1.351   1.151   2.896  0.6293  0.9860  1.2117
 7814SOL    HW223843   1.450   1.067   2.973 -0.1648 -1.2349 -0.0972
 7815SOL     OW23844   6.528   1.858   3.365  0.4076  0.4587 -0.0146
 7815SOL    HW123845   6.579   1.926   3.321  0.9568  0.1318  0.1014
 7815SOL    HW223846   6.494   1.901   3.443 -0.5461  1.0289 -0.7299
 7816SOL     OW23847   3.789   5.868   0.443 -0.0809  0.8418  0.2749
 7816SOL    HW123848   3.698   5.897   0.456 -0.2478  0.9679 -1.1127
 7816SOL    HW223849   3.839   5.920   0.506 -0.8779  1.2842  0.5607
 7817SOL     OW23850   3.246   0.621   4.448  0.2011  0.1656 -0.3654
 7817SOL    HW123851   3.234   0.622   4.353 -0.0217  3.4303 -0.4297
 7817SOL    HW223852   3.338   0.644   4.461 -0.1363  1.2591  0.1783
 7818SOL     OW23853   3.757   1.795   0.408 -0.4115  0.1954 -0.8309
 7818SOL    HW123854   3.819   1.788   0.480  0.1255  1.5010 -1.1510
 7818SOL    HW223855   3.677   1.755   0.442  0.3221 -0.7219 -0.1144
 7819SOL     OW23856   1.664   1.518   6.341 -0.1282  0.3270 -0.0928
 7819SOL    HW123857   1.682   1.468   6.261 -0.1267 -0.9447  0.6610
 7819SOL    HW223858   1.740   1.500   6.398 -0.8173 -0.0294  0.7474
 7820SOL     OW23859   4.250   1.042   3.700 -0.3880  0.2856 -0.1632
 7820SOL    HW123860   4.287   1.110   3.756  0.4208 -0.2210 -0.0625
 7820SOL    HW223861   4.324   1.012   3.647 -0.4851 -1.2204  0.5127
 7821SOL     OW23862   3.970   3.178   2.653  0.0481 -0.3519  0.0669
 7821SOL    HW123863   3.915   3.248   2.688  2.7471  1.0304  2.0034
 7821SOL    HW223864   3.986   3.121   2.728  0.1143 -1.5101 -0.8043
 7822SOL     OW23865   4.258   3.363   4.116 -0.3101  0.7865  0.0821
 7822SOL    HW123866   4.318   3.324   4.180  1.6786  0.1183 -2.0844
 7822SOL    HW223867   4.301   3.443   4.087  0.1576 -0.2403 -2.2915
 7823SOL     OW23868   0.097   2.585   6.636 -0.2310 -0.0276 -0.0578
 7823SOL    HW123869   0.110   2.549   6.548  1.7424  0.2049  0.1036
 7823SOL    HW223870   0.041   2.661   6.623 -0.8758 -0.6387 -0.9557
 7824SOL     OW23871   5.413   0.372   5.223 -0.2250  0.5165 -0.2070
 7824SOL    HW123872   5.497   0.384   5.266 -0.5596  0.6442  0.4178
 7824SOL    HW223873   5.394   0.279   5.233  0.2269  0.3226 -1.0741
 7825SOL     OW23874   2.475   2.997   0.085 -0.0131 -0.1462 -0.1730
 7825SOL    HW123875   2.465   2.910   0.123  1.6764 -0.4512 -0.3497
 7825SOL    HW223876   2.465   2.984  -0.009 -0.5759  0.0066 -0.1408
 7826SOL     OW23877   4.130   3.682   1.268 -0.0264  0.3136  0.5593
 7826SOL    HW123878   4.150   3.728   1.350  1.0603 -2.1283  1.7556
 7826SOL    HW223879   4.058   3.623   1.291 -1.1442  1.0749 -0.8380
 7827SOL     OW23880   0.724   0.561   1.766 -0.3269  0.0375  0.5114
 7827SOL    HW123881   0.809   0.604   1.778 -0.1479 -0.4423  1.0689
 7827SOL    HW223882   0.661   0.632   1.759  0.2074  0.4153 -0.6207
 7828SOL     OW23883   6.638   1.265   0.858  0.7264 -0.3362 -0.3689
 7828SOL    HW123884   6.690   1.345   0.846  0.0389  0.2984  0.7535
 7828SOL    HW223885   6.657   1.237   0.947 -0.4601 -0.3921 -0.1309
 7829SOL     OW23886   0.705   0.965   3.119  0.0411 -0.3965 -0.0164
 7829SOL    HW123887   0.661   0.882   3.142 -1.5822  0.1878 -0.8748
 7829SOL    HW223888   0.646   1.007   3.057  2.0144  0.3110 -1.4859
 7830SOL     OW23889   0.668   4.001   1.627 -0.3479 -0.1502  0.2234
 7830SOL    HW123890   0.722   3.927   1.601 -0.7312 -0.4893  0.3774
 7830SOL    HW223891   0.599   3.963   1.681 -0.6491  0.2941  0.1633
 7831SOL     OW23892   4.904   3.186   4.916  0.1562 -0.0637  0.1772
 7831SOL    HW123893   4.889   3.209   5.008  1.2177 -0.0422  0.3582
 7831SOL    HW223894   4.995   3.156   4.914 -0.1715 -1.0302 -0.6859
 7832SOL     OW23895   3.731   2.472   4.946  0.0256  0.8936 -0.1781
 7832SOL    HW123896   3.655   2.525   4.920 -0.0967  1.4924  1.3408
 7832SOL    HW223897   3.693   2.388   4.973 -0.0566  1.0237  0.1148
 7833SOL     OW23898   1.195   0.618   0.436  0.6144  0.1893  0.4014
 7833SOL    HW123899   1.107   0.630   0.472  0.5438  0.6346  0.0872
 7833SOL    HW223900   1.197   0.675   0.359  0.0079 -2.3262 -1.6296
 7834SOL     OW23901   4.298   3.551   0.329  0.1643 -0.2331 -0.5556
 7834SOL    HW123902   4.353   3.627   0.345  0.3336 -0.1871 -1.3125
 7834SOL    HW223903   4.209   3.585   0.331  0.2040 -0.1466 -0.1991
 7835SOL     OW23904   2.681   0.276   6.256 -0.0304 -0.0845 -0.0477
 7835SOL    HW123905   2.615   0.337   6.224 -1.0401 -0.0542  1.9258
 7835SOL    HW223906   2.755   0.331   6.279 -0.3392  0.2161  0.2390
 7836SOL     OW23907   5.369   5.741   5.022 -0.5012 -0.1915  0.1050
 7836SOL    HW123908   5.374   5.657   4.978 -1.7153  0.5551 -1.5588
 7836SOL    HW223909   5.332   5.720   5.108 -1.8401 -1.2583 -0.6811
 7837SOL     OW23910   6.254   2.877   1.530 -0.1870 -0.2813 -0.2092
 7837SOL    HW123911   6.174   2.927   1.513  0.4690  0.7002 -0.5559
 7837SOL    HW223912   6.254   2.865   1.625  0.2723  1.5617  0.0718
 7838SOL     OW23913   1.341   4.591   1.476 -0.4230  0.0173  0.0497
 7838SOL    HW123914   1.286   4.621   1.548  0.2828  0.1823  0.5167
 7838SOL    HW223915   1.331   4.495   1.477 -0.0312 -0.0252  0.6847
 7839SOL     OW23916   4.337   1.787   4.493  0.9326 -0.0495 -0.5875
 7839SOL    HW123917   4.355   1.694   4.498  2.4176  0.2158 -0.3798
 7839SOL    HW223918   4.353   1.819   4.582  0.1225  0.3656 -0.5790
 7840SOL     OW23919   3.765   0.200   1.093  0.0958  0.5057 -0.1404
 7840SOL    HW123920   3.709   0.277   1.098 -0.5166  0.0004  2.3937
 7840SOL    HW223921   3.719   0.134   1.146  0.5312 -1.6927 -2.2938
 7841SOL     OW23922   2.513   0.050   6.303 -0.0713 -0.3174 -0.0837
 7841SOL    HW123923   2.562   0.009   6.374 -0.1491 -0.4823 -0.1252
 7841SOL    HW223924   2.552   0.137   6.294  0.8074 -0.7523 -0.6984
 7842SOL     OW23925   5.055   5.872   1.665 -0.3737  0.3346  0.2444
 7842SOL    HW123926   5.062   5.833   1.578  1.6220  1.1875 -0.0320
 7842SOL    HW223927   5.010   5.805   1.717 -1.5174 -0.2408 -1.3772
 7843SOL     OW23928   5.601   4.586   3.427  0.0194 -0.0260  0.1264
 7843SOL    HW123929   5.601   4.501   3.383  2.4715 -0.3407  0.5834
 7843SOL    HW223930   5.645   4.645   3.365 -0.9546  0.7506  0.1455
 7844SOL     OW23931   0.150   5.114   0.563  0.7117 -0.0480  0.2171
 7844SOL    HW123932   0.093   5.046   0.528  1.2026 -0.0356 -0.6560
 7844SOL    HW223933   0.092   5.186   0.584  0.1236 -0.8795  1.5813
 7845SOL     OW23934   0.624   1.419   5.163  0.5856  0.3226 -0.0729
 7845SOL    HW123935   0.554   1.481   5.144 -0.6174 -1.0743 -0.4039
 7845SOL    HW223936   0.604   1.343   5.108  0.6235 -1.3324  2.0799
 7846SOL     OW23937   2.639   1.718   2.370  0.1336  0.1325 -0.1058
 7846SOL    HW123938   2.694   1.794   2.349  2.0984 -1.4830 -1.1236
 7846SOL    HW223939   2.591   1.700   2.289 -0.3460  0.2663  0.1421
 7847SOL     OW23940   3.873   4.527   5.120  0.1112  0.0234  0.2134
 7847SOL    HW123941   3.896   4.525   5.027 -2.1997  0.3545 -0.4392
 7847SOL    HW223942   3.837   4.440   5.137 -1.2715  0.5802  0.2528
 7848SOL     OW23943   1.006   6.509   5.330  0.1705  0.0437  0.4394
 7848SOL    HW123944   1.086   6.480   5.285  0.7896 -0.8712  2.0440
 7848SOL    HW223945   0.965   6.428   5.361 -0.1366  0.6333  1.6387
 7849SOL     OW23946   0.772   3.082   2.850  0.3107 -0.1652  0.0185
 7849SOL    HW123947   0.691   3.030   2.850  0.1788  0.0355  0.5208
 7849SOL    HW223948   0.798   3.085   2.942  1.3098 -0.8652 -0.2328
 7850SOL     OW23949   5.173   4.517   1.922  0.5059  0.5112 -0.1718
 7850SOL    HW123950   5.108   4.448   1.931  0.3045  0.8626  1.3987
 7850SOL    HW223951   5.140   4.573   1.852 -1.2592  1.0493  1.0375
 7851SOL     OW23952   6.579   4.273   4.427  0.6896 -0.2060  0.3958
 7851SOL    HW123953   6.581   4.316   4.512  1.5451  1.0453 -0.2209
 7851SOL    HW223954   6.534   4.334   4.369  1.7936 -0.1693 -0.4671
 7852SOL     OW23955   6.366   0.365   6.556 -0.3502  0.1977  0.3388
 7852SOL    HW123956   6.401   0.301   6.618  0.6706 -0.9169 -1.2978
 7852SOL    HW223957   6.334   0.312   6.483 -1.2806  1.4828 -0.2188
 7853SOL     OW23958   2.102   2.198   6.391  0.2398 -0.2810 -0.0761
 7853SOL    HW123959   2.170   2.131   6.392 -0.6133 -1.1567  0.9641
 7853SOL    HW223960   2.109   2.242   6.476  0.1535  0.3022 -0.3619
 7854SOL     OW23961   0.762   1.980   0.830 -0.0293  0.2058  0.0800
 7854SOL    HW123962   0.779   2.074   0.827 -1.3246  0.4456 -0.2329
 7854SOL    HW223963   0.714   1.967   0.912 -0.1591 -0.1186 -0.0462
 7855SOL     OW23964   2.548   1.523   4.796 -0.0749  0.5559  0.1757
 7855SOL    HW123965   2.617   1.565   4.848  0.3027  0.5551 -0.3175
 7855SOL    HW223966   2.472   1.579   4.807 -0.4105 -0.1578  1.8280
 7856SOL     OW23967   3.706   3.509   4.841 -0.4035  0.5873  0.5041
 7856SOL    HW123968   3.688   3.420   4.871 -0.6094  0.6935  0.6999
 7856SOL    HW223969   3.734   3.555   4.921 -0.9809  0.8799  0.5405
 7857SOL     OW23970   2.343   6.219   0.147  0.0474  0.4616 -0.0431
 7857SOL    HW123971   2.422   6.269   0.127  1.1364 -0.6201  1.3244
 7857SOL    HW223972   2.273   6.284   0.149  0.9597  1.5086 -0.8685
 7858SOL     OW23973   6.212   5.587   5.823 -0.2796 -0.1314  0.2914
 7858SOL    HW123974   6.176   5.554   5.906  0.3219  0.5522  0.8425
 7858SOL    HW223975   6.138   5.628   5.779 -0.8163 -1.3329  0.0497
 7859SOL     OW23976   6.007   0.225   5.992  0.4304 -0.4742  0.5029
 7859SOL    HW123977   5.984   0.317   5.985  0.3149 -0.5333  0.0769
 7859SOL    HW223978   6.100   0.221   5.971  0.0433 -0.6780 -1.3685
 7860SOL     OW23979   3.868   1.100   6.649  0.1406  0.3963 -0.2117
 7860SOL    HW123980   3.954   1.108   6.609  0.3168  0.6233  0.2088
 7860SOL    HW223981   3.885   1.095   6.743 -0.1500 -1.8853 -0.2151
 7861SOL     OW23982   6.427   2.887   3.118 -0.7084  0.5435  0.1070
 7861SOL    HW123983   6.349   2.921   3.161 -0.0777  3.6452 -0.9804
 7861SOL    HW223984   6.400   2.873   3.027 -0.6954 -1.1838  0.3246
 7862SOL     OW23985   6.774   0.668   5.461  0.3043  0.1679 -0.1937
 7862SOL    HW123986   6.726   0.743   5.495 -1.7338 -1.1879  0.0724
 7862SOL    HW223987   6.790   0.690   5.369 -0.5020  0.8300 -0.1929
 7863SOL     OW23988   6.520   5.950   3.187 -0.2609 -0.6155  0.0786
 7863SOL    HW123989   6.494   5.998   3.265 -1.1103 -1.4781  0.3401
 7863SOL    HW223990   6.537   5.861   3.218 -0.5279 -0.9446 -0.6991
 7864SOL     OW23991   4.599   1.820   5.935  0.1719  0.4378  0.0303
 7864SOL    HW123992   4.632   1.826   5.845 -0.2560  0.7084 -0.1128
 7864SOL    HW223993   4.584   1.911   5.961  1.0584  0.4085  0.6666
 7865SOL     OW23994   5.257   2.408   1.815  0.6522 -0.5225 -0.7078
 7865SOL    HW123995   5.291   2.476   1.756 -3.2473  2.1430 -0.2806
 7865SOL    HW223996   5.185   2.451   1.861 -0.1937 -4.2142  1.7986
 7866SOL     OW23997   6.585   3.203   5.109 -0.0063 -0.2909  0.7414
 7866SOL    HW123998   6.629   3.267   5.165 -0.5463 -0.6945  1.6565
 7866SOL    HW223999   6.652   3.138   5.089 -0.2233 -1.0947  2.4232
 7867SOL     OW24000   6.071   6.485   2.459 -0.1569  0.1457 -0.0231
 7867SOL    HW124001   6.165   6.491   2.441 -0.0950  1.3045  0.5410
 7867SOL    HW224002   6.032   6.451   2.379  0.8273 -1.1077  0.0059
 7868SOL     OW24003   2.169   0.604   1.885  0.0611  0.4883  0.4994
 7868SOL    HW124004   2.075   0.590   1.875 -0.2850  1.9953  1.4761
 7868SOL    HW224005   2.207   0.562   1.807 -1.3493 -0.5599  0.3309
 7869SOL     OW24006   5.288   4.267   0.701 -0.3788 -0.3116  0.2059
 7869SOL    HW124007   5.381   4.245   0.703 -0.0790  0.7976 -0.7266
 7869SOL    HW224008   5.247   4.192   0.658  0.3650  0.0705 -1.2216
 7870SOL     OW24009   4.239   6.500   5.245 -0.3124  0.1713  0.5216
 7870SOL    HW124010   4.256   6.591   5.268 -0.4680  0.0907  0.9718
 7870SOL    HW224011   4.289   6.449   5.309  1.3192 -0.0754 -0.8824
 7871SOL     OW24012   3.369   4.091   2.513  0.6402 -0.3671 -0.1537
 7871SOL    HW124013   3.282   4.096   2.551  0.4080 -1.1718 -0.5563
 7871SOL    HW224014   3.420   4.040   2.576  1.0887  0.9178  0.5446
 7872SOL     OW24015   5.314   4.251   4.824 -0.0186 -0.1279 -0.0050
 7872SOL    HW124016   5.323   4.217   4.735 -0.6991  0.0802 -0.1573
 7872SOL    HW224017   5.404   4.258   4.856  0.2402 -0.0505 -0.7309
 7873SOL     OW24018   1.962   3.178   4.417  0.2348 -0.3829 -0.3881
 7873SOL    HW124019   2.000   3.140   4.496 -0.7244  0.5076  0.5276
 7873SOL    HW224020   1.962   3.273   4.432  0.1628 -0.1814 -1.5112
 7874SOL     OW24021   0.564   0.349   3.333  0.3400  0.3822 -0.1130
 7874SOL    HW124022   0.542   0.340   3.240 -1.9379 -0.4823  0.4283
 7874SOL    HW224023   0.482   0.379   3.374 -0.2201 -3.5464  2.1892
 7875SOL     OW24024   2.436   1.522   1.078  0.4945 -0.7262 -0.0520
 7875SOL    HW124025   2.501   1.516   1.148 -1.1083 -3.3292  1.3339
 7875SOL    HW224026   2.390   1.604   1.095  1.1771 -0.5324  0.9642
 7876SOL     OW24027   3.021   0.603   5.154 -0.5659 -0.3200  0.1807
 7876SOL    HW124028   3.045   0.622   5.064 -1.1103  0.5698  0.2106
 7876SOL    HW224029   3.084   0.652   5.207 -1.4631  0.8035  0.2587
 7877SOL     OW24030   5.127   4.803   1.523 -0.7431  0.1642  0.3583
 7877SOL    HW124031   5.048   4.811   1.470 -1.2958 -2.4428  0.6229
 7877SOL    HW224032   5.095   4.792   1.612 -0.1249 -0.9903  0.4576
 7878SOL     OW24033   1.975   4.775   3.901  0.4673  0.5174 -0.3536
 7878SOL    HW124034   1.946   4.866   3.910  0.9638  0.9419 -2.4870
 7878SOL    HW224035   2.042   4.764   3.968 -1.0221  1.0618  1.2865
 7879SOL     OW24036   0.723   1.578   4.441 -0.4165 -0.7071 -0.0879
 7879SOL    HW124037   0.761   1.585   4.354 -1.7219 -0.6041 -0.6837
 7879SOL    HW224038   0.708   1.485   4.454  1.6914 -0.9599  0.9300
 7880SOL     OW24039   2.154   2.240   3.249  0.1504  0.1832  0.4853
 7880SOL    HW124040   2.233   2.286   3.221 -0.8111  0.3781 -2.1760
 7880SOL    HW224041   2.086   2.269   3.189 -2.4870  1.3734  3.7123
 7881SOL     OW24042   5.203   2.876   5.060 -0.3098  0.1379 -0.3162
 7881SOL    HW124043   5.199   2.920   5.145 -0.9820  1.1633 -0.8426
 7881SOL    HW224044   5.155   2.794   5.073  0.9929 -0.5041  0.6969
 7882SOL     OW24045   3.621   2.014   2.155 -0.1942  0.0976  0.5081
 7882SOL    HW124046   3.651   1.923   2.157 -4.7904 -1.6661  0.3270
 7882SOL    HW224047   3.613   2.034   2.062  0.0098  0.4229  0.5576
 7883SOL     OW24048   3.289   6.162   2.333 -0.3013 -0.1522 -0.0437
 7883SOL    HW124049   3.247   6.117   2.260 -1.5829 -1.2863  1.3351
 7883SOL    HW224050   3.381   6.172   2.306 -0.7913 -0.3341 -1.8718
 7884SOL     OW24051   4.232   2.515   4.605 -0.3214  0.1744 -0.0184
 7884SOL    HW124052   4.214   2.436   4.554  1.2645 -0.4422  0.3149
 7884SOL    HW224053   4.162   2.575   4.581 -0.8745 -0.8928 -1.2191
 7885SOL     OW24054   2.583   3.690   4.853  0.1355 -0.1855  0.4748
 7885SOL    HW124055   2.595   3.777   4.893  1.6295 -0.0600 -0.1597
 7885SOL    HW224056   2.581   3.630   4.927 -0.9878  0.3785  0.9271
 7886SOL     OW24057   1.628   2.680   2.407 -0.2409 -0.2429  0.4523
 7886SOL    HW124058   1.649   2.750   2.469 -1.1718 -0.5913  1.1794
 7886SOL    HW224059   1.589   2.611   2.461 -1.3732 -0.4311 -0.5628
 7887SOL     OW24060   4.786   5.659   3.789  0.1167 -0.1433  0.4267
 7887SOL    HW124061   4.693   5.672   3.804 -0.0229 -0.7170  0.1017
 7887SOL    HW224062   4.795   5.654   3.694  0.5947  0.7087  0.4231
 7888SOL     OW24063   5.152   3.122   6.403 -0.4474  0.0024 -0.1640
 7888SOL    HW124064   5.118   3.194   6.349 -0.4180  0.1163 -0.0310
 7888SOL    HW224065   5.232   3.095   6.358  0.6036  1.3383  0.8194
 7889SOL     OW24066   6.581   4.398   1.823  0.3964  0.1689  0.3731
 7889SOL    HW124067   6.539   4.341   1.758 -3.1283  1.4290  1.3229
 7889SOL    HW224068   6.582   4.347   1.903  0.1167  0.3693  0.5033
 7890SOL     OW24069   2.804   2.520   5.980 -0.2501 -0.0143  0.3057
 7890SOL    HW124070   2.757   2.520   5.897 -0.0726  0.3948  0.2044
 7890SOL    HW224071   2.747   2.568   6.040 -1.9843 -3.1047  1.3559
 7891SOL     OW24072   4.092   5.057   2.454 -0.1528  0.5567 -0.2930
 7891SOL    HW124073   4.164   4.995   2.457 -0.2543  0.3429 -1.6198
 7891SOL    HW224074   4.050   5.042   2.369 -1.3187  1.1703  0.1416
 7892SOL     OW24075   1.822   3.911   6.430 -0.0152  0.6405  0.1343
 7892SOL    HW124076   1.764   3.836   6.442 -1.4003  1.6954  0.2715
 7892SOL    HW224077   1.891   3.879   6.372 -0.0361 -0.9998  0.9708
 7893SOL     OW24078   3.651   1.772   1.782 -0.3294  0.0651 -0.3370
 7893SOL    HW124079   3.563   1.745   1.810  0.9815 -1.9847  2.2905
 7893SOL    HW224080   3.674   1.711   1.712 -0.6539  0.0134 -0.3996
 7894SOL     OW24081   2.928   3.102   3.274 -0.4856  0.5123  0.0919
 7894SOL    HW124082   2.930   3.009   3.297 -0.6583  0.5688  0.3431
 7894SOL    HW224083   2.859   3.109   3.208  0.2414  0.2952 -0.6954
 7895SOL     OW24084   5.563   5.907   5.147 -0.0733 -0.1492  0.4777
 7895SOL    HW124085   5.632   5.939   5.089 -0.7657 -0.2534 -0.4424
 7895SOL    HW224086   5.512   5.848   5.091 -0.1323 -1.1027  1.5080
 7896SOL     OW24087   0.122   5.363   6.223 -0.2862 -0.5114  0.1191
 7896SOL    HW124088   0.155   5.447   6.254  0.1764 -0.5410 -0.2659
 7896SOL    HW224089   0.189   5.333   6.160 -1.5607 -0.0495 -1.5405
 7897SOL     OW24090   1.016   3.322   6.224 -0.1669 -0.2308 -0.1113
 7897SOL    HW124091   1.061   3.282   6.299  0.6362 -0.7075 -0.8290
 7897SOL    HW224092   1.084   3.331   6.158 -0.2769  2.4684  0.0475
 7898SOL     OW24093   5.273   1.599   0.501  0.6983 -0.0106 -0.0578
 7898SOL    HW124094   5.250   1.518   0.457  0.9691 -0.1173 -0.0009
 7898SOL    HW224095   5.193   1.624   0.548  0.0513  0.6823 -1.4792
 7899SOL     OW24096   0.814   0.045   5.515 -0.2886 -0.0050  0.0155
 7899SOL    HW124097   0.800   0.125   5.465 -0.2874  0.0954  0.1742
 7899SOL    HW224098   0.839  -0.021   5.450 -2.0620 -0.3401 -0.3581
 7900SOL     OW24099   0.579   1.651   5.624  0.4545 -0.2550 -0.0238
 7900SOL    HW124100   0.648   1.717   5.635 -0.2812  0.3741  1.0548
 7900SOL    HW224101   0.612   1.593   5.555  1.3415  0.9531 -0.6658
 7901SOL     OW24102   1.962   0.897   6.187 -0.2799  0.0517  0.2744
 7901SOL    HW124103   1.884   0.940   6.221  0.0171  1.7232 -1.0359
 7901SOL    HW224104   2.024   0.968   6.173  0.2076 -0.7443 -2.0663
 7902SOL     OW24105   5.010   5.868   0.028 -0.2038  0.2181 -0.2152
 7902SOL    HW124106   4.941   5.932   0.045  0.2887  0.5759  0.4607
 7902SOL    HW224107   4.964   5.792  -0.009 -1.1262 -0.0478  1.4126
 7903SOL     OW24108   2.518   6.565   5.223 -0.5051  0.2613 -1.2288
 7903SOL    HW124109   2.502   6.659   5.237 -0.2825  0.4492 -2.1410
 7903SOL    HW224110   2.446   6.538   5.165 -0.5571 -0.1306 -0.9800
 7904SOL     OW24111   5.006   2.761   3.730  0.4554 -0.0299 -0.0625
 7904SOL    HW124112   4.994   2.671   3.702  0.2617 -0.0210 -0.0040
 7904SOL    HW224113   5.033   2.807   3.650 -2.0734  0.4155 -0.7389
 7905SOL     OW24114   5.981   4.107   1.938 -0.1806 -0.4328  0.0620
 7905SOL    HW124115   6.024   4.184   1.902 -0.9424  0.3180  0.7109
 7905SOL    HW224116   5.923   4.078   1.868 -0.8177  0.3480  0.2468
 7906SOL     OW24117   5.488   0.629   1.006 -0.1465  0.5345  0.0668
 7906SOL    HW124118   5.429   0.596   1.074  0.2119  2.1671  1.2490
 7906SOL    HW224119   5.574   0.631   1.047  0.4368 -0.1681 -1.0678
 7907SOL     OW24120   3.630   1.090   3.189 -0.5650  0.3289 -0.2827
 7907SOL    HW124121   3.608   1.004   3.227  0.2141 -0.7057 -2.0730
 7907SOL    HW224122   3.554   1.113   3.136 -0.1848  0.0340 -0.9669
 7908SOL     OW24123   1.231   6.293   2.929  0.3684  0.0598 -0.1723
 7908SOL    HW124124   1.284   6.281   2.850  0.4518  0.5827 -0.1954
 7908SOL    HW224125   1.162   6.353   2.903  0.8478  0.8567  0.3577
 7909SOL     OW24126   0.281   6.234   1.669  0.0215  0.5293  0.1711
 7909SOL    HW124127   0.315   6.280   1.592 -0.2916  2.5155  1.1385
 7909SOL    HW224128   0.326   6.276   1.743  0.3394 -1.3378  1.1087
 7910SOL     OW24129   4.162   4.786   1.235 -0.6595 -0.2586 -0.1122
 7910SOL    HW124130   4.235   4.825   1.189 -0.2970  2.4019  2.3940
 7910SOL    HW224131   4.091   4.783   1.171  0.1056  2.1978 -1.1798
 7911SOL     OW24132   1.889   1.285   6.600 -0.2321  0.0948  0.4601
 7911SOL    HW124133   1.906   1.249   6.687  1.0624 -0.6297 -0.0623
 7911SOL    HW224134   1.828   1.223   6.560 -1.2974  0.7436  1.0393
 7912SOL     OW24135   3.374   3.156   3.755 -0.7037 -0.0224 -0.0445
 7912SOL    HW124136   3.444   3.091   3.758 -1.4813 -0.9095 -0.5406
 7912SOL    HW224137   3.332   3.152   3.841 -1.3849 -0.9204 -0.4025
 7913SOL     OW24138   3.371   1.091   5.186  0.1182  0.2567  0.2395
 7913SOL    HW124139   3.385   1.185   5.195  1.4861  0.2443 -1.3835
 7913SOL    HW224140   3.333   1.080   5.099 -0.2260 -0.6826  0.4885
 7914SOL     OW24141   3.869   2.827   0.522 -0.7446 -0.1108 -0.4405
 7914SOL    HW124142   3.826   2.895   0.574 -1.4277  0.3676 -1.5862
 7914SOL    HW224143   3.846   2.849   0.432 -1.1020 -1.9500 -0.8230
 7915SOL     OW24144   2.013   5.702   6.268 -0.1169  0.0725  0.5371
 7915SOL    HW124145   2.025   5.671   6.178  2.3109  0.8234  0.5444
 7915SOL    HW224146   1.964   5.631   6.311  1.6349 -1.8857 -0.5191
 7916SOL     OW24147   0.931   4.680   0.883 -0.7740 -0.0396  0.4521
 7916SOL    HW124148   0.941   4.772   0.909 -1.3033  0.0686  0.2732
 7916SOL    HW224149   0.855   4.679   0.826 -0.6301 -0.5560  0.2634
 7917SOL     OW24150   6.723   4.288   2.387  0.2255  0.4930 -0.5593
 7917SOL    HW124151   6.774   4.293   2.306  0.9201 -1.5785 -0.3042
 7917SOL    HW224152   6.739   4.200   2.421 -3.1449 -0.1092 -0.1727
 7918SOL     OW24153   1.533   3.248   4.422  0.9615 -0.1678 -0.4129
 7918SOL    HW124154   1.473   3.196   4.367  1.5267 -0.3084 -0.9014
 7918SOL    HW224155   1.598   3.185   4.452  1.4400  0.1793 -0.7078
 7919SOL     OW24156   2.033   2.876   1.626  0.4778 -0.4853 -0.2025
 7919SOL    HW124157   2.121   2.874   1.664  1.0728 -2.1556 -1.5105
 7919SOL    HW224158   2.015   2.969   1.612  1.7738 -0.0803  0.6581
 7920SOL     OW24159   2.601   5.981   4.832 -0.0196 -0.4531 -0.2776
 7920SOL    HW124160   2.594   5.887   4.818  0.1434 -0.3699 -0.9719
 7920SOL    HW224161   2.539   6.020   4.770 -0.8560 -0.1370  0.7371
 7921SOL     OW24162   0.332   0.224   0.353 -0.1103 -0.0718 -0.7383
 7921SOL    HW124163   0.364   0.134   0.354 -1.2135 -0.5654 -3.2046
 7921SOL    HW224164   0.360   0.259   0.268 -0.7247  1.5327 -0.3241
 7922SOL     OW24165   0.429   5.860   6.434  0.4004  0.0543 -0.1317
 7922SOL    HW124166   0.382   5.899   6.361 -0.4878  1.8345  1.3220
 7922SOL    HW224167   0.495   5.925   6.458 -0.9430  0.6658  2.1775
 7923SOL     OW24168   2.309   5.818   1.773  0.0586  0.1736 -0.4270
 7923SOL    HW124169   2.261   5.840   1.853 -0.2454 -0.2987 -0.4753
 7923SOL    HW224170   2.240   5.795   1.710  0.3716 -1.2289 -0.2803
 7924SOL     OW24171   6.629   0.417   4.988 -0.4771  0.0949 -0.7829
 7924SOL    HW124172   6.652   0.486   4.926  0.8875  0.9668  0.5990
 7924SOL    HW224173   6.691   0.429   5.060 -0.8507 -1.9756 -0.0517
 7925SOL     OW24174   3.566   3.816   6.102  0.3523  0.0686 -0.5838
 7925SOL    HW124175   3.649   3.862   6.089  0.8408 -0.7978 -0.6428
 7925SOL    HW224176   3.536   3.796   6.013 -1.1267  2.3883 -0.6942
 7926SOL     OW24177   2.362   0.795   3.492 -0.3418  0.6656  0.5638
 7926SOL    HW124178   2.279   0.818   3.450 -0.6964 -0.3941  0.6696
 7926SOL    HW224179   2.429   0.820   3.428 -0.7824  0.7813  0.1472
 7927SOL     OW24180   2.426   0.705   0.813  0.5337 -0.3672  0.6568
 7927SOL    HW124181   2.408   0.611   0.810  0.8072 -0.3907 -0.3300
 7927SOL    HW224182   2.340   0.745   0.825  0.3321 -0.7090  0.3770
 7928SOL     OW24183   4.620   6.741   0.910  0.0279  0.5123  0.6142
 7928SOL    HW124184   4.635   6.730   1.004  0.0466 -0.5309  0.5099
 7928SOL    HW224185   4.605   6.652   0.879  0.9402  0.7378 -0.5309
 7929SOL     OW24186   2.214   6.542   4.209  0.1583  0.6301 -0.0450
 7929SOL    HW124187   2.290   6.490   4.181 -0.4035  0.2360 -0.8734
 7929SOL    HW224188   2.239   6.632   4.190  0.9666  0.6602  0.9997
 7930SOL     OW24189   4.572   6.218   3.200 -0.0500  0.3330 -0.1286
 7930SOL    HW124190   4.661   6.226   3.234 -0.3264  0.1727  0.6486
 7930SOL    HW224191   4.579   6.151   3.131  0.8579  1.9110 -1.6703
 7931SOL     OW24192   3.325   6.252   4.560 -0.0459 -0.2584 -0.5161
 7931SOL    HW124193   3.268   6.256   4.484  0.2698  0.0347 -0.7405
 7931SOL    HW224194   3.371   6.336   4.560  0.6917 -0.6534 -0.5776
 7932SOL     OW24195   2.375   0.201   2.606  0.0607 -0.2091  0.2097
 7932SOL    HW124196   2.413   0.121   2.570  0.5694 -0.6770  1.7298
 7932SOL    HW224197   2.448   0.262   2.615  0.2492 -0.6376  1.8619
 7933SOL     OW24198   6.458   4.116   4.229 -0.1503  0.1379  0.6442
 7933SOL    HW124199   6.497   4.161   4.154 -1.2840  0.5660  0.2851
 7933SOL    HW224200   6.510   4.144   4.304  0.5660  0.2499  0.1162
 7934SOL     OW24201   3.016   2.110   1.055 -0.6283 -0.2224 -0.0467
 7934SOL    HW124202   3.010   2.062   1.138 -0.0701  0.2754  0.2896
 7934SOL    HW224203   3.107   2.097   1.026 -0.3175  0.9985  0.2917
 7935SOL     OW24204   3.949   4.456   4.401  0.5193  0.2192  0.0954
 7935SOL    HW124205   3.880   4.513   4.366  0.2681 -0.0182  0.1988
 7935SOL    HW224206   4.009   4.516   4.445  0.4539  0.4438 -0.1184
 7936SOL     OW24207   4.354   2.598   6.027 -0.9387 -0.0111  0.3499
 7936SOL    HW124208   4.305   2.531   5.979  0.0116 -0.5265  0.0750
 7936SOL    HW224209   4.299   2.676   6.021 -1.1497 -0.2330 -1.0379
 7937SOL     OW24210   6.616   6.091   3.997  0.3758  0.4322 -0.7582
 7937SOL    HW124211   6.702   6.053   4.014  0.0847 -0.7523 -1.8074
 7937SOL    HW224212   6.621   6.120   3.906 -0.6528 -0.5762 -1.1510
 7938SOL     OW24213   2.923   0.897   4.781  0.0673  0.6630 -0.1899
 7938SOL    HW124214   2.923   0.880   4.687  0.2492  1.9768 -0.4391
 7938SOL    HW224215   2.901   0.990   4.789 -2.1059  0.1075  1.1643
 7939SOL     OW24216   0.220   3.836   5.715  0.5335  0.3544 -0.5589
 7939SOL    HW124217   0.137   3.858   5.757  0.9092  0.6199  0.0564
 7939SOL    HW224218   0.223   3.892   5.637 -0.0653  0.0217 -0.8234
 7940SOL     OW24219   1.210   0.301   1.220 -0.0383  0.3022 -0.0377
 7940SOL    HW124220   1.238   0.385   1.183  0.9307 -0.1367 -0.3271
 7940SOL    HW224221   1.251   0.235   1.164  2.4886 -0.4234  2.4283
 7941SOL     OW24222   6.596   1.142   4.129  0.3889 -0.5282 -0.2893
 7941SOL    HW124223   6.620   1.116   4.218  0.2892 -0.5411 -0.2656
 7941SOL    HW224224   6.566   1.233   4.137 -0.2776 -0.7528 -0.1925
 7942SOL     OW24225   5.547   2.659   3.445 -0.2758 -0.1552  0.3559
 7942SOL    HW124226   5.523   2.707   3.524  1.0429  0.7326  0.2388
 7942SOL    HW224227   5.527   2.568   3.466 -3.1801  0.4075  0.4415
 7943SOL     OW24228   6.086   1.346   2.950  0.0407  0.0552 -0.5064
 7943SOL    HW124229   6.173   1.340   2.989  0.8272 -0.1152 -2.1917
 7943SOL    HW224230   6.041   1.414   3.000  0.1517 -1.6487  2.1203
 7944SOL     OW24231   6.444   0.588   0.351 -0.1417 -0.0165 -0.0809
 7944SOL    HW124232   6.430   0.508   0.300 -1.9636 -1.0898  1.9489
 7944SOL    HW224233   6.379   0.650   0.316 -0.3628 -0.2333 -0.0563
 7945SOL     OW24234   2.386   2.913   6.050  0.5182  0.3438  0.2703
 7945SOL    HW124235   2.382   2.824   6.017 -1.6508  0.6699 -0.4995
 7945SOL    HW224236   2.337   2.910   6.132  0.5277  0.7948  0.2936
 7946SOL     OW24237   3.079   0.743   3.045 -0.7359  0.0279  0.2389
 7946SOL    HW124238   3.014   0.813   3.039  0.0385  0.8698  1.1980
 7946SOL    HW224239   3.148   0.769   2.986  0.9960  1.7567  2.8220
 7947SOL     OW24240   4.695   6.714   1.196  0.0375 -0.2938 -0.2248
 7947SOL    HW124241   4.642   6.651   1.245 -2.2740  1.1902 -0.6886
 7947SOL    HW224242   4.780   6.712   1.241 -1.2212 -0.7514  2.3640
 7948SOL     OW24243   5.794   4.341   1.736  0.1868 -0.0067 -0.2427
 7948SOL    HW124244   5.776   4.273   1.801 -0.8021  0.7709  0.3342
 7948SOL    HW224245   5.760   4.306   1.654  1.7527 -1.1406 -0.4311
 7949SOL     OW24246   6.745   1.540   2.399 -0.2540 -0.3195  0.2385
 7949SOL    HW124247   6.663   1.527   2.351 -0.8005  0.8379  0.8314
 7949SOL    HW224248   6.801   1.468   2.370 -1.7953 -1.7058  0.5292
 7950SOL     OW24249   1.543   0.665   6.239 -0.0495 -0.5781 -0.5727
 7950SOL    HW124250   1.520   0.758   6.237 -0.3618 -0.6645 -1.8693
 7950SOL    HW224251   1.633   0.664   6.274 -0.0787  0.1987 -0.4445
 7951SOL     OW24252   4.549   5.050   4.575 -0.3777  0.0403 -0.1834
 7951SOL    HW124253   4.484   5.117   4.595  1.3910  1.6022  0.7576
 7951SOL    HW224254   4.528   5.021   4.486 -1.7504  1.1903 -0.2704
 7952SOL     OW24255   2.622   1.984   4.748 -0.1225  0.1206  0.5985
 7952SOL    HW124256   2.625   2.080   4.749 -0.1459  0.1810 -1.1631
 7952SOL    HW224257   2.570   1.963   4.670 -0.4513 -1.3277  1.1771
 7953SOL     OW24258   1.544   4.802   4.702 -0.3005 -0.2944  0.2607
 7953SOL    HW124259   1.473   4.746   4.734 -1.9042 -0.0235 -2.5183
 7953SOL    HW224260   1.615   4.741   4.683  0.2291 -0.6012  2.8385
 7954SOL     OW24261   3.166   1.615   1.422  0.1588  0.1663  0.1058
 7954SOL    HW124262   3.149   1.659   1.339 -0.9689  0.0874  0.2752
 7954SOL    HW224263   3.102   1.544   1.425  0.1920  0.1578  1.0278
 7955SOL     OW24264   2.605   4.547   0.156  0.3169 -0.1364 -0.6427
 7955SOL    HW124265   2.635   4.528   0.245 -0.4000 -0.5646 -0.4807
 7955SOL    HW224266   2.549   4.473   0.133 -1.1521  0.9395 -0.6750
 7956SOL     OW24267   0.554   3.814   2.533  0.1814  0.4674  0.7146
 7956SOL    HW124268   0.468   3.830   2.573  0.3548 -0.5873  1.5576
 7956SOL    HW224269   0.563   3.718   2.533  0.9542  0.5236 -0.2531
 7957SOL     OW24270   1.678   4.263   1.520  0.0148 -0.1053 -0.5734
 7957SOL    HW124271   1.758   4.275   1.468 -0.0769  0.8710 -0.5190
 7957SOL    HW224272   1.626   4.200   1.470  0.8302 -0.7858 -0.5879
 7958SOL     OW24273   6.285   0.022   3.655 -0.5174  0.5834 -0.5516
 7958SOL    HW124274   6.270   0.086   3.725 -0.2649  0.1883 -0.1281
 7958SOL    HW224275   6.270  -0.063   3.697 -2.4012  0.3951 -1.4787
 7959SOL     OW24276   2.309   3.127   2.069 -0.0430  0.1093 -0.3011
 7959SOL    HW124277   2.338   3.091   2.154 -1.1338  0.3534  0.1927
 7959SOL    HW224278   2.220   3.092   2.058  0.1362 -0.0219 -1.4221
 7960SOL     OW24279   5.459   4.425   1.854  0.1674  0.4657 -0.2991
 7960SOL    HW124280   5.374   4.445   1.893  0.7304  1.7124  0.3512
 7960SOL    HW224281   5.516   4.495   1.884  2.2117 -1.8757  1.8096
 7961SOL     OW24282   3.960   0.541   0.537  0.0138  0.1994  0.5407
 7961SOL    HW124283   3.972   0.499   0.452  1.2208 -0.2817  0.9237
 7961SOL    HW224284   3.865   0.550   0.547 -0.1210  0.8307 -1.1154
 7962SOL     OW24285   2.300   6.470   6.252 -0.4065  0.2137 -0.0802
 7962SOL    HW124286   2.394   6.454   6.259 -0.4578  0.0739  0.3504
 7962SOL    HW224287   2.259   6.385   6.267 -0.5955  0.2428 -0.4325
 7963SOL     OW24288   2.031   5.335   5.098 -0.3021  0.2140 -0.1863
 7963SOL    HW124289   2.062   5.396   5.032  1.3475  0.4381  0.7335
 7963SOL    HW224290   1.972   5.386   5.153 -0.5149  0.4245 -0.6106
 7964SOL     OW24291   4.023   5.395   2.643 -0.1626  0.5475  0.4109
 7964SOL    HW124292   3.933   5.390   2.612  0.6377  0.9170 -2.2696
 7964SOL    HW224293   4.041   5.308   2.680 -1.1484 -0.0607 -0.4786
 7965SOL     OW24294   3.841   0.437   3.576 -0.1069 -0.1785  0.3363
 7965SOL    HW124295   3.819   0.379   3.503  0.7864  0.7660 -0.7365
 7965SOL    HW224296   3.869   0.379   3.646 -1.0333 -1.1166 -0.0429
 7966SOL     OW24297   5.613   1.718   6.545 -0.3958 -0.0374 -0.1470
 7966SOL    HW124298   5.584   1.751   6.630  0.0366 -0.5220  0.1945
 7966SOL    HW224299   5.589   1.787   6.483  0.5169  0.9400  0.5516
 7967SOL     OW24300   0.551   4.352   3.639  0.5479 -0.2325  0.1687
 7967SOL    HW124301   0.551   4.325   3.547  1.5098  0.7180 -0.1383
 7967SOL    HW224302   0.465   4.394   3.651 -0.2432 -1.7943  0.1821
 7968SOL     OW24303   6.303   2.565   0.354 -0.4612  0.1841  0.0356
 7968SOL    HW124304   6.375   2.601   0.304  0.4602 -1.1264  0.3535
 7968SOL    HW224305   6.257   2.508   0.293 -0.2967 -0.1713  0.2386
 7969SOL     OW24306   6.174   2.840   6.666 -0.1136  0.0721  0.1937
 7969SOL    HW124307   6.204   2.751   6.684 -0.0047 -0.3122 -1.6765
 7969SOL    HW224308   6.140   2.872   6.750 -0.8651 -2.0090  0.7347
 7970SOL     OW24309   4.904   3.738   4.979  0.3213 -0.1402  0.1142
 7970SOL    HW124310   4.999   3.745   4.991  0.2148 -0.7270  1.4831
 7970SOL    HW224311   4.886   3.644   4.977 -0.3300 -0.0425  0.8198
 7971SOL     OW24312   3.516   0.623   2.679 -0.0261  0.1086  0.0222
 7971SOL    HW124313   3.542   0.603   2.589 -1.2565 -0.4033 -0.2442
 7971SOL    HW224314   3.448   0.559   2.699 -2.7642  2.6963 -0.1783
 7972SOL     OW24315   0.421   5.374   3.868  0.5064 -0.1435  0.5038
 7972SOL    HW124316   0.357   5.342   3.805  0.8406 -0.3818  0.2753
 7972SOL    HW224317   0.421   5.469   3.858 -1.2278  0.0486  1.8918
 7973SOL     OW24318   2.007   2.474   0.948 -0.1419 -0.1365  0.1745
 7973SOL    HW124319   1.959   2.488   0.866 -1.9143  0.6775  1.2786
 7973SOL    HW224320   2.098   2.492   0.926 -0.5215 -0.2388 -1.6731
 7974SOL     OW24321   3.677   1.508   5.009  0.0184  0.3025  0.0216
 7974SOL    HW124322   3.630   1.587   5.037 -0.1501  0.2905 -0.2287
 7974SOL    HW224323   3.628   1.476   4.934  1.0297  0.8848 -0.9116
 7975SOL     OW24324   0.610   1.796   1.589 -0.3580  0.1921 -0.1012
 7975SOL    HW124325   0.589   1.853   1.515 -0.5106 -0.8108 -0.8560
 7975SOL    HW224326   0.542   1.729   1.587 -0.7602  0.5276  1.3812
 7976SOL     OW24327   1.960   0.072   6.729  0.0918 -0.0665 -0.0112
 7976SOL    HW124328   1.937   0.139   6.664 -2.7761  0.6050  1.5072
 7976SOL    HW224329   1.936  -0.010   6.687 -0.1502  0.2117 -0.4312
 7977SOL     OW24330   6.676   3.476   1.290  0.3117  0.9478 -0.1804
 7977SOL    HW124331   6.665   3.381   1.283  0.8678  0.7936  0.8670
 7977SOL    HW224332   6.754   3.487   1.344 -0.6414  1.9910  1.0341
 7978SOL     OW24333   4.573   2.864   2.544 -0.0519  0.1559  0.0113
 7978SOL    HW124334   4.529   2.897   2.466 -0.6853 -0.1741  0.2166
 7978SOL    HW224335   4.519   2.895   2.617  0.0515 -0.2519  0.2681
 7979SOL     OW24336   6.212   4.156   1.704  0.3543 -0.4749 -0.2668
 7979SOL    HW124337   6.155   4.104   1.648 -1.3096  1.6095 -0.6338
 7979SOL    HW224338   6.193   4.247   1.679  1.4510  0.4124  1.9044
 7980SOL     OW24339   2.857   2.312   5.475  0.8618  0.3286  0.2865
 7980SOL    HW124340   2.866   2.399   5.436  0.1949 -0.7642 -2.5430
 7980SOL    HW224341   2.762   2.298   5.480  0.9066 -1.2162 -1.8695
 7981SOL     OW24342   3.347   0.937   1.965 -0.1243  0.0787  0.2132
 7981SOL    HW124343   3.322   0.851   1.932  0.0440 -0.1762  0.7464
 7981SOL    HW224344   3.426   0.960   1.917 -0.6532  0.3250 -0.5606
 7982SOL     OW24345   1.486   3.293   1.377 -0.2553  0.0697  0.2141
 7982SOL    HW124346   1.494   3.385   1.403 -2.2678  1.3468 -3.1270
 7982SOL    HW224347   1.527   3.244   1.449  1.7713  3.5760  1.6880
 7983SOL     OW24348   4.704   4.887   0.931  0.6133 -0.1495  0.2965
 7983SOL    HW124349   4.705   4.956   0.864  0.6970 -2.4407 -2.2770
 7983SOL    HW224350   4.623   4.903   0.980  0.0875  1.1731 -0.9194
 7984SOL     OW24351   3.386   3.618   5.463  0.4185 -0.1173  0.0421
 7984SOL    HW124352   3.313   3.590   5.407 -0.0514 -1.8306  1.4119
 7984SOL    HW224353   3.462   3.616   5.406  0.0300 -2.2308 -0.4934
 7985SOL     OW24354   4.496   6.581   3.326  0.0438  0.2342 -0.8692
 7985SOL    HW124355   4.584   6.545   3.339 -0.3590 -0.0904  1.3053
 7985SOL    HW224356   4.447   6.508   3.287  0.3438 -0.0902 -0.6522
 7986SOL     OW24357   5.252   1.209   4.429  0.3825  0.2634 -0.1245
 7986SOL    HW124358   5.221   1.124   4.460  2.0171 -0.5052 -0.4619
 7986SOL    HW224359   5.172   1.258   4.409 -0.6052 -1.0415  0.4466
 7987SOL     OW24360   2.318   0.921   6.309 -0.2034 -0.2929  0.4552
 7987SOL    HW124361   2.295   0.871   6.231  0.0904  0.0866  0.1182
 7987SOL    HW224362   2.259   0.889   6.376 -1.4269  0.3482 -0.2778
 7988SOL     OW24363   5.112   3.825   0.857 -0.3665 -0.0401 -0.4202
 7988SOL    HW124364   5.078   3.877   0.930 -0.8003 -0.8635 -0.0226
 7988SOL    HW224365   5.039   3.819   0.795 -0.1731  0.2012 -0.6736
 7989SOL     OW24366   6.339   5.060   4.853 -0.0328  0.1526  0.7967
 7989SOL    HW124367   6.431   5.032   4.859  0.1439  0.5180  0.0375
 7989SOL    HW224368   6.289   4.985   4.884  0.5196 -0.0797  1.1563
 7990SOL     OW24369   0.103   6.124   3.902  0.1106  0.3011 -0.0231
 7990SOL    HW124370   0.128   6.063   3.833 -0.5672 -2.0631  1.7015
 7990SOL    HW224371   0.102   6.210   3.859  1.5738 -0.7968 -2.4348
 7991SOL     OW24372   3.068   6.310   0.632  0.0173 -0.4474  0.1545
 7991SOL    HW124373   2.975   6.333   0.620 -0.1760 -1.3098 -0.0596
 7991SOL    HW224374   3.092   6.354   0.713 -0.4127  0.2668 -0.0851
 7992SOL     OW24375   6.593   4.005   5.392 -0.2423  0.2529  0.4168
 7992SOL    HW124376   6.634   3.919   5.399 -1.6408 -0.2846  3.1896
 7992SOL    HW224377   6.636   4.058   5.459  0.9038  1.9702 -1.5227
 7993SOL     OW24378   5.074   0.107   5.320 -0.4871 -0.0828 -0.5026
 7993SOL    HW124379   5.105   0.195   5.297 -1.1862 -0.0081 -1.2246
 7993SOL    HW224380   4.997   0.123   5.374  0.3025 -0.2674  0.7214
 7994SOL     OW24381   2.308   1.788   2.915 -0.1211  0.0523  1.0766
 7994SOL    HW124382   2.252   1.733   2.970  0.0448 -3.4773 -1.8628
 7994SOL    HW224383   2.251   1.817   2.844  0.3853  1.8063  1.3443
 7995SOL     OW24384   0.253   5.716   5.859  0.5708 -0.4772 -0.2185
 7995SOL    HW124385   0.212   5.649   5.803 -0.4352  1.0832 -1.4427
 7995SOL    HW224386   0.179   5.762   5.898  1.2029  0.7427 -0.4306
 7996SOL     OW24387   2.892   6.095   1.411 -0.3090 -0.4048 -0.0522
 7996SOL    HW124388   2.973   6.049   1.431  0.0624  0.1636 -0.2342
 7996SOL    HW224389   2.843   6.034   1.356  1.7093  0.7096 -3.3944
 7997SOL     OW24390   5.660   4.896   6.028  0.4078 -0.3741  0.0388
 7997SOL    HW124391   5.722   4.829   5.999 -1.3438 -2.0164 -0.1639
 7997SOL    HW224392   5.601   4.849   6.088 -0.3266  1.2414  0.6461
 7998SOL     OW24393   2.754   0.088   5.619  0.7214  0.2616  0.4012
 7998SOL    HW124394   2.809   0.011   5.635 -0.4414 -0.7046 -0.0694
 7998SOL    HW224395   2.741   0.089   5.524 -0.2356  0.3312  0.5192
 7999SOL     OW24396   3.677   0.346   5.003  0.0379  0.3780  0.3281
 7999SOL    HW124397   3.683   0.255   4.976  0.1853  0.7434 -0.9321
 7999SOL    HW224398   3.588   0.356   5.036 -0.6948  0.2748 -1.5162
 8000SOL     OW24399   2.973   1.849   5.885 -0.4991  0.1544 -0.2094
 8000SOL    HW124400   3.041   1.915   5.875 -1.1189  0.6842 -1.1096
 8000SOL    HW224401   2.939   1.862   5.973  2.7840 -2.3347  1.6708
 8001SOL     OW24402   2.642   2.849   1.171 -0.8425 -0.0288  0.5748
 8001SOL    HW124403   2.673   2.787   1.105 -1.5133  1.9207 -1.7603
 8001SOL    HW224404   2.688   2.825   1.251  2.2596 -0.8391 -1.2783
 8002SOL     OW24405   4.663   5.125   1.349 -0.6459 -0.3684  0.2496
 8002SOL    HW124406   4.573   5.099   1.331 -0.2042 -1.5892 -0.2800
 8002SOL    HW224407   4.713   5.092   1.274  0.3355 -0.2292  0.8251
 8003SOL     OW24408   2.201   1.459   0.157 -0.2564  0.0368 -0.4440
 8003SOL    HW124409   2.120   1.413   0.180 -2.6330  2.9807 -2.1841
 8003SOL    HW224410   2.210   1.527   0.224  1.2200 -0.6396  0.0930
 8004SOL     OW24411   0.726   3.077   0.471 -0.2178  0.5634  0.4274
 8004SOL    HW124412   0.708   3.170   0.486 -1.2837  0.4832 -0.2524
 8004SOL    HW224413   0.802   3.077   0.414  1.6512  0.9340  2.7824
 8005SOL     OW24414   5.866   4.067   5.466 -0.1175  0.4885  0.2700
 8005SOL    HW124415   5.836   3.986   5.507  0.5924 -0.2919 -0.6993
 8005SOL    HW224416   5.881   4.127   5.539  0.6927 -0.7123  1.1329
 8006SOL     OW24417   1.968   1.772   1.860  0.2782  0.3700  0.5669
 8006SOL    HW124418   1.973   1.864   1.834 -0.5071  1.1610  2.9060
 8006SOL    HW224419   1.981   1.723   1.779 -1.5216  2.5367 -1.1522
 8007SOL     OW24420   2.879   2.958   6.270 -0.2194 -0.2093  0.8413
 8007SOL    HW124421   2.805   2.961   6.210 -1.4031 -0.7609  2.2218
 8007SOL    HW224422   2.888   3.048   6.302 -0.5566 -0.2197  0.9695
 8008SOL     OW24423   0.398   1.934   0.098 -0.5300 -0.5814  0.2413
 8008SOL    HW124424   0.370   2.020   0.128  0.3919 -0.8663  2.0751
 8008SOL    HW224425   0.334   1.873   0.136 -0.3147 -0.8294  0.2083
 8009SOL     OW24426   1.300   4.938   6.196 -0.0136 -0.1449  0.0253
 8009SOL    HW124427   1.346   4.870   6.148 -0.8299 -0.5659 -0.1706
 8009SOL    HW224428   1.352   4.951   6.275 -0.1083 -1.3256  0.2891
 8010SOL     OW24429   4.589   3.042   6.762  0.7148  0.4831 -0.5266
 8010SOL    HW124430   4.645   3.106   6.806  0.2022 -0.7429  2.1573
 8010SOL    HW224431   4.505   3.049   6.806 -0.8944  1.2341 -3.4660
 8011SOL     OW24432   0.241   5.850   4.449 -0.1849  0.2741  0.3596
 8011SOL    HW124433   0.333   5.825   4.443 -0.3223 -0.0995 -0.2100
 8011SOL    HW224434   0.211   5.854   4.358 -0.1524  2.5809  0.3778
 8012SOL     OW24435   0.771   1.746   2.917 -0.0586  0.0496 -0.5836
 8012SOL    HW124436   0.681   1.746   2.950  0.2370  0.0139  0.2500
 8012SOL    HW224437   0.807   1.829   2.947  0.0831  0.2230 -1.2214
 8013SOL     OW24438   6.441   4.552   3.287 -0.1034 -0.3699 -0.4114
 8013SOL    HW124439   6.386   4.630   3.294 -0.5352 -0.6999 -0.0497
 8013SOL    HW224440   6.509   4.564   3.354 -0.5362 -0.5880  0.0751
 8014SOL     OW24441   2.701   5.475   5.229 -0.8444  0.3198 -0.0058
 8014SOL    HW124442   2.637   5.405   5.221 -2.5854  1.6643  1.3917
 8014SOL    HW224443   2.662   5.537   5.291  2.8691 -0.0264  3.1045
 8015SOL     OW24444   4.680   2.396   5.811  0.1143 -0.0299 -0.3290
 8015SOL    HW124445   4.744   2.326   5.797 -0.4031 -0.4641 -0.5576
 8015SOL    HW224446   4.648   2.383   5.900  1.0050  0.7456  0.1212
 8016SOL     OW24447   2.247   0.124   0.052  0.6281 -0.5532 -0.3434
 8016SOL    HW124448   2.263   0.110   0.145  0.8204  0.8806 -0.1450
 8016SOL    HW224449   2.153   0.142   0.046  0.7454  0.0810 -0.3246
 8017SOL     OW24450   2.897   1.967   6.679 -0.0913  0.2309  0.1801
 8017SOL    HW124451   2.875   1.881   6.716  0.6691  0.3375  0.8895
 8017SOL    HW224452   2.827   2.025   6.709  0.3992  0.2696  1.2889
 8018SOL     OW24453   2.645   3.436   3.840 -0.1033 -0.4502 -0.2878
 8018SOL    HW124454   2.607   3.453   3.753  2.5365  0.0136 -1.4434
 8018SOL    HW224455   2.611   3.506   3.895 -0.7424  0.0581 -1.3057
 8019SOL     OW24456   0.133   5.658   2.498 -0.2319  0.2239 -0.4298
 8019SOL    HW124457   0.181   5.685   2.576 -0.6395 -1.4381  0.4476
 8019SOL    HW224458   0.174   5.707   2.426  1.2184  0.5843  0.5962
 8020SOL     OW24459   0.580   5.208   6.154  0.0507  0.0410 -0.4119
 8020SOL    HW124460   0.644   5.137   6.159  1.4639  1.2848  0.1851
 8020SOL    HW224461   0.631   5.285   6.127 -0.4323  1.8762  3.2159
 8021SOL     OW24462   3.856   0.706   2.799  0.4607 -0.6645 -0.2212
 8021SOL    HW124463   3.937   0.684   2.752 -0.3839 -1.0341 -1.5581
 8021SOL    HW224464   3.819   0.780   2.750  0.6810  0.4450  1.2198
 8022SOL     OW24465   0.608   2.920   6.565 -0.6521  0.4042 -0.1529
 8022SOL    HW124466   0.519   2.914   6.599 -0.2032 -0.5351  0.9118
 8022SOL    HW224467   0.607   2.870   6.484 -1.1715  0.6801 -0.3164
 8023SOL     OW24468   1.311   0.311   4.978 -0.2990 -0.9140 -0.4134
 8023SOL    HW124469   1.336   0.231   4.932  0.4408 -1.5853  1.0980
 8023SOL    HW224470   1.243   0.283   5.039  0.2303 -0.4787  0.3856
 8024SOL     OW24471   0.879   0.789   3.064 -0.4364  0.1463  0.3445
 8024SOL    HW124472   0.841   0.876   3.077  0.8127  0.6452  0.7782
 8024SOL    HW224473   0.803   0.731   3.053 -1.2907  1.2494  0.2530
 8025SOL     OW24474   5.554   5.887   0.550 -0.0260 -0.5333  0.2352
 8025SOL    HW124475   5.573   5.966   0.601 -2.5502 -1.1456  2.3914
 8025SOL    HW224476   5.620   5.823   0.578  1.3540  0.4312 -0.7115
 8026SOL     OW24477   3.347   3.440   5.971 -0.3242  0.6894 -0.1569
 8026SOL    HW124478   3.414   3.384   5.932 -0.9395  1.0896 -1.8809
 8026SOL    HW224479   3.289   3.380   6.017 -0.7229 -0.0619 -1.6018
 8027SOL     OW24480   6.394   4.561   0.378 -0.3606 -0.1278  0.0167
 8027SOL    HW124481   6.472   4.554   0.433 -0.5896  0.2975  0.3991
 8027SOL    HW224482   6.427   4.553   0.288  0.5499  3.0104 -0.0261
 8028SOL     OW24483   0.455   0.269   5.298 -0.0045  0.0951 -0.1259
 8028SOL    HW124484   0.390   0.305   5.360  0.1600 -0.4739  0.3823
 8028SOL    HW224485   0.476   0.183   5.333  0.2756 -0.1364 -0.8530
 8029SOL     OW24486   5.355   6.459   3.417  0.4317  0.2146 -0.4039
 8029SOL    HW124487   5.272   6.455   3.370 -0.2228  0.7270  0.6634
 8029SOL    HW224488   5.336   6.420   3.503  1.7247 -1.1812 -0.6988
 8030SOL     OW24489   2.125   5.338   3.717 -0.0344  0.0620  0.3688
 8030SOL    HW124490   2.211   5.300   3.735  0.6432  0.7036 -1.2826
 8030SOL    HW224491   2.097   5.374   3.801  1.7590  0.6967  0.7534
 8031SOL     OW24492   6.076   5.765   5.240  0.5290 -0.5427  0.6699
 8031SOL    HW124493   6.119   5.838   5.283 -4.1262  2.2100  1.2638
 8031SOL    HW224494   6.033   5.716   5.310 -3.1324  1.1743 -0.1170
 8032SOL     OW24495   6.607   5.963   0.595  0.2926 -0.0922 -0.3719
 8032SOL    HW124496   6.551   5.920   0.531 -0.2439 -0.6292  0.4407
 8032SOL    HW224497   6.622   6.051   0.559 -3.5607  1.2009  0.7576
 8033SOL     OW24498   0.773   6.634   5.306 -0.1031  0.3257  0.1310
 8033SOL    HW124499   0.713   6.574   5.350  0.3814  0.1375  0.5434
 8033SOL    HW224500   0.857   6.589   5.307 -0.3514 -0.3114 -2.2441
 8034SOL     OW24501   3.946   6.584   2.757  0.2039  0.0418  0.3322
 8034SOL    HW124502   3.972   6.660   2.705  0.1229  0.0562  0.3122
 8034SOL    HW224503   3.876   6.543   2.706  2.0159 -1.5753 -0.9959
 8035SOL     OW24504   0.111   0.754   6.220 -0.9549  0.5511 -0.2867
 8035SOL    HW124505   0.126   0.676   6.274 -1.5035  0.6579  0.0236
 8035SOL    HW224506   0.143   0.827   6.274  1.7853  0.3784 -1.4802
 8036SOL     OW24507   0.305   6.311   3.015 -0.0429 -0.2131  0.2223
 8036SOL    HW124508   0.254   6.390   3.034  1.0706  0.9781 -1.4508
 8036SOL    HW224509   0.252   6.264   2.951  0.5440  0.6712 -0.9723
 8037SOL     OW24510   3.502   2.642   3.211 -0.2753 -0.3356  0.2243
 8037SOL    HW124511   3.531   2.696   3.285 -0.8246 -1.1099  1.0286
 8037SOL    HW224512   3.458   2.567   3.252 -1.9834 -0.0069 -0.8994
 8038SOL     OW24513   5.735   6.474   4.727  0.2147  0.2713  0.0838
 8038SOL    HW124514   5.759   6.540   4.792 -0.8180 -1.1097  1.9782
 8038SOL    HW224515   5.808   6.474   4.664  1.1540  1.8175  1.1049
 8039SOL     OW24516   0.082   2.674   4.241 -0.0806 -0.4526  0.2037
 8039SOL    HW124517   0.152   2.738   4.240  1.5329 -2.1420 -0.5412
 8039SOL    HW224518   0.073   2.647   4.149  0.0233 -2.0456  0.6363
 8040SOL     OW24519   0.989   1.128   5.607  0.5100  0.0042  0.0870
 8040SOL    HW124520   0.992   1.047   5.658 -0.2884  0.7904  1.4411
 8040SOL    HW224521   1.064   1.178   5.638  0.2635  0.3111  0.1919
 8041SOL     OW24522   2.113   1.297   3.542  0.4513 -0.4277 -0.1522
 8041SOL    HW124523   2.146   1.364   3.481  0.9429 -1.0044 -0.5303
 8041SOL    HW224524   2.023   1.283   3.515  0.0914  0.6301  0.4185
 8042SOL     OW24525   4.195   6.398   3.789  0.0230  0.5734  1.1268
 8042SOL    HW124526   4.208   6.492   3.782 -1.7308  0.8121  0.6284
 8042SOL    HW224527   4.156   6.385   3.876 -2.4304  0.7112  0.1362
 8043SOL     OW24528   2.289   5.377   5.865 -0.1582 -0.0855 -0.2724
 8043SOL    HW124529   2.382   5.355   5.870 -0.1500  0.0933  0.4121
 8043SOL    HW224530   2.257   5.365   5.954 -1.2426 -2.1211 -0.8760
 8044SOL     OW24531   0.405   1.539   2.664  0.2975  0.4293  0.0594
 8044SOL    HW124532   0.491   1.514   2.695  0.0486  1.0403  1.3316
 8044SOL    HW224533   0.345   1.476   2.704  0.1666 -0.2454 -1.1439
 8045SOL     OW24534   0.321   6.204   0.850 -0.0139 -0.4888  0.3974
 8045SOL    HW124535   0.246   6.196   0.908 -3.2300  1.9470 -2.9070
 8045SOL    HW224536   0.293   6.161   0.769  1.9495  0.8589 -1.1053
 8046SOL     OW24537   4.675   1.400   4.325  0.3978  0.4299  0.1747
 8046SOL    HW124538   4.671   1.445   4.410  0.7387  0.5034  0.1560
 8046SOL    HW224539   4.750   1.440   4.281  0.2969  0.3045 -0.1119
 8047SOL     OW24540   2.464   5.070   3.329  0.0705  0.0968 -0.1762
 8047SOL    HW124541   2.537   5.009   3.315 -0.9339 -1.2728  0.2925
 8047SOL    HW224542   2.388   5.013   3.336 -0.8786  1.4287  0.5416
 8048SOL     OW24543   3.753   5.011   1.804  0.2535  0.5170  0.7153
 8048SOL    HW124544   3.692   5.075   1.839  0.6934  1.4235 -0.1185
 8048SOL    HW224545   3.811   5.062   1.747 -0.2823 -0.8120 -1.1208
 8049SOL     OW24546   1.091   6.269   0.369 -0.4475  0.0453  0.6799
 8049SOL    HW124547   1.006   6.274   0.412 -1.9272  3.6535 -2.2043
 8049SOL    HW224548   1.102   6.354   0.327  3.6837 -1.0162 -0.8655
 8050SOL     OW24549   6.012   4.195   3.708  0.7356 -0.9611 -0.0372
 8050SOL    HW124550   6.001   4.243   3.626  3.1104  0.7287  0.5329
 8050SOL    HW224551   5.923   4.170   3.733 -0.5908  2.3169 -0.9251
 8051SOL     OW24552   5.098   5.893   1.142  0.1843  0.1662  0.2509
 8051SOL    HW124553   5.152   5.969   1.161  0.3484  0.4619 -1.2980
 8051SOL    HW224554   5.130   5.860   1.058 -0.8436 -0.7305  0.1807
 8052SOL     OW24555   1.556   4.570   6.681  0.6554  0.1866 -0.7155
 8052SOL    HW124556   1.594   4.653   6.710 -1.0783  0.1285  1.9981
 8052SOL    HW224557   1.504   4.594   6.603 -0.0241  1.7426  0.1581
 8053SOL     OW24558   4.812   2.196   5.571 -0.0916  0.3705 -0.3572
 8053SOL    HW124559   4.865   2.221   5.646 -0.1824  1.1734 -0.5525
 8053SOL    HW224560   4.844   2.109   5.547 -0.1382  0.0622  0.6683
 8054SOL     OW24561   1.298   2.649   3.791 -0.2185  0.3532 -0.2752
 8054SOL    HW124562   1.317   2.742   3.794  1.0044  0.0952  1.4234
 8054SOL    HW224563   1.282   2.631   3.698  0.7198  2.0121 -0.8054
 8055SOL     OW24564   2.745   6.276   3.698  0.0042 -0.2818 -0.8181
 8055SOL    HW124565   2.686   6.329   3.645  0.2128  0.8273  0.0148
 8055SOL    HW224566   2.694   6.252   3.775  0.7893  1.2909  0.2570
 8056SOL     OW24567   0.463   0.785   2.871 -0.3215  0.8292  0.0735
 8056SOL    HW124568   0.419   0.824   2.796 -2.3010  0.7097  1.1086
 8056SOL    HW224569   0.515   0.857   2.908  0.4016  0.9762 -1.1540
 8057SOL     OW24570   5.849   6.106   1.794  0.3631 -0.0667 -0.3190
 8057SOL    HW124571   5.829   6.117   1.701 -0.0689  0.3807 -0.1718
 8057SOL    HW224572   5.916   6.172   1.812 -2.6192  2.9119  0.6942
 8058SOL     OW24573   4.846   5.513   1.407 -0.4326 -0.6000  1.1220
 8058SOL    HW124574   4.805   5.520   1.321  2.5265  0.3472 -0.3630
 8058SOL    HW224575   4.828   5.597   1.450 -2.2379 -1.2183  1.6612
 8059SOL     OW24576   6.634   1.007   4.815 -0.0946  0.0640 -0.2262
 8059SOL    HW124577   6.710   1.063   4.826  0.1011 -0.1239 -0.5881
 8059SOL    HW224578   6.566   1.065   4.780 -0.1491  0.2517  0.1877
 8060SOL     OW24579   5.468   3.775   1.402 -0.2626 -0.3118 -0.1337
 8060SOL    HW124580   5.460   3.870   1.399  0.0095 -0.2445  0.7303
 8060SOL    HW224581   5.401   3.743   1.342 -0.0871  0.4280 -0.7443
 8061SOL     OW24582   4.101   1.354   4.399  0.5021 -0.0187  0.0988
 8061SOL    HW124583   4.127   1.301   4.474  0.9723 -0.8261 -0.6191
 8061SOL    HW224584   4.142   1.439   4.414  1.0110 -0.3329  0.5048
 8062SOL     OW24585   4.412   1.005   1.018 -0.2443  0.7461 -0.3002
 8062SOL    HW124586   4.319   1.000   0.998 -0.2712  2.3981 -0.7816
 8062SOL    HW224587   4.420   0.972   1.107 -0.8788 -1.8279 -1.1023
 8063SOL     OW24588   4.695   2.967   2.171  0.0201 -0.1509 -0.1101
 8063SOL    HW124589   4.621   2.947   2.227 -0.6112  0.7303 -0.5930
 8063SOL    HW224590   4.680   2.916   2.092 -0.8863  1.1219 -0.8044
 8064SOL     OW24591   3.808   6.112   5.914  0.4100  0.5487 -0.0263
 8064SOL    HW124592   3.875   6.120   5.846  0.5190  1.8527  0.2077
 8064SOL    HW224593   3.853   6.070   5.987  0.6519  0.3575 -0.2818
 8065SOL     OW24594   2.671   0.946   0.774 -0.2796  0.1690 -0.9376
 8065SOL    HW124595   2.584   0.936   0.735  0.3016 -1.3078 -1.9179
 8065SOL    HW224596   2.718   0.867   0.749  0.9396  0.3161  0.6946
 8066SOL     OW24597   2.872   3.203   0.988  0.7299 -0.2353  0.3535
 8066SOL    HW124598   2.863   3.171   0.899  0.4190  1.4815 -0.2808
 8066SOL    HW224599   2.873   3.299   0.979  2.1121 -0.0288  2.0481
 8067SOL     OW24600   3.760   5.724   1.687 -0.1532  0.0206 -0.4091
 8067SOL    HW124601   3.838   5.727   1.741 -0.1901  0.7119 -0.3962
 8067SOL    HW224602   3.704   5.659   1.730 -0.9434  1.8259  1.4410
 8068SOL     OW24603   1.332   2.164   2.071 -0.7909 -0.0935 -0.1823
 8068SOL    HW124604   1.425   2.154   2.051 -0.8315 -1.0638  0.0661
 8068SOL    HW224605   1.291   2.085   2.033 -1.4410  0.0904  0.1264
 8069SOL     OW24606   5.581   2.424   1.622 -0.2379 -0.5411  0.0921
 8069SOL    HW124607   5.586   2.394   1.531  0.3521  1.1979 -0.4976
 8069SOL    HW224608   5.666   2.401   1.659 -0.1954 -0.5973 -0.0392
 8070SOL     OW24609   1.366   1.400   1.581 -0.1907 -0.3488 -1.2732
 8070SOL    HW124610   1.318   1.430   1.504 -0.0476  0.8445 -0.9139
 8070SOL    HW224611   1.436   1.464   1.593  0.9076 -1.5178 -1.2047
 8071SOL     OW24612   5.784   3.220   0.717  0.3548  0.6166 -0.4047
 8071SOL    HW124613   5.771   3.277   0.642  0.2046 -1.4828 -2.0638
 8071SOL    HW224614   5.849   3.156   0.688 -0.0976 -0.5788  1.0685
 8072SOL     OW24615   2.452   2.493   6.525  0.0322  0.5684 -0.2095
 8072SOL    HW124616   2.522   2.432   6.548 -0.4436 -0.1178 -0.5307
 8072SOL    HW224617   2.388   2.484   6.595 -0.4324  0.0611 -0.6929
 8073SOL     OW24618   2.029   5.413   4.600 -0.4010 -0.1920 -0.1256
 8073SOL    HW124619   1.972   5.342   4.572 -0.9760  0.2356 -0.0570
 8073SOL    HW224620   1.978   5.493   4.585  0.3106  0.2234 -0.3963
 8074SOL     OW24621   0.867   1.455   3.900  0.1387  0.3834 -0.4930
 8074SOL    HW124622   0.851   1.489   3.989 -1.4436  0.2254 -0.6848
 8074SOL    HW224623   0.804   1.501   3.845 -1.4718 -2.1249 -0.9159
 8075SOL     OW24624   1.041   0.830   6.069  0.1038 -0.2795 -0.2771
 8075SOL    HW124625   0.995   0.913   6.060 -0.4791 -0.3774  1.4344
 8075SOL    HW224626   1.103   0.845   6.141  0.1257 -1.2460 -0.0780
 8076SOL     OW24627   5.259   5.655   6.190 -0.0523 -0.0063  0.4547
 8076SOL    HW124628   5.247   5.566   6.223 -0.5619  0.4511  1.5510
 8076SOL    HW224629   5.332   5.690   6.242 -0.8469  0.7203  1.1022
 8077SOL     OW24630   2.411   2.995   2.946  1.0315  0.2451  0.3122
 8077SOL    HW124631   2.333   2.965   2.900  1.6462  0.2283 -0.7557
 8077SOL    HW224632   2.390   2.985   3.039 -1.0778  2.3435  0.1547
 8078SOL     OW24633   3.189   6.285   3.448  0.2553 -0.3457 -0.1892
 8078SOL    HW124634   3.136   6.216   3.408  1.8858 -0.2371 -2.7245
 8078SOL    HW224635   3.136   6.364   3.437 -1.5737 -1.0210  2.6322
 8079SOL     OW24636   0.283   1.242   4.171  0.4217 -0.3656 -0.0579
 8079SOL    HW124637   0.328   1.322   4.144 -0.5560 -0.2284 -1.4119
 8079SOL    HW224638   0.190   1.259   4.152  0.0271 -1.3181  0.9137
 8080SOL     OW24639   4.891   3.642   1.763 -0.0066  0.4123 -0.0267
 8080SOL    HW124640   4.839   3.721   1.777 -0.4497  0.0071  0.6970
 8080SOL    HW224641   4.976   3.674   1.731 -0.8109  1.0641 -1.6491
 8081SOL     OW24642   4.944   2.020   4.716 -0.0627 -0.0950 -0.2196
 8081SOL    HW124643   4.908   2.031   4.804 -1.9248  1.1854 -1.0857
 8081SOL    HW224644   5.036   2.046   4.725 -0.1981 -0.0537  1.3538
 8082SOL     OW24645   0.606   5.467   2.405 -0.1990 -0.0930  0.2971
 8082SOL    HW124646   0.550   5.391   2.417 -0.9323  0.4728  0.5717
 8082SOL    HW224647   0.554   5.527   2.351 -0.7059  1.2683  2.1759
 8083SOL     OW24648   0.774   2.817   2.730  0.3502 -0.5760 -0.6849
 8083SOL    HW124649   0.776   2.751   2.798  0.0361  1.7496  1.7519
 8083SOL    HW224650   0.866   2.841   2.717  0.4002 -0.9368 -1.0131
 8084SOL     OW24651   0.161   1.738   0.136 -0.2271 -0.4175 -0.6088
 8084SOL    HW124652   0.217   1.665   0.113  0.4499  0.2270 -1.0531
 8084SOL    HW224653   0.103   1.704   0.204 -0.5042 -1.6065 -1.4066
 8085SOL     OW24654   3.589   4.541   3.904 -0.1683  0.0948  0.0178
 8085SOL    HW124655   3.533   4.469   3.932  1.1755 -1.2367 -0.5817
 8085SOL    HW224656   3.528   4.614   3.890 -1.8961 -1.4904 -1.3791
 8086SOL     OW24657   5.527   2.224   3.154  0.0400  0.3321 -0.0273
 8086SOL    HW124658   5.602   2.209   3.211 -0.0007 -1.3146 -0.3381
 8086SOL    HW224659   5.454   2.237   3.215  0.2027 -0.2323  0.2945
 8087SOL     OW24660   1.949   2.798   2.823  0.3181  0.1563 -0.5758
 8087SOL    HW124661   1.866   2.814   2.868 -0.1835 -0.2178 -1.3491
 8087SOL    HW224662   1.957   2.702   2.822 -1.2731 -0.1029 -3.9965
 8088SOL     OW24663   1.783   4.474   0.303  0.4898 -0.1844  0.2938
 8088SOL    HW124664   1.807   4.404   0.365 -1.0992 -1.0819 -0.0414
 8088SOL    HW224665   1.716   4.524   0.349 -0.6846 -0.8402 -0.6246
 8089SOL     OW24666   4.025   1.663   2.277  0.5525 -0.4122 -0.3747
 8089SOL    HW124667   4.011   1.720   2.353  0.1672 -1.2547  0.1913
 8089SOL    HW224668   4.105   1.698   2.236  0.6070  0.2259  0.2478
 8090SOL     OW24669   6.184   5.114   6.763 -0.0527 -0.2072 -0.2413
 8090SOL    HW124670   6.108   5.140   6.711 -0.1325 -1.9058 -1.0495
 8090SOL    HW224671   6.152   5.043   6.818  0.7671 -0.4820 -0.0989
 8091SOL     OW24672   5.272   4.485   0.154 -0.6694  0.5727  0.2590
 8091SOL    HW124673   5.191   4.454   0.114 -1.5026  0.8877  1.6793
 8091SOL    HW224674   5.300   4.414   0.211 -0.1218  0.6145  0.0562
 8092SOL     OW24675   4.903   0.133   2.184 -0.3736  0.2300 -0.1652
 8092SOL    HW124676   4.968   0.181   2.132 -1.2819  3.4226  1.4099
 8092SOL    HW224677   4.830   0.194   2.193 -1.3037 -1.1520  2.6875
 8093SOL     OW24678   2.099   5.092   5.012 -0.2989  0.2029  0.2731
 8093SOL    HW124679   2.079   5.183   5.032  0.3451  0.6843 -1.1043
 8093SOL    HW224680   2.192   5.083   5.032 -0.0392  0.2431 -0.8291
 8094SOL     OW24681   3.710   5.688   0.707  0.4163 -0.4290  0.0407
 8094SOL    HW124682   3.718   5.668   0.800 -0.5063 -0.7218  0.0665
 8094SOL    HW224683   3.749   5.776   0.699 -0.8429  0.2563  0.9848
 8095SOL     OW24684   0.776   5.527   3.649  0.1252 -0.0251  0.4719
 8095SOL    HW124685   0.762   5.621   3.650 -0.3034 -0.0608 -0.6715
 8095SOL    HW224686   0.857   5.514   3.699  1.1292  1.1199 -0.7939
 8096SOL     OW24687   3.577   6.117   5.057  0.3087 -0.0955  0.0134
 8096SOL    HW124688   3.546   6.147   4.972  1.8610  2.3653  0.1984
 8096SOL    HW224689   3.516   6.154   5.120  0.9303  0.8060  0.1092
 8097SOL     OW24690   4.971   3.357   2.875 -0.0051 -0.6416 -0.4426
 8097SOL    HW124691   4.968   3.441   2.921  0.1910 -0.3808 -0.8951
 8097SOL    HW224692   4.981   3.291   2.944  0.9970 -0.2103 -0.1539
 8098SOL     OW24693   4.908   0.440   1.720 -0.3187  0.3502  0.4457
 8098SOL    HW124694   4.896   0.530   1.751 -1.7341 -0.0372  1.1576
 8098SOL    HW224695   4.830   0.423   1.667 -0.6837 -0.8204  1.3038
 8099SOL     OW24696   1.031   6.701   1.357  0.3391  0.1322  0.0215
 8099SOL    HW124697   1.042   6.758   1.280 -0.2710  0.0349 -0.1451
 8099SOL    HW224698   0.943   6.721   1.388  0.6707  0.3488  0.8469
 8100SOL     OW24699   4.840   4.334   0.783 -0.0086  0.3614  0.1568
 8100SOL    HW124700   4.746   4.316   0.778 -0.1868  0.3711  2.3567
 8100SOL    HW224701   4.879   4.278   0.717 -1.4283 -0.9080  0.3420
 8101SOL     OW24702   4.801   2.283   0.216  0.0091 -0.4127 -0.6156
 8101SOL    HW124703   4.705   2.288   0.220 -0.1460 -2.6970 -0.1324
 8101SOL    HW224704   4.819   2.207   0.161  1.5051 -0.9701  0.5837
 8102SOL     OW24705   4.769   1.695   1.461  0.0973 -0.2668  1.3598
 8102SOL    HW124706   4.773   1.618   1.405 -2.4196  0.8677 -0.5945
 8102SOL    HW224707   4.847   1.746   1.439 -0.7328  0.0606 -1.0889
 8103SOL     OW24708   6.402   3.457   4.633 -0.1026  0.4278  0.0581
 8103SOL    HW124709   6.424   3.400   4.707 -1.4263 -0.5221 -0.2423
 8103SOL    HW224710   6.454   3.422   4.561  2.0568  2.0416  0.7189
 8104SOL     OW24711   2.516   3.616   2.890  0.4753  0.6950 -0.6200
 8104SOL    HW124712   2.459   3.667   2.832 -1.4432 -0.9597 -0.2839
 8104SOL    HW224713   2.576   3.571   2.831 -1.5556 -1.0962 -1.4413
 8105SOL     OW24714   4.718   2.181   6.254  0.1417  0.4195  0.3949
 8105SOL    HW124715   4.758   2.268   6.242 -1.3701  1.1620  0.4244
 8105SOL    HW224716   4.636   2.199   6.300  0.5732 -1.2305  1.9192
 8106SOL     OW24717   5.847   0.138   2.742  0.0084 -0.0060  0.2122
 8106SOL    HW124718   5.940   0.118   2.729 -0.4000 -1.3463 -0.9399
 8106SOL    HW224719   5.821   0.082   2.816 -0.0921 -0.3696 -0.0934
 8107SOL     OW24720   6.238   3.409   1.187 -0.7518  0.0331  0.1637
 8107SOL    HW124721   6.181   3.484   1.205  0.7520  0.8306  1.8159
 8107SOL    HW224722   6.249   3.366   1.271 -0.5906 -1.3513 -0.5385
 8108SOL     OW24723   4.710   5.463   6.722  0.2938  0.2167 -0.1940
 8108SOL    HW124724   4.666   5.453   6.637  1.4909  0.9469 -0.9261
 8108SOL    HW224725   4.696   5.378   6.765  0.5325 -0.5505 -1.5435
 8109SOL     OW24726   1.215   1.147   2.310 -0.4341  0.2138 -0.2776
 8109SOL    HW124727   1.141   1.205   2.294 -1.0409 -0.5622 -0.3384
 8109SOL    HW224728   1.276   1.166   2.238 -0.8816  0.3625 -0.6221
 8110SOL     OW24729   3.903   3.599   3.589  0.0433 -0.2647  0.2458
 8110SOL    HW124730   3.935   3.683   3.555  0.7853 -2.0298 -4.1190
 8110SOL    HW224731   3.808   3.605   3.583  0.0557  0.5045  0.7047
 8111SOL     OW24732   2.417   6.526   2.118  0.5796  0.1050  0.6980
 8111SOL    HW124733   2.340   6.579   2.098  0.4933  0.3041  1.5217
 8111SOL    HW224734   2.427   6.469   2.042  1.5825  2.3040 -0.9369
 8112SOL     OW24735   1.915   0.023   5.167 -0.2015  0.7709  0.3965
 8112SOL    HW124736   1.989  -0.018   5.212  0.0606  0.0045 -0.6843
 8112SOL    HW224737   1.939   0.021   5.075 -0.6896  2.3770  0.2069
 8113SOL     OW24738   5.391   3.111   5.726 -0.2576 -0.3971 -0.5068
 8113SOL    HW124739   5.304   3.071   5.722  0.5846 -2.5886  1.1588
 8113SOL    HW224740   5.450   3.042   5.697  1.1684  0.0225  1.2417
 8114SOL     OW24741   5.831   2.311   1.735  0.4573  0.4032  0.1496
 8114SOL    HW124742   5.779   2.236   1.764 -0.3280  1.2643  1.0165
 8114SOL    HW224743   5.914   2.304   1.783  1.1460 -0.8946 -1.1343
 8115SOL     OW24744   3.159   5.914   1.317  0.1889  0.1526 -0.3113
 8115SOL    HW124745   3.247   5.921   1.279  0.6229 -0.6075  0.4960
 8115SOL    HW224746   3.127   5.829   1.288  0.4381 -0.3393  0.8109
 8116SOL     OW24747   0.382   6.479   0.832 -1.1004 -0.5045  0.0879
 8116SOL    HW124748   0.364   6.386   0.822 -0.9888 -0.6750  1.3078
 8116SOL    HW224749   0.452   6.484   0.897 -1.0426  0.4254 -0.0209
 8117SOL     OW24750   2.150   1.108   4.190  0.2023  0.1557 -0.0171
 8117SOL    HW124751   2.086   1.050   4.232  0.6132 -0.9265 -0.8232
 8117SOL    HW224752   2.226   1.052   4.174  0.8962  1.1204 -0.1509
 8118SOL     OW24753   5.106   0.754   3.358  0.4702  0.6035 -0.7300
 8118SOL    HW124754   5.130   0.756   3.450  2.1340  1.9102 -1.1397
 8118SOL    HW224755   5.181   0.793   3.313  0.4212 -1.5078 -2.8016
 8119SOL     OW24756   3.523   6.348   4.250  0.2748  0.1196  0.3746
 8119SOL    HW124757   3.525   6.409   4.324 -0.6150  0.4361  0.1475
 8119SOL    HW224758   3.459   6.282   4.274  1.0120 -0.5755  0.4853
 8120SOL     OW24759   5.522   1.889   2.478  0.2698  0.2021 -0.0370
 8120SOL    HW124760   5.494   1.969   2.433 -0.1435 -0.2615 -0.6253
 8120SOL    HW224761   5.581   1.919   2.547  0.1427  1.0098 -0.2733
 8121SOL     OW24762   4.519   5.922   6.728  0.0928 -0.0239  0.6847
 8121SOL    HW124763   4.569   5.872   6.794 -0.6261  0.9585  2.0230
 8121SOL    HW224764   4.499   5.857   6.660  0.8375 -1.0964  1.4432
 8122SOL     OW24765   2.111   2.085   6.062 -0.1055 -0.2360  0.1891
 8122SOL    HW124766   2.058   2.136   6.000  0.5567  0.2347  0.0010
 8122SOL    HW224767   2.062   2.088   6.144  0.8347  2.3913  0.7512
 8123SOL     OW24768   5.677   6.226   1.976  0.3152 -0.5996 -0.4456
 8123SOL    HW124769   5.740   6.161   1.945  0.5711 -0.8179  0.4888
 8123SOL    HW224770   5.600   6.213   1.920  0.6233 -1.2212 -0.7398
 8124SOL     OW24771   6.407   1.584   1.752 -0.5136 -0.0963  0.2379
 8124SOL    HW124772   6.407   1.679   1.746  1.1249 -0.0373  0.6303
 8124SOL    HW224773   6.409   1.566   1.846 -0.7052 -0.5190  0.1625
 8125SOL     OW24774   2.471   4.609   1.888 -0.3563  0.0640  0.6206
 8125SOL    HW124775   2.487   4.547   1.817 -0.5997 -0.0432  0.6581
 8125SOL    HW224776   2.376   4.605   1.902 -0.3461  0.2926  0.7613
 8126SOL     OW24777   1.795   1.012   3.710 -0.6845  0.4252 -0.2493
 8126SOL    HW124778   1.759   1.064   3.638 -1.2180 -0.3445 -0.5527
 8126SOL    HW224779   1.726   0.950   3.732 -0.0555 -0.1761  0.0817
 8127SOL     OW24780   0.550   5.094   6.697 -0.1343  0.3050 -0.0742
 8127SOL    HW124781   0.546   5.009   6.740  2.2983 -0.2247 -0.7828
 8127SOL    HW224782   0.466   5.100   6.650 -0.4332 -1.6123  0.1159
 8128SOL     OW24783   3.728   6.300   2.366  0.3318  0.2733 -0.0238
 8128SOL    HW124784   3.681   6.291   2.283 -0.7468  1.0635  0.4720
 8128SOL    HW224785   3.687   6.235   2.424 -1.3282  2.0288  0.8894
 8129SOL     OW24786   1.817   2.015   2.425 -0.0255 -0.5695  0.4552
 8129SOL    HW124787   1.860   1.931   2.443  1.0386 -0.1192  0.0728
 8129SOL    HW224788   1.884   2.081   2.443 -0.7159  0.1768  0.3360
 8130SOL     OW24789   3.267   1.577   5.594 -0.2564  0.2169 -0.4528
 8130SOL    HW124790   3.188   1.592   5.647 -0.4176  1.1712 -0.9492
 8130SOL    HW224791   3.274   1.654   5.539 -0.1685 -0.8124 -1.9436
 8131SOL     OW24792   4.448   4.147   1.075 -0.6612 -0.1152 -0.2415
 8131SOL    HW124793   4.521   4.207   1.066 -1.9351  1.6686  0.6797
 8131SOL    HW224794   4.406   4.148   0.989  0.7189 -1.6810 -0.9865
 8132SOL     OW24795   6.128   4.450   4.558  0.1545 -0.1142 -0.2483
 8132SOL    HW124796   6.156   4.368   4.518  1.0344  0.0702 -0.0345
 8132SOL    HW224797   6.149   4.441   4.650 -1.6086 -0.4233  0.1607
 8133SOL     OW24798   5.414   4.909   4.059  0.1011  0.2146 -0.1835
 8133SOL    HW124799   5.451   4.823   4.076  0.1386  0.6004  2.1374
 8133SOL    HW224800   5.478   4.953   4.003 -0.5277 -1.6283 -2.4897
 8134SOL     OW24801   4.665   1.058   0.906 -0.0689  0.0553  0.0180
 8134SOL    HW124802   4.584   1.047   0.956  0.6042  0.6744  1.2938
 8134SOL    HW224803   4.714   0.977   0.920  0.0487  0.1628  0.2299
 8135SOL     OW24804   1.427   3.521   3.559 -0.0433  0.0464 -0.0842
 8135SOL    HW124805   1.358   3.585   3.575 -2.4552 -1.9514 -1.6898
 8135SOL    HW224806   1.477   3.556   3.486 -0.3771  0.7764  0.0281
 8136SOL     OW24807   5.042   0.333   0.788 -0.2376  0.3068  0.4005
 8136SOL    HW124808   4.947   0.350   0.794 -0.6292 -0.8311 -1.5680
 8136SOL    HW224809   5.073   0.398   0.726 -0.1736 -0.6617 -0.6228
 8137SOL     OW24810   1.283   4.456   3.604 -0.2617 -0.0285 -0.1096
 8137SOL    HW124811   1.245   4.468   3.517  1.0251  0.0460 -0.6943
 8137SOL    HW224812   1.253   4.533   3.653  0.4133  0.8694 -1.0394
 8138SOL     OW24813   1.162   5.851   0.383  0.2863  0.1221  0.2322
 8138SOL    HW124814   1.152   5.767   0.427 -0.9983  0.1494  0.0578
 8138SOL    HW224815   1.214   5.832   0.305  2.6144  0.0808  1.7169
 8139SOL     OW24816   1.471   4.887   3.387  0.8126 -0.4885  0.2626
 8139SOL    HW124817   1.436   4.964   3.340  0.4549 -0.1908  0.9977
 8139SOL    HW224818   1.565   4.905   3.395  0.7923 -0.3020  0.0969
 8140SOL     OW24819   1.760   1.697   4.360  0.0075  0.2838  0.2798
 8140SOL    HW124820   1.679   1.656   4.388 -1.3925  1.2033 -2.1063
 8140SOL    HW224821   1.821   1.682   4.432 -2.3336 -0.1872  2.2992
 8141SOL     OW24822   4.063   4.396   0.833  0.3867 -0.4072 -0.8979
 8141SOL    HW124823   4.013   4.456   0.778 -0.6889 -2.1757 -1.9268
 8141SOL    HW224824   4.061   4.436   0.921 -2.4757 -0.1961 -0.9865
 8142SOL     OW24825   2.982   5.213   0.708  0.3766 -0.0941  0.0205
 8142SOL    HW124826   2.970   5.208   0.803  3.2665  0.7826  0.5305
 8142SOL    HW224827   2.933   5.138   0.674 -0.2971 -0.7506  2.2447
 8143SOL     OW24828   2.167   0.636   2.602  0.1584 -0.0054  0.1563
 8143SOL    HW124829   2.186   0.583   2.680  0.1969  1.0338  0.8677
 8143SOL    HW224830   2.184   0.576   2.528 -1.6883 -1.5964  0.9368
 8144SOL     OW24831   3.725   2.149   1.627  0.2928  0.3294 -0.7320
 8144SOL    HW124832   3.737   2.244   1.624  1.4459  0.2496  0.5926
 8144SOL    HW224833   3.804   2.115   1.669 -2.4707 -0.6293  4.5130
 8145SOL     OW24834   0.696   3.088   5.622 -0.2597 -0.9538  0.4120
 8145SOL    HW124835   0.731   3.136   5.546 -0.3266 -2.0718 -0.3507
 8145SOL    HW224836   0.673   3.002   5.587 -1.9913 -0.9042  1.3177
 8146SOL     OW24837   0.604   0.539   2.846  0.1268 -0.3970 -0.0585
 8146SOL    HW124838   0.625   0.547   2.753  0.0478 -3.1043 -0.4039
 8146SOL    HW224839   0.544   0.612   2.864  0.0482  0.1210 -2.1512
 8147SOL     OW24840   5.894   0.270   4.503  0.0219  0.2743 -0.2553
 8147SOL    HW124841   5.882   0.221   4.585 -1.3986 -1.0656 -1.2129
 8147SOL    HW224842   5.860   0.357   4.522 -0.2132  0.0030  0.6076
 8148SOL     OW24843   6.234   2.218   3.669 -0.1903  0.4335 -0.2801
 8148SOL    HW124844   6.273   2.178   3.591  0.7198  2.1332 -0.7538
 8148SOL    HW224845   6.288   2.188   3.742 -0.1372  0.0257 -0.4849
 8149SOL     OW24846   1.704   1.428   5.412  0.3066 -0.0971  0.2903
 8149SOL    HW124847   1.796   1.452   5.415 -0.2379  2.2475 -0.3182
 8149SOL    HW224848   1.668   1.463   5.493 -0.2833  0.0196 -0.0193
 8150SOL     OW24849   2.493   6.502   0.464  0.2163 -0.2154 -0.6362
 8150SOL    HW124850   2.516   6.522   0.555 -0.3986 -2.1911 -0.0014
 8150SOL    HW224851   2.407   6.461   0.469 -0.6716  1.3017 -2.3362
 8151SOL     OW24852   0.927   4.635   5.604  0.4845  0.1026  1.2775
 8151SOL    HW124853   0.971   4.720   5.609  1.6128 -0.4637  1.5411
 8151SOL    HW224854   0.836   4.653   5.625 -0.1486  1.8253 -2.2796
 8152SOL     OW24855   4.469   6.195   0.815  0.0270 -0.0195  0.4864
 8152SOL    HW124856   4.418   6.185   0.734 -1.4799 -0.9075  1.4820
 8152SOL    HW224857   4.537   6.128   0.808 -1.5972 -1.8291  0.9683
 8153SOL     OW24858   2.243   5.829   1.379 -0.4265 -0.5269 -0.0863
 8153SOL    HW124859   2.170   5.788   1.425 -1.5279  1.1503 -0.2779
 8153SOL    HW224860   2.205   5.862   1.298  0.1465  1.8124  0.5389
 8154SOL     OW24861   4.469   5.956   4.730  0.4915  0.3136  0.2215
 8154SOL    HW124862   4.379   5.926   4.716  1.0138 -1.3454  0.2161
 8154SOL    HW224863   4.491   5.926   4.818  0.6384  1.8571  0.7523
 8155SOL     OW24864   5.390   0.539   0.433  0.3779  0.3717  0.3362
 8155SOL    HW124865   5.366   0.507   0.346  1.7448  0.2406 -0.0127
 8155SOL    HW224866   5.328   0.609   0.450  0.4045  0.7459 -0.9684
 8156SOL     OW24867   5.124   2.189   0.260 -0.3487  0.0719  0.2048
 8156SOL    HW124868   5.120   2.204   0.165 -2.7719 -0.2164  0.2049
 8156SOL    HW224869   5.158   2.271   0.295  1.6586 -0.1881 -0.9299
 8157SOL     OW24870   1.051   2.669   1.997 -0.7246 -0.1965 -0.0981
 8157SOL    HW124871   1.024   2.578   2.005 -0.1019 -0.4968 -1.1660
 8157SOL    HW224872   1.097   2.673   1.913 -0.8267  1.1231 -0.1138
 8158SOL     OW24873   3.379   4.830   1.367  0.0886 -0.2021  0.1416
 8158SOL    HW124874   3.357   4.738   1.386 -2.9877  0.5537  0.7747
 8158SOL    HW224875   3.338   4.847   1.283  0.5191  0.6416  0.0996
 8159SOL     OW24876   3.816   3.420   6.451  0.0369  0.3186 -0.2543
 8159SOL    HW124877   3.847   3.511   6.451 -1.0827  0.7339 -1.3064
 8159SOL    HW224878   3.720   3.428   6.450 -0.1533 -0.9056  1.8339
 8160SOL     OW24879   4.523   2.769   5.496 -0.3640  0.7583 -0.1540
 8160SOL    HW124880   4.549   2.769   5.588 -0.4643  1.4460 -0.1216
 8160SOL    HW224881   4.427   2.771   5.498 -0.4113 -0.4953 -0.2780
 8161SOL     OW24882   4.887   2.698   4.074  0.1622  0.2157 -1.0857
 8161SOL    HW124883   4.871   2.675   4.166  0.4718  0.7198 -0.9058
 8161SOL    HW224884   4.901   2.792   4.074 -0.7517  0.3658 -1.7851
 8162SOL     OW24885   3.647   4.273   6.744  0.4492  0.8621 -0.1399
 8162SOL    HW124886   3.667   4.262   6.837 -2.6279 -1.5877  0.4172
 8162SOL    HW224887   3.651   4.367   6.729  1.0423  1.3232  2.4372
 8163SOL     OW24888   4.733   5.869   2.839  0.2911  0.0488 -0.0927
 8163SOL    HW124889   4.702   5.894   2.752  0.0238  2.4146  0.6044
 8163SOL    HW224890   4.829   5.870   2.832  0.2695  0.2311 -0.3766
 8164SOL     OW24891   2.184   6.197   5.056  0.4993 -0.0796 -0.0738
 8164SOL    HW124892   2.231   6.113   5.064  0.7652  0.0441 -0.3169
 8164SOL    HW224893   2.226   6.240   4.982 -0.3543 -0.1897 -0.6312
 8165SOL     OW24894   2.689   3.143   5.607  0.4867  0.9947  0.2312
 8165SOL    HW124895   2.710   3.225   5.650 -0.6549  0.3885  2.0667
 8165SOL    HW224896   2.640   3.168   5.528 -0.8086  2.0704  1.3364
 8166SOL     OW24897   6.752   6.735   0.364 -0.4587 -0.0361  0.5777
 8166SOL    HW124898   6.695   6.695   0.430  2.0992 -1.6280  2.0121
 8166SOL    HW224899   6.804   6.799   0.413  1.3124 -1.0669  0.1460
 8167SOL     OW24900   3.392   1.365   5.195  0.3456  0.0947 -0.1373
 8167SOL    HW124901   3.385   1.374   5.100  3.9347  0.4718 -0.4746
 8167SOL    HW224902   3.405   1.454   5.227 -0.0747 -0.1172  0.6656
 8168SOL     OW24903   0.480   2.141   0.648 -0.5185 -0.4063  0.5379
 8168SOL    HW124904   0.488   2.167   0.556 -0.1667  2.3431  1.2855
 8168SOL    HW224905   0.543   2.195   0.695  0.2962 -2.6912  2.3116
 8169SOL     OW24906   0.344   0.560   4.955 -0.0042  0.4842  0.3034
 8169SOL    HW124907   0.313   0.473   4.982  2.5842 -0.9771 -1.0653
 8169SOL    HW224908   0.281   0.587   4.888  0.3658 -1.4008 -0.8812
 8170SOL     OW24909   0.807   0.889   2.489  0.3124  0.3510  0.4851
 8170SOL    HW124910   0.857   0.897   2.407 -0.9942  0.2378 -0.3467
 8170SOL    HW224911   0.858   0.939   2.552  2.3217 -1.0789  0.0862
 8171SOL     OW24912   0.051   2.940   3.966  1.2025  0.7825 -0.1913
 8171SOL    HW124913   0.090   2.856   3.990  0.6870 -0.6886 -3.9355
 8171SOL    HW224914  -0.024   2.948   4.025  1.7118 -0.9625  0.7848
 8172SOL     OW24915   1.534   1.662   2.311 -0.2468  0.0270 -0.1131
 8172SOL    HW124916   1.566   1.585   2.264  2.8348  0.9459  0.2453
 8172SOL    HW224917   1.573   1.736   2.266 -1.0817  1.2346  1.0654
 8173SOL     OW24918   3.378   4.597   0.911 -0.3254  0.1439  0.7397
 8173SOL    HW124919   3.462   4.591   0.957 -1.0825 -1.6201  2.0023
 8173SOL    HW224920   3.401   4.621   0.821  1.6578 -1.5188  0.7408
 8174SOL     OW24921   0.742   6.264   2.244  0.7921  0.2779 -0.1976
 8174SOL    HW124922   0.687   6.342   2.251  0.2332 -0.0785 -0.5587
 8174SOL    HW224923   0.751   6.250   2.149  0.3941 -0.4436 -0.1340
 8175SOL     OW24924   6.233   4.013   0.605  0.2114 -0.3611 -0.2656
 8175SOL    HW124925   6.286   4.075   0.556 -1.8563  1.1613 -0.7361
 8175SOL    HW224926   6.241   4.041   0.696 -0.8615  0.7919 -0.4965
 8176SOL     OW24927   2.045   0.378   4.060  0.1780  0.5494 -0.1659
 8176SOL    HW124928   2.083   0.371   3.973  0.2565  0.5939 -0.1358
 8176SOL    HW224929   2.050   0.472   4.081  0.3434  0.5125 -0.0331
 8177SOL     OW24930   4.012   0.864   2.464  0.2285 -0.0376  0.5257
 8177SOL    HW124931   3.949   0.886   2.533  1.4272 -0.7778  1.9088
 8177SOL    HW224932   4.065   0.793   2.501  0.8266 -0.5581 -1.2238
 8178SOL     OW24933   6.590   2.482   2.635  0.0687 -0.2451 -0.6191
 8178SOL    HW124934   6.654   2.553   2.639  0.5374 -0.6770 -0.1448
 8178SOL    HW224935   6.616   2.423   2.706 -1.5102  0.0959  0.2845
 8179SOL     OW24936   1.413   1.229   6.183 -0.0903 -0.4863 -0.1622
 8179SOL    HW124937   1.377   1.283   6.113 -1.8907  0.5266  1.4303
 8179SOL    HW224938   1.507   1.246   6.181 -0.2484  0.3903 -1.5697
 8180SOL     OW24939   2.570   4.878   1.885 -0.3114 -0.6476 -0.0544
 8180SOL    HW124940   2.527   4.794   1.869  0.4267 -1.1549  0.5271
 8180SOL    HW224941   2.509   4.943   1.852 -0.9554 -1.4054 -0.4008
 8181SOL     OW24942   0.334   3.503   3.407  0.4684  0.1505  0.1507
 8181SOL    HW124943   0.389   3.445   3.460 -0.8272 -0.7154  0.5990
 8181SOL    HW224944   0.255   3.516   3.460 -0.2760  0.3823 -0.9853
 8182SOL     OW24945   1.644   1.772   3.264 -0.5686  0.5098 -0.2277
 8182SOL    HW124946   1.668   1.864   3.257 -0.1078  0.3422 -0.9055
 8182SOL    HW224947   1.559   1.772   3.310 -2.4265  1.5187 -3.3668
 8183SOL     OW24948   4.601   1.713   1.685  0.1673 -0.2366 -0.2908
 8183SOL    HW124949   4.533   1.778   1.667  0.9564  0.8088  0.3910
 8183SOL    HW224950   4.646   1.701   1.602  1.2500  1.5648 -0.0062
 8184SOL     OW24951   4.189   1.657   2.901  0.3484  0.8902 -0.8061
 8184SOL    HW124952   4.141   1.721   2.954 -0.4702  1.3122 -2.0240
 8184SOL    HW224953   4.237   1.710   2.838  1.2515  0.3857 -0.5606
 8185SOL     OW24954   3.538   1.688   0.524 -0.1279 -0.0483 -0.4895
 8185SOL    HW124955   3.505   1.602   0.496  1.6617 -1.1013  0.4022
 8185SOL    HW224956   3.488   1.709   0.602 -0.0663 -0.6779 -0.2702
 8186SOL     OW24957   2.963   1.612   4.464 -0.4321  1.2018  0.3778
 8186SOL    HW124958   2.905   1.571   4.400 -0.3993 -1.6690  2.0264
 8186SOL    HW224959   3.048   1.615   4.420 -0.3829 -0.8318  0.2498
 8187SOL     OW24960   4.385   4.481   5.805 -0.5543  0.5195 -0.1390
 8187SOL    HW124961   4.388   4.416   5.735 -1.8446 -1.3682  1.4451
 8187SOL    HW224962   4.293   4.508   5.808 -0.1436  1.9961 -0.3711
 8188SOL     OW24963   3.958   2.926   0.026  0.1378 -0.1903  0.0324
 8188SOL    HW124964   3.932   2.869   0.099  0.2711  0.8903  0.9435
 8188SOL    HW224965   3.887   2.917  -0.038 -0.9653  0.3482  1.1510
 8189SOL     OW24966   0.269   0.603   2.887  0.1676  0.0534  0.5258
 8189SOL    HW124967   0.291   0.584   2.796 -1.4531  0.3595  0.0466
 8189SOL    HW224968   0.328   0.675   2.910  1.7209 -1.0614  0.2764
 8190SOL     OW24969   1.423   2.265   2.547 -0.2037  0.2296 -0.1098
 8190SOL    HW124970   1.353   2.205   2.572  0.3387 -0.2338  0.3329
 8190SOL    HW224971   1.383   2.352   2.552 -1.0727 -0.1061 -1.0245
 8191SOL     OW24972   4.973   1.135   1.948 -0.0360  0.2302 -0.4236
 8191SOL    HW124973   4.953   1.104   2.036  0.2264  1.1694 -0.0108
 8191SOL    HW224974   4.908   1.203   1.931  0.0019  0.1532 -0.8958
 8192SOL     OW24975   6.335   5.097   6.173 -0.2647  0.1662  0.2590
 8192SOL    HW124976   6.298   5.083   6.261 -1.6608  0.8936 -0.1802
 8192SOL    HW224977   6.361   5.189   6.173  1.6803 -0.3321  0.5660
 8193SOL     OW24978   5.407   6.582   1.020  0.3540 -0.2297 -0.0205
 8193SOL    HW124979   5.496   6.573   1.054 -0.8191 -4.2060  2.7130
 8193SOL    HW224980   5.400   6.516   0.952 -0.1435  1.1035 -1.3138
 8194SOL     OW24981   3.289   3.750   5.662  0.4157  0.4793 -0.2984
 8194SOL    HW124982   3.256   3.821   5.607 -1.7540  0.0525  0.3500
 8194SOL    HW224983   3.320   3.684   5.600 -0.1805  0.8070 -0.9641
 8195SOL     OW24984   2.675   2.388   0.486  0.3845  0.2756  0.1560
 8195SOL    HW124985   2.694   2.294   0.496  1.1658  0.3282 -0.7372
 8195SOL    HW224986   2.740   2.419   0.423 -0.4238  1.2316 -0.2355
 8196SOL     OW24987   2.035   2.064   5.116 -0.3817  0.2499 -0.2623
 8196SOL    HW124988   2.012   2.003   5.045  0.1185 -1.5467  1.0359
 8196SOL    HW224989   2.105   2.019   5.163 -2.7601 -0.1394  3.2623
 8197SOL     OW24990   1.612   5.815   1.292 -0.1451  0.6084  0.5841
 8197SOL    HW124991   1.668   5.759   1.346  0.1562  2.3415  2.2064
 8197SOL    HW224992   1.670   5.850   1.225  0.0334  0.1970  0.5227
 8198SOL     OW24993   0.381   3.059   5.701  0.3759  0.5542  0.4170
 8198SOL    HW124994   0.416   3.148   5.697 -1.3264  1.5179  3.5299
 8198SOL    HW224995   0.432   3.016   5.770 -0.4966 -0.0228  0.7224
 8199SOL     OW24996   0.788   2.974   1.406  0.5779 -0.2815 -0.7387
 8199SOL    HW124997   0.778   3.069   1.398 -0.1502 -0.3095 -0.2917
 8199SOL    HW224998   0.704   2.945   1.442  1.7522 -0.7635  1.7603
 8200SOL     OW24999   2.943   3.503   4.034 -0.2113  0.4925 -0.2236
 8200SOL    HW125000   2.936   3.597   4.047 -0.7311  0.6329 -1.3796
 8200SOL    HW225001   2.861   3.468   4.067  0.8753  0.1457  2.3351
 8201SOL     OW25002   1.138   1.160   3.566 -0.0233  0.3177  0.5968
 8201SOL    HW125003   1.186   1.239   3.590 -1.3814  1.3407  0.0746
 8201SOL    HW225004   1.053   1.169   3.608 -0.6241 -0.2817 -0.4343
 8202SOL     OW25005   2.833   0.858   5.315  0.0629 -0.1958 -0.4954
 8202SOL    HW125006   2.740   0.880   5.303 -0.1140 -0.0784  0.9739
 8202SOL    HW225007   2.880   0.929   5.272 -0.5267  0.1505 -0.5781
 8203SOL     OW25008   5.969   2.329   3.392  0.2805  0.0114 -0.4181
 8203SOL    HW125009   5.961   2.352   3.485  0.5048 -0.4336 -0.2894
 8203SOL    HW225010   6.047   2.375   3.362  0.9108 -0.8045 -0.0822
 8204SOL     OW25011   2.675   1.699   0.972 -0.0494 -0.0961  0.1053
 8204SOL    HW125012   2.624   1.776   0.946  2.0364  0.8372 -1.5351
 8204SOL    HW225013   2.688   1.650   0.890  0.3313 -1.1558  0.7752
 8205SOL     OW25014   2.491   6.750   4.878 -0.1859 -0.2184  0.1183
 8205SOL    HW125015   2.582   6.747   4.907 -0.4960 -2.9439  1.1198
 8205SOL    HW225016   2.446   6.801   4.946  0.1797 -1.0918  1.0362
 8206SOL     OW25017   1.607   3.450   6.570  0.0830  0.4727 -0.2343
 8206SOL    HW125018   1.514   3.470   6.556  0.2469  0.8469 -0.8074
 8206SOL    HW225019   1.653   3.496   6.500  0.8490  1.5561  0.9302
 8207SOL     OW25020   6.747   4.048   1.022  0.6714 -0.7318 -0.3929
 8207SOL    HW125021   6.842   4.043   1.033  0.6913 -0.0188 -0.1920
 8207SOL    HW225022   6.712   3.998   1.096  0.8875 -2.5879 -1.4681
 8208SOL     OW25023   2.759   3.956   1.504  0.4063  0.2590  0.4337
 8208SOL    HW125024   2.748   3.890   1.572 -0.9960  1.4935  1.4809
 8208SOL    HW225025   2.844   3.995   1.521  0.9610 -0.8080  0.2003
 8209SOL     OW25026   0.304   2.755   2.248  0.7795 -0.8134 -0.3779
 8209SOL    HW125027   0.396   2.743   2.226  1.0090  1.4081 -0.8523
 8209SOL    HW225028   0.304   2.823   2.316 -0.5224 -0.4382 -0.7288
 8210SOL     OW25029   5.167   2.317   4.017  0.3513  0.1500 -0.4347
 8210SOL    HW125030   5.207   2.334   3.932  0.5948  1.4977 -0.0748
 8210SOL    HW225031   5.082   2.361   4.013  1.2011  2.0185  0.6980
 8211SOL     OW25032   4.339   5.515   6.605  0.0071  0.5324 -0.2585
 8211SOL    HW125033   4.422   5.471   6.588  0.0710  0.7171 -0.4311
 8211SOL    HW225034   4.301   5.468   6.680 -0.2401 -0.2435 -0.8599
 8212SOL     OW25035   4.536   0.163   4.230 -0.6625  0.7227 -0.0121
 8212SOL    HW125036   4.469   0.161   4.162 -0.2274 -0.6071 -0.4276
 8212SOL    HW225037   4.493   0.127   4.308 -0.4240 -0.2155 -0.3028
 8213SOL     OW25038   4.734   5.601   1.119 -0.9586 -0.0874 -0.2213
 8213SOL    HW125039   4.780   5.681   1.094 -0.9738 -0.2907 -0.8988
 8213SOL    HW225040   4.682   5.578   1.043 -1.9149 -0.0644  0.4076
 8214SOL     OW25041   2.291   4.581   5.439  0.4134  0.3762 -0.1606
 8214SOL    HW125042   2.318   4.530   5.515 -0.3803 -0.2214 -0.2630
 8214SOL    HW225043   2.334   4.539   5.364 -2.3383 -1.9149 -0.6018
 8215SOL     OW25044   1.346   2.638   5.287 -0.1637  0.5520 -0.4227
 8215SOL    HW125045   1.301   2.706   5.337 -2.0290  0.0432 -1.3283
 8215SOL    HW225046   1.385   2.685   5.213 -0.9143  0.7199 -0.7132
 8216SOL     OW25047   4.569   4.037   4.005  0.2021 -0.0490 -0.6593
 8216SOL    HW125048   4.476   4.023   4.023  0.8829 -3.0929  1.2658
 8216SOL    HW225049   4.576   4.034   3.910 -1.6975  0.9236 -0.8833
 8217SOL     OW25050   3.889   2.865   6.371 -0.4151  0.8132  0.0234
 8217SOL    HW125051   3.832   2.939   6.349 -2.1332 -0.2780  0.5752
 8217SOL    HW225052   3.909   2.877   6.464 -1.7014  0.0030  0.4392
 8218SOL     OW25053   5.581   1.924   4.493  0.3495 -0.1830 -0.2926
 8218SOL    HW125054   5.560   1.964   4.409  0.8483  1.5758  0.3838
 8218SOL    HW225055   5.496   1.915   4.538  0.2212 -0.0132 -0.5024
 8219SOL     OW25056   5.650   0.724   3.562  0.0105  0.2064 -0.0405
 8219SOL    HW125057   5.647   0.817   3.538 -0.6085  0.1855 -0.0642
 8219SOL    HW225058   5.577   0.685   3.513  1.9384 -0.8422 -2.3110
 8220SOL     OW25059   1.742   2.477   3.140  0.1754 -0.0622  0.4652
 8220SOL    HW125060   1.694   2.396   3.156  0.1989 -0.1758 -0.0211
 8220SOL    HW225061   1.680   2.533   3.093  0.3528 -0.0264  0.2689
 8221SOL     OW25062   3.862   4.195   1.271  0.2672 -0.1553  0.1077
 8221SOL    HW125063   3.772   4.203   1.301  0.5097 -3.6918  2.3415
 8221SOL    HW225064   3.855   4.156   1.184 -0.2750  4.1180 -2.0275
 8222SOL     OW25065   6.188   3.462   3.384  0.0413 -0.5697 -0.0914
 8222SOL    HW125066   6.224   3.446   3.471 -1.1351  0.3721  0.5858
 8222SOL    HW225067   6.221   3.548   3.359 -0.0202 -0.6264 -0.3827
 8223SOL     OW25068   0.402   4.370   1.206 -0.2976  0.2240 -0.5070
 8223SOL    HW125069   0.308   4.372   1.189 -0.5129 -0.0159  0.6010
 8223SOL    HW225070   0.432   4.287   1.168 -0.7779 -0.3321  0.3042
 8224SOL     OW25071   6.504   3.718   2.245 -0.0384  0.4518  0.3306
 8224SOL    HW125072   6.414   3.689   2.228  0.2587 -0.1740 -0.2158
 8224SOL    HW225073   6.558   3.660   2.191  0.6969  0.7812  0.7088
 8225SOL     OW25074   5.100   3.030   3.986 -0.6159 -0.5443 -0.0124
 8225SOL    HW125075   5.027   3.008   4.044 -0.4413  0.3744  0.5853
 8225SOL    HW225076   5.067   3.102   3.932 -0.1758 -0.1393  0.2437
 8226SOL     OW25077   4.727   2.807   0.994 -0.8557 -0.0834 -0.1150
 8226SOL    HW125078   4.786   2.854   0.935 -0.5039  0.6510  0.8034
 8226SOL    HW225079   4.735   2.715   0.967 -0.3144  0.1766 -0.8740
 8227SOL     OW25080   2.222   3.704   5.007 -0.0096  0.2537  0.4160
 8227SOL    HW125081   2.272   3.714   4.926 -1.5188 -1.6183 -0.8398
 8227SOL    HW225082   2.172   3.786   5.014  0.7451  0.7699 -0.0959
 8228SOL     OW25083   1.502   3.177   6.280  0.1762  0.2884  0.3570
 8228SOL    HW125084   1.461   3.197   6.364  1.7721 -1.1197  1.5359
 8228SOL    HW225085   1.450   3.105   6.244  0.6132 -0.3931  1.0656
 8229SOL     OW25086   2.824   6.379   1.219 -0.0802 -0.3457  0.1561
 8229SOL    HW125087   2.840   6.286   1.238 -1.2769 -0.2617  1.7640
 8229SOL    HW225088   2.840   6.423   1.302 -1.6968  0.5849  0.0123
 8230SOL     OW25089   2.113   4.076   2.061  0.4467  0.0936  0.1596
 8230SOL    HW125090   2.029   4.110   2.030  0.5518  1.2849  1.1236
 8230SOL    HW225091   2.089   4.019   2.135  0.4908  0.4676  0.4619
 8231SOL     OW25092   6.687   3.903   1.259 -0.0233 -0.5424  0.2436
 8231SOL    HW125093   6.724   3.967   1.320  3.8228 -1.4783 -0.8029
 8231SOL    HW225094   6.657   3.831   1.315  0.3078  0.0470  1.2014
 8232SOL     OW25095   5.275   1.534   4.754  0.0617  0.5079  0.2534
 8232SOL    HW125096   5.199   1.488   4.791  0.1432  0.7529  0.7348
 8232SOL    HW225097   5.244   1.624   4.740 -0.3217  0.1598 -1.3624
 8233SOL     OW25098   3.861   1.675   2.961  0.6803 -0.0747 -0.2829
 8233SOL    HW125099   3.796   1.711   2.900  0.3258  0.6268  0.4980
 8233SOL    HW225100   3.942   1.720   2.940  0.7406 -0.3781 -0.7267
 8234SOL     OW25101   2.030   4.638   2.836 -0.5784 -1.0154  0.1713
 8234SOL    HW125102   2.014   4.698   2.909 -0.6511 -0.9448  0.0977
 8234SOL    HW225103   1.955   4.579   2.837 -0.2557 -1.4357  0.5665
 8235SOL     OW25104   1.214   3.700   4.375 -0.6731  0.0340 -0.2521
 8235SOL    HW125105   1.264   3.654   4.308  1.3958 -0.6589  1.6629
 8235SOL    HW225106   1.277   3.759   4.416 -0.9851 -1.6156  2.9488
 8236SOL     OW25107   1.450   0.594   0.216 -0.0479 -0.1179 -0.3051
 8236SOL    HW125108   1.441   0.689   0.222 -3.7315 -0.3911  1.3843
 8236SOL    HW225109   1.396   0.569   0.141  3.7834 -0.8271 -3.1498
 8237SOL     OW25110   0.356   2.837   6.642 -0.5733 -0.2688 -0.0504
 8237SOL    HW125111   0.299   2.832   6.566  0.8722 -1.2188 -1.1215
 8237SOL    HW225112   0.379   2.745   6.660 -0.5713 -0.0284  1.2932
 8238SOL     OW25113   2.741   1.499   3.937  0.5145 -0.3037 -0.2175
 8238SOL    HW125114   2.694   1.575   3.971  1.4819 -0.1024  0.7122
 8238SOL    HW225115   2.723   1.429   3.999  0.3980 -0.5745 -0.5552
 8239SOL     OW25116   4.280   4.909   0.614 -0.0605  0.5298  0.1060
 8239SOL    HW125117   4.316   4.937   0.531 -0.0137  0.2075  0.0173
 8239SOL    HW225118   4.333   4.954   0.680 -0.0295  0.6999 -0.0350
 8240SOL     OW25119   2.648   0.801   6.415  0.4886  0.9364 -0.1210
 8240SOL    HW125120   2.678   0.741   6.347  1.4520  1.3480 -0.0712
 8240SOL    HW225121   2.646   0.748   6.495 -0.2438  0.5608 -0.3802
 8241SOL     OW25122   1.473   4.697   6.076  0.1274  0.5108 -0.0037
 8241SOL    HW125123   1.469   4.605   6.100  1.0989  0.5963  0.5594
 8241SOL    HW225124   1.557   4.727   6.112 -0.5189  1.7954  0.4961
 8242SOL     OW25125   1.465   1.243   5.674 -0.0516 -0.1438 -0.4585
 8242SOL    HW125126   1.449   1.332   5.644  1.4101  0.5785  0.7503
 8242SOL    HW225127   1.459   1.248   5.769 -0.8831 -1.5546 -0.4127
 8243SOL     OW25128   0.325   3.955   2.750  0.1526 -0.2639  0.7639
 8243SOL    HW125129   0.287   3.935   2.664  1.2236 -2.7832  0.7767
 8243SOL    HW225130   0.362   4.042   2.741  0.2536 -0.4778 -1.3560
 8244SOL     OW25131   0.495   5.372   5.595 -0.5774 -0.7681 -0.1588
 8244SOL    HW125132   0.532   5.451   5.635 -1.8314 -0.3718  0.2796
 8244SOL    HW225133   0.513   5.303   5.658 -1.7645 -0.3102  0.7333
 8245SOL     OW25134   0.989   1.958   0.026 -0.2047 -0.0096 -0.2284
 8245SOL    HW125135   0.922   2.010   0.070 -1.1850 -1.2541 -0.2048
 8245SOL    HW225136   0.984   1.987  -0.066 -1.1709 -0.4681 -0.3357
 8246SOL     OW25137   5.584   5.626   1.188 -0.0760  0.6898 -0.2604
 8246SOL    HW125138   5.649   5.648   1.255  0.4096  1.7777 -1.0690
 8246SOL    HW225139   5.593   5.695   1.122 -1.5006  0.4110 -0.7765
 8247SOL     OW25140   5.833   6.624   2.751  0.2497  0.1394  0.0889
 8247SOL    HW125141   5.904   6.560   2.748 -1.5678 -1.9671 -1.3835
 8247SOL    HW225142   5.831   6.661   2.662 -2.2598 -2.0179 -0.8595
 8248SOL     OW25143   3.207   4.854   5.509 -0.0794 -0.6684 -0.0485
 8248SOL    HW125144   3.292   4.894   5.525  0.1803 -0.9936 -0.5820
 8248SOL    HW225145   3.144   4.922   5.531  0.3543  0.0312 -0.9034
 8249SOL     OW25146   4.533   3.440   4.556 -0.1491  1.2074 -0.6269
 8249SOL    HW125147   4.480   3.392   4.619  0.1754  0.2415 -1.0742
 8249SOL    HW225148   4.482   3.519   4.537 -0.5631  1.1838  0.3208
 8250SOL     OW25149   2.824   6.209   4.668  0.1760  0.6710  0.1820
 8250SOL    HW125150   2.824   6.130   4.613  0.4720  0.1261  0.9399
 8250SOL    HW225151   2.917   6.231   4.676  0.4759 -1.1016  2.9848
 8251SOL     OW25152   3.641   4.632   2.027  0.0232 -0.0968  0.5132
 8251SOL    HW125153   3.713   4.693   2.013 -0.5979  0.1193 -2.0813
 8251SOL    HW225154   3.664   4.555   1.975 -1.4963 -0.1150 -0.1720
 8252SOL     OW25155   3.442   1.171   6.323 -0.0094 -0.2224  0.1413
 8252SOL    HW125156   3.396   1.109   6.380  0.3216 -0.2617  0.3651
 8252SOL    HW225157   3.408   1.151   6.235  0.6028 -1.2024  0.1098
 8253SOL     OW25158   3.922   2.050   6.550  0.0307  0.1766 -0.8287
 8253SOL    HW125159   3.999   2.049   6.606 -0.6430 -1.8696  0.1857
 8253SOL    HW225160   3.849   2.040   6.611 -0.7586 -1.8113 -2.0236
 8254SOL     OW25161   6.469   6.583   5.122  0.2118 -0.6350  0.5363
 8254SOL    HW125162   6.503   6.616   5.039  2.2772 -1.6529  0.9120
 8254SOL    HW225163   6.384   6.625   5.131  1.5906  2.6406 -0.1807
 8255SOL     OW25164   1.728   5.459   0.835  0.0868  0.0497  0.1462
 8255SOL    HW125165   1.662   5.392   0.813 -0.2767  0.2160  0.7069
 8255SOL    HW225166   1.747   5.502   0.752 -1.7406  1.1036  0.2197
 8256SOL     OW25167   3.511   5.693   4.521  0.0651 -0.5114 -0.0643
 8256SOL    HW125168   3.496   5.762   4.457 -0.0801  0.9537  1.4967
 8256SOL    HW225169   3.606   5.688   4.528  0.0683 -0.0519  0.2477
 8257SOL     OW25170   0.873   0.751   6.416  0.9010 -0.0226 -0.1356
 8257SOL    HW125171   0.832   0.687   6.474  0.7118 -0.2918 -0.5617
 8257SOL    HW225172   0.958   0.715   6.395  1.1009  0.2289  0.2286
 8258SOL     OW25173   1.409   4.378   2.317  0.0231 -0.0717 -0.1309
 8258SOL    HW125174   1.485   4.436   2.318 -0.1286  0.1736 -1.3363
 8258SOL    HW225175   1.362   4.400   2.397  0.5708  0.6696  0.0015
 8259SOL     OW25176   5.515   0.326   0.982  0.0045  0.8353  0.6849
 8259SOL    HW125177   5.567   0.403   0.960  0.0142  0.4723 -0.6684
 8259SOL    HW225178   5.437   0.360   1.024  0.2460  1.5527  0.5568
 8260SOL     OW25179   4.009   1.032   5.999  0.3857 -0.1521  0.6465
 8260SOL    HW125180   3.926   1.004   6.039 -0.4515  1.9260  0.4854
 8260SOL    HW225181   3.983   1.084   5.924  1.8653  0.2050  0.3517
 8261SOL     OW25182   6.488   2.166   0.359  0.1964  0.2381  0.2637
 8261SOL    HW125183   6.501   2.241   0.301 -2.0601  1.2248  0.9172
 8261SOL    HW225184   6.532   2.094   0.315  0.4331  1.4396 -1.5823
 8262SOL     OW25185   3.637   6.776   1.775  0.1593  0.1461  0.2514
 8262SOL    HW125186   3.716   6.725   1.793  0.9980  1.6981  1.1371
 8262SOL    HW225187   3.602   6.737   1.695  1.3272 -1.1507  0.3349
 8263SOL     OW25188   5.863   0.897   4.606 -0.8532 -0.4903 -0.4079
 8263SOL    HW125189   5.872   0.867   4.515 -3.2734  0.7714 -1.1479
 8263SOL    HW225190   5.816   0.980   4.598  1.8502  1.4142  1.8044
 8264SOL     OW25191   2.116   0.531   5.811 -0.5923 -0.5725  0.1716
 8264SOL    HW125192   2.065   0.589   5.868  1.3877  2.2973 -0.7451
 8264SOL    HW225193   2.074   0.537   5.726 -1.5514 -2.1566  0.5025
 8265SOL     OW25194   2.676   1.614   5.613  0.0603 -0.1251  0.0515
 8265SOL    HW125195   2.699   1.573   5.697 -1.1162  0.4834  0.6951
 8265SOL    HW225196   2.689   1.708   5.629 -0.8695  0.0567 -0.2044
 8266SOL     OW25197   2.404   4.029   3.046 -0.1074  0.0347  0.0193
 8266SOL    HW125198   2.492   4.045   3.012  0.0729 -0.1639  0.3827
 8266SOL    HW225199   2.419   3.993   3.133 -0.5466 -0.3016 -0.0434
 8267SOL     OW25200   4.542   3.770   0.623 -0.1948  0.5824 -0.1794
 8267SOL    HW125201   4.504   3.745   0.707 -1.8649  0.0642 -1.0368
 8267SOL    HW225202   4.591   3.850   0.642  0.9865 -0.5164  1.6152
 8268SOL     OW25203   3.315   6.230   3.679 -0.1264 -0.1323  0.0653
 8268SOL    HW125204   3.290   6.137   3.680  0.6071 -0.3516  1.8208
 8268SOL    HW225205   3.268   6.266   3.604 -0.5535 -1.8822 -0.5698
 8269SOL     OW25206   6.085   4.701   0.023 -0.1408 -0.2964 -0.0556
 8269SOL    HW125207   6.163   4.673  -0.025 -0.4233 -0.5368 -0.3819
 8269SOL    HW225208   6.104   4.681   0.114  0.3249 -0.0166 -0.0870
 8270SOL     OW25209   3.909   0.274   4.618 -0.3830  0.3740 -0.9043
 8270SOL    HW125210   3.852   0.222   4.561  0.4834 -2.6214  0.7403
 8270SOL    HW225211   3.998   0.252   4.590  0.0249  0.4587  0.2637
 8271SOL     OW25212   6.184   0.144   5.347  0.4367  0.2489 -0.0737
 8271SOL    HW125213   6.268   0.176   5.315  0.4990  0.5567  0.3880
 8271SOL    HW225214   6.205   0.066   5.398  0.3825  0.0025 -0.4271
 8272SOL     OW25215   1.493   6.603   2.520  0.3245  0.3121  0.1494
 8272SOL    HW125216   1.497   6.609   2.615 -0.6733  0.9313  0.1671
 8272SOL    HW225217   1.499   6.509   2.501  1.6603  0.2528  0.7420
 8273SOL     OW25218   3.651   2.651   2.284 -0.1691  0.2304  0.1569
 8273SOL    HW125219   3.623   2.604   2.205  1.5240 -1.2470  0.4028
 8273SOL    HW225220   3.648   2.586   2.353 -0.0547  1.1031  0.9997
 8274SOL     OW25221   4.393   6.710   3.879 -0.2416 -0.2463 -0.2408
 8274SOL    HW125222   4.430   6.644   3.820 -0.3005 -0.8032  0.3225
 8274SOL    HW225223   4.385   6.664   3.963 -2.7437 -0.3336 -0.4520
 8275SOL     OW25224   4.329   2.378   1.512 -0.1444  0.3270 -0.5493
 8275SOL    HW125225   4.406   2.435   1.505 -1.1997  1.6728 -2.0878
 8275SOL    HW225226   4.343   2.309   1.447 -0.2372  0.6220 -0.8918
 8276SOL     OW25227   5.186   5.026   6.732 -0.1251 -0.2163  0.0800
 8276SOL    HW125228   5.135   5.085   6.788  0.8717  0.9156 -0.1619
 8276SOL    HW225229   5.231   4.968   6.793  1.6485  1.5728  0.5705
 8277SOL     OW25230   4.385   0.542   3.072  0.1148  0.3373  0.2674
 8277SOL    HW125231   4.353   0.523   2.984  0.5396  0.3627  0.1071
 8277SOL    HW225232   4.471   0.502   3.077 -0.1872 -0.2629  0.9152
 8278SOL     OW25233   0.843   0.399   0.567 -0.3633  0.2517 -0.8372
 8278SOL    HW125234   0.850   0.442   0.653  3.2436 -1.2319 -0.2091
 8278SOL    HW225235   0.863   0.468   0.504  0.0266  0.7062 -0.2342
 8279SOL     OW25236   3.094   2.374   4.631 -0.3698 -0.4650 -0.1300
 8279SOL    HW125237   3.162   2.439   4.652 -2.3979  1.7704 -0.0024
 8279SOL    HW225238   3.097   2.312   4.703 -0.4721  1.3718  1.5605
 8280SOL     OW25239   6.468   0.508   2.867  0.6631 -0.0972  0.3388
 8280SOL    HW125240   6.413   0.474   2.796  0.4160  0.3274  0.3270
 8280SOL    HW225241   6.437   0.463   2.945  0.8689 -0.4923  0.1982
 8281SOL     OW25242   4.831   5.209   6.427 -0.0808 -0.6732 -0.5269
 8281SOL    HW125243   4.879   5.128   6.408 -0.1903 -0.5591 -1.3098
 8281SOL    HW225244   4.845   5.223   6.521 -0.4418 -1.8447 -0.2878
 8282SOL     OW25245   6.730   5.049   1.875  0.8273  0.3267 -0.4937
 8282SOL    HW125246   6.715   5.143   1.888  1.0469  0.1733  1.0970
 8282SOL    HW225247   6.727   5.012   1.964  0.6024 -1.1924 -1.1130
 8283SOL     OW25248   5.237   0.139   0.802  0.3605  0.2652 -0.0408
 8283SOL    HW125249   5.301   0.158   0.734 -0.6383  1.1895 -0.7657
 8283SOL    HW225250   5.168   0.204   0.789  0.4761  0.9487  2.3365
 8284SOL     OW25251   4.384   5.704   2.047  0.1519 -0.1447  0.0455
 8284SOL    HW125252   4.329   5.656   1.985  0.5602 -1.3295  0.5811
 8284SOL    HW225253   4.472   5.699   2.010  0.4479 -1.1140  0.8629
 8285SOL     OW25254   3.187   3.834   1.616  0.3108 -0.5446 -0.1459
 8285SOL    HW125255   3.164   3.800   1.530 -0.7196  3.3613 -1.6284
 8285SOL    HW225256   3.106   3.829   1.667  0.6181 -1.7848  0.2475
 8286SOL     OW25257   0.059   6.590   5.632 -0.3004 -0.2888  0.0871
 8286SOL    HW125258   0.109   6.616   5.710  0.2693  0.8327 -0.6086
 8286SOL    HW225259   0.034   6.499   5.647  0.8749 -0.4723  1.0301
 8287SOL     OW25260   5.113   3.123   2.609  0.2369  0.1718  0.5426
 8287SOL    HW125261   5.159   3.160   2.685 -1.6537  1.1188  1.2906
 8287SOL    HW225262   5.022   3.151   2.620 -0.1084  0.3451 -2.0891
 8288SOL     OW25263   3.228   2.252   2.047  0.3599  0.3687  0.4462
 8288SOL    HW125264   3.159   2.213   1.993 -0.1137  2.1262 -0.2657
 8288SOL    HW225265   3.307   2.243   1.995  0.1091  1.0248 -0.0670
 8289SOL     OW25266   4.832   3.948   0.691  0.2344  0.1923  0.1648
 8289SOL    HW125267   4.798   3.909   0.771 -0.1284 -0.5762 -0.3487
 8289SOL    HW225268   4.838   3.875   0.629  0.7886  0.7159 -0.4207
 8290SOL     OW25269   0.855   3.337   0.719  0.5425 -0.2807  0.9473
 8290SOL    HW125270   0.807   3.344   0.636  0.7267 -1.8682  0.6875
 8290SOL    HW225271   0.886   3.427   0.735  0.5523  0.0657 -0.7354
 8291SOL     OW25272   4.620   0.804   6.516  0.0940  0.0076  0.2456
 8291SOL    HW125273   4.631   0.716   6.479 -1.4974 -0.3308  0.5302
 8291SOL    HW225274   4.550   0.844   6.464  0.1193  0.7535  0.7639
 8292SOL     OW25275   2.539   4.422   1.692  0.2680 -0.1417  0.2428
 8292SOL    HW125276   2.568   4.332   1.679 -0.7018 -0.1690 -2.3016
 8292SOL    HW225277   2.546   4.462   1.606 -1.6146  1.5069  0.7879
 8293SOL     OW25278   1.891   4.134   0.970  0.4013 -0.2057 -0.3015
 8293SOL    HW125279   1.847   4.170   0.893 -1.1634 -1.1607  0.1058
 8293SOL    HW225280   1.946   4.206   1.002  1.4770  0.0718 -2.5529
 8294SOL     OW25281   3.031   4.174   5.344 -0.0234  0.3792  0.3612
 8294SOL    HW125282   3.103   4.185   5.405  0.2613  0.0619  0.0832
 8294SOL    HW225283   3.068   4.196   5.258 -0.3907  0.7182  0.2849
 8295SOL     OW25284   4.140   1.027   3.207 -0.4355  0.2871 -0.2634
 8295SOL    HW125285   4.196   0.949   3.215  0.0040  0.5752 -0.5558
 8295SOL    HW225286   4.109   1.026   3.117  0.4225  1.0295 -0.5774
 8296SOL     OW25287   2.966   3.181   6.444 -1.0023  0.9988 -0.3393
 8296SOL    HW125288   3.000   3.208   6.529 -0.2866 -1.4707  0.2205
 8296SOL    HW225289   2.876   3.214   6.443  0.1721  4.6590 -0.4355
 8297SOL     OW25290   2.343   0.611   4.385  0.5623 -0.1271  0.0483
 8297SOL    HW125291   2.310   0.639   4.300  0.7924 -0.7377 -0.2466
 8297SOL    HW225292   2.411   0.676   4.407  1.1580 -0.4973 -0.6701
 8298SOL     OW25293   5.496   3.223   1.271  0.6105 -0.3058  0.1007
 8298SOL    HW125294   5.484   3.142   1.322  1.1512 -0.5808 -0.1953
 8298SOL    HW225295   5.591   3.231   1.262  0.5250 -0.3650 -1.0189
 8299SOL     OW25296   4.157   4.815   2.969 -0.3724  0.2467 -0.7731
 8299SOL    HW125297   4.127   4.725   2.960 -0.2683  0.0812  0.4231
 8299SOL    HW225298   4.085   4.868   2.936 -0.9842 -0.2292 -0.2020
 8300SOL     OW25299   2.763   2.855   4.251 -0.3095 -0.5919 -0.4611
 8300SOL    HW125300   2.811   2.822   4.327  0.2849 -0.9817 -1.0021
 8300SOL    HW225301   2.673   2.867   4.283  0.3796  1.4617  0.9758
 8301SOL     OW25302   2.844   0.934   3.652 -0.3371  0.0546 -0.0232
 8301SOL    HW125303   2.866   0.977   3.735 -0.4304 -1.1935  0.6730
 8301SOL    HW225304   2.831   0.842   3.675 -1.4240 -0.1305 -1.2460
 8302SOL     OW25305   2.473   3.434   1.033 -0.2254 -0.0224 -0.1120
 8302SOL    HW125306   2.452   3.440   0.939  0.6462 -1.6635 -0.4538
 8302SOL    HW225307   2.466   3.341   1.053 -0.5705  0.3312  1.5150
 8303SOL     OW25308   0.103   3.423   1.508 -0.4700 -0.0877  0.0757
 8303SOL    HW125309   0.087   3.334   1.539 -0.5720 -0.1385 -0.1224
 8303SOL    HW225310   0.102   3.476   1.587 -1.4531 -0.1145  0.0865
 8304SOL     OW25311   6.312   2.411   0.975 -0.0335  0.2224 -0.2436
 8304SOL    HW125312   6.295   2.371   0.890  1.1495 -0.9635  0.0380
 8304SOL    HW225313   6.358   2.343   1.024  1.7021  1.7956  0.4201
 8305SOL     OW25314   6.197   4.954   3.644 -0.1387  0.5896 -0.0446
 8305SOL    HW125315   6.252   4.961   3.722  0.7471 -0.1323 -0.5753
 8305SOL    HW225316   6.145   5.035   3.644 -1.5427 -0.2226  2.2817
 8306SOL     OW25317   4.561   3.029   5.420  0.5378 -0.1318  0.1005
 8306SOL    HW125318   4.533   2.938   5.427 -0.3031  0.0663 -0.5559
 8306SOL    HW225319   4.527   3.070   5.500  2.2992 -0.7046  1.2215
 8307SOL     OW25320   5.199   4.369   0.451  0.1764 -0.4417  0.1962
 8307SOL    HW125321   5.241   4.346   0.534 -0.1187  1.0904  0.8105
 8307SOL    HW225322   5.188   4.464   0.456  0.0924 -0.3271 -1.5811
 8308SOL     OW25323   5.653   4.934   2.162 -0.3284  0.3049 -0.0241
 8308SOL    HW125324   5.568   4.924   2.120 -0.6691  0.6248  0.5610
 8308SOL    HW225325   5.632   4.946   2.255  0.1449  3.4469 -0.2225
 8309SOL     OW25326   5.844   6.570   3.794 -0.3324 -0.3040  0.5405
 8309SOL    HW125327   5.919   6.608   3.840 -0.4871 -0.3437  0.8352
 8309SOL    HW225328   5.768   6.596   3.848 -0.3384 -2.0297  1.4355
 8310SOL     OW25329   2.359   5.326   3.290  0.0322  0.4298 -0.3527
 8310SOL    HW125330   2.446   5.287   3.299  0.4796  1.5898  0.5818
 8310SOL    HW225331   2.315   5.305   3.372  0.9166  3.3130  0.9831
 8311SOL     OW25332   0.363   5.849   3.159  0.2615  0.2933  0.1211
 8311SOL    HW125333   0.386   5.901   3.236 -0.1711 -0.7972  1.0024
 8311SOL    HW225334   0.340   5.915   3.092  0.9164  1.2533  0.8162
 8312SOL     OW25335   5.633   0.276   4.799  0.1312  0.0897  0.4535
 8312SOL    HW125336   5.638   0.208   4.867  0.4775  1.7288  2.1421
 8312SOL    HW225337   5.720   0.317   4.800 -0.1815  0.8010 -0.3034
 8313SOL     OW25338   2.292   3.399   6.021  0.0202 -0.0377  0.1853
 8313SOL    HW125339   2.211   3.449   6.032  1.2900  1.7794  2.0560
 8313SOL    HW225340   2.358   3.464   5.996  0.9438 -1.4687 -1.3295
 8314SOL     OW25341   4.396   5.409   4.330  0.1873  0.1835 -0.1667
 8314SOL    HW125342   4.471   5.382   4.277 -0.3355  0.4883 -1.0820
 8314SOL    HW225343   4.384   5.501   4.309 -0.2943  0.1970  0.1625
 8315SOL     OW25344   0.622   1.257   0.182  0.6114  0.0855 -0.2641
 8315SOL    HW125345   0.691   1.267   0.116 -0.8187  1.3117 -1.6169
 8315SOL    HW225346   0.632   1.333   0.239  1.1108 -0.3730  0.2811
 8316SOL     OW25347   2.459   6.376   4.426  0.4481 -0.2315 -0.2563
 8316SOL    HW125348   2.383   6.416   4.468 -0.1220 -0.7863 -0.7425
 8316SOL    HW225349   2.532   6.398   4.483  0.2563  1.9389 -0.7813
 8317SOL     OW25350   5.145   3.009   5.323  0.5290  0.3164  0.2539
 8317SOL    HW125351   5.157   3.002   5.418 -0.6745  1.4994  0.5300
 8317SOL    HW225352   5.055   2.979   5.308  1.0005 -0.7043 -0.6501
 8318SOL     OW25353   3.938   2.867   3.892  0.4063  0.5178  0.5393
 8318SOL    HW125354   3.951   2.775   3.871 -0.7927  0.1401  1.3253
 8318SOL    HW225355   3.890   2.866   3.975 -1.7392  1.7666 -0.5916
 8319SOL     OW25356   0.503   2.444   1.117  0.2226  0.5560 -0.2491
 8319SOL    HW125357   0.523   2.465   1.208 -0.6767 -0.7654  0.2886
 8319SOL    HW225358   0.449   2.365   1.122 -0.2620  0.7431 -1.9047
 8320SOL     OW25359   1.160   0.395   4.091 -0.3948 -0.1347  0.1685
 8320SOL    HW125360   1.073   0.434   4.100  0.7863  2.9862 -0.7109
 8320SOL    HW225361   1.185   0.412   4.000  1.9408  1.0203  0.9350
 8321SOL     OW25362   6.780   2.289   5.711 -0.0210 -0.4007  0.6917
 8321SOL    HW125363   6.846   2.219   5.711  2.5116  1.8480  1.1956
 8321SOL    HW225364   6.778   2.321   5.801  0.2446  1.3830  0.1004
 8322SOL     OW25365   2.485   0.450   5.545  0.1206 -0.0577 -0.8464
 8322SOL    HW125366   2.451   0.423   5.631  0.3466 -2.7075 -1.4928
 8322SOL    HW225367   2.530   0.533   5.562 -2.0148  0.8195  1.0653
 8323SOL     OW25368   6.589   0.363   2.266  0.9348 -0.0537 -0.0991
 8323SOL    HW125369   6.667   0.416   2.284  1.3545 -0.4810 -0.6097
 8323SOL    HW225370   6.536   0.371   2.345  1.6374 -0.0050  0.3790
 8324SOL     OW25371   4.261   5.799   3.842  0.0959  0.1130  0.3669
 8324SOL    HW125372   4.309   5.881   3.831 -1.1342  0.7054 -0.9224
 8324SOL    HW225373   4.224   5.780   3.756  0.3644 -1.8381  0.6225
 8325SOL     OW25374   4.988   3.585   3.015  0.0641 -0.0542 -0.1229
 8325SOL    HW125375   5.048   3.593   3.090 -0.1589 -1.1234  0.1909
 8325SOL    HW225376   5.027   3.640   2.947  1.1866 -0.3954  0.2184
 8326SOL     OW25377   2.365   3.731   1.778 -0.3538  0.1092 -0.2059
 8326SOL    HW125378   2.291   3.755   1.832 -0.3299  0.2275 -0.2266
 8326SOL    HW225379   2.335   3.654   1.729  0.1777 -1.0380  1.1991
 8327SOL     OW25380   1.790   1.302   3.056 -0.1601 -0.6897  0.1466
 8327SOL    HW125381   1.856   1.235   3.038  1.0505  0.6567 -0.6722
 8327SOL    HW225382   1.833   1.361   3.118 -1.0464 -0.4558  0.5422
 8328SOL     OW25383   5.430   2.708   1.246  0.4543 -0.1428 -0.0089
 8328SOL    HW125384   5.399   2.791   1.210  0.3750  0.2869  1.0339
 8328SOL    HW225385   5.408   2.644   1.178 -0.3647  0.5390 -0.4103
 8329SOL     OW25386   6.703   4.318   3.462 -0.3564 -0.7366  0.1371
 8329SOL    HW125387   6.698   4.260   3.386  0.3794 -1.0996  0.3576
 8329SOL    HW225388   6.750   4.267   3.528  1.4329  0.5414 -0.0777
 8330SOL     OW25389   2.481   2.120   0.332 -0.9154 -0.2619 -0.1354
 8330SOL    HW125390   2.523   2.039   0.359 -2.4833 -1.3695 -0.9003
 8330SOL    HW225391   2.457   2.106   0.241 -0.0938  1.5584 -0.6852
 8331SOL     OW25392   4.526   0.718   3.387  0.2648  0.1703  0.5188
 8331SOL    HW125393   4.494   0.628   3.382  2.3900 -0.8368  2.8675
 8331SOL    HW225394   4.618   0.710   3.411  1.0491  2.9906 -0.9738
 8332SOL     OW25395   6.389   0.376   0.905  0.2089 -0.0070  0.0622
 8332SOL    HW125396   6.456   0.390   0.972  0.1573 -2.2433  0.6634
 8332SOL    HW225397   6.306   0.384   0.952  0.1383 -0.0635 -0.0516
 8333SOL     OW25398   0.375   6.460   0.419 -0.0865  0.0751  0.0347
 8333SOL    HW125399   0.392   6.543   0.463 -0.1917  0.3428 -0.4220
 8333SOL    HW225400   0.460   6.415   0.419 -0.0763  0.0992  0.4578
 8334SOL     OW25401   6.457   3.236   1.095  0.5022 -0.0654 -0.3892
 8334SOL    HW125402   6.378   3.275   1.133  1.1313 -0.5678  1.5674
 8334SOL    HW225403   6.510   3.213   1.171  1.4555 -1.9835 -1.5770
 8335SOL     OW25404   5.078   3.298   3.649 -0.8298  0.6037 -0.1327
 8335SOL    HW125405   5.102   3.370   3.707 -0.4531  0.4234 -0.0636
 8335SOL    HW225406   5.020   3.243   3.701  2.1410 -1.4212  1.3169
 8336SOL     OW25407   3.442   4.513   2.549 -0.4683 -0.0213 -0.4032
 8336SOL    HW125408   3.407   4.434   2.589  0.1470  0.7105  1.7155
 8336SOL    HW225409   3.387   4.583   2.583 -0.6770  0.5299 -1.8427
 8337SOL     OW25410   2.254   4.881   5.590 -0.3891  0.1929 -0.6298
 8337SOL    HW125411   2.223   4.813   5.649 -0.3056  0.5344 -0.1871
 8337SOL    HW225412   2.240   4.845   5.502 -0.8076 -0.1894 -0.4101
 8338SOL     OW25413   0.660   3.577   4.932 -0.3103  0.2896 -0.0238
 8338SOL    HW125414   0.644   3.495   4.886 -1.2088  0.1922  0.4582
 8338SOL    HW225415   0.743   3.563   4.978 -0.4065 -0.3064 -0.0314
 8339SOL     OW25416   1.781   5.144   4.149 -1.1310  0.1521  0.4508
 8339SOL    HW125417   1.858   5.137   4.093 -0.4746 -0.3570  1.3815
 8339SOL    HW225418   1.717   5.191   4.096 -0.0633  0.9103 -0.2097
 8340SOL     OW25419   4.178   4.024   3.404 -0.2272  0.3424 -0.2934
 8340SOL    HW125420   4.260   3.986   3.372 -0.0698  1.0698 -0.7711
 8340SOL    HW225421   4.197   4.118   3.412 -0.8509  0.4366  0.1128
 8341SOL     OW25422   6.491   5.790   4.075  0.2062 -0.0062 -0.3729
 8341SOL    HW125423   6.412   5.786   4.021 -1.2848  0.0771  1.6726
 8341SOL    HW225424   6.559   5.823   4.016 -0.8145 -1.7494 -2.6773
 8342SOL     OW25425   5.069   2.180   6.312  0.3783  0.6626  0.0551
 8342SOL    HW125426   5.059   2.115   6.381 -1.4789  1.8390  0.9761
 8342SOL    HW225427   5.160   2.209   6.319  1.1038 -1.4187 -0.0590
 8343SOL     OW25428   1.291   3.788   6.259 -0.2576  0.0792 -0.4026
 8343SOL    HW125429   1.276   3.752   6.172 -1.7825 -0.1203 -0.0736
 8343SOL    HW225430   1.228   3.744   6.315  0.1869  0.7591  0.6650
 8344SOL     OW25431   0.584   3.679   0.301  0.1732  0.5435 -0.1277
 8344SOL    HW125432   0.521   3.743   0.268  0.5675  1.5807  1.0549
 8344SOL    HW225433   0.537   3.596   0.300 -1.2756  1.3064  0.8189
 8345SOL     OW25434   4.925   4.556   2.309 -0.2832 -0.0352  0.2049
 8345SOL    HW125435   5.015   4.550   2.275 -0.3945 -1.5965  0.0797
 8345SOL    HW225436   4.906   4.649   2.310  0.5377  0.2186 -1.9442
 8346SOL     OW25437   5.260   0.499   3.653 -0.6821  0.3424  0.3837
 8346SOL    HW125438   5.324   0.517   3.584 -0.4988 -0.8712  0.2108
 8346SOL    HW225439   5.202   0.576   3.653 -1.2532 -0.0038 -1.7790
 8347SOL     OW25440   1.628   6.104   1.409  0.2717  0.2318 -0.0385
 8347SOL    HW125441   1.550   6.088   1.355  0.0305 -0.0423  0.3830
 8347SOL    HW225442   1.696   6.127   1.347 -0.0738  0.1849 -0.4388
 8348SOL     OW25443   5.287   1.507   0.804 -0.0111 -0.1371 -0.6311
 8348SOL    HW125444   5.215   1.459   0.844  1.3543 -2.4985 -0.8464
 8348SOL    HW225445   5.271   1.501   0.710  0.1947 -0.2178 -0.6612
 8349SOL     OW25446   5.637   5.693   2.553 -0.0559 -0.4792  0.6562
 8349SOL    HW125447   5.564   5.748   2.525 -0.4644 -1.9171 -1.4032
 8349SOL    HW225448   5.669   5.734   2.633 -1.6514  1.5019  0.3727
 8350SOL     OW25449   0.005   0.459   4.399  0.3107  0.2094  0.6342
 8350SOL    HW125450   0.082   0.433   4.449  0.0159 -0.4776  0.7423
 8350SOL    HW225451  -0.009   0.387   4.338  1.8684  1.8965 -1.8862
 8351SOL     OW25452   1.670   6.286   6.773  0.2604  0.3301 -0.0061
 8351SOL    HW125453   1.734   6.274   6.703  1.5075  0.1833  1.1293
 8351SOL    HW225454   1.684   6.375   6.804  0.4366  0.0516  0.7393
 8352SOL     OW25455   3.576   3.587   4.613 -0.3658  0.1918  0.1717
 8352SOL    HW125456   3.527   3.513   4.576 -2.2798  0.9334  1.0851
 8352SOL    HW225457   3.619   3.552   4.690 -0.1208 -0.2844 -0.1778
 8353SOL     OW25458   0.069   6.408   2.765 -0.0482 -0.3959  0.3222
 8353SOL    HW125459   0.127   6.361   2.705  0.9482  0.1202  0.8501
 8353SOL    HW225460   0.046   6.343   2.832  2.3005  0.0806  1.7330
 8354SOL     OW25461   1.833   0.450   5.074 -0.6000  0.3593 -0.0323
 8354SOL    HW125462   1.738   0.460   5.080 -0.9334 -1.1284 -1.9699
 8354SOL    HW225463   1.856   0.393   5.148 -1.4837 -0.7158 -0.5608
 8355SOL     OW25464   0.433   3.921   0.231  0.7676 -0.1732  0.6138
 8355SOL    HW125465   0.345   3.882   0.225 -0.3423  2.3769 -2.2485
 8355SOL    HW225466   0.425   3.986   0.301  0.3489  0.0391  0.3752
 8356SOL     OW25467   4.939   1.037   5.471  0.1126  0.6093  0.3596
 8356SOL    HW125468   5.022   1.074   5.442  0.0743  0.9220  0.6483
 8356SOL    HW225469   4.873   1.085   5.421  0.1502 -0.4684 -0.7731
 8357SOL     OW25470   3.380   3.374   4.569 -0.3349  0.6158 -0.2243
 8357SOL    HW125471   3.291   3.410   4.580  0.2779  2.4027 -0.7157
 8357SOL    HW225472   3.386   3.305   4.634 -2.5518 -0.4864 -1.0929
 8358SOL     OW25473   4.280   2.985   2.105  0.2866  0.0317 -0.3272
 8358SOL    HW125474   4.279   2.964   2.011  1.6945 -0.4694 -0.2588
 8358SOL    HW225475   4.214   3.053   2.115 -1.0928 -1.0768 -1.3910
 8359SOL     OW25476   2.160   4.306   3.547 -0.0554  0.7513  0.1769
 8359SOL    HW125477   2.145   4.375   3.482 -1.3635  0.3248 -0.0263
 8359SOL    HW225478   2.100   4.235   3.519  0.8490 -0.2383  0.6891
 8360SOL     OW25479   3.584   2.989   2.688  0.1241 -0.4467  0.5142
 8360SOL    HW125480   3.602   3.083   2.691 -0.1300 -0.3849  0.2220
 8360SOL    HW225481   3.623   2.960   2.605 -1.6868 -0.1695 -0.5024
 8361SOL     OW25482   5.526   5.535   0.278 -0.7249  0.7879 -0.3572
 8361SOL    HW125483   5.449   5.545   0.334 -0.4260 -1.0843  0.4835
 8361SOL    HW225484   5.510   5.454   0.229  1.0295 -0.1366  0.4874
 8362SOL     OW25485   0.774   3.300   3.472 -0.7090  0.0006  0.9504
 8362SOL    HW125486   0.816   3.385   3.465 -1.1989  0.3044  1.6065
 8362SOL    HW225487   0.813   3.248   3.402 -1.5963  1.2512 -0.5512
 8363SOL     OW25488   0.437   3.806   3.420 -0.2471  0.4824  0.4885
 8363SOL    HW125489   0.401   3.778   3.504  1.7132  0.8965  1.5383
 8363SOL    HW225490   0.516   3.752   3.409 -0.0638  0.9609 -0.7135
 8364SOL     OW25491   5.731   3.911   4.223 -0.3128  0.2935  0.4095
 8364SOL    HW125492   5.825   3.899   4.237  0.0465 -1.3541 -2.7203
 8364SOL    HW225493   5.720   4.006   4.215  1.3532  0.4230 -0.6397
 8365SOL     OW25494   0.833   1.597   4.709 -0.3229 -0.3025  0.6807
 8365SOL    HW125495   0.773   1.638   4.771 -0.6806  0.5280 -0.1893
 8365SOL    HW225496   0.795   1.613   4.623  0.8634 -0.2174  0.1393
 8366SOL     OW25497   1.506   5.380   3.018  0.5373 -0.1561 -0.0030
 8366SOL    HW125498   1.493   5.471   3.043  0.0811 -0.2286  0.0211
 8366SOL    HW225499   1.538   5.337   3.097 -2.2448 -0.6964  0.9376
 8367SOL     OW25500   2.195   3.012   4.155 -0.1286 -0.1753  0.0765
 8367SOL    HW125501   2.277   3.023   4.107 -0.9940  1.1560 -1.1818
 8367SOL    HW225502   2.138   2.964   4.094 -0.2017 -1.4199  1.0807
 8368SOL     OW25503   0.699   3.772   5.736 -0.2561 -0.2741 -0.3573
 8368SOL    HW125504   0.725   3.722   5.659 -0.2562  0.5586 -0.9100
 8368SOL    HW225505   0.630   3.831   5.704  1.8729  2.3240 -0.5170
 8369SOL     OW25506   0.668   4.786   5.407  0.4495 -0.0223 -0.3653
 8369SOL    HW125507   0.650   4.877   5.387 -1.0598 -0.3067 -0.4399
 8369SOL    HW225508   0.702   4.749   5.325  0.6926  0.3684 -0.4427
 8370SOL     OW25509   1.282   2.608   1.517  0.3279  0.3279  0.4192
 8370SOL    HW125510   1.197   2.611   1.562 -0.0128  2.4811 -0.2665
 8370SOL    HW225511   1.346   2.628   1.586  0.3199 -1.2165  0.9195
 8371SOL     OW25512   2.596   5.127   1.295  0.6510 -0.0273 -0.8552
 8371SOL    HW125513   2.628   5.054   1.348  1.0242  0.1708 -0.8011
 8371SOL    HW225514   2.529   5.088   1.238  1.3471 -0.5697 -1.3258
 8372SOL     OW25515   6.073   6.688   3.914  1.0072 -0.1591 -0.0874
 8372SOL    HW125516   6.024   6.747   3.972 -0.5225 -1.8756  0.4252
 8372SOL    HW225517   6.162   6.725   3.914  0.2346  1.8838  0.5521
 8373SOL     OW25518   6.184   1.124   6.276 -0.1251  0.1621  0.3330
 8373SOL    HW125519   6.119   1.055   6.289  0.6252 -0.6684 -0.1859
 8373SOL    HW225520   6.227   1.132   6.361 -0.1560 -0.0839  0.3745
 8374SOL     OW25521   0.194   3.844   2.537  0.1606  0.2188  0.1656
 8374SOL    HW125522   0.187   3.758   2.495 -0.7986  0.2583  0.2405
 8374SOL    HW225523   0.120   3.893   2.502  0.6672  1.0017  0.1742
 8375SOL     OW25524   0.071   5.168   1.247  0.4535 -0.0760 -0.0319
 8375SOL    HW125525  -0.011   5.123   1.226  1.3409 -1.1307 -1.4218
 8375SOL    HW225526   0.138   5.117   1.202  1.8112  1.1508  0.5301
 8376SOL     OW25527   4.284   2.817   5.645  0.6624 -0.1411 -0.2355
 8376SOL    HW125528   4.326   2.856   5.722  0.4966  0.7097 -0.5603
 8376SOL    HW225529   4.191   2.815   5.668  0.5492  0.5903 -0.6024
 8377SOL     OW25530   2.762   2.155   6.399 -0.8899  0.2442 -0.2767
 8377SOL    HW125531   2.796   2.214   6.332 -2.2358  0.6949 -0.5845
 8377SOL    HW225532   2.836   2.098   6.420  0.3747  1.8396 -0.1749
 8378SOL     OW25533   3.538   4.699   6.188 -0.2413 -0.2764 -0.6591
 8378SOL    HW125534   3.480   4.754   6.136  1.4056  1.3136 -0.9030
 8378SOL    HW225535   3.580   4.759   6.249 -2.6806 -2.1521  3.2666
 8379SOL     OW25536   1.906   0.346   1.362 -0.0235 -0.0414  0.4729
 8379SOL    HW125537   1.821   0.355   1.405  0.0861  0.2591  0.6236
 8379SOL    HW225538   1.919   0.429   1.317 -0.6288 -0.7177 -1.0415
 8380SOL     OW25539   5.913   3.914   5.920  0.1392  0.0893  0.3423
 8380SOL    HW125540   5.910   3.859   5.842 -0.8101  0.7304 -0.0872
 8380SOL    HW225541   5.941   3.855   5.990 -3.4010 -1.6518  0.4574
 8381SOL     OW25542   5.572   4.641   4.941  0.0966 -0.2129  0.7324
 8381SOL    HW125543   5.649   4.651   4.884 -0.1041 -0.3756  0.4349
 8381SOL    HW225544   5.585   4.557   4.985 -0.2571 -0.5739  0.1564
 8382SOL     OW25545   1.493   2.846   4.066 -0.1252  0.0596  0.2790
 8382SOL    HW125546   1.407   2.814   4.094  0.1255  1.0930  2.4857
 8382SOL    HW225547   1.517   2.790   3.993 -2.6681 -0.2477 -0.4301
 8383SOL     OW25548   1.202   4.305   2.610  0.5533 -0.3483  0.1898
 8383SOL    HW125549   1.249   4.233   2.568  2.3950  0.1198  1.3050
 8383SOL    HW225550   1.248   4.384   2.580 -0.7993  0.3208 -0.2238
 8384SOL     OW25551   5.104   6.650   6.224 -0.1518  0.3438 -0.1743
 8384SOL    HW125552   5.059   6.633   6.307 -0.8878 -0.8253 -0.7760
 8384SOL    HW225553   5.055   6.721   6.183 -1.0841 -0.4761 -0.5223
 8385SOL     OW25554   0.125   2.031   0.957  0.1662  0.4269  0.6090
 8385SOL    HW125555   0.034   2.005   0.944 -0.1624  2.1030 -0.9100
 8385SOL    HW225556   0.171   1.949   0.976 -1.3458 -0.7383 -0.4758
 8386SOL     OW25557   5.007   1.455   3.818 -0.4074  0.4653 -0.1145
 8386SOL    HW125558   4.955   1.403   3.757  1.8225 -0.3602 -1.4123
 8386SOL    HW225559   5.001   1.544   3.785 -0.4413  0.2633 -0.6594
 8387SOL     OW25560   5.813   6.480   1.841  0.0387  0.0245 -0.1400
 8387SOL    HW125561   5.747   6.487   1.771  0.8274  1.1919 -0.7990
 8387SOL    HW225562   5.815   6.387   1.862 -1.7564 -0.0590 -0.1514
 8388SOL     OW25563   4.713   2.389   2.285  0.3210  0.1742 -0.2401
 8388SOL    HW125564   4.807   2.379   2.269  0.2986  0.6379 -0.7186
 8388SOL    HW225565   4.673   2.376   2.199  0.0754  1.4286 -0.3431
 8389SOL     OW25566   3.107   2.547   2.871  0.2508 -0.0428  0.1316
 8389SOL    HW125567   3.012   2.544   2.855 -0.0092 -1.2833  1.6990
 8389SOL    HW225568   3.126   2.465   2.915  2.0166  0.3609  0.1674
 8390SOL     OW25569   4.948   2.497   2.047 -0.1886 -0.1872 -0.0551
 8390SOL    HW125570   4.987   2.567   1.995  0.3384 -0.3249  0.1576
 8390SOL    HW225571   4.856   2.497   2.021 -0.2102  0.6415  0.0069
 8391SOL     OW25572   4.736   6.661   3.193  0.0407 -0.4065  0.1990
 8391SOL    HW125573   4.784   6.638   3.273 -0.8096 -3.6331 -0.0656
 8391SOL    HW225574   4.755   6.589   3.132 -2.0198  0.2153 -1.3021
 8392SOL     OW25575   5.448   0.049   2.582 -0.2747  0.0644  0.3063
 8392SOL    HW125576   5.486  -0.039   2.579  0.1928  0.2278  1.1316
 8392SOL    HW225577   5.513   0.105   2.540 -0.6916 -0.0140 -0.4625
 8393SOL     OW25578   1.424   1.819   3.742 -0.1592 -0.4358  0.0982
 8393SOL    HW125579   1.502   1.832   3.796  0.2180 -1.7890 -0.0712
 8393SOL    HW225580   1.387   1.736   3.773 -2.0459  0.5962  0.7595
 8394SOL     OW25581   2.468   2.728   1.899  0.2585  0.3592  0.3481
 8394SOL    HW125582   2.474   2.646   1.851 -0.0229  1.3957 -1.5901
 8394SOL    HW225583   2.558   2.751   1.920  0.6054  0.7791 -1.4069
 8395SOL     OW25584   5.918   5.580   3.935 -0.0542 -0.3118 -0.2032
 8395SOL    HW125585   5.944   5.623   4.017 -1.5429  1.1150 -0.4289
 8395SOL    HW225586   5.982   5.611   3.871 -0.4442  0.7123 -0.1207
 8396SOL     OW25587   3.266   3.552   0.498  0.2458 -0.4070  0.3078
 8396SOL    HW125588   3.173   3.539   0.479  0.3742 -1.4836  0.3464
 8396SOL    HW225589   3.311   3.498   0.433  0.8410  0.0284  0.3538
 8397SOL     OW25590   3.562   1.032   6.612  0.4430  0.8606  0.1151
 8397SOL    HW125591   3.499   0.978   6.564  0.7883  1.5942 -1.2338
 8397SOL    HW225592   3.632   0.971   6.636  0.0465  0.3821  0.0689
 8398SOL     OW25593   6.120   2.634   2.985  0.1260  0.0226  0.4899
 8398SOL    HW125594   6.097   2.698   2.919 -0.0225 -1.7188 -1.2512
 8398SOL    HW225595   6.038   2.615   3.030  0.3761  1.8027  1.8103
 8399SOL     OW25596   5.447   4.393   1.281 -0.2131 -0.1608 -0.2392
 8399SOL    HW125597   5.521   4.380   1.340 -0.6406 -0.6132  0.2170
 8399SOL    HW225598   5.416   4.482   1.300 -1.7287 -1.0563  1.8781
 8400SOL     OW25599   1.768   6.325   2.061  0.2077 -0.6612 -0.0127
 8400SOL    HW125600   1.749   6.381   1.986  0.6380 -0.5298 -0.0284
 8400SOL    HW225601   1.858   6.295   2.046  0.4720 -0.2468  0.6962
 8401SOL     OW25602   2.015   0.577   5.554 -0.4509 -0.2228 -0.6040
 8401SOL    HW125603   2.089   0.549   5.499 -0.1484 -0.0519 -0.2836
 8401SOL    HW225604   1.984   0.658   5.513 -0.2272 -0.0971 -0.5230
 8402SOL     OW25605   1.640   1.036   3.033 -0.3939  0.1288  0.0201
 8402SOL    HW125606   1.653   0.957   2.980 -1.1731  0.1324 -0.1867
 8402SOL    HW225607   1.689   1.104   2.987 -0.0482 -0.1401 -0.0156
 8403SOL     OW25608   2.433   4.348   3.525  0.5637 -0.1142 -0.0714
 8403SOL    HW125609   2.427   4.444   3.528 -0.6617 -0.1624 -0.4244
 8403SOL    HW225610   2.346   4.318   3.551  1.1514 -1.1652  0.7911
 8404SOL     OW25611   0.642   3.857   5.425 -0.2188 -0.2731  0.0878
 8404SOL    HW125612   0.677   3.772   5.449 -0.0928 -0.5955 -1.1667
 8404SOL    HW225613   0.719   3.913   5.414 -0.3069  0.0749  1.0703
 8405SOL     OW25614   0.824   2.007   2.265  0.0515 -0.0734 -0.2763
 8405SOL    HW125615   0.735   1.972   2.270 -0.2721  0.5440 -1.3927
 8405SOL    HW225616   0.818   2.094   2.304  0.1173  0.0331 -0.4977
 8406SOL     OW25617   6.382   1.021   5.150  0.0531 -0.4513 -0.1574
 8406SOL    HW125618   6.373   1.040   5.244 -0.1156 -0.2710 -0.2102
 8406SOL    HW225619   6.477   1.020   5.135  0.0945 -0.9281  0.1069
 8407SOL     OW25620   0.066   4.593   1.434  0.1662  0.1201 -0.1575
 8407SOL    HW125621   0.052   4.656   1.363 -0.2352  0.2122  0.0021
 8407SOL    HW225622   0.034   4.510   1.400 -0.9777  0.3660  0.2717
 8408SOL     OW25623   1.128   5.351   3.784  0.1395 -0.5072  0.0947
 8408SOL    HW125624   1.203   5.401   3.815 -0.9875  1.0386  0.4297
 8408SOL    HW225625   1.124   5.275   3.843  1.3838 -0.5837  0.0965
 8409SOL     OW25626   4.773   4.866   3.929 -0.3257 -0.5035  0.0304
 8409SOL    HW125627   4.834   4.817   3.984 -0.2425 -0.9281 -0.4316
 8409SOL    HW225628   4.788   4.958   3.953 -1.8606 -0.7730  2.3342
 8410SOL     OW25629   4.894   5.601   4.409 -0.0768 -0.1718  0.2823
 8410SOL    HW125630   4.854   5.633   4.329  0.1175  0.4762  0.4324
 8410SOL    HW225631   4.939   5.678   4.445  2.3608 -1.1426 -0.5262
 8411SOL     OW25632   2.685   3.511   2.713 -0.1713  0.0250  0.0594
 8411SOL    HW125633   2.745   3.437   2.723 -0.5974 -0.3646 -0.2368
 8411SOL    HW225634   2.647   3.500   2.626  0.0377  0.8053 -0.1397
 8412SOL     OW25635   2.834   2.612   1.071 -0.2892 -0.0437  0.0695
 8412SOL    HW125636   2.879   2.535   1.038  0.1153  0.1778  0.1004
 8412SOL    HW225637   2.761   2.625   1.010 -0.0177 -0.1101 -0.2726
 8413SOL     OW25638   3.142   0.927   0.158 -0.0659 -0.5238  0.5941
 8413SOL    HW125639   3.220   0.975   0.127  0.1907 -1.6160 -0.4937
 8413SOL    HW225640   3.178   0.860   0.217 -0.2210 -0.7816  0.3934
 8414SOL     OW25641   1.740   3.035   4.300  0.0390 -0.5889  0.5296
 8414SOL    HW125642   1.810   3.080   4.347  0.0820 -1.1245  1.0048
 8414SOL    HW225643   1.725   3.087   4.221 -1.8791  1.9206  2.3625
 8415SOL     OW25644   6.171   2.040   0.629  0.0425  0.7860 -0.0165
 8415SOL    HW125645   6.226   1.962   0.631 -2.0120 -0.7459  0.6681
 8415SOL    HW225646   6.128   2.036   0.543  0.5913  1.6580 -0.3324
 8416SOL     OW25647   1.010   2.286   6.565 -0.1382 -0.0544  0.1300
 8416SOL    HW125648   0.967   2.312   6.483 -1.8885  0.7119  1.2202
 8416SOL    HW225649   1.016   2.191   6.560  1.2119  0.0607 -1.5191
 8417SOL     OW25650   1.273   2.934   0.367 -0.5260  0.2051  0.9137
 8417SOL    HW125651   1.307   2.848   0.394 -1.9697 -0.8547 -0.4631
 8417SOL    HW225652   1.245   2.975   0.448  0.2406 -0.5902  1.6104
 8418SOL     OW25653   4.850   5.089   5.286 -0.1898 -0.1870 -0.3284
 8418SOL    HW125654   4.925   5.040   5.253 -0.5513 -1.0396  0.0868
 8418SOL    HW225655   4.884   5.135   5.363 -0.3955 -1.6228  0.6531
 8419SOL     OW25656   4.564   3.462   5.849 -0.4290 -0.5855  0.6175
 8419SOL    HW125657   4.607   3.548   5.841  0.9765 -1.3836 -1.1034
 8419SOL    HW225658   4.630   3.407   5.892 -1.5678 -0.7005  2.3270
 8420SOL     OW25659   2.715   4.449   2.557  0.2324  0.3503 -0.2054
 8420SOL    HW125660   2.643   4.412   2.608  0.4119 -1.1109 -0.9644
 8420SOL    HW225661   2.727   4.537   2.593 -0.1920 -0.3260  1.7067
 8421SOL     OW25662   0.630   5.681   5.347  0.4802  0.6508 -0.1250
 8421SOL    HW125663   0.691   5.753   5.335  0.8657  0.3497  0.0289
 8421SOL    HW225664   0.638   5.629   5.267  0.5662  0.5031 -0.0199
 8422SOL     OW25665   3.311   0.722   1.524 -0.1822  0.0728  0.6788
 8422SOL    HW125666   3.271   0.752   1.443  1.8693  0.0968 -0.3962
 8422SOL    HW225667   3.368   0.794   1.551  0.2230 -0.4901  1.3684
 8423SOL     OW25668   5.668   4.187   4.221 -0.4136  0.1787 -0.0635
 8423SOL    HW125669   5.586   4.237   4.224  0.6232  1.9454  0.8053
 8423SOL    HW225670   5.686   4.165   4.312 -0.8180 -1.8311 -0.4286
 8424SOL     OW25671   5.219   2.113   4.778  0.8782  0.2774  0.5003
 8424SOL    HW125672   5.206   2.082   4.867 -2.6200  1.0856  0.3937
 8424SOL    HW225673   5.255   2.201   4.788  0.6087  0.3195  1.1155
 8425SOL     OW25674   0.694   1.503   1.847  0.2160  0.2643 -0.5433
 8425SOL    HW125675   0.743   1.463   1.919 -0.8949 -2.2523 -1.0873
 8425SOL    HW225676   0.728   1.593   1.843 -0.2605  0.8366  3.6324
 8426SOL     OW25677   0.740   0.835   2.093 -0.8920  0.6793 -0.3390
 8426SOL    HW125678   0.794   0.791   2.027 -1.0323  0.0901 -0.0774
 8426SOL    HW225679   0.790   0.912   2.119 -1.7826  2.1664 -2.6821
 8427SOL     OW25680   5.241   0.482   6.034 -0.8573  0.8816  0.2746
 8427SOL    HW125681   5.209   0.489   5.943 -0.2627  0.3890  0.0211
 8427SOL    HW225682   5.316   0.541   6.038  0.2584 -0.4534 -0.0927
 8428SOL     OW25683   2.002   5.816   1.602  0.0329  1.0987 -0.4353
 8428SOL    HW125684   1.926   5.862   1.566  0.0151  2.2022  0.9353
 8428SOL    HW225685   1.966   5.734   1.636 -0.2015  0.7405 -1.5076
 8429SOL     OW25686   0.659   1.918   3.354 -0.5558  0.0517  0.0468
 8429SOL    HW125687   0.646   2.004   3.315 -1.5199 -0.4101 -0.7026
 8429SOL    HW225688   0.601   1.917   3.431 -0.3648  0.1539  0.1927
 8430SOL     OW25689   4.518   6.423   6.315 -0.2222  0.3506 -0.2807
 8430SOL    HW125690   4.545   6.334   6.291 -1.6558  0.4693 -2.6425
 8430SOL    HW225691   4.597   6.463   6.350  0.7569 -1.4938 -0.2463
 8431SOL     OW25692   4.694   3.867   6.529 -0.3953 -0.1260  1.2998
 8431SOL    HW125693   4.676   3.926   6.455  2.5497 -0.7149 -0.0146
 8431SOL    HW225694   4.696   3.924   6.605  0.6613  1.2497  0.2996
 8432SOL     OW25695   4.504   3.216   2.876 -0.1181 -0.8185 -0.2934
 8432SOL    HW125696   4.538   3.298   2.840 -2.0323 -0.1097 -0.6012
 8432SOL    HW225697   4.559   3.198   2.953  1.5009 -0.2608 -1.2826
 8433SOL     OW25698   0.844   1.721   6.696  0.2695 -0.0156 -0.3474
 8433SOL    HW125699   0.795   1.756   6.621 -0.9920 -1.8477 -0.4402
 8433SOL    HW225700   0.890   1.797   6.731  1.8652  0.7279 -3.6325
 8434SOL     OW25701   2.410   5.003   2.695  0.4331 -0.1740 -0.1907
 8434SOL    HW125702   2.356   4.984   2.617 -0.5522  2.6068 -0.2719
 8434SOL    HW225703   2.497   5.018   2.660  0.1107  0.5305 -0.7111
 8435SOL     OW25704   0.400   3.292   1.471 -0.1443  0.0533  0.3302
 8435SOL    HW125705   0.473   3.232   1.460  0.8531  1.6035 -2.4856
 8435SOL    HW225706   0.344   3.277   1.395 -0.2912  2.0652 -0.0135
 8436SOL     OW25707   6.509   0.929   0.956  0.8273 -0.0143 -0.3605
 8436SOL    HW125708   6.477   0.850   0.999  0.2767 -0.6526 -1.8752
 8436SOL    HW225709   6.604   0.916   0.950  0.8850 -0.0064  0.4533
 8437SOL     OW25710   0.566   5.382   4.569 -0.1583  0.7111 -0.3099
 8437SOL    HW125711   0.544   5.295   4.535 -2.0239  1.2164 -0.5132
 8437SOL    HW225712   0.556   5.441   4.494 -0.1949  1.2688  0.1216
 8438SOL     OW25713   0.926   4.637   0.522  0.7738  0.1653 -0.1018
 8438SOL    HW125714   0.892   4.690   0.450  0.4360  0.2504  0.1207
 8438SOL    HW225715   0.951   4.700   0.589 -0.6441  0.0048  0.6049
 8439SOL     OW25716   1.960   1.349   0.255  0.0707  0.2092  0.4124
 8439SOL    HW125717   1.983   1.310   0.340 -0.0052  0.6816  0.6547
 8439SOL    HW225718   1.887   1.295   0.224  0.1195  0.0127  0.6292
 8440SOL     OW25719   6.295   1.162   3.409 -0.2317  0.5662  0.1059
 8440SOL    HW125720   6.391   1.157   3.404 -0.2780  0.2916 -0.7545
 8440SOL    HW225721   6.276   1.169   3.502  0.6278  0.5686  0.2906
 8441SOL     OW25722   4.298   4.612   0.599 -0.5337 -0.0405 -0.6868
 8441SOL    HW125723   4.378   4.633   0.647 -0.2623 -1.6448 -0.3982
 8441SOL    HW225724   4.241   4.687   0.615  0.3115  0.3892  0.4634
 8442SOL     OW25725   0.605   3.854   3.715  0.2741  0.1261  0.6621
 8442SOL    HW125726   0.642   3.847   3.803  0.6607  1.3632  0.6129
 8442SOL    HW225727   0.515   3.886   3.729  0.7446  1.5795  0.5800
 8443SOL     OW25728   5.817   6.169   0.855  0.4118  0.1828 -0.3479
 8443SOL    HW125729   5.765   6.113   0.797  1.5984  0.1075 -1.3829
 8443SOL    HW225730   5.902   6.127   0.859  0.0653 -0.4849  2.4832
 8444SOL     OW25731   1.777   1.017   3.286  0.2653  0.8697 -0.3813
 8444SOL    HW125732   1.705   1.039   3.227 -1.1993 -2.0081  0.1549
 8444SOL    HW225733   1.770   0.923   3.300  3.4008  0.6542  0.7466
 8445SOL     OW25734   3.281   1.261   5.924  0.1038 -0.5449  0.4986
 8445SOL    HW125735   3.338   1.326   5.883  0.8238 -0.2670  1.8644
 8445SOL    HW225736   3.246   1.210   5.851  0.6938  0.4276 -0.4936
 8446SOL     OW25737   4.420   6.401   6.043  0.0323 -0.2457  0.0804
 8446SOL    HW125738   4.342   6.456   6.052  0.3501  0.5794 -1.7342
 8446SOL    HW225739   4.476   6.427   6.116 -0.1564  1.3147 -0.3036
 8447SOL     OW25740   1.409   2.497   3.188 -0.6319  0.3097 -0.0081
 8447SOL    HW125741   1.466   2.420   3.197 -0.3493  0.4920 -0.2049
 8447SOL    HW225742   1.470   2.570   3.179 -0.8450  0.8432  2.2051
 8448SOL     OW25743   3.559   6.595   5.923  0.0815  0.4930 -0.2942
 8448SOL    HW125744   3.502   6.609   5.848 -0.3346  2.3853  0.3011
 8448SOL    HW225745   3.580   6.683   5.954  1.1592 -0.2079  1.1241
 8449SOL     OW25746   3.116   4.124   2.621 -0.5121 -0.0223  0.3334
 8449SOL    HW125747   3.065   4.107   2.541 -1.1904  0.9586  0.5383
 8449SOL    HW225748   3.107   4.218   2.635  1.6440  0.2478  0.1953
 8450SOL     OW25749   1.922   0.770   3.556  0.0110  0.4666  0.2949
 8450SOL    HW125750   1.987   0.741   3.620 -1.2059 -0.4550  1.1567
 8450SOL    HW225751   1.896   0.857   3.585  1.4706  1.2492 -0.5782
 8451SOL     OW25752   2.062   4.670   4.419  0.6189 -0.1292 -0.0077
 8451SOL    HW125753   1.970   4.671   4.393  0.0985 -1.3300  1.5719
 8451SOL    HW225754   2.065   4.726   4.497  1.2864  0.0730 -0.1685
 8452SOL     OW25755   3.732   5.806   1.123  0.1644 -0.3634 -0.2035
 8452SOL    HW125756   3.794   5.817   1.050  0.6874 -0.1964  0.2650
 8452SOL    HW225757   3.768   5.859   1.194 -0.4361 -0.3914  0.1270
 8453SOL     OW25758   2.977   3.429   4.982 -0.1334  0.3471  0.0375
 8453SOL    HW125759   2.952   3.510   5.027  0.4438  1.9598 -2.3380
 8453SOL    HW225760   2.932   3.433   4.898  0.2137 -1.6554 -0.2986
 8454SOL     OW25761   4.003   2.781   4.936  0.1226  0.2691  0.2137
 8454SOL    HW125762   4.087   2.773   4.983 -0.7885 -0.7254  1.7585
 8454SOL    HW225763   3.986   2.693   4.902  0.2160  0.7260 -1.0784
 8455SOL     OW25764   2.669   6.422   1.942  0.1386 -0.2771 -0.1995
 8455SOL    HW125765   2.763   6.414   1.928 -0.0489  0.1776 -1.9914
 8455SOL    HW225766   2.652   6.516   1.938 -0.1644 -0.1972  2.0421
 8456SOL     OW25767   4.930   1.670   2.159  0.4486 -0.3555  0.0372
 8456SOL    HW125768   4.971   1.637   2.240  0.6026 -0.4624 -0.0842
 8456SOL    HW225769   4.846   1.625   2.155  0.5370 -0.5210  0.0201
 8457SOL     OW25770   1.483   3.594   3.270  0.0292  0.4284 -0.0184
 8457SOL    HW125771   1.577   3.606   3.256  0.2145 -0.9910 -0.2050
 8457SOL    HW225772   1.452   3.555   3.188 -0.2462 -1.3189  0.8542
 8458SOL     OW25773   0.339   0.949   0.039  0.3548  0.3598  0.0381
 8458SOL    HW125774   0.424   0.908   0.022 -0.5247 -1.7487  0.3393
 8458SOL    HW225775   0.279   0.905  -0.022 -0.6293  1.4066  0.2178
 8459SOL     OW25776   2.137   2.307   6.627  0.0386  0.1180  0.1357
 8459SOL    HW125777   2.154   2.302   6.721 -1.4544 -2.0618  0.3605
 8459SOL    HW225778   2.052   2.352   6.621 -0.1066 -0.1924 -0.1402
 8460SOL     OW25779   5.994   1.191   2.007 -0.5583  0.4133 -0.4304
 8460SOL    HW125780   5.965   1.256   1.944  1.3107 -0.4880 -2.3750
 8460SOL    HW225781   6.029   1.120   1.953 -1.5269 -1.7473  1.6065
 8461SOL     OW25782   2.176   2.742   1.241  0.0452  0.4200  0.3148
 8461SOL    HW125783   2.251   2.798   1.219  0.9361 -0.2559  1.5156
 8461SOL    HW225784   2.209   2.653   1.231 -0.5785  0.1197  0.8921
 8462SOL     OW25785   4.846   5.910   1.031  0.1556  0.7050  0.0876
 8462SOL    HW125786   4.934   5.908   1.069 -0.4222 -1.0259  1.4957
 8462SOL    HW225787   4.847   5.842   0.964 -0.4965 -0.4017  1.1575
 8463SOL     OW25788   3.818   6.447   3.709  0.4683 -0.1326 -0.2714
 8463SOL    HW125789   3.758   6.372   3.701 -0.4922  0.1518  3.0174
 8463SOL    HW225790   3.762   6.523   3.698  1.1163  0.1918 -1.6528
 8464SOL     OW25791   1.936   0.085   6.037  0.3293  0.3324 -0.4238
 8464SOL    HW125792   1.840   0.085   6.036  0.2676  2.9425 -2.6320
 8464SOL    HW225793   1.959  -0.007   6.049 -2.4612 -0.6490 -1.7272
 8465SOL     OW25794   6.328   4.457   3.954  0.1741 -0.5403  0.4294
 8465SOL    HW125795   6.379   4.494   3.882 -0.2553  1.1088  0.9287
 8465SOL    HW225796   6.257   4.519   3.968 -0.5236 -1.5133  1.4046
 8466SOL     OW25797   5.814   5.015   1.906  0.2325 -0.0006  0.2092
 8466SOL    HW125798   5.846   4.947   1.846  0.7649  0.4932 -0.0744
 8466SOL    HW225799   5.778   4.966   1.980  0.0175 -0.6086 -0.2857
 8467SOL     OW25800   5.081   4.987   3.118  0.0669  0.3046 -0.4237
 8467SOL    HW125801   5.006   4.954   3.169 -0.1137  1.6142  0.1831
 8467SOL    HW225802   5.041   5.031   3.043  0.0863  2.7515  0.9201
 8468SOL     OW25803   6.153   2.740   5.541  0.5655 -0.2071  0.8419
 8468SOL    HW125804   6.108   2.825   5.548 -1.4947 -1.1190 -0.3047
 8468SOL    HW225805   6.139   2.699   5.626 -0.0458 -0.1110  0.7957
 8469SOL     OW25806   2.208   3.902   2.494 -0.2206  0.0556  0.1517
 8469SOL    HW125807   2.131   3.957   2.509 -1.6023 -1.8828  0.6347
 8469SOL    HW225808   2.179   3.814   2.520  1.4414 -1.1522 -1.8438
 8470SOL     OW25809   1.742   0.049   3.000  0.0826  0.2273  0.5496
 8470SOL    HW125810   1.819   0.039   3.055  0.1749  3.2221  1.1412
 8470SOL    HW225811   1.671   0.011   3.051  0.6218  0.5370  1.5602
 8471SOL     OW25812   1.430   0.416   5.872 -0.3956 -0.4120 -0.5835
 8471SOL    HW125813   1.359   0.465   5.831 -0.8548 -2.3610 -2.2700
 8471SOL    HW225814   1.425   0.328   5.833  0.0159 -2.0402  2.6806
 8472SOL     OW25815   5.439   5.245   1.057 -0.1684  0.4454 -0.1985
 8472SOL    HW125816   5.519   5.198   1.034  0.2553  1.6193 -1.2436
 8472SOL    HW225817   5.384   5.238   0.979 -0.1973  1.4581 -0.2768
 8473SOL     OW25818   6.398   3.612   1.555 -0.3266 -0.1047 -0.7072
 8473SOL    HW125819   6.314   3.652   1.532  0.1163 -0.2016 -2.6850
 8473SOL    HW225820   6.451   3.622   1.476  1.6664  0.2915  0.6067
 8474SOL     OW25821   0.440   0.048   4.980  0.2351 -0.0677 -0.2755
 8474SOL    HW125822   0.512   0.072   5.039  1.0581 -0.9870 -0.8730
 8474SOL    HW225823   0.448   0.109   4.906 -0.1901  0.4396  0.0877
 8475SOL     OW25824   4.753   6.332   2.386 -0.3092  0.4287  0.0433
 8475SOL    HW125825   4.708   6.393   2.329 -0.8263 -2.5322 -2.9917
 8475SOL    HW225826   4.719   6.246   2.363  3.1569 -1.4856  1.2354
 8476SOL     OW25827   3.597   5.568   3.994 -0.2412 -0.0805 -0.4086
 8476SOL    HW125828   3.681   5.592   3.955 -0.7778 -0.4833 -1.8747
 8476SOL    HW225829   3.591   5.473   3.982 -1.0503 -0.0089 -0.6372
 8477SOL     OW25830   5.364   0.328   2.063 -0.0764  0.5392  0.3337
 8477SOL    HW125831   5.361   0.232   2.055  1.4525  0.5783 -1.4479
 8477SOL    HW225832   5.417   0.344   2.141  0.6626 -0.1083 -0.0150
 8478SOL     OW25833   6.687   2.289   0.960  0.5974 -0.0995 -0.0120
 8478SOL    HW125834   6.728   2.259   1.041  2.6251  1.3466 -0.4091
 8478SOL    HW225835   6.696   2.385   0.963 -2.7742  0.3320 -0.2082
 8479SOL     OW25836   3.897   2.654   0.858 -0.0774 -0.2370  0.2364
 8479SOL    HW125837   3.928   2.743   0.876 -0.1895 -0.3991  1.2850
 8479SOL    HW225838   3.810   2.651   0.898  1.0885 -1.7195  2.9503
 8480SOL     OW25839   5.499   1.987   6.118 -0.0617 -0.2197 -0.4470
 8480SOL    HW125840   5.559   2.053   6.084  0.7220 -0.9750 -0.5907
 8480SOL    HW225841   5.553   1.909   6.128  0.0412  0.2148  3.7011
 8481SOL     OW25842   5.789   4.431   2.242 -0.1317 -0.1402  0.2553
 8481SOL    HW125843   5.751   4.454   2.326  2.3241  0.8847  1.1816
 8481SOL    HW225844   5.872   4.480   2.238  0.9520 -1.9327 -1.7301
 8482SOL     OW25845   1.848   2.950   5.641  0.2032  0.1571  0.0814
 8482SOL    HW125846   1.775   2.975   5.697 -1.7926 -2.7192 -1.0052
 8482SOL    HW225847   1.855   3.021   5.577  0.3254  1.8360  1.8599
 8483SOL     OW25848   3.899   4.036   5.062 -0.0774  0.3261 -0.7514
 8483SOL    HW125849   3.981   4.058   5.017 -0.7935  0.8834 -1.8230
 8483SOL    HW225850   3.884   4.110   5.121  1.5539 -1.0151  1.4880
 8484SOL     OW25851   1.678   0.851   0.058  0.7896 -0.2928  0.1504
 8484SOL    HW125852   1.616   0.878   0.125  0.6280  1.5807 -0.6725
 8484SOL    HW225853   1.757   0.902   0.076  1.4589 -1.2795  0.0981
 8485SOL     OW25854   3.967   4.376   4.877  0.1018  0.2243  0.6208
 8485SOL    HW125855   3.994   4.294   4.919  2.6383  0.7630  0.1842
 8485SOL    HW225856   4.008   4.373   4.790 -5.5778 -1.2434 -2.5256
 8486SOL     OW25857   1.190   5.641   1.113 -0.2678  0.3428  0.1261
 8486SOL    HW125858   1.228   5.564   1.070 -0.2466 -0.3972  1.4282
 8486SOL    HW225859   1.257   5.670   1.174 -0.8345  0.5466  0.6586
 8487SOL     OW25860   5.117   2.658   1.893 -0.0746 -0.0881 -0.1592
 8487SOL    HW125861   5.105   2.690   1.803  2.2351 -0.7653 -0.7834
 8487SOL    HW225862   5.143   2.736   1.942  2.2519 -0.2860 -0.9457
 8488SOL     OW25863   3.689   1.828   5.325  0.1514 -0.2239 -0.4210
 8488SOL    HW125864   3.774   1.844   5.285  0.2958  0.5135  0.1639
 8488SOL    HW225865   3.626   1.852   5.258  0.3959  0.2611 -0.4805
 8489SOL     OW25866   6.642   4.153   3.244  0.3633 -0.0140  0.3965
 8489SOL    HW125867   6.645   4.073   3.191  4.2719 -0.0256  0.3180
 8489SOL    HW225868   6.552   4.158   3.276 -0.7173 -2.9681 -1.7503
 8490SOL     OW25869   5.744   4.978   6.604 -0.0656 -0.3757 -0.3142
 8490SOL    HW125870   5.694   4.913   6.654 -0.4712 -0.2489 -0.5616
 8490SOL    HW225871   5.799   5.021   6.670 -0.2683 -0.5205 -0.0489
 8491SOL     OW25872   6.630   0.808   1.493  0.1778  0.3334 -0.1880
 8491SOL    HW125873   6.634   0.724   1.448 -0.0921  0.0642  0.2826
 8491SOL    HW225874   6.612   0.785   1.585  3.4822  0.6632  0.6754
 8492SOL     OW25875   3.493   5.763   4.794 -0.0823 -0.1325 -0.2529
 8492SOL    HW125876   3.499   5.742   4.701  0.2723 -1.0019 -0.0452
 8492SOL    HW225877   3.582   5.786   4.820 -0.3118  0.8618 -0.2809
 8493SOL     OW25878   2.309   5.473   0.125 -0.1064 -0.3314  0.1345
 8493SOL    HW125879   2.327   5.465   0.219 -1.2154 -1.0300  0.3170
 8493SOL    HW225880   2.340   5.391   0.088  0.1129 -0.1546 -0.0739
 8494SOL     OW25881   6.222   6.627   0.248 -0.4713 -0.0403 -0.5141
 8494SOL    HW125882   6.168   6.574   0.189 -0.3215 -0.7347 -0.0445
 8494SOL    HW225883   6.183   6.615   0.334  0.8050 -1.1074 -0.0499
 8495SOL     OW25884   4.584   3.800   5.926  0.2430 -0.6643 -0.1250
 8495SOL    HW125885   4.576   3.881   5.976 -0.9576 -0.9186  0.1361
 8495SOL    HW225886   4.578   3.827   5.834  1.2304 -0.3270 -0.1047
 8496SOL     OW25887   4.706   1.307   2.063 -0.1883 -0.6636  0.5433
 8496SOL    HW125888   4.697   1.387   2.012 -0.7616 -1.5652 -0.8241
 8496SOL    HW225889   4.625   1.258   2.046 -0.2731 -1.1282  2.1007
 8497SOL     OW25890   3.513   1.330   1.767 -0.3042  0.0073  0.5009
 8497SOL    HW125891   3.559   1.352   1.686 -0.5447  1.4690  0.7199
 8497SOL    HW225892   3.422   1.319   1.741 -0.3506  0.2962  0.5338
 8498SOL     OW25893   3.847   2.439   3.183  0.0228 -0.2454  0.3060
 8498SOL    HW125894   3.822   2.499   3.254  1.1191  0.0653  0.4567
 8498SOL    HW225895   3.818   2.483   3.103 -0.7682 -0.3570  0.5273
 8499SOL     OW25896   4.009   2.140   3.874  0.2642 -0.2473 -0.4273
 8499SOL    HW125897   4.080   2.167   3.817  0.7122 -1.5104 -0.5037
 8499SOL    HW225898   4.010   2.044   3.870 -0.5142 -0.3253  0.6912
 8500SOL     OW25899   3.412   6.534   2.157 -0.0683 -0.0891  0.2868
 8500SOL    HW125900   3.377   6.516   2.245  1.7368  1.7825  1.4973
 8500SOL    HW225901   3.497   6.576   2.174  0.3454  0.2963 -2.3791
 8501SOL     OW25902   3.495   3.068   3.428  0.1134  0.6627  0.0207
 8501SOL    HW125903   3.422   3.057   3.489 -0.3733  1.4492 -0.3955
 8501SOL    HW225904   3.518   3.160   3.435  3.4276 -0.1994  2.7230
 8502SOL     OW25905   2.256   5.762   5.444 -0.6658  0.3170 -0.2455
 8502SOL    HW125906   2.188   5.695   5.452  0.3025 -0.6755 -0.1609
 8502SOL    HW225907   2.209   5.845   5.457 -1.7500 -0.3768  0.4562
 8503SOL     OW25908   2.024   5.177   0.130 -0.6145 -0.1668  0.1111
 8503SOL    HW125909   2.116   5.167   0.106 -0.0051  0.0631  2.1756
 8503SOL    HW225910   2.025   5.193   0.224 -2.7291  0.6431  0.0545
 8504SOL     OW25911   4.751   1.305   3.299  0.1894 -0.3701  0.1831
 8504SOL    HW125912   4.659   1.317   3.274  0.1662  0.0565  0.4667
 8504SOL    HW225913   4.771   1.381   3.353  1.3538  0.6720 -1.6364
 8505SOL     OW25914   0.824   0.724   0.789 -0.2262  0.0970 -0.0304
 8505SOL    HW125915   0.735   0.758   0.782  0.2651  1.4379 -0.0906
 8505SOL    HW225916   0.827   0.681   0.875 -1.0347 -0.3473 -0.2125
 8506SOL     OW25917   2.880   2.055   5.637 -0.0373  0.0953  0.2580
 8506SOL    HW125918   2.849   2.144   5.649  1.2184  0.8868 -1.7868
 8506SOL    HW225919   2.820   2.001   5.689  0.4796  2.2602  3.3533
 8507SOL     OW25920   0.277   2.703   2.658 -0.7130  0.1325  0.3635
 8507SOL    HW125921   0.218   2.628   2.656 -0.3666 -0.2309  2.2469
 8507SOL    HW225922   0.255   2.749   2.740  1.5323  0.0179  1.0797
 8508SOL     OW25923   5.717   3.460   1.681 -0.0086 -0.1214 -0.2910
 8508SOL    HW125924   5.714   3.477   1.587  1.0752  5.1182  0.3491
 8508SOL    HW225925   5.645   3.512   1.717  1.2924  0.2445  1.9445
 8509SOL     OW25926   2.642   5.669   0.546  0.2141  0.6919 -0.2671
 8509SOL    HW125927   2.666   5.756   0.577 -0.4666  1.3389 -1.4444
 8509SOL    HW225928   2.675   5.666   0.456 -0.8398  0.2125 -0.6547
 8510SOL     OW25929   5.748   1.636   1.512 -0.1032  0.2466  0.2621
 8510SOL    HW125930   5.712   1.548   1.526  0.4656  0.0186  0.3150
 8510SOL    HW225931   5.831   1.621   1.466 -0.3267  0.7953 -0.3435
 8511SOL     OW25932   6.653   5.602   6.751  0.0600  0.0613  0.3524
 8511SOL    HW125933   6.670   5.673   6.690  2.3729 -0.3961  0.3646
 8511SOL    HW225934   6.724   5.608   6.815 -2.7822  1.1333  3.6632
 8512SOL     OW25935   4.378   5.437   3.232  0.0389  0.1544 -0.6816
 8512SOL    HW125936   4.394   5.343   3.246  1.6317  0.4756 -0.0729
 8512SOL    HW225937   4.453   5.480   3.273 -1.7716  1.8472  1.0975
 8513SOL     OW25938   6.761   5.401   1.645 -0.3478 -0.7353 -0.5614
 8513SOL    HW125939   6.815   5.480   1.639 -0.4268 -0.4735  1.4780
 8513SOL    HW225940   6.814   5.332   1.604  0.2760  0.1078 -1.1932
 8514SOL     OW25941   2.773   5.032   3.360  0.3298  0.4905 -0.2537
 8514SOL    HW125942   2.836   5.090   3.317  0.7913 -0.0155 -0.2774
 8514SOL    HW225943   2.752   4.967   3.293  2.2824 -1.2581  0.7092
 8515SOL     OW25944   4.707   1.453   2.526  0.7991 -0.0343  0.5114
 8515SOL    HW125945   4.676   1.394   2.458  0.2343  0.1371  0.6172
 8515SOL    HW225946   4.635   1.458   2.589  1.5023 -0.6021  1.3940
 8516SOL     OW25947   4.459   0.378   1.009 -0.3190 -0.4752 -0.8078
 8516SOL    HW125948   4.468   0.473   0.997  1.0143 -0.4168  0.3756
 8516SOL    HW225949   4.541   0.351   1.049 -1.3142 -1.8719  0.4148
 8517SOL     OW25950   3.347   6.490   1.233  0.4817 -0.4668  0.0504
 8517SOL    HW125951   3.353   6.399   1.202 -2.0132 -0.2990 -1.2242
 8517SOL    HW225952   3.257   6.516   1.212  1.2193  2.4238  0.0655
 8518SOL     OW25953   6.564   2.546   4.867  0.5286  0.4456  0.5544
 8518SOL    HW125954   6.601   2.599   4.797 -1.3921  2.1259  0.7159
 8518SOL    HW225955   6.637   2.530   4.927  1.5820  1.2671 -0.4813
 8519SOL     OW25956   5.507   1.078   2.764  0.1915 -0.5669  0.0599
 8519SOL    HW125957   5.531   1.023   2.690  1.2031  0.3119 -0.2951
 8519SOL    HW225958   5.590   1.094   2.810 -0.1284  0.3865  0.3363
 8520SOL     OW25959   5.355   1.000   3.921 -0.1216 -0.2721  0.0291
 8520SOL    HW125960   5.290   0.930   3.926 -1.7241  1.2242  1.7887
 8520SOL    HW225961   5.304   1.080   3.909  1.0918  1.2008  3.2879
 8521SOL     OW25962   2.990   4.286   1.880  0.1246 -0.1431 -0.3321
 8521SOL    HW125963   3.081   4.315   1.882  0.1434 -0.1549 -0.8404
 8521SOL    HW225964   2.944   4.353   1.828  0.2247 -1.1285 -1.7738
 8522SOL     OW25965   0.742   2.375   2.592 -0.2091 -0.1845 -0.2297
 8522SOL    HW125966   0.651   2.403   2.585 -0.5810 -1.2800 -0.0408
 8522SOL    HW225967   0.757   2.367   2.686 -0.5612 -1.9322 -0.2938
 8523SOL     OW25968   3.162   4.391   2.629 -0.6888 -0.6042  0.5008
 8523SOL    HW125969   3.162   4.365   2.537 -3.6104 -1.2060  0.5443
 8523SOL    HW225970   3.128   4.481   2.628 -2.2830 -1.1701  1.0271
 8524SOL     OW25971   0.124   2.068   5.157 -0.5426  0.0703  0.0308
 8524SOL    HW125972   0.126   1.974   5.174 -1.4103  0.1627  0.7505
 8524SOL    HW225973   0.210   2.088   5.122  0.0033 -0.8186  0.8144
 8525SOL     OW25974   3.040   4.374   1.611 -0.4731 -0.0651  0.2068
 8525SOL    HW125975   3.124   4.418   1.624  0.0220 -0.8514 -0.2218
 8525SOL    HW225976   3.018   4.392   1.519 -0.1765 -0.8420 -0.0253
 8526SOL     OW25977   3.024   5.443   4.473  0.1046 -0.5226  0.0442
 8526SOL    HW125978   2.936   5.471   4.498  0.0534 -1.9808  1.7133
 8526SOL    HW225979   3.064   5.521   4.434 -0.8208  1.1525  2.2196
 8527SOL     OW25980   2.858   4.866   2.445  0.0961 -0.3921  0.3173
 8527SOL    HW125981   2.867   4.919   2.525 -0.5349 -0.4969  0.4578
 8527SOL    HW225982   2.949   4.850   2.417  0.3359  2.2970 -0.7648
 8528SOL     OW25983   2.824   6.677   5.208  0.4171  0.4733  0.4140
 8528SOL    HW125984   2.861   6.750   5.259 -1.2464  1.4879  0.2569
 8528SOL    HW225985   2.768   6.630   5.270 -1.2306  1.4236 -0.2810
 8529SOL     OW25986   1.775   5.674   5.559  0.2337  0.5983 -0.1446
 8529SOL    HW125987   1.732   5.639   5.481  1.5156  1.3402 -1.2193
 8529SOL    HW225988   1.706   5.675   5.626 -1.5923  2.1425 -1.9101
 8530SOL     OW25989   2.433   2.153   2.351 -0.1885  0.2306  0.8486
 8530SOL    HW125990   2.490   2.094   2.401 -0.3786 -0.3337  0.4181
 8530SOL    HW225991   2.452   2.240   2.385  1.0252  0.0715  0.6324
 8531SOL     OW25992   0.190   3.803   1.482  0.4958 -0.5552  0.1752
 8531SOL    HW125993   0.125   3.815   1.552  0.5561 -1.0200  0.3138
 8531SOL    HW225994   0.213   3.892   1.456  0.2216 -0.3801  0.5152
 8532SOL     OW25995   0.192   6.284   4.943  0.1251 -0.0092 -0.1998
 8532SOL    HW125996   0.287   6.285   4.944  0.1715 -1.0835  1.3576
 8532SOL    HW225997   0.169   6.238   4.862  0.9101  0.4200 -0.6762
 8533SOL     OW25998   0.612   0.229   1.048  0.3374 -0.3968  0.0142
 8533SOL    HW125999   0.554   0.297   1.081  0.1686 -0.3065 -0.4604
 8533SOL    HW226000   0.689   0.232   1.105  0.4463  0.3676 -0.1657
 8534SOL     OW26001   3.352   2.593   6.694 -0.2565  0.9149 -0.4230
 8534SOL    HW126002   3.433   2.632   6.662  0.3149  0.8073  0.8122
 8534SOL    HW226003   3.318   2.542   6.620  2.0250 -0.9449 -0.3103
 8535SOL     OW26004   6.019   5.028   4.314 -0.0514 -0.1719  0.1125
 8535SOL    HW126005   5.975   4.974   4.248 -2.2736 -1.5502  2.5220
 8535SOL    HW226006   6.112   5.010   4.302 -0.4278 -1.0034 -2.0614
 8536SOL     OW26007   1.164   1.542   1.794 -0.3005 -0.4047 -0.4189
 8536SOL    HW126008   1.225   1.606   1.757  0.3590 -0.4666  0.5248
 8536SOL    HW226009   1.168   1.557   1.888 -1.9868 -0.2184 -0.3599
 8537SOL     OW26010   4.900   5.871   3.477  0.3118  0.4600  0.0056
 8537SOL    HW126011   4.878   5.943   3.536  0.5415  0.4481  0.1075
 8537SOL    HW226012   4.975   5.827   3.519 -0.5842 -0.5776  0.5691
 8538SOL     OW26013   5.958   1.351   0.829 -0.2150  0.0994 -0.1428
 8538SOL    HW126014   6.035   1.336   0.775  0.5856 -2.0104  1.4458
 8538SOL    HW226015   5.937   1.443   0.816  2.8485  0.8775 -0.2839
 8539SOL     OW26016   5.734   3.979   1.801 -0.2498 -0.5523 -0.2844
 8539SOL    HW126017   5.731   3.980   1.706 -0.1619 -0.1122 -0.2840
 8539SOL    HW226018   5.660   4.033   1.828  0.7592  0.7779 -0.1254
 8540SOL     OW26019   6.173   3.394   4.531 -0.4461  0.3755  0.1995
 8540SOL    HW126020   6.258   3.423   4.563 -0.6034  1.5415 -0.4017
 8540SOL    HW226021   6.113   3.465   4.554 -1.2100 -0.3015  0.3550
 8541SOL     OW26022   3.922   3.762   4.856  0.2050 -0.0435  0.1471
 8541SOL    HW126023   3.883   3.844   4.886 -0.5389 -0.6306  0.8393
 8541SOL    HW226024   3.901   3.698   4.924  0.4334 -0.9074 -0.5571
 8542SOL     OW26025   4.804   2.194   3.942  0.1981 -0.5854  0.0137
 8542SOL    HW126026   4.848   2.272   3.976 -0.8609  0.2637 -0.5233
 8542SOL    HW226027   4.747   2.226   3.873 -1.3390 -1.6327  0.7248
 8543SOL     OW26028   4.310   5.827   0.931  0.3928 -0.1358  0.3452
 8543SOL    HW126029   4.349   5.758   0.878 -1.0888  0.1212 -1.1543
 8543SOL    HW226030   4.258   5.879   0.870 -1.5885  0.0483  2.0504
 8544SOL     OW26031   3.374   4.894   1.670 -0.2094 -0.1171 -0.3591
 8544SOL    HW126032   3.348   4.984   1.650  0.6152 -0.0883 -1.4526
 8544SOL    HW226033   3.354   4.845   1.590  0.8608 -0.5484 -0.3898
 8545SOL     OW26034   2.746   3.557   6.178  0.6459  0.1114 -0.1041
 8545SOL    HW126035   2.758   3.462   6.172  0.0730  0.0427 -0.1849
 8545SOL    HW226036   2.704   3.570   6.263  1.1043  0.3373  0.0966
 8546SOL     OW26037   4.101   2.379   2.348  0.1037  0.0137 -0.3135
 8546SOL    HW126038   4.188   2.404   2.317 -0.4230  0.5408 -1.3911
 8546SOL    HW226039   4.055   2.349   2.270 -0.0221 -2.2933  0.5528
 8547SOL     OW26040   2.912   3.733   2.990 -0.0485 -0.3704  0.3125
 8547SOL    HW126041   2.847   3.675   3.030 -1.1252  0.4064 -0.2616
 8547SOL    HW226042   2.921   3.700   2.901  2.2903 -2.0528  1.0585
 8548SOL     OW26043   3.450   3.491   4.124 -0.3450  0.1992 -0.5989
 8548SOL    HW126044   3.524   3.543   4.093 -0.4789  0.3406 -0.6828
 8548SOL    HW226045   3.393   3.483   4.047  0.5569 -1.6434 -1.1395
 8549SOL     OW26046   3.335   5.419   3.474  0.3403  0.1920 -0.4788
 8549SOL    HW126047   3.347   5.475   3.397  0.7168 -1.0798 -1.3633
 8549SOL    HW226048   3.311   5.334   3.439  1.1940 -0.5982  0.7790
 8550SOL     OW26049   6.493   1.960   4.075 -0.4292 -0.0970 -0.0389
 8550SOL    HW126050   6.438   1.887   4.104 -0.7023  0.3827  0.6821
 8550SOL    HW226051   6.534   1.992   4.156  0.7743 -0.3292 -0.5346
 8551SOL     OW26052   6.317   0.543   1.495 -0.1485  0.0011 -0.0879
 8551SOL    HW126053   6.275   0.583   1.572  0.5713  0.0577  0.2835
 8551SOL    HW226054   6.286   0.453   1.495 -2.0937  0.6174 -1.1484
 8552SOL     OW26055   4.460   0.154   1.804 -0.5119 -0.6404  0.8162
 8552SOL    HW126056   4.458   0.143   1.709 -1.1992  1.2449  0.5575
 8552SOL    HW226057   4.371   0.132   1.833 -0.8915  0.6506  0.7234
 8553SOL     OW26058   4.951   6.524   5.223  0.0875  0.1183 -0.1211
 8553SOL    HW126059   4.864   6.557   5.245 -0.2338 -0.9632  0.3308
 8553SOL    HW226060   4.938   6.476   5.142  0.1228 -0.5549  0.2623
 8554SOL     OW26061   5.782   1.670   5.686 -0.3879  0.0132 -0.4891
 8554SOL    HW126062   5.694   1.698   5.662 -0.2720 -0.5524 -1.6239
 8554SOL    HW226063   5.825   1.651   5.603  0.8979  0.5219  0.0307
 8555SOL     OW26064   2.411   2.835   2.663 -0.2422 -0.3050 -0.1422
 8555SOL    HW126065   2.322   2.841   2.697 -0.2480  0.8998 -0.3336
 8555SOL    HW226066   2.447   2.923   2.671  0.5931 -0.5428 -0.9798
 8556SOL     OW26067   5.476   6.267   2.670 -0.3226  0.2235 -0.3442
 8556SOL    HW126068   5.449   6.180   2.701 -1.5518  0.4559 -0.7152
 8556SOL    HW226069   5.436   6.274   2.583 -0.7485  1.4219 -0.0553
 8557SOL     OW26070   1.134   0.847   0.279  0.3640  0.3857  0.5043
 8557SOL    HW126071   1.045   0.811   0.289 -0.1802  1.6670  0.4484
 8557SOL    HW226072   1.138   0.877   0.189  0.2612  1.8388  0.9656
 8558SOL     OW26073   6.715   6.237   2.943  0.4219  0.1673 -0.3215
 8558SOL    HW126074   6.759   6.176   3.002  0.4001  0.0286 -0.4468
 8558SOL    HW226075   6.678   6.304   3.001  1.8475  0.9844 -0.2814
 8559SOL     OW26076   3.558   1.609   5.634 -0.5143  0.3808  0.3824
 8559SOL    HW126077   3.555   1.547   5.708  0.2932  1.2519  1.1712
 8559SOL    HW226078   3.480   1.589   5.583 -1.1263 -0.2091  1.5045
 8560SOL     OW26079   2.622   6.437   1.493  0.0021 -0.1122 -0.2427
 8560SOL    HW126080   2.566   6.419   1.568  1.4945  0.8718  1.1790
 8560SOL    HW226081   2.704   6.392   1.512 -0.1663 -1.3830 -2.1987
 8561SOL     OW26082   4.570   1.270   1.708 -0.4766  0.1713 -0.0256
 8561SOL    HW126083   4.582   1.176   1.716 -1.5753  0.1709  2.2394
 8561SOL    HW226084   4.483   1.280   1.668 -0.6028  0.2209  0.2592
 8562SOL     OW26085   2.093   1.763   3.450  0.0902  0.7951  0.0491
 8562SOL    HW126086   2.145   1.808   3.517  1.1604  1.0944 -0.9437
 8562SOL    HW226087   2.158   1.719   3.396 -0.8893 -1.6053  0.7081
 8563SOL     OW26088   0.278   5.440   0.868  0.0600  0.4051  0.2945
 8563SOL    HW126089   0.225   5.375   0.915 -0.7273 -0.3370 -1.5453
 8563SOL    HW226090   0.251   5.432   0.777  3.5221 -0.1743 -0.8200
 8564SOL     OW26091   5.352   2.568   1.637 -0.6147  0.1589  0.8771
 8564SOL    HW126092   5.444   2.539   1.636 -0.3961  0.8411  0.8142
 8564SOL    HW226093   5.354   2.656   1.600 -1.9099 -1.4926 -3.7368
 8565SOL     OW26094   0.966   2.002   2.890  0.1374  0.0855 -0.1498
 8565SOL    HW126095   0.972   2.012   2.985  0.1093 -1.3364  0.0193
 8565SOL    HW226096   1.024   1.928   2.870 -1.1180 -0.7062 -1.0120
 8566SOL     OW26097   2.443   0.856   2.210 -0.0986  0.5718 -0.4076
 8566SOL    HW126098   2.387   0.822   2.281  0.5423 -1.0957 -0.6620
 8566SOL    HW226099   2.527   0.874   2.252  0.0225  0.3927 -0.5714
 8567SOL     OW26100   6.019   6.257   1.191 -0.5031  0.1259 -0.3468
 8567SOL    HW126101   6.005   6.163   1.201 -0.3134  0.0863 -0.4584
 8567SOL    HW226102   6.083   6.279   1.259 -0.3425  0.1252 -0.4978
 8568SOL     OW26103   5.975   0.200   3.067 -0.5778  0.0052 -0.7740
 8568SOL    HW126104   5.972   0.114   3.108  0.4608 -0.1567 -1.0039
 8568SOL    HW226105   5.972   0.262   3.141  0.0922 -0.2595 -0.5193
 8569SOL     OW26106   1.506   0.802   2.186  0.1667 -0.0920 -0.3591
 8569SOL    HW126107   1.499   0.768   2.097  0.1258  0.8356 -0.7205
 8569SOL    HW226108   1.419   0.837   2.206 -0.0564 -1.0197  0.3559
 8570SOL     OW26109   2.615   3.651   1.011 -0.0057 -0.4008 -0.3676
 8570SOL    HW126110   2.649   3.667   1.098 -0.0698 -0.7415 -0.2764
 8570SOL    HW226111   2.567   3.568   1.019 -0.9076  0.1038 -0.4774
 8571SOL     OW26112   5.843   4.451   0.302  0.3031 -0.6647  0.0302
 8571SOL    HW126113   5.892   4.404   0.234  0.9316  2.9706 -2.3053
 8571SOL    HW226114   5.758   4.467   0.262 -0.1786 -0.5255  1.1014
 8572SOL     OW26115   3.717   4.696   4.242 -0.1388  0.4654 -0.1304
 8572SOL    HW126116   3.649   4.634   4.265  1.5983 -1.7364 -0.5896
 8572SOL    HW226117   3.675   4.757   4.181 -2.0302  0.0817  0.7347
 8573SOL     OW26118   0.174   3.263   4.462 -0.3731 -0.2087 -0.6644
 8573SOL    HW126119   0.188   3.335   4.402  0.0846  1.6327  1.5014
 8573SOL    HW226120   0.262   3.240   4.494 -0.3778 -2.4914 -2.0444
 8574SOL     OW26121   3.750   1.242   0.926 -0.0997  0.2656  0.5875
 8574SOL    HW126122   3.753   1.302   1.000 -0.3751  0.7673  0.1943
 8574SOL    HW226123   3.791   1.290   0.854  1.3267 -0.6716  0.7251
 8575SOL     OW26124   0.519   0.716   1.867 -0.7529 -0.0983 -0.4072
 8575SOL    HW126125   0.508   0.796   1.919 -2.4337  0.6990 -1.8936
 8575SOL    HW226126   0.434   0.672   1.874  0.1525 -1.8191  0.4048
 8576SOL     OW26127   0.096   3.914   3.392 -0.0175  0.3848  0.1038
 8576SOL    HW126128   0.025   3.862   3.430 -0.8248  1.1585 -0.3007
 8576SOL    HW226129   0.153   3.935   3.466 -0.1951 -0.2524  0.4304
 8577SOL     OW26130   0.271   6.119   3.288 -0.4079  0.3858 -0.6946
 8577SOL    HW126131   0.334   6.063   3.334 -2.3016 -1.7437 -0.5610
 8577SOL    HW226132   0.314   6.205   3.286  1.8590 -0.6062  0.6558
 8578SOL     OW26133   1.273   0.033   3.159  0.1543  0.0285 -0.5693
 8578SOL    HW126134   1.278   0.124   3.188  0.1908  0.3808 -1.6410
 8578SOL    HW226135   1.263  -0.017   3.240  1.3521  0.8824  0.1329
 8579SOL     OW26136   3.840   4.035   0.872  0.6005 -0.0852  0.4343
 8579SOL    HW126137   3.821   3.945   0.898 -0.7832  0.4333  1.3079
 8579SOL    HW226138   3.923   4.029   0.824  0.0159 -1.9586 -0.4336
 8580SOL     OW26139   2.218   4.272   3.112 -0.1137  0.4289  0.4226
 8580SOL    HW126140   2.235   4.359   3.150  0.0838 -0.8960  3.6770
 8580SOL    HW226141   2.303   4.229   3.111 -0.4325 -0.2099  0.1046
 8581SOL     OW26142   5.062   6.639   2.957  0.4483 -0.0585  0.0597
 8581SOL    HW126143   5.152   6.642   2.924 -0.0529  0.0258 -1.3947
 8581SOL    HW226144   5.028   6.556   2.922  0.5038 -1.0342  2.1690
 8582SOL     OW26145   0.600   5.092   4.484 -0.2192 -0.2196 -0.7731
 8582SOL    HW126146   0.662   5.157   4.452  0.6330  0.4732  2.0369
 8582SOL    HW226147   0.648   5.042   4.550 -2.3690 -0.2029  0.9387
 8583SOL     OW26148   5.386   2.126   5.738 -0.3895 -0.0735 -0.7201
 8583SOL    HW126149   5.393   2.205   5.792  0.0953  1.4152 -2.8183
 8583SOL    HW226150   5.477   2.098   5.726 -0.4935 -0.4101 -0.7066
 8584SOL     OW26151   2.669   6.608   0.057  0.3144  0.1356  0.2361
 8584SOL    HW126152   2.752   6.655   0.058  0.5914 -0.2477 -1.5036
 8584SOL    HW226153   2.618   6.651  -0.012 -0.2715 -0.7190  0.1189
 8585SOL     OW26154   3.662   5.999   0.722  0.5837 -0.3327 -0.2637
 8585SOL    HW126155   3.618   5.973   0.641 -0.3952 -0.1516  0.1824
 8585SOL    HW226156   3.681   6.092   0.711  1.6162 -0.6030 -0.7879
 8586SOL     OW26157   2.456   2.147   0.620 -0.6034 -0.9053  0.0143
 8586SOL    HW126158   2.416   2.062   0.601  0.7670 -0.9370 -3.5880
 8586SOL    HW226159   2.454   2.193   0.536  2.4478  0.9562  0.7981
 8587SOL     OW26160   4.085   5.398   3.188  0.1653 -0.1320  0.1174
 8587SOL    HW126161   4.179   5.395   3.169  0.1627  1.9395 -0.4783
 8587SOL    HW226162   4.077   5.354   3.273  1.6724 -0.3309  0.1913
 8588SOL     OW26163   1.840   4.321   0.070 -0.0965  0.4378  0.5933
 8588SOL    HW126164   1.759   4.274   0.050  0.6253  0.0857 -1.8341
 8588SOL    HW226165   1.821   4.369   0.151 -2.1703 -0.8946  0.9597
 8589SOL     OW26166   0.225   3.781   3.194  0.4892 -0.2306  0.4946
 8589SOL    HW126167   0.310   3.775   3.238  0.5694 -0.4172  0.3162
 8589SOL    HW226168   0.168   3.823   3.258  0.0904 -2.2491  1.5460
 8590SOL     OW26169   1.364   3.309   5.033  0.3594  0.4204  0.4811
 8590SOL    HW126170   1.439   3.368   5.022 -0.8496  1.7703 -1.0612
 8590SOL    HW226171   1.289   3.360   5.003 -1.0408 -1.2571  0.9816
 8591SOL     OW26172   4.019   4.491   6.156  0.1603 -0.2080 -0.0028
 8591SOL    HW126173   4.000   4.406   6.194  0.4256 -0.9200 -1.4174
 8591SOL    HW226174   4.074   4.534   6.221 -0.8585 -0.6672  1.2083
 8592SOL     OW26175   1.868   3.547   5.000 -0.0497 -0.3293  0.1224
 8592SOL    HW126176   1.909   3.634   5.001  0.5189 -0.5962  1.1067
 8592SOL    HW226177   1.841   3.533   5.091 -1.3065 -0.6451 -0.2908
 8593SOL     OW26178   1.014   1.825   2.264  0.5559  0.5136  0.4280
 8593SOL    HW126179   1.096   1.846   2.309  0.5926 -0.7077  0.9674
 8593SOL    HW226180   0.956   1.899   2.284  0.6574  0.1228  2.2827
 8594SOL     OW26181   0.892   2.924   1.131  0.1753 -0.7609 -0.1355
 8594SOL    HW126182   0.815   2.916   1.188 -1.1082 -0.3778 -1.7302
 8594SOL    HW226183   0.864   2.884   1.048  1.7332 -0.6797 -0.7328
 8595SOL     OW26184   1.907   3.636   1.829 -0.3044  0.4228  0.2580
 8595SOL    HW126185   1.932   3.683   1.909  0.4502  0.5707 -0.0661
 8595SOL    HW226186   1.934   3.694   1.758 -0.6187  0.1084 -0.1169
 8596SOL     OW26187   4.964   2.537   4.689 -0.9772 -0.0242 -0.0804
 8596SOL    HW126188   4.875   2.567   4.711 -1.5829 -1.5617 -0.3342
 8596SOL    HW226189   5.020   2.610   4.716 -2.3311  1.1405 -0.2455
 8597SOL     OW26190   4.884   4.334   5.864  0.3225 -0.3173  0.4029
 8597SOL    HW126191   4.819   4.269   5.893 -1.8401  1.0389 -1.0983
 8597SOL    HW226192   4.927   4.293   5.789 -0.3123 -0.4159  0.0872
 8598SOL     OW26193   5.072   3.137   5.802  0.1744 -0.5333 -0.7853
 8598SOL    HW126194   5.110   3.101   5.882 -1.9481 -0.6267  0.2486
 8598SOL    HW226195   5.083   3.232   5.811  0.9612 -0.5990 -0.9580
 8599SOL     OW26196   1.459   1.167   3.276 -0.7348  0.1808 -0.5626
 8599SOL    HW126197   1.398   1.211   3.217 -2.3879 -0.9409  0.2244
 8599SOL    HW226198   1.461   1.076   3.246  0.7671  0.2263 -0.7059
 8600SOL     OW26199   6.776   3.815   1.735  0.0033 -0.7083  0.0535
 8600SOL    HW126200   6.702   3.873   1.719  0.4471 -0.4661 -1.3143
 8600SOL    HW226201   6.805   3.835   1.824 -2.2146 -1.5769  1.0504
 8601SOL     OW26202   0.795   3.247   0.054  0.1748  0.2648  0.2915
 8601SOL    HW126203   0.863   3.180   0.064 -1.1147 -1.1942 -0.4302
 8601SOL    HW226204   0.822   3.297  -0.024 -0.1916 -1.1230 -0.7733
 8602SOL     OW26205   2.867   3.705   0.875 -0.1403  0.3085  0.6547
 8602SOL    HW126206   2.869   3.795   0.845  0.9394 -0.1604 -0.7517
 8602SOL    HW226207   2.780   3.695   0.915 -1.1441  1.3507 -1.1568
 8603SOL     OW26208   4.689   4.626   1.424  0.4950  0.5233 -0.1533
 8603SOL    HW126209   4.637   4.547   1.408  3.8882 -1.7399 -1.1623
 8603SOL    HW226210   4.664   4.654   1.512 -1.9354 -0.7114 -0.3667
 8604SOL     OW26211   5.119   2.470   5.675 -0.3846  0.0776 -0.0243
 8604SOL    HW126212   5.140   2.384   5.637 -3.1497  0.6146 -3.2929
 8604SOL    HW226213   5.174   2.532   5.628 -1.1114  0.4170 -0.4428
 8605SOL     OW26214   4.307   4.663   4.439  0.1819  0.2694  0.4701
 8605SOL    HW126215   4.272   4.750   4.421 -0.7864  0.0604  1.2219
 8605SOL    HW226216   4.234   4.604   4.422 -0.0738 -0.1344  2.6269
 8606SOL     OW26217   3.938   2.493   1.629  0.5780  0.4202 -0.0913
 8606SOL    HW126218   3.951   2.469   1.537  0.4770 -0.1787  0.0457
 8606SOL    HW226219   3.962   2.585   1.633  1.3920  0.2453 -0.5577
 8607SOL     OW26220   5.122   2.396   3.235 -0.3203 -0.3457 -0.0797
 8607SOL    HW126221   5.041   2.444   3.215  0.0131  0.1477 -0.2684
 8607SOL    HW226222   5.179   2.462   3.274  0.2535 -0.5242 -0.6154
 8608SOL     OW26223   0.496   6.696   5.656 -0.2786  0.3597 -0.3348
 8608SOL    HW126224   0.490   6.713   5.562  0.1246 -1.6279 -0.7624
 8608SOL    HW226225   0.549   6.768   5.690 -0.0201  0.8545 -1.6995
 8609SOL     OW26226   3.857   6.670   0.067  0.7811  0.5818 -0.1544
 8609SOL    HW126227   3.766   6.649   0.091 -0.0019  3.0841 -0.5864
 8609SOL    HW226228   3.873   6.619  -0.012  1.1306 -2.7371  1.8443
 8610SOL     OW26229   3.807   4.680   2.496  0.0720  1.0232 -0.2451
 8610SOL    HW126230   3.899   4.682   2.468 -0.3373 -0.6238 -1.8630
 8610SOL    HW226231   3.768   4.757   2.455  0.0917  0.0939 -2.0952
 8611SOL     OW26232   3.484   1.544   3.454 -0.3774 -0.6901  0.1751
 8611SOL    HW126233   3.567   1.538   3.502 -0.9888 -1.0418  1.2022
 8611SOL    HW226234   3.437   1.465   3.478 -1.3557 -0.1010  0.2166
 8612SOL     OW26235   4.026   4.094   1.472 -0.1842  0.0412  0.4879
 8612SOL    HW126236   3.978   4.128   1.396 -1.8952  1.1340  1.9656
 8612SOL    HW226237   4.048   4.173   1.522 -1.1119 -0.7765  2.2443
 8613SOL     OW26238   0.480   1.010   1.238  0.1893 -0.0951 -0.0200
 8613SOL    HW126239   0.426   1.087   1.253  0.2276 -0.0596 -0.0639
 8613SOL    HW226240   0.515   0.988   1.325 -0.6869 -0.7135  0.1850
 8614SOL     OW26241   6.705   4.832   3.048 -0.1200 -0.2538  0.5043
 8614SOL    HW126242   6.635   4.785   3.002  1.3684 -0.4009 -1.7958
 8614SOL    HW226243   6.693   4.809   3.140 -4.0513  1.0117  0.5007
 8615SOL     OW26244   0.240   0.970   6.371 -0.2763 -0.0491 -0.0542
 8615SOL    HW126245   0.233   1.003   6.461  2.5923 -1.3150  0.7455
 8615SOL    HW226246   0.325   1.000   6.341 -0.0339 -1.8484 -1.3534
 8616SOL     OW26247   3.526   3.425   2.204 -0.0674 -0.0829  0.0437
 8616SOL    HW126248   3.460   3.430   2.273  1.0320  2.4738  1.0478
 8616SOL    HW226249   3.490   3.478   2.133 -0.0645 -0.5532 -0.3105
 8617SOL     OW26250   5.834   0.945   0.940  0.1011  0.5622  0.0796
 8617SOL    HW126251   5.814   0.963   0.848 -2.9887 -0.1626  0.4919
 8617SOL    HW226252   5.843   1.032   0.980  0.3019  0.8996 -0.6800
 8618SOL     OW26253   6.683   1.286   2.975  0.2061 -0.2840  0.0428
 8618SOL    HW126254   6.707   1.354   2.911  0.6612 -0.1683  0.3348
 8618SOL    HW226255   6.754   1.287   3.039 -0.6732  0.2062  1.0345
 8619SOL     OW26256   4.940   6.129   0.736 -0.2525 -0.7484 -0.2489
 8619SOL    HW126257   5.000   6.060   0.763 -0.9314 -1.3649 -0.2947
 8619SOL    HW226258   4.854   6.087   0.732 -0.5971 -0.0274 -0.7632
 8620SOL     OW26259   6.148   0.596   1.690 -0.4121  0.4877  0.1567
 8620SOL    HW126260   6.053   0.595   1.705 -0.7436 -3.0759 -1.2026
 8620SOL    HW226261   6.183   0.531   1.751  0.5933 -0.8760 -1.7505
 8621SOL     OW26262   0.268   1.665   0.786 -0.3039 -0.0083 -0.1391
 8621SOL    HW126263   0.258   1.648   0.692  0.4694 -0.0389 -0.2201
 8621SOL    HW226264   0.304   1.753   0.791 -3.6109  1.4749  0.2619
 8622SOL     OW26265   3.081   3.496   1.601  0.3304 -0.4816 -0.8485
 8622SOL    HW126266   3.154   3.436   1.617  0.1559 -0.1716  1.3945
 8622SOL    HW226267   3.043   3.512   1.687  0.3992  2.9031 -1.2906
 8623SOL     OW26268   3.372   5.146   1.348 -0.1474  0.1086  0.0672
 8623SOL    HW126269   3.416   5.070   1.309  0.7471  0.3137  0.6416
 8623SOL    HW226270   3.365   5.125   1.441 -0.0416  0.6506  0.2048
 8624SOL     OW26271   3.044   0.749   6.176 -0.4264  0.2284 -0.0820
 8624SOL    HW126272   3.018   0.732   6.085 -1.1313  0.5180  0.0603
 8624SOL    HW226273   3.020   0.840   6.191  0.7325  0.5308  0.0485
 8625SOL     OW26274   1.486   2.241   4.114  0.5193  0.2512  0.6314
 8625SOL    HW126275   1.539   2.212   4.040 -0.4285  0.2010 -0.0287
 8625SOL    HW226276   1.417   2.175   4.122  0.8411  0.0310  1.8200
 8626SOL     OW26277   1.648   2.195   2.069  0.1257  0.6063 -0.3600
 8626SOL    HW126278   1.620   2.204   2.160  0.7297 -1.9160  0.1465
 8626SOL    HW226279   1.730   2.243   2.064  0.1371  0.6869  0.4562
 8627SOL     OW26280   2.893   0.831   0.302  0.5096  0.2638  0.0374
 8627SOL    HW126281   2.863   0.747   0.267 -0.5211  0.9993 -0.9440
 8627SOL    HW226282   2.980   0.843   0.264  1.4080 -1.1079  1.5440
 8628SOL     OW26283   1.216   1.412   0.126 -0.1461  0.1825  0.3044
 8628SOL    HW126284   1.289   1.400   0.066 -1.6393 -0.4466 -1.4765
 8628SOL    HW226285   1.157   1.473   0.081 -0.5730  0.9647  1.8579
 8629SOL     OW26286   0.809   3.421   2.482 -0.0903  0.0589  0.5383
 8629SOL    HW126287   0.818   3.335   2.525  0.5294 -0.3970 -0.4568
 8629SOL    HW226288   0.890   3.467   2.503  0.7663 -0.6237 -1.0640
 8630SOL     OW26289   1.776   2.025   3.063  0.3936  0.5548 -0.1154
 8630SOL    HW126290   1.832   2.011   3.139  1.0560  0.8073 -0.5540
 8630SOL    HW226291   1.708   2.086   3.094  0.2356  0.0834  0.4707
 8631SOL     OW26292   6.664   4.969   4.557 -0.0255 -0.3115 -0.0137
 8631SOL    HW126293   6.569   4.979   4.558 -0.0209 -0.0094  2.0578
 8631SOL    HW226294   6.694   5.011   4.637  1.7246 -1.6616  0.1184
 8632SOL     OW26295   3.589   0.860   3.675 -0.0514 -0.5354 -0.4399
 8632SOL    HW126296   3.516   0.903   3.721  0.8455 -1.2377  1.7561
 8632SOL    HW226297   3.559   0.770   3.662  0.4469 -0.8600  0.5847
 8633SOL     OW26298   2.940   2.186   4.174  0.0050  0.3457 -0.0417
 8633SOL    HW126299   2.979   2.216   4.256 -0.4833  1.2055 -0.1098
 8633SOL    HW226300   3.004   2.124   4.138  0.1742 -0.1177  1.0331
 8634SOL     OW26301   4.333   2.440   1.929  0.4389  0.5794 -0.2391
 8634SOL    HW126302   4.267   2.476   1.869  0.7418  0.3884 -0.6978
 8634SOL    HW226303   4.395   2.395   1.871  1.0776  0.9279  0.1624
 8635SOL     OW26304   4.226   3.799   6.197  0.6435 -0.1835  0.3016
 8635SOL    HW126305   4.256   3.740   6.266  1.3442 -0.3586 -0.1431
 8635SOL    HW226306   4.267   3.766   6.117  1.1611  0.9685  0.0580
 8636SOL     OW26307   4.149   4.881   1.906  0.0655  0.2611 -0.1465
 8636SOL    HW126308   4.184   4.934   1.977  0.8865 -0.4088 -0.0433
 8636SOL    HW226309   4.116   4.945   1.842  0.6709  0.8894  0.1562
 8637SOL     OW26310   5.659   2.872   3.272 -0.0646 -0.0147 -0.3721
 8637SOL    HW126311   5.672   2.838   3.184 -2.4474 -1.5200 -0.2246
 8637SOL    HW226312   5.628   2.798   3.323  2.8006  0.3757  2.2716
 8638SOL     OW26313   3.167   3.930   0.113 -0.1039  0.8739 -0.7970
 8638SOL    HW126314   3.109   3.947   0.188 -0.5432 -0.4119 -0.8245
 8638SOL    HW226315   3.255   3.926   0.152 -0.2296  1.0959 -0.4839
 8639SOL     OW26316   5.750   5.597   4.267 -0.4554 -0.0747 -0.5352
 8639SOL    HW126317   5.770   5.531   4.333  0.3368  1.2272  0.5620
 8639SOL    HW226318   5.656   5.613   4.277 -0.5940 -0.7910 -0.6071
 8640SOL     OW26319   2.812   1.366   1.127  0.4104 -0.3198 -0.3668
 8640SOL    HW126320   2.760   1.403   1.198 -1.6060 -1.2772 -1.2920
 8640SOL    HW226321   2.766   1.287   1.102  2.2844 -1.1669 -1.3176
 8641SOL     OW26322   2.815   1.786   0.272 -0.2296 -0.0026 -0.1593
 8641SOL    HW126323   2.802   1.795   0.178 -2.1768 -0.3847  0.0192
 8641SOL    HW226324   2.861   1.703   0.282 -1.5733 -0.8475 -0.7165
 8642SOL     OW26325   2.981   6.648   6.303  0.9775 -0.6252 -0.8086
 8642SOL    HW126326   3.014   6.621   6.217  0.4825 -0.2622 -1.1128
 8642SOL    HW226327   3.058   6.684   6.348  0.6906  1.8550 -2.1589
 8643SOL     OW26328   1.161   6.535   2.608 -0.0334  0.2003 -0.1447
 8643SOL    HW126329   1.204   6.522   2.524  0.4494  0.7209  0.0175
 8643SOL    HW226330   1.078   6.577   2.587  0.4109  1.0083 -0.3061
 8644SOL     OW26331   6.031   2.222   1.032 -0.9378  0.6065 -0.0910
 8644SOL    HW126332   6.099   2.255   0.973 -0.1192 -1.5519 -0.4713
 8644SOL    HW226333   5.958   2.200   0.974 -0.7980  0.1410 -0.1014
 8645SOL     OW26334   3.153   3.945   5.881  0.1119  0.0600  0.7418
 8645SOL    HW126335   3.104   3.967   5.960  0.5652  0.2107  0.9883
 8645SOL    HW226336   3.162   3.849   5.885 -0.0788  0.0427  0.7463
 8646SOL     OW26337   5.401   5.542   5.518  0.6263 -0.5854  0.7784
 8646SOL    HW126338   5.330   5.478   5.522  0.2417 -0.6972 -3.4352
 8646SOL    HW226339   5.466   5.510   5.581 -1.5636 -2.3526  2.3032
 8647SOL     OW26340   0.277   3.102   2.944 -0.1878 -0.7606 -0.0847
 8647SOL    HW126341   0.300   3.012   2.918  1.4931 -0.3537 -0.1274
 8647SOL    HW226342   0.335   3.121   3.018  1.0632  1.0241 -1.4379
 8648SOL     OW26343   6.284   1.345   3.168  0.1199 -0.3679  0.1240
 8648SOL    HW126344   6.254   1.304   3.249 -2.9512 -0.5732 -0.9982
 8648SOL    HW226345   6.254   1.435   3.173  1.4993  0.1336 -0.0677
 8649SOL     OW26346   0.940   5.824   1.819  0.2925  0.2448 -0.5979
 8649SOL    HW126347   1.006   5.892   1.806  1.7287 -1.0736 -0.4612
 8649SOL    HW226348   0.984   5.743   1.796 -1.4319 -0.6556 -0.9114
 8650SOL     OW26349   6.521   3.193   6.586  0.0161 -0.0598  0.2731
 8650SOL    HW126350   6.559   3.105   6.586 -0.7378 -0.4059 -0.2263
 8650SOL    HW226351   6.528   3.222   6.677 -0.1096 -0.8117  0.5365
 8651SOL     OW26352   4.740   5.911   4.083 -0.1047 -0.4366  0.5432
 8651SOL    HW126353   4.690   5.993   4.078  0.1225 -0.3920 -3.1447
 8651SOL    HW226354   4.828   5.934   4.056  0.2053 -1.7403  0.3777
 8652SOL     OW26355   4.510   5.719   3.761  0.5129 -0.1308 -0.1969
 8652SOL    HW126356   4.505   5.814   3.771 -2.2131 -0.3794  1.9343
 8652SOL    HW226357   4.464   5.702   3.679 -0.4677  0.2916  0.2567
 8653SOL     OW26358   6.651   4.783   6.646 -0.3186 -0.3926 -0.7393
 8653SOL    HW126359   6.726   4.821   6.691 -0.6737  0.1742 -0.6165
 8653SOL    HW226360   6.604   4.858   6.609 -1.4005 -0.6342  0.0702
 8654SOL     OW26361   5.952   1.429   3.505 -0.0897  0.6014  0.1585
 8654SOL    HW126362   5.934   1.358   3.443  0.0232  0.9905 -0.3250
 8654SOL    HW226363   6.000   1.494   3.454 -0.5514  1.2130  0.4934
 8655SOL     OW26364   4.453   0.181   4.930  0.0134 -0.2033 -0.4133
 8655SOL    HW126365   4.483   0.211   5.015 -1.2818  0.0856 -0.0403
 8655SOL    HW226366   4.514   0.112   4.906  0.3798 -0.3052  0.7628
 8656SOL     OW26367   1.405   4.213   3.442  0.2102 -0.4022 -0.0545
 8656SOL    HW126368   1.496   4.240   3.429 -0.2422  1.7756  0.9013
 8656SOL    HW226369   1.354   4.289   3.414 -1.2355 -0.8183  1.3454
 8657SOL     OW26370   5.859   0.519   1.350 -0.2289  0.1613 -0.0630
 8657SOL    HW126371   5.867   0.497   1.443  1.8686 -0.5274 -0.3356
 8657SOL    HW226372   5.918   0.594   1.338 -1.5212  1.1229 -0.6045
 8658SOL     OW26373   0.459   2.998   4.980 -0.4375 -0.2794  0.6559
 8658SOL    HW126374   0.495   3.023   5.065  0.4820  0.3474  0.1003
 8658SOL    HW226375   0.368   3.027   4.982  0.0144  1.1943  0.8367
 8659SOL     OW26376   2.509   1.466   3.028 -0.0896 -0.1766 -0.2369
 8659SOL    HW126377   2.577   1.490   3.091 -1.8443  0.5400  1.5008
 8659SOL    HW226378   2.427   1.484   3.074 -1.4676 -0.2688 -2.5147
 8660SOL     OW26379   5.015   4.952   4.672  0.0602  0.4739 -0.2877
 8660SOL    HW126380   5.087   4.967   4.611 -0.3891 -0.8949 -1.2052
 8660SOL    HW226381   4.958   5.028   4.662  0.6309  0.8568 -0.6463
 8661SOL     OW26382   5.797   3.151   1.615  0.8661  0.2535 -0.1141
 8661SOL    HW126383   5.722   3.211   1.604 -0.6117 -1.1826  1.4446
 8661SOL    HW226384   5.825   3.165   1.705  3.9733  2.2888 -1.2606
 8662SOL     OW26385   5.248   3.257   0.445 -0.4561 -0.2305  0.1265
 8662SOL    HW126386   5.182   3.318   0.412 -0.3305 -0.3405 -0.3280
 8662SOL    HW226387   5.229   3.250   0.539 -0.4733  0.5057  0.1859
 8663SOL     OW26388   5.961   5.017   0.464  0.0348 -0.2590  0.2306
 8663SOL    HW126389   5.983   5.017   0.558 -1.1954 -1.0343  0.5468
 8663SOL    HW226390   5.876   5.061   0.460  0.2235  0.0374 -0.5681
 8664SOL     OW26391   2.367   2.015   1.493 -0.0661  0.1871  0.0624
 8664SOL    HW126392   2.424   2.091   1.503 -0.2102  0.3692 -0.4562
 8664SOL    HW226393   2.356   1.981   1.581  0.4434  0.4463  0.2270
 8665SOL     OW26394   5.171   4.117   3.670  0.6560 -0.2368 -0.0816
 8665SOL    HW126395   5.153   4.034   3.627 -0.0492  1.0038 -2.4007
 8665SOL    HW226396   5.263   4.136   3.648  0.9431 -0.5742  0.7948
 8666SOL     OW26397   3.999   4.753   4.214 -0.1266 -0.0764  0.6300
 8666SOL    HW126398   4.032   4.667   4.187 -0.5013 -0.5342  1.5694
 8666SOL    HW226399   3.905   4.741   4.221 -0.4987  1.0805 -1.5117
 8667SOL     OW26400   5.154   1.325   0.443 -0.0715 -0.0957 -0.8606
 8667SOL    HW126401   5.082   1.328   0.506  0.3197  1.1382 -0.4268
 8667SOL    HW226402   5.214   1.260   0.479 -0.6398 -0.6231 -0.8567
 8668SOL     OW26403   3.093   3.624   6.352 -0.0524 -0.1533  0.1085
 8668SOL    HW126404   3.041   3.601   6.429  1.4872  0.7686  1.4876
 8668SOL    HW226405   3.180   3.643   6.387  0.2962  1.8568 -1.6568
 8669SOL     OW26406   4.108   5.736   6.544 -0.9525  0.2152  0.2472
 8669SOL    HW126407   4.105   5.795   6.619 -0.8137 -0.8744  1.1302
 8669SOL    HW226408   4.176   5.672   6.566 -0.8037 -0.0349 -0.8753
 8670SOL     OW26409   6.418   2.290   2.587 -0.4923 -0.3338  0.4043
 8670SOL    HW126410   6.496   2.346   2.589  0.4778 -1.5517 -1.1383
 8670SOL    HW226411   6.453   2.202   2.579 -2.0453 -1.0035  0.7167
 8671SOL     OW26412   5.414   0.354   5.569 -0.3876  0.3432  0.3969
 8671SOL    HW126413   5.486   0.302   5.606  0.1548  1.1001  0.4204
 8671SOL    HW226414   5.336   0.321   5.613 -0.2089 -1.2062 -0.3752
 8672SOL     OW26415   0.817   2.852   6.715 -0.7335  0.2658 -0.6668
 8672SOL    HW126416   0.739   2.874   6.665 -0.9123  1.2941  0.0261
 8672SOL    HW226417   0.872   2.804   6.653 -1.8092 -0.2910 -1.2246
 8673SOL     OW26418   1.623   3.705   0.422  0.2597 -0.0768  0.2723
 8673SOL    HW126419   1.659   3.656   0.348  0.0662  1.2478 -0.7152
 8673SOL    HW226420   1.540   3.739   0.391 -0.1510 -0.0664  1.3442
 8674SOL     OW26421   4.579   6.656   2.577 -0.1091 -0.7114 -0.3080
 8674SOL    HW126422   4.544   6.587   2.634 -2.0044 -0.3289 -0.9573
 8674SOL    HW226423   4.537   6.736   2.607  0.1312 -0.2385 -1.1957
 8675SOL     OW26424   4.298   4.249   4.365  0.4634  0.7569  0.5238
 8675SOL    HW126425   4.213   4.256   4.322  0.5874  0.7273  0.2736
 8675SOL    HW226426   4.284   4.183   4.433  0.7606 -0.6220 -0.7048
 8676SOL     OW26427   3.185   5.574   1.176  0.1251 -0.3785 -0.7252
 8676SOL    HW126428   3.216   5.644   1.119  0.8834  1.5465  1.8589
 8676SOL    HW226429   3.095   5.598   1.197  0.5063  0.0887  0.4650
 8677SOL     OW26430   5.918   0.195   0.023 -0.3569  0.5039 -0.4104
 8677SOL    HW126431   5.934   0.285  -0.002  1.2769  0.2078 -0.5506
 8677SOL    HW226432   6.004   0.162   0.049 -0.8301 -1.1546 -0.8343
 8678SOL     OW26433   4.675   0.925   4.804 -0.1929  0.1840  0.6502
 8678SOL    HW126434   4.771   0.928   4.801 -0.2049 -0.0508 -0.2523
 8678SOL    HW226435   4.649   0.908   4.714 -1.0355 -1.3345  1.1394
 8679SOL     OW26436   5.543   2.242   2.610  0.3530  0.0060 -0.2451
 8679SOL    HW126437   5.556   2.153   2.643  1.4088 -0.4504 -1.7979
 8679SOL    HW226438   5.491   2.232   2.530 -1.7155  1.0464  0.8761
 8680SOL     OW26439   3.620   2.023   6.137  0.3670 -0.0881  0.1379
 8680SOL    HW126440   3.602   2.116   6.151  0.7156  0.1176 -0.7489
 8680SOL    HW226441   3.715   2.017   6.127  0.2549 -0.3970 -0.8202
 8681SOL     OW26442   5.777   6.194   3.896  0.0254 -0.2545 -0.1972
 8681SOL    HW126443   5.800   6.239   3.815  2.1562 -0.0576  0.4617
 8681SOL    HW226444   5.745   6.263   3.953  0.5334 -0.0418 -0.1655
 8682SOL     OW26445   5.172   6.771   2.132 -0.0588  0.3174  0.4110
 8682SOL    HW126446   5.089   6.726   2.118 -0.3024  0.5773  0.9981
 8682SOL    HW226447   5.197   6.750   2.222  0.4060  0.4138  0.3108
 8683SOL     OW26448   0.742   4.723   5.149  0.2374 -0.2099  0.2124
 8683SOL    HW126449   0.689   4.663   5.097 -0.4420 -0.5910  1.3219
 8683SOL    HW226450   0.735   4.806   5.102  0.6739 -0.8266 -0.9908
 8684SOL     OW26451   5.030   6.358   3.634 -0.5241 -0.4371 -0.3324
 8684SOL    HW126452   4.975   6.281   3.650 -1.4587 -0.1711 -2.0038
 8684SOL    HW226453   5.079   6.336   3.554  1.6204 -0.5370  0.9492
 8685SOL     OW26454   4.769   3.552   4.750 -0.1458 -0.4109 -0.7450
 8685SOL    HW126455   4.726   3.476   4.709  1.1742 -1.5195 -0.1608
 8685SOL    HW226456   4.854   3.518   4.780  0.0540  1.0567  0.4517
 8686SOL     OW26457   4.957   6.322   4.945  0.1584  0.4198  0.0735
 8686SOL    HW126458   5.042   6.356   4.915 -0.2670  0.4877 -1.1059
 8686SOL    HW226459   4.893   6.365   4.889 -0.5332 -0.8757 -0.1741
 8687SOL     OW26460   1.159   1.727   0.146  0.4716 -0.0577 -0.2492
 8687SOL    HW126461   1.127   1.817   0.142 -1.8755 -0.8068  0.2783
 8687SOL    HW226462   1.142   1.691   0.060  1.6015  0.0213 -0.5255
 8688SOL     OW26463   0.579   3.369   4.782 -0.2195 -0.6067 -0.3808
 8688SOL    HW126464   0.509   3.305   4.765  0.1351 -1.3078  0.6774
 8688SOL    HW226465   0.660   3.319   4.775  0.0967 -0.1435 -0.1123
 8689SOL     OW26466   5.733   4.436   3.681 -0.1154 -0.0798 -0.2718
 8689SOL    HW126467   5.639   4.425   3.695 -0.4478  3.8027  1.8738
 8689SOL    HW226468   5.739   4.494   3.605  0.2728  2.0378  1.2833
 8690SOL     OW26469   5.481   6.281   1.209 -0.4441  0.0272  0.0655
 8690SOL    HW126470   5.464   6.375   1.215 -0.6124 -0.0112  0.2022
 8690SOL    HW226471   5.577   6.274   1.211 -0.4422  0.1649  0.5712
 8691SOL     OW26472   1.696   5.329   4.602 -0.5157 -0.3113 -0.4585
 8691SOL    HW126473   1.658   5.254   4.556 -0.7569 -1.2025  1.1308
 8691SOL    HW226474   1.730   5.293   4.683  0.7470  1.0623 -0.3364
 8692SOL     OW26475   2.144   5.668   6.024  0.5024  0.0417 -0.1919
 8692SOL    HW126476   2.155   5.633   5.935 -0.2803 -1.1946  0.1655
 8692SOL    HW226477   2.098   5.751   6.011 -0.4023 -0.5503 -0.9080
 8693SOL     OW26478   4.663   1.536   4.585  0.3036 -0.0627 -0.0895
 8693SOL    HW126479   4.726   1.603   4.612 -0.9335  1.2929 -0.4352
 8693SOL    HW226480   4.628   1.502   4.667 -0.1443  0.8041  0.0954
 8694SOL     OW26481   6.665   4.152   5.606 -0.0578  0.2448 -0.0921
 8694SOL    HW126482   6.594   4.201   5.647  0.3522  1.0640 -0.3379
 8694SOL    HW226483   6.723   4.219   5.570  0.2328 -0.4405 -0.9255
 8695SOL     OW26484   1.101   0.565   2.943 -0.5224  0.1478 -0.6695
 8695SOL    HW126485   1.180   0.517   2.919 -0.7011  0.1525 -1.2884
 8695SOL    HW226486   1.038   0.498   2.967 -0.0823  0.1750  0.6440
 8696SOL     OW26487   1.908   0.113   3.431 -0.3779  0.3690 -0.4679
 8696SOL    HW126488   1.820   0.083   3.410 -0.3513 -1.2179  1.4700
 8696SOL    HW226489   1.958   0.033   3.446  1.4255  1.2407 -1.5152
 8697SOL     OW26490   1.838   1.639   3.452  0.3621  0.4464  0.1322
 8697SOL    HW126491   1.908   1.689   3.494  1.1390 -0.8760  0.4833
 8697SOL    HW226492   1.764   1.699   3.449  0.8669  1.1954  1.6717
 8698SOL     OW26493   1.288   2.230   6.201 -0.2309  0.3343  0.9018
 8698SOL    HW126494   1.363   2.258   6.150 -0.7477 -0.9781 -0.6458
 8698SOL    HW226495   1.297   2.276   6.285  1.2229  1.6788  0.0408
 8699SOL     OW26496   6.354   5.388   6.230  0.0482 -0.2039  0.1033
 8699SOL    HW126497   6.357   5.402   6.325 -0.2081  2.1574 -0.1724
 8699SOL    HW226498   6.445   5.383   6.203  0.1268 -0.5575  0.4256
 8700SOL     OW26499   0.689   1.914   1.190  0.0329 -0.2138 -0.1150
 8700SOL    HW126500   0.741   1.978   1.239  0.9603 -0.1269 -1.1523
 8700SOL    HW226501   0.737   1.832   1.198  1.2125  0.1684 -2.2625
 8701SOL     OW26502   3.434   4.117   4.244 -0.0271  0.4527  0.2504
 8701SOL    HW126503   3.476   4.111   4.330 -1.7481 -2.1007  0.9955
 8701SOL    HW226504   3.341   4.125   4.263 -0.4419 -0.1252 -1.3948
 8702SOL     OW26505   3.546   3.419   6.449  0.0300 -0.4756 -0.2719
 8702SOL    HW126506   3.492   3.445   6.523 -0.4133 -1.9404 -0.0498
 8702SOL    HW226507   3.493   3.354   6.402  2.3071 -3.6254  1.1605
 8703SOL     OW26508   1.223   3.580   4.113 -0.1074  0.6644  0.6516
 8703SOL    HW126509   1.272   3.649   4.069 -0.3538  0.5362  0.1710
 8703SOL    HW226510   1.264   3.499   4.083 -0.0465  0.5864  0.9401
 8704SOL     OW26511   5.887   0.488   3.844 -0.1449 -0.0725 -0.2866
 8704SOL    HW126512   5.914   0.520   3.930 -0.0447  2.9421 -1.3115
 8704SOL    HW226513   5.879   0.393   3.855  2.3129 -0.1204  2.3452
 8705SOL     OW26514   3.583   3.174   6.181 -0.8675 -0.5544 -0.3248
 8705SOL    HW126515   3.517   3.134   6.125  0.7291 -0.6227 -2.2915
 8705SOL    HW226516   3.658   3.114   6.175 -0.9141 -1.1000  2.7605
 8706SOL     OW26517   1.451   4.085   4.987  0.1566  0.1046  0.3386
 8706SOL    HW126518   1.444   4.034   4.906 -0.4873 -1.4242  1.3004
 8706SOL    HW226519   1.446   4.176   4.959 -0.6156 -0.4010 -1.2947
 8707SOL     OW26520   4.551   1.065   1.263  0.2576 -0.7081  0.7943
 8707SOL    HW126521   4.472   1.115   1.285 -0.1449 -1.6785  1.6788
 8707SOL    HW226522   4.610   1.129   1.223 -0.6779  0.2053  0.8305
 8708SOL     OW26523   5.493   3.612   1.757  0.2563  0.0056 -0.1828
 8708SOL    HW126524   5.400   3.605   1.776  0.1619 -3.0768 -1.1502
 8708SOL    HW226525   5.535   3.621   1.843 -0.8993  2.1882  0.2143
 8709SOL     OW26526   4.784   0.697   3.507 -0.1658  0.2008  0.3419
 8709SOL    HW126527   4.828   0.612   3.518 -2.3024 -0.8131  1.9061
 8709SOL    HW226528   4.814   0.749   3.581 -0.7864 -0.1455  0.8525
 8710SOL     OW26529   0.576   5.350   2.076 -0.4989 -0.1007 -0.2323
 8710SOL    HW126530   0.619   5.431   2.047 -0.8436 -0.6364 -2.3829
 8710SOL    HW226531   0.647   5.297   2.112  0.2337  0.0188 -1.4627
 8711SOL     OW26532   2.185   3.621   5.700  0.5776 -0.0725 -0.2396
 8711SOL    HW126533   2.162   3.626   5.607  0.3463  0.3044 -0.1660
 8711SOL    HW226534   2.197   3.528   5.716 -0.2899 -0.2311 -0.4414
 8712SOL     OW26535   0.850   4.301   0.775  0.1260 -0.0811 -0.0168
 8712SOL    HW126536   0.863   4.327   0.684  0.5514  1.0213  0.3412
 8712SOL    HW226537   0.758   4.278   0.781  0.3686 -1.4432 -1.0215
 8713SOL     OW26538   0.352   1.147   1.700  0.2264 -0.7507  0.3531
 8713SOL    HW126539   0.282   1.168   1.762 -1.8458 -0.4716 -1.9688
 8713SOL    HW226540   0.327   1.190   1.619  2.4539 -1.7166 -0.9444
 8714SOL     OW26541   0.297   6.259   5.207 -0.1221  0.6640 -0.0322
 8714SOL    HW126542   0.252   6.279   5.289  0.6069 -0.2680  0.6172
 8714SOL    HW226543   0.236   6.288   5.139 -1.2190  0.4597  0.8256
 8715SOL     OW26544   5.415   5.622   3.601  0.2684  0.2130  0.1711
 8715SOL    HW126545   5.490   5.675   3.626  0.1940  0.1681  0.4924
 8715SOL    HW226546   5.449   5.558   3.538  0.5311  0.0753  0.4558
 8716SOL     OW26547   1.136   4.247   6.574  0.2471 -0.1703  0.0047
 8716SOL    HW126548   1.211   4.236   6.632  0.1706  0.4220  0.2305
 8716SOL    HW226549   1.084   4.315   6.617  0.2404  0.3434 -0.8082
 8717SOL     OW26550   0.458   2.391   5.807 -0.0402  0.2119 -0.3060
 8717SOL    HW126551   0.374   2.427   5.836  1.5257  3.6027  0.5711
 8717SOL    HW226552   0.509   2.385   5.887  0.4340 -2.4518 -0.7301
 8718SOL     OW26553   5.862   0.106   2.088  0.3483 -0.3926  0.7962
 8718SOL    HW126554   5.783   0.079   2.136 -0.4143  1.7944  0.9017
 8718SOL    HW226555   5.926   0.123   2.157  0.1963 -0.0759  0.8622
 8719SOL     OW26556   6.117   0.546   0.225  0.0135 -0.1387  0.4711
 8719SOL    HW126557   6.178   0.527   0.154 -0.0018 -1.3347  0.7636
 8719SOL    HW226558   6.151   0.626   0.266 -0.8898  1.5612 -1.8787
 8720SOL     OW26559   0.524   4.882   4.144  0.2514 -0.0427 -0.2087
 8720SOL    HW126560   0.618   4.882   4.127  0.2909  0.1144  0.0001
 8720SOL    HW226561   0.485   4.923   4.066  0.3288 -0.3736 -0.4230
 8721SOL     OW26562   2.678   3.912   2.956  0.3008 -0.3504  0.3158
 8721SOL    HW126563   2.662   3.830   3.003  0.2755  0.1754  1.2459
 8721SOL    HW226564   2.698   3.885   2.866 -1.7551 -1.2667  0.0846
 8722SOL     OW26565   4.098   5.103   4.886 -0.6074 -0.5501 -0.0893
 8722SOL    HW126566   4.162   5.174   4.889  0.5235 -1.5616  0.3390
 8722SOL    HW226567   4.052   5.108   4.970 -0.1744 -0.6392  0.1543
 8723SOL     OW26568   1.555   0.662   3.027  0.3378 -0.0479  0.2179
 8723SOL    HW126569   1.516   0.646   2.940  2.2553 -0.1101 -0.6746
 8723SOL    HW226570   1.490   0.627   3.088 -0.0448 -2.1644 -1.2793
 8724SOL     OW26571   1.012   5.659   3.758  0.3160 -0.3285 -0.3244
 8724SOL    HW126572   1.088   5.600   3.758  0.4857 -0.1636 -1.7279
 8724SOL    HW226573   1.049   5.744   3.733 -0.2547 -0.1503 -0.5791
 8725SOL     OW26574   0.317   6.564   3.540 -0.1228 -0.8118  0.0090
 8725SOL    HW126575   0.325   6.649   3.498 -1.5192  0.0794  1.3910
 8725SOL    HW226576   0.375   6.568   3.616 -0.5325 -0.9013  0.3349
 8726SOL     OW26577   4.213   0.006   5.351  0.2001  0.0818 -0.7304
 8726SOL    HW126578   4.190   0.017   5.443  0.3860  1.5917 -0.8359
 8726SOL    HW226579   4.308   0.004   5.350  0.1967 -0.0175 -0.8856
 8727SOL     OW26580   2.371   6.609   1.473  0.2718  0.5804  0.6436
 8727SOL    HW126581   2.333   6.555   1.403 -0.7927  2.1220 -0.0191
 8727SOL    HW226582   2.360   6.556   1.552  1.5401 -1.2374 -0.3023
 8728SOL     OW26583   3.173   1.772   3.245 -0.0563  0.4508 -0.2338
 8728SOL    HW126584   3.126   1.725   3.177 -0.5519  1.8405 -0.9025
 8728SOL    HW226585   3.168   1.864   3.218  0.7633  0.9086  1.0672
 8729SOL     OW26586   5.720   3.927   1.517 -0.6460  0.4719 -0.1663
 8729SOL    HW126587   5.660   3.856   1.494  0.6700 -0.4332 -0.8944
 8729SOL    HW226588   5.747   3.963   1.432  2.0803 -1.0641 -0.0573
 8730SOL     OW26589   0.928   6.152   6.577 -0.1305  0.2533 -0.1023
 8730SOL    HW126590   0.852   6.120   6.625 -1.0689 -2.6213 -3.1692
 8730SOL    HW226591   1.001   6.101   6.612 -0.7921 -1.7446 -1.4353
 8731SOL     OW26592   3.501   0.678   4.472  0.4158 -0.1624  0.6585
 8731SOL    HW126593   3.533   0.655   4.559  1.5214  2.3105  0.9776
 8731SOL    HW226594   3.559   0.748   4.442 -0.6996 -0.0922 -1.5588
 8732SOL     OW26595   2.595   0.671   2.041 -0.2640  0.0532 -0.2370
 8732SOL    HW126596   2.531   0.734   2.076  0.6187  0.3934  0.8078
 8732SOL    HW226597   2.656   0.725   1.991  2.1069  0.5665  2.8785
 8733SOL     OW26598   0.627   4.163   5.255 -0.0433  0.1069  0.7482
 8733SOL    HW126599   0.659   4.172   5.344 -2.0270  1.6405  1.3784
 8733SOL    HW226600   0.569   4.086   5.258  1.0846 -0.8002  0.3438
 8734SOL     OW26601   1.677   2.494   6.079  0.2511  0.8120 -0.4731
 8734SOL    HW126602   1.712   2.575   6.040 -0.8042  2.4088  1.7153
 8734SOL    HW226603   1.616   2.524   6.146  0.6115 -1.8082  1.1508
 8735SOL     OW26604   0.683   2.154   1.554  0.5019  0.4675  0.2874
 8735SOL    HW126605   0.593   2.124   1.543  1.2966 -2.6999  1.3530
 8735SOL    HW226606   0.686   2.189   1.644  0.2783  0.9367  0.1173
 8736SOL     OW26607   5.729   0.371   3.481 -0.0546  0.0466 -0.2477
 8736SOL    HW126608   5.695   0.385   3.569  0.3625 -0.3390 -0.0211
 8736SOL    HW226609   5.657   0.397   3.423 -1.0879 -1.6371  0.2144
 8737SOL     OW26610   3.980   4.978   6.584  0.9681 -0.4674 -0.0828
 8737SOL    HW126611   4.067   5.008   6.555  0.9877 -1.9822 -1.7421
 8737SOL    HW226612   3.998   4.930   6.665  1.6141 -0.2756 -0.1026
 8738SOL     OW26613   4.238   0.097   2.410  0.3517  0.1707 -0.4326
 8738SOL    HW126614   4.207   0.163   2.473  1.0703 -1.1161  1.3577
 8738SOL    HW226615   4.331   0.117   2.400  0.1502  0.6301 -1.4498
 8739SOL     OW26616   6.248   1.191   5.786  0.0116  0.0482  0.3828
 8739SOL    HW126617   6.324   1.205   5.729  0.2636 -0.9662  0.4493
 8739SOL    HW226618   6.285   1.169   5.871 -0.2903 -2.0790  0.0320
 8740SOL     OW26619   0.724   4.980   6.104 -0.1152  0.0327  0.3921
 8740SOL    HW126620   0.731   4.894   6.147 -1.0108 -0.0368  0.4172
 8740SOL    HW226621   0.739   4.961   6.011 -0.0475 -0.1159  0.4323
 8741SOL     OW26622   1.406   3.228   0.032 -0.2047 -0.4547 -0.5605
 8741SOL    HW126623   1.315   3.249   0.012 -0.0324  1.2137  0.2575
 8741SOL    HW226624   1.404   3.200   0.124  0.2967  1.1546 -0.0282
 8742SOL     OW26625   0.967   3.446   5.390 -0.2253 -0.5580 -0.0648
 8742SOL    HW126626   1.043   3.497   5.362 -0.0007 -0.5832  0.4820
 8742SOL    HW226627   0.997   3.355   5.388 -0.3378 -0.5929 -0.1576
 8743SOL     OW26628   3.142   0.339   1.786  0.0198 -0.1506 -0.2031
 8743SOL    HW126629   3.234   0.334   1.760  0.5487  1.4446  1.1596
 8743SOL    HW226630   3.112   0.424   1.753  0.1998  1.1122  2.6030
 8744SOL     OW26631   3.441   3.308   5.595  0.1267 -0.4147 -0.2027
 8744SOL    HW126632   3.521   3.357   5.616  1.6170 -2.0711 -1.6832
 8744SOL    HW226633   3.438   3.307   5.500 -1.5305 -0.6642 -0.1801
 8745SOL     OW26634   2.141   5.790   2.341  0.5517 -0.1011 -0.0169
 8745SOL    HW126635   2.171   5.731   2.410 -0.2605 -0.8106 -0.2514
 8745SOL    HW226636   2.107   5.867   2.388  2.3251  0.5658  0.2654
 8746SOL     OW26637   5.087   1.405   4.369  0.2552 -0.1921  0.4428
 8746SOL    HW126638   5.103   1.495   4.397 -1.6275  0.1330  0.5530
 8746SOL    HW226639   5.037   1.414   4.288  2.0318 -1.1531 -0.8306
 8747SOL     OW26640   1.426   3.539   1.546  0.5328  0.1936 -0.0652
 8747SOL    HW126641   1.503   3.555   1.491  1.1327 -1.5557  0.2163
 8747SOL    HW226642   1.457   3.482   1.615 -0.7191  0.6235  0.8864
 8748SOL     OW26643   2.420   0.974   6.774  0.6253  0.2066 -0.3249
 8748SOL    HW126644   2.489   0.911   6.794 -1.4068 -1.6567  1.4998
 8748SOL    HW226645   2.416   1.030   6.852 -0.6727 -0.5208  0.1664
 8749SOL     OW26646   5.527   0.304   2.341 -0.1360  0.5286 -0.0210
 8749SOL    HW126647   5.462   0.355   2.388 -0.3650  0.2926 -0.0812
 8749SOL    HW226648   5.588   0.275   2.409  0.5741  1.7307 -0.1206
 8750SOL     OW26649   3.258   2.958   1.744 -0.2594  0.0940  0.4416
 8750SOL    HW126650   3.345   2.923   1.724 -1.2449 -1.7768 -0.8855
 8750SOL    HW226651   3.233   3.006   1.665 -0.4602  0.5692  0.7910
 8751SOL     OW26652   0.469   3.463   1.666 -0.2900  0.3953 -0.1248
 8751SOL    HW126653   0.483   3.550   1.629  0.2315 -0.0572 -1.0257
 8751SOL    HW226654   0.437   3.410   1.593  0.0813 -0.3385  0.2303
 8752SOL     OW26655   1.574   5.865   0.032  0.2152  0.3609 -0.6384
 8752SOL    HW126656   1.524   5.827  -0.040 -1.3829 -1.3001  1.2116
 8752SOL    HW226657   1.658   5.819   0.030 -0.1913 -0.3810 -0.8351
 8753SOL     OW26658   0.534   4.900   6.401  0.6900  0.2858  0.0166
 8753SOL    HW126659   0.618   4.883   6.361  1.3057  1.7915  0.5801
 8753SOL    HW226660   0.549   4.975   6.459 -0.9338  0.3433  0.4387
 8754SOL     OW26661   0.777   2.074   6.068 -0.3005 -0.1831  0.3260
 8754SOL    HW126662   0.852   2.124   6.034  0.0462 -0.1837  1.0606
 8754SOL    HW226663   0.801   1.982   6.052 -0.2119 -0.1762  0.4141
 8755SOL     OW26664   3.043   2.107   5.092  0.6477 -0.1586  0.3230
 8755SOL    HW126665   2.981   2.177   5.115  1.4330  0.1056  1.7089
 8755SOL    HW226666   2.988   2.029   5.080 -0.1637  0.5262 -0.5821
 8756SOL     OW26667   1.911   1.512   6.465 -0.1469 -0.0231 -0.5128
 8756SOL    HW126668   1.916   1.591   6.519 -0.1840  0.7286 -1.5791
 8756SOL    HW226669   1.911   1.440   6.528 -0.5274  0.8359  0.4995
 8757SOL     OW26670   6.086   6.231   1.818  0.6368  0.1534  0.0962
 8757SOL    HW126671   6.137   6.255   1.741  0.3824  1.3854  0.2768
 8757SOL    HW226672   6.151   6.214   1.886  0.8564 -0.7418 -0.3203
 8758SOL     OW26673   2.512   1.092   3.204  0.0962  0.5666 -0.2558
 8758SOL    HW126674   2.436   1.139   3.239  0.2110 -0.2889  1.2591
 8758SOL    HW226675   2.586   1.149   3.224  0.4461 -0.8036  3.0721
 8759SOL     OW26676   2.342   0.033   3.998 -0.6699  0.1339 -0.0770
 8759SOL    HW126677   2.293   0.054   3.919  0.4385  1.7872 -0.3667
 8759SOL    HW226678   2.407  -0.031   3.970  0.2855  1.3503 -0.7489
 8760SOL     OW26679   5.632   4.049   6.639  0.1632  0.2408  0.0533
 8760SOL    HW126680   5.599   4.088   6.721  0.3393 -0.7285  0.6013
 8760SOL    HW226681   5.615   4.116   6.573 -0.7749  0.7015  0.7264
 8761SOL     OW26682   1.217   3.231   3.446 -0.5479 -0.5900 -0.2592
 8761SOL    HW126683   1.194   3.285   3.371 -1.4942 -0.7209 -0.0820
 8761SOL    HW226684   1.173   3.273   3.520  0.5837 -0.3127  0.2802
 8762SOL     OW26685   4.909   0.117   3.447 -0.2137  0.2496  0.3706
 8762SOL    HW126686   4.979   0.134   3.384 -0.0743  0.8677  0.6779
 8762SOL    HW226687   4.842   0.182   3.426 -0.3423  0.1873  0.5863
 8763SOL     OW26688   2.178   0.597   2.154 -0.5836  0.2050 -0.0718
 8763SOL    HW126689   2.177   0.570   2.062  2.1046  0.8376 -0.3908
 8763SOL    HW226690   2.252   0.550   2.192  0.3985  2.3832  0.8908
 8764SOL     OW26691   0.480   2.940   3.613 -0.3209 -0.1225 -0.1765
 8764SOL    HW126692   0.576   2.940   3.623 -0.0916  0.3339 -2.0956
 8764SOL    HW226693   0.451   3.007   3.675  0.3902 -1.4617  1.7249
 8765SOL     OW26694   6.216   6.233   1.387  0.3855  0.2229 -0.3803
 8765SOL    HW126695   6.263   6.249   1.469 -0.8812 -1.9840  0.8938
 8765SOL    HW226696   6.188   6.142   1.394 -1.2419  0.4915 -2.5323
 8766SOL     OW26697   3.314   0.461   1.482  0.2010  0.4613  0.7456
 8766SOL    HW126698   3.233   0.411   1.468 -0.1644  1.9663 -4.7962
 8766SOL    HW226699   3.284   0.551   1.497  0.8436  0.6842  0.7119
 8767SOL     OW26700   5.530   2.312   3.941 -0.2243  0.0624  0.0708
 8767SOL    HW126701   5.575   2.393   3.966  1.0575 -0.6810  0.2438
 8767SOL    HW226702   5.600   2.251   3.921 -1.1292 -1.5009  1.4412
 8768SOL     OW26703   0.254   1.888   1.582 -0.2905  0.0735 -0.2659
 8768SOL    HW126704   0.186   1.824   1.601 -0.1561  0.3102  1.1116
 8768SOL    HW226705   0.214   1.948   1.519 -1.6838  0.7173  1.1714
 8769SOL     OW26706   6.440   0.735   0.589 -0.5223 -0.9013 -0.5001
 8769SOL    HW126707   6.423   0.667   0.524  1.7212 -0.0138 -2.1450
 8769SOL    HW226708   6.369   0.799   0.577 -0.8138 -1.3546 -1.1925
 8770SOL     OW26709   2.336   2.719   0.130 -0.8094 -0.3082  0.3111
 8770SOL    HW126710   2.245   2.706   0.159 -1.1099 -0.9694 -0.8517
 8770SOL    HW226711   2.350   2.651   0.064  1.5939 -2.3824  2.7223
 8771SOL     OW26712   1.480   1.727   1.030  0.2903 -0.0596 -0.0252
 8771SOL    HW126713   1.477   1.663   1.100 -0.9358  0.5597  0.5197
 8771SOL    HW226714   1.416   1.697   0.966 -1.2028  1.2232  0.8064
 8772SOL     OW26715   2.646   0.965   1.437  0.2832 -0.2088  0.1206
 8772SOL    HW126716   2.575   0.981   1.375  0.2093  1.0006  0.5070
 8772SOL    HW226717   2.708   0.910   1.389 -0.5984 -0.7362 -0.4355
 8773SOL     OW26718   3.801   0.247   6.668  0.4045 -0.2631 -0.1112
 8773SOL    HW126719   3.823   0.167   6.622  1.9824  0.1534 -0.1415
 8773SOL    HW226720   3.706   0.242   6.682  0.2932 -1.5579 -1.1557
 8774SOL     OW26721   6.721   2.776   4.700 -0.4900 -0.4762  0.1801
 8774SOL    HW126722   6.764   2.837   4.640  0.6591 -0.9532  0.5079
 8774SOL    HW226723   6.629   2.779   4.673 -0.4066  1.1017 -0.0640
 8775SOL     OW26724   3.253   3.062   6.545  0.0457  0.2328 -0.6473
 8775SOL    HW126725   3.273   3.141   6.495  0.6362  1.5001  1.4657
 8775SOL    HW226726   3.206   3.094   6.622  1.2239 -1.3309  0.8013
 8776SOL     OW26727   4.528   2.891   6.331 -0.0639 -0.3406  0.3901
 8776SOL    HW126728   4.516   2.810   6.281 -0.7480  0.0731 -0.1252
 8776SOL    HW226729   4.571   2.862   6.412  1.9232 -0.9020 -0.7935
 8777SOL     OW26730   3.782   3.985   6.081  0.0054  0.1411  0.1143
 8777SOL    HW126731   3.869   3.958   6.052 -0.3704 -0.3482 -0.5946
 8777SOL    HW226732   3.776   4.077   6.058  0.6024  0.3696  0.8374
 8778SOL     OW26733   1.122   2.118   3.466 -0.0712 -0.0701  0.4628
 8778SOL    HW126734   1.147   2.208   3.444 -0.4184 -0.1038 -0.0683
 8778SOL    HW226735   1.090   2.124   3.556  2.9439 -0.2100  1.6813
 8779SOL     OW26736   6.120   5.526   6.498 -0.3505  0.8627  0.3267
 8779SOL    HW126737   6.181   5.461   6.533  0.2017 -0.6407 -3.0615
 8779SOL    HW226738   6.174   5.603   6.480 -0.0432  0.6154  0.1672
 8780SOL     OW26739   1.544   4.441   5.240  0.1133 -0.4688  0.1785
 8780SOL    HW126740   1.565   4.394   5.321  3.1018  0.5403  0.1074
 8780SOL    HW226741   1.486   4.512   5.269 -1.5709 -2.0347  0.8259
 8781SOL     OW26742   2.717   2.193   4.009  0.1600 -0.0378  0.4390
 8781SOL    HW126743   2.747   2.118   3.958  0.6917  1.4854 -1.6023
 8781SOL    HW226744   2.796   2.223   4.054  0.1697 -0.0893  0.4569
 8782SOL     OW26745   4.927   4.367   1.904  0.3527  0.0546 -0.2080
 8782SOL    HW126746   4.859   4.412   1.854  1.6433  0.1547 -1.9200
 8782SOL    HW226747   4.879   4.328   1.978 -1.1434  2.4145  0.2067
 8783SOL     OW26748   3.186   0.843   2.769  0.0273  0.3850 -0.1289
 8783SOL    HW126749   3.273   0.883   2.771 -0.4280  1.3942 -0.2954
 8783SOL    HW226750   3.129   0.910   2.734 -0.8125 -0.3120 -0.1278
 8784SOL     OW26751   0.144   2.792   0.519  0.1044  0.2526 -0.1881
 8784SOL    HW126752   0.218   2.746   0.560 -1.0404 -1.0616  0.4550
 8784SOL    HW226753   0.093   2.724   0.476  0.1205  1.3505 -2.0692
 8785SOL     OW26754   1.685   0.592   0.590  0.1643 -0.1826 -0.2362
 8785SOL    HW126755   1.751   0.597   0.659 -0.0751 -1.6870  0.1395
 8785SOL    HW226756   1.610   0.639   0.625  0.6256  0.5511 -0.1992
 8786SOL     OW26757   0.153   3.122   3.222 -0.7845 -0.3210  0.6937
 8786SOL    HW126758   0.197   3.206   3.232 -1.4953 -0.0653  1.8126
 8786SOL    HW226759   0.064   3.146   3.194 -0.9858 -0.6927  1.0103
 8787SOL     OW26760   4.504   5.209   2.875 -0.4763  0.6438 -0.1329
 8787SOL    HW126761   4.487   5.146   2.806  0.5569 -0.6671  0.7526
 8787SOL    HW226762   4.427   5.266   2.876 -1.3654 -0.5121 -1.0575
 8788SOL     OW26763   5.404   4.935   2.039 -0.1931  0.1013 -0.6151
 8788SOL    HW126764   5.355   5.017   2.040  0.7745  0.7310  1.2136
 8788SOL    HW226765   5.375   4.889   2.118  1.1895 -0.0752 -0.1754
 8789SOL     OW26766   2.786   0.758   1.849  0.3443 -0.2902 -0.2172
 8789SOL    HW126767   2.831   0.697   1.908  0.8996  1.4782  1.2590
 8789SOL    HW226768   2.854   0.820   1.823 -1.1909  2.8773  2.6352
 8790SOL     OW26769   3.826   1.830   3.732  0.6706  0.1247 -0.5283
 8790SOL    HW126770   3.790   1.857   3.816 -0.1773 -1.7248 -0.2566
 8790SOL    HW226771   3.921   1.824   3.747  0.4842 -0.6183  0.4376
 8791SOL     OW26772   0.231   5.661   5.270  0.1554 -0.3624 -0.6752
 8791SOL    HW126773   0.273   5.740   5.301  0.4712 -1.3221  1.4966
 8791SOL    HW226774   0.301   5.611   5.227  0.6260 -0.6810  0.4219
 8792SOL     OW26775   0.570   2.702   2.181 -0.4544 -0.1730  0.2239
 8792SOL    HW126776   0.618   2.774   2.221  2.6887 -1.1371 -1.5300
 8792SOL    HW226777   0.552   2.731   2.092 -0.1145 -1.1316 -0.1695
 8793SOL     OW26778   6.431   6.617   1.831 -0.0274  0.3799 -0.6396
 8793SOL    HW126779   6.500   6.591   1.892 -2.2852 -1.2994  1.3964
 8793SOL    HW226780   6.438   6.556   1.758 -0.0847 -0.5550  0.1302
 8794SOL     OW26781   0.139   6.588   4.335 -0.5733  0.2361 -0.5378
 8794SOL    HW126782   0.081   6.556   4.266  0.2079  0.6950 -1.4245
 8794SOL    HW226783   0.117   6.680   4.345  1.0138  0.8133 -1.9679
 8795SOL     OW26784   1.124   4.051   6.380 -0.5566  0.2602 -0.8105
 8795SOL    HW126785   1.159   4.123   6.433 -1.5861  0.4504 -0.3703
 8795SOL    HW226786   1.192   3.984   6.384 -1.2523 -0.4010  2.1649
 8796SOL     OW26787   4.271   3.013   0.030  0.0270  0.6648 -0.2655
 8796SOL    HW126788   4.316   3.096   0.051  2.3405 -1.0068  2.0607
 8796SOL    HW226789   4.265   2.968   0.114 -1.2378 -1.5191 -1.4538
 8797SOL     OW26790   3.864   0.407   6.388  0.3010 -0.7989  0.1113
 8797SOL    HW126791   3.819   0.323   6.376  0.6199 -0.9844  0.2190
 8797SOL    HW226792   3.827   0.441   6.470  1.7348 -1.8498  1.2443
 8798SOL     OW26793   3.732   1.146   6.398 -0.0922 -1.1104  0.2182
 8798SOL    HW126794   3.769   1.094   6.469 -0.2597  1.9289  2.7814
 8798SOL    HW226795   3.642   1.113   6.388 -0.6382 -0.5805  2.6949
 8799SOL     OW26796   5.946   3.451   5.728 -0.2699 -0.3573  0.3944
 8799SOL    HW126797   6.010   3.384   5.703  0.8484  0.3359  1.2565
 8799SOL    HW226798   5.887   3.456   5.653 -0.8607 -2.8099  0.6163
 8800SOL     OW26799   3.046   2.737   4.253 -0.5200 -0.5610 -0.5210
 8800SOL    HW126800   3.002   2.749   4.337  0.0506  1.1511 -0.4337
 8800SOL    HW226801   2.979   2.759   4.187 -0.5681 -0.5816 -0.4790
 8801SOL     OW26802   6.682   5.548   0.667  0.2102 -0.3494  0.4151
 8801SOL    HW126803   6.759   5.585   0.710 -0.2966 -0.3395  1.3453
 8801SOL    HW226804   6.659   5.611   0.599 -0.0084  0.5322  1.2843
 8802SOL     OW26805   6.698   6.717   2.948  0.0539 -0.3571  0.4705
 8802SOL    HW126806   6.690   6.688   2.856  1.7660 -0.4227  0.3040
 8802SOL    HW226807   6.665   6.806   2.948 -0.4028 -0.5187 -0.1159
 8803SOL     OW26808   3.275   4.304   1.859 -0.2808  0.3818  0.3617
 8803SOL    HW126809   3.327   4.385   1.858  1.9506 -0.9335  1.8337
 8803SOL    HW226810   3.302   4.258   1.780  1.8998 -0.8832  1.7679
 8804SOL     OW26811   1.824   0.508   4.526 -0.2558  0.1529 -0.1422
 8804SOL    HW126812   1.829   0.449   4.601  0.7616  1.2343  0.6978
 8804SOL    HW226813   1.732   0.535   4.523 -0.2953  0.1552  0.7757
 8805SOL     OW26814   5.640   2.504   6.290 -0.2744  0.0296  0.0225
 8805SOL    HW126815   5.630   2.560   6.366 -1.4263 -0.3816  0.1901
 8805SOL    HW226816   5.580   2.540   6.225 -1.0551 -0.9880  0.1440
 8806SOL     OW26817   0.944   5.272   2.892 -0.3862  0.0117 -0.2824
 8806SOL    HW126818   0.851   5.260   2.911  0.0473 -2.7275  0.5672
 8806SOL    HW226819   0.984   5.290   2.977  0.2598 -2.4969  0.0415
 8807SOL     OW26820   0.325   1.261   1.064 -0.0168  0.3183 -0.2675
 8807SOL    HW126821   0.327   1.251   0.969 -2.2379  0.7150 -0.4232
 8807SOL    HW226822   0.361   1.347   1.081 -1.0753  0.9177 -0.9379
 8808SOL     OW26823   3.611   6.525   3.448  0.4012 -0.5269  0.9661
 8808SOL    HW126824   3.553   6.460   3.409 -2.2924  2.3381 -0.2015
 8808SOL    HW226825   3.580   6.534   3.538  0.8969 -0.9385  1.1846
 8809SOL     OW26826   0.659   5.632   2.008  0.6285 -0.2706  0.0175
 8809SOL    HW126827   0.617   5.696   2.066  2.0954  0.8082 -0.0786
 8809SOL    HW226828   0.631   5.657   1.920  0.6014 -0.2214  0.0400
 8810SOL     OW26829   2.607   6.713   1.603 -0.1707 -0.0254 -0.1565
 8810SOL    HW126830   2.514   6.734   1.596 -0.0431  0.5302 -0.2500
 8810SOL    HW226831   2.615   6.626   1.563 -1.0132 -1.1000  1.8975
 8811SOL     OW26832   5.909   0.146   0.750  0.0940 -0.3068  0.1699
 8811SOL    HW126833   5.887   0.068   0.800 -1.6856 -0.1205 -0.2735
 8811SOL    HW226834   5.836   0.158   0.689 -0.8282  2.9706  1.7043
 8812SOL     OW26835   1.491   0.742   0.663  0.1887 -0.2277  0.9594
 8812SOL    HW126836   1.422   0.765   0.601  1.0760 -0.3550 -0.1184
 8812SOL    HW226837   1.485   0.808   0.732  0.9579  1.6877 -0.6911
 8813SOL     OW26838   2.561   1.982   2.533  0.4600 -0.2060 -0.5651
 8813SOL    HW126839   2.566   2.008   2.625 -0.4090 -0.0863 -0.5437
 8813SOL    HW226840   2.647   2.004   2.497  0.3566  1.0090 -0.1073
 8814SOL     OW26841   0.548   6.092   5.334  0.0373  0.2824 -0.0771
 8814SOL    HW126842   0.619   6.040   5.297  1.2860  1.1884  0.9846
 8814SOL    HW226843   0.512   6.139   5.258  0.3603 -0.4083 -0.6713
 8815SOL     OW26844   4.146   3.240   3.363  0.2657  0.4602 -0.4002
 8815SOL    HW126845   4.093   3.163   3.342 -0.8362  0.4926  1.8987
 8815SOL    HW226846   4.119   3.306   3.300 -0.4506 -0.3449 -0.9574
 8816SOL     OW26847   4.139   4.036   6.277  0.3412  0.4660  0.1034
 8816SOL    HW126848   4.152   3.960   6.220  1.2937  1.1550 -0.6348
 8816SOL    HW226849   4.147   4.002   6.365 -3.0975 -1.0282  0.0259
 8817SOL     OW26850   6.198   6.488   1.566 -0.6574 -0.1233 -0.7847
 8817SOL    HW126851   6.117   6.439   1.551 -0.8808 -0.3130  0.8632
 8817SOL    HW226852   6.260   6.423   1.597 -1.2979  0.6771  2.6297
 8818SOL     OW26853   4.076   3.185   2.138  0.1363 -0.2463  0.1805
 8818SOL    HW126854   4.113   3.262   2.180  0.8010 -0.5755  0.2161
 8818SOL    HW226855   4.088   3.200   2.044  1.0923 -0.6943  0.2159
 8819SOL     OW26856   0.260   5.979   6.245  0.2464  0.1769 -0.1586
 8819SOL    HW126857   0.170   5.980   6.279 -0.7636 -1.3259 -2.5332
 8819SOL    HW226858   0.280   6.071   6.227 -1.5831  0.3887 -1.3621
 8820SOL     OW26859   0.484   2.465   2.622  0.0844  0.1044  0.4611
 8820SOL    HW126860   0.468   2.461   2.527 -1.1339 -0.3588  0.6625
 8820SOL    HW226861   0.421   2.530   2.654 -0.5104 -0.7689  1.1235
 8821SOL     OW26862   6.625   3.967   0.806  0.6910 -0.7280 -0.0661
 8821SOL    HW126863   6.644   4.009   0.890 -1.1259 -0.7636  0.3955
 8821SOL    HW226864   6.626   3.873   0.826 -0.1744 -0.7212  0.0198
 8822SOL     OW26865   0.496   4.388   6.405 -0.0331 -0.0615 -0.4015
 8822SOL    HW126866   0.461   4.299   6.404 -0.6815  0.1893 -0.1335
 8822SOL    HW226867   0.506   4.409   6.498 -1.4782  0.7577 -0.3968
 8823SOL     OW26868   1.498   4.990   6.397  0.1403  0.7942 -0.2099
 8823SOL    HW126869   1.445   4.927   6.446 -0.2143  0.5115 -0.9508
 8823SOL    HW226870   1.534   5.048   6.465  1.9920 -1.2853  0.7059
 8824SOL     OW26871   2.150   0.708   0.376  0.2221  1.0042  0.2868
 8824SOL    HW126872   2.184   0.636   0.322 -0.8869  0.5001  0.2218
 8824SOL    HW226873   2.214   0.718   0.446  0.1958 -0.3557  0.5389
 8825SOL     OW26874   5.365   5.478   1.202  0.1128 -0.5176 -0.6281
 8825SOL    HW126875   5.391   5.404   1.146 -0.4543 -0.0643 -1.5172
 8825SOL    HW226876   5.443   5.532   1.209  0.0466 -0.2931 -1.4641
 8826SOL     OW26877   2.862   1.186   4.859  0.0526  0.5896 -0.1315
 8826SOL    HW126878   2.859   1.182   4.955  1.8223 -0.1519 -0.0720
 8826SOL    HW226879   2.792   1.246   4.836 -0.9374  0.1625  1.5800
 8827SOL     OW26880   5.546   5.270   3.643  0.4745 -0.1820 -0.4517
 8827SOL    HW126881   5.543   5.176   3.661  0.7468  0.3216  3.0490
 8827SOL    HW226882   5.457   5.300   3.662  0.4463  0.3270 -1.3497
 8828SOL     OW26883   4.169   0.575   5.678 -0.3938  0.0191 -0.4212
 8828SOL    HW126884   4.145   0.592   5.587  0.0647  1.1862 -0.3511
 8828SOL    HW226885   4.232   0.503   5.674  0.1328  0.5055 -1.0990
 8829SOL     OW26886   5.242   6.340   1.689 -0.0567  0.0834 -0.3248
 8829SOL    HW126887   5.197   6.425   1.685  1.8058  1.1369 -0.4524
 8829SOL    HW226888   5.172   6.276   1.695 -1.5260  1.6880  0.9521
 8830SOL     OW26889   2.528   1.395   2.740  0.6035  0.1390  0.3565
 8830SOL    HW126890   2.596   1.455   2.709 -0.1369  0.8924  0.1628
 8830SOL    HW226891   2.527   1.407   2.835 -2.1943  3.4464  0.0881
 8831SOL     OW26892   6.157   1.281   1.159  0.4836 -1.0038  0.3023
 8831SOL    HW126893   6.205   1.199   1.144 -0.1765 -1.1071 -1.4456
 8831SOL    HW226894   6.160   1.326   1.075  1.0025  0.8919  1.2950
 8832SOL     OW26895   1.504   6.780   4.019 -0.2873 -0.2366  0.3882
 8832SOL    HW126896   1.484   6.737   3.936 -1.9226  0.2233  0.5036
 8832SOL    HW226897   1.432   6.754   4.077  1.3455 -1.3896  2.0199
 8833SOL     OW26898   5.385   0.175   0.590 -0.7851  0.5111  1.2822
 8833SOL    HW126899   5.332   0.205   0.516  1.3487  0.1155 -0.5083
 8833SOL    HW226900   5.419   0.256   0.630 -0.3978  0.6832  0.6164
 8834SOL     OW26901   1.822   0.117   4.362  0.2343  0.7151 -0.7823
 8834SOL    HW126902   1.799   0.125   4.455  0.9260  0.5877 -0.5949
 8834SOL    HW226903   1.801   0.202   4.325  2.9102  1.9140  0.1667
 8835SOL     OW26904   5.179   0.505   5.772  0.1011 -0.2332  0.7258
 8835SOL    HW126905   5.229   0.563   5.715  0.4626  1.1477  2.3617
 8835SOL    HW226906   5.089   0.534   5.763  0.0063 -0.6916  0.1152
 8836SOL     OW26907   1.750   5.945   5.141 -0.1332 -0.8380 -0.0152
 8836SOL    HW126908   1.792   6.024   5.108 -0.5863 -1.9200 -3.6659
 8836SOL    HW226909   1.818   5.901   5.192  0.9901  0.6134 -0.1856
 8837SOL     OW26910   2.589   4.114   3.568  0.7514 -0.2765  0.2320
 8837SOL    HW126911   2.665   4.145   3.520 -1.2590  0.0048 -3.0876
 8837SOL    HW226912   2.527   4.187   3.564 -0.1824 -0.9204  1.7805
 8838SOL     OW26913   1.315   4.126   1.202 -0.6124  0.2613 -0.0525
 8838SOL    HW126914   1.343   4.197   1.146  0.9250 -0.7847 -0.6796
 8838SOL    HW226915   1.294   4.054   1.142 -2.7755  0.3267  0.5202
 8839SOL     OW26916   1.743   5.934   1.036 -0.2874  0.0975 -0.1403
 8839SOL    HW126917   1.658   5.954   0.997 -1.1648 -2.2472  0.4104
 8839SOL    HW226918   1.751   5.996   1.109 -1.3286  0.5961 -0.4262
 8840SOL     OW26919   5.907   5.207   1.027  0.1005 -0.4965  0.1864
 8840SOL    HW126920   5.871   5.138   1.081 -0.5808  0.0225  0.4023
 8840SOL    HW226921   5.963   5.257   1.086 -2.4047  1.4628  1.0885
 8841SOL     OW26922   5.891   0.323   0.972 -0.6546 -0.0932  0.1411
 8841SOL    HW126923   5.977   0.328   1.012 -0.3643 -0.5397 -0.4192
 8841SOL    HW226924   5.905   0.280   0.887 -1.5265 -0.8680  0.3638
 8842SOL     OW26925   3.249   1.959   1.843  0.3476  0.0857 -0.5742
 8842SOL    HW126926   3.244   2.055   1.836 -0.1765  0.0848 -0.2678
 8842SOL    HW226927   3.185   1.937   1.911  2.2812 -0.2549  1.2602
 8843SOL     OW26928   5.393   0.864   4.621  0.3540  0.6306  0.4939
 8843SOL    HW126929   5.323   0.928   4.613  0.2505  0.7507  2.0118
 8843SOL    HW226930   5.352   0.787   4.661  0.9182  0.4201  0.6910
 8844SOL     OW26931   2.305   1.552   4.000  1.0062 -0.3606  0.0402
 8844SOL    HW126932   2.221   1.525   3.963  0.0114  0.7866  1.3774
 8844SOL    HW226933   2.316   1.495   4.077  1.4856 -0.5354 -0.1558
 8845SOL     OW26934   1.174   4.615   1.170 -0.0265  0.2349  0.0025
 8845SOL    HW126935   1.230   4.648   1.100  1.8269  0.5775  1.5591
 8845SOL    HW226936   1.149   4.693   1.220 -0.1070 -0.1440  0.5655
 8846SOL     OW26937   3.206   1.146   5.641  0.8463  0.8537 -0.4866
 8846SOL    HW126938   3.111   1.151   5.626  0.7092 -0.8442 -0.4451
 8846SOL    HW226939   3.245   1.194   5.569 -0.0152 -0.2191 -1.7148
 8847SOL     OW26940   2.706   6.414   2.706  0.6555 -0.0817  0.0807
 8847SOL    HW126941   2.754   6.493   2.681 -0.8994  1.0257  0.4083
 8847SOL    HW226942   2.729   6.401   2.798 -1.7459  2.1765  1.1575
 8848SOL     OW26943   1.404   0.988   3.761  0.6974 -0.3444 -0.1458
 8848SOL    HW126944   1.314   1.002   3.792  0.0783  0.7369 -2.2500
 8848SOL    HW226945   1.458   1.031   3.827 -0.5901  2.4179 -0.7139
 8849SOL     OW26946   3.243   0.965   1.659  0.0130 -0.1567  0.6304
 8849SOL    HW126947   3.187   0.945   1.584 -0.3238 -0.0240  0.8454
 8849SOL    HW226948   3.194   0.932   1.735  0.1505  0.1104  0.8344
 8850SOL     OW26949   4.682   1.022   1.587 -0.1705  0.1636  0.3374
 8850SOL    HW126950   4.621   0.962   1.630  0.3070  0.2796  1.1879
 8850SOL    HW226951   4.635   1.052   1.510 -1.5262  0.8948  1.4069
 8851SOL     OW26952   4.757   2.027   2.332 -0.0998 -0.9056 -0.0670
 8851SOL    HW126953   4.831   2.063   2.283 -0.3412 -0.5116 -0.1468
 8851SOL    HW226954   4.720   1.962   2.273  0.5771 -1.5770  0.2343
 8852SOL     OW26955   6.601   4.587   0.818  0.1980 -0.3959 -0.2445
 8852SOL    HW126956   6.676   4.640   0.793 -0.6238  1.0632  0.2385
 8852SOL    HW226957   6.571   4.624   0.901 -1.5066 -0.4034 -0.8057
 8853SOL     OW26958   3.590   2.686   0.624  0.1565  0.1618  0.0065
 8853SOL    HW126959   3.672   2.733   0.607 -0.0463  0.3895 -0.3571
 8853SOL    HW226960   3.596   2.608   0.570  0.6403 -0.4145  0.8632
 8854SOL     OW26961   5.891   4.060   2.216 -0.1899 -0.6439  0.3905
 8854SOL    HW126962   5.801   4.092   2.223 -0.4890 -1.2241 -0.5071
 8854SOL    HW226963   5.918   4.083   2.127  0.6960 -0.1340  0.7810
 8855SOL     OW26964   0.321   2.677   4.485  0.1175  0.1868 -0.3830
 8855SOL    HW126965   0.248   2.671   4.547  0.7823  1.5198  0.5889
 8855SOL    HW226966   0.395   2.706   4.538  1.2490 -0.6346 -1.4442
 8856SOL     OW26967   1.654   4.833   0.510  0.3029 -0.1557 -0.6795
 8856SOL    HW126968   1.681   4.855   0.599  0.1263  1.0000 -0.9029
 8856SOL    HW226969   1.716   4.879   0.454 -0.4703  0.3116 -1.1698
 8857SOL     OW26970   1.480   0.498   1.096 -0.4612 -0.5837  0.0941
 8857SOL    HW126971   1.411   0.564   1.091 -1.2270 -1.3865 -0.2118
 8857SOL    HW226972   1.502   0.494   1.189 -0.9670 -0.4482  0.2259
 8858SOL     OW26973   0.839   3.482   4.065 -0.2527 -0.3943 -0.2200
 8858SOL    HW126974   0.845   3.527   4.150  1.1536  0.5094 -0.7668
 8858SOL    HW226975   0.888   3.538   4.005  3.0221 -3.3609 -0.6373
 8859SOL     OW26976   3.601   4.254   2.734  0.3691  0.3850 -0.1021
 8859SOL    HW126977   3.507   4.246   2.750  0.3355  1.6720  0.5164
 8859SOL    HW226978   3.636   4.166   2.748 -0.7902 -0.1970 -0.7359
 8860SOL     OW26979   5.087   1.530   2.856  0.5482 -0.7784 -0.0651
 8860SOL    HW126980   5.006   1.490   2.824  0.6265 -0.4008 -0.7671
 8860SOL    HW226981   5.136   1.550   2.776  0.4175  0.9101  0.2349
 8861SOL     OW26982   0.072   2.634   3.979  0.0663 -0.2782 -0.1805
 8861SOL    HW126983   0.137   2.563   3.971  0.1167 -0.3709  0.9292
 8861SOL    HW226984   0.020   2.627   3.899  0.5267 -1.1121 -0.4286
 8862SOL     OW26985   1.801   2.752   5.045  0.1740  0.4886  0.3173
 8862SOL    HW126986   1.894   2.773   5.037  0.1975  0.4158  0.4024
 8862SOL    HW226987   1.799   2.670   5.094  0.3069 -1.7649 -3.0450
 8863SOL     OW26988   5.890   2.702   6.392  0.2850  0.3866  0.2206
 8863SOL    HW126989   5.953   2.651   6.443  1.4951  2.0928  0.5027
 8863SOL    HW226990   5.943   2.753   6.332 -0.9154  0.9961 -0.3520
 8864SOL     OW26991   4.874   0.105   0.923 -1.0247 -0.2457 -0.0398
 8864SOL    HW126992   4.909   0.169   0.861 -2.1204  0.0569 -0.3658
 8864SOL    HW226993   4.781   0.124   0.927 -1.4506 -2.0488 -0.4276
 8865SOL     OW26994   1.988   0.122   0.856 -0.0085  0.2795  0.0715
 8865SOL    HW126995   2.001   0.153   0.945  1.9209 -0.5482  0.1286
 8865SOL    HW226996   1.921   0.180   0.820 -0.3872  1.0102  1.8500
 8866SOL     OW26997   2.606   4.712   1.242  0.3666 -0.3389 -0.2685
 8866SOL    HW126998   2.587   4.655   1.167 -0.1795  1.4126 -1.5323
 8866SOL    HW226999   2.698   4.736   1.230  0.0928  0.4921 -0.8049
 8867SOL     OW27000   1.950   5.487   5.663  0.3249  0.0948 -0.0927
 8867SOL    HW127001   1.911   5.574   5.670 -1.4685 -0.6480 -0.0732
 8867SOL    HW227002   1.883   5.428   5.698  0.9659 -1.4029 -1.2441
 8868SOL     OW27003   2.349   5.989   5.007  0.0571 -0.4519  0.1883
 8868SOL    HW127004   2.340   5.941   4.924 -0.7175  0.1636 -0.1006
 8868SOL    HW227005   2.360   5.921   5.073  0.2929 -0.9671 -0.3726
 8869SOL     OW27006   6.655   2.577   2.938 -0.3373  0.3999  0.0902
 8869SOL    HW127007   6.560   2.576   2.942 -0.3566  1.1949  3.7487
 8869SOL    HW227008   6.678   2.667   2.917 -0.3609  0.2019 -0.8188
 8870SOL     OW27009   6.205   3.920   5.138  0.0805  0.6276  0.0474
 8870SOL    HW127010   6.169   3.939   5.224  1.6055  1.2511  0.5856
 8870SOL    HW227011   6.139   3.866   5.096 -0.4258 -0.2451  1.8558
 8871SOL     OW27012   4.940   6.182   0.422  0.3450 -0.2936 -0.0842
 8871SOL    HW127013   4.946   6.175   0.517  0.3564  1.5154  0.0924
 8871SOL    HW227014   5.013   6.131   0.388  0.8866 -0.2013  0.9239
 8872SOL     OW27015   1.071   0.624   4.701 -0.4190  0.0988 -0.0847
 8872SOL    HW127016   1.156   0.589   4.726 -0.7131  0.1928  1.0845
 8872SOL    HW227017   1.078   0.718   4.714 -0.8652  0.0530  0.5241
 8873SOL     OW27018   5.150   5.982   2.303 -0.1956  0.3017 -0.0482
 8873SOL    HW127019   5.102   5.905   2.331 -0.0918  0.6432  1.1319
 8873SOL    HW227020   5.236   5.949   2.277 -0.7496 -0.1955 -1.3289
 8874SOL     OW27021   6.507   6.286   4.930 -0.7459 -0.3793  0.1062
 8874SOL    HW127022   6.450   6.317   4.860 -1.6435  0.4827  1.1818
 8874SOL    HW227023   6.538   6.365   4.973 -0.5948 -0.8907  0.9770
 8875SOL     OW27024   3.209   2.604   2.267 -0.3532  0.2761  0.5847
 8875SOL    HW127025   3.293   2.647   2.281  0.2710 -1.0290  0.8874
 8875SOL    HW227026   3.155   2.672   2.226  0.3112  1.6381  1.8832
 8876SOL     OW27027   0.083   1.591   5.956  0.7144 -0.4355  0.4810
 8876SOL    HW127028   0.143   1.598   5.881 -0.7316 -0.5064 -0.7367
 8876SOL    HW227029   0.105   1.667   6.011  0.0875  1.1649 -1.3554
 8877SOL     OW27030   6.256   1.744   4.158 -0.2205 -0.1157  0.4824
 8877SOL    HW127031   6.161   1.751   4.171 -0.3184 -1.1624  0.3619
 8877SOL    HW227032   6.275   1.651   4.167  0.6627 -0.0377 -0.4411
 8878SOL     OW27033   6.275   4.125   4.948 -0.2570 -0.3096  0.1531
 8878SOL    HW127034   6.228   4.068   4.887  0.3867  0.0264 -0.6703
 8878SOL    HW227035   6.306   4.065   5.017 -1.4253 -0.6113  0.4362
 8879SOL     OW27036   0.611   6.082   6.474 -0.3597 -0.4767 -0.4961
 8879SOL    HW127037   0.590   6.165   6.516  1.1920 -1.4200  2.3951
 8879SOL    HW227038   0.657   6.106   6.393  1.3695  1.5279  0.9918
 8880SOL     OW27039   5.296   2.796   0.840 -0.2799  0.5373  0.1934
 8880SOL    HW127040   5.201   2.794   0.850 -0.5161 -2.7601 -1.2420
 8880SOL    HW227041   5.330   2.749   0.917  0.2020  1.3546  0.4997
 8881SOL     OW27042   5.388   1.286   5.894 -0.0393  0.3642  0.2658
 8881SOL    HW127043   5.397   1.379   5.877 -0.3979  0.6983  1.7191
 8881SOL    HW227044   5.404   1.277   5.988 -0.6065 -0.9543  0.2657
 8882SOL     OW27045   0.184   5.806   6.519 -0.6390  0.1284 -0.0048
 8882SOL    HW127046   0.278   5.815   6.507 -0.0145 -4.2351 -0.0380
 8882SOL    HW227047   0.169   5.828   6.611  0.1792  1.7188 -0.2122
 8883SOL     OW27048   5.345   4.976   5.012  0.0235 -0.0877 -0.4706
 8883SOL    HW127049   5.408   5.033   4.969  0.0602 -0.3258 -0.7377
 8883SOL    HW227050   5.341   5.007   5.102  0.1470  0.2455 -0.5796
 8884SOL     OW27051   5.030   2.132   1.684  0.4327  0.5338 -0.5570
 8884SOL    HW127052   5.107   2.076   1.694 -0.3852 -0.6042 -0.3896
 8884SOL    HW227053   4.978   2.089   1.615 -0.9006  0.2438  0.5771
 8885SOL     OW27054   2.189   4.223   2.802 -1.1350 -0.1901 -0.1742
 8885SOL    HW127055   2.198   4.286   2.873 -0.0685  0.4545 -0.8384
 8885SOL    HW227056   2.096   4.203   2.799 -1.0877 -0.9645  1.9872
 8886SOL     OW27057   4.307   1.630   1.315  0.6314  0.0370  0.1990
 8886SOL    HW127058   4.211   1.635   1.310  0.5737 -1.3406 -0.4260
 8886SOL    HW227059   4.330   1.686   1.389 -0.7349 -0.3072  0.9110
 8887SOL     OW27060   2.262   2.394   3.490  0.1729 -0.8252  0.3625
 8887SOL    HW127061   2.206   2.333   3.442 -1.3758  1.2342 -0.6019
 8887SOL    HW227062   2.322   2.427   3.423  0.2007 -0.4082  0.5941
 8888SOL     OW27063   1.972   1.708   5.884  0.6669  0.7346 -0.4237
 8888SOL    HW127064   1.970   1.627   5.935  0.1515  1.5433  0.8896
 8888SOL    HW227065   2.020   1.770   5.939 -1.3143  2.1102 -0.1358
 8889SOL     OW27066   3.559   2.667   4.574  0.2488 -0.0591  0.1056
 8889SOL    HW127067   3.539   2.620   4.655 -1.3067 -1.5321 -1.0513
 8889SOL    HW227068   3.654   2.661   4.565  0.3217 -0.8737  1.2403
 8890SOL     OW27069   2.995   6.515   5.416 -0.1511  0.7691  0.1860
 8890SOL    HW127070   2.955   6.494   5.501  0.5598 -0.1559  0.3102
 8890SOL    HW227071   2.923   6.506   5.353 -0.2919 -0.2767  0.4787
 8891SOL     OW27072   6.333   6.463   6.534  0.1634 -0.0856 -0.1071
 8891SOL    HW127073   6.362   6.523   6.603 -2.0748  1.3169 -0.2634
 8891SOL    HW227074   6.332   6.517   6.455  1.7238 -1.4056 -1.0931
 8892SOL     OW27075   3.091   2.133   3.762  0.2524 -0.5126 -0.5292
 8892SOL    HW127076   3.070   2.115   3.670  0.3053  1.3019 -0.9196
 8892SOL    HW227077   3.184   2.111   3.770  0.4780  0.1808 -1.1546
 8893SOL     OW27078   0.687   0.996   3.458 -0.3703  0.4647 -0.5469
 8893SOL    HW127079   0.711   1.077   3.413 -0.9548  0.5510 -0.7101
 8893SOL    HW227080   0.627   1.024   3.527 -0.1354  0.2321 -0.2457
 8894SOL     OW27081   3.443   4.148   4.545  0.2875 -0.5888  0.0057
 8894SOL    HW127082   3.513   4.093   4.581  1.0710 -0.3791 -1.1221
 8894SOL    HW227083   3.367   4.130   4.601  0.5786 -2.6319 -0.1634
 8895SOL     OW27084   5.065   5.855   4.188  0.0104  0.0661 -0.3565
 8895SOL    HW127085   5.160   5.860   4.185  0.1884 -2.2734 -0.3073
 8895SOL    HW227086   5.042   5.789   4.123 -1.3835 -1.0027  1.1424
 8896SOL     OW27087   5.542   6.662   4.668  0.3037 -0.1697  0.3018
 8896SOL    HW127088   5.620   6.609   4.684 -0.4780 -2.0332 -1.6148
 8896SOL    HW227089   5.471   6.613   4.709 -0.4079 -0.5718 -1.3473
 8897SOL     OW27090   5.835   3.586   3.258  0.2423 -0.2634 -0.6419
 8897SOL    HW127091   5.914   3.594   3.204 -0.6962  3.1932 -1.7632
 8897SOL    HW227092   5.866   3.599   3.348  1.2600 -1.7754 -0.7347
 8898SOL     OW27093   4.602   3.875   4.538  0.1717  0.1304 -0.0072
 8898SOL    HW127094   4.618   3.841   4.626  1.1401  0.5074 -0.0339
 8898SOL    HW227095   4.659   3.952   4.531 -0.6812  0.7285 -0.5879
 8899SOL     OW27096   3.984   3.833   0.568 -0.2449  0.6349 -0.2722
 8899SOL    HW127097   3.975   3.748   0.612 -0.0975 -0.5212 -2.3655
 8899SOL    HW227098   3.894   3.866   0.562 -0.3974  0.2532 -0.1484
 8900SOL     OW27099   4.198   1.983   0.527  0.0834 -0.1428  0.0580
 8900SOL    HW127100   4.274   1.966   0.472  0.2219  0.9429 -0.1140
 8900SOL    HW227101   4.234   2.020   0.607 -0.2746  0.8297 -0.2152
 8901SOL     OW27102   2.737   5.839   0.091 -0.5929 -0.2689 -0.1121
 8901SOL    HW127103   2.664   5.836   0.029  0.9931  0.5890 -2.1366
 8901SOL    HW227104   2.730   5.926   0.131 -1.8072 -0.9427  1.2525
 8902SOL     OW27105   6.228   4.778   2.718  0.1729  0.2098  0.4818
 8902SOL    HW127106   6.248   4.870   2.737 -0.4567  0.5117 -0.2562
 8902SOL    HW227107   6.135   4.770   2.737 -0.5049  0.5290 -2.2718
 8903SOL     OW27108   3.419   4.428   4.500  0.5658  0.3925 -0.8003
 8903SOL    HW127109   3.434   4.340   4.534 -0.2654 -0.1186 -1.7071
 8903SOL    HW227110   3.327   4.428   4.473  0.4158  1.7087 -0.3298
 8904SOL     OW27111   6.593   1.422   4.212  0.0855 -0.1357 -0.2425
 8904SOL    HW127112   6.553   1.495   4.164  1.1107 -0.4404 -1.6522
 8904SOL    HW227113   6.549   1.421   4.296 -1.3127  0.8845 -0.9245
 8905SOL     OW27114   5.726   0.251   5.956 -0.1198  0.1050 -0.3408
 8905SOL    HW127115   5.820   0.235   5.946 -0.0629  0.1109  0.1732
 8905SOL    HW227116   5.695   0.269   5.867  0.0358 -1.6393 -0.7846
 8906SOL     OW27117   6.122   3.716   5.435  0.4685 -0.2363  0.7900
 8906SOL    HW127118   6.196   3.659   5.455  0.1862  0.0663  2.8772
 8906SOL    HW227119   6.064   3.662   5.381  0.1995 -1.9903  2.7299
 8907SOL     OW27120   4.671   6.026   5.170 -0.4481  0.3558 -0.5905
 8907SOL    HW127121   4.679   6.120   5.158  1.5661  0.2516 -0.4427
 8907SOL    HW227122   4.749   5.989   5.127 -2.0135 -1.4050 -2.1194
 8908SOL     OW27123   5.869   2.491   3.654 -0.1201 -0.1009  0.0088
 8908SOL    HW127124   5.800   2.517   3.716 -1.0643  1.3472 -1.5599
 8908SOL    HW227125   5.913   2.573   3.632  0.4230 -0.6445 -0.9630
 8909SOL     OW27126   4.918   4.513   0.358  0.5666  0.0337  0.0579
 8909SOL    HW127127   4.886   4.531   0.447  1.1077  0.5986  0.1484
 8909SOL    HW227128   4.891   4.423   0.340 -0.5879  0.3064  0.3402
 8910SOL     OW27129   0.073   0.044   4.779  0.2923 -0.6138 -0.0755
 8910SOL    HW127130   0.004  -0.005   4.733 -0.3112 -2.2277  2.3710
 8910SOL    HW227131   0.142  -0.020   4.794 -0.8501 -1.1328  3.9258
 8911SOL     OW27132   0.948   0.208   5.954 -0.0959 -0.0809  0.4594
 8911SOL    HW127133   0.983   0.137   6.008  1.1060  1.8976  2.4619
 8911SOL    HW227134   0.918   0.273   6.017 -2.0698  0.8205 -1.3005
 8912SOL     OW27135   6.164   0.050   6.626 -0.0291  0.1741  0.3863
 8912SOL    HW127136   6.194   0.074   6.714  0.7829 -0.0067  0.1687
 8912SOL    HW227137   6.244   0.041   6.575 -0.5418  2.5463 -0.9977
 8913SOL     OW27138   1.216   1.803   0.614  0.1034  0.4350  0.0758
 8913SOL    HW127139   1.245   1.894   0.619  1.3779  0.0578 -0.0722
 8913SOL    HW227140   1.268   1.757   0.679 -1.7708  0.0843  1.4105
 8914SOL     OW27141   5.952   5.767   0.508 -0.1197  0.4726  0.6342
 8914SOL    HW127142   5.870   5.719   0.517  0.6591 -1.1459 -0.3405
 8914SOL    HW227143   6.009   5.730   0.575 -0.2644  1.8849  1.5943
 8915SOL     OW27144   1.345   6.020   4.840  0.0939 -0.6391  0.7486
 8915SOL    HW127145   1.438   6.040   4.825 -0.2589  0.8785  0.4688
 8915SOL    HW227146   1.335   5.930   4.808  1.1971 -0.3769 -0.4277
 8916SOL     OW27147   0.549   5.491   4.321 -0.0249  0.0992  0.5186
 8916SOL    HW127148   0.472   5.543   4.296 -1.6503 -2.4946 -0.1914
 8916SOL    HW227149   0.615   5.513   4.256 -1.1901  0.1695 -0.6753
 8917SOL     OW27150   4.838   0.172   5.434 -0.5799 -0.7362  0.2468
 8917SOL    HW127151   4.783   0.197   5.360 -1.0026 -1.8127  0.1758
 8917SOL    HW227152   4.842   0.250   5.488 -1.1579 -0.2606 -0.3713
 8918SOL     OW27153   3.260   4.412   0.213  0.2497  0.1068 -0.4006
 8918SOL    HW127154   3.227   4.387   0.299 -0.3518 -1.3995 -1.0338
 8918SOL    HW227155   3.200   4.371   0.151  1.4619 -0.0052 -1.5620
 8919SOL     OW27156   2.452   1.457   5.546  0.3266  0.0483  0.0541
 8919SOL    HW127157   2.397   1.470   5.624  0.9519  0.8453  0.3738
 8919SOL    HW227158   2.523   1.520   5.556 -0.1440  0.9081 -1.6930
 8920SOL     OW27159   4.699   1.530   5.569 -0.2826  0.2435 -0.0265
 8920SOL    HW127160   4.669   1.572   5.489 -0.4744 -0.3561 -0.2786
 8920SOL    HW227161   4.627   1.542   5.631 -1.1564 -1.2937 -0.6644
 8921SOL     OW27162   0.997   2.218   1.078 -0.5344 -0.1794 -0.2836
 8921SOL    HW127163   1.010   2.311   1.091 -1.4165 -0.0731 -0.0885
 8921SOL    HW227164   0.940   2.191   1.150  0.7387 -1.1391  0.4182
 8922SOL     OW27165   6.348   0.460   5.406  0.3739  0.3102  0.0117
 8922SOL    HW127166   6.349   0.432   5.497 -0.7168  1.0458  0.2732
 8922SOL    HW227167   6.440   0.461   5.380  0.7201  0.3488  1.1845
 8923SOL     OW27168   4.505   0.930   3.575 -0.9648 -0.3767  0.4665
 8923SOL    HW127169   4.488   0.858   3.514  4.4473 -1.5509 -0.1886
 8923SOL    HW227170   4.497   0.891   3.662 -0.5979 -1.0687  0.1942
 8924SOL     OW27171   5.207   0.890   6.278  0.2221  0.1510  0.4473
 8924SOL    HW127172   5.240   0.914   6.365  1.7485 -1.9122  0.5049
 8924SOL    HW227173   5.274   0.920   6.217 -0.3657  0.6828  0.0417
 8925SOL     OW27174   3.429   2.032   5.343 -0.2704 -0.8423 -0.6925
 8925SOL    HW127175   3.361   2.016   5.278  1.4185 -0.1706 -2.7453
 8925SOL    HW227176   3.463   2.118   5.320 -1.5369  0.8490  2.9746
 8926SOL     OW27177   3.498   6.661   4.313  0.5152 -0.1957 -0.3091
 8926SOL    HW127178   3.570   6.641   4.254 -1.1421 -0.0403 -2.5511
 8926SOL    HW227179   3.503   6.756   4.326  1.5299 -0.3718  0.7756
 8927SOL     OW27180   5.183   3.108   6.051  0.3013  0.2188  0.1895
 8927SOL    HW127181   5.208   3.047   6.121 -0.5797 -1.0055 -0.5161
 8927SOL    HW227182   5.246   3.180   6.058  0.7713 -0.2939  1.6721
 8928SOL     OW27183   3.207   1.250   1.144  0.0101 -0.1247  0.5031
 8928SOL    HW127184   3.246   1.250   1.231 -0.1068 -2.0492  0.6154
 8928SOL    HW227185   3.230   1.335   1.107  0.7885  0.3975  2.0842
 8929SOL     OW27186   5.148   5.700   2.975 -0.1780  0.9424 -0.4025
 8929SOL    HW127187   5.088   5.673   3.044  0.2963  1.2914  0.1521
 8929SOL    HW227188   5.120   5.651   2.898 -0.6664  0.5003  0.0547
 8930SOL     OW27189   3.652   1.742   2.802 -0.0232  0.0942  0.1501
 8930SOL    HW127190   3.613   1.666   2.760 -1.0779  0.3022  0.7226
 8930SOL    HW227191   3.676   1.800   2.730 -0.6534 -0.0970 -0.2189
 8931SOL     OW27192   1.418   1.812   5.427  0.9229  0.2789  0.5749
 8931SOL    HW127193   1.445   1.783   5.340 -1.2850 -0.6212  0.1463
 8931SOL    HW227194   1.493   1.791   5.483  1.2503 -1.9353 -0.5820
 8932SOL     OW27195   1.715   5.481   0.103 -0.1779 -0.5031 -0.0322
 8932SOL    HW127196   1.754   5.552   0.052 -1.7729 -0.3082 -1.0401
 8932SOL    HW227197   1.739   5.401   0.054  0.7270 -0.5914  0.5285
 8933SOL     OW27198   3.009   1.645   6.415  0.0458 -0.2576  0.0401
 8933SOL    HW127199   2.964   1.599   6.345 -0.9682  0.5599  0.1146
 8933SOL    HW227200   3.081   1.588   6.440 -0.5035 -1.2635 -0.6166
 8934SOL     OW27201   3.042   3.524   2.181  0.0648 -0.4305  0.3920
 8934SOL    HW127202   3.022   3.507   2.273  0.1355  1.5095  0.8130
 8934SOL    HW227203   3.013   3.614   2.166  0.1841 -0.6539 -1.4570
 8935SOL     OW27204   3.113   4.243   5.995  0.2429 -0.6386  0.2146
 8935SOL    HW127205   3.192   4.259   6.047  1.6013 -3.8497 -0.5842
 8935SOL    HW227206   3.078   4.161   6.031 -1.1381 -0.7263 -1.2478
 8936SOL     OW27207   0.062   1.162   6.272 -0.4315 -0.6233  0.3672
 8936SOL    HW127208  -0.019   1.118   6.248 -1.1445  0.8660 -0.0707
 8936SOL    HW227209   0.112   1.096   6.319 -3.0654 -0.8034  3.1806
 8937SOL     OW27210   4.435   0.687   5.186 -0.3396 -0.0617  0.1651
 8937SOL    HW127211   4.504   0.666   5.122 -2.6615 -1.3949 -2.1047
 8937SOL    HW227212   4.474   0.755   5.241  3.1357 -1.4788 -0.2696
 8938SOL     OW27213   2.147   0.583   6.609  0.1194 -0.0328  0.5875
 8938SOL    HW127214   2.164   0.530   6.687  0.9141  0.6462  0.8872
 8938SOL    HW227215   2.055   0.608   6.617 -0.0783 -0.7924  0.7901
 8939SOL     OW27216   1.672   4.078   0.394  0.2491  0.5878 -0.2635
 8939SOL    HW127217   1.731   4.113   0.461  0.8257 -0.1248 -0.3802
 8939SOL    HW227218   1.608   4.026   0.444 -0.3854  1.4806 -0.1241
 8940SOL     OW27219   3.250   5.236   4.003  0.2059 -0.0130  0.3029
 8940SOL    HW127220   3.168   5.260   3.959 -0.6251  1.0976  2.3259
 8940SOL    HW227221   3.228   5.158   4.053  0.0665  0.8115  1.5837
 8941SOL     OW27222   2.546   1.721   2.117  0.2108  0.0228 -0.1886
 8941SOL    HW127223   2.606   1.782   2.074  0.1668 -0.7430 -1.3901
 8941SOL    HW227224   2.459   1.757   2.101  0.1773 -0.3927 -0.9944
 8942SOL     OW27225   5.165   6.412   2.053 -0.3055  0.1698 -0.6400
 8942SOL    HW127226   5.129   6.437   2.138  0.0486  0.6042 -0.6156
 8942SOL    HW227227   5.089   6.391   1.999 -0.4796 -2.7568  0.5724
 8943SOL     OW27228   3.625   4.515   5.458  0.1768  0.3202 -0.0838
 8943SOL    HW127229   3.598   4.456   5.529 -3.6893  0.6695 -1.0687
 8943SOL    HW227230   3.602   4.468   5.378 -1.2501  2.3286 -0.9261
 8944SOL     OW27231   0.265   3.601   2.414 -0.3779  0.7073  0.0781
 8944SOL    HW127232   0.239   3.614   2.323 -0.8093  2.5154  0.4113
 8944SOL    HW227233   0.361   3.604   2.412 -0.1706 -2.7853 -0.7253
 8945SOL     OW27234   5.876   3.726   2.551 -0.0422  0.3549 -0.3945
 8945SOL    HW127235   5.926   3.806   2.568 -1.5710  1.2439  0.2132
 8945SOL    HW227236   5.881   3.714   2.456  1.3358  0.3757 -0.3378
 8946SOL     OW27237   2.268   4.964   0.233  0.3207  0.2143 -0.1942
 8946SOL    HW127238   2.273   5.033   0.166  0.4478 -0.7255 -1.1751
 8946SOL    HW227239   2.354   4.922   0.231 -0.6184 -1.7818 -1.6113
 8947SOL     OW27240   2.274   4.230   1.908 -0.4639  0.4408 -0.3421
 8947SOL    HW127241   2.343   4.165   1.900  0.4803  1.4434 -0.5938
 8947SOL    HW227242   2.220   4.200   1.981 -0.2733 -0.8099 -0.7041
 8948SOL     OW27243   0.127   2.689   0.908  0.2588 -0.5242  0.0517
 8948SOL    HW127244   0.048   2.634   0.905  0.1737 -0.4754  1.0696
 8948SOL    HW227245   0.200   2.628   0.906  0.2154 -0.5530 -1.3040
 8949SOL     OW27246   1.116   0.023   4.327 -0.3760  0.1680 -0.1456
 8949SOL    HW127247   1.196  -0.029   4.324 -1.0215 -0.9834  0.9806
 8949SOL    HW227248   1.142   0.106   4.367  0.5378  0.4252 -1.2572
 8950SOL     OW27249   2.029   2.671   5.260 -0.0885  0.0677  0.7044
 8950SOL    HW127250   2.037   2.653   5.166 -0.5039 -0.9390  0.8466
 8950SOL    HW227251   2.041   2.585   5.302  0.4742  0.5681  1.5973
 8951SOL     OW27252   3.226   5.583   6.212 -0.6877 -0.0049 -0.5974
 8951SOL    HW127253   3.231   5.558   6.304 -1.3221  1.2505 -0.2059
 8951SOL    HW227254   3.224   5.678   6.212 -0.3378  0.0266 -1.9373
 8952SOL     OW27255   2.078   0.773   4.500  0.5956 -0.2341  0.3678
 8952SOL    HW127256   2.161   0.821   4.497  1.1806 -1.2663 -0.9380
 8952SOL    HW227257   2.015   0.833   4.459  1.4041 -0.6898 -1.6334
 8953SOL     OW27258   0.288   2.733   3.710 -0.0858 -0.1144  0.6366
 8953SOL    HW127259   0.204   2.761   3.671  0.6086 -1.4706 -2.1418
 8953SOL    HW227260   0.354   2.785   3.665  0.8408 -2.4794 -0.9781
 8954SOL     OW27261   3.252   2.413   0.388  0.0949 -0.5370  0.0153
 8954SOL    HW127262   3.279   2.389   0.476 -0.9642  0.4864  0.6492
 8954SOL    HW227263   3.237   2.329   0.344 -0.3290 -1.0606  1.1187
 8955SOL     OW27264   0.594   3.910   6.348  0.2339 -0.5291 -0.5357
 8955SOL    HW127265   0.677   3.909   6.396  0.2726  1.8383 -0.4148
 8955SOL    HW227266   0.529   3.879   6.411  0.9176 -1.8078 -0.4358
 8956SOL     OW27267   3.176   5.292   1.179  0.6031 -0.0285  0.4895
 8956SOL    HW127268   3.192   5.386   1.167 -0.0082  0.0943  0.6097
 8956SOL    HW227269   3.230   5.269   1.255  0.5637  0.2759  0.6117
 8957SOL     OW27270   1.526   3.093   5.485  0.3083 -0.1064  0.1322
 8957SOL    HW127271   1.620   3.091   5.467  0.7007  1.9704  1.6866
 8957SOL    HW227272   1.519   3.094   5.580 -1.3678 -1.1356  0.0762
 8958SOL     OW27273   6.463   2.216   6.261  0.4519 -0.5174 -0.4802
 8958SOL    HW127274   6.380   2.253   6.231  1.3403  0.3845 -1.9393
 8958SOL    HW227275   6.481   2.261   6.344 -0.5587 -0.8183 -0.0878
 8959SOL     OW27276   4.093   2.070   5.974 -0.1115 -0.0290  0.6473
 8959SOL    HW127277   4.142   1.995   6.008  1.3131  0.3235 -0.5584
 8959SOL    HW227278   4.084   2.128   6.049  0.2534 -0.6436  1.1772
 8960SOL     OW27279   4.285   0.392   6.266 -0.4309 -0.3838 -0.5716
 8960SOL    HW127280   4.197   0.374   6.234 -0.3523 -0.5482 -0.6993
 8960SOL    HW227281   4.319   0.460   6.208 -0.5625 -0.1459 -0.3709
 8961SOL     OW27282   2.926   2.119   6.024  0.7875 -0.1693  0.4674
 8961SOL    HW127283   3.000   2.088   6.077 -0.4421 -0.9590  1.7973
 8961SOL    HW227284   2.858   2.052   6.036 -0.8795  1.5247  0.9534
 8962SOL     OW27285   5.264   3.400   2.798  0.2418  0.0396  0.0619
 8962SOL    HW127286   5.195   3.398   2.864  0.2035 -0.1474  0.0195
 8962SOL    HW227287   5.288   3.492   2.790 -1.1714  0.3317 -1.1292
 8963SOL     OW27288   1.130   5.370   4.095  0.4456  0.2266  0.2076
 8963SOL    HW127289   1.202   5.380   4.033 -2.4248 -1.7172 -3.9099
 8963SOL    HW227290   1.062   5.430   4.063 -1.0436 -0.5689  1.7098
 8964SOL     OW27291   0.468   2.929   1.272  0.2302  0.2224 -0.0688
 8964SOL    HW127292   0.530   2.857   1.263  0.4751  0.1055  2.0524
 8964SOL    HW227293   0.510   3.004   1.229  0.4488 -0.5962 -1.3285
 8965SOL     OW27294   5.298   4.854   2.276  0.3933  0.0696  0.0567
 8965SOL    HW127295   5.266   4.931   2.321 -1.0131 -1.3651  1.6534
 8965SOL    HW227296   5.350   4.807   2.341  1.3638 -0.2777 -0.9296
 8966SOL     OW27297   4.255   2.551   4.303  0.0960 -0.3234  0.8136
 8966SOL    HW127298   4.237   2.470   4.350 -1.3813 -1.1793 -1.0851
 8966SOL    HW227299   4.281   2.523   4.215 -1.6774  1.2159 -0.3014
 8967SOL     OW27300   1.668   1.078   1.833 -0.3156 -0.2503 -0.9660
 8967SOL    HW127301   1.650   1.171   1.849  0.4146 -0.4079  1.1996
 8967SOL    HW227302   1.749   1.078   1.781 -0.3146  0.3266 -0.9714
 8968SOL     OW27303   6.071   6.373   3.465  0.0538  0.2829  0.7032
 8968SOL    HW127304   6.085   6.281   3.488 -0.0320 -0.3887 -1.7007
 8968SOL    HW227305   6.130   6.389   3.391 -1.7708  1.3668 -0.6030
 8969SOL     OW27306   1.439   5.829   2.937  0.1494 -0.3928 -0.1501
 8969SOL    HW127307   1.508   5.773   2.902  1.3378  0.8061  0.1508
 8969SOL    HW227308   1.429   5.898   2.871 -1.0237 -0.7402 -0.3489
 8970SOL     OW27309   5.756   4.553   3.058 -0.0318  0.2262  0.2845
 8970SOL    HW127310   5.796   4.471   3.088 -2.3491 -1.1432 -0.1181
 8970SOL    HW227311   5.772   4.614   3.130  3.2092  0.0043 -0.1073
 8971SOL     OW27312   0.078   5.450   5.392  0.1861  0.7215  0.1394
 8971SOL    HW127313   0.144   5.417   5.453  0.7802 -1.0941 -1.3815
 8971SOL    HW227314   0.122   5.521   5.346  0.9515 -0.1555 -0.5256
 8972SOL     OW27315   0.508   0.863   4.102 -0.8181 -0.3606 -0.0528
 8972SOL    HW127316   0.550   0.940   4.064  0.4026  0.1205  2.1121
 8972SOL    HW227317   0.451   0.897   4.170  0.1026 -1.3509  1.2611
 8973SOL     OW27318   0.374   5.468   5.115  0.6030 -0.0253  0.1440
 8973SOL    HW127319   0.416   5.424   5.042 -0.1657  1.3824 -1.2025
 8973SOL    HW227320   0.394   5.413   5.191  4.1252  0.0983 -0.5204
 8974SOL     OW27321   1.685   5.011   2.005  0.1192  0.5644 -0.2063
 8974SOL    HW127322   1.603   4.965   2.024  0.0850 -0.1681 -1.9725
 8974SOL    HW227323   1.750   4.967   2.060 -0.1203 -0.9351 -1.0518
 8975SOL     OW27324   4.918   4.943   6.316  0.9355 -0.4946  0.8994
 8975SOL    HW127325   4.879   4.953   6.229 -0.3630 -2.2144  1.2297
 8975SOL    HW227326   5.011   4.928   6.299  0.4114 -2.7563 -0.3706
 8976SOL     OW27327   5.662   0.103   3.376 -0.1223 -0.3175  0.0295
 8976SOL    HW127328   5.569   0.118   3.391  0.0040  0.3716  0.1302
 8976SOL    HW227329   5.704   0.187   3.395  0.4085 -0.3371 -0.9982
 8977SOL     OW27330   0.031   3.064   1.003 -0.8602 -0.1063 -0.6535
 8977SOL    HW127331   0.113   3.027   0.970  0.0544  1.1250  0.1671
 8977SOL    HW227332  -0.037   3.013   0.959  0.3281 -1.6245 -0.8274
 8978SOL     OW27333   4.165   4.235   5.913 -0.2557 -0.0456  0.2801
 8978SOL    HW127334   4.178   4.170   5.845  2.6062  1.8673 -1.1979
 8978SOL    HW227335   4.204   4.197   5.991  2.1193  0.1081 -0.7617
 8979SOL     OW27336   6.323   1.920   3.750 -0.0539  0.2112 -0.0182
 8979SOL    HW127337   6.269   1.959   3.819 -2.6823 -0.4819 -1.5594
 8979SOL    HW227338   6.406   1.968   3.755 -0.7671  1.3529  2.4594
 8980SOL     OW27339   1.748   3.403   3.128  0.3521 -0.0369  0.6294
 8980SOL    HW127340   1.762   3.356   3.210  0.7119 -2.2573 -0.6366
 8980SOL    HW227341   1.795   3.352   3.063 -0.3828  1.3628 -1.0617
 8981SOL     OW27342   4.155   0.988   0.966 -0.1750  0.3010 -0.7924
 8981SOL    HW127343   4.166   0.909   0.912 -1.3405  0.0565 -0.6881
 8981SOL    HW227344   4.061   0.994   0.981  0.1076  0.3646  1.2270
 8982SOL     OW27345   3.952   4.580   2.076 -0.3640  0.0291  0.5971
 8982SOL    HW127346   3.894   4.572   2.152  1.1307  0.9848  1.8698
 8982SOL    HW227347   3.991   4.493   2.067 -0.0455  0.0829  1.3574
 8983SOL     OW27348   5.688   0.761   2.358 -0.2733 -0.0483  0.1674
 8983SOL    HW127349   5.704   0.677   2.316  0.3142  0.6195 -1.0247
 8983SOL    HW227350   5.709   0.826   2.290 -2.1277  1.0403  0.5605
 8984SOL     OW27351   2.087   2.198   2.819  0.1480 -0.0168 -0.2226
 8984SOL    HW127352   2.039   2.250   2.884  0.1620  0.0941 -0.3008
 8984SOL    HW227353   2.097   2.256   2.744  0.7752  0.1091 -0.0490
 8985SOL     OW27354   5.812   5.581   3.604  0.0198 -0.1546  0.7829
 8985SOL    HW127355   5.840   5.550   3.690 -0.6968 -1.7989  0.4727
 8985SOL    HW227356   5.718   5.597   3.614 -0.2883 -1.3817  0.0625
 8986SOL     OW27357   5.305   5.496   0.415  0.1204 -0.3020 -0.0663
 8986SOL    HW127358   5.353   5.436   0.472  0.5631  0.7486  0.7086
 8986SOL    HW227359   5.248   5.545   0.475 -0.7626 -0.4225 -0.7718
 8987SOL     OW27360   4.180   1.038   5.715  0.3257 -0.0922 -0.4991
 8987SOL    HW127361   4.198   1.025   5.808 -0.3406  0.4129 -0.2952
 8987SOL    HW227362   4.130   1.119   5.711  0.7660  0.1451 -1.3502
 8988SOL     OW27363   3.592   3.859   1.863 -0.1431  0.0675  0.0246
 8988SOL    HW127364   3.680   3.827   1.847 -0.1466  0.8559 -1.7774
 8988SOL    HW227365   3.583   3.858   1.959  2.3752  1.3884  0.3570
 8989SOL     OW27366   6.350   6.277   6.168  0.1149 -0.0793  0.1901
 8989SOL    HW127367   6.399   6.241   6.243  0.2859  0.0039  0.1194
 8989SOL    HW227368   6.399   6.355   6.144 -1.1168  1.0838  1.3177
 8990SOL     OW27369   0.424   0.483   2.390  0.0489 -0.1533 -0.3015
 8990SOL    HW127370   0.422   0.414   2.325 -0.6434  0.6049 -1.1093
 8990SOL    HW227371   0.464   0.558   2.345  0.9570 -0.0608  0.6087
 8991SOL     OW27372   2.376   0.425   2.271 -0.1050 -0.0075  0.4896
 8991SOL    HW127373   2.398   0.457   2.359 -0.4795 -0.2480  0.6740
 8991SOL    HW227374   2.428   0.346   2.261 -1.0713 -0.7411  1.0429
 8992SOL     OW27375   6.594   5.420   5.444 -0.3260  0.0765  0.0338
 8992SOL    HW127376   6.583   5.482   5.516 -0.4431 -0.2358  0.2855
 8992SOL    HW227377   6.688   5.419   5.427 -0.0024 -1.4813  1.6389
 8993SOL     OW27378   1.415   0.171   3.790 -0.6125 -0.4928 -0.5033
 8993SOL    HW127379   1.368   0.186   3.873  1.8223 -3.7592  1.7402
 8993SOL    HW227380   1.395   0.080   3.768  1.1383 -0.5847 -1.8804
 8994SOL     OW27381   3.910   4.928   1.452 -0.4642  0.1331  0.5610
 8994SOL    HW127382   3.903   5.016   1.488  0.5959 -0.7299  3.0697
 8994SOL    HW227383   3.986   4.890   1.495 -1.1219 -2.1447 -0.1496
 8995SOL     OW27384   6.739   1.742   3.762  0.0706 -0.6314 -0.1598
 8995SOL    HW127385   6.759   1.783   3.847 -0.2854 -1.7656  0.5011
 8995SOL    HW227386   6.682   1.805   3.718  2.2872  1.1545 -0.6820
 8996SOL     OW27387   5.986   5.164   1.687 -0.1020 -0.9077 -0.0840
 8996SOL    HW127388   6.032   5.200   1.762  0.7914 -1.4776 -0.3421
 8996SOL    HW227389   5.941   5.087   1.721 -2.1027  0.4255  0.4926
 8997SOL     OW27390   3.371   4.711   3.884 -0.0680 -0.1476 -0.0622
 8997SOL    HW127391   3.394   4.792   3.930  0.0427  0.4819 -1.1963
 8997SOL    HW227392   3.280   4.694   3.910 -0.4848  0.9826 -0.6894
 8998SOL     OW27393   1.888   1.252   4.251  0.3036 -0.4157 -0.3703
 8998SOL    HW127394   1.963   1.259   4.192  0.4088 -0.4984 -0.2462
 8998SOL    HW227395   1.823   1.203   4.201  0.6798 -1.1698 -0.1343
 8999SOL     OW27396   4.988   2.680   5.046  0.0702  0.2396 -0.7229
 8999SOL    HW127397   4.993   2.610   5.110 -0.3870 -0.6812 -1.6609
 8999SOL    HW227398   4.989   2.635   4.961 -1.5960  1.2697 -1.3306
 9000SOL     OW27399   4.393   2.016   6.241 -0.8737 -0.2040 -0.0517
 9000SOL    HW127400   4.426   2.011   6.151  1.2072 -0.7960  0.7050
 9000SOL    HW227401   4.376   2.109   6.256 -1.6244 -0.1402 -1.1589
 9001SOL     OW27402   0.329   5.094   6.560  0.1750  0.3382  0.0550
 9001SOL    HW127403   0.246   5.065   6.521 -1.1761  1.7920  1.6804
 9001SOL    HW227404   0.362   5.160   6.499  0.9735 -1.2775 -1.3575
 9002SOL     OW27405   1.447   1.934   1.921  0.0334 -0.1255  0.6700
 9002SOL    HW127406   1.494   1.874   1.864  1.3813 -1.0757  2.6471
 9002SOL    HW227407   1.500   1.938   2.001 -1.1750  1.9775  1.4670
 9003SOL     OW27408   2.363   4.519   1.225  0.2165  0.3356 -0.1173
 9003SOL    HW127409   2.423   4.554   1.159 -0.1311 -0.4055 -0.8325
 9003SOL    HW227410   2.399   4.432   1.246  0.9623  0.9867  1.5046
 9004SOL     OW27411   5.346   1.996   3.606  0.1523  0.3590 -0.1121
 9004SOL    HW127412   5.266   2.031   3.645  0.8173  0.9542  0.7621
 9004SOL    HW227413   5.339   2.016   3.513 -1.5778 -1.2884 -0.3894
 9005SOL     OW27414   3.652   3.905   3.440  0.2152  0.5924 -0.2468
 9005SOL    HW127415   3.653   3.917   3.346  0.5018  0.5642 -0.2460
 9005SOL    HW227416   3.572   3.853   3.456 -0.8090  2.0930 -0.2805
 9006SOL     OW27417   4.767   0.360   0.733  0.4208 -0.5751 -0.4364
 9006SOL    HW127418   4.681   0.402   0.738  0.4953 -0.4887  0.2037
 9006SOL    HW227419   4.773   0.328   0.643  0.5724  1.2297 -1.1121
 9007SOL     OW27420   0.777   6.561   2.967  0.0798  0.1306 -0.2171
 9007SOL    HW127421   0.816   6.531   3.049  0.6002  0.2883 -0.4019
 9007SOL    HW227422   0.741   6.482   2.927 -0.1455  0.0493  0.1460
 9008SOL     OW27423   5.010   5.894   2.827  0.2569 -0.1271  0.2060
 9008SOL    HW127424   5.066   5.861   2.897  2.3482  1.8324 -0.4377
 9008SOL    HW227425   5.007   5.823   2.762  2.1605 -0.2224  0.1872
 9009SOL     OW27426   5.585   0.585   0.055  0.5401 -0.5920 -0.6970
 9009SOL    HW127427   5.569   0.669   0.098 -1.0318 -1.1859 -0.0522
 9009SOL    HW227428   5.605   0.608  -0.035  0.6100  0.5074 -0.4181
 9010SOL     OW27429   5.605   5.858   1.070 -0.0531  0.5489 -0.0455
 9010SOL    HW127430   5.615   5.935   1.015 -0.2020  0.1829 -0.5919
 9010SOL    HW227431   5.621   5.890   1.159 -0.9762  1.3983 -0.1663
 9011SOL     OW27432   2.825   1.079   2.863  0.1143  0.1519 -0.1680
 9011SOL    HW127433   2.868   1.046   2.784  0.5511  1.9459 -0.7368
 9011SOL    HW227434   2.880   1.152   2.891  0.0130 -0.4893  1.8689
 9012SOL     OW27435   4.407   6.330   5.394 -0.2456  0.5260 -0.0034
 9012SOL    HW127436   4.396   6.235   5.400 -1.7242  0.6365 -0.4170
 9012SOL    HW227437   4.365   6.364   5.473  0.1151  0.8495  0.0536
 9013SOL     OW27438   1.416   1.203   2.709 -0.5179  0.5603 -0.2417
 9013SOL    HW127439   1.469   1.127   2.682  1.6760  2.1781 -0.8109
 9013SOL    HW227440   1.478   1.259   2.756 -2.2385  1.7465  0.6965
 9014SOL     OW27441   4.945   5.595   0.004 -0.1755  0.1476  0.2703
 9014SOL    HW127442   4.884   5.529  -0.028  2.0696 -1.0771 -1.7914
 9014SOL    HW227443   4.923   5.605   0.097 -1.6809 -2.2715  0.2597
 9015SOL     OW27444   2.739   5.084   5.043  0.0449 -0.1096 -0.1360
 9015SOL    HW127445   2.693   5.029   5.108 -0.5507  1.8173  1.1730
 9015SOL    HW227446   2.779   5.154   5.095  1.7033  0.1224 -1.6306
 9016SOL     OW27447   4.054   1.465   6.254 -0.5614  0.1432 -0.2543
 9016SOL    HW127448   4.061   1.369   6.253  0.8087  0.2270 -1.3297
 9016SOL    HW227449   4.109   1.492   6.327 -1.6180  0.0983  0.5879
 9017SOL     OW27450   0.543   2.129   3.224  0.6304  0.3583 -0.0855
 9017SOL    HW127451   0.580   2.203   3.176 -0.3420  1.3652  0.6682
 9017SOL    HW227452   0.460   2.162   3.259 -0.8571 -1.7096 -1.4132
 9018SOL     OW27453   5.654   5.568   2.307  0.0063 -0.1976 -0.2864
 9018SOL    HW127454   5.730   5.512   2.324  1.3256  1.8774  1.1225
 9018SOL    HW227455   5.640   5.615   2.389 -2.4084  0.0009 -0.7475
 9019SOL     OW27456   2.024   1.196   5.096 -0.0473 -0.1319  0.2204
 9019SOL    HW127457   2.119   1.197   5.087  0.0604  0.6426  1.2381
 9019SOL    HW227458   1.996   1.283   5.068 -0.4520 -0.3512 -0.0594
 9020SOL     OW27459   5.145   4.824   2.554 -0.3112  0.0899  0.6574
 9020SOL    HW127460   5.132   4.796   2.644 -0.2070  0.0291  0.6544
 9020SOL    HW227461   5.239   4.810   2.539 -0.1839  0.7713  0.7719
 9021SOL     OW27462   1.478   0.162   2.021 -0.5559  0.3167 -0.4700
 9021SOL    HW127463   1.483   0.197   1.932  1.1651  1.4867  0.0340
 9021SOL    HW227464   1.491   0.239   2.078  0.2257 -0.6771  0.7405
 9022SOL     OW27465   2.362   1.745   5.884 -0.1183 -0.1071  0.5226
 9022SOL    HW127466   2.303   1.765   5.957 -0.1388 -1.0193  0.7717
 9022SOL    HW227467   2.436   1.805   5.897 -0.2223 -0.1096  1.1683
 9023SOL     OW27468   0.665   2.119   5.760  0.0777 -0.1655  0.0587
 9023SOL    HW127469   0.628   2.150   5.844 -0.3320 -2.0441  0.6104
 9023SOL    HW227470   0.745   2.170   5.750 -0.7649  1.3964  0.6703
 9024SOL     OW27471   4.283   6.307   2.000 -0.4271 -0.4556  0.5106
 9024SOL    HW127472   4.224   6.245   1.958 -0.5699  0.3322 -0.4817
 9024SOL    HW227473   4.364   6.258   2.015 -0.4020 -0.7804 -0.6204
 9025SOL     OW27474   6.101   5.318   0.276  0.0878  0.0158 -0.2155
 9025SOL    HW127475   6.046   5.260   0.329 -0.0161  1.0329  0.8474
 9025SOL    HW227476   6.146   5.260   0.215 -1.0388 -1.0102 -0.1121
 9026SOL     OW27477   5.104   5.367   5.665  0.4075 -0.2087  0.5010
 9026SOL    HW127478   5.170   5.303   5.692 -0.1374 -0.3023  1.6825
 9026SOL    HW227479   5.073   5.405   5.747  2.2664  3.2055 -0.2212
 9027SOL     OW27480   1.666   0.917   4.949  0.1282 -0.3569 -0.4786
 9027SOL    HW127481   1.681   0.932   5.043 -0.9927  0.8371 -0.4694
 9027SOL    HW227482   1.742   0.959   4.907  0.8548 -1.2623 -0.1083
 9028SOL     OW27483   5.515   0.066   0.189  0.1152  0.2641 -0.2051
 9028SOL    HW127484   5.436   0.049   0.239  0.3011 -0.3918 -0.1247
 9028SOL    HW227485   5.485   0.080   0.100  0.0300 -1.7716 -0.5479
 9029SOL     OW27486   3.957   2.528   4.813  0.3344  0.0958  0.4172
 9029SOL    HW127487   3.968   2.490   4.726  3.0641 -0.9518  1.1294
 9029SOL    HW227488   3.865   2.511   4.835  0.0368 -1.1588 -1.5198
 9030SOL     OW27489   0.506   2.125   6.020 -0.5874 -0.6622 -0.7759
 9030SOL    HW127490   0.590   2.081   6.035 -0.5349 -0.6010 -0.8912
 9030SOL    HW227491   0.459   2.115   6.103 -0.1744 -0.0540 -0.4580
 9031SOL     OW27492   5.611   3.042   5.508 -0.1921 -0.3275 -0.2106
 9031SOL    HW127493   5.637   2.951   5.521  1.6981  0.2620  0.4745
 9031SOL    HW227494   5.688   3.093   5.534 -0.9335  1.4472 -1.3075
 9032SOL     OW27495   1.308   2.507   2.482  0.2264  0.2761  0.6729
 9032SOL    HW127496   1.228   2.474   2.440  1.0757 -1.3246  0.2763
 9032SOL    HW227497   1.286   2.510   2.575 -0.0444 -0.9444  0.6657
 9033SOL     OW27498   2.333   4.818   1.257  0.2767 -0.0358 -0.1825
 9033SOL    HW127499   2.410   4.762   1.265  0.5284  0.4245  0.8456
 9033SOL    HW227500   2.260   4.762   1.282  0.3971 -0.2234 -0.2549
 9034SOL     OW27501   2.878   1.377   2.507  0.1028  0.0217 -0.5416
 9034SOL    HW127502   2.936   1.444   2.470  0.4082 -0.0333 -0.1656
 9034SOL    HW227503   2.869   1.401   2.599  0.0345 -0.3293 -0.4555
 9035SOL     OW27504   3.113   2.098   2.840  0.2739  0.3401 -0.3727
 9035SOL    HW127505   3.131   2.188   2.867 -0.2482  1.1252 -2.4172
 9035SOL    HW227506   3.029   2.077   2.881 -0.2628  1.3056 -0.9286
 9036SOL     OW27507   6.306   2.092   3.454 -0.1872  0.2754  0.1548
 9036SOL    HW127508   6.285   2.006   3.418 -1.0214 -0.0268  1.3152
 9036SOL    HW227509   6.313   2.148   3.377  2.4455 -1.1893 -0.7955
 9037SOL     OW27510   2.952   6.618   1.365 -0.0192  0.7327 -0.4311
 9037SOL    HW127511   3.007   6.620   1.443  0.7539  0.7249 -0.9669
 9037SOL    HW227512   2.886   6.685   1.381  0.4701  1.1241 -0.0166
 9038SOL     OW27513   2.020   5.678   1.868  0.0402 -0.5886  0.2403
 9038SOL    HW127514   2.085   5.661   1.937 -0.3024  0.0404  0.7223
 9038SOL    HW227515   1.947   5.719   1.913 -0.1179 -0.0037 -0.5232
 9039SOL     OW27516   2.773   4.806   0.435 -0.2400 -0.1741  0.0005
 9039SOL    HW127517   2.790   4.712   0.431  0.5996 -0.0496  0.3749
 9039SOL    HW227518   2.802   4.839   0.350 -1.9652 -0.4503 -0.7341
 9040SOL     OW27519   4.025   1.649   1.314  0.4962  0.3683 -0.4088
 9040SOL    HW127520   4.036   1.554   1.319 -1.3762  0.1503  1.2487
 9040SOL    HW227521   3.975   1.663   1.234 -0.2882 -0.2237 -0.0473
 9041SOL     OW27522   6.207   2.793   4.348  0.2546  0.2136  0.3620
 9041SOL    HW127523   6.291   2.765   4.311  1.1610  0.3605  2.2331
 9041SOL    HW227524   6.224   2.880   4.383 -0.7569  0.3518  0.5294
 9042SOL     OW27525   5.993   1.639   4.225  0.0800 -0.5314 -0.1052
 9042SOL    HW127526   5.923   1.674   4.280  1.0589  1.1387  0.1519
 9042SOL    HW227527   6.030   1.567   4.276  0.2045  0.2340  0.9166
 9043SOL     OW27528   3.081   0.713   4.898  0.0743  0.6076  0.2033
 9043SOL    HW127529   3.022   0.777   4.857 -1.6206 -1.6492 -1.1576
 9043SOL    HW227530   3.128   0.674   4.824 -0.1434 -0.8180  0.7893
 9044SOL     OW27531   3.722   3.893   3.705  0.0282  0.0139 -0.4780
 9044SOL    HW127532   3.720   3.928   3.616  4.1622 -0.9147 -1.1362
 9044SOL    HW227533   3.680   3.807   3.697 -0.2226  0.2050 -1.3532
 9045SOL     OW27534   2.254   6.231   2.527 -0.3277 -0.6266  0.3195
 9045SOL    HW127535   2.195   6.288   2.576  0.6981 -1.7510  3.0728
 9045SOL    HW227536   2.224   6.143   2.547  1.8752 -1.2140  1.3552
 9046SOL     OW27537   2.080   4.206   5.655 -0.3809  0.5469 -0.2126
 9046SOL    HW127538   2.059   4.167   5.571  0.6140  0.3971 -0.4014
 9046SOL    HW227539   2.084   4.300   5.638 -0.5906  0.5526 -0.2355
 9047SOL     OW27540   4.822   6.409   3.046 -0.5418  0.2171  0.0763
 9047SOL    HW127541   4.743   6.383   2.999 -0.8183 -0.1229  0.7116
 9047SOL    HW227542   4.891   6.408   2.980 -1.1816  1.1473 -0.6337
 9048SOL     OW27543   4.543   0.529   0.715 -0.1975  0.6449 -0.2616
 9048SOL    HW127544   4.579   0.599   0.661 -1.1110  0.1051 -1.6320
 9048SOL    HW227545   4.508   0.573   0.792  1.4519  1.4027  0.1151
 9049SOL     OW27546   4.201   0.025   1.065 -0.1378 -0.0203  0.3108
 9049SOL    HW127547   4.116   0.030   1.021 -0.2318 -0.9219  0.3662
 9049SOL    HW227548   4.264   0.055   1.000 -0.7218  3.3718  1.1240
 9050SOL     OW27549   1.163   2.662   5.048  0.1959  0.0777 -0.0579
 9050SOL    HW127550   1.155   2.604   5.123  1.9171  1.1139  0.9885
 9050SOL    HW227551   1.254   2.652   5.020 -0.2254  0.2475 -1.5820
 9051SOL     OW27552   4.066   5.619   2.077  0.0900 -0.1781  0.4288
 9051SOL    HW127553   4.070   5.654   2.166 -1.3872  0.1607  0.3880
 9051SOL    HW227554   4.044   5.527   2.088  2.0492 -0.6913  0.4598
 9052SOL     OW27555   6.494   3.538   4.112  0.1930  0.1058  0.1045
 9052SOL    HW127556   6.575   3.495   4.141  0.1966 -0.9559 -1.3842
 9052SOL    HW227557   6.426   3.502   4.168  0.2552 -1.5903 -0.8590
 9053SOL     OW27558   1.537   0.887   4.086  0.3303  0.5542  0.0810
 9053SOL    HW127559   1.465   0.824   4.079  0.0778  1.0238 -2.3560
 9053SOL    HW227560   1.507   0.964   4.039  2.9813  0.1457 -2.6395
 9054SOL     OW27561   0.203   0.155   1.321  0.1989  0.4647  0.0677
 9054SOL    HW127562   0.219   0.245   1.349 -2.9485  0.7036  1.4392
 9054SOL    HW227563   0.174   0.163   1.230  0.8925  0.6854 -0.1441
 9055SOL     OW27564   4.269   6.146   0.624 -0.4837  0.1366 -0.3628
 9055SOL    HW127565   4.234   6.115   0.708 -1.7608 -2.0311 -1.5857
 9055SOL    HW227566   4.202   6.121   0.560 -0.1324  2.8410 -1.9313
 9056SOL     OW27567   6.043   0.174   4.035  0.0802  0.0342  0.3206
 9056SOL    HW127568   6.090   0.230   4.097  1.1894 -0.6138  0.1086
 9056SOL    HW227569   5.951   0.181   4.060  0.2797  1.3931  0.7219
 9057SOL     OW27570   0.652   1.656   3.688  0.8144  0.0059  0.2179
 9057SOL    HW127571   0.704   1.731   3.715  0.9224 -0.6579  1.9910
 9057SOL    HW227572   0.614   1.623   3.769  0.7269 -1.8209 -0.5177
 9058SOL     OW27573   2.521   2.305   2.935 -0.2559  0.2961 -0.0200
 9058SOL    HW127574   2.524   2.308   3.031  0.0977  1.7980 -0.0626
 9058SOL    HW227575   2.452   2.242   2.916  0.8279 -1.3556  1.2016
 9059SOL     OW27576   6.043   2.569   1.359  0.5801 -1.0834  0.2880
 9059SOL    HW127577   6.056   2.510   1.433 -1.0854  1.0665  2.4939
 9059SOL    HW227578   6.131   2.600   1.337  1.3910 -3.7433 -0.4715
 9060SOL     OW27579   3.018   5.133   6.055  0.0949 -0.0069  0.2954
 9060SOL    HW127580   2.965   5.054   6.041 -1.0755  0.7397  0.3244
 9060SOL    HW227581   2.984   5.196   5.991 -0.3693  1.1108  1.5887
 9061SOL     OW27582   2.104   0.373   6.279 -0.3170  0.0204 -0.3559
 9061SOL    HW127583   2.149   0.297   6.315  0.3002  0.0953 -0.9429
 9061SOL    HW227584   2.172   0.422   6.233 -0.9944  0.1070 -1.3091
 9062SOL     OW27585   3.709   0.820   0.512  0.0342 -0.1461 -0.0755
 9062SOL    HW127586   3.794   0.856   0.486  0.1236 -0.7888 -0.6868
 9062SOL    HW227587   3.657   0.897   0.535  0.4193  0.3297 -0.7586
 9063SOL     OW27588   6.269   5.766   6.417  0.4799  0.0151  0.0066
 9063SOL    HW127589   6.297   5.848   6.377  0.7685 -0.5984 -1.0947
 9063SOL    HW227590   6.261   5.786   6.511 -2.1725  2.0181 -0.5494
 9064SOL     OW27591   4.896   4.908   6.600 -0.1683 -0.0340  0.5724
 9064SOL    HW127592   4.924   4.992   6.635 -0.0112 -0.7081  2.1339
 9064SOL    HW227593   4.907   4.917   6.505 -1.0472  2.0187  0.5960
 9065SOL     OW27594   1.490   6.119   0.659 -0.1130  0.2342 -0.1936
 9065SOL    HW127595   1.489   6.039   0.606 -0.8418  0.1670 -0.0955
 9065SOL    HW227596   1.527   6.186   0.602  1.3528 -0.3577  0.0126
 9066SOL     OW27597   2.348   2.187   6.148  0.2247 -0.2061 -0.0750
 9066SOL    HW127598   2.314   2.267   6.189 -0.7717 -1.0610  0.8340
 9066SOL    HW227599   2.272   2.148   6.105  0.7070 -0.6607 -0.5246
 9067SOL     OW27600   1.711   4.910   3.955  0.0631 -0.1957  0.1564
 9067SOL    HW127601   1.702   4.818   3.931 -1.1454  0.6892 -3.3579
 9067SOL    HW227602   1.697   4.912   4.050 -1.0124 -3.4526  0.1725
 9068SOL     OW27603   6.205   5.106   3.107 -0.4286 -0.0331  0.0309
 9068SOL    HW127604   6.259   5.109   3.185  0.0258  0.0037 -0.2807
 9068SOL    HW227605   6.263   5.073   3.038 -0.3761  1.4023 -0.6462
 9069SOL     OW27606   1.522   1.508   4.891 -0.0053  0.2707 -0.0414
 9069SOL    HW127607   1.532   1.488   4.984 -2.7583  0.7687  0.4473
 9069SOL    HW227608   1.500   1.424   4.850  3.0147 -0.3269 -0.6665
 9070SOL     OW27609   1.887   2.977   5.995  0.5971  0.2520 -0.2767
 9070SOL    HW127610   1.820   3.045   6.001  1.7162  1.3154  0.9444
 9070SOL    HW227611   1.970   3.024   6.004  1.3896 -1.3587  1.6997
 9071SOL     OW27612   2.531   4.953   3.003 -0.1552  0.0426 -0.3490
 9071SOL    HW127613   2.514   5.047   3.006 -2.4673 -0.3161 -0.7279
 9071SOL    HW227614   2.465   4.918   2.944  0.6416 -1.8472 -0.2061
 9072SOL     OW27615   1.538   3.262   3.860 -0.0462 -0.3347 -0.5630
 9072SOL    HW127616   1.616   3.292   3.813  0.4091 -1.5063 -0.5829
 9072SOL    HW227617   1.479   3.338   3.858  1.0144  0.5190 -0.6918
 9073SOL     OW27618   0.016   4.139   5.000  0.0600  0.0639 -0.4307
 9073SOL    HW127619  -0.020   4.073   4.941  0.8396  0.0493 -0.9053
 9073SOL    HW227620   0.076   4.091   5.057  1.1223  0.4411 -1.1981
 9074SOL     OW27621   1.557   2.289   4.569 -0.0549  0.2717 -0.1622
 9074SOL    HW127622   1.475   2.338   4.574  0.2727  0.9134 -0.8069
 9074SOL    HW227623   1.531   2.201   4.542 -0.4922  0.6098 -0.8844
 9075SOL     OW27624   4.547   6.386   5.161  0.1346  0.3124  0.8207
 9075SOL    HW127625   4.507   6.355   5.242 -1.5565 -0.7509 -0.3603
 9075SOL    HW227626   4.520   6.478   5.154  0.3737  0.4370  1.5018
 9076SOL     OW27627   4.697   6.436   0.601  0.1768  0.0331  0.0146
 9076SOL    HW127628   4.791   6.420   0.611 -0.2977 -3.0730  0.6836
 9076SOL    HW227629   4.661   6.427   0.689 -0.9472 -0.8431 -0.4984
 9077SOL     OW27630   5.678   2.464   0.947 -0.1878  0.1044 -0.1096
 9077SOL    HW127631   5.604   2.466   1.007  0.6025 -1.6263  0.9922
 9077SOL    HW227632   5.755   2.471   1.004  0.5330  1.0776 -1.1649
 9078SOL     OW27633   3.137   2.488   2.523 -0.3303  0.5935  0.4511
 9078SOL    HW127634   3.151   2.525   2.436 -0.0779 -1.7269 -0.5762
 9078SOL    HW227635   3.178   2.550   2.583  1.3091  1.2623 -1.2633
 9079SOL     OW27636   1.341   3.443   3.810  0.4143  0.1026 -0.0196
 9079SOL    HW127637   1.259   3.490   3.801 -0.5495 -1.5695 -0.2942
 9079SOL    HW227638   1.386   3.455   3.726  0.2530  0.6351 -0.0319
 9080SOL     OW27639   2.751   3.184   3.894  0.3792 -0.5062 -0.0379
 9080SOL    HW127640   2.818   3.155   3.832  1.2898 -0.3760  0.8650
 9080SOL    HW227641   2.729   3.272   3.865  0.0058 -0.8331 -0.8070
 9081SOL     OW27642   5.999   1.968   0.397 -0.6886 -0.0354 -0.1948
 9081SOL    HW127643   5.982   2.011   0.313 -0.6012 -1.0810 -0.7656
 9081SOL    HW227644   5.916   1.973   0.444 -0.7036  0.6657 -0.2873
 9082SOL     OW27645   2.547   4.247   6.452  0.0603  0.2152  0.0831
 9082SOL    HW127646   2.614   4.178   6.457 -0.1832  0.0343  1.0083
 9082SOL    HW227647   2.490   4.221   6.380  0.0274 -0.5066  0.3651
 9083SOL     OW27648   3.764   4.736   4.649  0.1103 -0.0401 -0.2349
 9083SOL    HW127649   3.696   4.672   4.668 -1.1061  1.8118  2.2726
 9083SOL    HW227650   3.729   4.789   4.577 -0.5261  0.0525  0.1364
 9084SOL     OW27651   3.376   0.365   2.836  0.1275 -0.0369  0.7101
 9084SOL    HW127652   3.410   0.385   2.923 -0.3651  3.3659  0.2600
 9084SOL    HW227653   3.452   0.333   2.788  0.9859  0.4219  1.7145
 9085SOL     OW27654   3.437   2.526   5.373  0.3819  0.2178  0.5643
 9085SOL    HW127655   3.418   2.440   5.411 -0.6923  0.6611  1.0634
 9085SOL    HW227656   3.356   2.552   5.330 -0.5034  2.4413  3.2613
 9086SOL     OW27657   3.434   5.547   0.869 -0.3498  0.3769 -0.2949
 9086SOL    HW127658   3.418   5.452   0.871 -0.8022  0.4401  2.3471
 9086SOL    HW227659   3.527   5.556   0.889 -0.7977  0.5144  1.9132
 9087SOL     OW27660   1.104   6.060   0.526  0.6787  0.1864 -0.5988
 9087SOL    HW127661   1.119   6.131   0.463 -2.5000  1.0838 -0.4819
 9087SOL    HW227662   1.143   5.983   0.484  1.4926  1.3808 -2.1621
 9088SOL     OW27663   0.767   5.089   2.665 -0.0094 -0.1603  1.2430
 9088SOL    HW127664   0.760   5.045   2.749 -0.2271 -2.0445  0.3003
 9088SOL    HW227665   0.735   5.024   2.602  1.1399  0.8009 -0.3984
 9089SOL     OW27666   4.756   6.020   1.495  0.2896 -0.4573  0.1050
 9089SOL    HW127667   4.762   6.094   1.555 -1.2076  0.6022 -0.9903
 9089SOL    HW227668   4.810   6.045   1.420 -0.0593 -0.5630 -0.1846
 9090SOL     OW27669   5.095   2.303   3.547  0.0509  0.1748 -0.1470
 9090SOL    HW127670   5.047   2.223   3.569  0.5271 -0.1338 -0.2245
 9090SOL    HW227671   5.186   2.275   3.540  0.0731  0.5052 -1.3031
 9091SOL     OW27672   0.541   6.780   3.928 -0.5697 -0.5102  0.0826
 9091SOL    HW127673   0.447   6.761   3.927 -0.3176 -1.9957  1.0395
 9091SOL    HW227674   0.572   6.741   4.010  0.8872 -0.0430 -0.2248
 9092SOL     OW27675   2.958   3.304   5.348 -0.8011 -0.0794 -0.2061
 9092SOL    HW127676   2.993   3.219   5.319 -0.7950 -0.0982 -0.1439
 9092SOL    HW227677   3.011   3.327   5.425 -1.3628 -0.4288  0.2937
 9093SOL     OW27678   4.260   1.582   4.774 -0.0357 -0.1462 -0.1681
 9093SOL    HW127679   4.166   1.602   4.776  0.1902  0.9767  0.2907
 9093SOL    HW227680   4.264   1.487   4.765 -1.2240 -0.2474  0.1098
 9094SOL     OW27681   3.079   4.328   3.607  0.0879 -0.2170  0.2982
 9094SOL    HW127682   3.075   4.359   3.517 -0.2885 -0.0824  0.3620
 9094SOL    HW227683   2.988   4.307   3.630  0.3219 -1.3627  0.2554
 9095SOL     OW27684   2.681   2.750   0.832 -0.5234  0.2114  0.3757
 9095SOL    HW127685   2.640   2.735   0.747  0.1001  1.0684 -0.1048
 9095SOL    HW227686   2.775   2.740   0.815 -0.4692 -0.8547  1.2514
 9096SOL     OW27687   4.634   2.824   6.608 -0.0364  0.8299 -0.1559
 9096SOL    HW127688   4.618   2.902   6.661  1.9700  0.4302  1.1668
 9096SOL    HW227689   4.670   2.760   6.670 -2.3105 -1.4820 -1.0251
 9097SOL     OW27690   2.314   4.635   6.708 -0.4187 -0.3747 -0.1051
 9097SOL    HW127691   2.312   4.593   6.621 -3.4012  1.0722 -0.8492
 9097SOL    HW227692   2.224   4.659   6.726  0.5583  2.3374  1.9584
 9098SOL     OW27693   2.550   2.964   6.368 -0.4827 -0.6580  0.1176
 9098SOL    HW127694   2.567   2.907   6.443  0.8152 -0.2115  0.1915
 9098SOL    HW227695   2.614   2.937   6.302 -0.9251 -0.3544 -0.4485
 9099SOL     OW27696   4.151   0.785   0.004 -0.4781  0.3812  0.4079
 9099SOL    HW127697   4.179   0.743   0.085 -1.8338  0.7690  1.1124
 9099SOL    HW227698   4.167   0.720  -0.064 -1.8674 -1.0230  1.3773
 9100SOL     OW27699   4.624   0.392   4.374 -0.0941  0.3162 -0.2153
 9100SOL    HW127700   4.626   0.327   4.303  0.7230  1.1408 -0.9779
 9100SOL    HW227701   4.533   0.393   4.403 -0.7531  0.8373 -2.1324
 9101SOL     OW27702   4.171   5.171   1.395  0.0209 -0.0765  0.4835
 9101SOL    HW127703   4.115   5.186   1.319  0.2842  0.2744  0.3584
 9101SOL    HW227704   4.157   5.248   1.450  0.4860  0.0759  0.3867
 9102SOL     OW27705   3.668   3.026   5.107  0.0904  0.2414  0.0975
 9102SOL    HW127706   3.669   3.030   5.203  0.3753  1.6408  0.0619
 9102SOL    HW227707   3.601   2.962   5.086 -1.0349  1.0112  1.2208
 9103SOL     OW27708   1.812   4.747   1.542  0.5024 -0.3400  0.3576
 9103SOL    HW127709   1.864   4.814   1.497 -0.2005 -0.0102  0.0187
 9103SOL    HW227710   1.755   4.797   1.600  0.9968 -0.7332  1.1907
 9104SOL     OW27711   1.403   5.619   0.486  0.1495 -0.2318  0.3527
 9104SOL    HW127712   1.322   5.603   0.534  0.1844  1.4836  1.0684
 9104SOL    HW227713   1.383   5.595   0.395 -2.1807  2.8178 -0.1119
 9105SOL     OW27714   2.641   0.686   3.640 -0.2786  0.1451 -0.0448
 9105SOL    HW127715   2.574   0.752   3.660  0.0834  0.3915  0.3636
 9105SOL    HW227716   2.640   0.680   3.544 -0.0274  1.0598 -0.1183
 9106SOL     OW27717   6.389   1.672   0.030  0.1441  0.1102 -0.1644
 9106SOL    HW127718   6.310   1.714  -0.005 -0.6590 -0.2824  1.1087
 9106SOL    HW227719   6.391   1.698   0.122  0.8151 -0.8856  0.1158
 9107SOL     OW27720   0.034   0.421   5.593  0.1073  0.1166 -0.1272
 9107SOL    HW127721  -0.038   0.393   5.650 -0.1777 -0.1238 -0.6055
 9107SOL    HW227722   0.010   0.509   5.566  0.7020  0.6071  0.8743
 9108SOL     OW27723   6.178   0.766   5.156  0.1053 -0.4380 -0.0218
 9108SOL    HW127724   6.249   0.816   5.115  1.1416 -1.2907  0.6617
 9108SOL    HW227725   6.195   0.773   5.250  0.2426 -1.9684  0.1002
 9109SOL     OW27726   2.281   4.716   4.708 -0.5014  0.2646  0.0346
 9109SOL    HW127727   2.210   4.652   4.715 -0.5198 -0.0771 -2.3465
 9109SOL    HW227728   2.236   4.801   4.706 -0.9522  0.0378 -1.7687
 9110SOL     OW27729   5.197   4.025   5.004 -0.2724 -0.7643 -0.9827
 9110SOL    HW127730   5.229   4.098   4.951 -1.9502 -0.4308 -1.5982
 9110SOL    HW227731   5.272   3.966   5.011  0.9097  0.6843 -1.0505
 9111SOL     OW27732   5.975   5.953   5.876 -0.0506  0.4029  0.1727
 9111SOL    HW127733   5.967   6.007   5.955  1.4613 -0.0830  0.6973
 9111SOL    HW227734   6.068   5.956   5.855  0.4421 -3.2753  1.1970
 9112SOL     OW27735   5.930   3.834   4.743 -0.1122 -0.5987  0.7551
 9112SOL    HW127736   6.001   3.895   4.761 -0.2131 -1.1210  3.4116
 9112SOL    HW227737   5.850   3.883   4.761 -0.2412 -1.0835  1.5764
 9113SOL     OW27738   2.263   6.520   1.203  0.6602 -0.1762  0.7033
 9113SOL    HW127739   2.261   6.608   1.167 -1.3816 -0.7450 -0.7330
 9113SOL    HW227740   2.345   6.483   1.171  2.2113  1.5501  2.4072
 9114SOL     OW27741   2.594   5.093   2.478 -0.3309  0.5430 -0.5351
 9114SOL    HW127742   2.522   5.088   2.416  0.6004  1.8243 -1.7618
 9114SOL    HW227743   2.657   5.152   2.438  2.1788 -1.7442 -0.2794
 9115SOL     OW27744   6.735   4.579   6.494  0.0812 -0.4504  0.4493
 9115SOL    HW127745   6.710   4.619   6.578 -0.8629  0.6794 -0.3330
 9115SOL    HW227746   6.670   4.612   6.432  0.4094 -1.7495 -0.6211
 9116SOL     OW27747   0.633   5.710   5.622 -0.4131 -0.1481 -0.0810
 9116SOL    HW127748   0.543   5.744   5.621 -0.0503  0.9530 -2.0995
 9116SOL    HW227749   0.640   5.661   5.540  0.3267 -1.7641  0.8937
 9117SOL     OW27750   1.338   2.421   1.341  0.3771  0.2552  1.1582
 9117SOL    HW127751   1.421   2.448   1.303 -1.2842  1.3013 -2.1329
 9117SOL    HW227752   1.324   2.481   1.415  1.5772  1.4849  0.4312
 9118SOL     OW27753   5.275   5.804   3.776 -0.1200 -0.9520 -0.4478
 9118SOL    HW127754   5.182   5.818   3.759 -0.0177  1.5126  0.5285
 9118SOL    HW227755   5.301   5.738   3.713 -2.1828 -0.4990 -1.8902
 9119SOL     OW27756   5.963   2.951   5.613  0.2181  0.4004 -0.2632
 9119SOL    HW127757   5.924   3.031   5.648  1.4601  1.5567 -1.4265
 9119SOL    HW227758   5.920   2.939   5.528 -1.2845 -1.2390  0.6479
 9120SOL     OW27759   4.197   0.751   4.023  0.2561  0.4597  0.3971
 9120SOL    HW127760   4.182   0.788   3.936 -2.5231  0.7780  0.8974
 9120SOL    HW227761   4.110   0.724   4.052  1.1133  0.2852  3.0538
 9121SOL     OW27762   4.047   3.454   0.188 -0.0447  0.5634  0.6076
 9121SOL    HW127763   3.977   3.516   0.208  0.4404  1.5330 -0.6059
 9121SOL    HW227764   4.002   3.380   0.147 -0.2569  1.9403 -1.8387
 9122SOL     OW27765   0.646   4.810   4.698 -0.3237  0.0461  0.5644
 9122SOL    HW127766   0.677   4.721   4.680 -1.1960 -0.5218  1.6754
 9122SOL    HW227767   0.602   4.802   4.783 -2.2906  1.0807 -0.2955
 9123SOL     OW27768   6.152   1.856   4.413 -0.5358 -0.7953  0.7986
 9123SOL    HW127769   6.195   1.901   4.340 -0.5783 -1.7759  0.1536
 9123SOL    HW227770   6.064   1.894   4.416 -1.1513 -2.0077 -0.8432
 9124SOL     OW27771   2.618   2.711   6.488  0.4989 -0.4325  0.0913
 9124SOL    HW127772   2.547   2.651   6.510  0.9643 -1.0289 -0.0251
 9124SOL    HW227773   2.676   2.661   6.431  0.3105  0.4901 -0.9473
 9125SOL     OW27774   1.736   0.719   1.108  0.3623  0.8332  0.4938
 9125SOL    HW127775   1.792   0.788   1.143  1.7455 -0.5810  1.2387
 9125SOL    HW227776   1.649   0.759   1.101  1.0529  2.5351  1.1593
 9126SOL     OW27777   1.337   5.069   3.991 -0.0508  0.1935 -0.2436
 9126SOL    HW127778   1.345   4.975   3.982 -0.1821 -0.0880  1.9591
 9126SOL    HW227779   1.253   5.090   3.949 -0.3516 -0.7708 -0.1434
 9127SOL     OW27780   2.791   5.974   3.560 -0.1819 -0.3085  0.7343
 9127SOL    HW127781   2.833   6.059   3.573 -0.6401  0.0945 -0.3149
 9127SOL    HW227782   2.863   5.917   3.531  0.0257 -0.1452  0.9176
 9128SOL     OW27783   6.259   4.956   4.248 -0.1508  0.3839 -0.0122
 9128SOL    HW127784   6.294   4.868   4.261  0.3256  0.7007  0.9159
 9128SOL    HW227785   6.337   5.010   4.235 -0.5096  0.3042 -3.2115
 9129SOL     OW27786   1.050   4.074   4.553  0.1527  0.6047  0.0354
 9129SOL    HW127787   1.086   4.144   4.499  1.2986  1.0805  1.3663
 9129SOL    HW227788   0.979   4.115   4.602 -0.1936  0.4346 -0.3161
 9130SOL     OW27789   3.487   6.475   3.979 -0.4321  0.4758 -0.6883
 9130SOL    HW127790   3.404   6.522   3.982 -0.7484 -0.0991 -0.2618
 9130SOL    HW227791   3.494   6.433   4.064  0.5174  0.8780 -0.5516
 9131SOL     OW27792   4.780   0.806   4.306 -0.2442 -0.4731  0.3873
 9131SOL    HW127793   4.811   0.781   4.393  0.3988 -0.4299  0.1780
 9131SOL    HW227794   4.850   0.861   4.270 -0.4964 -0.4980 -0.1615
 9132SOL     OW27795   0.913   3.284   5.080 -0.0092  0.5807 -0.3231
 9132SOL    HW127796   0.981   3.344   5.048 -0.6597  1.2576 -0.4784
 9132SOL    HW227797   0.951   3.245   5.158  1.1679 -0.2444 -1.2669
 9133SOL     OW27798   3.918   3.865   0.013 -0.1103  0.1010 -0.3731
 9133SOL    HW127799   3.992   3.925   0.012 -0.2677  0.3373  0.7207
 9133SOL    HW227800   3.842   3.920  -0.008 -0.7102  1.0312  3.4853
 9134SOL     OW27801   1.822   1.884   5.388 -0.4669 -0.0839 -0.2103
 9134SOL    HW127802   1.914   1.860   5.382 -0.9623 -3.1844  2.0641
 9134SOL    HW227803   1.783   1.847   5.308  0.3989  2.9306 -2.1914
 9135SOL     OW27804   5.834   0.805   6.691 -0.5368 -0.3487 -0.4201
 9135SOL    HW127805   5.893   0.745   6.645 -1.2766 -0.8839 -0.6837
 9135SOL    HW227806   5.870   0.811   6.779  1.1344  0.9987 -1.1192
 9136SOL     OW27807   3.244   2.089   0.609  0.2406 -0.3882  0.0082
 9136SOL    HW127808   3.198   2.013   0.643 -0.4222 -0.1391 -0.3201
 9136SOL    HW227809   3.302   2.054   0.541  1.1170 -0.8010  0.9469
 9137SOL     OW27810   1.593   1.676   5.909  0.2604  0.5001 -0.2139
 9137SOL    HW127811   1.651   1.600   5.909  0.3938  0.5788  0.9874
 9137SOL    HW227812   1.538   1.664   5.986  1.0328  2.1672  0.6443
 9138SOL     OW27813   4.047   6.454   6.754 -0.3116  0.2201  0.6406
 9138SOL    HW127814   4.085   6.462   6.841  1.8657 -0.2383 -0.2026
 9138SOL    HW227815   3.982   6.384   6.762  0.3002 -0.2375  1.7667
 9139SOL     OW27816   0.425   4.726   5.553  0.0459  0.4788  0.1933
 9139SOL    HW127817   0.398   4.807   5.510  2.1560  1.2749  0.2411
 9139SOL    HW227818   0.486   4.685   5.492 -1.2546 -1.3268  0.0061
 9140SOL     OW27819   5.635   0.078   5.416 -0.6550  0.2541 -0.0220
 9140SOL    HW127820   5.581   0.061   5.493  2.3060 -1.7247  1.8222
 9140SOL    HW227821   5.632  -0.004   5.367 -1.0395  0.8820 -1.0730
 9141SOL     OW27822   6.739   5.413   4.467 -0.2372 -0.2157  0.5121
 9141SOL    HW127823   6.690   5.409   4.549  0.6766 -2.1521  1.0219
 9141SOL    HW227824   6.830   5.397   4.493  0.5005  1.8883 -0.5756
 9142SOL     OW27825   3.010   6.186   6.035  0.2555 -0.2776 -0.1838
 9142SOL    HW127826   2.952   6.180   5.959 -2.7593  0.1223  1.9146
 9142SOL    HW227827   3.019   6.280   6.050 -1.3938 -0.3338  1.4416
 9143SOL     OW27828   5.034   5.089   2.869 -0.4078  0.2243  0.4330
 9143SOL    HW127829   5.051   5.183   2.860  0.0725  0.0505 -0.6600
 9143SOL    HW227830   5.120   5.048   2.858 -0.6700 -0.3567  0.5352
 9144SOL     OW27831   0.238   4.023   6.174  1.3206  0.1891  0.1131
 9144SOL    HW127832   0.264   3.933   6.195  0.8677  0.2645  1.0707
 9144SOL    HW227833   0.196   4.055   6.254 -0.0263  0.7038 -0.7696
 9145SOL     OW27834   0.892   0.106   5.032 -0.1670  0.7630 -0.4233
 9145SOL    HW127835   0.964   0.051   5.003 -0.5563 -1.7018  2.7617
 9145SOL    HW227836   0.934   0.185   5.067  0.7012  0.6642 -1.1998
 9146SOL     OW27837   2.070   3.507   4.157 -0.3328 -0.7588 -0.3989
 9146SOL    HW127838   2.089   3.421   4.193  2.2101 -1.0451 -2.1887
 9146SOL    HW227839   2.104   3.569   4.222  1.8823 -1.2212 -1.0657
 9147SOL     OW27840   0.924   5.716   3.415  0.0668  0.5454  0.3765
 9147SOL    HW127841   0.944   5.784   3.479  0.0558 -0.5062  1.5435
 9147SOL    HW227842   0.829   5.721   3.403 -0.0637  0.1601  1.1654
 9148SOL     OW27843   1.212   0.256   2.355  0.0385  0.4099 -0.1011
 9148SOL    HW127844   1.250   0.301   2.280 -0.0200  1.0876  0.2630
 9148SOL    HW227845   1.122   0.290   2.360 -0.4845 -0.8425 -0.6935
 9149SOL     OW27846   0.906   5.190   3.675  0.0886  0.6733  0.4326
 9149SOL    HW127847   0.983   5.243   3.696  0.6409  1.3259 -2.7916
 9149SOL    HW227848   0.836   5.227   3.730  0.7297  4.0498 -0.7533
 9150SOL     OW27849   1.387   0.553   5.336 -0.3372 -0.0175  0.1215
 9150SOL    HW127850   1.465   0.512   5.372 -1.1060 -0.2158  1.6307
 9150SOL    HW227851   1.391   0.644   5.366 -0.4507  0.0927 -0.1892
 9151SOL     OW27852   4.298   0.462   4.007 -0.4237 -0.3289  0.0501
 9151SOL    HW127853   4.296   0.557   4.019  1.2524 -0.3965  1.1301
 9151SOL    HW227854   4.325   0.450   3.916 -0.7882  0.2169 -0.1375
 9152SOL     OW27855   1.154   2.360   3.385 -0.0615 -0.0608 -0.1455
 9152SOL    HW127856   1.213   2.400   3.322  0.0344  0.2957  0.1694
 9152SOL    HW227857   1.135   2.429   3.448 -0.8264 -0.1644 -0.2505
 9153SOL     OW27858   0.313   0.295   5.078 -0.1753  0.2715 -0.3246
 9153SOL    HW127859   0.389   0.272   5.133 -0.6779  1.3380  0.8633
 9153SOL    HW227860   0.292   0.213   5.032  0.1319 -0.7352  1.2357
 9154SOL     OW27861   5.795   5.792   1.751  0.0665  0.0836 -0.0149
 9154SOL    HW127862   5.809   5.886   1.749 -0.8873  0.2139 -1.8373
 9154SOL    HW227863   5.707   5.781   1.787  0.4449 -0.1664  0.8606
 9155SOL     OW27864   6.051   0.745   2.436  0.0432  0.5503 -0.7318
 9155SOL    HW127865   5.990   0.793   2.493  1.0799  0.8097  0.1990
 9155SOL    HW227866   6.011   0.659   2.426 -0.9301  1.0154 -0.8949
 9156SOL     OW27867   0.352   3.421   4.619  0.3095  0.3014 -0.1438
 9156SOL    HW127868   0.262   3.406   4.646  0.5083 -0.5177  0.0909
 9156SOL    HW227869   0.404   3.364   4.675  0.8793 -0.1042 -1.0538
 9157SOL     OW27870   2.590   2.372   5.561 -0.2414 -0.1798 -0.3700
 9157SOL    HW127871   2.553   2.456   5.587 -1.5798 -0.7868 -0.2242
 9157SOL    HW227872   2.514   2.317   5.541  0.5947 -1.3988 -0.3373
 9158SOL     OW27873   3.299   5.505   1.517  0.1829 -0.3490  0.6325
 9158SOL    HW127874   3.243   5.428   1.520  1.3456 -1.3665 -1.5314
 9158SOL    HW227875   3.299   5.538   1.607 -0.6957 -2.6157  1.5417
 9159SOL     OW27876   2.929   4.071   0.092  0.0440 -0.0606 -1.0296
 9159SOL    HW127877   2.980   4.148   0.115 -0.9176  0.3306 -0.1040
 9159SOL    HW227878   2.957   4.049   0.004 -1.4918  2.9749 -2.4493
 9160SOL     OW27879   5.552   0.367   1.392 -0.1675 -0.2260  0.3407
 9160SOL    HW127880   5.639   0.328   1.384 -0.6901 -1.5838  1.0203
 9160SOL    HW227881   5.532   0.364   1.485  0.2637  2.8648  0.6284
 9161SOL     OW27882   3.267   1.591   0.751 -0.2990  0.4783 -0.4763
 9161SOL    HW127883   3.197   1.526   0.750  0.0350  0.1073  0.1817
 9161SOL    HW227884   3.221   1.675   0.738 -0.8867  0.2532  0.0796
 9162SOL     OW27885   5.841   1.683   2.892  0.1628 -0.4052  0.2678
 9162SOL    HW127886   5.844   1.625   2.967  1.1483 -2.7857 -1.4880
 9162SOL    HW227887   5.932   1.697   2.868 -0.0755  1.4210  0.2669
 9163SOL     OW27888   3.440   0.015   5.056  0.4430  0.1733 -0.0366
 9163SOL    HW127889   3.529  -0.020   5.057  0.1542 -0.6305 -1.0142
 9163SOL    HW227890   3.390  -0.049   5.005 -0.0887  2.0761 -2.0303
 9164SOL     OW27891   1.879   6.602   1.512 -0.4156 -0.2502  0.2101
 9164SOL    HW127892   1.874   6.507   1.510 -2.4212 -0.1994  0.0822
 9164SOL    HW227893   1.884   6.624   1.605 -0.9931 -0.4679  0.2963
 9165SOL     OW27894   0.712   0.559   6.505 -0.0667 -0.4314 -0.0150
 9165SOL    HW127895   0.634   0.578   6.558 -0.8912 -1.1855 -0.9364
 9165SOL    HW227896   0.683   0.567   6.415  0.8769 -0.9079 -0.3764
 9166SOL     OW27897   6.471   4.566   1.614 -0.5112 -0.1846  0.3184
 9166SOL    HW127898   6.475   4.470   1.620 -0.6825 -0.2203 -0.1320
 9166SOL    HW227899   6.380   4.587   1.636 -0.2296 -0.0429  1.4390
 9167SOL     OW27900   1.472   0.613   2.752  0.0474  0.2292 -0.3601
 9167SOL    HW127901   1.527   0.630   2.676 -2.1692  1.3485 -1.8254
 9167SOL    HW227902   1.411   0.544   2.724  0.2575 -0.5584  1.0006
 9168SOL     OW27903   1.676   4.035   4.015  0.0076 -0.3978  0.3184
 9168SOL    HW127904   1.690   3.953   4.063 -0.0696 -0.2218  0.6490
 9168SOL    HW227905   1.764   4.069   3.999  0.0194 -0.1513  0.8805
 9169SOL     OW27906   3.714   1.379   3.285  0.0483  0.6951  0.4810
 9169SOL    HW127907   3.709   1.295   3.241 -3.2316  0.5714  0.8373
 9169SOL    HW227908   3.706   1.358   3.378 -1.7901  1.3743  0.5199
 9170SOL     OW27909   5.628   5.040   0.913  0.0747  0.0954  0.0666
 9170SOL    HW127910   5.539   5.006   0.924  0.8476 -1.8565  0.5482
 9170SOL    HW227911   5.660   4.999   0.833  0.3786  1.2580 -0.4368
 9171SOL     OW27912   2.948   0.453   1.258 -0.0910  0.1026 -0.3142
 9171SOL    HW127913   2.888   0.397   1.209 -2.4079  2.1704 -0.0561
 9171SOL    HW227914   2.948   0.536   1.210  0.2130  1.0957  1.3130
 9172SOL     OW27915   2.443   2.291   3.902 -0.6376 -0.7301  0.3831
 9172SOL    HW127916   2.371   2.277   3.964 -0.8795 -0.2665  0.2102
 9172SOL    HW227917   2.522   2.265   3.951 -0.5547  1.7010  1.7202
 9173SOL     OW27918   1.965   2.133   0.083  0.0914 -0.1098  0.0564
 9173SOL    HW127919   1.956   2.196   0.011  0.1742  0.0209  0.1594
 9173SOL    HW227920   1.876   2.124   0.118 -0.0674 -0.6760 -0.4807
 9174SOL     OW27921   0.668   2.487   3.992  0.3392  0.0925 -0.2981
 9174SOL    HW127922   0.599   2.501   3.928  1.3323  0.9813 -1.2052
 9174SOL    HW227923   0.646   2.546   4.064  0.4114  0.7532 -0.8054
 9175SOL     OW27924   1.746   1.431   4.058 -0.3342 -0.4553  0.3095
 9175SOL    HW127925   1.680   1.450   3.991 -1.3629 -0.3849  1.3135
 9175SOL    HW227926   1.698   1.437   4.141  1.2526  1.1234  1.1823
 9176SOL     OW27927   1.090   5.093   5.898 -0.0795  0.0938 -0.5346
 9176SOL    HW127928   1.051   5.146   5.828 -1.1013  1.6179  1.1274
 9176SOL    HW227929   1.032   5.017   5.905  0.0459 -0.0853 -1.3414
 9177SOL     OW27930   4.918   0.109   0.277 -0.2075  0.1434 -0.4949
 9177SOL    HW127931   4.866   0.037   0.242 -0.6201  0.6736 -0.9874
 9177SOL    HW227932   4.918   0.175   0.207  2.1876 -0.3402 -1.0537
 9178SOL     OW27933   0.333   4.802   2.186  0.6484 -0.4813  0.2975
 9178SOL    HW127934   0.341   4.863   2.259  2.5229 -0.7674  0.3781
 9178SOL    HW227935   0.345   4.856   2.107 -0.0626 -0.3837  0.2503
 9179SOL     OW27936   0.281   5.676   0.487 -0.7965  0.1053  0.4440
 9179SOL    HW127937   0.326   5.745   0.535 -0.3428  0.5708 -0.6094
 9179SOL    HW227938   0.351   5.620   0.454 -0.9792  0.6414 -0.9163
 9180SOL     OW27939   4.924   2.659   5.731 -0.7211 -0.3913 -0.0315
 9180SOL    HW127940   4.952   2.697   5.814 -0.3167  0.6610 -0.6254
 9180SOL    HW227941   4.983   2.585   5.718 -0.3239 -0.1393  0.2949
 9181SOL     OW27942   5.018   6.400   2.824 -0.1621  0.0887 -0.0376
 9181SOL    HW127943   4.973   6.411   2.740 -1.1959 -1.9318  0.2000
 9181SOL    HW227944   5.090   6.340   2.805 -1.4233 -1.7877  0.7766
 9182SOL     OW27945   2.865   5.962   5.505 -0.1265  0.3465  0.0188
 9182SOL    HW127946   2.824   5.891   5.456 -0.9490  0.0995  1.0403
 9182SOL    HW227947   2.947   5.924   5.538 -0.5502 -0.1365  0.5374
 9183SOL     OW27948   5.013   5.593   6.366 -0.0298 -0.0846 -0.5043
 9183SOL    HW127949   5.043   5.678   6.332  1.3722  0.2468  1.3564
 9183SOL    HW227950   5.072   5.529   6.327 -0.3215 -0.0633 -0.9818
 9184SOL     OW27951   4.806   0.829   0.990  0.3792 -0.1320 -0.1322
 9184SOL    HW127952   4.810   0.740   0.954 -3.7505  0.2551 -2.0937
 9184SOL    HW227953   4.743   0.823   1.061 -1.9236  1.5298 -1.9024
 9185SOL     OW27954   1.442   4.654   6.432 -0.3018  0.7782 -0.1179
 9185SOL    HW127955   1.380   4.585   6.408 -0.0925  0.7015 -0.4438
 9185SOL    HW227956   1.387   4.729   6.456 -0.5691  0.0260  1.7194
 9186SOL     OW27957   1.153   1.982   1.068  0.4920  0.0625 -0.9125
 9186SOL    HW127958   1.091   2.055   1.067 -0.4670 -0.5584  2.0224
 9186SOL    HW227959   1.117   1.919   1.005 -1.8408 -0.1831  0.5550
 9187SOL     OW27960   1.866   6.389   5.181  0.5137  0.3726  0.4222
 9187SOL    HW127961   1.789   6.396   5.238 -1.3771 -1.9939 -1.6306
 9187SOL    HW227962   1.879   6.477   5.148 -0.2933  1.1479  2.0463
 9188SOL     OW27963   5.618   4.849   4.350 -0.0633 -0.4012  0.1270
 9188SOL    HW127964   5.675   4.797   4.407 -2.9753 -1.3897  2.4161
 9188SOL    HW227965   5.541   4.794   4.336 -0.2178  0.4902 -3.5642
 9189SOL     OW27966   1.725   3.454   1.093  0.0099  0.0910  0.3868
 9189SOL    HW127967   1.787   3.411   1.034 -0.3503  2.1493 -1.6266
 9189SOL    HW227968   1.735   3.547   1.074  0.1358  0.9493  3.9065
 9190SOL     OW27969   3.127   1.459   3.519 -0.3195  0.0060  0.0416
 9190SOL    HW127970   3.068   1.416   3.581 -1.8938  0.9700 -0.7368
 9190SOL    HW227971   3.115   1.553   3.535  1.2452  0.2340  0.0605
 9191SOL     OW27972   6.602   0.234   1.348  0.0196  0.4664 -0.1776
 9191SOL    HW127973   6.574   0.302   1.409  0.0782 -0.9296  1.5154
 9191SOL    HW227974   6.662   0.278   1.288  0.9956  1.6753  1.5919
 9192SOL     OW27975   0.969   0.930   1.702  0.0308  0.4446 -0.1875
 9192SOL    HW127976   1.027   0.869   1.748 -1.0041  0.0149  0.5908
 9192SOL    HW227977   1.028   0.993   1.661  1.0321  0.9185  1.8261
 9193SOL     OW27978   5.749   2.585   5.866 -0.7695 -0.4695  0.5535
 9193SOL    HW127979   5.799   2.577   5.948  0.4934  0.1649 -0.1305
 9193SOL    HW227980   5.699   2.666   5.877 -0.0583 -0.0050  0.4237
 9194SOL     OW27981   4.323   6.375   3.501  0.2638 -0.3819  0.3011
 9194SOL    HW127982   4.352   6.319   3.573  0.1293 -2.2335 -1.0244
 9194SOL    HW227983   4.381   6.354   3.428 -0.2229  0.7256 -0.4371
 9195SOL     OW27984   6.425   6.031   6.450 -0.3586  0.1662 -0.0242
 9195SOL    HW127985   6.393   6.097   6.512 -0.8422 -0.2988  0.2282
 9195SOL    HW227986   6.465   6.082   6.379 -0.8061  0.7348  0.1221
 9196SOL     OW27987   4.165   0.793   3.754 -0.5324 -0.2163 -0.1704
 9196SOL    HW127988   4.132   0.759   3.672  0.2898 -0.7977 -0.2746
 9196SOL    HW227989   4.173   0.888   3.740  1.0215 -0.4726 -1.3081
 9197SOL     OW27990   1.579   3.327   5.333  0.0599 -0.5583  0.6204
 9197SOL    HW127991   1.533   3.247   5.356  1.3478 -1.1729  1.1497
 9197SOL    HW227992   1.542   3.394   5.391 -1.8951 -0.4395 -0.6595
 9198SOL     OW27993   1.519   5.799   2.476 -0.2514  0.0245  0.1346
 9198SOL    HW127994   1.521   5.732   2.407 -1.1558  1.4694 -1.3610
 9198SOL    HW227995   1.609   5.800   2.510  0.2407 -0.6664 -1.0725
 9199SOL     OW27996   5.551   4.738   1.111 -0.2572  0.4008 -0.0949
 9199SOL    HW127997   5.582   4.670   1.050  1.7638  0.3321  0.9411
 9199SOL    HW227998   5.501   4.799   1.055  0.7073 -0.1696 -1.6406
 9200SOL     OW27999   4.920   1.164   5.168  0.2677 -0.0128  0.6913
 9200SOL    HW128000   4.871   1.231   5.120 -0.9314  0.2100  2.1651
 9200SOL    HW228001   4.872   1.082   5.151  2.1076 -0.7237 -1.6608
 9201SOL     OW28002   4.641   5.045   5.568  0.4278  0.0262 -0.1611
 9201SOL    HW128003   4.594   5.029   5.650 -0.3574 -0.1183 -0.6252
 9201SOL    HW228004   4.657   5.140   5.568 -0.3988  0.1765 -0.2633
 9202SOL     OW28005   5.744   5.922   2.030 -0.4153 -0.6051 -0.1805
 9202SOL    HW128006   5.815   5.986   2.043 -0.9452  0.3943 -1.8759
 9202SOL    HW228007   5.786   5.837   2.041  0.8188 -0.0098 -0.1195
 9203SOL     OW28008   4.343   3.219   6.350  0.0319  0.2135 -0.3521
 9203SOL    HW128009   4.256   3.260   6.347 -0.8648 -1.2235  2.1633
 9203SOL    HW228010   4.385   3.259   6.426  0.7317 -0.6074 -0.2956
 9204SOL     OW28011   4.555   2.107   1.645 -0.2238 -0.5784 -0.3662
 9204SOL    HW128012   4.634   2.076   1.602 -0.4564 -0.8772 -0.5862
 9204SOL    HW228013   4.485   2.094   1.580 -0.0011  2.7499 -1.5002
 9205SOL     OW28014   2.431   6.309   2.889  0.1552 -0.2123  0.3457
 9205SOL    HW128015   2.392   6.270   2.967 -1.7091  0.8110 -0.0087
 9205SOL    HW228016   2.525   6.297   2.900 -0.1079 -0.6538  2.4420
 9206SOL     OW28017   0.105   0.824   4.975  0.0106 -0.1425  0.6296
 9206SOL    HW128018   0.182   0.864   4.934  0.4706 -1.8373 -0.2478
 9206SOL    HW228019   0.136   0.793   5.060 -0.3196  1.1461  1.2636
 9207SOL     OW28020   5.318   6.641   4.315  0.0554 -0.1480  0.0652
 9207SOL    HW128021   5.355   6.703   4.378 -1.2736  0.5390  0.2100
 9207SOL    HW228022   5.263   6.695   4.257  0.5002 -0.9053 -1.0924
 9208SOL     OW28023   5.379   0.397   2.818 -0.4344 -0.4694  0.1683
 9208SOL    HW128024   5.448   0.439   2.869 -1.3062  0.8185  0.3370
 9208SOL    HW228025   5.329   0.346   2.882  1.8517 -3.6072 -0.3447
 9209SOL     OW28026   6.530   3.326   0.564  0.3780  0.0478  0.3084
 9209SOL    HW128027   6.533   3.303   0.657 -2.1891 -0.1030  0.4101
 9209SOL    HW228028   6.466   3.266   0.526 -0.7455  1.9377 -0.9519
 9210SOL     OW28029   1.939   0.903   1.270  0.0994  0.1614 -0.1101
 9210SOL    HW128030   1.881   0.892   1.346 -1.3596  1.2032 -1.0076
 9210SOL    HW228031   2.027   0.907   1.307 -0.3474 -1.6507  1.2924
 9211SOL     OW28032   3.029   0.426   6.757 -0.1033 -0.4280  0.4446
 9211SOL    HW128033   3.112   0.389   6.726 -0.6542 -0.5044 -1.0393
 9211SOL    HW228034   2.983   0.452   6.677 -2.0430 -1.5055  1.1391
 9212SOL     OW28035   3.135   2.417   3.568  0.4678 -0.5962  0.1921
 9212SOL    HW128036   3.199   2.486   3.550  0.1033 -0.4889 -0.7586
 9212SOL    HW228037   3.136   2.407   3.663  0.4687  0.7724  0.3489
 9213SOL     OW28038   3.877   5.131   5.394 -0.5276  0.0047  0.2858
 9213SOL    HW128039   3.942   5.127   5.464 -0.4467 -0.3749  0.1957
 9213SOL    HW228040   3.814   5.063   5.416 -0.8297  0.2930  0.3097
 9214SOL     OW28041   2.300   3.171   1.159  0.0139 -0.1624 -0.6941
 9214SOL    HW128042   2.314   3.077   1.164  0.1475 -0.1642 -1.0945
 9214SOL    HW228043   2.262   3.194   1.244 -0.2231 -0.6103 -0.6750
 9215SOL     OW28044   6.559   5.801   2.057 -0.5358  0.0730  0.3252
 9215SOL    HW128045   6.561   5.896   2.073  1.7025  0.2864 -0.7790
 9215SOL    HW228046   6.608   5.763   2.130  1.2218  0.1333 -0.7396
 9216SOL     OW28047   0.347   6.451   2.102  0.4622 -0.4383  0.2902
 9216SOL    HW128048   0.429   6.475   2.144  0.9619  0.2081 -1.0117
 9216SOL    HW228049   0.373   6.406   2.022 -0.4557 -0.0888 -0.2217
 9217SOL     OW28050   0.917   6.264   5.358 -0.0401 -0.0038  1.1065
 9217SOL    HW128051   0.965   6.197   5.310  1.6886  1.5464  0.5604
 9217SOL    HW228052   0.832   6.224   5.377  0.4827 -1.8788 -0.2479
 9218SOL     OW28053   2.418   2.667   2.444  0.4211 -0.3847 -0.1797
 9218SOL    HW128054   2.441   2.718   2.522 -0.2768 -1.3764  0.6886
 9218SOL    HW228055   2.463   2.712   2.372  0.4357  1.0089  0.6710
 9219SOL     OW28056   1.339   0.367   2.150  0.7352  0.0236  0.6245
 9219SOL    HW128057   1.308   0.395   2.063 -0.7021  1.4407  1.5290
 9219SOL    HW228058   1.419   0.417   2.164  0.4379  0.5422  0.5036
 9220SOL     OW28059   3.355   3.214   0.795 -0.5460  0.8690 -0.5158
 9220SOL    HW128060   3.287   3.147   0.784 -0.4738  0.6237  0.4495
 9220SOL    HW228061   3.375   3.212   0.889  2.8004 -1.0572 -1.1102
 9221SOL     OW28062   5.901   4.039   2.560 -0.2982  0.1079  0.0739
 9221SOL    HW128063   5.951   4.034   2.641  0.0794  0.7136 -0.1118
 9221SOL    HW228064   5.965   4.019   2.491 -0.7885 -1.1985 -0.0401
 9222SOL     OW28065   5.741   4.749   3.766  0.0636  0.2968  0.3501
 9222SOL    HW128066   5.746   4.786   3.854  1.8127 -1.4688  1.0630
 9222SOL    HW228067   5.787   4.665   3.773 -0.3365 -0.1829 -2.0990
 9223SOL     OW28068   4.409   0.545   1.775 -0.1622  0.4285  0.5677
 9223SOL    HW128069   4.416   0.531   1.869  2.8270 -1.2251  0.2358
 9223SOL    HW228070   4.334   0.491   1.748  0.0296 -0.4897  1.7841
 9224SOL     OW28071   2.493   0.103   3.653  0.8785 -0.2656  0.2987
 9224SOL    HW128072   2.414   0.050   3.662  0.8376  0.0319  2.2773
 9224SOL    HW228073   2.546   0.057   3.589  0.2396 -1.9550  0.9252
 9225SOL     OW28074   6.279   2.580   6.703 -0.6081 -0.4326 -0.1351
 9225SOL    HW128075   6.332   2.634   6.762 -0.6725 -0.3904 -0.1166
 9225SOL    HW228076   6.344   2.536   6.648 -0.5727  0.0461 -0.4835
 9226SOL     OW28077   4.157   2.264   3.343 -0.2629 -0.1993  0.0048
 9226SOL    HW128078   4.141   2.358   3.355 -0.9296 -0.4592  1.3193
 9226SOL    HW228079   4.104   2.222   3.410  2.0169 -1.3838  1.1994
 9227SOL     OW28080   4.084   4.574   2.825 -0.1450 -0.4905 -0.2055
 9227SOL    HW128081   4.163   4.557   2.773 -0.7869 -0.4567 -1.2237
 9227SOL    HW228082   4.012   4.563   2.763 -0.9307 -0.2892  0.6530
 9228SOL     OW28083   5.708   4.458   5.822  0.0875  0.1201  0.3930
 9228SOL    HW128084   5.770   4.385   5.823  0.1597  0.1449  2.3431
 9228SOL    HW228085   5.624   4.419   5.845 -0.1941  0.4313 -0.0800
 9229SOL     OW28086   4.299   0.844   5.566 -0.0343 -0.3929 -0.0874
 9229SOL    HW128087   4.253   0.890   5.637 -0.8670 -2.1039  0.5484
 9229SOL    HW228088   4.258   0.757   5.564  0.9201 -0.8445 -1.7714
 9230SOL     OW28089   6.087   4.330   6.682 -0.9161  0.5728  0.2512
 9230SOL    HW128090   6.140   4.252   6.663 -1.3671  0.1123  0.8485
 9230SOL    HW228091   6.121   4.397   6.622  0.3020  0.2714  0.5734
 9231SOL     OW28092   0.646   1.843   0.593  0.1121  0.0920 -0.5107
 9231SOL    HW128093   0.713   1.886   0.647 -1.8403  1.5181  0.9090
 9231SOL    HW228094   0.656   1.882   0.506  1.5020 -0.2000 -0.5019
 9232SOL     OW28095   5.352   1.192   0.257  0.4792 -0.4708 -0.0281
 9232SOL    HW128096   5.425   1.150   0.303 -1.1209 -0.5826  2.6685
 9232SOL    HW228097   5.381   1.282   0.244  1.2687 -0.6090  0.6613
 9233SOL     OW28098   3.272   1.240   1.664 -0.2207  0.2384 -0.0840
 9233SOL    HW128099   3.190   1.264   1.707 -0.2149 -0.7533  0.5394
 9233SOL    HW228100   3.269   1.144   1.661  0.5408  0.2291 -0.8159
 9234SOL     OW28101   6.266   3.001   4.937  0.0973 -0.4712  0.1385
 9234SOL    HW128102   6.280   3.075   4.879  2.1516  2.3426  3.7485
 9234SOL    HW228103   6.331   2.936   4.910 -0.9424 -0.5806 -2.3495
 9235SOL     OW28104   5.209   1.474   1.971  0.1980 -0.0985  0.1748
 9235SOL    HW128105   5.196   1.387   2.009 -0.2571 -0.5267 -0.9035
 9235SOL    HW228106   5.135   1.485   1.911  0.7951  0.6006 -0.4616
 9236SOL     OW28107   4.135   4.790   0.315 -0.3097  0.4025 -0.1043
 9236SOL    HW128108   4.133   4.769   0.222 -1.1611  1.2989 -0.3005
 9236SOL    HW228109   4.215   4.841   0.326  1.0569 -1.6822  0.1256
 9237SOL     OW28110   4.571   3.041   1.790  0.4547  0.2939 -0.0937
 9237SOL    HW128111   4.583   2.963   1.845 -1.5141 -1.6009 -2.1572
 9237SOL    HW228112   4.618   3.020   1.709 -0.4526  1.0419 -0.8326
 9238SOL     OW28113   2.447   0.891   5.828  0.0519  0.0556 -0.5029
 9238SOL    HW128114   2.454   0.984   5.808 -0.0592  0.0030 -0.7938
 9238SOL    HW228115   2.364   0.864   5.790  1.6950 -0.9736 -3.7788
 9239SOL     OW28116   0.935   5.630   6.376 -0.2854  0.0023 -0.2360
 9239SOL    HW128117   0.896   5.563   6.433 -1.3922  1.0520  0.2644
 9239SOL    HW228118   0.891   5.711   6.400 -0.2712  0.6065 -2.1199
 9240SOL     OW28119   0.084   5.387   4.770  0.7286 -0.3461  0.2891
 9240SOL    HW128120  -0.003   5.425   4.758  1.5511  0.9521 -2.5332
 9240SOL    HW228121   0.124   5.440   4.839  0.6046  1.7506 -1.1417
 9241SOL     OW28122   3.565   6.295   3.773 -0.3389 -0.2679  0.1397
 9241SOL    HW128123   3.475   6.268   3.756 -0.2965 -0.3082 -0.0267
 9241SOL    HW228124   3.562   6.340   3.858 -0.8150  1.2100 -0.6294
 9242SOL     OW28125   1.420   2.596   4.770 -0.7529  0.6697  0.2743
 9242SOL    HW128126   1.392   2.516   4.816 -0.0580  0.2015 -0.0894
 9242SOL    HW228127   1.426   2.569   4.679  1.7763  0.4493  0.4440
 9243SOL     OW28128   1.905   1.600   6.740  0.2679 -0.1893 -0.1976
 9243SOL    HW128129   1.840   1.602   6.811 -0.2734  1.5863 -0.6888
 9243SOL    HW228130   1.967   1.532   6.766  0.2122  0.5520  2.1049
 9244SOL     OW28131   1.803   4.349   0.542 -0.0089  0.5294  0.3081
 9244SOL    HW128132   1.877   4.351   0.603 -0.7361 -0.9864  1.2723
 9244SOL    HW228133   1.727   4.332   0.596 -0.6380 -1.2046 -1.0184
 9245SOL     OW28134   6.058   5.954   4.228 -0.0126  0.1754 -0.0456
 9245SOL    HW128135   6.079   6.003   4.308  2.7792 -0.1565 -0.4658
 9245SOL    HW228136   6.038   6.022   4.164 -0.5098  0.5414  0.4844
 9246SOL     OW28137   1.882   5.965   4.502 -0.1987  0.2911  0.1056
 9246SOL    HW128138   1.792   5.992   4.488 -0.1665  1.0324  1.2596
 9246SOL    HW228139   1.897   5.976   4.596  0.5063 -1.6328  0.2846
 9247SOL     OW28140   4.234   1.638   5.058 -0.4319 -0.4430  0.6924
 9247SOL    HW128141   4.238   1.650   4.963  0.6416  0.0237  0.7853
 9247SOL    HW228142   4.243   1.726   5.094  0.1104 -0.7120  1.2438
 9248SOL     OW28143   4.863   0.850   0.713  0.0508 -0.2417  0.1147
 9248SOL    HW128144   4.948   0.881   0.745 -0.8775  3.1491 -0.3130
 9248SOL    HW228145   4.826   0.801   0.787  0.5585  2.0423  2.0116
 9249SOL     OW28146   0.301   3.567   1.350 -0.0332  0.6518  0.3387
 9249SOL    HW128147   0.247   3.646   1.353 -0.8910  0.0573  0.8272
 9249SOL    HW228148   0.254   3.503   1.403 -0.5788 -0.9532 -1.9265
 9250SOL     OW28149   1.371   6.128   4.500  0.0494 -0.1663 -0.2982
 9250SOL    HW128150   1.411   6.065   4.441  0.2942 -1.8786  1.5960
 9250SOL    HW228151   1.434   6.137   4.572 -0.7825  0.8789  0.3299
 9251SOL     OW28152   2.369   1.613   3.593  0.3199 -0.0405  0.0002
 9251SOL    HW128153   2.438   1.633   3.656 -1.1241  2.4232  0.9342
 9251SOL    HW228154   2.385   1.673   3.520 -0.0996 -0.3601 -0.3608
 9252SOL     OW28155   2.940   2.404   4.969 -0.6782 -0.6862 -0.2968
 9252SOL    HW128156   2.887   2.346   5.023 -0.1922 -1.5503 -0.7219
 9252SOL    HW228157   3.022   2.357   4.956  0.3829  0.7866  0.6886
 9253SOL     OW28158   1.311   2.016   4.365 -0.5427  0.3367 -0.2647
 9253SOL    HW128159   1.311   2.106   4.331  2.0957  0.6334  0.3176
 9253SOL    HW228160   1.260   2.021   4.446 -1.2008  1.0667 -0.6963
 9254SOL     OW28161   2.883   1.519   4.790  0.5625 -0.4119 -0.0041
 9254SOL    HW128162   2.948   1.494   4.855 -0.4011 -1.0153  0.7544
 9254SOL    HW228163   2.902   1.611   4.770  1.1521 -0.3592  0.7851
 9255SOL     OW28164   5.125   3.698   6.681  0.1387  0.1901  0.2746
 9255SOL    HW128165   5.187   3.715   6.610  0.7302 -0.5269  0.5997
 9255SOL    HW228166   5.039   3.704   6.640  0.4573  0.2335 -0.4034
 9256SOL     OW28167   0.665   1.357   4.157  0.4756  0.3059  0.1790
 9256SOL    HW128168   0.620   1.348   4.241  0.8229  0.4432  0.3830
 9256SOL    HW228169   0.690   1.450   4.153 -1.6091  0.8794 -1.1450
 9257SOL     OW28170   3.865   3.671   1.588  0.7132  1.0149 -0.6836
 9257SOL    HW128171   3.872   3.690   1.681  1.1855 -0.7947 -0.3066
 9257SOL    HW228172   3.838   3.753   1.548  1.0506  1.9678  0.9751
 9258SOL     OW28173   1.992   1.126   2.991  0.1441  0.0738  0.1954
 9258SOL    HW128174   2.069   1.071   2.978  0.2706 -0.0393  1.2593
 9258SOL    HW228175   1.956   1.096   3.075 -1.0274  0.1668 -0.2558
 9259SOL     OW28176   6.743   6.172   4.762 -0.6131 -0.5979  0.2695
 9259SOL    HW128177   6.777   6.140   4.678 -0.7497 -0.2847  0.0945
 9259SOL    HW228178   6.716   6.262   4.745  1.3459  0.2145  1.1784
 9260SOL     OW28179   3.960   0.265   0.661 -0.0363 -0.0420 -0.0241
 9260SOL    HW128180   3.982   0.358   0.655 -0.8999  0.2559  1.0185
 9260SOL    HW228181   4.042   0.219   0.645  0.7029  0.9355  0.8486
 9261SOL     OW28182   6.231   5.902   2.597  0.1088 -0.7658  0.4064
 9261SOL    HW128183   6.164   5.946   2.544 -0.9205 -2.1655  0.4692
 9261SOL    HW228184   6.263   5.831   2.541 -0.1499 -1.5396  1.2166
 9262SOL     OW28185   2.599   2.331   3.313  0.0514  0.5213  0.3498
 9262SOL    HW128186   2.658   2.403   3.334  1.5708 -0.5896  0.0981
 9262SOL    HW228187   2.657   2.258   3.291 -1.4252 -0.1982 -1.4409
 9263SOL     OW28188   1.394   1.522   0.774 -0.1081  0.6120  0.1070
 9263SOL    HW128189   1.335   1.528   0.849  1.1437 -1.2077  1.3278
 9263SOL    HW228190   1.476   1.488   0.810  0.2129 -1.4347 -2.2179
 9264SOL     OW28191   1.337   5.839   2.240 -0.2884 -0.0186  0.0705
 9264SOL    HW128192   1.287   5.889   2.175  0.9000 -0.8316 -1.5603
 9264SOL    HW228193   1.271   5.792   2.290 -1.3636  2.1854  0.8407
 9265SOL     OW28194   5.665   2.751   0.321 -0.0711  0.3118  0.5568
 9265SOL    HW128195   5.634   2.784   0.237 -0.9526 -1.0573  0.3130
 9265SOL    HW228196   5.719   2.822   0.357  0.9663  0.6428 -1.5023
 9266SOL     OW28197   0.162   5.277   2.133 -0.1469 -0.2268  0.3740
 9266SOL    HW128198   0.236   5.270   2.073 -1.0460 -2.8865 -0.5659
 9266SOL    HW228199   0.195   5.331   2.205  2.8870 -1.6122  0.1883
 9267SOL     OW28200   2.884   6.124   4.389  0.2020  0.6845  0.2783
 9267SOL    HW128201   2.790   6.126   4.407  0.3251  0.8462  0.9319
 9267SOL    HW228202   2.911   6.037   4.416 -0.0279  0.0772 -1.3613
 9268SOL     OW28203   1.075   4.860   5.647  0.6813 -0.2878  0.3556
 9268SOL    HW128204   1.131   4.886   5.575 -0.4056  2.6408  0.4441
 9268SOL    HW228205   1.134   4.817   5.709  1.7804 -2.1451 -1.7955
 9269SOL     OW28206   0.802   1.195   3.230  0.0176  0.1473 -0.1715
 9269SOL    HW128207   0.786   1.105   3.204 -1.7412  0.2853  0.3119
 9269SOL    HW228208   0.747   1.247   3.170 -0.8122  0.7259  1.0505
 9270SOL     OW28209   0.500   3.757   2.889 -0.2152  0.2742 -0.5279
 9270SOL    HW128210   0.443   3.826   2.855  0.0716 -0.1421 -1.8952
 9270SOL    HW228211   0.515   3.781   2.980 -1.6609  0.9953 -0.4549
 9271SOL     OW28212   2.532   2.617   4.217 -0.3276  0.3759  0.1041
 9271SOL    HW128213   2.550   2.541   4.272  0.1217 -0.6499 -1.4026
 9271SOL    HW228214   2.450   2.653   4.251 -0.3908 -0.6046  1.0184
 9272SOL     OW28215   1.910   3.537   0.454 -0.3387  0.7727 -0.3061
 9272SOL    HW128216   1.897   3.537   0.548  3.9113  0.4905  0.4720
 9272SOL    HW228217   1.926   3.628   0.431  1.4772  0.5273 -0.1564
 9273SOL     OW28218   0.088   2.059   6.034  0.3259 -0.4155 -0.1662
 9273SOL    HW128219  -0.000   2.039   6.003 -0.9389  1.7192  1.6901
 9273SOL    HW228220   0.086   2.153   6.051  2.7172 -0.4649  0.7335
 9274SOL     OW28221   3.667   1.124   4.131  0.5667 -0.0345 -0.0676
 9274SOL    HW128222   3.628   1.060   4.191 -4.0604 -0.0390 -2.5420
 9274SOL    HW228223   3.673   1.077   4.048  0.0538  1.7906 -1.1994
 9275SOL     OW28224   4.070   1.862   3.008 -0.1423 -0.1535 -0.5125
 9275SOL    HW128225   4.134   1.933   3.000  0.4576 -0.5895  0.2340
 9275SOL    HW228226   4.035   1.870   3.096 -1.5393  0.3945 -1.0814
 9276SOL     OW28227   1.788   4.078   5.058  0.3222 -0.4851  0.0744
 9276SOL    HW128228   1.697   4.070   5.087  0.5282 -1.7715  0.4456
 9276SOL    HW228229   1.827   4.141   5.119 -0.4732  0.5717 -0.4955
 9277SOL     OW28230   3.284   4.201   2.088  0.0552 -0.2109 -0.0512
 9277SOL    HW128231   3.375   4.173   2.095  0.0306 -0.3743 -0.3582
 9277SOL    HW228232   3.279   4.248   2.004 -0.1321 -0.1672 -0.0169
 9278SOL     OW28233   3.291   3.775   0.768  0.7747  0.1821  0.1276
 9278SOL    HW128234   3.292   3.682   0.745  1.4556 -0.0710  1.1251
 9278SOL    HW228235   3.212   3.809   0.725  0.6205 -0.8085 -0.4080
 9279SOL     OW28236   0.679   6.249   4.783 -0.6848 -0.3171 -0.2426
 9279SOL    HW128237   0.766   6.211   4.801 -0.9620 -2.3898 -2.6331
 9279SOL    HW228238   0.692   6.302   4.705 -0.9485  2.3467  1.3998
 9280SOL     OW28239   5.739   6.078   3.588  0.2596  0.0779 -0.0923
 9280SOL    HW128240   5.817   6.045   3.544  0.0818 -0.2740 -0.1539
 9280SOL    HW228241   5.763   6.165   3.619  0.7874 -0.1624  0.1840
 9281SOL     OW28242   6.498   2.010   6.776  0.0989  0.0615 -0.1331
 9281SOL    HW128243   6.497   1.959   6.696  1.5558  1.3529 -1.0292
 9281SOL    HW228244   6.553   1.960   6.836 -0.3620 -0.5234 -0.1877
 9282SOL     OW28245   2.086   1.828   0.747 -0.2325 -0.2061  0.2399
 9282SOL    HW128246   2.030   1.795   0.677  0.7640  0.5652 -0.9491
 9282SOL    HW228247   2.079   1.762   0.816 -1.3335 -0.9151 -0.5232
 9283SOL     OW28248   2.659   4.389   5.154  0.1207  0.3648  0.0990
 9283SOL    HW128249   2.665   4.307   5.106 -0.7489  0.4199 -0.1328
 9283SOL    HW228250   2.694   4.369   5.240 -2.3887 -0.9822  0.9049
 9284SOL     OW28251   3.848   4.846   1.988 -0.1874  0.3985 -0.2352
 9284SOL    HW128252   3.816   4.904   1.919  0.4579  0.7752 -0.2249
 9284SOL    HW228253   3.826   4.891   2.070  0.1308  0.5422 -0.2242
 9285SOL     OW28254   1.615   2.628   2.150 -0.2480  0.2968 -0.4962
 9285SOL    HW128255   1.629   2.657   2.241  0.2208 -1.2928 -0.0347
 9285SOL    HW228256   1.702   2.602   2.121 -0.7241 -1.0835 -0.7199
 9286SOL     OW28257   5.817   3.791   5.514  0.1296 -0.4094 -0.4187
 9286SOL    HW128258   5.742   3.742   5.548 -1.1255  1.8231  0.2665
 9286SOL    HW228259   5.794   3.812   5.424 -0.1530  0.3458 -0.1843
 9287SOL     OW28260   1.055   2.315   3.099 -0.7159 -0.2311 -0.2936
 9287SOL    HW128261   1.116   2.262   3.151  0.6251  1.2643 -0.2592
 9287SOL    HW228262   0.969   2.297   3.136 -0.2153 -1.8246  0.1604
 9288SOL     OW28263   5.984   1.713   1.683  0.1744  0.6198  0.4036
 9288SOL    HW128264   5.981   1.658   1.605 -0.4506  1.5245 -0.2374
 9288SOL    HW228265   5.998   1.652   1.755  0.6725 -0.2451 -0.4025
 9289SOL     OW28266   5.763   6.222   1.124  0.5636  0.2806  0.0378
 9289SOL    HW128267   5.846   6.252   1.163  0.9261 -1.7941  1.0112
 9289SOL    HW228268   5.782   6.214   1.031  2.0546 -1.7453  0.4459
 9290SOL     OW28269   0.734   0.069   3.017 -0.6179 -0.4674 -0.0913
 9290SOL    HW128270   0.817   0.110   2.994 -1.4833  1.1344 -0.5324
 9290SOL    HW228271   0.748  -0.024   3.001  1.2766 -0.3175  0.4764
 9291SOL     OW28272   4.721   1.758   0.999 -0.0756 -0.0812  0.0932
 9291SOL    HW128273   4.706   1.745   0.906  1.9689 -0.5003 -0.2259
 9291SOL    HW228274   4.648   1.713   1.042 -0.3772 -0.9450 -1.2863
 9292SOL     OW28275   1.253   3.247   1.270 -0.9617  0.1199  0.2062
 9292SOL    HW128276   1.337   3.286   1.292 -0.2111 -1.7914  0.8579
 9292SOL    HW228277   1.256   3.159   1.307 -2.7709 -0.4225 -0.8123
 9293SOL     OW28278   6.580   6.631   3.181  0.1393 -0.2877  0.0245
 9293SOL    HW128279   6.554   6.712   3.226 -1.5701 -0.9927  0.3645
 9293SOL    HW228280   6.613   6.661   3.096 -1.9017  0.7222 -0.4878
 9294SOL     OW28281   2.390   6.363   1.658 -0.2318 -0.5208  0.1561
 9294SOL    HW128282   2.319   6.307   1.627  1.1503 -1.3043 -1.7873
 9294SOL    HW228283   2.381   6.362   1.754 -2.9573 -0.3496 -0.0380
 9295SOL     OW28284   2.329   3.340   2.349  0.0175  0.4358  0.0127
 9295SOL    HW128285   2.353   3.321   2.440  2.7882  0.3780 -0.6307
 9295SOL    HW228286   2.263   3.409   2.355 -0.8178 -0.4702  2.0720
 9296SOL     OW28287   1.218   5.095   2.279  0.1057  0.1133  0.6264
 9296SOL    HW128288   1.167   5.111   2.199  3.1197  2.1937 -1.1121
 9296SOL    HW228289   1.157   5.112   2.350 -2.1479  0.3717 -1.2493
 9297SOL     OW28290   2.741   3.572   0.273  0.3019 -0.1770  0.3885
 9297SOL    HW128291   2.668   3.615   0.317  0.0801  0.2980 -0.4173
 9297SOL    HW228292   2.757   3.625   0.195  1.8583  0.0073  0.8162
 9298SOL     OW28293   4.407   3.689   3.249  0.2035 -0.0876 -0.0924
 9298SOL    HW128294   4.323   3.667   3.290  0.7643 -0.9623  0.6213
 9298SOL    HW228295   4.438   3.606   3.214  0.0967  0.5043 -1.6580
 9299SOL     OW28296   5.253   5.597   0.959 -0.4335  0.1532  0.0795
 9299SOL    HW128297   5.318   5.665   0.945 -0.8798  0.5555 -0.0556
 9299SOL    HW228298   5.272   5.564   1.047  0.6617 -0.5211 -0.3897
 9300SOL     OW28299   4.450   4.748   3.611  0.0375 -0.3031 -0.1388
 9300SOL    HW128300   4.412   4.834   3.628  0.9757 -0.2584  2.1862
 9300SOL    HW228301   4.493   4.756   3.526 -2.3475  0.5889 -1.3291
 9301SOL     OW28302   0.163   4.407   5.852 -0.3169 -0.2801  0.0695
 9301SOL    HW128303   0.136   4.425   5.942 -0.1669 -0.9860  0.2606
 9301SOL    HW228304   0.223   4.478   5.831 -3.6192  2.4342 -1.0122
 9302SOL     OW28305   5.896   2.449   0.263  0.0221  0.0547 -0.7592
 9302SOL    HW128306   5.807   2.413   0.262  0.0632 -0.0649 -0.3040
 9302SOL    HW228307   5.902   2.495   0.347  0.9321 -1.3380 -0.0195
 9303SOL     OW28308   4.568   3.990   6.121  0.3085  0.3034 -0.2271
 9303SOL    HW128309   4.483   4.034   6.125 -0.0683 -0.1968 -1.9883
 9303SOL    HW228310   4.609   4.010   6.206 -0.7673  2.1460 -0.0859
 9304SOL     OW28311   3.760   6.450   2.599 -0.5804  0.6430 -0.4503
 9304SOL    HW128312   3.670   6.480   2.611 -1.5112 -2.0198 -0.2370
 9304SOL    HW228313   3.770   6.439   2.504 -0.7759  0.1057 -0.4095
 9305SOL     OW28314   3.268   6.437   2.372  0.6001  0.2823 -0.3442
 9305SOL    HW128315   3.240   6.474   2.455  1.6971  3.3277 -1.2108
 9305SOL    HW228316   3.252   6.343   2.381 -0.2511  0.6256  2.8872
 9306SOL     OW28317   2.651   1.564   1.791  0.3816 -0.1404  0.6443
 9306SOL    HW128318   2.570   1.603   1.824 -0.4604  1.4342 -2.7511
 9306SOL    HW228319   2.631   1.471   1.783 -0.4736 -0.0402  1.4625
 9307SOL     OW28320   3.836   1.072   1.993 -0.1853  0.0691  0.2703
 9307SOL    HW128321   3.905   1.104   1.935  0.9820 -1.1925  0.8997
 9307SOL    HW228322   3.869   1.090   2.081 -0.7890 -0.2962  0.5737
 9308SOL     OW28323   6.580   0.347   6.747  0.8960  0.2781  0.3005
 9308SOL    HW128324   6.664   0.323   6.786  0.7376 -0.0814  0.4220
 9308SOL    HW228325   6.604   0.404   6.674  1.2166  0.5780  0.6336
 9309SOL     OW28326   0.649   6.725   1.724 -0.2583  0.1637  0.0441
 9309SOL    HW128327   0.707   6.710   1.650 -1.9285  0.2153 -1.3287
 9309SOL    HW228328   0.582   6.785   1.691  0.2093  2.0349  2.2690
 9310SOL     OW28329   4.719   6.152   4.758 -0.4703 -0.3274 -0.3128
 9310SOL    HW128330   4.780   6.225   4.766  0.7003 -1.3656  1.0894
 9310SOL    HW228331   4.660   6.162   4.833 -1.9356  0.5444 -1.5381
 9311SOL     OW28332   5.637   3.317   5.809  0.2318 -0.4168 -0.2045
 9311SOL    HW128333   5.576   3.343   5.739 -2.3547 -1.1459  1.6233
 9311SOL    HW228334   5.651   3.398   5.859  1.6687 -0.0170 -1.1782
 9312SOL     OW28335   2.651   1.978   1.288  0.3004 -0.3142 -0.1837
 9312SOL    HW128336   2.601   2.034   1.347 -0.7756 -1.4442  0.0237
 9312SOL    HW228337   2.689   2.038   1.224  2.3358  1.1033  2.1585
 9313SOL     OW28338   6.234   0.390   1.868  0.1227  0.2151 -0.5904
 9313SOL    HW128339   6.258   0.298   1.857 -1.2412 -0.4628  1.4964
 9313SOL    HW228340   6.313   0.431   1.905  0.5752 -0.2201 -1.0664
 9314SOL     OW28341   2.617   4.993   4.019  0.3155  0.2227 -0.2116
 9314SOL    HW128342   2.595   4.973   3.928  0.8216  1.7304 -0.6936
 9314SOL    HW228343   2.552   4.945   4.070  0.0664 -0.7048 -1.3553
 9315SOL     OW28344   0.054   2.896   3.666  0.0074  0.3636  0.1245
 9315SOL    HW128345   0.062   2.929   3.756 -0.5994  0.2811  0.2125
 9315SOL    HW228346   0.074   2.971   3.611  0.4156  0.4060  0.3290
 9316SOL     OW28347   6.217   2.875   1.800 -0.1994 -0.0483 -0.2896
 9316SOL    HW128348   6.233   2.842   1.888 -0.9565  0.0585 -0.1041
 9316SOL    HW228349   6.241   2.967   1.804  1.1056 -0.3676 -0.5787
 9317SOL     OW28350   6.392   6.703   4.301 -0.0252 -0.2180  0.4003
 9317SOL    HW128351   6.355   6.773   4.354  0.9640  0.4078  0.2907
 9317SOL    HW228352   6.344   6.707   4.218  0.8823  1.2140 -0.1056
 9318SOL     OW28353   4.578   4.470   2.873 -0.3940  0.4405  0.2675
 9318SOL    HW128354   4.534   4.385   2.874  0.6875 -0.1404  0.0063
 9318SOL    HW228355   4.638   4.467   2.947 -0.9142  1.3099  0.7460
 9319SOL     OW28356   2.771   1.458   0.125 -0.1290  0.1200  0.0981
 9319SOL    HW128357   2.690   1.407   0.120  1.3868 -2.5836  1.0288
 9319SOL    HW228358   2.829   1.417   0.061  0.4516  2.3122 -0.8913
 9320SOL     OW28359   1.506   4.436   0.186 -0.5279 -0.9067 -0.3086
 9320SOL    HW128360   1.560   4.385   0.126 -1.2783 -0.3546 -1.4892
 9320SOL    HW228361   1.560   4.444   0.265  1.7110  0.7070 -1.8512
 9321SOL     OW28362   4.426   1.306   4.718  0.5553 -0.0265 -0.1218
 9321SOL    HW128363   4.368   1.238   4.685  0.9843 -1.1015  1.2550
 9321SOL    HW228364   4.471   1.266   4.791 -2.2848  2.9640  3.6934
 9322SOL     OW28365   6.065   1.545   1.922 -0.4915 -0.1347  0.6576
 9322SOL    HW128366   6.107   1.507   1.999  0.7073 -0.6656 -0.2292
 9322SOL    HW228367   6.044   1.470   1.866 -3.3051  0.0355  1.3495
 9323SOL     OW28368   0.466   3.764   1.549 -0.2411 -0.2452  0.4211
 9323SOL    HW128369   0.522   3.766   1.472 -1.6553 -0.9414 -0.6651
 9323SOL    HW228370   0.381   3.733   1.517 -0.6893 -1.1851  2.3563
 9324SOL     OW28371   3.004   5.607   0.243  0.1477 -0.0595 -0.1102
 9324SOL    HW128372   3.079   5.592   0.301  0.2293 -0.9299 -0.4154
 9324SOL    HW228373   3.040   5.654   0.169  0.4528 -0.6874 -0.3694
 9325SOL     OW28374   5.992   5.382   1.912 -0.1654 -0.8218  0.0873
 9325SOL    HW128375   6.041   5.447   1.861  0.8103 -2.4729 -1.1803
 9325SOL    HW228376   5.904   5.384   1.875  0.4130 -1.6693 -1.4243
 9326SOL     OW28377   2.374   3.029   5.135 -0.0041 -0.1690 -0.1516
 9326SOL    HW128378   2.385   2.936   5.115 -0.8361 -0.3912  0.3808
 9326SOL    HW228379   2.312   3.031   5.209  1.5466  0.7114  1.1906
 9327SOL     OW28380   5.221   3.750   6.435 -0.1823  0.2147  0.2417
 9327SOL    HW128381   5.259   3.837   6.426 -1.3686  0.7784  0.4960
 9327SOL    HW228382   5.168   3.739   6.357 -0.4066 -0.0901  0.4339
 9328SOL     OW28383   2.649   5.883   1.362 -0.1552 -0.9163  0.4370
 9328SOL    HW128384   2.653   5.833   1.280  2.4014  0.3072 -0.3043
 9328SOL    HW228385   2.685   5.823   1.428  1.1833 -0.7200 -0.0847
 9329SOL     OW28386   2.615   2.874   1.681 -0.0861  0.6101  0.3866
 9329SOL    HW128387   2.677   2.819   1.729 -0.1245  0.2736  0.0498
 9329SOL    HW228388   2.539   2.881   1.740 -0.5512 -0.6456 -0.0430
 9330SOL     OW28389   6.045   2.621   0.472  0.8641 -0.2378 -0.3963
 9330SOL    HW128390   6.054   2.596   0.564  0.2837 -0.5814 -0.4338
 9330SOL    HW228391   6.115   2.574   0.427  2.6930  1.7217  0.1883
 9331SOL     OW28392   2.266   1.126   3.364 -0.2684  0.5080 -0.3435
 9331SOL    HW128393   2.242   1.178   3.440  0.2466  1.2343 -0.6611
 9331SOL    HW228394   2.213   1.047   3.370 -2.3676  1.8291 -0.7792
 9332SOL     OW28395   5.570   4.546   2.668  0.4995 -0.0500 -0.1568
 9332SOL    HW128396   5.542   4.456   2.652  0.5569  0.3848 -3.1893
 9332SOL    HW228397   5.550   4.560   2.761 -1.0595 -2.6238  0.0117
 9333SOL     OW28398   5.182   5.119   2.068  0.8758  0.9223  0.3890
 9333SOL    HW128399   5.103   5.152   2.024 -1.2115 -1.7979  1.8050
 9333SOL    HW228400   5.163   5.128   2.161  1.1968 -1.8505  0.7888
 9334SOL     OW28401   0.910   5.963   2.074  0.2446  0.2227 -0.2349
 9334SOL    HW128402   0.873   6.038   2.028  1.4532  1.0607  0.1278
 9334SOL    HW228403   0.934   5.901   2.004 -0.6552  0.1935 -0.5371
 9335SOL     OW28404   4.990   3.825   0.350 -0.0543  0.7179  0.2826
 9335SOL    HW128405   5.012   3.740   0.313 -0.4338  0.9776 -0.5736
 9335SOL    HW228406   4.933   3.805   0.424  0.5519  0.1972  0.6178
 9336SOL     OW28407   6.227   5.128   6.440  0.5542  0.2721 -0.4041
 9336SOL    HW128408   6.139   5.130   6.479  0.8409 -0.4373  0.3001
 9336SOL    HW228409   6.275   5.197   6.486  0.4839  0.4041 -0.5249
 9337SOL     OW28410   2.476   0.443   6.182  0.1549 -0.8070  0.6787
 9337SOL    HW128411   2.482   0.447   6.278 -0.5025  3.7131  0.7367
 9337SOL    HW228412   2.383   0.459   6.163  0.7600  1.4427 -0.6755
 9338SOL     OW28413   5.669   2.374   1.368 -0.3076  0.9284  0.2656
 9338SOL    HW128414   5.747   2.319   1.368  0.6684  2.2589 -0.4213
 9338SOL    HW228415   5.614   2.337   1.298 -0.2797  0.0208  0.7180
 9339SOL     OW28416   1.957   4.164   3.945 -0.0273 -0.0152 -0.1058
 9339SOL    HW128417   1.993   4.092   3.893 -1.0660 -1.0623  0.5791
 9339SOL    HW228418   1.902   4.212   3.883  0.3217 -0.0606 -0.4587
 9340SOL     OW28419   2.977   3.696   5.077  0.6706  0.8317 -0.2944
 9340SOL    HW128420   2.931   3.735   5.003 -2.5954  1.1203  1.6874
 9340SOL    HW228421   3.000   3.770   5.133  1.1657  0.4841 -0.0353
 9341SOL     OW28422   0.969   3.837   0.774 -0.4271 -0.1781  0.3533
 9341SOL    HW128423   0.996   3.849   0.683  2.2049  1.2479  1.2038
 9341SOL    HW228424   0.934   3.748   0.778  0.6955 -0.7654 -1.7568
 9342SOL     OW28425   6.144   3.102   1.289 -0.2954 -0.1618 -0.1274
 9342SOL    HW128426   6.171   3.178   1.341  1.6982 -0.9162 -0.0004
 9342SOL    HW228427   6.092   3.049   1.350  0.8173 -0.3296  0.7123
 9343SOL     OW28428   6.067   1.647   5.489 -0.4488  0.4545  0.0790
 9343SOL    HW128429   6.140   1.666   5.431 -0.3156  1.7630  0.6242
 9343SOL    HW228430   6.078   1.555   5.513  0.9514  0.6010  0.0657
 9344SOL     OW28431   4.764   0.435   4.627 -0.0232  0.3103 -0.1474
 9344SOL    HW128432   4.731   0.438   4.537  0.5331 -1.7701 -0.4758
 9344SOL    HW228433   4.721   0.509   4.670 -0.6812  1.0738 -1.9769
 9345SOL     OW28434   6.017   6.530   4.652  0.2895 -0.0173  0.0009
 9345SOL    HW128435   6.074   6.602   4.678 -1.1692  0.9293  0.7462
 9345SOL    HW228436   6.024   6.527   4.557  1.4762  0.1479  0.0722
 9346SOL     OW28437   5.931   3.282   6.416  0.2481  0.1730 -0.2349
 9346SOL    HW128438   5.948   3.196   6.376  1.4624  0.7882 -1.0891
 9346SOL    HW228439   6.005   3.296   6.475  0.1846  0.7454 -0.2864
 9347SOL     OW28440   1.024   4.846   2.230  0.2277  0.1511  0.4563
 9347SOL    HW128441   1.073   4.767   2.209  0.0978 -0.2976  1.7705
 9347SOL    HW228442   1.087   4.901   2.278 -0.3510 -0.1714  1.6177
 9348SOL     OW28443   5.218   3.661   5.159  0.0781 -0.4652 -0.5327
 9348SOL    HW128444   5.171   3.727   5.209  1.5504  0.7446 -0.6778
 9348SOL    HW228445   5.215   3.693   5.069 -0.2836 -1.2655 -0.8114
 9349SOL     OW28446   0.216   3.178   5.904  0.0717 -0.1428 -0.3393
 9349SOL    HW128447   0.231   3.272   5.915 -0.1625 -0.0569 -0.7077
 9349SOL    HW228448   0.235   3.162   5.811 -0.2189 -0.3934 -0.3567
 9350SOL     OW28449   3.508   4.361   5.674 -0.4788 -0.0862 -0.4990
 9350SOL    HW128450   3.433   4.415   5.699 -0.7019 -0.4673 -0.3312
 9350SOL    HW228451   3.470   4.274   5.660  0.2803 -0.8570  1.8589
 9351SOL     OW28452   1.858   3.721   2.911 -0.1789 -0.0804 -1.1149
 9351SOL    HW128453   1.828   3.630   2.915  3.5565 -1.4914 -1.4935
 9351SOL    HW228454   1.873   3.738   2.819  1.6242 -0.0449 -0.8440
 9352SOL     OW28455   0.307   0.395   3.429  0.5003  0.1845  0.2540
 9352SOL    HW128456   0.281   0.481   3.464 -2.8017 -0.3388 -0.5825
 9352SOL    HW228457   0.280   0.333   3.496  2.2905 -0.3044  0.5658
 9353SOL     OW28458   2.883   0.113   5.375 -0.3064  0.4660 -0.0020
 9353SOL    HW128459   2.966   0.066   5.378 -0.3855  0.2900 -0.4511
 9353SOL    HW228460   2.902   0.194   5.328 -0.3715  0.4582 -0.0431
 9354SOL     OW28461   2.346   3.451   0.075 -0.0006  0.2736  0.0097
 9354SOL    HW128462   2.383   3.539   0.069  0.4016  0.1103  0.0852
 9354SOL    HW228463   2.282   3.457   0.145  1.7812 -0.1028  1.7592
 9355SOL     OW28464   2.552   1.699   2.884  0.1657  0.0128  0.9684
 9355SOL    HW128465   2.549   1.606   2.907 -0.0419 -0.1968  0.1366
 9355SOL    HW228466   2.461   1.728   2.886  0.0266 -0.2357 -0.3998
 9356SOL     OW28467   1.870   2.462   2.130 -0.1019 -0.0549  0.2964
 9356SOL    HW128468   1.813   2.474   2.054 -0.2531  0.7015  0.5192
 9356SOL    HW228469   1.950   2.423   2.094  0.5860  2.0276 -0.5754
 9357SOL     OW28470   3.787   2.218   5.293  0.2411  0.5206 -0.0567
 9357SOL    HW128471   3.846   2.283   5.253  1.3818 -0.0903  0.5766
 9357SOL    HW228472   3.700   2.243   5.262  0.6330  2.3600  0.1808
 9358SOL     OW28473   2.854   5.728   6.422  0.2799  0.5382  0.0292
 9358SOL    HW128474   2.949   5.721   6.429  0.3109  0.9440  0.0542
 9358SOL    HW228475   2.839   5.760   6.333  0.2651  2.1177  0.5734
 9359SOL     OW28476   2.288   3.769   4.758  0.1382  0.1174  0.1578
 9359SOL    HW128477   2.207   3.805   4.723  0.2269 -0.1381 -0.3158
 9359SOL    HW228478   2.357   3.806   4.704  0.1673 -1.4690 -0.9782
 9360SOL     OW28479   0.310   6.691   1.085 -0.3816 -0.5141  0.2913
 9360SOL    HW128480   0.313   6.637   1.006  0.2698  0.7803 -0.6068
 9360SOL    HW228481   0.235   6.748   1.071  0.3742  0.4501  0.0945
 9361SOL     OW28482   6.386   4.988   4.519  0.1761  0.1665 -0.1527
 9361SOL    HW128483   6.343   4.973   4.435 -1.3888  0.9661  0.4660
 9361SOL    HW228484   6.315   5.015   4.578  1.6692  2.4512  0.7055
 9362SOL     OW28485   5.938   4.319   6.135 -0.0069  0.0329 -0.2892
 9362SOL    HW128486   5.928   4.309   6.230 -0.1599  1.1014 -0.1811
 9362SOL    HW228487   5.871   4.261   6.098 -0.6078  0.3599  0.2717
 9363SOL     OW28488   2.827   4.534   0.968 -0.2235  0.3603 -0.2606
 9363SOL    HW128489   2.791   4.469   0.908  0.5702  0.2427 -0.6108
 9363SOL    HW228490   2.817   4.617   0.922  0.5664  0.2482 -0.6581
 9364SOL     OW28491   5.455   6.046   5.888  0.3742 -0.4899  0.3629
 9364SOL    HW128492   5.465   6.026   5.981 -0.5851  1.0354  0.8402
 9364SOL    HW228493   5.360   6.048   5.875  0.4978 -0.1073 -0.5012
 9365SOL     OW28494   5.337   3.241   1.033 -0.0757 -0.6576 -0.2261
 9365SOL    HW128495   5.390   3.274   0.960  0.8874 -1.5457  0.0415
 9365SOL    HW228496   5.394   3.250   1.109  0.7740 -4.0356 -0.3136
 9366SOL     OW28497   5.911   3.529   5.993  0.3816  0.6102  0.0685
 9366SOL    HW128498   5.908   3.442   6.032 -0.6804  1.1068  1.1335
 9366SOL    HW228499   5.931   3.513   5.901  0.0311 -0.7715  0.2157
 9367SOL     OW28500   4.026   0.793   5.250  0.1965 -0.3424 -0.1617
 9367SOL    HW128501   3.946   0.818   5.297  0.3276 -2.1832  1.1882
 9367SOL    HW228502   3.997   0.776   5.160 -1.1568 -1.8392  0.5144
 9368SOL     OW28503   1.337   4.318   1.556  0.0938 -0.5345 -0.5279
 9368SOL    HW128504   1.425   4.284   1.573 -0.3362 -1.1498  0.5287
 9368SOL    HW228505   1.293   4.314   1.641 -0.9515 -0.2024 -1.0438
 9369SOL     OW28506   3.696   0.065   0.858 -0.0926  0.2508 -0.3076
 9369SOL    HW128507   3.714   0.120   0.934  1.9671 -0.7071 -0.0149
 9369SOL    HW228508   3.656   0.124   0.795  0.7937  1.7683  0.4785
 9370SOL     OW28509   1.796   5.778   1.970  0.4819 -0.1511  0.5680
 9370SOL    HW128510   1.789   5.796   2.064 -0.8101  0.7395  0.3361
 9370SOL    HW228511   1.713   5.734   1.948  0.6269 -0.0515 -0.2201
 9371SOL     OW28512   2.959   4.532   4.963  0.0229 -0.4405  0.0318
 9371SOL    HW128513   2.866   4.556   4.955 -0.3459 -1.1540  1.8047
 9371SOL    HW228514   2.978   4.541   5.056  1.8673  0.0579 -0.3541
 9372SOL     OW28515   0.696   2.992   4.726  0.3059 -0.1760  0.0890
 9372SOL    HW128516   0.730   3.010   4.638 -0.4167  1.9197  0.1884
 9372SOL    HW228517   0.743   3.053   4.782 -0.8386  0.0658  0.8108
 9373SOL     OW28518   4.280   5.190   2.675  0.0019 -0.2450 -0.4728
 9373SOL    HW128519   4.205   5.194   2.616  0.5754  1.5520 -1.1419
 9373SOL    HW228520   4.333   5.267   2.654  0.2752  0.4744  2.3288
 9374SOL     OW28521   3.824   0.599   5.512 -0.4453 -0.1810 -0.1314
 9374SOL    HW128522   3.875   0.532   5.467 -0.2391 -0.1175  0.0056
 9374SOL    HW228523   3.873   0.680   5.498 -1.1618  0.1014 -1.0495
 9375SOL     OW28524   1.464   4.928   1.140  0.9307 -0.9408 -0.0021
 9375SOL    HW128525   1.545   4.886   1.169  0.1491 -2.0906  0.5895
 9375SOL    HW228526   1.406   4.923   1.216 -0.5544 -2.4219 -1.1653
 9376SOL     OW28527   4.214   1.350   3.163  0.1937  0.3872  0.3790
 9376SOL    HW128528   4.190   1.296   3.238 -0.0025 -1.9074 -1.2314
 9376SOL    HW228529   4.255   1.428   3.201 -0.0898 -0.5883  2.8384
 9377SOL     OW28530   3.115   5.723   6.451  0.0700  0.1842  0.7970
 9377SOL    HW128531   3.203   5.758   6.437  0.2157 -0.7246 -0.8976
 9377SOL    HW228532   3.129   5.637   6.490  0.0639 -0.7091 -1.0756
 9378SOL     OW28533   5.233   1.192   1.912 -0.0500  0.6723  0.3797
 9378SOL    HW128534   5.139   1.175   1.918 -0.2029  1.3497 -0.0761
 9378SOL    HW228535   5.246   1.232   1.826  0.7274  0.1498  0.2388
 9379SOL     OW28536   5.591   1.132   0.377 -0.9743 -0.2947  0.1287
 9379SOL    HW128537   5.654   1.172   0.316 -0.7316 -1.5583 -0.4722
 9379SOL    HW228538   5.594   1.189   0.454  0.1549  0.2392 -0.2832
 9380SOL     OW28539   1.124   1.865   3.741  0.1233  0.2286 -0.0210
 9380SOL    HW128540   1.212   1.848   3.708 -0.1499 -0.6020 -0.3371
 9380SOL    HW228541   1.086   1.926   3.677  0.1959 -0.0278 -0.3119
 9381SOL     OW28542   1.586   3.559   4.281 -0.2216 -0.3575  0.5033
 9381SOL    HW128543   1.588   3.483   4.338  2.3051 -0.5305  0.3127
 9381SOL    HW228544   1.646   3.537   4.210 -1.0410  1.0064 -0.6690
 9382SOL     OW28545   6.740   5.795   3.923 -0.2367 -0.1086  0.5403
 9382SOL    HW128546   6.796   5.717   3.916 -0.0575  0.0278  0.4322
 9382SOL    HW228547   6.757   5.843   3.842  0.4221  0.5476  1.0508
 9383SOL     OW28548   0.026   6.329   5.680  0.1833  0.1255  0.6585
 9383SOL    HW128549  -0.059   6.285   5.681  1.5756 -2.8028 -0.6263
 9383SOL    HW228550   0.060   6.318   5.769  0.3127 -1.0842  0.4768
 9384SOL     OW28551   5.587   4.516   6.404 -0.1210 -0.3721  0.1278
 9384SOL    HW128552   5.681   4.531   6.415 -0.5881  2.0864  1.4128
 9384SOL    HW228553   5.555   4.593   6.358 -1.6550 -0.6678  0.6163
 9385SOL     OW28554   5.453   1.811   1.222 -0.3289 -0.2820 -0.5268
 9385SOL    HW128555   5.531   1.762   1.249 -0.0478 -0.3652 -1.4604
 9385SOL    HW228556   5.431   1.776   1.135 -2.7984 -1.8914  0.6420
 9386SOL     OW28557   2.135   5.558   3.173 -0.4300  0.3169 -0.3693
 9386SOL    HW128558   2.223   5.565   3.137 -0.4837  1.0180 -0.3792
 9386SOL    HW228559   2.103   5.474   3.141  0.7497 -0.6222  0.7899
 9387SOL     OW28560   4.085   5.456   4.019 -0.3976  0.2844 -0.6522
 9387SOL    HW128561   4.103   5.543   4.055 -0.3358  0.3234 -0.7773
 9387SOL    HW228562   4.051   5.473   3.931  3.9714  0.0939 -2.6346
 9388SOL     OW28563   5.629   2.916   1.570  0.2523 -0.5308 -0.0888
 9388SOL    HW128564   5.672   3.002   1.565  0.3391 -0.6283 -1.3690
 9388SOL    HW228565   5.581   2.918   1.653  0.4453  0.6678  0.0113
 9389SOL     OW28566   5.450   6.146   4.314  0.7061  0.3612  0.7863
 9389SOL    HW128567   5.414   6.204   4.247 -0.1578 -0.9065  0.1042
 9389SOL    HW228568   5.417   6.182   4.397 -1.7364 -0.3867  0.2306
 9390SOL     OW28569   2.070   1.770   5.386 -0.5072 -0.5951 -0.4453
 9390SOL    HW128570   2.112   1.743   5.468  0.3600 -1.7366 -1.2276
 9390SOL    HW228571   2.135   1.826   5.343 -1.3730  0.8699  0.0991
 9391SOL     OW28572   6.316   3.352   2.479 -0.3999 -0.2215 -0.0420
 9391SOL    HW128573   6.295   3.332   2.570 -0.6012  1.1312  0.2263
 9391SOL    HW228574   6.232   3.364   2.436 -0.2944 -0.0488 -0.2074
 9392SOL     OW28575   2.301   1.697   3.302 -0.1160  0.4067 -0.0781
 9392SOL    HW128576   2.339   1.627   3.247  2.8059  1.4385  0.4809
 9392SOL    HW228577   2.343   1.777   3.271 -2.8791  1.9085 -0.2284
 9393SOL     OW28578   5.291   1.972   4.515 -0.2030  0.1029  0.7657
 9393SOL    HW128579   5.278   2.029   4.590 -0.3900  1.4796 -0.2829
 9393SOL    HW228580   5.221   1.995   4.455 -0.4615 -1.4505  0.4192
 9394SOL     OW28581   5.290   5.528   2.476  0.1433 -0.5489  0.0796
 9394SOL    HW128582   5.239   5.552   2.554 -0.2011 -0.3355 -0.2091
 9394SOL    HW228583   5.322   5.440   2.494  1.4234  0.1035  1.1690
 9395SOL     OW28584   3.245   4.359   6.598  0.4360  0.0506 -0.4212
 9395SOL    HW128585   3.182   4.350   6.526 -1.2813  1.1790  0.8564
 9395SOL    HW228586   3.295   4.437   6.576  0.4416 -0.0443 -0.7601
 9396SOL     OW28587   1.699   2.854   1.610 -0.2321 -0.0344 -0.3380
 9396SOL    HW128588   1.648   2.773   1.616 -1.1061  0.3875 -1.6146
 9396SOL    HW228589   1.787   2.829   1.637 -1.0934 -0.7872  1.9600
 9397SOL     OW28590   2.598   6.018   0.404  0.8811 -0.1233  0.6453
 9397SOL    HW128591   2.644   6.051   0.327  0.8103  0.7943  0.9848
 9397SOL    HW228592   2.505   6.027   0.382  0.8587 -0.4478  0.5990
 9398SOL     OW28593   5.867   2.314   0.776 -0.1616 -0.0668 -0.6700
 9398SOL    HW128594   5.802   2.295   0.709 -1.8065 -2.9775  1.4547
 9398SOL    HW228595   5.818   2.360   0.845  0.5044 -0.4737  0.0992
 9399SOL     OW28596   5.940   2.384   2.822  0.7349  0.3098  0.1264
 9399SOL    HW128597   5.909   2.432   2.898  0.0193 -1.1560  0.8079
 9399SOL    HW228598   5.908   2.433   2.746  0.2875  1.0392  0.7804
 9400SOL     OW28599   0.419   5.056   0.567 -0.2471 -0.0049 -0.4076
 9400SOL    HW128600   0.342   5.096   0.528 -0.4089 -1.2291 -1.4287
 9400SOL    HW228601   0.388   4.971   0.600  0.2704  0.2749  0.8660
 9401SOL     OW28602   1.943   4.938   6.771 -0.3301  0.2893 -0.4386
 9401SOL    HW128603   1.956   5.003   6.841 -0.5358 -0.6631  0.5185
 9401SOL    HW228604   1.990   4.973   6.696  0.0566  1.2540  0.2334
 9402SOL     OW28605   5.020   3.485   2.621  0.1752 -0.1726  0.2877
 9402SOL    HW128606   4.981   3.412   2.667 -0.2067 -0.4382 -0.4452
 9402SOL    HW228607   5.015   3.558   2.683 -1.9857 -0.0427  0.0490
 9403SOL     OW28608   4.147   6.351   0.443  0.2020 -0.4422 -0.3648
 9403SOL    HW128609   4.172   6.362   0.535 -0.1488  0.4218 -0.3644
 9403SOL    HW228610   4.072   6.409   0.431  0.2192 -0.5770 -1.1854
 9404SOL     OW28611   4.017   2.677   5.525  0.2604 -0.1474 -0.0922
 9404SOL    HW128612   4.029   2.655   5.617  0.7486  2.1956  0.4679
 9404SOL    HW228613   3.925   2.657   5.507  0.7880 -3.1667  0.0757
 9405SOL     OW28614   4.827   4.489   4.164 -0.0078  0.6029 -0.1272
 9405SOL    HW128615   4.843   4.568   4.215  0.8225 -0.7607  1.8409
 9405SOL    HW228616   4.855   4.512   4.075  0.9399  2.2836  0.5565
 9406SOL     OW28617   4.704   3.305   1.166 -0.2516  0.6522  0.1395
 9406SOL    HW128618   4.776   3.354   1.126 -1.1387  2.4814  0.7029
 9406SOL    HW228619   4.748   3.235   1.216  1.0119  0.5140 -1.0961
 9407SOL     OW28620   3.371   6.350   5.166 -0.3912 -0.0515  0.5902
 9407SOL    HW128621   3.331   6.280   5.115 -0.1809 -0.2363  0.6783
 9407SOL    HW228622   3.301   6.381   5.223 -1.5597  2.1903 -1.8432
 9408SOL     OW28623   6.458   0.103   2.205 -0.1297  0.6205 -0.1388
 9408SOL    HW128624   6.496   0.187   2.231 -1.0393  0.9336  0.2522
 9408SOL    HW228625   6.372   0.102   2.249  0.5000 -1.2026  1.1800
 9409SOL     OW28626   1.415   1.392   4.559 -0.4322 -0.5288 -0.0029
 9409SOL    HW128627   1.397   1.383   4.466 -1.2003 -0.2073  0.1026
 9409SOL    HW228628   1.498   1.439   4.564 -0.7977  0.1977 -0.5374
 9410SOL     OW28629   4.173   3.468   2.873 -0.0399 -0.1659  0.3499
 9410SOL    HW128630   4.081   3.494   2.886  0.0677  1.8215 -2.0266
 9410SOL    HW228631   4.221   3.551   2.876  1.7132 -1.1701  1.4609
 9411SOL     OW28632   3.232   6.183   3.939  0.2141 -0.0592  0.4205
 9411SOL    HW128633   3.278   6.222   3.865 -0.2735  0.6951  0.5077
 9411SOL    HW228634   3.151   6.148   3.902  0.5069 -0.7338  0.3976
 9412SOL     OW28635   5.529   6.337   5.439  0.1796  0.3605 -0.2860
 9412SOL    HW128636   5.448   6.286   5.444  0.4689 -0.3818 -2.2205
 9412SOL    HW228637   5.515   6.396   5.365  1.5112  0.0159 -0.8274
 9413SOL     OW28638   5.601   1.746   2.811 -0.0517  0.0531 -0.7134
 9413SOL    HW128639   5.686   1.733   2.854 -0.7875  0.1475  0.8073
 9413SOL    HW228640   5.600   1.681   2.741  0.2896 -1.6251  0.7731
 9414SOL     OW28641   5.037   2.488   3.725 -0.1476 -0.8243 -0.1576
 9414SOL    HW128642   5.044   2.420   3.658 -0.7582 -2.6491  1.5232
 9414SOL    HW228643   5.125   2.496   3.761 -0.1120 -0.8392 -0.2408
 9415SOL     OW28644   3.265   5.197   4.640  0.1430 -0.3626  0.1183
 9415SOL    HW128645   3.208   5.134   4.684  0.4583 -0.2590  0.6854
 9415SOL    HW228646   3.348   5.151   4.630 -0.4381 -1.0321 -2.0198
 9416SOL     OW28647   2.755   4.172   2.785 -0.2787 -0.4541  0.1259
 9416SOL    HW128648   2.766   4.092   2.733  1.4034 -0.8466  1.0327
 9416SOL    HW228649   2.662   4.172   2.809 -0.5339 -1.5767 -0.7604
 9417SOL     OW28650   6.632   0.522   6.158  0.4728  0.2443  0.6368
 9417SOL    HW128651   6.582   0.479   6.089 -3.3648  1.5164  2.3474
 9417SOL    HW228652   6.626   0.615   6.138  0.8838  0.5187  1.6899
 9418SOL     OW28653   3.178   2.715   4.531 -0.1326 -0.2663 -0.5950
 9418SOL    HW128654   3.086   2.741   4.533 -0.3276 -0.9402 -0.4101
 9418SOL    HW228655   3.201   2.698   4.622  1.1381  3.0395 -0.1742
 9419SOL     OW28656   5.535   3.058   0.676 -0.3911 -0.7144  0.8145
 9419SOL    HW128657   5.587   3.090   0.602 -0.6125 -0.3868  0.7993
 9419SOL    HW228658   5.564   3.111   0.750  0.2269 -1.4159  1.0843
 9420SOL     OW28659   2.621   6.140   2.671  0.0834  0.2443  0.5713
 9420SOL    HW128660   2.540   6.108   2.711  0.1825 -1.7154 -0.6474
 9420SOL    HW228661   2.629   6.230   2.703 -1.6920 -0.0365  2.0316
 9421SOL     OW28662   0.770   4.370   6.372  0.0043 -0.3479  0.1427
 9421SOL    HW128663   0.676   4.382   6.356 -0.6484 -2.4769  1.7782
 9421SOL    HW228664   0.798   4.308   6.306 -0.0949 -0.7698  0.4892
 9422SOL     OW28665   6.586   5.531   4.264 -0.1603  0.2914  0.3262
 9422SOL    HW128666   6.636   5.466   4.313  1.0784  0.9097 -0.0633
 9422SOL    HW228667   6.582   5.607   4.322  0.6450  0.7536 -0.1934
 9423SOL     OW28668   6.327   0.387   4.037  0.9577 -0.2302  0.1424
 9423SOL    HW128669   6.257   0.439   3.997 -1.3226  0.5637  4.4862
 9423SOL    HW228670   6.395   0.451   4.057  0.3485  0.1625  1.0152
 9424SOL     OW28671   4.186   4.257   3.576  0.1537  0.0839  0.6263
 9424SOL    HW128672   4.235   4.337   3.557 -0.4301  1.4188  3.9451
 9424SOL    HW228673   4.098   4.273   3.540 -0.0663  1.1582  1.5825
 9425SOL     OW28674   0.695   2.154   6.714 -0.0166  0.4633  0.3578
 9425SOL    HW128675   0.667   2.242   6.688 -1.8547 -0.0146  0.5851
 9425SOL    HW228676   0.739   2.120   6.636 -0.6370  1.0347 -0.2600
 9426SOL     OW28677   3.515   5.159   6.073 -0.3702 -0.2234  0.2524
 9426SOL    HW128678   3.491   5.163   6.166 -0.6053  0.1143  0.1809
 9426SOL    HW228679   3.541   5.068   6.058  0.2371 -0.1448  0.7906
 9427SOL     OW28680   5.078   0.620   6.208 -0.4797  0.1716  0.0869
 9427SOL    HW128681   5.116   0.708   6.203 -0.3385  0.1822  1.1426
 9427SOL    HW228682   5.139   0.566   6.158 -0.2084  0.5644 -0.0172
 9428SOL     OW28683   2.454   4.080   0.235 -0.1326 -0.6369  0.2060
 9428SOL    HW128684   2.435   4.039   0.150  1.5047 -2.4526  0.6638
 9428SOL    HW228685   2.430   4.014   0.300  0.6826 -0.1244  1.0529
 9429SOL     OW28686   6.698   1.781   4.324  1.0254 -0.4855  0.1216
 9429SOL    HW128687   6.667   1.748   4.240 -0.1520  1.2094 -0.1721
 9429SOL    HW228688   6.793   1.771   4.320  1.2970  1.7393 -2.4981
 9430SOL     OW28689   2.547   6.642   3.927  0.4846 -0.0666 -0.3007
 9430SOL    HW128690   2.618   6.631   3.864 -1.0808 -1.3811 -1.9447
 9430SOL    HW228691   2.558   6.570   3.989 -0.5279 -1.5666 -1.7658
 9431SOL     OW28692   1.423   5.971   4.107  0.1510  0.1065 -0.9826
 9431SOL    HW128693   1.469   5.949   4.026  0.7664 -0.0876 -0.5915
 9431SOL    HW228694   1.478   6.037   4.149  0.0029 -0.0249 -0.5709
 9432SOL     OW28695   5.711   0.966   3.925  0.0798  0.3515  0.4386
 9432SOL    HW128696   5.787   0.989   3.978 -0.1503 -1.2448  1.5334
 9432SOL    HW228697   5.645   1.031   3.947 -0.4250 -0.9353  3.1217
 9433SOL     OW28698   0.529   1.066   2.939  0.7022 -0.1198  0.0683
 9433SOL    HW128699   0.552   1.114   2.860  0.0263 -2.5281 -1.6988
 9433SOL    HW228700   0.434   1.059   2.936  0.6316  0.0174  1.3090
 9434SOL     OW28701   4.386   0.551   6.069 -0.1462 -0.4316  0.1118
 9434SOL    HW128702   4.330   0.614   6.023 -0.5465 -1.6256 -1.0917
 9434SOL    HW228703   4.475   0.576   6.043 -0.3388 -0.7750 -0.9575
 9435SOL     OW28704   0.754   6.451   2.560  0.0991 -0.3998  0.6088
 9435SOL    HW128705   0.810   6.478   2.633  0.6223  0.8849 -0.2156
 9435SOL    HW228706   0.810   6.395   2.506 -0.0977 -0.8613  0.8801
 9436SOL     OW28707   5.440   4.033   4.030 -0.3328  0.1506  0.3087
 9436SOL    HW128708   5.447   4.050   4.124 -0.0930 -0.4223  0.3979
 9436SOL    HW228709   5.508   4.087   3.991  1.3426 -1.5482  0.7102
 9437SOL     OW28710   5.671   2.435   5.447  0.3238 -0.5631  0.4651
 9437SOL    HW128711   5.620   2.438   5.367  0.3065 -1.1967  0.4512
 9437SOL    HW228712   5.755   2.476   5.424 -0.5839  1.6298  0.8165
 9438SOL     OW28713   4.357   4.875   4.007 -0.1295 -0.0896 -0.3240
 9438SOL    HW128714   4.412   4.952   4.020 -0.6001  0.3799 -1.0592
 9438SOL    HW228715   4.274   4.909   3.973 -0.2087 -0.9389 -1.0296
 9439SOL     OW28716   5.167   2.219   1.128 -0.2230  0.1026  0.4366
 9439SOL    HW128717   5.110   2.218   1.205 -0.4678  0.8966  0.2767
 9439SOL    HW228718   5.252   2.247   1.161 -0.4962  1.1023  0.3220
 9440SOL     OW28719   1.729   3.881   1.563  0.0978  0.0912 -0.5297
 9440SOL    HW128720   1.702   3.944   1.497 -1.8871 -2.0643 -1.9681
 9440SOL    HW228721   1.656   3.879   1.626 -0.9464 -2.2166 -1.7017
 9441SOL     OW28722   3.276   1.788   5.463  0.3064 -0.5560  0.6310
 9441SOL    HW128723   3.272   1.851   5.535  3.3486 -0.9255  1.2558
 9441SOL    HW228724   3.261   1.840   5.384 -0.5349  0.3027  1.3338
 9442SOL     OW28725   0.685   4.707   3.277 -0.6878 -0.0710  0.6949
 9442SOL    HW128726   0.648   4.745   3.357 -0.2496  0.7800  0.5056
 9442SOL    HW228727   0.780   4.710   3.292 -0.6055  0.1150  0.1322
 9443SOL     OW28728   1.630   2.157   3.891 -0.2056  0.4212  0.0106
 9443SOL    HW128729   1.721   2.124   3.894 -0.0566  0.7740 -0.5072
 9443SOL    HW228730   1.602   2.141   3.801 -0.4139  0.9704 -0.0258
 9444SOL     OW28731   4.014   0.063   5.734 -0.3266  0.3425 -0.6837
 9444SOL    HW128732   3.952   0.124   5.695  0.1403 -0.1097 -2.1943
 9444SOL    HW228733   3.963  -0.016   5.751  0.0538 -0.5406 -3.2347
 9445SOL     OW28734   4.554   3.262   4.036  0.4356  0.0871 -0.1356
 9445SOL    HW128735   4.595   3.186   4.076  1.5186  0.0763 -1.2198
 9445SOL    HW228736   4.480   3.226   3.987  0.7655 -0.2360 -0.4011
 9446SOL     OW28737   5.006   3.416   5.839  0.2819  0.5434  0.3070
 9446SOL    HW128738   4.977   3.502   5.809  0.5152  0.1384 -1.1471
 9446SOL    HW228739   4.927   3.376   5.875 -0.2968  0.6014 -0.8538
 9447SOL     OW28740   1.016   0.312   5.138  0.1718  0.2283 -0.8726
 9447SOL    HW128741   0.965   0.383   5.100 -0.0684  0.2264 -0.5643
 9447SOL    HW228742   1.055   0.350   5.217  0.1195  0.0441 -0.7583
 9448SOL     OW28743   5.865   2.607   3.041 -0.8109  0.1535  0.3403
 9448SOL    HW128744   5.823   2.693   3.040 -0.8701  0.1880 -2.8001
 9448SOL    HW228745   5.792   2.545   3.046 -0.8908  0.2604  0.5187
 9449SOL     OW28746   2.544   4.237   5.428 -0.1221  0.2139 -0.1219
 9449SOL    HW128747   2.634   4.268   5.441  0.0209 -0.4560  0.5472
 9449SOL    HW228748   2.553   4.141   5.423 -0.7393  0.1784 -0.5652
 9450SOL     OW28749   3.633   6.145   5.456 -0.1381  0.6817 -0.3108
 9450SOL    HW128750   3.558   6.152   5.398 -1.3491  1.0215  1.2139
 9450SOL    HW228751   3.613   6.205   5.529  0.1339 -1.4643  1.6540
 9451SOL     OW28752   0.154   2.936   5.979 -0.2263  0.3629 -0.6623
 9451SOL    HW128753   0.169   3.030   5.966  0.5751  0.3986  0.3971
 9451SOL    HW228754   0.190   2.895   5.900 -1.3755  0.9912 -1.5399
 9452SOL     OW28755   4.967   4.007   0.147  0.2136 -0.0030  0.2409
 9452SOL    HW128756   4.943   3.958   0.225 -2.4256  1.4124  0.4163
 9452SOL    HW228757   5.003   4.089   0.180 -1.4415  0.8429  0.0416
 9453SOL     OW28758   4.260   4.740   0.023 -0.3282  0.3004  0.3233
 9453SOL    HW128759   4.318   4.760  -0.051  0.5505  0.9979  1.1723
 9453SOL    HW228760   4.172   4.740  -0.015  0.1696 -0.3019 -0.9028
 9454SOL     OW28761   2.302   1.220   5.096  0.0057  0.0700  0.2251
 9454SOL    HW128762   2.383   1.201   5.050  0.0929  0.7826  0.0668
 9454SOL    HW228763   2.329   1.277   5.169 -0.1428 -0.9362  1.0914
 9455SOL     OW28764   4.107   1.918   4.752  0.1767  0.3596  0.1362
 9455SOL    HW128765   4.133   1.888   4.839 -1.9756 -2.1171  0.0648
 9455SOL    HW228766   4.057   1.998   4.769  1.5316  1.0593  0.9374
 9456SOL     OW28767   5.632   1.524   2.624  0.3083  0.4115 -0.2507
 9456SOL    HW128768   5.713   1.511   2.575 -0.5007 -0.8788 -1.3055
 9456SOL    HW228769   5.569   1.465   2.583 -1.7914  2.8878 -0.8756
 9457SOL     OW28770   0.163   6.609   5.164 -0.0614 -0.8522  0.4465
 9457SOL    HW128771   0.133   6.692   5.200 -1.2070 -1.4682  0.9516
 9457SOL    HW228772   0.204   6.564   5.238  0.0192 -0.9858  0.3215
 9458SOL     OW28773   2.939   1.182   5.553  0.1108 -0.1537 -0.6879
 9458SOL    HW128774   2.949   1.240   5.477  1.4246  0.9825  0.3077
 9458SOL    HW228775   2.888   1.108   5.520  0.4976  0.3921 -2.6216
 9459SOL     OW28776   0.070   1.137   0.260  0.4932  0.1122  0.6655
 9459SOL    HW128777   0.155   1.171   0.230  1.5026 -1.7049  1.3454
 9459SOL    HW228778   0.092   1.070   0.324 -1.3082 -2.5744 -1.3061
 9460SOL     OW28779   1.451   1.217   1.363 -0.1593 -0.0750  0.2083
 9460SOL    HW128780   1.525   1.266   1.327  0.5736 -1.0212  0.3657
 9460SOL    HW228781   1.421   1.270   1.438  0.5386  0.1902  0.3100
 9461SOL     OW28782   6.571   6.564   1.117  0.2298 -0.0696 -0.1263
 9461SOL    HW128783   6.504   6.515   1.166 -0.4556  1.1396  0.1706
 9461SOL    HW228784   6.537   6.653   1.112  2.9194  1.2689  2.2500
 9462SOL     OW28785   0.313   6.430   0.142  0.2292 -0.1471 -0.1631
 9462SOL    HW128786   0.341   6.448   0.232 -1.1070 -1.4549  0.5615
 9462SOL    HW228787   0.253   6.501   0.121  1.0743  0.5438 -0.2985
 9463SOL     OW28788   5.157   1.405   6.154  0.0843  0.5186 -0.0909
 9463SOL    HW128789   5.231   1.345   6.153  0.1820  0.6313  0.3542
 9463SOL    HW228790   5.189   1.483   6.200 -1.3065 -0.7398  3.2776
 9464SOL     OW28791   6.588   2.410   5.298 -0.0257  0.2470 -0.0850
 9464SOL    HW128792   6.626   2.322   5.309 -0.9556 -0.0927  0.5642
 9464SOL    HW228793   6.570   2.439   5.388 -1.2602  0.3907 -0.3608
 9465SOL     OW28794   5.808   3.280   4.419 -0.6194  0.1021  0.2631
 9465SOL    HW128795   5.751   3.204   4.415 -1.7336  0.8787  0.7714
 9465SOL    HW228796   5.822   3.294   4.512  0.1657  0.0985  0.1493
 9466SOL     OW28797   4.519   6.234   4.941 -0.2236  0.3230  0.2903
 9466SOL    HW128798   4.539   6.305   5.001  0.9468 -0.8140  1.3052
 9466SOL    HW228799   4.460   6.177   4.990  0.8684 -0.7014  0.4643
 9467SOL     OW28800   0.440   3.615   3.946 -0.6223  0.3235 -0.3152
 9467SOL    HW128801   0.392   3.642   3.867 -1.6692  0.0940  0.2302
 9467SOL    HW228802   0.442   3.694   4.000 -1.2988  0.0664  0.1009
 9468SOL     OW28803   6.033   1.136   5.194 -0.2380 -0.0206  0.0242
 9468SOL    HW128804   5.990   1.055   5.167 -1.6185  1.0059 -1.0723
 9468SOL    HW228805   5.961   1.194   5.218  0.6862  1.0577  0.2784
 9469SOL     OW28806   0.718   4.629   4.106 -0.1226  0.1159  0.5409
 9469SOL    HW128807   0.625   4.610   4.096  0.1067 -2.1858  1.9797
 9469SOL    HW228808   0.737   4.607   4.197  2.0797 -0.8414 -0.0799
 9470SOL     OW28809   4.734   4.773   0.478 -0.2458  0.0804  0.6292
 9470SOL    HW128810   4.668   4.708   0.454  0.5761 -0.3442 -0.5152
 9470SOL    HW228811   4.806   4.722   0.515  0.3480  0.3285 -0.1525
 9471SOL     OW28812   1.602   1.558   1.536 -0.4477  0.2341 -0.0832
 9471SOL    HW128813   1.686   1.595   1.511  0.2097 -0.1147  1.4627
 9471SOL    HW228814   1.611   1.464   1.519 -0.8042  0.3026 -0.6449
 9472SOL     OW28815   2.437   6.676   3.283 -0.4854 -0.0909 -0.6140
 9472SOL    HW128816   2.485   6.743   3.333  0.5674 -0.9303 -0.4464
 9472SOL    HW228817   2.481   6.674   3.198  0.7468 -1.8196 -0.0051
 9473SOL     OW28818   2.845   5.095   2.675  0.0964 -0.4238  1.0719
 9473SOL    HW128819   2.854   5.171   2.618  2.3323 -1.1378  0.3398
 9473SOL    HW228820   2.819   5.131   2.760  1.4571  1.2047  0.8455
 9474SOL     OW28821   4.070   2.778   4.598 -0.1872 -0.1194 -0.5464
 9474SOL    HW128822   4.081   2.787   4.692 -0.3924 -1.7868 -0.3324
 9474SOL    HW228823   4.127   2.845   4.560  2.3217 -1.4096  0.7150
 9475SOL     OW28824   3.750   1.895   3.972 -0.3325  0.7531  0.1272
 9475SOL    HW128825   3.678   1.861   4.026 -1.6733  2.3834 -0.5540
 9475SOL    HW228826   3.824   1.900   4.032 -0.6691 -1.2172  0.7846
 9476SOL     OW28827   4.304   2.826   1.064  0.0889  0.7767 -0.5063
 9476SOL    HW128828   4.332   2.805   1.153 -0.4270  0.2531 -0.4652
 9476SOL    HW228829   4.366   2.779   1.008  0.0391  0.6091 -0.4219
 9477SOL     OW28830   4.922   3.022   0.871 -0.2716  0.2505 -0.2231
 9477SOL    HW128831   4.965   3.064   0.945  1.1203  0.9011 -1.3360
 9477SOL    HW228832   4.855   3.084   0.843 -0.6743  0.0861  0.3676
 9478SOL     OW28833   5.389   4.143   3.038  0.3007  0.1665 -0.5512
 9478SOL    HW128834   5.368   4.050   3.050  0.8882  0.0872 -0.0680
 9478SOL    HW228835   5.477   4.143   3.001  0.2476  0.5301 -0.6807
 9479SOL     OW28836   0.864   4.129   4.976  0.1738  0.2265  0.4070
 9479SOL    HW128837   0.867   4.123   5.072  0.2780  0.0810  0.3951
 9479SOL    HW228838   0.947   4.091   4.948 -0.3606 -0.8417  0.2030
 9480SOL     OW28839   6.615   2.700   0.437  0.4063  0.2841  0.2838
 9480SOL    HW128840   6.598   2.794   0.437 -1.4118  0.0090  1.8979
 9480SOL    HW228841   6.598   2.673   0.347  0.8650  1.4530 -0.1872
 9481SOL     OW28842   0.619   0.141   0.326  0.5710  0.3411 -0.3322
 9481SOL    HW128843   0.706   0.141   0.286  0.3017 -1.9169 -1.0654
 9481SOL    HW228844   0.558   0.148   0.253  0.1115  0.8038  0.0851
 9482SOL     OW28845   0.308   5.451   2.702  0.0005 -0.1784 -0.0426
 9482SOL    HW128846   0.266   5.528   2.741  0.2182  0.8284 -1.7016
 9482SOL    HW228847   0.399   5.476   2.692  0.5918 -1.5290  1.4660
 9483SOL     OW28848   3.679   3.331   0.812 -0.5064  0.4533  0.0407
 9483SOL    HW128849   3.647   3.246   0.841  3.1092 -1.1174 -0.0151
 9483SOL    HW228850   3.742   3.357   0.879 -2.2729  3.7052  0.6164
 9484SOL     OW28851   2.116   3.991   1.587 -0.3636 -0.2285  0.0176
 9484SOL    HW128852   2.149   4.081   1.595 -1.7242  0.4468 -1.2226
 9484SOL    HW228853   2.094   3.965   1.676  1.0208  0.2611  0.5262
 9485SOL     OW28854   0.316   5.348   1.684  0.3008 -0.6712  0.0566
 9485SOL    HW128855   0.379   5.376   1.618 -1.1421  0.4752 -0.8706
 9485SOL    HW228856   0.245   5.307   1.635 -1.5337  1.5568  0.6828
 9486SOL     OW28857   2.914   1.899   3.184  0.3070 -0.0362 -0.6343
 9486SOL    HW128858   2.914   1.910   3.088 -1.1406  1.0429 -0.5481
 9486SOL    HW228859   2.864   1.818   3.198 -0.0535  0.1560 -0.7784
 9487SOL     OW28860   3.078   6.506   1.161 -0.1496  0.0981  0.4705
 9487SOL    HW128861   3.037   6.535   1.242 -4.2345 -2.1272 -0.5228
 9487SOL    HW228862   3.018   6.440   1.126  2.5599 -0.7236 -3.2470
 9488SOL     OW28863   2.743   5.232   4.063  0.3031 -0.1060 -0.4466
 9488SOL    HW128864   2.705   5.149   4.035 -0.5838  0.2809 -0.4165
 9488SOL    HW228865   2.762   5.278   3.982  2.1604 -0.9110 -0.5149
 9489SOL     OW28866   5.687   6.544   5.220 -0.2231 -0.5993  0.7258
 9489SOL    HW128867   5.713   6.529   5.129 -0.1624 -1.0219  0.8114
 9489SOL    HW228868   5.592   6.530   5.220 -0.2086 -0.7011  0.7467
 9490SOL     OW28869   6.611   5.900   2.749 -0.2853  0.9326 -0.2901
 9490SOL    HW128870   6.561   5.958   2.806  0.0699  0.8511  0.1060
 9490SOL    HW228871   6.675   5.859   2.806  0.9981  1.8933 -0.9881
 9491SOL     OW28872   5.967   2.125   4.825  0.2836  0.4801  0.2603
 9491SOL    HW128873   5.951   2.056   4.761  0.3476  2.2994 -1.8288
 9491SOL    HW228874   5.891   2.122   4.883  0.5692 -1.6709  0.6047
 9492SOL     OW28875   0.439   5.329   5.332 -0.4385  0.4780  0.1239
 9492SOL    HW128876   0.467   5.356   5.420 -2.7549 -0.2072  1.1565
 9492SOL    HW228877   0.478   5.242   5.321 -2.2311 -0.5930  1.6520
 9493SOL     OW28878   5.511   5.452   4.078 -0.1384  0.0031  0.1204
 9493SOL    HW128879   5.442   5.477   4.139 -3.5927  0.8915 -3.6656
 9493SOL    HW228880   5.560   5.532   4.061 -0.1030  0.0857  0.6218
 9494SOL     OW28881   2.159   6.274   4.337 -0.9066  0.0715  0.3302
 9494SOL    HW128882   2.147   6.368   4.324 -2.7809 -0.0015  1.2139
 9494SOL    HW228883   2.233   6.268   4.398 -1.3443  1.0404  0.9880
 9495SOL     OW28884   6.695   0.056   6.445 -0.3813  0.0407 -0.2996
 9495SOL    HW128885   6.744   0.127   6.488  1.0730 -1.1818  0.1334
 9495SOL    HW228886   6.681   0.087   6.356  1.7622  0.1944 -0.6369
 9496SOL     OW28887   4.935   3.287   6.671 -0.0096 -0.2445 -0.5554
 9496SOL    HW128888   4.952   3.379   6.691 -1.6022 -0.0192 -0.1790
 9496SOL    HW228889   5.022   3.251   6.655  0.8687  0.8404  1.3523
 9497SOL     OW28890   4.822   6.428   0.193  0.5652 -0.3305 -0.2495
 9497SOL    HW128891   4.897   6.438   0.252  0.1415 -0.5381  0.3240
 9497SOL    HW228892   4.748   6.411   0.250  0.2626 -1.1891 -0.8701
 9498SOL     OW28893   6.089   0.065   0.566 -0.6367  0.0048 -0.1255
 9498SOL    HW128894   6.031   0.083   0.640 -0.4747  1.0086 -0.2367
 9498SOL    HW228895   6.060   0.124   0.497 -0.2941 -0.3870 -0.6172
 9499SOL     OW28896   5.882   1.857   6.320 -0.0228 -0.0230 -0.0763
 9499SOL    HW128897   5.914   1.942   6.349  0.0411 -0.3416  0.7975
 9499SOL    HW228898   5.955   1.820   6.270 -0.5332  0.9986 -1.6631
 9500SOL     OW28899   5.794   2.897   4.105 -0.6882 -0.1178  0.4633
 9500SOL    HW128900   5.790   2.860   4.193  2.3228 -0.4348  0.5587
 9500SOL    HW228901   5.816   2.989   4.118  0.6098 -0.3543  0.0685
 9501SOL     OW28902   1.308   1.934   4.946  0.5855  0.3694  0.2666
 9501SOL    HW128903   1.243   1.943   5.015  0.1590  1.2922 -0.2459
 9501SOL    HW228904   1.311   1.840   4.929 -0.5018  0.3001  0.4012
 9502SOL     OW28905   3.607   6.255   1.277 -0.3010 -0.0121  0.3911
 9502SOL    HW128906   3.660   6.320   1.232  0.8364 -1.2230 -0.0865
 9502SOL    HW228907   3.670   6.197   1.319 -1.3066 -0.1434  1.8022
 9503SOL     OW28908   2.338   2.718   0.792  0.1979  0.5636  0.2159
 9503SOL    HW128909   2.283   2.779   0.743 -1.8680 -1.8766 -0.7035
 9503SOL    HW228910   2.410   2.698   0.732  0.0178  0.8721 -0.1079
 9504SOL     OW28911   5.991   3.786   4.325  0.1703  0.4384 -0.0202
 9504SOL    HW128912   5.978   3.726   4.399 -1.3205  0.7571  0.0117
 9504SOL    HW228913   6.009   3.729   4.250 -1.4966 -0.1053 -0.0446
 9505SOL     OW28914   2.965   5.211   3.260  0.4802  0.1704  0.1029
 9505SOL    HW128915   2.977   5.264   3.339  0.1293  0.3792  0.0199
 9505SOL    HW228916   3.045   5.226   3.209  0.4406  0.5156  0.1401
 9506SOL     OW28917   0.657   0.437   5.337  0.0855 -0.2243  0.0870
 9506SOL    HW128918   0.708   0.463   5.259 -1.0539 -2.8494 -1.6718
 9506SOL    HW228919   0.593   0.374   5.304 -1.6914 -0.0588  2.9038
 9507SOL     OW28920   5.680   5.314   1.274  0.6196 -0.0080  0.0550
 9507SOL    HW128921   5.616   5.259   1.229  2.4001 -1.2168 -1.1323
 9507SOL    HW228922   5.689   5.274   1.361 -0.1713  0.1386  0.2084
 9508SOL     OW28923   5.791   6.497   6.775  0.1942 -0.6645  0.6503
 9508SOL    HW128924   5.817   6.568   6.716 -0.5812 -1.2940 -0.4817
 9508SOL    HW228925   5.717   6.533   6.824  1.4171  0.1884  1.9688
 9509SOL     OW28926   1.327   0.891   5.896  0.2132  0.0122 -0.1676
 9509SOL    HW128927   1.299   0.844   5.975  0.9316 -3.9247 -2.0011
 9509SOL    HW228928   1.415   0.921   5.915  0.0018  0.0320  0.8372
 9510SOL     OW28929   3.760   2.318   6.626  0.0254  0.3572  0.0296
 9510SOL    HW128930   3.754   2.254   6.697 -1.6663  0.8508  0.3589
 9510SOL    HW228931   3.711   2.279   6.554 -2.1565  1.7737  0.6563
 9511SOL     OW28932   0.757   2.673   4.426 -0.1586  0.0761  0.0437
 9511SOL    HW128933   0.748   2.606   4.494 -1.2845  2.5341  2.5597
 9511SOL    HW228934   0.843   2.711   4.442 -0.8136  1.3078  0.8355
 9512SOL     OW28935   6.258   2.638   1.198  0.2398 -0.4084 -0.3164
 9512SOL    HW128936   6.300   2.580   1.134  0.9404 -0.7524  0.4399
 9512SOL    HW228937   6.327   2.698   1.226 -0.6269  1.2586 -1.5720
 9513SOL     OW28938   3.087   1.387   0.706 -0.2941 -0.1810  0.0502
 9513SOL    HW128939   3.043   1.320   0.653 -0.6868  1.4134 -1.7470
 9513SOL    HW228940   3.028   1.401   0.780 -2.0396  0.6792 -1.4264
 9514SOL     OW28941   1.851   0.259   5.833  0.0290 -0.0780 -0.5321
 9514SOL    HW128942   1.838   0.299   5.919 -0.3634  2.0210 -1.4979
 9514SOL    HW228943   1.908   0.184   5.850 -0.6122 -0.1419  1.6392
 9515SOL     OW28944   1.706   5.445   2.061  0.2321  0.1767  0.5970
 9515SOL    HW128945   1.775   5.506   2.085 -0.2894  0.6830  0.8637
 9515SOL    HW228946   1.723   5.367   2.114  0.0550  0.6633  1.3923
 9516SOL     OW28947   6.135   6.200   5.418  0.4062 -0.1202  0.8115
 9516SOL    HW128948   6.110   6.184   5.509 -0.3203 -3.2342  0.1768
 9516SOL    HW228949   6.073   6.149   5.367  0.9180  1.3878 -1.4837
 9517SOL     OW28950   1.380   6.708   1.728 -0.0725 -0.1012 -0.2044
 9517SOL    HW128951   1.470   6.680   1.709 -0.0113 -0.0865  0.0569
 9517SOL    HW228952   1.363   6.677   1.817  0.4649  1.7560  0.6039
 9518SOL     OW28953   4.868   0.438   3.493  0.6818  0.5819 -0.6484
 9518SOL    HW128954   4.788   0.395   3.522  1.2501  0.4329  0.8351
 9518SOL    HW228955   4.877   0.414   3.401 -0.6072  0.0466 -0.6547
 9519SOL     OW28956   2.771   4.572   5.417 -0.4895 -0.3324 -0.5690
 9519SOL    HW128957   2.742   4.645   5.472  2.3330  1.2652 -1.0127
 9519SOL    HW228958   2.762   4.495   5.473  0.2977  0.9514  1.4355
 9520SOL     OW28959   5.304   3.889   3.115  0.0614 -0.6302  0.1231
 9520SOL    HW128960   5.393   3.862   3.092  0.0327  0.7418 -1.8734
 9520SOL    HW228961   5.272   3.820   3.172  1.6082 -2.3235 -0.9369
 9521SOL     OW28962   1.302   2.395   4.914 -0.2121 -0.1881 -0.0115
 9521SOL    HW128963   1.212   2.370   4.892 -0.4861 -0.8501  1.7086
 9521SOL    HW228964   1.348   2.311   4.924 -0.4205 -0.0558  2.9635
 9522SOL     OW28965   4.367   0.981   4.985 -0.1987  0.1416  0.1513
 9522SOL    HW128966   4.276   0.995   4.962 -0.0367 -0.1763 -0.7058
 9522SOL    HW228967   4.384   0.889   4.963  0.0074 -0.1392  1.4021
 9523SOL     OW28968   4.592   5.597   5.353  0.4551  0.7695 -0.3678
 9523SOL    HW128969   4.681   5.600   5.317  0.5548 -1.0426 -0.3862
 9523SOL    HW228970   4.553   5.520   5.312 -0.9160  1.1861  0.1160
 9524SOL     OW28971   2.896   5.032   1.630  0.3546 -0.2949 -0.6988
 9524SOL    HW128972   2.932   5.081   1.705 -0.9520  1.2372 -1.0198
 9524SOL    HW228973   2.879   4.944   1.664 -1.2628  0.6667  1.1714
 9525SOL     OW28974   2.189   4.966   2.908 -0.0104  0.2301  0.5195
 9525SOL    HW128975   2.221   4.893   2.855  2.2771  0.2734  1.7379
 9525SOL    HW228976   2.215   5.044   2.859 -2.0493  0.3104 -0.5500
 9526SOL     OW28977   5.172   6.343   0.263 -0.2496 -0.0523  0.1435
 9526SOL    HW128978   5.116   6.309   0.333  0.0738  1.3075  1.1016
 9526SOL    HW228979   5.251   6.289   0.267 -0.6735 -0.6737  0.1281
 9527SOL     OW28980   0.503   4.397   0.813 -0.1842  0.6929 -0.3608
 9527SOL    HW128981   0.565   4.337   0.853  2.5430  2.4369 -1.6012
 9527SOL    HW228982   0.499   4.370   0.721 -1.0141  0.7779 -0.3518
 9528SOL     OW28983   1.032   4.064   0.901  0.3308 -0.3447 -0.7320
 9528SOL    HW128984   1.015   4.141   0.846 -1.2452 -1.0988 -1.3879
 9528SOL    HW228985   1.012   3.990   0.844  0.3107 -1.1955  0.3534
 9529SOL     OW28986   3.411   3.054   5.989  0.3342  0.2133 -0.2510
 9529SOL    HW128987   3.395   3.063   5.895 -1.8831  2.8516  0.2738
 9529SOL    HW228988   3.326   3.036   6.027  1.1743 -0.6918  1.3015
 9530SOL     OW28989   4.498   4.687   0.948 -0.1571  0.2602  0.0409
 9530SOL    HW128990   4.472   4.597   0.964 -0.0870  0.2650  0.1781
 9530SOL    HW228991   4.589   4.692   0.976 -0.2476  0.4484  0.3125
 9531SOL     OW28992   1.347   2.112   6.632 -0.0631  0.0709 -0.2834
 9531SOL    HW128993   1.296   2.057   6.572  0.0943 -0.5827  0.1610
 9531SOL    HW228994   1.359   2.056   6.709 -1.0163  1.1911  0.7190
 9532SOL     OW28995   3.726   3.955   0.563 -0.3189  0.2183 -0.0782
 9532SOL    HW128996   3.669   3.879   0.571 -3.6576  2.4906 -0.2453
 9532SOL    HW228997   3.680   4.025   0.609  2.7296  2.1245  0.3511
 9533SOL     OW28998   0.918   0.685   6.768  0.1292  0.0547 -0.2730
 9533SOL    HW128999   0.996   0.740   6.764 -0.0057  0.4239  1.3863
 9533SOL    HW229000   0.845   0.744   6.750  0.1853 -0.1869 -1.3254
 9534SOL     OW29001   4.157   3.282   6.766  0.1999  0.4582 -0.1019
 9534SOL    HW129002   4.168   3.333   6.685 -0.2509 -0.1210 -0.5336
 9534SOL    HW229003   4.217   3.324   6.828 -0.8519  2.1383 -0.1489
 9535SOL     OW29004   1.504   0.335   0.866  0.4311  0.0477 -0.2901
 9535SOL    HW129005   1.472   0.418   0.830  0.3376  0.1668  0.0628
 9535SOL    HW229006   1.535   0.358   0.954 -1.4866 -0.6475  0.6371
 9536SOL     OW29007   2.827   2.700   1.727 -0.2592 -0.0843  0.1509
 9536SOL    HW129008   2.922   2.686   1.726 -0.2760 -0.5937 -2.3863
 9536SOL    HW229009   2.791   2.625   1.679 -1.6915  1.3177 -1.1037
 9537SOL     OW29010   4.160   0.060   4.817  0.3268  0.0834 -0.1244
 9537SOL    HW129011   4.155   0.120   4.892 -0.4662  0.4953 -0.4964
 9537SOL    HW229012   4.237   0.006   4.836  1.7071  1.8724 -0.2432
 9538SOL     OW29013   3.817   3.883   1.183  0.3908  0.0894 -0.6005
 9538SOL    HW129014   3.802   3.878   1.278  2.1402  0.3749 -0.2721
 9538SOL    HW229015   3.815   3.793   1.153 -0.3463  0.0110 -0.3193
 9539SOL     OW29016   0.071   3.640   4.797  0.0639 -0.3170  0.1552
 9539SOL    HW129017   0.032   3.711   4.847  1.5077  0.9379 -0.4423
 9539SOL    HW229018   0.163   3.665   4.787  0.3350 -1.6848 -1.0931
 9540SOL     OW29019   1.296   0.345   0.523  0.1996 -0.2597  0.4817
 9540SOL    HW129020   1.265   0.436   0.524  0.3355 -0.1604  3.1123
 9540SOL    HW229021   1.218   0.292   0.534 -0.2127 -0.7398 -3.3731
 9541SOL     OW29022   1.564   6.377   4.958 -0.3381  0.7503 -0.2442
 9541SOL    HW129023   1.563   6.323   5.037 -0.3181 -0.8436 -1.2710
 9541SOL    HW229024   1.517   6.457   4.983  0.5595  0.7495  1.6403
 9542SOL     OW29025   2.780   3.026   2.473 -0.3413  0.3885  0.1604
 9542SOL    HW129026   2.693   3.050   2.440 -0.1327  0.0757 -0.6442
 9542SOL    HW229027   2.840   3.080   2.422  0.0396 -0.7245 -0.5976
 9543SOL     OW29028   3.415   0.413   4.252  0.1376  0.1439 -0.3293
 9543SOL    HW129029   3.463   0.483   4.297 -0.8915 -0.0173  1.0523
 9543SOL    HW229030   3.363   0.459   4.186  0.2668  0.5811 -0.1296
 9544SOL     OW29031   1.779   5.426   3.889  0.1679 -1.0917 -0.6917
 9544SOL    HW129032   1.860   5.411   3.937 -0.4132 -1.2589  0.2556
 9544SOL    HW229033   1.802   5.492   3.823  0.4643  0.8509  1.2605
 9545SOL     OW29034   3.287   2.860   2.517 -0.0852 -0.0510  0.5045
 9545SOL    HW129035   3.369   2.857   2.469 -0.6726 -2.1708 -0.4645
 9545SOL    HW229036   3.309   2.830   2.605 -0.0977 -2.6064 -0.2945
 9546SOL     OW29037   0.207   3.995   4.292  0.5831  0.0333  0.0207
 9546SOL    HW129038   0.248   3.931   4.350 -0.4228  0.3198  1.0806
 9546SOL    HW229039   0.134   4.030   4.342  0.6719  1.4972 -0.7961
 9547SOL     OW29040   5.057   1.777   3.339  0.4077 -0.9916  0.3467
 9547SOL    HW129041   4.962   1.777   3.324  0.4163 -0.0350  0.2354
 9547SOL    HW229042   5.094   1.758   3.253  0.3401 -0.3469  0.1733
 9548SOL     OW29043   0.901   4.465   5.366  0.1356 -0.1584 -0.9817
 9548SOL    HW129044   0.849   4.386   5.374 -0.2722  0.2138  0.4576
 9548SOL    HW229045   0.900   4.503   5.454 -1.4064  2.5214 -2.0294
 9549SOL     OW29046   4.300   2.009   2.959  0.4337  0.5294  0.7536
 9549SOL    HW129047   4.302   1.959   2.877 -0.9854  0.9295  0.4427
 9549SOL    HW229048   4.326   2.097   2.934  4.2162 -0.2256  1.5249
 9550SOL     OW29049   4.298   6.070   4.995  0.1414  0.3330 -0.3059
 9550SOL    HW129050   4.289   6.161   5.022 -0.7476 -0.3780  1.9441
 9550SOL    HW229051   4.231   6.058   4.927 -0.1618  1.1851 -0.1646
 9551SOL     OW29052   3.444   0.085   6.309 -0.3594 -0.1607  0.0975
 9551SOL    HW129053   3.364   0.112   6.263 -2.0282 -1.8780  1.8150
 9551SOL    HW229054   3.449  -0.010   6.295  0.8260 -0.2269  0.8546
 9552SOL     OW29055   0.366   4.957   1.980  0.2562 -0.3009  0.6575
 9552SOL    HW129056   0.368   5.053   1.978  1.2246 -0.2410  2.5098
 9552SOL    HW229057   0.335   4.932   1.893  1.8468  1.6288 -0.5426
 9553SOL     OW29058   2.507   2.887   4.377  0.2683  0.4815  0.0958
 9553SOL    HW129059   2.465   2.844   4.303 -1.2261  0.0872  1.1220
 9553SOL    HW229060   2.470   2.844   4.454  1.6670  0.9738  1.0838
 9554SOL     OW29061   3.310   5.593   5.681  0.0556  0.1723  0.3037
 9554SOL    HW129062   3.281   5.666   5.736  0.3606  0.0033  0.6958
 9554SOL    HW229063   3.263   5.605   5.599  1.8380  2.2030 -0.5263
 9555SOL     OW29064   5.307   1.168   1.387 -0.2633  0.2838 -0.0844
 9555SOL    HW129065   5.309   1.072   1.377  0.8959 -0.1919  3.3802
 9555SOL    HW229066   5.383   1.198   1.338  0.8164 -0.8899  0.7903
 9556SOL     OW29067   5.777   3.168   1.248  0.2896 -0.5425 -0.5158
 9556SOL    HW129068   5.782   3.165   1.152  0.9572 -1.9720 -0.4615
 9556SOL    HW229069   5.823   3.090   1.277  0.8820  0.3334  1.0200
 9557SOL     OW29070   1.434   0.373   3.020 -0.2421  0.0964  0.2875
 9557SOL    HW129071   1.366   0.361   2.954 -0.4957  1.2468  0.3144
 9557SOL    HW229072   1.516   0.359   2.973 -0.3466  2.3317 -0.6670
 9558SOL     OW29073   3.256   4.989   2.251  0.0547 -0.2690  0.7129
 9558SOL    HW129074   3.200   5.054   2.293  1.2508  0.4014  1.3024
 9558SOL    HW229075   3.208   4.964   2.172 -0.8393  0.6563  0.9412
 9559SOL     OW29076   5.344   1.902   0.604 -0.4380  0.2289  0.0442
 9559SOL    HW129077   5.330   1.950   0.522 -1.4313  0.5179  0.3781
 9559SOL    HW229078   5.324   1.811   0.582  3.0306 -0.4585 -1.0420
 9560SOL     OW29079   4.211   1.339   0.584  0.3805 -0.1225 -0.6135
 9560SOL    HW129080   4.222   1.244   0.580  1.1070 -0.0876  0.2727
 9560SOL    HW229081   4.116   1.351   0.593 -0.0445 -0.6201 -3.4568
 9561SOL     OW29082   2.643   2.784   5.004  0.1185 -0.2292 -0.3522
 9561SOL    HW129083   2.552   2.772   4.978 -0.1199  1.2953 -0.3571
 9561SOL    HW229084   2.644   2.868   5.051  1.3746 -0.6244  0.3885
 9562SOL     OW29085   1.881   3.812   0.462  0.1646 -0.2328  0.0798
 9562SOL    HW129086   1.906   3.879   0.525  0.1433  1.7602 -1.9079
 9562SOL    HW229087   1.786   3.816   0.459  0.1597 -0.3935 -0.0213
 9563SOL     OW29088   4.174   2.719   1.382  0.0850 -0.3458 -0.2834
 9563SOL    HW129089   4.254   2.687   1.339  0.1500 -0.3536 -0.1568
 9563SOL    HW229090   4.113   2.645   1.377  0.6533 -0.9565  1.1307
 9564SOL     OW29091   3.040   0.630   2.676 -0.0432 -0.0281  0.2205
 9564SOL    HW129092   2.960   0.636   2.729 -0.5338  0.4805 -0.5526
 9564SOL    HW229093   3.097   0.698   2.712 -0.3554  0.2848  0.1351
 9565SOL     OW29094   1.266   5.327   2.534  0.2214  0.5587  0.1632
 9565SOL    HW129095   1.173   5.344   2.516 -0.0470  0.5347  1.4044
 9565SOL    HW229096   1.282   5.371   2.618  1.3161  0.4943 -0.0030
 9566SOL     OW29097   0.745   6.177   6.231 -0.1319 -0.1838  0.1975
 9566SOL    HW129098   0.703   6.241   6.173 -1.2050 -0.6617  0.4116
 9566SOL    HW229099   0.836   6.207   6.238 -0.4795  1.0289 -0.1051
 9567SOL     OW29100   0.986   5.593   4.017  0.8299  0.4485 -0.2529
 9567SOL    HW129101   1.056   5.658   4.013 -0.3893  1.7558 -1.8822
 9567SOL    HW229102   0.961   5.581   3.925 -1.2281  0.1938  0.3080
 9568SOL     OW29103   5.834   3.610   6.558 -0.2907 -0.7979  0.1033
 9568SOL    HW129104   5.776   3.623   6.633 -0.3694 -1.4936  0.1742
 9568SOL    HW229105   5.907   3.559   6.594  0.2925 -0.0644 -0.0194
 9569SOL     OW29106   2.163   1.608   4.319  0.2470  0.1176 -0.2544
 9569SOL    HW129107   2.101   1.599   4.247  1.4727 -1.4591 -1.1798
 9569SOL    HW229108   2.178   1.702   4.326 -0.4145  0.3448 -1.5905
 9570SOL     OW29109   2.383   4.488   0.516  0.0733 -0.3087  0.0373
 9570SOL    HW129110   2.313   4.546   0.486 -0.6390 -0.9556  0.4011
 9570SOL    HW229111   2.407   4.436   0.439 -1.1327 -1.3502  0.3236
 9571SOL     OW29112   2.243   2.184   2.144 -0.8643  0.1951  0.3102
 9571SOL    HW129113   2.307   2.165   2.212  0.0318  1.5964 -0.0952
 9571SOL    HW229114   2.291   2.170   2.062 -2.4346 -3.3340 -0.2203
 9572SOL     OW29115   5.472   0.414   0.680  0.6889 -0.1845  0.0705
 9572SOL    HW129116   5.448   0.476   0.749 -2.9057 -2.2683  0.9499
 9572SOL    HW229117   5.442   0.455   0.599  0.3797  0.1830  0.3690
 9573SOL     OW29118   4.624   2.628   0.058  0.1913 -0.1693 -0.2079
 9573SOL    HW129119   4.652   2.650   0.147 -1.8218  0.4597  0.3306
 9573SOL    HW229120   4.541   2.580   0.070 -0.5702  0.6837 -1.7429
 9574SOL     OW29121   4.569   0.676   1.408 -0.2326  0.2747 -0.1931
 9574SOL    HW129122   4.538   0.585   1.414 -1.7794  0.8018  0.1136
 9574SOL    HW229123   4.528   0.721   1.481  1.2275  1.0607  0.1889
 9575SOL     OW29124   3.168   5.086   4.216  0.2800  0.0963 -0.1671
 9575SOL    HW129125   3.072   5.084   4.210  0.2853  1.4905 -1.5158
 9575SOL    HW229126   3.186   5.153   4.283  0.2676  1.8156 -1.7951
 9576SOL     OW29127   4.713   4.935   4.215 -0.3300  0.0986  0.8276
 9576SOL    HW129128   4.644   4.874   4.242  0.4598 -1.4547 -0.5033
 9576SOL    HW229129   4.677   4.980   4.139  0.0394 -0.6219  0.2104
 9577SOL     OW29130   3.720   0.548   5.992 -0.1728  0.2994  0.1835
 9577SOL    HW129131   3.809   0.582   5.987 -0.6523  1.7655  0.8467
 9577SOL    HW229132   3.682   0.567   5.906  0.2338 -0.6189 -0.2101
 9578SOL     OW29133   2.598   6.739   6.027 -0.2871  0.4737 -0.3445
 9578SOL    HW129134   2.623   6.828   6.000 -1.4283  1.3890  1.4342
 9578SOL    HW229135   2.565   6.749   6.116  1.2759 -2.0407  0.6414
 9579SOL     OW29136   3.384   4.998   0.465 -0.6976  0.0932 -0.3200
 9579SOL    HW129137   3.445   5.003   0.538  0.5082 -1.6400 -1.1433
 9579SOL    HW229138   3.409   4.919   0.418 -0.9694  1.4933 -3.0150
 9580SOL     OW29139   3.032   4.833   1.025 -0.3026  0.1526 -0.4087
 9580SOL    HW129140   3.128   4.829   1.020  0.0513  1.1245  3.0729
 9580SOL    HW229141   3.009   4.912   0.976  0.9508  1.2094  0.6365
 9581SOL     OW29142   2.112   3.618   2.569 -0.2649  0.4130  0.0926
 9581SOL    HW129143   2.123   3.567   2.489 -1.5546  1.2850 -0.6740
 9581SOL    HW229144   2.022   3.652   2.565 -0.5287  0.1125  2.1341
 9582SOL     OW29145   0.318   4.475   5.428 -0.4039  0.0287 -0.0017
 9582SOL    HW129146   0.402   4.508   5.396 -0.7112  0.0657 -0.7701
 9582SOL    HW229147   0.267   4.554   5.448 -0.4663  0.0049 -0.0702
 9583SOL     OW29148   3.276   4.345   1.305  0.6358 -0.4952 -0.0130
 9583SOL    HW129149   3.203   4.287   1.327 -0.9015  0.0883 -3.0642
 9583SOL    HW229150   3.291   4.332   1.212  0.1980  3.8688 -0.9279
 9584SOL     OW29151   1.248   2.746   1.261 -0.2123  0.7048 -0.0736
 9584SOL    HW129152   1.340   2.741   1.236  0.0214  3.4797 -0.1029
 9584SOL    HW229153   1.239   2.682   1.332  1.3323 -0.6676 -1.0477
 9585SOL     OW29154   1.328   5.074   2.839  0.0444  0.7737 -0.1405
 9585SOL    HW129155   1.395   5.132   2.801  1.1581  0.0018  0.6004
 9585SOL    HW229156   1.247   5.099   2.793  1.0862  0.7330 -2.1179
 9586SOL     OW29157   6.384   4.230   2.842 -0.1584 -0.6724  0.6364
 9586SOL    HW129158   6.292   4.256   2.832  0.2349  0.9989  1.0266
 9586SOL    HW229159   6.399   4.165   2.773 -1.4301 -0.4223  0.1021
 9587SOL     OW29160   4.031   1.146   0.110  0.1805  0.1910  0.0185
 9587SOL    HW129161   4.068   1.234   0.121 -0.5371  0.5111 -0.0854
 9587SOL    HW229162   4.073   1.113   0.030  0.0002  0.6813 -0.2845
 9588SOL     OW29163   5.785   1.722   4.375  0.6469  0.2194 -0.4827
 9588SOL    HW129164   5.723   1.790   4.403  2.3841  1.6330  0.1777
 9588SOL    HW229165   5.805   1.674   4.455  1.6887  0.9232 -0.2885
 9589SOL     OW29166   5.411   6.116   1.504  0.1350  0.1418  0.1088
 9589SOL    HW129167   5.325   6.139   1.470 -0.6945 -0.6600  1.5827
 9589SOL    HW229168   5.407   6.022   1.520  1.8229 -0.2192 -1.2348
 9590SOL     OW29169   4.404   0.141   0.909 -0.5847  0.1280  0.1895
 9590SOL    HW129170   4.491   0.102   0.902  0.0794  1.6914 -0.6866
 9590SOL    HW229171   4.420   0.235   0.909 -2.4037  0.5301 -2.5051
 9591SOL     OW29172   2.274   6.414   3.552  0.1658  0.3336 -0.1128
 9591SOL    HW129173   2.190   6.377   3.576 -0.4221  1.3651 -0.5012
 9591SOL    HW229174   2.302   6.463   3.630  1.4036 -1.6474  0.7507
 9592SOL     OW29175   4.827   2.746   0.272  0.4337 -0.3852  0.3080
 9592SOL    HW129176   4.890   2.692   0.224  1.1715 -0.3747  1.2266
 9592SOL    HW229177   4.876   2.825   0.296  0.2624 -0.6160  1.5029
 9593SOL     OW29178   3.254   1.093   6.126 -0.2803  0.5684 -0.1486
 9593SOL    HW129179   3.271   1.146   6.048  1.6475 -0.3085 -0.3864
 9593SOL    HW229180   3.195   1.025   6.096 -0.6965  1.0710 -0.4823
 9594SOL     OW29181   2.397   1.200   5.587  0.6368  0.6818 -0.1787
 9594SOL    HW129182   2.438   1.175   5.503  0.1581  2.5249 -1.0001
 9594SOL    HW229183   2.437   1.284   5.609 -0.1207  0.7938  0.8254
 9595SOL     OW29184   1.298   6.565   0.751  0.0065 -0.3138  0.1349
 9595SOL    HW129185   1.381   6.604   0.723 -0.8584  2.4401  1.1249
 9595SOL    HW229186   1.236   6.590   0.683 -0.6936  0.6189  1.0917
 9596SOL     OW29187   2.021   1.343   1.351  0.2324 -0.5136  0.3746
 9596SOL    HW129188   2.038   1.358   1.444  0.0633 -1.4132  0.5583
 9596SOL    HW229189   1.949   1.403   1.330  1.0607  0.5633  0.5199
 9597SOL     OW29190   6.348   0.501   3.102 -0.5131  0.4508 -0.2062
 9597SOL    HW129191   6.430   0.535   3.139  0.3689  0.0990 -1.7794
 9597SOL    HW229192   6.299   0.579   3.078 -0.6779  0.6663  0.7616
 9598SOL     OW29193   2.768   0.063   4.989 -0.4564 -0.3769 -0.2601
 9598SOL    HW129194   2.788   0.052   5.082  0.8394 -0.3490 -0.5237
 9598SOL    HW229195   2.772  -0.026   4.953  0.7995 -0.2034 -0.6070
 9599SOL     OW29196   0.930   5.125   1.115 -0.3831 -0.1996 -0.1795
 9599SOL    HW129197   0.984   5.116   1.194 -2.0249 -0.4642  0.9722
 9599SOL    HW229198   0.953   5.210   1.080 -0.9061  0.7645  1.6623
 9600SOL     OW29199   6.535   5.436   1.401 -0.4749 -0.0411  0.1181
 9600SOL    HW129200   6.603   5.388   1.449 -0.0284 -0.3563 -0.8069
 9600SOL    HW229201   6.582   5.484   1.334 -1.0005  1.1470  0.5664
 9601SOL     OW29202   5.095   3.973   2.777  0.4572 -0.1957  0.3761
 9601SOL    HW129203   5.180   4.000   2.742  0.5368 -0.8519  0.0395
 9601SOL    HW229204   5.052   4.054   2.801  1.5190  0.0913  1.3492
 9602SOL     OW29205   0.288   6.348   4.632 -0.5572 -0.4312  1.1662
 9602SOL    HW129206   0.264   6.328   4.541 -1.7836  0.6996  1.2107
 9602SOL    HW229207   0.316   6.264   4.668 -0.2528 -0.9451 -0.1924
 9603SOL     OW29208   6.172   6.607   6.008  0.1680  0.4747 -0.1877
 9603SOL    HW129209   6.193   6.697   5.983  2.3542  0.3021  0.7945
 9603SOL    HW229210   6.227   6.552   5.952 -1.8751 -0.3893 -1.5053
 9604SOL     OW29211   1.143   4.926   0.321 -0.3446 -0.5531 -0.5761
 9604SOL    HW129212   1.157   4.977   0.400 -0.0424  0.0488 -1.0110
 9604SOL    HW229213   1.225   4.879   0.307 -0.5222 -0.9406 -0.3377
 9605SOL     OW29214   6.149   0.633   5.425 -0.1072 -0.2192 -0.2736
 9605SOL    HW129215   6.197   0.554   5.399  2.9090  1.4115 -0.0092
 9605SOL    HW229216   6.195   0.665   5.502 -1.1074  1.9672 -0.5062
 9606SOL     OW29217   3.950   5.627   3.145  0.2896  0.0586 -0.3587
 9606SOL    HW129218   3.943   5.628   3.049  0.9909 -0.0924 -0.4140
 9606SOL    HW229219   3.981   5.539   3.166 -0.9990 -0.3168  0.1030
 9607SOL     OW29220   3.166   2.914   3.281  0.1482 -0.5173 -0.2784
 9607SOL    HW129221   3.226   2.947   3.348  0.5008  0.9355 -1.2598
 9607SOL    HW229222   3.142   2.827   3.312  1.7294 -0.6244  0.8038
 9608SOL     OW29223   0.591   4.777   3.035  1.2406  0.2779  0.6038
 9608SOL    HW129224   0.622   4.697   2.993  0.1261 -1.6837  3.2626
 9608SOL    HW229225   0.637   4.780   3.118  1.0420  2.2960  0.6916
 9609SOL     OW29226   4.042   6.501   3.546  0.2791 -0.5046  0.0885
 9609SOL    HW129227   4.077   6.576   3.595 -1.1347  1.5329 -1.8055
 9609SOL    HW229228   3.966   6.472   3.596  0.8264 -0.7079  0.8256
 9610SOL     OW29229   5.179   4.782   4.092  0.4215 -0.1392 -0.0628
 9610SOL    HW129230   5.111   4.849   4.100  2.3121  1.9910 -0.7600
 9610SOL    HW229231   5.261   4.830   4.100  1.9206 -2.2306 -1.6903
 9611SOL     OW29232   3.697   1.352   1.528  0.1308  0.7900  0.8967
 9611SOL    HW129233   3.755   1.338   1.603 -0.0167 -0.8713  0.7505
 9611SOL    HW229234   3.715   1.278   1.470  1.6711  3.0008 -1.6981
 9612SOL     OW29235   0.388   0.486   0.699 -0.9523  0.4763 -0.6961
 9612SOL    HW129236   0.308   0.530   0.726 -0.3927  1.0494  0.0834
 9612SOL    HW229237   0.427   0.544   0.633 -1.2577  0.1136 -1.2020
 9613SOL     OW29238   0.890   0.104   0.260 -0.3864  0.7732  0.0546
 9613SOL    HW129239   0.913   0.107   0.167 -1.9455 -0.6426 -0.4442
 9613SOL    HW229240   0.872   0.195   0.284 -2.5709  0.9096 -1.7919
 9614SOL     OW29241   2.210   1.388   1.871  0.1277 -0.7604 -0.0931
 9614SOL    HW129242   2.263   1.443   1.928  0.1283  0.5299 -1.2615
 9614SOL    HW229243   2.120   1.403   1.901  0.1736 -0.4890 -0.0828
 9615SOL     OW29244   4.801   0.430   2.715  0.7440 -0.4903  0.4749
 9615SOL    HW129245   4.852   0.432   2.634  2.1016 -0.0216  1.3013
 9615SOL    HW229246   4.796   0.337   2.738 -1.8907 -0.9052 -1.4552
 9616SOL     OW29247   5.232   4.479   6.213  0.1353  0.0087  0.3438
 9616SOL    HW129248   5.300   4.546   6.212  0.4862 -0.3353 -0.7258
 9616SOL    HW229249   5.176   4.502   6.287  1.4303  0.2798  1.2717
 9617SOL     OW29250   0.347   2.021   5.354 -0.2696  0.2335 -0.2406
 9617SOL    HW129251   0.323   1.937   5.394  0.5586  0.6777  1.2854
 9617SOL    HW229252   0.281   2.082   5.386  0.8237  0.7465  1.1481
 9618SOL     OW29253   5.669   1.987   1.292  0.5675 -0.3756  0.0442
 9618SOL    HW129254   5.580   1.955   1.275  0.6118 -0.6817  0.3750
 9618SOL    HW229255   5.706   2.002   1.205  0.7578 -1.8328 -0.1515
 9619SOL     OW29256   1.985   5.215   0.837 -0.0919 -0.0087  0.2711
 9619SOL    HW129257   1.925   5.260   0.777  0.2577 -0.3806 -0.3619
 9619SOL    HW229258   2.065   5.267   0.834  0.7545 -1.3288 -1.4279
 9620SOL     OW29259   3.052   0.507   3.917  0.3249 -0.1687 -0.3430
 9620SOL    HW129260   2.956   0.507   3.912  0.3587 -0.4077 -1.0122
 9620SOL    HW229261   3.079   0.431   3.866  0.9711  1.1328 -2.0098
 9621SOL     OW29262   0.918   6.756   6.255 -0.6107 -0.4636 -0.0628
 9621SOL    HW129263   1.006   6.722   6.272  0.8612  2.4384 -1.1720
 9621SOL    HW229264   0.899   6.811   6.331 -0.7116  0.2589 -0.6031
 9622SOL     OW29265   0.440   6.355   1.867  0.1261 -0.1450 -0.1249
 9622SOL    HW129266   0.522   6.322   1.832 -0.3248 -0.1022 -1.2465
 9622SOL    HW229267   0.424   6.436   1.819  0.8602  1.4224  2.0871
 9623SOL     OW29268   3.486   2.142   4.443 -0.4017 -0.0799 -0.0032
 9623SOL    HW129269   3.540   2.068   4.471 -1.0411 -0.4075  0.3973
 9623SOL    HW229270   3.463   2.186   4.525 -2.1705 -0.9589  0.0286
 9624SOL     OW29271   2.992   2.753   1.235  0.8312  0.1307  0.0575
 9624SOL    HW129272   2.999   2.842   1.201 -0.2332  0.2586  0.1418
 9624SOL    HW229273   2.942   2.705   1.169  1.2197 -0.3581  0.1100
 9625SOL     OW29274   1.617   3.439   2.763  0.1534  0.2536  0.0002
 9625SOL    HW129275   1.702   3.405   2.735  0.6598  1.6541 -0.2062
 9625SOL    HW229276   1.554   3.393   2.707  0.9800  1.2576 -1.8573
 9626SOL     OW29277   2.031   3.044   0.534 -0.5998 -0.0204  0.9649
 9626SOL    HW129278   1.952   3.081   0.575 -0.7775  2.1096 -1.0574
 9626SOL    HW229279   2.061   3.113   0.475 -1.2017 -3.2085 -3.5833
 9627SOL     OW29280   3.908   5.288   3.661 -0.0075  1.1494  0.0917
 9627SOL    HW129281   3.892   5.196   3.682  0.1038  1.0281 -0.3299
 9627SOL    HW229282   3.833   5.313   3.607 -0.2989  1.4577  0.6334
 9628SOL     OW29283   5.206   6.245   5.276  0.4870  0.2925  0.4300
 9628SOL    HW129284   5.133   6.266   5.218  0.0623 -0.0029  0.8571
 9628SOL    HW229285   5.196   6.305   5.350  1.4083  1.1285 -0.1008
 9629SOL     OW29286   3.554   1.495   2.697  0.0172  0.2336 -0.0142
 9629SOL    HW129287   3.637   1.446   2.699 -0.7045 -1.0212  0.0959
 9629SOL    HW229288   3.538   1.512   2.604  1.0348  1.6432  0.0351
 9630SOL     OW29289   1.496   5.276   0.782  0.1959 -0.4799 -0.0521
 9630SOL    HW129290   1.520   5.201   0.837  1.0303 -0.2072 -0.0434
 9630SOL    HW229291   1.463   5.236   0.701  1.0598 -0.8614 -0.2276
 9631SOL     OW29292   0.284   1.387   3.708 -0.0640 -0.4460  0.0787
 9631SOL    HW129293   0.357   1.407   3.767 -1.3583  1.4177  1.1697
 9631SOL    HW229294   0.248   1.305   3.741 -0.4403  0.2994  1.6120
 9632SOL     OW29295   6.281   4.557   2.110 -0.1161 -0.1120 -0.0706
 9632SOL    HW129296   6.306   4.586   2.022 -0.2722 -0.1353 -0.1220
 9632SOL    HW229297   6.360   4.571   2.163 -0.4043  1.1002  0.0744
 9633SOL     OW29298   3.632   2.007   1.870 -0.1733  0.3163 -0.3035
 9633SOL    HW129299   3.656   1.915   1.864  0.2479  0.3422  0.8070
 9633SOL    HW229300   3.625   2.036   1.779  3.1731  0.0670 -0.7581
 9634SOL     OW29301   4.487   6.431   2.729 -0.1274 -0.1937  0.0122
 9634SOL    HW129302   4.444   6.359   2.682  0.5510 -0.5879 -0.0232
 9634SOL    HW229303   4.533   6.388   2.801 -0.7223  0.3490  0.7374
 9635SOL     OW29304   0.248   2.886   4.742  0.1813 -0.0889  0.0289
 9635SOL    HW129305   0.186   2.885   4.669 -0.2377 -0.2332  0.3839
 9635SOL    HW229306   0.200   2.848   4.815  0.3909  0.6018  0.5416
 9636SOL     OW29307   3.315   3.423   1.288  0.2128  0.3027  0.1671
 9636SOL    HW129308   3.264   3.497   1.319 -0.6840 -0.2732  0.0899
 9636SOL    HW229309   3.301   3.421   1.193 -1.6285 -1.2949  0.4095
 9637SOL     OW29310   6.668   1.265   5.949 -0.1362  0.6275 -0.2558
 9637SOL    HW129311   6.719   1.318   5.888  0.1521  1.5838  0.7872
 9637SOL    HW229312   6.624   1.329   6.005 -1.9019 -0.1899 -0.6527
 9638SOL     OW29313   5.439   3.134   4.408  1.2616 -0.2790  0.1012
 9638SOL    HW129314   5.346   3.154   4.399  1.6940  2.0049  0.2255
 9638SOL    HW229315   5.447   3.091   4.494  0.3573 -0.4414  0.1114
 9639SOL     OW29316   4.791   4.358   2.142 -0.4282  0.2920 -0.2198
 9639SOL    HW129317   4.801   4.440   2.191 -0.6260  0.1578  0.0466
 9639SOL    HW229318   4.822   4.290   2.201 -0.1838  0.1811 -0.4735
 9640SOL     OW29319   6.227   5.989   5.600  0.4640 -0.3915  0.6126
 9640SOL    HW129320   6.241   5.979   5.694  0.7017 -0.8102  0.5361
 9640SOL    HW229321   6.283   6.064   5.576  0.2551 -0.1602  0.8343
 9641SOL     OW29322   4.327   3.083   1.673  0.6311 -0.1532 -0.8006
 9641SOL    HW129323   4.321   2.989   1.656 -1.7658 -0.5961  1.6382
 9641SOL    HW229324   4.409   3.094   1.721  0.7978 -1.0600 -0.8595
 9642SOL     OW29325   1.852   4.243   3.702 -0.4446 -0.5316 -0.4874
 9642SOL    HW129326   1.880   4.241   3.611 -0.8951 -2.1120 -0.6311
 9642SOL    HW229327   1.772   4.295   3.702  0.5209  1.0132 -0.6631
 9643SOL     OW29328   1.205   2.758   4.105  0.2674 -0.4357  0.8501
 9643SOL    HW129329   1.156   2.795   4.031  1.4893  0.4340  0.4464
 9643SOL    HW229330   1.161   2.675   4.124  0.9195 -1.5130 -1.9263
 9644SOL     OW29331   0.576   5.196   0.269 -0.0400 -0.9224 -0.3507
 9644SOL    HW129332   0.649   5.220   0.213 -0.4985 -1.1541 -1.0642
 9644SOL    HW229333   0.609   5.208   0.358  1.5379 -2.9344 -0.5980
 9645SOL     OW29334   4.448   3.553   5.178 -0.3991 -0.0965 -0.3266
 9645SOL    HW129335   4.510   3.486   5.150 -1.1462 -0.6466 -0.7159
 9645SOL    HW229336   4.373   3.542   5.120 -1.4341 -0.3590  0.9986
 9646SOL     OW29337   2.467   5.023   1.089 -0.0220 -0.1548  0.5378
 9646SOL    HW129338   2.397   5.078   1.055 -0.0094  0.0428  0.8324
 9646SOL    HW229339   2.424   4.941   1.113  0.2682 -1.0846 -1.8322
 9647SOL     OW29340   4.998   0.111   3.099  0.2696  0.1432 -1.1368
 9647SOL    HW129341   5.055   0.059   3.155  0.4101 -0.1777 -1.5728
 9647SOL    HW229342   4.967   0.050   3.033 -1.6064 -0.0119 -0.1752
 9648SOL     OW29343   3.015   6.533   3.471 -0.0228 -0.0601  0.3959
 9648SOL    HW129344   2.925   6.509   3.448  0.7303 -2.8959  0.1120
 9648SOL    HW229345   3.027   6.619   3.431 -1.4695 -1.1708 -2.7820
 9649SOL     OW29346   1.964   1.960   3.281 -0.5209  0.2448 -0.0046
 9649SOL    HW129347   1.974   1.875   3.325  0.6779 -0.3004 -1.2305
 9649SOL    HW229348   2.053   1.997   3.281 -0.9163  1.2204 -0.0394
 9650SOL     OW29349   2.256   2.486   1.206  0.1112  0.7328 -0.1777
 9650SOL    HW129350   2.274   2.484   1.112  0.4463  0.8423 -0.1165
 9650SOL    HW229351   2.254   2.393   1.231  0.6018  0.7147 -0.1863
 9651SOL     OW29352   5.602   3.681   3.315  0.1848 -0.3756 -0.0677
 9651SOL    HW129353   5.609   3.673   3.410 -0.5557 -0.5928 -0.0303
 9651SOL    HW229354   5.664   3.616   3.281  1.3987  0.5686  0.2493
 9652SOL     OW29355   0.092   4.959   6.465 -0.0746  0.4282  0.2347
 9652SOL    HW129356   0.128   4.898   6.400 -0.4720  0.2827  0.1467
 9652SOL    HW229357   0.005   4.924   6.484 -0.7442  1.5696 -0.6194
 9653SOL     OW29358   1.796   4.696   2.494  0.2689  0.2061 -0.3627
 9653SOL    HW129359   1.871   4.668   2.442 -0.3446  0.8740 -1.6359
 9653SOL    HW229360   1.824   4.779   2.533 -0.4878  1.5528 -2.5206
 9654SOL     OW29361   4.907   2.072   6.116 -0.1711  0.5144  0.0895
 9654SOL    HW129362   4.821   2.099   6.147  0.7193  1.2849  2.0971
 9654SOL    HW229363   4.969   2.122   6.170  1.5472  0.0778 -1.3633
 9655SOL     OW29364   3.062   3.259   4.293  0.1910 -1.0110  0.3561
 9655SOL    HW129365   3.080   3.221   4.379 -0.8877 -0.6520  0.7509
 9655SOL    HW229366   3.016   3.189   4.246  0.4201 -1.0634  0.2096
 9656SOL     OW29367   1.628   4.410   0.767  0.6238  0.8927 -0.2732
 9656SOL    HW129368   1.649   4.476   0.833 -1.6739  0.3040  1.1528
 9656SOL    HW229369   1.546   4.439   0.729 -1.0298 -1.5629  1.1262
 9657SOL     OW29370   5.055   0.335   5.008  0.0150  0.2823 -1.0744
 9657SOL    HW129371   5.104   0.417   5.017 -0.4332  0.5285 -0.8274
 9657SOL    HW229372   4.963   0.361   5.018 -0.0395 -0.5364  1.0801
 9658SOL     OW29373   3.579   4.242   3.091  0.1953  0.1381 -0.5085
 9658SOL    HW129374   3.594   4.331   3.060  0.9826  0.4947  0.8486
 9658SOL    HW229375   3.593   4.246   3.185 -1.6573 -1.0252 -0.1296
 9659SOL     OW29376   0.645   0.762   1.495  0.0818  0.4332 -0.2561
 9659SOL    HW129377   0.624   0.842   1.542 -0.6814 -0.5511  1.1510
 9659SOL    HW229378   0.734   0.739   1.524  0.1187  0.5245 -0.2981
 9660SOL     OW29379   1.124   2.517   6.719  0.0053  0.5514 -1.0952
 9660SOL    HW129380   1.159   2.483   6.802  0.5764  1.1850 -1.0671
 9660SOL    HW229381   1.061   2.451   6.691 -0.5890  0.5667  0.1173
 9661SOL     OW29382   4.439   3.981   2.055 -0.3067 -0.1680 -0.2770
 9661SOL    HW129383   4.443   3.993   2.150  0.2063 -0.5564 -0.2436
 9661SOL    HW229384   4.513   4.032   2.022 -0.5197  0.0143 -0.4742
 9662SOL     OW29385   5.466   0.921   0.530 -0.2764 -0.1297  0.2292
 9662SOL    HW129386   5.520   0.987   0.488 -1.0054 -0.3534 -1.1110
 9662SOL    HW229387   5.529   0.857   0.564  0.4400  1.3111  1.7233
 9663SOL     OW29388   1.888   1.480   5.001 -0.1191 -0.5197 -0.0771
 9663SOL    HW129389   1.903   1.516   5.088 -1.7747  0.0941  0.0010
 9663SOL    HW229390   1.810   1.424   5.011  0.0935 -1.0164 -1.0143
 9664SOL     OW29391   1.392   0.095   4.836  0.4077  0.4051 -0.2004
 9664SOL    HW129392   1.476   0.067   4.872  0.2546  0.6137  0.3262
 9664SOL    HW229393   1.411   0.119   4.746  1.0638  1.1309  0.1189
 9665SOL     OW29394   4.771   2.537   0.939  0.0914  0.1218 -0.1300
 9665SOL    HW129395   4.746   2.452   0.903  1.7273 -0.3807 -0.1500
 9665SOL    HW229396   4.830   2.516   1.011  0.4972  1.2458 -0.1234
 9666SOL     OW29397   4.761   2.015   1.489  0.0722 -0.2822  0.2270
 9666SOL    HW129398   4.687   1.969   1.448  0.1868  2.7961 -4.2122
 9666SOL    HW229399   4.835   1.955   1.478 -0.6701 -1.0733 -0.7207
 9667SOL     OW29400   1.630   2.734   6.506 -0.0748  0.1852  0.4612
 9667SOL    HW129401   1.632   2.828   6.524 -2.5301  0.3900 -0.0141
 9667SOL    HW229402   1.590   2.727   6.419  0.4237 -1.2963  0.3213
 9668SOL     OW29403   6.537   6.349   3.862 -0.1510  0.1436  0.0411
 9668SOL    HW129404   6.550   6.354   3.768  1.3168 -0.5210  0.1923
 9668SOL    HW229405   6.481   6.272   3.875  0.7498 -0.5665 -0.2037
 9669SOL     OW29406   2.866   3.192   5.105 -0.6972  0.3826  0.0422
 9669SOL    HW129407   2.922   3.258   5.064  0.1545 -0.8350 -0.8273
 9669SOL    HW229408   2.913   3.166   5.184 -0.3049 -0.1732 -0.3554
 9670SOL     OW29409   6.383   2.154   4.467  0.0434 -0.1143  0.1084
 9670SOL    HW129410   6.448   2.084   4.472  2.7049  2.1959  1.0182
 9670SOL    HW229411   6.361   2.160   4.374  0.3803 -1.6243 -0.0867
 9671SOL     OW29412   5.189   5.225   1.273 -0.2589 -0.4158  0.8689
 9671SOL    HW129413   5.129   5.216   1.198  0.5593 -0.8547  0.2526
 9671SOL    HW229414   5.236   5.306   1.255  0.8993 -1.2106  0.1817
 9672SOL     OW29415   2.918   1.433   0.906 -0.2753 -0.2061  0.1234
 9672SOL    HW129416   2.889   1.407   0.993  0.2097 -0.1226  0.3178
 9672SOL    HW229417   2.838   1.441   0.855 -0.4475 -2.1898  0.0190
 9673SOL     OW29418   2.384   2.900   1.119 -0.9363  0.0527  0.5353
 9673SOL    HW129419   2.470   2.873   1.151 -0.6439 -1.6326 -1.4170
 9673SOL    HW229420   2.393   2.899   1.024 -2.6632  1.5064  0.3109
 9674SOL     OW29421   4.182   6.721   3.711  0.6336  0.3802 -0.3790
 9674SOL    HW129422   4.244   6.741   3.782  0.1573  3.6656 -0.7350
 9674SOL    HW229423   4.215   6.769   3.636 -1.9171  1.7584 -0.7424
 9675SOL     OW29424   1.207   2.880   1.034  0.2836 -0.2989  0.1298
 9675SOL    HW129425   1.201   2.849   1.125  0.2722  0.4718  0.3945
 9675SOL    HW229426   1.176   2.970   1.037 -1.4771 -0.8278 -0.9595
 9676SOL     OW29427   2.734   2.545   1.517 -0.1210  0.1184  0.3307
 9676SOL    HW129428   2.666   2.500   1.569 -3.7109  2.8137 -1.5765
 9676SOL    HW229429   2.746   2.489   1.440 -1.6387  0.4544 -0.1829
 9677SOL     OW29430   3.772   2.588   6.528 -0.1574 -0.0251  0.4461
 9677SOL    HW129431   3.843   2.635   6.572  0.8241 -1.3120  0.2794
 9677SOL    HW229432   3.765   2.505   6.575  0.5523 -1.2176 -1.4589
 9678SOL     OW29433   4.428   0.270   5.998 -0.1479 -0.0917  0.1355
 9678SOL    HW129434   4.397   0.327   6.068 -0.5113 -0.8388  0.5937
 9678SOL    HW229435   4.470   0.330   5.936 -1.7187  0.8444 -0.0768
 9679SOL     OW29436   0.316   3.768   4.485 -0.6547  0.0668  0.0532
 9679SOL    HW129437   0.337   3.823   4.561 -0.3521 -0.2685  0.2124
 9679SOL    HW229438   0.375   3.693   4.492  0.8849  1.0437 -1.6658
 9680SOL     OW29439   4.160   6.321   1.458  0.3820 -0.6498 -0.0024
 9680SOL    HW129440   4.151   6.404   1.412  0.3986  0.7054  2.3032
 9680SOL    HW229441   4.232   6.276   1.413 -0.8372 -0.3137 -2.4653
 9681SOL     OW29442   1.891   6.369   3.846  0.2381  0.1651 -0.3227
 9681SOL    HW129443   1.849   6.437   3.898  1.3040  0.3592  0.3102
 9681SOL    HW229444   1.919   6.303   3.909  1.9487  0.6125 -0.5451
 9682SOL     OW29445   5.296   0.959   6.574 -0.3542 -0.0292  0.4963
 9682SOL    HW129446   5.222   1.016   6.593 -0.9943 -0.3884 -0.8403
 9682SOL    HW229447   5.372   1.018   6.569 -1.0755  0.8134 -1.3286
 9683SOL     OW29448   5.620   2.412   6.762 -0.1776 -0.1511  0.0922
 9683SOL    HW129449   5.598   2.324   6.732  1.1124 -0.1974 -0.7713
 9683SOL    HW229450   5.557   2.430   6.832 -2.1691 -0.7045 -1.4858
 9684SOL     OW29451   4.659   6.259   2.902 -0.2270  0.1783 -0.2223
 9684SOL    HW129452   4.585   6.221   2.855 -1.5182  2.6334 -0.3185
 9684SOL    HW229453   4.670   6.202   2.978 -0.8224 -1.4482 -1.3051
 9685SOL     OW29454   6.747   2.170   3.968  0.1442 -0.1735  0.0799
 9685SOL    HW129455   6.793   2.198   3.889 -1.6499  1.0026 -0.5939
 9685SOL    HW229456   6.815   2.169   4.036  1.3028  0.8450 -1.0171
 9686SOL     OW29457   3.223   5.808   1.870 -0.4878 -0.3178  0.1401
 9686SOL    HW129458   3.299   5.763   1.908  0.7080  1.0455 -0.5364
 9686SOL    HW229459   3.159   5.810   1.941  1.6262  2.1031  2.2193
 9687SOL     OW29460   5.504   4.442   5.980 -0.0521 -0.3457  0.1494
 9687SOL    HW129461   5.526   4.513   6.040 -0.9954  0.7926 -0.7945
 9687SOL    HW229462   5.464   4.375   6.036  1.7616 -0.5992  1.2080
 9688SOL     OW29463   6.562   3.142   4.583 -0.1692 -0.2357 -0.0630
 9688SOL    HW129464   6.573   3.190   4.665 -0.9712  0.0859 -0.1351
 9688SOL    HW229465   6.547   3.210   4.517 -2.6293 -0.5835  0.0494
 9689SOL     OW29466   2.976   0.695   1.100  0.1017  0.4726  0.0985
 9689SOL    HW129467   3.063   0.720   1.069  0.5615  0.0181  0.9764
 9689SOL    HW229468   2.931   0.664   1.021  1.6802 -1.9199  0.0098
 9690SOL     OW29469   6.323   2.774   6.409  0.3840 -0.0518  0.0042
 9690SOL    HW129470   6.274   2.799   6.488  0.5157  1.5090 -0.3832
 9690SOL    HW229471   6.412   2.807   6.424  0.0214  1.7774 -1.4464
 9691SOL     OW29472   4.987   5.000   4.112 -0.0189  0.4252  0.0773
 9691SOL    HW129473   4.990   5.030   4.202 -1.4585 -0.6763  0.5348
 9691SOL    HW229474   4.910   5.044   4.074 -0.6183 -0.6512  0.0066
 9692SOL     OW29475   2.779   6.754   3.201 -0.1792 -0.1490 -0.3912
 9692SOL    HW129476   2.747   6.681   3.148 -0.0844 -1.3502  1.1354
 9692SOL    HW229477   2.747   6.832   3.156  1.5925 -0.9596 -3.3610
 9693SOL     OW29478   4.499   3.865   5.673  0.3117  0.3123  0.3636
 9693SOL    HW129479   4.446   3.905   5.604  1.2564  0.7545 -0.1122
 9693SOL    HW229480   4.561   3.933   5.699  0.5451 -0.1470  1.0401
 9694SOL     OW29481   0.694   2.253   2.232  0.4576  0.5400 -0.3854
 9694SOL    HW129482   0.620   2.304   2.267 -1.2485 -2.0319 -0.0034
 9694SOL    HW229483   0.703   2.283   2.142  0.0817  2.0842  0.0528
 9695SOL     OW29484   4.840   6.278   1.569  0.1832 -0.4704  0.6592
 9695SOL    HW129485   4.797   6.336   1.631 -1.5239 -1.7480  0.7266
 9695SOL    HW229486   4.842   6.328   1.487 -2.5478 -0.7445  0.3377
 9696SOL     OW29487   1.106   5.582   5.894 -0.2275 -0.4549 -0.2422
 9696SOL    HW129488   1.078   5.558   5.983 -0.0185 -1.1308 -0.3561
 9696SOL    HW229489   1.028   5.568   5.840 -0.9483  1.7835  0.1154
 9697SOL     OW29490   0.603   3.538   5.275  0.3610 -0.2411 -0.0742
 9697SOL    HW129491   0.536   3.606   5.275  0.2070 -0.2953 -2.7555
 9697SOL    HW229492   0.555   3.458   5.296  0.2770  0.1887  1.5399
 9698SOL     OW29493   4.483   5.894   5.006  0.0361  0.3128  0.6253
 9698SOL    HW129494   4.523   5.895   5.094 -0.1083 -0.5276  0.7063
 9698SOL    HW229495   4.416   5.962   5.010 -0.1559  0.0997  1.2644
 9699SOL     OW29496   3.573   4.230   1.303  0.7920 -0.5703  0.9618
 9699SOL    HW129497   3.521   4.295   1.255  0.6932 -0.0554  1.7434
 9699SOL    HW229498   3.546   4.241   1.394  1.0933 -1.4253  1.1588
 9700SOL     OW29499   2.207   6.389   1.860 -0.2014  0.5119 -0.3441
 9700SOL    HW129500   2.166   6.403   1.945  1.7382 -1.7217  1.0810
 9700SOL    HW229501   2.230   6.477   1.830  1.2126  1.3033  2.6331
 9701SOL     OW29502   1.537   2.746   6.248 -0.1221 -0.1768  0.6695
 9701SOL    HW129503   1.562   2.814   6.187 -2.2921  1.7408  1.7594
 9701SOL    HW229504   1.471   2.695   6.202  0.4138 -0.6205  0.3840
 9702SOL     OW29505   4.125   0.984   6.403 -0.1305  0.0639  0.0682
 9702SOL    HW129506   4.134   0.992   6.499  0.3055 -1.3052  0.1572
 9702SOL    HW229507   4.072   0.906   6.390  0.2430 -0.0449 -0.8290
 9703SOL     OW29508   3.953   0.464   0.231  0.0296  0.0736 -0.0054
 9703SOL    HW129509   3.994   0.435   0.149 -0.9695 -2.3688  0.2557
 9703SOL    HW229510   3.871   0.506   0.204  0.4213  0.6584 -0.3066
 9704SOL     OW29511   4.444   0.962   5.248 -0.7267  0.2172 -0.2764
 9704SOL    HW129512   4.422   0.965   5.155 -1.4022  0.7675 -0.1153
 9704SOL    HW229513   4.374   1.012   5.290 -0.9348 -0.7949  0.6268
 9705SOL     OW29514   5.221   4.642   2.836 -0.5898 -0.3021 -0.5350
 9705SOL    HW129515   5.263   4.560   2.861  0.9420  0.8259  0.7733
 9705SOL    HW229516   5.233   4.700   2.911 -1.0452  1.3464 -1.6644
 9706SOL     OW29517   0.288   0.415   1.345 -0.1580 -0.2993 -0.2382
 9706SOL    HW129518   0.249   0.500   1.366  1.6170  0.7738 -1.1135
 9706SOL    HW229519   0.369   0.436   1.299 -0.4084 -2.4747 -1.8626
 9707SOL     OW29520   2.768   4.810   1.696  0.2311  0.3997  0.4002
 9707SOL    HW129521   2.702   4.835   1.760 -0.4725  0.1042 -0.1993
 9707SOL    HW229522   2.790   4.720   1.719 -2.7947 -1.1483 -1.9581
 9708SOL     OW29523   4.762   3.252   4.469  0.0006  0.1367  0.0366
 9708SOL    HW129524   4.698   3.323   4.467  0.2212  0.3661  0.8188
 9708SOL    HW229525   4.712   3.175   4.495 -0.4719 -0.2749 -1.8984
 9709SOL     OW29526   3.262   0.314   6.696  0.8638  0.2608 -0.2118
 9709SOL    HW129527   3.271   0.225   6.661 -0.1763  0.3201 -0.6321
 9709SOL    HW229528   3.352   0.339   6.719  1.4708 -0.0728 -2.0751
 9710SOL     OW29529   0.256   1.328   2.799 -0.1664  0.1524 -0.4897
 9710SOL    HW129530   0.264   1.233   2.812 -1.6999  0.0960  0.3591
 9710SOL    HW229531   0.162   1.342   2.787 -0.1091  1.7147  0.6540
 9711SOL     OW29532   5.508   1.364   2.454  0.3513  0.0379 -0.4773
 9711SOL    HW129533   5.441   1.407   2.401 -1.1542 -1.7196 -0.0743
 9711SOL    HW229534   5.553   1.305   2.393  1.0906  0.6866 -0.5821
 9712SOL     OW29535   3.318   5.287   5.837 -0.5790  0.3091 -0.1783
 9712SOL    HW129536   3.365   5.366   5.812 -1.9919  2.3201  2.9660
 9712SOL    HW229537   3.363   5.256   5.916 -2.4346  0.3530  0.9498
 9713SOL     OW29538   6.366   5.915   4.282 -0.0365 -0.1166 -0.2346
 9713SOL    HW129539   6.271   5.925   4.274  0.0640  1.2405 -0.1082
 9713SOL    HW229540   6.392   5.859   4.209 -0.7452  0.8536 -1.2567
 9714SOL     OW29541   4.491   1.346   2.674  0.2240 -0.0702 -0.0894
 9714SOL    HW129542   4.436   1.414   2.713 -0.6362  0.4433 -2.0484
 9714SOL    HW229543   4.526   1.297   2.748  0.1747  1.9643  1.3602
 9715SOL     OW29544   5.300   6.533   0.765 -0.0518 -0.5540 -0.1164
 9715SOL    HW129545   5.305   6.544   0.670  2.9109  4.5507  0.2744
 9715SOL    HW229546   5.230   6.591   0.793  0.5674 -0.3076  0.9606
 9716SOL     OW29547   6.303   0.042   4.049  0.8958  0.0637 -0.2400
 9716SOL    HW129548   6.239   0.113   4.041  1.4090  0.4439 -1.0682
 9716SOL    HW229549   6.388   0.085   4.040  1.3239 -0.3416  1.5165
 9717SOL     OW29550   1.929   1.657   0.585  0.1438  1.1806  0.5034
 9717SOL    HW129551   1.884   1.689   0.506 -0.0543  1.2457  0.6432
 9717SOL    HW229552   1.861   1.655   0.652 -0.1125 -0.5414  0.2405
 9718SOL     OW29553   1.309   5.649   5.735 -0.1550 -0.5254  0.0437
 9718SOL    HW129554   1.364   5.596   5.792  0.3761  1.9484  2.0239
 9718SOL    HW229555   1.231   5.668   5.787  0.1242  1.4001 -0.1466
 9719SOL     OW29556   1.073   1.678   4.821  0.1262 -0.2841  0.3922
 9719SOL    HW129557   1.012   1.669   4.747  0.0851  0.1947  0.3629
 9719SOL    HW229558   1.134   1.606   4.811  1.8810  1.3601 -1.7774
 9720SOL     OW29559   3.506   6.544   4.791 -0.1511  0.2065 -0.6119
 9720SOL    HW129560   3.562   6.485   4.842 -1.7565 -1.8923 -1.1245
 9720SOL    HW229561   3.427   6.554   4.844 -0.4470  0.8207 -1.1489
 9721SOL     OW29562   6.739   1.020   0.051 -0.4405 -0.1838 -0.1155
 9721SOL    HW129563   6.729   0.930   0.083  1.9494 -0.5545 -0.1922
 9721SOL    HW229564   6.762   1.070   0.129 -1.4856  0.3358 -0.1259
 9722SOL     OW29565   1.900   2.022   3.928  0.0466 -0.2189  0.5175
 9722SOL    HW129566   1.951   1.942   3.937  0.1508 -0.2640 -0.3553
 9722SOL    HW229567   1.965   2.088   3.902 -0.4272 -0.4452 -1.3665
 9723SOL     OW29568   3.296   6.717   0.682 -0.0650 -0.5731  0.6940
 9723SOL    HW129569   3.356   6.659   0.729  1.6603  1.7074  1.4865
 9723SOL    HW229570   3.284   6.792   0.740 -3.8896 -0.9337  0.6367
 9724SOL     OW29571   3.697   0.961   4.920 -0.5169 -0.2282  0.0338
 9724SOL    HW129572   3.635   0.893   4.948 -1.0545  0.1465 -0.2475
 9724SOL    HW229573   3.647   1.018   4.862 -0.3996  1.1065  1.1902
 9725SOL     OW29574   3.655   6.678   4.066  0.0098  0.3291  0.0333
 9725SOL    HW129575   3.604   6.642   3.994 -0.5940  1.7579 -0.2892
 9725SOL    HW229576   3.656   6.773   4.050  0.3613  0.6177  1.5863
 9726SOL     OW29577   2.606   1.174   5.421  0.2178  0.2495  0.2340
 9726SOL    HW129578   2.587   1.180   5.327 -1.2956 -0.1030  0.4834
 9726SOL    HW229579   2.689   1.221   5.432 -0.4533  1.8211 -1.0159
 9727SOL     OW29580   1.225   5.295   6.013  0.0058 -0.3279  0.3126
 9727SOL    HW129581   1.190   5.217   5.970  0.3672 -0.4651  0.2562
 9727SOL    HW229582   1.154   5.328   6.067  0.3451 -1.6003  1.5741
 9728SOL     OW29583   0.812   1.101   4.114  0.1759 -0.3610  0.2998
 9728SOL    HW129584   0.836   1.061   4.197  0.2283 -1.0703 -0.0487
 9728SOL    HW229585   0.764   1.180   4.138  0.4662 -0.3893  1.0001
 9729SOL     OW29586   4.836   1.199   2.896  0.4934  0.3039  0.2561
 9729SOL    HW129587   4.776   1.143   2.847  0.2440 -0.0993  1.0024
 9729SOL    HW229588   4.830   1.284   2.853 -0.1154  0.0967 -0.0889
 9730SOL     OW29589   2.757   2.765   0.532 -0.1088 -0.7303 -0.7278
 9730SOL    HW129590   2.726   2.737   0.446 -0.3530 -0.3693 -0.7606
 9730SOL    HW229591   2.701   2.840   0.555 -0.0879 -0.8577 -0.2316
 9731SOL     OW29592   3.861   4.783   6.215  0.3034  0.3668 -0.2013
 9731SOL    HW129593   3.881   4.742   6.299  0.3210 -1.4470 -1.0403
 9731SOL    HW229594   3.835   4.711   6.158  0.0976  1.5627 -1.7104
 9732SOL     OW29595   0.468   1.693   3.487 -0.2092  0.1575  0.0099
 9732SOL    HW129596   0.455   1.787   3.473 -1.9211  0.2904  1.9099
 9732SOL    HW229597   0.521   1.688   3.566  0.6335 -0.5022 -0.5821
 9733SOL     OW29598   2.197   2.613   5.758 -0.3481  0.2379  0.7546
 9733SOL    HW129599   2.121   2.555   5.750 -0.8451  0.9921 -0.1117
 9733SOL    HW229600   2.167   2.697   5.723  0.8158  0.6087  0.6213
 9734SOL     OW29601   2.220   3.541   0.419  0.1986  0.3801 -0.0319
 9734SOL    HW129602   2.137   3.498   0.443 -0.0726  0.3250 -1.0481
 9734SOL    HW229603   2.287   3.487   0.460 -0.1041 -1.3296 -1.6824
 9735SOL     OW29604   4.021   3.902   2.671  0.1737  0.6731 -0.1428
 9735SOL    HW129605   4.079   3.976   2.687  1.9451 -1.0171  1.7321
 9735SOL    HW229606   4.068   3.847   2.608  0.7591 -0.7697  1.4795
 9736SOL     OW29607   5.522   3.710   1.051 -0.7751  0.0093 -0.0262
 9736SOL    HW129608   5.588   3.684   1.115  0.6202  0.3976 -1.2696
 9736SOL    HW229609   5.510   3.804   1.067 -2.2613 -0.3369  1.2457
 9737SOL     OW29610   3.685   4.333   0.602 -0.2967  0.1957 -0.0238
 9737SOL    HW129611   3.595   4.316   0.576 -0.1229 -0.2737 -0.3298
 9737SOL    HW229612   3.681   4.346   0.697 -0.8547  1.3879 -0.1991
 9738SOL     OW29613   3.563   5.834   4.124 -0.5794 -0.1181 -0.2589
 9738SOL    HW129614   3.554   5.766   4.057 -1.5705  1.4310 -1.8126
 9738SOL    HW229615   3.492   5.818   4.186 -1.0463 -0.2927 -0.8293
 9739SOL     OW29616   2.910   3.514   3.708  0.0069 -0.1577  0.0940
 9739SOL    HW129617   2.919   3.605   3.737 -1.3944 -0.0933  0.4166
 9739SOL    HW229618   2.848   3.476   3.771  0.0353 -1.1427 -0.4627
 9740SOL     OW29619   6.352   2.939   0.756 -0.4307  0.1674 -0.3535
 9740SOL    HW129620   6.360   2.864   0.697 -1.0127  0.4429 -0.7875
 9740SOL    HW229621   6.262   2.968   0.746 -0.7830 -0.2530  1.2485
 9741SOL     OW29622   2.051   4.060   3.167 -0.0150  0.5061 -0.2329
 9741SOL    HW129623   2.101   4.132   3.131  1.7838 -2.0534 -3.3332
 9741SOL    HW229624   2.085   4.049   3.256 -0.1403  3.1441  0.2221
 9742SOL     OW29625   5.268   0.942   0.352  0.0843 -0.1349  0.0359
 9742SOL    HW129626   5.293   1.002   0.281  0.1503  0.8894  0.8996
 9742SOL    HW229627   5.348   0.933   0.404 -0.1819 -0.2331  0.4280
 9743SOL     OW29628   4.747   4.149   6.001  0.1971  0.2743 -0.0057
 9743SOL    HW129629   4.714   4.091   6.070  0.1477 -0.1835 -0.4067
 9743SOL    HW229630   4.746   4.236   6.040  0.9754 -0.0910  0.8633
 9744SOL     OW29631   2.884   3.461   3.443  0.2404 -0.5225  0.1578
 9744SOL    HW129632   2.944   3.396   3.479 -0.2921 -0.7279  0.6853
 9744SOL    HW229633   2.854   3.511   3.519  0.3166  0.0629 -0.1923
 9745SOL     OW29634   4.873   3.093   0.273  0.0545 -0.2755 -0.1711
 9745SOL    HW129635   4.795   3.149   0.268  0.2578  0.0650  0.4846
 9745SOL    HW229636   4.883   3.074   0.366 -0.5054 -2.1026 -0.4369
 9746SOL     OW29637   5.464   5.649   2.989  0.3128  0.3924  0.5679
 9746SOL    HW129638   5.391   5.702   2.957  0.2535  0.4647  0.8245
 9746SOL    HW229639   5.430   5.605   3.067  0.3567 -0.0333  0.3535
 9747SOL     OW29640   4.616   6.749   6.703 -0.5140  0.2716 -0.4626
 9747SOL    HW129641   4.541   6.695   6.730  0.3635 -0.4902  0.5205
 9747SOL    HW229642   4.579   6.837   6.692 -1.3022  0.2377  1.5065
 9748SOL     OW29643   0.266   6.624   4.889  0.0851 -0.1681  0.0745
 9748SOL    HW129644   0.212   6.602   4.965  0.7847 -0.4149  0.5097
 9748SOL    HW229645   0.318   6.700   4.917  0.1659 -0.1013 -0.2475
 9749SOL     OW29646   2.054   5.428   3.468 -0.1613 -0.9200 -0.3991
 9749SOL    HW129647   2.064   5.523   3.469 -1.5501 -0.7605 -0.3655
 9749SOL    HW229648   2.096   5.398   3.549 -0.5946 -0.2338  0.0866
 9750SOL     OW29649   0.927   3.619   1.066  0.3038  0.6470  0.2843
 9750SOL    HW129650   1.017   3.647   1.078  0.1384  0.8486  1.1175
 9750SOL    HW229651   0.909   3.562   1.141  0.0617 -0.2292 -0.4233
 9751SOL     OW29652   1.310   3.705   6.683  0.3530  0.4321  0.2785
 9751SOL    HW129653   1.390   3.752   6.662 -0.1224  1.7024  1.1744
 9751SOL    HW229654   1.334   3.647   6.755  0.2955  1.4710  1.1648
 9752SOL     OW29655   0.544   2.668   4.157  0.2055  0.0347 -0.5511
 9752SOL    HW129656   0.489   2.734   4.115 -0.9448 -1.1413 -0.9744
 9752SOL    HW229657   0.527   2.677   4.250 -1.0063 -0.5338 -0.6994
 9753SOL     OW29658   4.480   2.501   3.132  0.2849 -0.5548 -0.1665
 9753SOL    HW129659   4.455   2.411   3.153  0.0870 -0.7029 -1.0080
 9753SOL    HW229660   4.397   2.548   3.122  0.3607 -0.6120 -1.1230
 9754SOL     OW29661   6.728   1.803   2.872  0.7027  0.4585  0.5209
 9754SOL    HW129662   6.737   1.718   2.915  0.2024 -0.2445 -0.7051
 9754SOL    HW229663   6.791   1.800   2.799 -1.3678 -0.1075 -1.3546
 9755SOL     OW29664   4.320   5.529   5.127  0.3080  0.0177  0.0947
 9755SOL    HW129665   4.371   5.464   5.174 -0.1955 -0.4204  0.0425
 9755SOL    HW229666   4.229   5.503   5.141  0.1494 -0.1170 -1.1250
 9756SOL     OW29667   3.937   2.477   6.300  0.4288  0.0806  0.3290
 9756SOL    HW129668   3.996   2.545   6.267 -1.8612  1.3797 -1.4455
 9756SOL    HW229669   3.884   2.522   6.366 -0.2909 -0.2903  0.0217
 9757SOL     OW29670   5.076   4.177   2.474  0.0640  0.2265 -0.2522
 9757SOL    HW129671   5.107   4.244   2.413 -1.9207  0.5612 -0.9618
 9757SOL    HW229672   5.156   4.134   2.505  1.3041  1.9763 -0.8412
 9758SOL     OW29673   2.997   0.579   1.705  0.1921  0.0877  0.6495
 9758SOL    HW129674   2.929   0.534   1.654  0.3616  0.0570  0.4491
 9758SOL    HW229675   2.975   0.560   1.796  1.1298 -1.7062  0.5413
 9759SOL     OW29676   5.022   6.141   1.716  0.3505 -0.3757 -0.2087
 9759SOL    HW129677   4.964   6.169   1.645  0.6372  1.1347  0.1279
 9759SOL    HW229678   5.024   6.045   1.708 -2.5697 -0.5654  0.0670
 9760SOL     OW29679   3.122   3.523   3.071  0.0050  0.2414  0.3615
 9760SOL    HW129680   3.056   3.590   3.049  0.7928  0.5290 -1.2882
 9760SOL    HW229681   3.154   3.549   3.157  0.1289  1.8844 -0.1474
 9761SOL     OW29682   0.077   0.290   4.682  0.0701 -0.2434 -0.1493
 9761SOL    HW129683  -0.007   0.333   4.671  0.3683  0.4740  0.3229
 9761SOL    HW229684   0.056   0.204   4.720 -0.2956  0.8436  2.2290
 9762SOL     OW29685   5.153   1.103   2.813  0.2022  0.4019 -0.4621
 9762SOL    HW129686   5.185   1.165   2.747 -1.2158  0.5087 -1.0792
 9762SOL    HW229687   5.062   1.088   2.790  0.2436 -1.1840  0.2565
 9763SOL     OW29688   5.811   5.871   0.002 -0.2022  0.2033  0.0103
 9763SOL    HW129689   5.850   5.948   0.044 -0.4925  0.7738 -0.7353
 9763SOL    HW229690   5.879   5.841  -0.058  1.6449 -2.7200  3.2306
 9764SOL     OW29691   6.778   1.892   5.707  0.0826 -0.4110 -0.7044
 9764SOL    HW129692   6.737   1.867   5.790  0.1568 -2.1458 -1.1374
 9764SOL    HW229693   6.711   1.874   5.641  0.8199 -1.3578 -1.2285
 9765SOL     OW29694   3.116   3.228   2.675 -0.2023  0.1096  0.1014
 9765SOL    HW129695   3.147   3.156   2.730 -0.2122 -1.7791 -2.1529
 9765SOL    HW229696   3.162   3.214   2.591 -0.9508  2.1779 -0.7061
 9766SOL     OW29697   5.810   4.561   2.528 -0.5067  0.0377  0.6980
 9766SOL    HW129698   5.827   4.471   2.557 -3.2864 -0.2618  1.7321
 9766SOL    HW229699   5.743   4.593   2.588  1.4459  3.3890  1.2901
 9767SOL     OW29700   3.009   5.576   2.338 -0.0544  0.2867  0.4768
 9767SOL    HW129701   3.064   5.585   2.260 -0.0143  1.4858  0.6289
 9767SOL    HW229702   2.947   5.507   2.316  1.6331 -1.2742  0.3805
 9768SOL     OW29703   3.046   0.309   1.473 -0.1919 -0.4427  0.3077
 9768SOL    HW129704   2.993   0.319   1.552 -2.2329 -1.0292 -0.9021
 9768SOL    HW229705   3.009   0.373   1.412  1.3891  0.0459 -0.1877
 9769SOL     OW29706   5.190   6.645   5.092 -0.1795 -0.0630  0.4739
 9769SOL    HW129707   5.138   6.709   5.043 -0.7579 -0.5679  0.4177
 9769SOL    HW229708   5.128   6.607   5.154 -0.4614 -2.2274 -1.0397
 9770SOL     OW29709   0.222   4.641   3.596  0.0007 -0.1002  0.2426
 9770SOL    HW129710   0.144   4.687   3.626 -0.7331 -0.0513 -1.6156
 9770SOL    HW229711   0.256   4.695   3.525  1.2308 -0.5829  0.4399
 9771SOL     OW29712   6.585   4.257   0.977  0.3401 -0.2446 -0.1863
 9771SOL    HW129713   6.659   4.199   0.998 -0.1768 -0.4958  1.0393
 9771SOL    HW229714   6.577   4.314   1.053 -1.7394 -1.2978  0.4629
 9772SOL     OW29715   5.000   0.012   0.601  0.5956  0.2034 -0.2395
 9772SOL    HW129716   5.042   0.094   0.627 -1.5285  1.0570  0.7541
 9772SOL    HW229717   5.014   0.006   0.507  1.4275  1.3251 -0.2006
 9773SOL     OW29718   4.320   3.728   4.248  0.4746  0.0764  0.1446
 9773SOL    HW129719   4.361   3.688   4.171  0.6397  2.4855 -1.1172
 9773SOL    HW229720   4.227   3.729   4.228  0.6343  1.9042 -0.6995
 9774SOL     OW29721   0.941   5.412   1.584  0.4155  0.2587  0.3947
 9774SOL    HW129722   1.016   5.353   1.586 -0.3608 -0.9030 -1.8094
 9774SOL    HW229723   0.865   5.357   1.605 -0.0438  1.0375  0.8396
 9775SOL     OW29724   6.367   3.133   1.797  0.2422  0.5435 -0.1042
 9775SOL    HW129725   6.404   3.195   1.734  0.3526  0.9657  0.3675
 9775SOL    HW229726   6.298   3.182   1.841  0.4773  0.4023  0.4250
 9776SOL     OW29727   1.453   0.623   4.304  0.1934 -0.4805 -0.1045
 9776SOL    HW129728   1.534   0.662   4.335 -0.8228  2.4970 -0.7576
 9776SOL    HW229729   1.468   0.608   4.210 -0.4512  1.7064 -0.6236
 9777SOL     OW29730   3.141   5.371   2.112 -0.9538 -0.2170 -0.3961
 9777SOL    HW129731   3.157   5.465   2.121 -0.4371 -0.4076  0.9044
 9777SOL    HW229732   3.048   5.360   2.132 -0.8661 -0.0542  0.1156
 9778SOL     OW29733   5.346   2.503   2.691 -0.4343  0.3238  0.2598
 9778SOL    HW129734   5.398   2.426   2.669  0.0186  1.0639 -1.4294
 9778SOL    HW229735   5.255   2.473   2.689 -0.3061 -0.0224 -1.1167
 9779SOL     OW29736   0.664   5.132   1.270  0.1236  0.0161 -0.7765
 9779SOL    HW129737   0.745   5.147   1.221  0.3088 -2.4128 -1.3299
 9779SOL    HW229738   0.594   5.144   1.206  0.0624  1.2992 -0.4950
 9780SOL     OW29739   3.012   3.007   1.140 -0.0027 -0.0277  0.3407
 9780SOL    HW129740   3.075   3.074   1.165 -1.1965  0.9761  0.7734
 9780SOL    HW229741   2.937   3.056   1.106 -1.7333 -1.0073  2.5176
 9781SOL     OW29742   4.607   1.529   4.915 -0.1173  0.0014 -0.4620
 9781SOL    HW129743   4.590   1.600   4.976 -1.7602  0.6699 -1.6266
 9781SOL    HW229744   4.527   1.477   4.914  0.1679 -0.4544 -1.4296
 9782SOL     OW29745   2.447   6.003   1.465 -0.2939 -0.0053  0.0655
 9782SOL    HW129746   2.525   5.953   1.440 -0.1413  0.3511 -0.1759
 9782SOL    HW229747   2.374   5.942   1.451 -0.1631  0.0034 -0.7303
 9783SOL     OW29748   1.391   3.027   5.738  0.2001  0.0123 -0.2190
 9783SOL    HW129749   1.389   2.945   5.689  1.6745  1.0458 -2.1570
 9783SOL    HW229750   1.449   3.010   5.812 -1.8369 -1.4934  1.1529
 9784SOL     OW29751   0.376   6.248   3.593  0.5101 -0.0836 -0.1496
 9784SOL    HW129752   0.402   6.298   3.516  0.1480 -0.6324 -0.6277
 9784SOL    HW229753   0.367   6.314   3.662 -2.4672  0.9606 -1.3648
 9785SOL     OW29754   4.816   0.553   5.037  0.0905 -0.1032  0.2442
 9785SOL    HW129755   4.741   0.605   5.009 -0.0843 -1.8666 -3.0152
 9785SOL    HW229756   4.892   0.607   5.016 -0.1766  0.0381 -0.3951
 9786SOL     OW29757   4.412   3.222   0.118  0.6521 -0.4277 -0.6515
 9786SOL    HW129758   4.466   3.231   0.197  0.7330 -0.3280 -0.7184
 9786SOL    HW229759   4.414   3.308   0.077  2.7396 -1.1093 -2.1465
 9787SOL     OW29760   3.310   5.725   2.483 -0.0191 -0.3705 -0.4578
 9787SOL    HW129761   3.279   5.813   2.505  3.3885  0.9428 -0.4299
 9787SOL    HW229762   3.349   5.693   2.563 -2.4316 -2.6414 -0.0452
 9788SOL     OW29763   6.747   6.619   3.464 -0.5802 -0.2294  0.1572
 9788SOL    HW129764   6.696   6.672   3.526  0.1538  1.6551 -0.7497
 9788SOL    HW229765   6.726   6.657   3.378  0.1859 -1.2710 -0.5168
 9789SOL     OW29766   4.872   0.867   3.702 -0.0081 -0.2904  0.4476
 9789SOL    HW129767   4.896   0.920   3.778  1.0553  0.0931 -0.1292
 9789SOL    HW229768   4.882   0.926   3.627  1.8678 -1.4402 -0.2860
 9790SOL     OW29769   6.424   5.056   2.149 -0.3205 -0.2259  0.2369
 9790SOL    HW129770   6.508   5.022   2.179 -0.2815 -1.1406 -0.8300
 9790SOL    HW229771   6.438   5.150   2.138 -0.0441 -0.0293  1.9785
 9791SOL     OW29772   2.062   2.009   4.280  0.0941  0.0069  0.0262
 9791SOL    HW129773   2.100   1.943   4.338  1.6704  1.7230  1.0657
 9791SOL    HW229774   2.135   2.040   4.228 -0.7388  0.5301 -0.8675
 9792SOL     OW29775   1.146   0.470   0.188  0.6840 -0.6868 -0.1849
 9792SOL    HW129776   1.189   0.522   0.257 -0.6127 -0.0002  0.1337
 9792SOL    HW229777   1.217   0.418   0.151  1.7028  0.0289  0.6657
 9793SOL     OW29778   6.511   6.499   6.149 -0.0270 -0.2728 -0.0235
 9793SOL    HW129779   6.519   6.520   6.056 -2.0274  0.8567 -0.0018
 9793SOL    HW229780   6.590   6.451   6.170  0.9543  0.3507 -2.0689
 9794SOL     OW29781   6.176   2.067   3.954 -0.1456  0.1477  0.6595
 9794SOL    HW129782   6.083   2.091   3.959 -0.4213 -0.7693  0.0528
 9794SOL    HW229783   6.176   1.974   3.933  0.9209  0.0794  0.9146
 9795SOL     OW29784   3.456   1.123   2.989 -0.3952 -0.5195  0.2241
 9795SOL    HW129785   3.391   1.071   3.037  0.3498 -1.4356  0.2709
 9795SOL    HW229786   3.405   1.195   2.950 -1.7811 -2.2139 -1.2881
 9796SOL     OW29787   0.494   5.667   1.727 -0.5696 -0.2129  0.0475
 9796SOL    HW129788   0.448   5.624   1.655  0.1258  0.5018 -0.8416
 9796SOL    HW229789   0.584   5.677   1.697 -0.5769  1.3708  0.4312
 9797SOL     OW29790   4.177   4.002   1.230  0.1284 -0.4640 -0.0989
 9797SOL    HW129791   4.109   3.939   1.254  1.1141 -1.6282 -0.2594
 9797SOL    HW229792   4.210   3.970   1.146  0.9621  0.0061  0.0440
 9798SOL     OW29793   1.490   2.342   1.758 -0.1075 -0.4186  0.0800
 9798SOL    HW129794   1.477   2.383   1.843 -0.4175 -1.4935  0.5654
 9798SOL    HW229795   1.402   2.328   1.723 -0.2886 -3.8416  1.5037
 9799SOL     OW29796   4.080   1.067   1.318 -0.2423  0.1408  0.2741
 9799SOL    HW129797   4.108   1.146   1.273 -1.3780  0.0897 -0.5631
 9799SOL    HW229798   4.157   1.039   1.367  0.1582  1.7847  0.6392
 9800SOL     OW29799   2.552   2.822   2.261 -0.0945  0.2815  0.6102
 9800SOL    HW129800   2.648   2.817   2.258 -0.0784  0.6748  0.2299
 9800SOL    HW229801   2.534   2.915   2.275 -0.4312  0.4427 -0.7575
 9801SOL     OW29802   1.084   5.030   4.693 -0.0962  0.2594  0.1786
 9801SOL    HW129803   1.023   5.103   4.679 -0.2937  0.3489  1.3896
 9801SOL    HW229804   1.115   5.008   4.606 -2.8292 -0.6244 -0.6746
 9802SOL     OW29805   1.209   1.399   2.071  0.1429  0.3112  0.5702
 9802SOL    HW129806   1.143   1.384   2.139  0.7272 -2.1950  0.6747
 9802SOL    HW229807   1.283   1.343   2.097  0.4463 -0.6059 -2.0476
 9803SOL     OW29808   4.621   1.671   0.490  0.0396 -0.0328  0.4100
 9803SOL    HW129809   4.553   1.606   0.469  0.7822 -1.2809  1.7223
 9803SOL    HW229810   4.703   1.630   0.464  0.4544  0.7823  0.3814
 9804SOL     OW29811   1.845   2.334   0.269  0.1829 -0.1659 -0.3006
 9804SOL    HW129812   1.773   2.286   0.229  1.0921 -1.0141 -0.9967
 9804SOL    HW229813   1.886   2.380   0.196 -0.5588  1.5696  0.3290
 9805SOL     OW29814   6.145   4.703   3.586 -0.5420 -0.7232  0.2292
 9805SOL    HW129815   6.075   4.662   3.636 -2.2527  1.9158  0.1769
 9805SOL    HW229816   6.168   4.781   3.635  0.6979 -0.2717 -0.9976
 9806SOL     OW29817   4.402   3.668   3.966 -0.1922 -0.5357  0.2307
 9806SOL    HW129818   4.486   3.708   3.943  0.1006 -0.7132  0.9575
 9806SOL    HW229819   4.406   3.581   3.927 -0.1892 -0.4114 -0.0474
 9807SOL     OW29820   5.470   0.361   6.569 -0.6813 -0.0737 -0.1162
 9807SOL    HW129821   5.429   0.406   6.642  0.0369  2.5281 -1.2062
 9807SOL    HW229822   5.431   0.400   6.491 -0.0524 -1.4043 -1.1492
 9808SOL     OW29823   5.557   3.828   2.765  0.1722 -0.1758  1.0146
 9808SOL    HW129824   5.521   3.894   2.706  3.2792  0.1277 -0.7557
 9808SOL    HW229825   5.596   3.762   2.707 -0.6997 -2.3626  2.7595
 9809SOL     OW29826   4.333   2.891   4.704  0.3774 -0.1628  0.5519
 9809SOL    HW129827   4.341   2.837   4.626  0.6547  2.3996 -1.3474
 9809SOL    HW229828   4.422   2.923   4.721  0.0204  0.7888  0.7317
 9810SOL     OW29829   1.483   1.517   5.207 -0.2484 -0.0619  0.3181
 9810SOL    HW129830   1.391   1.494   5.194 -0.0153 -0.1313 -1.5582
 9810SOL    HW229831   1.525   1.436   5.233 -0.7368  0.0122  1.3766
 9811SOL     OW29832   4.919   4.151   0.554 -0.3844  0.6278  0.3895
 9811SOL    HW129833   4.872   4.071   0.577 -1.7820  1.2370 -0.2430
 9811SOL    HW229834   5.012   4.130   0.568 -0.8232 -0.6480  1.5261
 9812SOL     OW29835   5.498   3.709   5.163  0.1886  0.7231  0.0199
 9812SOL    HW129836   5.536   3.621   5.153 -1.3394  0.2949 -2.9370
 9812SOL    HW229837   5.404   3.694   5.162 -0.1102  2.4797 -1.6565
 9813SOL     OW29838   3.197   1.999   5.634 -0.0454  0.1135 -0.5663
 9813SOL    HW129839   3.142   2.074   5.610 -4.0196 -2.4183 -0.1987
 9813SOL    HW229840   3.186   1.991   5.729  1.2501 -0.3225 -0.4290
 9814SOL     OW29841   5.949   6.167   6.677 -0.0767 -0.1451 -0.5820
 9814SOL    HW129842   5.857   6.193   6.678 -0.7044 -1.8562 -3.0322
 9814SOL    HW229843   5.990   6.226   6.613  0.7935  1.1392  1.0736
 9815SOL     OW29844   5.625   0.679   3.846 -0.0937  0.1934  0.4243
 9815SOL    HW129845   5.670   0.762   3.858 -1.7593  1.0407  1.1166
 9815SOL    HW229846   5.624   0.667   3.751  0.7261  0.6268  0.3504
 9816SOL     OW29847   3.636   4.420   6.115 -0.6479 -0.6767  0.0792
 9816SOL    HW129848   3.637   4.368   6.195  1.2279  1.5175  1.6140
 9816SOL    HW229849   3.582   4.496   6.137  0.2936  0.1933 -0.5360
 9817SOL     OW29850   4.835   6.275   3.291  0.2066  0.5533 -0.6084
 9817SOL    HW129851   4.911   6.217   3.287  0.6583  0.8969  1.4957
 9817SOL    HW229852   4.830   6.315   3.204  0.9075 -1.3238 -1.5679
 9818SOL     OW29853   6.330   0.959   2.424  0.5438  0.1317 -0.0210
 9818SOL    HW129854   6.274   0.938   2.498  0.9662 -1.6002 -0.1333
 9818SOL    HW229855   6.407   1.001   2.463 -0.2550  1.3671  0.2561
 9819SOL     OW29856   5.970   4.352   3.111  0.0368 -0.0367 -0.1451
 9819SOL    HW129857   5.978   4.420   3.178  0.0063 -1.1577  1.0386
 9819SOL    HW229858   6.060   4.334   3.084 -0.0364  1.4060 -1.4784
 9820SOL     OW29859   3.330   4.796   6.057 -0.0308  0.1317  0.0843
 9820SOL    HW129860   3.308   4.844   5.978  1.0905 -1.7167 -1.4371
 9820SOL    HW229861   3.269   4.829   6.123 -0.1158  2.6877 -1.1557
 9821SOL     OW29862   6.323   1.727   2.173  0.1225 -0.0100 -0.0471
 9821SOL    HW129863   6.294   1.651   2.223 -2.3526  0.1214 -1.1308
 9821SOL    HW229864   6.270   1.800   2.206  1.1996  0.8909 -0.2341
 9822SOL     OW29865   3.395   4.165   6.714 -0.0158 -0.5638  0.2187
 9822SOL    HW129866   3.340   4.226   6.665 -1.7737 -1.8023  0.5569
 9822SOL    HW229867   3.477   4.214   6.730 -1.5997  2.0212  1.1811
 9823SOL     OW29868   4.680   2.502   6.468 -0.3797 -0.2813  0.1996
 9823SOL    HW129869   4.635   2.548   6.397 -1.1111  1.0835  1.4916
 9823SOL    HW229870   4.610   2.474   6.527  0.2569 -0.8492  0.7052
 9824SOL     OW29871   2.228   6.443   5.635  0.6810  0.2305  0.1679
 9824SOL    HW129872   2.310   6.396   5.620  0.3229 -0.0809 -0.8872
 9824SOL    HW229873   2.201   6.416   5.723  2.6104  1.7423  1.2951
 9825SOL     OW29874   5.390   2.820   1.495  0.6056  0.4664 -0.1402
 9825SOL    HW129875   5.406   2.784   1.408 -1.1316 -0.3631 -0.1615
 9825SOL    HW229876   5.476   2.844   1.527  1.3045  0.7067 -2.0487
 9826SOL     OW29877   6.287   3.989   4.489 -0.0028 -0.3480 -0.1618
 9826SOL    HW129878   6.364   3.951   4.531  0.4658  1.5809  0.8013
 9826SOL    HW229879   6.249   3.916   4.440  0.4021 -2.2809  2.2030
 9827SOL     OW29880   1.434   2.160   4.879 -0.2836  0.0077 -0.2553
 9827SOL    HW129881   1.482   2.114   4.810 -1.3231 -0.4334 -0.7043
 9827SOL    HW229882   1.378   2.093   4.918 -1.0419  0.6534 -0.2055
 9828SOL     OW29883   1.655   2.097   1.766 -0.0315  0.1500  0.4093
 9828SOL    HW129884   1.650   2.076   1.860  1.6000  0.3113  0.5644
 9828SOL    HW229885   1.602   2.176   1.756  0.1592  0.3993  1.2894
 9829SOL     OW29886   4.036   3.791   2.048 -0.0663 -0.1883  0.6080
 9829SOL    HW129887   4.053   3.829   2.134 -0.4159  1.0411  0.1474
 9829SOL    HW229888   4.103   3.723   2.039  1.1443  0.8919  1.0812
 9830SOL     OW29889   1.016   4.953   0.927  0.2574  0.0631  0.0190
 9830SOL    HW129890   0.995   4.987   1.014 -3.3646 -0.0915 -0.6514
 9830SOL    HW229891   1.069   5.022   0.886  0.4018  0.9658  1.6431
 9831SOL     OW29892   1.015   2.726   6.560 -0.0373 -0.0062 -0.2853
 9831SOL    HW129893   1.072   2.664   6.606  1.5701  1.8491  0.3660
 9831SOL    HW229894   1.068   2.758   6.487 -1.3765 -0.4309 -1.5037
 9832SOL     OW29895   6.223   1.364   2.076 -0.1019 -0.5210 -0.3835
 9832SOL    HW129896   6.288   1.312   2.029  1.6772  0.1291  1.2205
 9832SOL    HW229897   6.151   1.303   2.094  0.6722 -1.6359 -0.9906
 9833SOL     OW29898   5.296   6.381   5.716 -0.8941 -0.0619 -0.1201
 9833SOL    HW129899   5.231   6.364   5.784 -1.0056 -0.0110 -0.2137
 9833SOL    HW229900   5.370   6.421   5.763 -1.2562  0.6331 -0.1335
 9834SOL     OW29901   0.844   3.607   0.160  0.0488 -1.1516 -0.4450
 9834SOL    HW129902   0.930   3.564   0.161  1.5924  1.7385 -0.0715
 9834SOL    HW229903   0.816   3.608   0.251  1.8791  1.8789  0.2274
 9835SOL     OW29904   0.652   4.866   2.064 -0.6472  0.3410 -0.0243
 9835SOL    HW129905   0.655   4.921   2.142 -0.7869  2.5982 -1.5155
 9835SOL    HW229906   0.581   4.903   2.011 -1.8493 -2.3019 -0.4456
 9836SOL     OW29907   0.191   2.941   0.785  0.0406 -0.3995 -0.5036
 9836SOL    HW129908   0.216   2.853   0.813  0.3900  0.3025  1.5880
 9836SOL    HW229909   0.266   2.972   0.735 -0.4801 -1.5978 -2.1239
 9837SOL     OW29910   5.263   6.211   3.559 -0.0023  0.2379  0.3576
 9837SOL    HW129911   5.353   6.178   3.550 -0.1760 -0.7147  1.7877
 9837SOL    HW229912   5.240   6.194   3.650 -1.5034  0.8451  0.1232
 9838SOL     OW29913   6.454   5.335   2.090  0.3539  0.5445 -0.6867
 9838SOL    HW129914   6.543   5.345   2.056 -0.4673  1.8821 -2.5612
 9838SOL    HW229915   6.436   5.417   2.135  0.3140 -0.0273  0.3781
 9839SOL     OW29916   6.034   4.034   2.809  0.1069 -0.2622 -0.2978
 9839SOL    HW129917   6.076   3.950   2.793 -0.6746 -0.9152  0.9685
 9839SOL    HW229918   6.025   4.039   2.904 -0.7077  0.8308 -0.4133
 9840SOL     OW29919   5.608   4.235   6.416  0.5648  0.7212 -0.4933
 9840SOL    HW129920   5.583   4.328   6.415  1.8890  1.1199  0.7359
 9840SOL    HW229921   5.688   4.231   6.363  0.3689  0.2278 -0.7592
 9841SOL     OW29922   2.125   0.294   3.826  0.9889  0.1809 -0.0049
 9841SOL    HW129923   2.139   0.201   3.807 -0.0334 -0.0397  0.2690
 9841SOL    HW229924   2.077   0.328   3.751  1.3840  0.5024 -0.1186
 9842SOL     OW29925   1.400   4.703   3.193 -0.4380 -0.8691  0.5947
 9842SOL    HW129926   1.440   4.748   3.268 -1.0942  0.1610  0.3549
 9842SOL    HW229927   1.335   4.765   3.160  0.6115 -0.8066 -1.5283
 9843SOL     OW29928   2.435   1.449   3.319  0.3156  0.2981  0.1308
 9843SOL    HW129929   2.445   1.413   3.407 -1.7143 -2.1178 -0.5282
 9843SOL    HW229930   2.523   1.479   3.296  1.1167  0.0194  2.5479
 9844SOL     OW29931   5.510   5.930   6.127  0.1790  0.1579  0.3583
 9844SOL    HW129932   5.561   6.004   6.162 -0.4055  0.2266  1.0903
 9844SOL    HW229933   5.473   5.888   6.205 -2.1898  1.0607 -0.2033
 9845SOL     OW29934   2.964   4.118   3.906 -0.3273  0.1840  0.0397
 9845SOL    HW129935   2.953   4.061   3.831  1.0787  0.8526 -0.7135
 9845SOL    HW229936   2.936   4.066   3.981 -2.5854 -0.2005 -1.0097
 9846SOL     OW29937   3.688   0.584   0.636 -0.2239 -0.3753  0.1814
 9846SOL    HW129938   3.752   0.611   0.702 -0.3877  0.2790  0.0840
 9846SOL    HW229939   3.697   0.648   0.566 -0.0338 -1.0813 -0.4518
 9847SOL     OW29940   3.746   1.455   6.420  0.5686  0.4018  0.3968
 9847SOL    HW129941   3.785   1.498   6.496 -0.2912  0.7200  0.6755
 9847SOL    HW229942   3.786   1.368   6.419  1.0201  0.5944  0.8678
 9848SOL     OW29943   4.395   1.518   4.526  0.4085  0.5161  0.4306
 9848SOL    HW129944   4.367   1.441   4.575 -1.5438  2.7473  3.1288
 9848SOL    HW229945   4.488   1.526   4.544  0.2578 -0.2084  1.6420
 9849SOL     OW29946   2.437   0.592   5.254 -0.1049  0.1742 -0.3347
 9849SOL    HW129947   2.515   0.541   5.273 -0.5875  0.3242  2.4555
 9849SOL    HW229948   2.469   0.681   5.242  0.0915  0.6054  2.6880
 9850SOL     OW29949   4.341   1.229   1.536 -0.5407 -0.0619  0.2606
 9850SOL    HW129950   4.251   1.257   1.556 -1.2217 -0.1524 -2.2558
 9850SOL    HW229951   4.330   1.145   1.491  0.6650  0.5844 -1.3313
 9851SOL     OW29952   0.081   4.699   0.980  0.0380 -0.5497 -0.1701
 9851SOL    HW129953   0.097   4.616   0.935  0.8080 -0.1594 -0.6455
 9851SOL    HW229954   0.152   4.756   0.950  0.3003 -0.1345  1.1739
 9852SOL     OW29955   4.196   0.612   2.303  0.1504 -0.4974  0.0078
 9852SOL    HW129956   4.219   0.613   2.396 -0.0337 -1.3000  0.0763
 9852SOL    HW229957   4.105   0.582   2.301  0.1601 -0.5126 -0.4300
 9853SOL     OW29958   3.979   2.592   3.814  0.0949  0.0073  0.0005
 9853SOL    HW129959   3.911   2.536   3.778  0.6205 -0.3205 -0.5027
 9853SOL    HW229960   4.012   2.544   3.890  0.5302 -0.3537 -0.4177
 9854SOL     OW29961   4.850   4.575   0.629  0.3545 -0.3371 -0.3666
 9854SOL    HW129962   4.886   4.645   0.684 -1.3834  1.7598 -1.7608
 9854SOL    HW229963   4.855   4.497   0.684  1.8369  0.9555  1.4724
 9855SOL     OW29964   2.028   2.960   1.291  0.5351 -0.2934  0.0951
 9855SOL    HW129965   1.934   2.949   1.306 -0.0043  2.9384 -0.1615
 9855SOL    HW229966   2.062   2.871   1.284 -2.2682 -1.5973  1.4926
 9856SOL     OW29967   4.093   4.528   3.774  0.1815  0.4092 -0.0298
 9856SOL    HW129968   4.080   4.622   3.786 -1.3038  0.6057 -2.4124
 9856SOL    HW229969   4.004   4.493   3.766  0.7218 -1.1420  0.4377
 9857SOL     OW29970   4.664   3.375   1.595  0.0951 -0.0117  0.0490
 9857SOL    HW129971   4.664   3.458   1.546 -0.1651  0.3699  0.6760
 9857SOL    HW229972   4.757   3.360   1.616  0.3881 -0.9195 -1.7560
 9858SOL     OW29973   2.058   3.280   4.950 -0.1751  0.0901 -0.8955
 9858SOL    HW129974   2.133   3.300   4.894  0.2597 -0.9011 -0.6900
 9858SOL    HW229975   2.045   3.359   5.003 -0.0817  0.7348 -1.8189
 9859SOL     OW29976   1.473   4.156   1.771  0.0535  0.0704 -0.1821
 9859SOL    HW129977   1.467   4.124   1.861 -1.5225 -0.4532 -0.4271
 9859SOL    HW229978   1.482   4.076   1.718 -0.0459  0.2969 -0.5449
 9860SOL     OW29979   2.230   2.451   6.113 -0.0009 -0.4742 -0.0285
 9860SOL    HW129980   2.242   2.503   6.193 -0.0500  0.4886 -0.6299
 9860SOL    HW229981   2.139   2.422   6.117  0.4926 -2.0454  1.1758
 9861SOL     OW29982   6.631   4.580   3.498  0.1347 -0.0877  0.6416
 9861SOL    HW129983   6.659   4.491   3.477  0.9176  0.3174 -0.0856
 9861SOL    HW229984   6.643   4.588   3.592  0.2223 -0.6933  0.6833
 9862SOL     OW29985   3.968   3.962   4.170 -0.2386  0.1712  0.1643
 9862SOL    HW129986   3.898   3.957   4.105  0.8875  3.3613 -1.5193
 9862SOL    HW229987   3.985   4.056   4.180  0.5571 -0.2233  4.1974
 9863SOL     OW29988   1.202   4.385   3.332  0.0697 -0.3078  0.3885
 9863SOL    HW129989   1.191   4.432   3.249 -1.2462 -1.8165 -0.3536
 9863SOL    HW229990   1.116   4.347   3.350  0.4193 -0.3238  2.2895
 9864SOL     OW29991   4.708   3.705   1.042 -0.6207  0.5502 -0.5569
 9864SOL    HW129992   4.718   3.787   0.993  0.0836  0.5575 -0.4053
 9864SOL    HW229993   4.639   3.724   1.106  0.6266  1.5465  0.5611
 9865SOL     OW29994   4.908   4.184   2.704  0.2404  0.2176 -0.1619
 9865SOL    HW129995   4.955   4.197   2.622 -0.2259  0.5617 -0.3757
 9865SOL    HW229996   4.932   4.259   2.758 -0.6419  0.7966 -0.5492
 9866SOL     OW29997   4.966   1.929   5.564 -0.1121 -0.1445  0.2628
 9866SOL    HW129998   5.016   1.871   5.508  0.0667 -0.1348  0.4107
 9866SOL    HW229999   5.016   1.933   5.646 -0.0385  0.3432  0.1980
 9867SOL     OW30000   3.696   1.145   2.280 -0.2368 -0.5365 -0.1675
 9867SOL    HW130001   3.626   1.081   2.276 -0.0718 -0.9453  2.0265
 9867SOL    HW230002   3.659   1.219   2.328 -0.1254  0.6540 -1.8198
 9868SOL     OW30003   6.762   1.030   2.650 -0.2539 -0.3826  0.6533
 9868SOL    HW130004   6.676   1.072   2.651  0.3528  0.9823  2.9089
 9868SOL    HW230005   6.807   1.069   2.574 -2.1011 -2.3763 -1.6083
 9869SOL     OW30006   4.094   4.796   3.592  0.1983  0.0995  0.3585
 9869SOL    HW130007   4.064   4.792   3.682  0.5374  1.2998  0.5365
 9869SOL    HW230008   4.019   4.767   3.540 -0.0090 -0.5590  1.0075
 9870SOL     OW30009   5.995   2.667   4.452  0.4393  0.9229 -0.1014
 9870SOL    HW130010   5.989   2.711   4.537  0.1500  0.4238  0.1383
 9870SOL    HW230011   6.065   2.714   4.406  1.2378  0.6023  0.7549
 9871SOL     OW30012   3.344   1.014   3.510 -0.0224  0.3345  0.1371
 9871SOL    HW130013   3.286   0.983   3.579  1.3703  3.2714  2.8507
 9871SOL    HW230014   3.425   0.965   3.523 -0.2978 -0.3540 -0.6147
 9872SOL     OW30015   2.821   3.355   5.724 -0.1048 -0.1197 -0.3449
 9872SOL    HW130016   2.894   3.315   5.771  0.0414 -0.9193 -1.2305
 9872SOL    HW230017   2.822   3.446   5.752 -0.3370 -0.6522  1.6068
 9873SOL     OW30018   2.960   0.193   4.184 -0.4492  0.1364 -0.3027
 9873SOL    HW130019   2.942   0.285   4.203 -1.3540 -0.0348 -0.3155
 9873SOL    HW230020   2.929   0.180   4.095 -1.1099 -0.3876 -0.0045
 9874SOL     OW30021   1.546   2.629   4.380 -0.3750 -0.0263  0.5639
 9874SOL    HW130022   1.632   2.593   4.404 -0.6744  0.7240  2.9860
 9874SOL    HW230023   1.497   2.553   4.349  1.3559 -0.3486 -1.6275
 9875SOL     OW30024   2.048   5.817   3.765 -0.3358  0.0623 -0.3079
 9875SOL    HW130025   2.099   5.785   3.691  0.1569  0.4538 -0.1447
 9875SOL    HW230026   1.972   5.760   3.768 -1.2243  1.0706 -2.1248
 9876SOL     OW30027   1.417   6.391   5.918  0.5109 -0.0860  0.2945
 9876SOL    HW130028   1.401   6.457   5.852  0.0971 -0.8093 -0.3413
 9876SOL    HW230029   1.510   6.399   5.939  0.7290 -0.1071 -0.6571
 9877SOL     OW30030   2.542   5.385   6.007 -0.2427  0.1686  0.2467
 9877SOL    HW130031   2.493   5.450   6.057  0.0106 -0.0944  0.8597
 9877SOL    HW230032   2.629   5.423   5.997 -0.5109  0.5479 -0.6637
 9878SOL     OW30033   4.889   0.888   6.535 -0.0112 -0.6248 -0.0949
 9878SOL    HW130034   4.809   0.840   6.514 -2.5612  2.9690  0.4191
 9878SOL    HW230035   4.904   0.943   6.459  1.5445 -0.6647  0.1605
 9879SOL     OW30036   4.999   1.499   4.085  0.3096  0.0569  0.2776
 9879SOL    HW130037   4.968   1.485   3.996 -2.7921  1.0282  1.0607
 9879SOL    HW230038   5.011   1.594   4.091 -1.1319  0.2141  1.2807
 9880SOL     OW30039   2.809   2.513   6.401 -0.0136  0.2057 -0.4882
 9880SOL    HW130040   2.799   2.462   6.321  0.0877  1.6489 -1.4613
 9880SOL    HW230041   2.894   2.557   6.391 -0.3026  0.9269  0.0861
 9881SOL     OW30042   2.538   3.097   2.331  0.1369 -0.3573 -0.4616
 9881SOL    HW130043   2.557   3.123   2.241  2.5509  1.3916  0.4317
 9881SOL    HW230044   2.477   3.164   2.363 -2.1674 -1.9652 -1.2108
 9882SOL     OW30045   1.136   0.000   4.806 -0.0569  0.2961  0.4551
 9882SOL    HW130046   1.230  -0.013   4.799  0.1671  1.0658  1.8103
 9882SOL    HW230047   1.125   0.094   4.821 -0.9270  0.0071  1.8263
 9883SOL     OW30048   6.127   2.581   1.983 -0.2526  0.3218 -0.2050
 9883SOL    HW130049   6.041   2.622   1.997  0.4421  1.6531  0.3414
 9883SOL    HW230050   6.123   2.500   2.033 -0.7534  1.0066  0.9198
 9884SOL     OW30051   4.608   0.121   0.316 -0.3726  0.2318  0.4472
 9884SOL    HW130052   4.659   0.082   0.244 -0.6742  3.5687 -1.8382
 9884SOL    HW230053   4.655   0.095   0.395  2.6170 -0.1524 -1.2717
 9885SOL     OW30054   2.730   4.319   2.327 -0.3025 -0.4857 -0.1791
 9885SOL    HW130055   2.804   4.341   2.271  1.1381 -2.6550  0.7393
 9885SOL    HW230056   2.741   4.374   2.404 -0.0714 -0.2534 -0.3788
 9886SOL     OW30057   3.807   0.233   2.045  0.0038 -0.3789 -0.5335
 9886SOL    HW130058   3.734   0.237   2.107 -0.3937  1.6780 -1.0450
 9886SOL    HW230059   3.883   0.263   2.095 -0.1651  0.5388 -0.8038
 9887SOL     OW30060   4.432   5.146   1.716  0.2282  0.0481 -0.0624
 9887SOL    HW130061   4.448   5.083   1.645 -2.4107  1.2628 -1.8792
 9887SOL    HW230062   4.507   5.204   1.713  0.3662 -0.1484 -1.6680
 9888SOL     OW30063   6.497   2.407   4.501  0.4518 -0.3889  0.3328
 9888SOL    HW130064   6.591   2.406   4.483  0.0783 -0.0275 -1.9425
 9888SOL    HW230065   6.468   2.317   4.483 -0.2951  0.4430 -3.6751
 9889SOL     OW30066   3.569   6.287   3.087  0.9370  0.7362  0.3910
 9889SOL    HW130067   3.504   6.340   3.131 -0.5239 -0.2327 -0.4954
 9889SOL    HW230068   3.606   6.231   3.155  0.2100  0.6970  0.7569
 9890SOL     OW30069   1.702   3.482   5.703 -0.3094 -0.2597 -0.3174
 9890SOL    HW130070   1.667   3.560   5.745 -0.3637  0.2896 -1.3515
 9890SOL    HW230071   1.765   3.447   5.766 -1.5000 -0.3428  0.8715
 9891SOL     OW30072   1.779   4.599   4.709 -0.7306 -0.2021 -0.5970
 9891SOL    HW130073   1.874   4.609   4.724 -0.6746  1.0186 -1.5900
 9891SOL    HW230074   1.741   4.607   4.797  0.1491 -1.9615 -0.0097
 9892SOL     OW30075   1.281   0.275   0.060  0.4642 -0.2136  0.4246
 9892SOL    HW130076   1.360   0.225   0.080 -0.4219 -1.8667 -0.0170
 9892SOL    HW230077   1.266   0.261  -0.033  0.4059  1.2305  0.1949
 9893SOL     OW30078   0.155   0.716   0.489 -0.6140 -0.0507  0.4226
 9893SOL    HW130079   0.132   0.670   0.569 -3.2387 -1.1761 -0.8411
 9893SOL    HW230080   0.086   0.781   0.478 -0.0577  0.3871 -0.7007
 9894SOL     OW30081   3.939   0.122   0.353  0.0533 -0.2063  0.5130
 9894SOL    HW130082   3.907   0.076   0.431  0.4335  0.6741  1.2109
 9894SOL    HW230083   4.022   0.162   0.382  0.1580  0.1944 -0.3222
 9895SOL     OW30084   5.578   3.802   0.169 -0.0742 -0.3569  0.2350
 9895SOL    HW130085   5.519   3.869   0.132  1.1112  0.4917 -0.1640
 9895SOL    HW230086   5.599   3.835   0.257 -0.2689 -0.7199  0.4220
 9896SOL     OW30087   2.030   5.146   2.251 -0.0399 -0.8097 -0.1626
 9896SOL    HW130088   1.951   5.199   2.257  0.5351  0.0386  0.1427
 9896SOL    HW230089   2.102   5.208   2.263  0.6537 -1.6669  0.2931
 9897SOL     OW30090   0.301   2.892   1.474  0.1094  0.3885 -0.0098
 9897SOL    HW130091   0.343   2.908   1.389 -1.7846  0.5189 -0.9676
 9897SOL    HW230092   0.225   2.838   1.453 -0.3473  0.3454  1.6362
 9898SOL     OW30093   4.446   2.655   2.040  0.4224 -0.4169 -0.1417
 9898SOL    HW130094   4.443   2.650   2.135 -0.2147  0.8012 -0.0792
 9898SOL    HW230095   4.402   2.575   2.010 -2.3784  0.6977  0.6487
 9899SOL     OW30096   1.239   1.464   4.741 -0.0861 -0.2813  0.5897
 9899SOL    HW130097   1.168   1.400   4.735 -1.6070  1.4320 -0.9592
 9899SOL    HW230098   1.294   1.446   4.665 -2.5960  2.3964 -2.1648
 9900SOL     OW30099   0.829   2.143   3.995 -0.3355 -0.2590 -0.2249
 9900SOL    HW130100   0.847   2.191   4.076 -1.3689 -0.7919  0.3490
 9900SOL    HW230101   0.769   2.200   3.946 -1.2471 -0.7687  0.2766
 9901SOL     OW30102   0.345   5.022   3.630 -0.1447  0.0017 -0.6510
 9901SOL    HW130103   0.383   4.984   3.551  0.4749 -0.4349 -0.1487
 9901SOL    HW230104   0.407   5.000   3.700  1.2902  3.5291 -0.5879
 9902SOL     OW30105   1.691   0.162   1.049  0.3566  0.1668 -0.3908
 9902SOL    HW130106   1.694   0.255   1.025  2.8032  0.6934  1.5451
 9902SOL    HW230107   1.642   0.161   1.131  3.0734  0.3048  1.3330
 9903SOL     OW30108   2.319   5.549   2.409 -0.4259 -0.2549  0.0905
 9903SOL    HW130109   2.392   5.489   2.397  0.9563  1.1439  1.0990
 9903SOL    HW230110   2.358   5.627   2.449 -2.4880  0.5016  0.7662
 9904SOL     OW30111   2.227   2.576   6.702  0.2216 -0.0127 -0.9928
 9904SOL    HW130112   2.152   2.614   6.655 -0.3383  1.5578  1.0126
 9904SOL    HW230113   2.194   2.491   6.733 -1.4002  1.3321  1.2415
 9905SOL     OW30114   1.261   1.344   4.269  0.0333 -0.4346  0.3404
 9905SOL    HW130115   1.187   1.303   4.313 -0.5787 -0.8613 -1.0370
 9905SOL    HW230116   1.242   1.334   4.176  2.9030 -2.6360 -0.1656
 9906SOL     OW30117   0.943   4.626   4.461  0.2110  0.0475 -0.0964
 9906SOL    HW130118   0.887   4.571   4.406  0.0445 -0.5282  0.6404
 9906SOL    HW230119   0.905   4.620   4.548  1.3826 -0.3151  0.4088
 9907SOL     OW30120   2.332   6.531   3.802  0.4682  0.1123 -0.3796
 9907SOL    HW130121   2.417   6.573   3.815  0.0046  1.1832 -0.6918
 9907SOL    HW230122   2.271   6.603   3.788 -0.2864 -0.6791 -1.3758
 9908SOL     OW30123   3.505   4.833   2.228  0.2698  0.4798 -0.0209
 9908SOL    HW130124   3.426   4.886   2.241  0.7054  0.8589  1.1633
 9908SOL    HW230125   3.471   4.745   2.212 -0.4520  0.0642  3.0802
 9909SOL     OW30126   5.500   5.260   5.318 -0.2520 -0.2599 -0.1717
 9909SOL    HW130127   5.548   5.329   5.271  2.0499 -1.8090 -0.2658
 9909SOL    HW230128   5.509   5.284   5.411  0.3479 -0.2875 -0.2163
 9910SOL     OW30129   1.292   3.502   2.439 -0.3306  0.0294 -0.3889
 9910SOL    HW130130   1.202   3.511   2.469 -0.1209  0.5209  0.0885
 9910SOL    HW230131   1.316   3.412   2.463 -0.1580  0.4105  0.9491
 9911SOL     OW30132   5.588   0.777   4.357 -0.4715  0.0885 -0.4343
 9911SOL    HW130133   5.553   0.781   4.268  1.4718 -0.4865 -1.2765
 9911SOL    HW230134   5.554   0.856   4.399 -1.7690  0.1595 -1.5281
 9912SOL     OW30135   3.931   4.304   6.577 -0.0032  0.0329 -0.8357
 9912SOL    HW130136   3.894   4.392   6.568 -1.6883 -0.4712  0.5752
 9912SOL    HW230137   3.899   4.257   6.501 -2.5472 -0.4144  0.3876
 9913SOL     OW30138   0.434   0.075   1.625  0.2120  0.0534 -0.0860
 9913SOL    HW130139   0.385   0.049   1.547  1.2435 -0.0496 -0.7087
 9913SOL    HW230140   0.439   0.171   1.620  1.1097 -0.0137 -0.6702
 9914SOL     OW30141   5.080   0.121   3.673  0.3388  0.1455  0.1444
 9914SOL    HW130142   5.018   0.123   3.600 -0.9569  2.7064  1.2150
 9914SOL    HW230143   5.029   0.089   3.747  0.4097  1.7179  0.9023
 9915SOL     OW30144   5.169   6.730   3.270  0.0280  0.6923  0.1433
 9915SOL    HW130145   5.222   6.726   3.349  0.9189  3.2075 -0.2374
 9915SOL    HW230146   5.216   6.676   3.206 -0.9229 -1.7157  1.3353
 9916SOL     OW30147   3.658   1.000   1.183 -1.1040 -0.3518 -0.1627
 9916SOL    HW130148   3.642   1.078   1.236 -1.6047 -1.1143  0.8369
 9916SOL    HW230149   3.751   1.006   1.159 -1.1451  0.5502 -0.1032
 9917SOL     OW30150   3.377   1.916   0.403 -0.3390 -0.1650  0.3029
 9917SOL    HW130151   3.428   1.846   0.445 -1.6023 -1.3470 -0.0568
 9917SOL    HW230152   3.387   1.900   0.309  0.8432  1.2632  0.1559
 9918SOL     OW30153   0.090   6.346   0.544 -0.2702  0.0282  0.2953
 9918SOL    HW130154   0.076   6.413   0.612  1.1498 -0.0891  0.7443
 9918SOL    HW230155   0.160   6.382   0.490 -1.9612  0.5035 -1.6690
 9919SOL     OW30156   3.141   2.227   4.848 -0.1890 -0.1508  0.1547
 9919SOL    HW130157   3.234   2.251   4.857 -0.0228  0.1278 -1.8790
 9919SOL    HW230158   3.133   2.145   4.896  1.0993 -0.1825  0.3626
 9920SOL     OW30159   6.161   1.943   2.219  0.0813 -0.4342  0.1414
 9920SOL    HW130160   6.106   1.935   2.297 -0.7458 -0.6351 -0.4522
 9920SOL    HW230161   6.099   1.942   2.146  0.8260  0.0489 -0.5055
 9921SOL     OW30162   5.275   4.720   3.438  0.0288 -0.3962  0.7570
 9921SOL    HW130163   5.365   4.752   3.442 -0.6207  1.9566 -1.1991
 9921SOL    HW230164   5.226   4.780   3.495 -0.3841 -1.4873  1.5873
 9922SOL     OW30165   6.459   5.176   0.024 -0.0214 -0.1232  0.0131
 9922SOL    HW130166   6.365   5.162   0.011 -0.0762 -0.8096  1.0322
 9922SOL    HW230167   6.468   5.269   0.043 -0.7906 -0.4228  2.0971
 9923SOL     OW30168   1.884   1.070   4.026  0.7730 -0.0095 -0.0221
 9923SOL    HW130169   1.977   1.077   4.009  0.9655 -0.1134  0.9402
 9923SOL    HW230170   1.842   1.110   3.950  1.5978  0.0082 -0.4684
 9924SOL     OW30171   2.953   5.352   1.340  0.3604  0.1267  0.0102
 9924SOL    HW130172   3.000   5.355   1.257 -0.9827  0.7970 -0.7599
 9924SOL    HW230173   2.863   5.378   1.318 -1.0281 -3.2423  1.0287
 9925SOL     OW30174   5.845   1.643   3.682 -0.1159  0.0997  0.2084
 9925SOL    HW130175   5.807   1.689   3.607  1.1088  0.7279 -0.0554
 9925SOL    HW230176   5.860   1.554   3.650 -0.5150  0.0897  0.0353
 9926SOL     OW30177   0.536   6.609   4.682  0.3496 -0.1187  0.7373
 9926SOL    HW130178   0.609   6.548   4.675  0.0363 -0.3488 -0.7299
 9926SOL    HW230179   0.556   6.678   4.620 -1.2321 -0.7791 -0.5761
 9927SOL     OW30180   5.290   0.068   1.056  0.3547  0.3565  0.4965
 9927SOL    HW130181   5.332  -0.016   1.039 -2.3881 -0.7804 -1.4965
 9927SOL    HW230182   5.272   0.104   0.969 -1.0393  1.6420  1.2737
 9928SOL     OW30183   3.661   5.706   2.880 -0.0773  0.0557 -0.3706
 9928SOL    HW130184   3.625   5.689   2.793 -0.6074 -0.5690 -0.0416
 9928SOL    HW230185   3.736   5.647   2.887 -0.2751 -0.1882 -0.2623
 9929SOL     OW30186   1.316   0.894   3.510 -0.1568  0.0316  0.0561
 9929SOL    HW130187   1.296   0.987   3.523 -0.7820 -0.4503  3.5205
 9929SOL    HW230188   1.391   0.878   3.567  1.0801 -1.2881 -1.8349
 9930SOL     OW30189   1.017   2.209   4.451  0.4834 -0.1939  0.4567
 9930SOL    HW130190   1.027   2.300   4.478  0.1669  0.4326 -1.3718
 9930SOL    HW230191   1.106   2.174   4.449  0.5429 -0.1646  1.8681
 9931SOL     OW30192   1.637   0.457   0.365  0.0835 -0.3467  0.8103
 9931SOL    HW130193   1.653   0.509   0.444  1.1415  0.2666  0.2117
 9931SOL    HW230194   1.553   0.489   0.331  0.2297  0.2500  1.0078
 9932SOL     OW30195   3.496   5.719   0.521  0.3145  0.5473 -0.1651
 9932SOL    HW130196   3.441   5.795   0.543 -2.3121 -1.4068  0.5401
 9932SOL    HW230197   3.542   5.699   0.603  1.4061  1.6008 -0.4866
 9933SOL     OW30198   6.276   5.056   1.265 -0.2184 -0.4357 -0.3777
 9933SOL    HW130199   6.297   5.149   1.272  1.3134 -0.7596 -0.1719
 9933SOL    HW230200   6.248   5.031   1.354  2.4395 -0.8109  0.4360
 9934SOL     OW30201   6.397   2.184   5.213  0.4185 -0.0747  0.3883
 9934SOL    HW130202   6.490   2.173   5.193  0.4168  0.2254  0.1965
 9934SOL    HW230203   6.394   2.260   5.272  0.5552 -1.7621  2.7015
 9935SOL     OW30204   2.538   3.494   1.594  0.0119  0.1666 -0.2518
 9935SOL    HW130205   2.619   3.444   1.602 -0.7736 -0.9781  0.8859
 9935SOL    HW230206   2.480   3.457   1.660 -1.3965  1.0702 -0.9293
 9936SOL     OW30207   3.438   0.511   0.726 -0.4840 -0.1113 -0.2396
 9936SOL    HW130208   3.521   0.554   0.705 -1.5431  0.9370 -2.6655
 9936SOL    HW230209   3.416   0.462   0.647 -3.6147  2.1047 -0.9117
 9937SOL     OW30210   0.463   1.573   1.589 -0.6192  0.7407  0.3068
 9937SOL    HW130211   0.507   1.490   1.606  0.9374  1.5953  0.5991
 9937SOL    HW230212   0.370   1.553   1.600 -0.4182 -1.3153 -1.1360
 9938SOL     OW30213   1.222   2.778   2.200 -0.3349 -0.3886  0.0067
 9938SOL    HW130214   1.201   2.701   2.253  2.0456 -3.0981 -2.6164
 9938SOL    HW230215   1.161   2.773   2.127  0.2455 -0.2129 -0.4999
 9939SOL     OW30216   2.051   1.912   0.276 -0.6186  0.4907 -0.0705
 9939SOL    HW130217   1.957   1.912   0.294 -1.2212 -1.5110 -2.5554
 9939SOL    HW230218   2.063   1.984   0.213 -0.3737  1.0666  0.6259
 9940SOL     OW30219   2.525   4.376   2.962 -0.3284 -0.6278  0.1548
 9940SOL    HW130220   2.493   4.306   2.903 -3.2688 -1.7998  2.8566
 9940SOL    HW230221   2.559   4.329   3.038  1.3082  0.8879  0.4111
 9941SOL     OW30222   2.854   0.491   6.231  0.0916 -0.1858  0.0192
 9941SOL    HW130223   2.858   0.461   6.140  0.9974 -0.2165  0.0583
 9941SOL    HW230224   2.853   0.586   6.224  0.5452 -0.1784 -0.0250
 9942SOL     OW30225   4.408   1.719   2.500  0.5028 -0.6193 -0.5912
 9942SOL    HW130226   4.428   1.802   2.456  1.1918 -0.9384 -0.8877
 9942SOL    HW230227   4.437   1.652   2.438  0.1625 -1.0812 -0.2507
 9943SOL     OW30228   3.028   2.865   2.598  0.1643 -0.4526 -0.2002
 9943SOL    HW130229   3.115   2.853   2.559  1.0825 -4.7852  2.4538
 9943SOL    HW230230   3.046   2.890   2.689 -1.5965  1.6423 -0.3535
 9944SOL     OW30231   0.741   1.778   1.834 -0.4206 -0.4288  0.6366
 9944SOL    HW130232   0.694   1.799   1.753  0.1334 -2.5250 -0.3080
 9944SOL    HW230233   0.672   1.765   1.899 -0.8224  3.5796  1.2559
 9945SOL     OW30234   0.509   4.364   6.682  0.2006  0.1046  0.1172
 9945SOL    HW130235   0.476   4.296   6.740 -1.3124 -0.7926 -1.7013
 9945SOL    HW230236   0.450   4.438   6.696 -1.4807 -0.8198 -1.6901
 9946SOL     OW30237   0.125   6.642   0.130  0.1453 -0.2822  0.3490
 9946SOL    HW130238   0.060   6.692   0.178 -0.2347  1.0227 -1.4441
 9946SOL    HW230239   0.157   6.701   0.062  1.3793 -1.7213 -0.4038
 9947SOL     OW30240   4.495   0.324   2.656 -0.3396 -0.4457 -0.4493
 9947SOL    HW130241   4.527   0.313   2.566  0.8180  0.1457 -0.1230
 9947SOL    HW230242   4.518   0.241   2.699  2.1793  0.5064  0.1771
 9948SOL     OW30243   3.043   2.838   2.175  0.8081  0.1309 -0.3412
 9948SOL    HW130244   3.002   2.914   2.133 -0.2462  0.2368  0.8057
 9948SOL    HW230245   3.132   2.867   2.194 -0.0168  1.7389  1.5156
 9949SOL     OW30246   5.457   4.387   3.656 -0.4176  0.2719 -0.2717
 9949SOL    HW130247   5.373   4.399   3.701 -0.8429  1.2164 -1.2694
 9949SOL    HW230248   5.436   4.327   3.583  0.1145 -0.6976  0.3540
 9950SOL     OW30249   1.983   3.129   3.347  0.4738 -0.2725  0.0455
 9950SOL    HW130250   2.003   3.039   3.372 -0.1809 -0.8773 -1.4772
 9950SOL    HW230251   2.044   3.182   3.397  0.3028 -1.4866  1.6443
 9951SOL     OW30252   6.178   0.736   4.676 -0.6702 -0.0471 -0.0377
 9951SOL    HW130253   6.124   0.729   4.596 -0.0617  1.8721 -0.6768
 9951SOL    HW230254   6.149   0.818   4.717 -1.2746 -1.2163  1.9902
 9952SOL     OW30255   2.662   2.332   2.667  0.1373  0.1735 -0.4191
 9952SOL    HW130256   2.592   2.355   2.606  0.3296  0.3997 -0.5554
 9952SOL    HW230257   2.617   2.295   2.743 -0.1294  0.3231 -0.5058
 9953SOL     OW30258   0.092   3.022   1.260 -0.0716 -0.3152  0.3755
 9953SOL    HW130259   0.062   3.036   1.170 -2.3767 -1.2049  0.9303
 9953SOL    HW230260   0.103   2.927   1.268 -0.9100 -0.3625  1.2747
 9954SOL     OW30261   3.359   6.647   5.748 -0.0433  0.1999 -0.3294
 9954SOL    HW130262   3.309   6.643   5.829  0.5361  0.0358  0.0249
 9954SOL    HW230263   3.395   6.736   5.747  2.5733 -0.7039  1.2231
 9955SOL     OW30264   4.932   3.333   1.512  0.3409  0.3790 -0.2741
 9955SOL    HW130265   4.942   3.281   1.433 -1.6192 -1.2462  0.4832
 9955SOL    HW230266   5.002   3.303   1.570  0.2484 -0.2042 -0.4671
 9956SOL     OW30267   0.100   0.566   0.279 -0.2094 -0.2272 -0.0137
 9956SOL    HW130268   0.020   0.531   0.316 -0.2799 -0.7143 -0.5965
 9956SOL    HW230269   0.146   0.608   0.352 -0.4294 -0.9894  0.5615
 9957SOL     OW30270   4.206   3.279   0.661 -0.3664  0.0890 -0.2306
 9957SOL    HW130271   4.179   3.346   0.723 -0.6561 -1.1045  0.9670
 9957SOL    HW230272   4.171   3.197   0.696  3.2476 -1.3547  0.5113
 9958SOL     OW30273   3.082   2.797   3.636 -0.2713 -0.4131 -0.1499
 9958SOL    HW130274   3.052   2.737   3.704 -1.7090 -0.2902 -0.6545
 9958SOL    HW230275   3.027   2.778   3.560  0.7396  0.0351 -1.0283
 9959SOL     OW30276   0.661   3.147   5.206 -0.2414  0.3508 -0.0814
 9959SOL    HW130277   0.710   3.214   5.159 -0.6749  0.1095 -0.9083
 9959SOL    HW230278   0.583   3.192   5.238 -0.6411  0.2155 -0.8240
 9960SOL     OW30279   2.223   6.700   1.814  0.5450 -0.4394 -0.2815
 9960SOL    HW130280   2.282   6.726   1.885 -1.4799  1.4195  0.8387
 9960SOL    HW230281   2.214   6.778   1.759  0.3031 -1.1525 -1.2916
 9961SOL     OW30282   2.083   3.198   2.232  0.1525 -0.4622  0.2098
 9961SOL    HW130283   2.155   3.233   2.284  1.7763 -1.4696 -1.2577
 9961SOL    HW230284   2.109   3.212   2.141 -1.0436 -1.7475 -0.3822
 9962SOL     OW30285   1.304   1.741   1.675  0.0053  0.0217 -0.0707
 9962SOL    HW130286   1.243   1.752   1.602 -2.1383  0.9885  1.7865
 9962SOL    HW230287   1.360   1.819   1.671  0.0613 -0.0464 -0.7829
 9963SOL     OW30288   1.666   1.317   3.351  0.1352 -0.4015  0.0751
 9963SOL    HW130289   1.626   1.404   3.362 -1.6471 -1.3822  2.0322
 9963SOL    HW230290   1.597   1.265   3.310  0.8815 -1.1203 -0.2682
 9964SOL     OW30291   1.325   5.597   2.051  0.0017 -0.2842 -0.1139
 9964SOL    HW130292   1.272   5.521   2.075 -0.5312  0.2195  0.3520
 9964SOL    HW230293   1.312   5.659   2.123 -1.3316  1.1317 -1.4982
 9965SOL     OW30294   1.766   2.160   5.396  0.5643 -0.3316  0.2431
 9965SOL    HW130295   1.809   2.162   5.311  0.4667  0.5942  0.2085
 9965SOL    HW230296   1.758   2.067   5.417  1.3246 -0.5452 -0.3811
 9966SOL     OW30297   2.369   0.880   1.910  0.0168  0.3708  0.3337
 9966SOL    HW130298   2.433   0.897   1.841  1.8977 -0.7963  1.7039
 9966SOL    HW230299   2.299   0.831   1.867  2.0062 -1.9396 -0.4319
 9967SOL     OW30300   3.492   3.872   4.699  0.5227  1.1160  0.1040
 9967SOL    HW130301   3.505   3.784   4.664 -0.4285  0.6667  0.8503
 9967SOL    HW230302   3.561   3.881   4.765  0.4664  0.8430  0.1999
 9968SOL     OW30303   3.500   5.368   2.511 -0.0919  0.3446  0.3795
 9968SOL    HW130304   3.422   5.346   2.459  0.1990  0.5781 -0.1618
 9968SOL    HW230305   3.485   5.325   2.595  0.7472 -2.5598 -0.8213
 9969SOL     OW30306   4.757   3.890   1.693 -0.2805 -0.0470  0.0803
 9969SOL    HW130307   4.697   3.955   1.657 -1.1719 -1.2083 -0.5861
 9969SOL    HW230308   4.804   3.937   1.762 -1.4207  1.0990  0.1206
 9970SOL     OW30309   3.418   5.801   3.128 -0.0397  0.2528  0.1479
 9970SOL    HW130310   3.503   5.829   3.096  0.3769 -1.0787  0.0492
 9970SOL    HW230311   3.356   5.828   3.060  0.5948 -0.8245 -0.8670
 9971SOL     OW30312   5.014   4.014   6.269 -0.1494  0.6572 -0.0420
 9971SOL    HW130313   5.060   4.025   6.352  0.7813  0.4947 -0.5265
 9971SOL    HW230314   5.045   4.086   6.214  0.5060 -0.1742 -0.7991
 9972SOL     OW30315   3.470   2.952   6.366 -0.7257 -0.9020  0.4544
 9972SOL    HW130316   3.408   2.974   6.297  0.1416  0.3006  0.0330
 9972SOL    HW230317   3.417   2.953   6.446 -1.2073  0.4047  0.1408
 9973SOL     OW30318   1.727   4.199   5.767  0.3713  0.3222 -0.4712
 9973SOL    HW130319   1.728   4.218   5.861  0.8041  1.2880 -0.6621
 9973SOL    HW230320   1.652   4.248   5.734 -0.2254 -0.5983 -0.5275
 9974SOL     OW30321   0.990   2.424   1.616  0.2068  0.0834  0.0029
 9974SOL    HW130322   1.051   2.390   1.682 -0.4801  0.7535  0.9973
 9974SOL    HW230323   1.016   2.379   1.535  1.7762  0.0635  0.4722
 9975SOL     OW30324   2.613   3.477   2.462  0.2603 -0.2570  0.0523
 9975SOL    HW130325   2.545   3.409   2.467 -1.0560  0.9183 -1.0316
 9975SOL    HW230326   2.570   3.550   2.418  2.6773  0.0366 -2.0195
 9976SOL     OW30327   5.025   5.747   2.113 -0.2785  0.1487  0.0039
 9976SOL    HW130328   5.051   5.669   2.064 -0.7242 -0.0754  0.1155
 9976SOL    HW230329   5.032   5.721   2.204 -1.8996 -0.2743  0.0379
 9977SOL     OW30330   1.781   2.660   1.275  0.0225 -0.1227 -0.2732
 9977SOL    HW130331   1.815   2.619   1.355  0.0267 -1.3208 -0.8712
 9977SOL    HW230332   1.790   2.754   1.291  1.0106 -0.3605  0.7067
 9978SOL     OW30333   3.001   5.327   5.479  0.5137  0.3929 -0.6341
 9978SOL    HW130334   2.956   5.402   5.519 -1.0042 -1.8130  2.1691
 9978SOL    HW230335   3.094   5.345   5.494  0.1120  1.0263  1.4806
 9979SOL     OW30336   3.009   3.905   3.386  0.0733  0.3008 -0.3392
 9979SOL    HW130337   2.941   3.892   3.320 -0.6976  0.8657  0.3267
 9979SOL    HW230338   3.054   3.821   3.391 -1.3099 -0.4495  0.0153
 9980SOL     OW30339   3.660   3.934   4.903 -0.6012 -0.0033 -0.2322
 9980SOL    HW130340   3.579   3.968   4.941 -0.8374 -2.2427  1.5073
 9980SOL    HW230341   3.730   3.976   4.953 -0.6185  1.8055 -1.6257
 9981SOL     OW30342   2.581   4.585   1.485  0.1252 -0.0609  0.5435
 9981SOL    HW130343   2.563   4.588   1.391  0.0103 -1.0403  0.5158
 9981SOL    HW230344   2.548   4.668   1.519 -0.4858  0.0060 -0.1788
 9982SOL     OW30345   4.857   5.583   5.306 -0.2167 -0.0890 -0.1242
 9982SOL    HW130346   4.941   5.612   5.342 -0.7295  1.1704  0.1095
 9982SOL    HW230347   4.876   5.565   5.214 -0.0532  2.0180 -0.5579
 9983SOL     OW30348   4.776   2.247   4.229  0.1105  0.3629 -0.0462
 9983SOL    HW130349   4.870   2.231   4.228 -0.1011 -0.9420 -0.0883
 9983SOL    HW230350   4.744   2.201   4.306 -0.4510  1.1500  0.2113
 9984SOL     OW30351   4.173   5.834   0.197  0.5605  0.1421  0.4299
 9984SOL    HW130352   4.212   5.763   0.248  0.5621  0.8846  1.4742
 9984SOL    HW230353   4.079   5.826   0.214  0.1945 -1.3423 -1.6996
 9985SOL     OW30354   4.962   2.806   2.265  0.6372  0.2680  0.2887
 9985SOL    HW130355   4.943   2.818   2.358 -0.0272 -0.4967  0.2561
 9985SOL    HW230356   4.885   2.841   2.220 -0.0556 -1.4309  0.1103
 9986SOL     OW30357   4.777   2.029   0.469  0.2249 -0.3623  0.4422
 9986SOL    HW130358   4.868   2.032   0.496  0.2396  0.0898  0.3491
 9986SOL    HW230359   4.746   2.120   0.477  0.0469 -0.3377 -0.4209
 9987SOL     OW30360   3.881   1.718   5.060 -0.4345  0.3440 -0.7576
 9987SOL    HW130361   3.954   1.721   5.122 -0.1336 -1.5599 -0.9366
 9987SOL    HW230362   3.850   1.808   5.054  1.2426  1.0245  0.1107
 9988SOL     OW30363   1.725   3.259   3.364 -0.1456 -0.2723 -0.1546
 9988SOL    HW130364   1.807   3.218   3.390  0.4556  0.8927 -0.1603
 9988SOL    HW230365   1.670   3.255   3.442  0.2462 -0.2503  0.1213
 9989SOL     OW30366   0.861   3.551   6.356  0.5081  0.8142  0.6102
 9989SOL    HW130367   0.821   3.488   6.297 -0.0828  1.1906  0.6001
 9989SOL    HW230368   0.933   3.590   6.305  1.4164 -0.4305  0.9030
 9990SOL     OW30369   4.941   5.598   5.050  0.4979 -0.4083  0.1017
 9990SOL    HW130370   4.861   5.642   5.021  0.7331 -0.9923 -1.5010
 9990SOL    HW230371   4.991   5.584   4.970  0.1251 -4.2618  0.3442
 9991SOL     OW30372   4.882   4.732   4.763 -0.1316 -0.1917  0.1636
 9991SOL    HW130373   4.809   4.753   4.704  1.1326  0.5234 -1.2405
 9991SOL    HW230374   4.946   4.801   4.746  2.0215 -2.2474 -0.6984
 9992SOL     OW30375   0.712   1.783   6.443 -0.2532 -0.0242  0.5623
 9992SOL    HW130376   0.707   1.691   6.466 -1.9889 -0.3566 -0.8924
 9992SOL    HW230377   0.629   1.820   6.475 -0.1527  0.7282 -0.0083
 9993SOL     OW30378   3.315   3.301   3.415  0.6628 -0.7049 -0.0895
 9993SOL    HW130379   3.390   3.358   3.400 -0.2249  0.4992 -0.1389
 9993SOL    HW230380   3.283   3.278   3.328  1.2905 -1.6696 -0.0744
 9994SOL     OW30381   3.128   6.426   6.233  0.2651 -0.4062  0.7212
 9994SOL    HW130382   3.222   6.412   6.239  0.4050 -0.1315 -0.5671
 9994SOL    HW230383   3.089   6.346   6.268  1.0090 -1.7007 -1.2846
 9995SOL     OW30384   4.870   4.194   6.596 -0.6071  0.5754 -0.5376
 9995SOL    HW130385   4.822   4.119   6.631 -1.1067  0.9441 -0.4131
 9995SOL    HW230386   4.805   4.264   6.592 -0.1659  0.9821 -0.7191
 9996SOL     OW30387   3.007   0.821   1.581  0.1688  0.3842 -0.4609
 9996SOL    HW130388   3.013   0.736   1.624 -0.3197  0.4295 -0.3019
 9996SOL    HW230389   3.037   0.805   1.491  0.9149  0.2327 -0.1878
 9997SOL     OW30390   2.727   2.859   3.323  0.7290 -0.0707 -0.1625
 9997SOL    HW130391   2.726   2.901   3.237 -1.7612  3.0873  1.1975
 9997SOL    HW230392   2.636   2.829   3.335  1.3979 -1.8378  0.8293
 9998SOL     OW30393   2.948   4.589   5.220 -0.2875 -0.5219 -0.0236
 9998SOL    HW130394   3.033   4.605   5.261  0.8188 -1.8012 -1.6954
 9998SOL    HW230395   2.889   4.574   5.294  0.7678  1.0229  1.1985
 9999SOL     OW30396   2.551   6.768   6.637 -0.6201 -0.2157  0.2325
 9999SOL    HW130397   2.608   6.772   6.560 -0.3368  0.5144  0.4756
 9999SOL    HW230398   2.543   6.859   6.666 -2.6101 -0.1494 -0.3071
10000SOL     OW30399   2.516   5.265   0.019 -0.1481  0.3205 -0.9548
10000SOL    HW130400   2.576   5.228   0.083 -1.4384  0.0396  0.1379
10000SOL    HW230401   2.537   5.358   0.018 -1.1729  0.6331  1.1416
10001SOL     OW30402   2.260   3.815   1.030 -0.3374 -0.6183 -0.5654
10001SOL    HW130403   2.258   3.752   1.102  2.6714 -1.5500 -1.1819
10001SOL    HW230404   2.189   3.876   1.051 -0.4591 -1.6025  2.4439
10002SOL     OW30405   5.183   4.829   6.319  1.2288 -0.7147  0.0747
10002SOL    HW130406   5.139   4.753   6.358 -2.1058 -0.2263 -2.2502
10002SOL    HW230407   5.252   4.791   6.264  1.7832 -1.7808  1.4689
10003SOL     OW30408   0.035   3.743   2.025  0.2116 -0.2006  0.0159
10003SOL    HW130409   0.017   3.824   2.072  1.5471  0.4158 -0.4854
10003SOL    HW230410   0.012   3.673   2.086 -0.6885  0.5527  0.5505
10004SOL     OW30411   4.306   1.502   6.384  0.0852 -0.0293  0.1624
10004SOL    HW130412   4.355   1.424   6.411  0.0202 -0.1250  0.0078
10004SOL    HW230413   4.343   1.525   6.299  0.4489  0.4083  0.4361
10005SOL     OW30414   3.137   4.480   0.740  0.0798  0.0227  0.0622
10005SOL    HW130415   3.096   4.409   0.788  1.4286  0.2603  1.6518
10005SOL    HW230416   3.209   4.509   0.796  1.4056  0.6774 -1.8590
10006SOL     OW30417   3.853   6.253   0.035  0.3665 -0.8386  0.3383
10006SOL    HW130418   3.801   6.241   0.115  1.1146 -0.3836  0.9092
10006SOL    HW230419   3.790   6.285  -0.029 -0.1538 -0.7264  0.8878
10007SOL     OW30420   0.726   5.893   1.311 -0.2906 -0.4201  0.3207
10007SOL    HW130421   0.800   5.838   1.286  1.8036  2.9354 -1.6092
10007SOL    HW230422   0.754   5.938   1.390 -1.1208 -0.5831  0.7228
10008SOL     OW30423   5.676   6.253   6.740 -0.0389  0.2218 -0.2049
10008SOL    HW130424   5.726   6.334   6.750  0.3786  0.1829 -1.7095
10008SOL    HW230425   5.585   6.282   6.732 -0.2216  0.3411  1.7627
10009SOL     OW30426   3.698   5.990   4.367  0.7425 -0.0030  0.3229
10009SOL    HW130427   3.692   6.039   4.285  0.3553 -0.6455 -0.0451
10009SOL    HW230428   3.606   5.977   4.393  0.8342 -0.6595  0.3291
10010SOL     OW30429   0.820   6.619   6.022 -0.6840  0.0889 -0.0776
10010SOL    HW130430   0.890   6.649   6.080  0.1938  0.7635 -1.4448
10010SOL    HW230431   0.740   6.632   6.072  0.0298  0.8827  0.8834
10011SOL     OW30432   5.157   4.686   4.525 -0.1065  0.3693 -0.1150
10011SOL    HW130433   5.242   4.654   4.497  0.3308  1.1288  0.3003
10011SOL    HW230434   5.162   4.781   4.514 -0.6484  0.4897  0.5828
10012SOL     OW30435   1.754   1.208   2.712  0.0811 -0.2982  0.7187
10012SOL    HW130436   1.665   1.197   2.744 -0.0332 -1.1262  0.1391
10012SOL    HW230437   1.770   1.303   2.717  0.0778 -0.3724  3.1996
10013SOL     OW30438   5.004   2.674   2.951 -0.0430 -0.3802  0.2800
10013SOL    HW130439   4.995   2.585   2.918 -1.7916 -0.3321  0.5153
10013SOL    HW230440   4.977   2.668   3.043  1.5451  0.0840  0.8031
10014SOL     OW30441   1.445   6.225   3.114 -0.0908  0.6269  0.2459
10014SOL    HW130442   1.373   6.214   3.052 -1.7363  2.1700  1.7920
10014SOL    HW230443   1.481   6.312   3.095 -0.5044  1.0462  1.3176
10015SOL     OW30444   1.370   5.603   5.451 -0.1230 -0.1866  0.0545
10015SOL    HW130445   1.342   5.568   5.536  0.6382 -0.0896  0.3537
10015SOL    HW230446   1.346   5.535   5.388 -0.7476 -0.2330  0.3362
10016SOL     OW30447   5.862   2.454   1.145  0.6627 -0.5024  0.3704
10016SOL    HW130448   5.939   2.398   1.138  0.9355 -0.1211  0.3438
10016SOL    HW230449   5.879   2.511   1.220  1.8731  1.8318 -1.5341
10017SOL     OW30450   1.044   6.331   3.359  0.2819  0.0782  0.3401
10017SOL    HW130451   1.069   6.386   3.433 -0.6714 -2.6175  2.8324
10017SOL    HW230452   1.122   6.279   3.340  0.3474  0.3690 -0.2189
10018SOL     OW30453   2.793   3.783   0.107  0.2021 -0.3454  0.1299
10018SOL    HW130454   2.796   3.781   0.011 -0.0136  0.1316  0.1082
10018SOL    HW230455   2.825   3.870   0.130  0.5679 -0.5737  0.5109
10019SOL     OW30456   6.383   5.721   2.810  0.2148  0.0234 -0.3790
10019SOL    HW130457   6.457   5.749   2.755 -0.6423  1.7721 -0.6934
10019SOL    HW230458   6.320   5.792   2.804  0.1822  0.4398  3.1562
10020SOL     OW30459   0.345   3.463   6.205 -0.0051 -0.2736  0.2627
10020SOL    HW130460   0.373   3.476   6.296  0.7278 -0.8971  0.1437
10020SOL    HW230461   0.268   3.407   6.212 -0.6295  0.5986  0.5470
10021SOL     OW30462   1.481   4.028   0.868  0.1387 -0.3619  0.4339
10021SOL    HW130463   1.517   4.076   0.943  0.2928  1.7018 -0.8967
10021SOL    HW230464   1.407   3.980   0.905 -1.9403  3.1826  1.4224
10022SOL     OW30465   1.309   2.698   6.587  0.5829  0.5761 -0.2540
10022SOL    HW130466   1.250   2.657   6.650  0.6882 -1.1748 -1.2440
10022SOL    HW230467   1.394   2.657   6.602  1.0206  1.3955 -0.3999
10023SOL     OW30468   0.003   6.342   4.249  0.1670  0.2118  0.1456
10023SOL    HW130469  -0.071   6.396   4.218  1.3981  0.5290 -2.5892
10023SOL    HW230470  -0.028   6.252   4.242 -0.7472  0.4078  1.3992
10024SOL     OW30471   5.599   0.142   1.729  0.0899  0.3468  0.2120
10024SOL    HW130472   5.524   0.199   1.739 -0.1705 -0.3285  2.6773
10024SOL    HW230473   5.571   0.058   1.764  1.2838 -0.6011 -0.9536
10025SOL     OW30474   2.096   2.485   2.905 -0.3787  0.5593  0.2412
10025SOL    HW130475   2.173   2.432   2.884 -0.6718  0.0677  0.3754
10025SOL    HW230476   2.052   2.499   2.822 -0.9480 -0.4454  0.3632
10026SOL     OW30477   6.682   3.667   4.565 -0.2842  0.3682  0.0892
10026SOL    HW130478   6.740   3.649   4.491 -0.1205 -1.5372  0.6384
10026SOL    HW230479   6.734   3.644   4.642 -0.6697  1.7393  0.7941
10027SOL     OW30480   0.786   6.270   0.789 -0.2760  0.6789  0.1826
10027SOL    HW130481   0.880   6.254   0.782 -0.1799  0.4160  1.6663
10027SOL    HW230482   0.779   6.365   0.805 -0.0429  0.3747  2.5038
10028SOL     OW30483   6.095   5.676   0.739 -0.0798  0.1219 -0.2760
10028SOL    HW130484   6.069   5.589   0.767  0.6926 -0.2951 -0.8062
10028SOL    HW230485   6.139   5.714   0.815  3.2569 -1.5226 -1.1888
10029SOL     OW30486   6.119   3.043   6.412 -0.4457 -0.3628  0.3667
10029SOL    HW130487   6.117   2.980   6.484 -1.0478 -1.7123 -0.7783
10029SOL    HW230488   6.079   2.996   6.338  1.7519  0.3018 -1.3618
10030SOL     OW30489   6.308   4.628   0.723  0.0795 -0.2061 -0.3549
10030SOL    HW130490   6.255   4.560   0.765  0.5388 -0.3455  0.0149
10030SOL    HW230491   6.398   4.608   0.750  0.1125  1.1548  0.6013
10031SOL     OW30492   6.015   1.527   1.468  0.7019 -0.4104 -0.1998
10031SOL    HW130493   5.970   1.444   1.458  0.8294 -0.7050  1.3714
10031SOL    HW230494   6.108   1.503   1.472  0.6563 -0.3900  1.7399
10032SOL     OW30495   6.267   1.274   2.373 -0.1131 -0.1693  0.4721
10032SOL    HW130496   6.308   1.202   2.421  0.7375  0.0736  0.1303
10032SOL    HW230497   6.287   1.254   2.281 -2.6800 -1.2482  0.0698
10033SOL     OW30498   1.647   4.840   1.750 -0.4372 -0.4081  0.4287
10033SOL    HW130499   1.591   4.763   1.761 -0.8020 -0.4660 -1.4890
10033SOL    HW230500   1.586   4.913   1.743 -0.2067 -0.2591 -0.0623
10034SOL     OW30501   1.114   5.972   2.842 -0.4425 -0.3576  0.1952
10034SOL    HW130502   1.036   6.027   2.830  1.1740  1.6637 -1.7340
10034SOL    HW230503   1.109   5.909   2.770 -0.0793  0.0894 -0.2307
10035SOL     OW30504   5.385   2.673   1.989  0.1601  0.1862 -0.1042
10035SOL    HW130505   5.304   2.622   1.985 -0.9976  1.9383 -0.2691
10035SOL    HW230506   5.415   2.665   2.079 -0.0494 -0.6696 -0.1025
10036SOL     OW30507   1.112   4.211   4.005 -0.6637 -0.2331 -0.6162
10036SOL    HW130508   1.186   4.229   3.948 -0.0922  1.5926  0.5944
10036SOL    HW230509   1.138   4.133   4.054  1.4261  1.4044  1.1479
10037SOL     OW30510   2.796   2.613   6.731 -0.0276 -0.1147 -0.4040
10037SOL    HW130511   2.848   2.536   6.709 -0.5515 -0.1721 -1.5177
10037SOL    HW230512   2.774   2.652   6.647 -0.7595  0.5944  0.0972
10038SOL     OW30513   2.415   2.674   1.450  0.4678  0.2832  0.3740
10038SOL    HW130514   2.458   2.649   1.532 -0.4446  0.6779  0.9827
10038SOL    HW230515   2.326   2.640   1.459  0.2200  0.7705 -0.2396
10039SOL     OW30516   3.395   1.471   1.538  0.0232  0.2312  0.1370
10039SOL    HW130517   3.331   1.542   1.531 -1.1153 -0.9408 -3.0652
10039SOL    HW230518   3.344   1.395   1.567  0.5467 -0.0995  0.2095
10040SOL     OW30519   2.295   3.117   1.625 -0.1941  0.0114 -0.3126
10040SOL    HW130520   2.267   3.034   1.587  2.4968  0.3217 -3.3940
10040SOL    HW230521   2.225   3.179   1.602 -0.5795 -0.7031 -1.1016
10041SOL     OW30522   3.820   4.457   3.785  0.1994 -0.9616  0.0308
10041SOL    HW130523   3.844   4.380   3.838 -1.5276 -1.8231 -0.3708
10041SOL    HW230524   3.737   4.486   3.822 -0.0065 -0.3170 -0.9216
10042SOL     OW30525   2.393   5.484   4.142  0.0320 -0.1719 -0.3272
10042SOL    HW130526   2.487   5.464   4.144 -0.0219 -0.5284 -0.9025
10042SOL    HW230527   2.378   5.538   4.219  0.8933  0.7055 -0.7577
10043SOL     OW30528   6.261   3.903   1.320 -0.0337  0.6006  0.3011
10043SOL    HW130529   6.310   3.858   1.252 -0.6441  1.3259 -0.6469
10043SOL    HW230530   6.224   3.833   1.374 -0.2613 -0.0117 -0.6284
10044SOL     OW30531   1.773   2.382   4.734 -0.3747 -0.0960 -0.2383
10044SOL    HW130532   1.733   2.351   4.652  2.4036 -1.9197 -1.0379
10044SOL    HW230533   1.714   2.349   4.802 -1.5050 -0.6212 -1.4184
10045SOL     OW30534   5.770   6.759   1.341  0.3828  0.5859  0.3011
10045SOL    HW130535   5.784   6.851   1.318 -0.3434  0.8669  0.9403
10045SOL    HW230536   5.794   6.753   1.433  0.8715  0.0245  0.1427
10046SOL     OW30537   5.726   5.530   5.907  0.0116  0.4622  0.2919
10046SOL    HW130538   5.767   5.603   5.954  0.8475 -0.0144  0.3226
10046SOL    HW230539   5.788   5.458   5.916  0.1146  0.3003 -1.3979
10047SOL     OW30540   3.172   3.601   5.289 -0.2690 -0.2042  0.7136
10047SOL    HW130541   3.155   3.610   5.195 -0.8162  1.3247  0.9333
10047SOL    HW230542   3.086   3.591   5.328  0.0353 -2.7973  0.9383
10048SOL     OW30543   0.888   3.576   5.068 -0.0898 -0.1849 -0.1055
10048SOL    HW130544   0.849   3.514   5.130 -1.3758  0.7740  0.0892
10048SOL    HW230545   0.982   3.566   5.080 -0.2955 -1.2371  0.7711
10049SOL     OW30546   1.037   2.589   6.163  0.4443  0.2206  0.2460
10049SOL    HW130547   0.978   2.578   6.088  1.7606  0.7444 -0.9145
10049SOL    HW230548   0.991   2.648   6.222 -0.5213 -0.0188 -0.2533
10050SOL     OW30549   0.083   1.566   0.335 -0.3393  0.8796 -0.8629
10050SOL    HW130550   0.036   1.627   0.392 -0.7150  1.6095 -1.9264
10050SOL    HW230551   0.015   1.507   0.302  0.2748 -1.4930  1.7236
10051SOL     OW30552   5.850   2.242   2.131 -0.0865  0.0217 -0.1405
10051SOL    HW130553   5.886   2.218   2.216  0.9008  1.3911 -0.1324
10051SOL    HW230554   5.781   2.178   2.115 -1.4673  0.7226  2.4552
10052SOL     OW30555   6.679   3.639   6.374  0.1476  0.2309  0.3890
10052SOL    HW130556   6.715   3.646   6.286  1.0176 -1.2707  0.5838
10052SOL    HW230557   6.723   3.708   6.424  3.3840 -1.9028  0.7634
10053SOL     OW30558   6.160   0.747   3.775 -0.0803 -0.3562 -0.0131
10053SOL    HW130559   6.072   0.716   3.756 -0.3747  0.8372 -0.7388
10053SOL    HW230560   6.166   0.749   3.870 -1.2877  0.7401  0.0547
10054SOL     OW30561   3.343   3.425   2.413 -0.7481 -0.1340 -0.0661
10054SOL    HW130562   3.314   3.430   2.504 -0.9086 -0.6811 -0.0799
10054SOL    HW230563   3.292   3.353   2.376  0.8456 -1.3475 -0.0055
10055SOL     OW30564   4.248   6.358   0.194 -0.1560  0.1225  0.1255
10055SOL    HW130565   4.216   6.378   0.282  0.6880 -1.2897  0.7982
10055SOL    HW230566   4.252   6.262   0.192  3.6443  0.1251  0.0255
10056SOL     OW30567   1.952   2.738   4.481 -0.6377  0.0905 -0.7898
10056SOL    HW130568   1.995   2.823   4.494 -1.9526  0.6672  0.0160
10056SOL    HW230569   1.865   2.760   4.446 -2.3195 -0.6169  2.5097
10057SOL     OW30570   3.144   2.157   6.585 -0.3677 -0.1778  0.3888
10057SOL    HW130571   3.054   2.178   6.611 -0.4275 -3.2647  3.3989
10057SOL    HW230572   3.198   2.212   6.642 -0.4149 -0.5424  0.7932
10058SOL     OW30573   3.429   6.756   0.448  0.3957  0.0386 -0.2948
10058SOL    HW130574   3.434   6.668   0.409 -0.2674 -0.2038  0.1400
10058SOL    HW230575   3.379   6.743   0.529 -1.8806  1.2091 -1.4263
10059SOL     OW30576   2.904   5.808   0.739 -0.4735 -0.1472 -0.2551
10059SOL    HW130577   2.841   5.864   0.693 -1.6035 -1.5153 -0.4862
10059SOL    HW230578   2.899   5.836   0.830 -0.8157  0.3094 -0.4079
10060SOL     OW30579   4.682   0.479   3.848  0.1046  0.0855 -0.2931
10060SOL    HW130580   4.727   0.477   3.932  0.8171  0.1738 -0.6582
10060SOL    HW230581   4.710   0.399   3.804  1.5630  1.1075 -1.3386
10061SOL     OW30582   0.245   0.702   5.181  0.6026 -0.0676 -0.3235
10061SOL    HW130583   0.275   0.711   5.271 -2.1950 -0.8949  0.8038
10061SOL    HW230584   0.321   0.667   5.134  1.5034 -1.9301  2.2327
10062SOL     OW30585   0.998   6.039   5.615  0.4246  0.4457  0.0125
10062SOL    HW130586   1.051   6.110   5.652  0.5861  0.4736 -0.2703
10062SOL    HW230587   1.053   6.000   5.548  0.5831 -0.3684  0.6030
10063SOL     OW30588   1.886   2.581   0.040 -0.2569  0.3679 -0.0311
10063SOL    HW130589   1.857   2.507  -0.013 -0.1646 -0.6660  1.3074
10063SOL    HW230590   1.806   2.621   0.072 -0.2994 -0.2016  0.6082
10064SOL     OW30591   5.522   1.140   2.291 -0.2240 -0.0293  0.0602
10064SOL    HW130592   5.571   1.163   2.212 -0.0014  0.8774  0.4503
10064SOL    HW230593   5.431   1.134   2.262 -0.3326  1.6099 -0.0280
10065SOL     OW30594   4.081   3.016   1.793  0.1515 -0.1855  0.5252
10065SOL    HW130595   4.163   3.066   1.785 -0.9679  1.7136  0.2789
10065SOL    HW230596   4.047   3.040   1.879 -1.0529  0.5240 -0.1267
10066SOL     OW30597   0.745   2.578   4.672 -0.1808 -0.7436  0.2942
10066SOL    HW130598   0.794   2.567   4.753  0.2229 -0.2281  0.1294
10066SOL    HW230599   0.663   2.618   4.699  0.3740  0.4020  0.3530
10067SOL     OW30600   1.796   3.072   4.961 -0.3624  0.4421 -0.7981
10067SOL    HW130601   1.874   3.026   4.993 -0.1680  1.4052  0.1869
10067SOL    HW230602   1.787   3.045   4.870  0.6247 -0.3484 -0.6703
10068SOL     OW30603   2.755   1.800   0.602  0.2882  0.8854 -0.0540
10068SOL    HW130604   2.808   1.833   0.675 -1.0853  0.2224  1.2893
10068SOL    HW230605   2.808   1.730   0.564  0.1468 -0.2384  1.6955
10069SOL     OW30606   4.918   2.912   5.185  0.0381  0.1788  0.2857
10069SOL    HW130607   4.917   2.854   5.109 -0.6155  0.3869  0.1312
10069SOL    HW230608   4.828   2.944   5.193  0.1384  0.2964  1.0444
10070SOL     OW30609   3.207   3.166   4.015 -0.1696 -0.0376  0.2407
10070SOL    HW130610   3.207   3.072   4.002  1.5780 -0.0102 -0.2650
10070SOL    HW230611   3.229   3.177   4.108 -1.6955 -0.1269  0.6248
10071SOL     OW30612   3.239   3.481   2.652  0.5022  0.0871  0.0256
10071SOL    HW130613   3.197   3.406   2.694  1.9329 -1.8181 -1.7231
10071SOL    HW230614   3.300   3.514   2.718  0.7668 -1.1215  0.4082
10072SOL     OW30615   0.118   2.461   1.211 -0.3021 -0.3926 -0.7517
10072SOL    HW130616   0.125   2.538   1.154  2.1195 -0.3040 -0.4419
10072SOL    HW230617   0.069   2.492   1.287  1.4445  1.1776 -0.1956
10073SOL     OW30618   5.731   3.016   4.479 -0.1226 -0.0005  0.0992
10073SOL    HW130619   5.744   2.927   4.446 -2.1157  0.2312 -1.4997
10073SOL    HW230620   5.722   3.005   4.573  1.0753 -1.2981  0.1022
10074SOL     OW30621   0.739   3.323   4.490 -0.0424  0.5290  0.0166
10074SOL    HW130622   0.743   3.360   4.578  0.3172 -0.2420  0.3346
10074SOL    HW230623   0.794   3.245   4.494 -1.0660 -0.2464 -0.5319
10075SOL     OW30624   0.999   4.156   3.155 -0.1320  0.4019  0.3266
10075SOL    HW130625   0.969   4.246   3.136  0.2372  0.8777  1.9097
10075SOL    HW230626   0.947   4.129   3.231  0.2300 -0.4904  0.2657
10076SOL     OW30627   0.707   0.998   1.639  0.2565  0.4113  0.0529
10076SOL    HW130628   0.784   0.961   1.684 -0.3789 -1.7460 -0.4819
10076SOL    HW230629   0.744   1.061   1.577  1.5209  0.0725  0.4189
10077SOL     OW30630   2.153   2.907   5.400  0.5367  0.4534  0.1394
10077SOL    HW130631   2.099   2.832   5.374  0.1829 -0.0127  2.0534
10077SOL    HW230632   2.116   2.981   5.352 -2.8754  0.4390  2.4072
10078SOL     OW30633   5.646   0.947   3.238 -0.2456  0.0389 -0.2404
10078SOL    HW130634   5.628   0.910   3.152  1.5059  0.8249 -0.9871
10078SOL    HW230635   5.740   0.936   3.250 -0.5019 -0.4089  1.7654
10079SOL     OW30636   3.674   0.246   1.446 -0.2942  0.1433 -0.6097
10079SOL    HW130637   3.667   0.337   1.475  0.0086  0.1067 -0.4222
10079SOL    HW230638   3.596   0.232   1.393  0.1066  0.7949 -1.3963
10080SOL     OW30639   3.712   4.941   3.502  0.5016  0.6868 -0.9147
10080SOL    HW130640   3.774   4.883   3.458  0.1196  0.7772 -1.5897
10080SOL    HW230641   3.650   4.966   3.434  0.0834  1.0955 -0.3961
10081SOL     OW30642   1.834   6.499   1.150 -0.0523 -0.2003  0.6807
10081SOL    HW130643   1.783   6.441   1.095  2.1948  0.1884 -2.0433
10081SOL    HW230644   1.906   6.445   1.183  2.6967  0.9409 -2.7607
10082SOL     OW30645   2.902   1.602   3.730  0.3485 -0.2132  0.6678
10082SOL    HW130646   2.820   1.589   3.779  0.1950 -0.1916  0.4202
10082SOL    HW230647   2.951   1.666   3.781 -0.5124  1.0445 -0.0446
10083SOL     OW30648   1.717   0.683   3.930 -0.2493 -0.3483 -0.1046
10083SOL    HW130649   1.688   0.733   3.854  2.8620  3.8358  1.0729
10083SOL    HW230650   1.668   0.719   4.003  2.6479  1.9001  0.9002
10084SOL     OW30651   5.189   5.252   3.606 -0.2504  0.2949 -0.1025
10084SOL    HW130652   5.241   5.208   3.538  1.2603  1.3810  0.3010
10084SOL    HW230653   5.161   5.182   3.664 -0.5505 -0.5019 -1.1755
10085SOL     OW30654   2.013   0.841   2.687 -0.0658  0.4807 -0.2758
10085SOL    HW130655   2.078   0.911   2.682  0.7900 -0.3735 -1.6979
10085SOL    HW230656   2.056   0.766   2.646 -1.0291 -0.8380  1.0328
10086SOL     OW30657   4.932   1.679   0.844  0.5121 -0.0642  0.3024
10086SOL    HW130658   4.884   1.596   0.847 -0.5840  0.5464 -0.0361
10086SOL    HW230659   4.913   1.721   0.927 -0.5546  0.7273 -0.3267
10087SOL     OW30660   5.393   6.484   5.228 -0.1851 -0.5079  0.0685
10087SOL    HW130661   5.326   6.416   5.236  0.3249 -1.1438 -0.9387
10087SOL    HW230662   5.357   6.545   5.164  0.1654 -0.8216 -0.4332
10088SOL     OW30663   0.803   0.978   6.122  0.3866  0.0680 -0.2614
10088SOL    HW130664   0.828   0.927   6.199  0.7104  0.1801 -0.2890
10088SOL    HW230665   0.733   1.036   6.153  0.0056 -0.4016 -0.2358
10089SOL     OW30666   3.848   5.234   0.200 -0.2529 -0.1373  0.2428
10089SOL    HW130667   3.836   5.232   0.295 -0.4603  0.4318  0.2334
10089SOL    HW230668   3.768   5.195   0.165  0.5309 -1.9483  0.3273
10090SOL     OW30669   1.176   6.235   4.768  0.1499  0.4646 -0.3537
10090SOL    HW130670   1.258   6.187   4.764 -0.0410 -0.3103  2.7100
10090SOL    HW230671   1.192   6.305   4.830 -1.5899  0.0106  0.6801
10091SOL     OW30672   1.621   5.764   3.909  0.4944  0.5641  0.0849
10091SOL    HW130673   1.595   5.674   3.925  0.9729  0.4613  0.2885
10091SOL    HW230674   1.660   5.794   3.991 -0.9160  1.4077  0.4759
10092SOL     OW30675   1.356   0.019   6.643 -1.0570  0.0089  0.5688
10092SOL    HW130676   1.287   0.078   6.612 -0.2696  1.6244  1.7154
10092SOL    HW230677   1.381   0.055   6.729  1.8460  0.0846 -0.2082
10093SOL     OW30678   0.099   4.700   4.609  0.3055  0.1890 -0.3261
10093SOL    HW130679   0.085   4.607   4.624  0.2913  0.4631  1.6592
10093SOL    HW230680   0.034   4.743   4.664  0.5198  1.3743 -0.9695
10094SOL     OW30681   5.521   2.852   1.829  0.3664  0.3990  0.3387
10094SOL    HW130682   5.463   2.799   1.883  1.4589  0.4992  1.6530
10094SOL    HW230683   5.578   2.788   1.786 -0.8606  0.2763 -1.2030
10095SOL     OW30684   0.265   3.708   2.149 -0.1053 -0.3231 -0.1330
10095SOL    HW130685   0.346   3.689   2.102 -0.5858 -0.7065 -0.8130
10095SOL    HW230686   0.214   3.761   2.088 -1.2659 -1.8737 -0.5633
10096SOL     OW30687   2.717   0.457   2.177 -0.1160  0.1993 -0.1554
10096SOL    HW130688   2.672   0.530   2.134 -1.6605  0.2598  1.4316
10096SOL    HW230689   2.809   0.484   2.179 -0.6933  2.3816  0.7852
10097SOL     OW30690   3.897   6.181   3.057  0.4662  0.0822 -0.1294
10097SOL    HW130691   3.854   6.218   2.981  0.4815 -0.9445 -0.6543
10097SOL    HW230692   3.841   6.107   3.083  2.2696 -1.7831 -1.3118
10098SOL     OW30693   1.721   2.100   0.174 -0.0859 -0.0704 -0.0117
10098SOL    HW130694   1.658   2.064   0.111  1.0465 -0.4495 -0.9667
10098SOL    HW230695   1.691   2.067   0.259 -0.2568 -1.5925 -0.6317
10099SOL     OW30696   1.599   1.682   1.804  0.0378  0.0150 -0.0199
10099SOL    HW130697   1.547   1.654   1.729  1.2654  0.6698 -1.1553
10099SOL    HW230698   1.669   1.617   1.811  0.2734  0.2856  0.1783
10100SOL     OW30699   3.520   1.628   2.395  0.2122  0.2707  0.0159
10100SOL    HW130700   3.435   1.664   2.370  0.2811 -0.9276 -2.2690
10100SOL    HW230701   3.568   1.702   2.431 -0.5119  1.9177 -2.1464
10101SOL     OW30702   4.796   3.112   2.421  0.6088  0.1132  0.2938
10101SOL    HW130703   4.825   3.021   2.419  2.3321  0.6136  0.3085
10101SOL    HW230704   4.802   3.138   2.513  1.4589  0.6088  0.1122
10102SOL     OW30705   5.782   0.482   4.601  0.6422  0.1127 -0.2828
10102SOL    HW130706   5.697   0.486   4.558  0.9145  0.4476 -0.8020
10102SOL    HW230707   5.781   0.554   4.663  0.1516 -0.5234  0.4699
10103SOL     OW30708   2.621   6.094   3.392  0.5457  0.5812 -0.0850
10103SOL    HW130709   2.680   6.039   3.445  2.5057 -0.6062 -3.1483
10103SOL    HW230710   2.549   6.035   3.368  1.1253  0.1992 -0.9582
10104SOL     OW30711   1.484   3.896   5.405  0.3231  0.9293  0.2728
10104SOL    HW130712   1.428   3.939   5.470  0.9841  1.8014  0.2868
10104SOL    HW230713   1.545   3.964   5.378  0.5005  0.3713 -0.7570
10105SOL     OW30714   3.572   2.719   2.735  0.4632  0.1136  0.2096
10105SOL    HW130715   3.632   2.682   2.670 -1.2889  1.2037 -2.1896
10105SOL    HW230716   3.581   2.814   2.725  0.4394  0.3318  1.9039
10106NA      NA30717   5.426   2.874   0.694 -0.6275 -0.1338  0.4771
10107NA      NA30718   3.999   4.709   1.922 -0.3123 -0.1217 -0.4194
10108NA      NA30719   6.080   6.355   0.539  0.4204  0.2798 -0.3799
10109NA      NA30720   0.946   6.573   5.840 -0.1208  0.5966  0.5476
10110NA      NA30721   6.155   2.236   4.814 -0.4180 -0.1715 -0.0110
10111NA      NA30722   2.029   0.561   4.468  0.2585  0.0268  0.3803
10112NA      NA30723   3.572   1.889   3.188  0.1630 -0.6039 -0.0511
10113NA      NA30724   3.688   2.018   5.757  0.0576 -0.3886  0.0813
10114NA      NA30725   5.584   6.455   3.365  0.1569  0.3867 -0.4369
10115NA      NA30726   1.073   0.795   2.973  0.0466 -0.2646  0.0770
10116NA      NA30727   4.155   6.434   3.384 -0.3996 -0.3748 -0.4295
10117NA      NA30728   4.752   3.183   2.219  0.2780  0.2055  0.5981
10118NA      NA30729   1.037   4.444   1.196  0.2584 -0.8742  0.1702
10119NA      NA30730   1.130   4.919   4.887  0.3463  0.0768  0.0202
10120NA      NA30731   3.838   1.452   5.127 -0.0291  0.1465  0.2444
10121NA      NA30732   4.871   2.491   6.534  0.2873 -0.3288  0.3398
10122NA      NA30733   6.346   5.669   3.601 -0.4581 -0.3517 -0.3229
10123NA      NA30734   0.356   4.815   2.976  0.0754 -0.0821 -0.6881
10124NA      NA30735   0.353   6.523   4.730 -0.0847 -0.3713  0.6681
10125NA      NA30736   0.972   1.339   2.769 -0.0905  0.0919  0.2458
10126NA      NA30737   4.823   1.236   3.107 -0.2448 -0.0086  0.4979
10127NA      NA30738   2.293   1.013   2.070  0.2342  0.2520  0.2151
10128NA      NA30739   3.423   3.844   6.272  0.4191 -0.0854 -0.0244
10129NA      NA30740   4.653   2.613   5.438 -0.1847 -0.5048 -0.5046
10130NA      NA30741   4.060   3.095   6.764  0.1586  0.0374 -0.5221
10131NA      NA30742   4.515   3.215   1.194  0.4302 -0.0827  0.1285
10132NA      NA30743   6.273   4.792   2.472 -0.1037  0.0970  0.1175
10133NA      NA30744   6.711   0.539   0.882 -0.1294  0.2488  0.3061
10134CL      CL30745   0.938   1.171   2.604 -0.1366 -0.0626 -0.1511
10135CL      CL30746   3.038   5.825   3.425  0.4518 -0.3118  0.0918
10136CL      CL30747   6.581   0.492   1.112  0.1947 -0.5271 -0.1331
10137CL      CL30748   1.917   6.766   4.847 -0.2377  0.4734  0.0397
10138CL      CL30749   4.153   1.165   4.624 -0.0783  0.0780  0.0954
10139CL      CL30750   0.633   5.084   5.320  0.0508 -0.1325 -0.3223
10140CL      CL30751   6.701   3.864   4.914  0.0623  0.3954 -0.0774
10141CL      CL30752   5.625   3.933   4.685  0.0608 -0.8252  0.2189
10142CL      CL30753   4.901   5.712   0.765  0.0442 -0.3600 -0.3286
10143CL      CL30754   5.030   5.618   2.695 -0.2203 -0.0248 -0.5688
10144CL      CL30755   6.617   0.358   5.829 -0.1364 -0.2710  0.0773
10145CL      CL30756   0.790   3.054   3.149 -0.1626 -0.3141 -0.0476
10146CL      CL30757   3.467   2.595   4.862 -0.1404 -0.0666  0.0298
10147CL      CL30758   1.858   3.770   2.490 -0.5674 -0.0853 -0.0770
10148CL      CL30759   3.743   5.541   5.915 -0.2210 -0.2121 -0.4180
10149CL      CL30760   5.066   2.419   5.240 -0.0911  0.2615  0.3529
10150CL      CL30761   3.208   1.619   4.282  0.0253 -0.0851  0.0741
10151CL      CL30762   3.421   4.089   5.055 -0.0530 -0.5149  0.1494
10152CL      CL30763   6.137   4.835   5.010 -0.2505  0.0131  0.2823
10153CL      CL30764   5.116   2.947   4.622 -0.0108 -0.7900  0.1082
10154CL      CL30765   5.336   2.535   0.998 -0.1863  0.2290  0.1683
10155CL      CL30766   3.643   6.006   6.478 -0.1368  0.4033  0.1613
10156CL      CL30767   4.859   6.109   3.713  0.0998  0.0769 -0.2605
10157CL      CL30768   5.385   4.009   2.578  0.0095 -0.0455  0.1074
10158CL      CL30769   2.884   4.022   4.389  0.1198  0.1563 -0.3284
10159CL      CL30770   0.354   2.343   6.404 -0.1524 -0.1264 -0.3741
10160CL      CL30771   3.846   4.611   6.468  0.0670  0.6732  0.3202
10161CL      CL30772   4.514   5.140   6.115 -0.3014 -0.3352 -0.1397
10162CL      CL30773   4.120   0.609   2.616  0.1212  0.1101  0.0081
10163CL      CL30774   5.445   4.699   6.153  0.6193  0.1752  0.3886
10164CL      CL30775   2.351   2.684   4.910  0.1771 -0.0330  0.4122
10165CL      CL30776   1.966   1.632   1.574 -0.0251 -0.0023  0.1123
10166CL      CL30777   1.706   1.326   6.098  0.3075  0.0395 -0.1380
10167CL      CL30778   4.631   5.201   0.116 -0.6244  0.0114 -0.5639
10168CL      CL30779   0.501   0.430   6.285 -0.3036 -0.0641  0.1191
10169CL      CL30780   2.598   5.450   2.375  0.0286  0.4562  0.2105
10170CL      CL30781   5.654   5.040   3.922  0.0879  0.0653  0.0142
10171CL      CL30782   0.222   1.689   4.300  0.4713  0.0617 -0.0846
10172CL      CL30783   0.130   0.653   0.800 -0.1382 -0.0839 -0.3179
10173CL      CL30784   6.500   2.673   0.137  0.1399  0.0797 -0.2018
10174CL      CL30785   3.967   4.701   1.000 -0.3791 -0.1543 -0.5257
10175CL      CL30786   6.154   5.642   3.744 -0.1401  0.0739 -0.2583
10176CL      CL30787   4.014   1.284   5.777 -0.1670  0.0556  0.2337
10177CL      CL30788   0.459   0.677   6.670 -0.4718  0.1301 -0.1200
10178CL      CL30789   0.599   4.873   3.564 -0.0112 -0.2330  0.0697
10179CL      CL30790   3.087   5.722   4.341 -0.0787  0.2686  0.2942
10180CL      CL30791   2.201   0.022   3.701 -0.2501 -0.0212  0.2207
10181CL      CL30792   3.664   2.170   4.865  0.1450 -0.0731 -0.1882
10182CL      CL30793   1.554   2.231   3.197 -0.1408 -0.4267  0.0085
10183CL      CL30794   3.909   5.111   2.185  0.0145 -0.0140 -0.1239
   6.78023   6.78023   6.78023
