;
;   File g4dpocore_petim.itp  was generated
;   By user: sairam (1000)
;   On host: sairam
;   At date: Wed. January  3 10:12:01 2025
;
;   This is a standalone topology file
;
;   Created by:
;   ParmEd:       amb2gro_top_gro.py, VERSION 3.4.1
;   Executable:   amb2gro_top_gro.py
;   Library dir:  /usr/local/gromacs/share/gromacs/top
;   Command line:
;     ./amb2gro_top_gro.py -p g4dpocore_petim.prmtop -c g4dpocore_petim.inpcrd -t g4dpocore_petim.itp -g g4dpocore_petim.gro -b g4dpocore_petim.pdb
;

;[ defaults ]
;; nbfunc        comb-rule       gen-pairs       fudgeLJ fudgeQQ
;1               2               yes             0.5          0.83333333  
;
;[ atomtypes ]
;; name    at.num    mass    charge ptype  sigma      epsilon
;os             8  16.000000  0.00000000  A     0.30000123        0.71128
;c3             6  12.010000  0.00000000  A     0.33996695      0.4577296
;h1             1   1.008000  0.00000000  A      0.2471353      0.0656888
;hc             1   1.008000  0.00000000  A     0.26495328      0.0656888
;hx             1   1.008000  0.00000000  A     0.19599772      0.0656888
;n4             7  14.010000  0.00000000  A     0.32499985        0.71128
;hn             1   1.008000  0.00000000  A     0.10690785      0.0656888


[ moleculetype ]
; Name            nrexcl
g4dpocore_petim          3

[ atoms ]
;   nr       type  resnr residue  atom   cgnr    charge       mass  typeB    chargeB      massB
; residue    1 aaa rtp aaa q 2.0
    1         os      1    aaa     O1      1 -0.58111400  16.000000   ; qtot -0.581114
    2         c3      1    aaa     C1      2 0.17711200  12.010000   ; qtot -0.404002
    3         h1      1    aaa     H1      3 0.04565000   1.008000   ; qtot -0.358352
    4         h1      1    aaa     H2      4 0.04565000   1.008000   ; qtot -0.312702
    5         c3      1    aaa     C2      5 0.17711200  12.010000   ; qtot -0.135590
    6         h1      1    aaa     H3      6 0.04565000   1.008000   ; qtot -0.089940
    7         h1      1    aaa     H4      7 0.04565000   1.008000   ; qtot -0.044290
    8         c3      1    aaa     C3      8 0.15102100  12.010000   ; qtot 0.106731
    9         hc      1    aaa     H5      9 0.02538500   1.008000   ; qtot 0.132116
   10         hc      1    aaa     H6     10 0.02538500   1.008000   ; qtot 0.157501
   11         c3      1    aaa     C4     11 0.15102100  12.010000   ; qtot 0.308522
   12         hc      1    aaa     H7     12 0.02538500   1.008000   ; qtot 0.333907
   13         hc      1    aaa     H8     13 0.02538500   1.008000   ; qtot 0.359292
   14         c3      1    aaa     C5     14 -0.29474300  12.010000   ; qtot 0.064549
   15         hx      1    aaa     H9     15 0.12534200   1.008000   ; qtot 0.189891
   16         hx      1    aaa    H10     16 0.12534200   1.008000   ; qtot 0.315233
   17         c3      1    aaa     C6     17 -0.29474300  12.010000   ; qtot 0.020490
   18         hx      1    aaa    H11     18 0.12534200   1.008000   ; qtot 0.145832
   19         hx      1    aaa    H12     19 0.12534200   1.008000   ; qtot 0.271174
   20         n4      1    aaa     N1     20 -0.11447800  14.010000   ; qtot 0.156696
   21         n4      1    aaa     N2     21 -0.11447800  14.010000   ; qtot 0.042218
   22         c3      1    aaa     C7     22 -0.03432800  12.010000   ; qtot 0.007890
   23         hx      1    aaa    H13     23 0.10515400   1.008000   ; qtot 0.113044
   24         hx      1    aaa    H14     24 0.10515400   1.008000   ; qtot 0.218198
   25         c3      1    aaa     C8     25 -0.03432800  12.010000   ; qtot 0.183870
   26         hx      1    aaa    H15     26 0.10515400   1.008000   ; qtot 0.289024
   27         hx      1    aaa    H16     27 0.10515400   1.008000   ; qtot 0.394178
   28         c3      1    aaa     C9     28 -0.03432800  12.010000   ; qtot 0.359850
   29         hx      1    aaa    H17     29 0.10515400   1.008000   ; qtot 0.465004
   30         hx      1    aaa    H18     30 0.10515400   1.008000   ; qtot 0.570158
   31         c3      1    aaa    C10     31 -0.03432800  12.010000   ; qtot 0.535830
   32         hx      1    aaa    H19     32 0.10515400   1.008000   ; qtot 0.640984
   33         hx      1    aaa    H20     33 0.10515400   1.008000   ; qtot 0.746138
   34         c3      1    aaa    C11     34 -0.06183200  12.010000   ; qtot 0.684306
   35         hc      1    aaa    H21     35 0.08865200   1.008000   ; qtot 0.772958
   36         hc      1    aaa    H22     36 0.08865200   1.008000   ; qtot 0.861610
   37         c3      1    aaa    C12     37 -0.06183200  12.010000   ; qtot 0.799778
   38         hc      1    aaa    H23     38 0.08865200   1.008000   ; qtot 0.888430
   39         hc      1    aaa    H24     39 0.08865200   1.008000   ; qtot 0.977082
   40         c3      1    aaa    C13     40 -0.06183200  12.010000   ; qtot 0.915250
   41         hc      1    aaa    H25     41 0.08865200   1.008000   ; qtot 1.003902
   42         hc      1    aaa    H26     42 0.08865200   1.008000   ; qtot 1.092554
   43         c3      1    aaa    C14     43 -0.06183200  12.010000   ; qtot 1.030722
   44         hc      1    aaa    H27     44 0.08865200   1.008000   ; qtot 1.119374
   45         hc      1    aaa    H28     45 0.08865200   1.008000   ; qtot 1.208026
   46         c3      1    aaa    C15     46 -0.22217300  12.010000   ; qtot 0.985853
   47         hc      1    aaa    H29     47 0.16441900   1.008000   ; qtot 1.150272
   48         hc      1    aaa    H30     48 0.16441900   1.008000   ; qtot 1.314691
   49         c3      1    aaa    C16     49 -0.22217300  12.010000   ; qtot 1.092518
   50         hc      1    aaa    H31     50 0.16441900   1.008000   ; qtot 1.256937
   51         hc      1    aaa    H32     51 0.16441900   1.008000   ; qtot 1.421356
   52         c3      1    aaa    C17     52 -0.22217300  12.010000   ; qtot 1.199183
   53         hc      1    aaa    H33     53 0.16441900   1.008000   ; qtot 1.363602
   54         hc      1    aaa    H34     54 0.16441900   1.008000   ; qtot 1.528021
   55         c3      1    aaa    C18     55 -0.22217300  12.010000   ; qtot 1.305848
   56         hc      1    aaa    H35     56 0.16441900   1.008000   ; qtot 1.470267
   57         hc      1    aaa    H36     57 0.16441900   1.008000   ; qtot 1.634686
   58         hn      1    aaa    H38     58 0.18266300   1.008000   ; qtot 1.817349
   59         hn      1    aaa    H37     59 0.18266300   1.008000   ; qtot 2.000012
; residue    2 bbb rtp bbb q 1.0
   60         n4      2    bbb     N1     60 0.03726400  14.010000   ; qtot 2.037276
   61         c3      2    bbb     C1     61 -0.07020100  12.010000   ; qtot 1.967075
   62         hx      2    bbb     H1     62 0.12219000   1.008000   ; qtot 2.089265
   63         hx      2    bbb     H2     63 0.12219000   1.008000   ; qtot 2.211455
   64         c3      2    bbb     C2     64 -0.07020100  12.010000   ; qtot 2.141254
   65         hx      2    bbb     H3     65 0.12219000   1.008000   ; qtot 2.263444
   66         hx      2    bbb     H4     66 0.12219000   1.008000   ; qtot 2.385634
   67         c3      2    bbb     C3     67 -0.39007700  12.010000   ; qtot 1.995557
   68         hx      2    bbb     H5     68 0.14940300   1.008000   ; qtot 2.144960
   69         hx      2    bbb     H6     69 0.14940300   1.008000   ; qtot 2.294363
   70         c3      2    bbb     C4     70 0.18057300  12.010000   ; qtot 2.474936
   71         hc      2    bbb     H7     71 0.01788900   1.008000   ; qtot 2.492825
   72         hc      2    bbb     H8     72 0.01788900   1.008000   ; qtot 2.510714
   73         c3      2    bbb     C5     73 -0.11337700  12.010000   ; qtot 2.397337
   74         hc      2    bbb     H9     74 0.09515400   1.008000   ; qtot 2.492491
   75         hc      2    bbb    H10     75 0.09515400   1.008000   ; qtot 2.587645
   76         c3      2    bbb     C6     76 -0.11337700  12.010000   ; qtot 2.474268
   77         hc      2    bbb    H11     77 0.09515400   1.008000   ; qtot 2.569422
   78         hc      2    bbb    H12     78 0.09515400   1.008000   ; qtot 2.664576
   79         c3      2    bbb     C7     79 0.21842400  12.010000   ; qtot 2.883000
   80         h1      2    bbb    H13     80 0.04500300   1.008000   ; qtot 2.928003
   81         h1      2    bbb    H14     81 0.04500300   1.008000   ; qtot 2.973006
   82         c3      2    bbb     C8     82 -0.06455200  12.010000   ; qtot 2.908454
   83         h1      2    bbb    H15     83 0.13554100   1.008000   ; qtot 3.043995
   84         h1      2    bbb    H16     84 0.13554100   1.008000   ; qtot 3.179536
   85         c3      2    bbb     C9     85 -0.06455200  12.010000   ; qtot 3.114984
   86         h1      2    bbb    H17     86 0.13554100   1.008000   ; qtot 3.250525
   87         h1      2    bbb    H18     87 0.13554100   1.008000   ; qtot 3.386066
   88         os      2    bbb     O1     88 -0.62587700  16.000000   ; qtot 2.760189
   89         hn      2    bbb    H19     89 0.23982500   1.008000   ; qtot 3.000014
; residue    3 bbb rtp bbb q 1.0
   90         n4      3    bbb     N1     90 0.03726400  14.010000   ; qtot 3.037278
   91         c3      3    bbb     C1     91 -0.07020100  12.010000   ; qtot 2.967077
   92         hx      3    bbb     H1     92 0.12219000   1.008000   ; qtot 3.089267
   93         hx      3    bbb     H2     93 0.12219000   1.008000   ; qtot 3.211457
   94         c3      3    bbb     C2     94 -0.07020100  12.010000   ; qtot 3.141256
   95         hx      3    bbb     H3     95 0.12219000   1.008000   ; qtot 3.263446
   96         hx      3    bbb     H4     96 0.12219000   1.008000   ; qtot 3.385636
   97         c3      3    bbb     C3     97 -0.39007700  12.010000   ; qtot 2.995559
   98         hx      3    bbb     H5     98 0.14940300   1.008000   ; qtot 3.144962
   99         hx      3    bbb     H6     99 0.14940300   1.008000   ; qtot 3.294365
  100         c3      3    bbb     C4    100 0.18057300  12.010000   ; qtot 3.474938
  101         hc      3    bbb     H7    101 0.01788900   1.008000   ; qtot 3.492827
  102         hc      3    bbb     H8    102 0.01788900   1.008000   ; qtot 3.510716
  103         c3      3    bbb     C5    103 -0.11337700  12.010000   ; qtot 3.397339
  104         hc      3    bbb     H9    104 0.09515400   1.008000   ; qtot 3.492493
  105         hc      3    bbb    H10    105 0.09515400   1.008000   ; qtot 3.587647
  106         c3      3    bbb     C6    106 -0.11337700  12.010000   ; qtot 3.474270
  107         hc      3    bbb    H11    107 0.09515400   1.008000   ; qtot 3.569424
  108         hc      3    bbb    H12    108 0.09515400   1.008000   ; qtot 3.664578
  109         c3      3    bbb     C7    109 0.21842400  12.010000   ; qtot 3.883002
  110         h1      3    bbb    H13    110 0.04500300   1.008000   ; qtot 3.928005
  111         h1      3    bbb    H14    111 0.04500300   1.008000   ; qtot 3.973008
  112         c3      3    bbb     C8    112 -0.06455200  12.010000   ; qtot 3.908456
  113         h1      3    bbb    H15    113 0.13554100   1.008000   ; qtot 4.043997
  114         h1      3    bbb    H16    114 0.13554100   1.008000   ; qtot 4.179538
  115         c3      3    bbb     C9    115 -0.06455200  12.010000   ; qtot 4.114986
  116         h1      3    bbb    H17    116 0.13554100   1.008000   ; qtot 4.250527
  117         h1      3    bbb    H18    117 0.13554100   1.008000   ; qtot 4.386068
  118         os      3    bbb     O1    118 -0.62587700  16.000000   ; qtot 3.760191
  119         hn      3    bbb    H19    119 0.23982500   1.008000   ; qtot 4.000016
; residue    4 bbb rtp bbb q 1.0
  120         n4      4    bbb     N1    120 0.03726400  14.010000   ; qtot 4.037280
  121         c3      4    bbb     C1    121 -0.07020100  12.010000   ; qtot 3.967079
  122         hx      4    bbb     H1    122 0.12219000   1.008000   ; qtot 4.089269
  123         hx      4    bbb     H2    123 0.12219000   1.008000   ; qtot 4.211459
  124         c3      4    bbb     C2    124 -0.07020100  12.010000   ; qtot 4.141258
  125         hx      4    bbb     H3    125 0.12219000   1.008000   ; qtot 4.263448
  126         hx      4    bbb     H4    126 0.12219000   1.008000   ; qtot 4.385638
  127         c3      4    bbb     C3    127 -0.39007700  12.010000   ; qtot 3.995561
  128         hx      4    bbb     H5    128 0.14940300   1.008000   ; qtot 4.144964
  129         hx      4    bbb     H6    129 0.14940300   1.008000   ; qtot 4.294367
  130         c3      4    bbb     C4    130 0.18057300  12.010000   ; qtot 4.474940
  131         hc      4    bbb     H7    131 0.01788900   1.008000   ; qtot 4.492829
  132         hc      4    bbb     H8    132 0.01788900   1.008000   ; qtot 4.510718
  133         c3      4    bbb     C5    133 -0.11337700  12.010000   ; qtot 4.397341
  134         hc      4    bbb     H9    134 0.09515400   1.008000   ; qtot 4.492495
  135         hc      4    bbb    H10    135 0.09515400   1.008000   ; qtot 4.587649
  136         c3      4    bbb     C6    136 -0.11337700  12.010000   ; qtot 4.474272
  137         hc      4    bbb    H11    137 0.09515400   1.008000   ; qtot 4.569426
  138         hc      4    bbb    H12    138 0.09515400   1.008000   ; qtot 4.664580
  139         c3      4    bbb     C7    139 0.21842400  12.010000   ; qtot 4.883004
  140         h1      4    bbb    H13    140 0.04500300   1.008000   ; qtot 4.928007
  141         h1      4    bbb    H14    141 0.04500300   1.008000   ; qtot 4.973010
  142         c3      4    bbb     C8    142 -0.06455200  12.010000   ; qtot 4.908458
  143         h1      4    bbb    H15    143 0.13554100   1.008000   ; qtot 5.043999
  144         h1      4    bbb    H16    144 0.13554100   1.008000   ; qtot 5.179540
  145         c3      4    bbb     C9    145 -0.06455200  12.010000   ; qtot 5.114988
  146         h1      4    bbb    H17    146 0.13554100   1.008000   ; qtot 5.250529
  147         h1      4    bbb    H18    147 0.13554100   1.008000   ; qtot 5.386070
  148         os      4    bbb     O1    148 -0.62587700  16.000000   ; qtot 4.760193
  149         hn      4    bbb    H19    149 0.23982500   1.008000   ; qtot 5.000018
; residue    5 bbb rtp bbb q 1.0
  150         n4      5    bbb     N1    150 0.03726400  14.010000   ; qtot 5.037282
  151         c3      5    bbb     C1    151 -0.07020100  12.010000   ; qtot 4.967081
  152         hx      5    bbb     H1    152 0.12219000   1.008000   ; qtot 5.089271
  153         hx      5    bbb     H2    153 0.12219000   1.008000   ; qtot 5.211461
  154         c3      5    bbb     C2    154 -0.07020100  12.010000   ; qtot 5.141260
  155         hx      5    bbb     H3    155 0.12219000   1.008000   ; qtot 5.263450
  156         hx      5    bbb     H4    156 0.12219000   1.008000   ; qtot 5.385640
  157         c3      5    bbb     C3    157 -0.39007700  12.010000   ; qtot 4.995563
  158         hx      5    bbb     H5    158 0.14940300   1.008000   ; qtot 5.144966
  159         hx      5    bbb     H6    159 0.14940300   1.008000   ; qtot 5.294369
  160         c3      5    bbb     C4    160 0.18057300  12.010000   ; qtot 5.474942
  161         hc      5    bbb     H7    161 0.01788900   1.008000   ; qtot 5.492831
  162         hc      5    bbb     H8    162 0.01788900   1.008000   ; qtot 5.510720
  163         c3      5    bbb     C5    163 -0.11337700  12.010000   ; qtot 5.397343
  164         hc      5    bbb     H9    164 0.09515400   1.008000   ; qtot 5.492497
  165         hc      5    bbb    H10    165 0.09515400   1.008000   ; qtot 5.587651
  166         c3      5    bbb     C6    166 -0.11337700  12.010000   ; qtot 5.474274
  167         hc      5    bbb    H11    167 0.09515400   1.008000   ; qtot 5.569428
  168         hc      5    bbb    H12    168 0.09515400   1.008000   ; qtot 5.664582
  169         c3      5    bbb     C7    169 0.21842400  12.010000   ; qtot 5.883006
  170         h1      5    bbb    H13    170 0.04500300   1.008000   ; qtot 5.928009
  171         h1      5    bbb    H14    171 0.04500300   1.008000   ; qtot 5.973012
  172         c3      5    bbb     C8    172 -0.06455200  12.010000   ; qtot 5.908460
  173         h1      5    bbb    H15    173 0.13554100   1.008000   ; qtot 6.044001
  174         h1      5    bbb    H16    174 0.13554100   1.008000   ; qtot 6.179542
  175         c3      5    bbb     C9    175 -0.06455200  12.010000   ; qtot 6.114990
  176         h1      5    bbb    H17    176 0.13554100   1.008000   ; qtot 6.250531
  177         h1      5    bbb    H18    177 0.13554100   1.008000   ; qtot 6.386072
  178         os      5    bbb     O1    178 -0.62587700  16.000000   ; qtot 5.760195
  179         hn      5    bbb    H19    179 0.23982500   1.008000   ; qtot 6.000020
; residue    6 bbb rtp bbb q 1.0
  180         n4      6    bbb     N1    180 0.03726400  14.010000   ; qtot 6.037284
  181         c3      6    bbb     C1    181 -0.07020100  12.010000   ; qtot 5.967083
  182         hx      6    bbb     H1    182 0.12219000   1.008000   ; qtot 6.089273
  183         hx      6    bbb     H2    183 0.12219000   1.008000   ; qtot 6.211463
  184         c3      6    bbb     C2    184 -0.07020100  12.010000   ; qtot 6.141262
  185         hx      6    bbb     H3    185 0.12219000   1.008000   ; qtot 6.263452
  186         hx      6    bbb     H4    186 0.12219000   1.008000   ; qtot 6.385642
  187         c3      6    bbb     C3    187 -0.39007700  12.010000   ; qtot 5.995565
  188         hx      6    bbb     H5    188 0.14940300   1.008000   ; qtot 6.144968
  189         hx      6    bbb     H6    189 0.14940300   1.008000   ; qtot 6.294371
  190         c3      6    bbb     C4    190 0.18057300  12.010000   ; qtot 6.474944
  191         hc      6    bbb     H7    191 0.01788900   1.008000   ; qtot 6.492833
  192         hc      6    bbb     H8    192 0.01788900   1.008000   ; qtot 6.510722
  193         c3      6    bbb     C5    193 -0.11337700  12.010000   ; qtot 6.397345
  194         hc      6    bbb     H9    194 0.09515400   1.008000   ; qtot 6.492499
  195         hc      6    bbb    H10    195 0.09515400   1.008000   ; qtot 6.587653
  196         c3      6    bbb     C6    196 -0.11337700  12.010000   ; qtot 6.474276
  197         hc      6    bbb    H11    197 0.09515400   1.008000   ; qtot 6.569430
  198         hc      6    bbb    H12    198 0.09515400   1.008000   ; qtot 6.664584
  199         c3      6    bbb     C7    199 0.21842400  12.010000   ; qtot 6.883008
  200         h1      6    bbb    H13    200 0.04500300   1.008000   ; qtot 6.928011
  201         h1      6    bbb    H14    201 0.04500300   1.008000   ; qtot 6.973014
  202         c3      6    bbb     C8    202 -0.06455200  12.010000   ; qtot 6.908462
  203         h1      6    bbb    H15    203 0.13554100   1.008000   ; qtot 7.044003
  204         h1      6    bbb    H16    204 0.13554100   1.008000   ; qtot 7.179544
  205         c3      6    bbb     C9    205 -0.06455200  12.010000   ; qtot 7.114992
  206         h1      6    bbb    H17    206 0.13554100   1.008000   ; qtot 7.250533
  207         h1      6    bbb    H18    207 0.13554100   1.008000   ; qtot 7.386074
  208         os      6    bbb     O1    208 -0.62587700  16.000000   ; qtot 6.760197
  209         hn      6    bbb    H19    209 0.23982500   1.008000   ; qtot 7.000022
; residue    7 bbb rtp bbb q 1.0
  210         n4      7    bbb     N1    210 0.03726400  14.010000   ; qtot 7.037286
  211         c3      7    bbb     C1    211 -0.07020100  12.010000   ; qtot 6.967085
  212         hx      7    bbb     H1    212 0.12219000   1.008000   ; qtot 7.089275
  213         hx      7    bbb     H2    213 0.12219000   1.008000   ; qtot 7.211465
  214         c3      7    bbb     C2    214 -0.07020100  12.010000   ; qtot 7.141264
  215         hx      7    bbb     H3    215 0.12219000   1.008000   ; qtot 7.263454
  216         hx      7    bbb     H4    216 0.12219000   1.008000   ; qtot 7.385644
  217         c3      7    bbb     C3    217 -0.39007700  12.010000   ; qtot 6.995567
  218         hx      7    bbb     H5    218 0.14940300   1.008000   ; qtot 7.144970
  219         hx      7    bbb     H6    219 0.14940300   1.008000   ; qtot 7.294373
  220         c3      7    bbb     C4    220 0.18057300  12.010000   ; qtot 7.474946
  221         hc      7    bbb     H7    221 0.01788900   1.008000   ; qtot 7.492835
  222         hc      7    bbb     H8    222 0.01788900   1.008000   ; qtot 7.510724
  223         c3      7    bbb     C5    223 -0.11337700  12.010000   ; qtot 7.397347
  224         hc      7    bbb     H9    224 0.09515400   1.008000   ; qtot 7.492501
  225         hc      7    bbb    H10    225 0.09515400   1.008000   ; qtot 7.587655
  226         c3      7    bbb     C6    226 -0.11337700  12.010000   ; qtot 7.474278
  227         hc      7    bbb    H11    227 0.09515400   1.008000   ; qtot 7.569432
  228         hc      7    bbb    H12    228 0.09515400   1.008000   ; qtot 7.664586
  229         c3      7    bbb     C7    229 0.21842400  12.010000   ; qtot 7.883010
  230         h1      7    bbb    H13    230 0.04500300   1.008000   ; qtot 7.928013
  231         h1      7    bbb    H14    231 0.04500300   1.008000   ; qtot 7.973016
  232         c3      7    bbb     C8    232 -0.06455200  12.010000   ; qtot 7.908464
  233         h1      7    bbb    H15    233 0.13554100   1.008000   ; qtot 8.044005
  234         h1      7    bbb    H16    234 0.13554100   1.008000   ; qtot 8.179546
  235         c3      7    bbb     C9    235 -0.06455200  12.010000   ; qtot 8.114994
  236         h1      7    bbb    H17    236 0.13554100   1.008000   ; qtot 8.250535
  237         h1      7    bbb    H18    237 0.13554100   1.008000   ; qtot 8.386076
  238         os      7    bbb     O1    238 -0.62587700  16.000000   ; qtot 7.760199
  239         hn      7    bbb    H19    239 0.23982500   1.008000   ; qtot 8.000024
; residue    8 bbb rtp bbb q 1.0
  240         n4      8    bbb     N1    240 0.03726400  14.010000   ; qtot 8.037288
  241         c3      8    bbb     C1    241 -0.07020100  12.010000   ; qtot 7.967087
  242         hx      8    bbb     H1    242 0.12219000   1.008000   ; qtot 8.089277
  243         hx      8    bbb     H2    243 0.12219000   1.008000   ; qtot 8.211467
  244         c3      8    bbb     C2    244 -0.07020100  12.010000   ; qtot 8.141266
  245         hx      8    bbb     H3    245 0.12219000   1.008000   ; qtot 8.263456
  246         hx      8    bbb     H4    246 0.12219000   1.008000   ; qtot 8.385646
  247         c3      8    bbb     C3    247 -0.39007700  12.010000   ; qtot 7.995569
  248         hx      8    bbb     H5    248 0.14940300   1.008000   ; qtot 8.144972
  249         hx      8    bbb     H6    249 0.14940300   1.008000   ; qtot 8.294375
  250         c3      8    bbb     C4    250 0.18057300  12.010000   ; qtot 8.474948
  251         hc      8    bbb     H7    251 0.01788900   1.008000   ; qtot 8.492837
  252         hc      8    bbb     H8    252 0.01788900   1.008000   ; qtot 8.510726
  253         c3      8    bbb     C5    253 -0.11337700  12.010000   ; qtot 8.397349
  254         hc      8    bbb     H9    254 0.09515400   1.008000   ; qtot 8.492503
  255         hc      8    bbb    H10    255 0.09515400   1.008000   ; qtot 8.587657
  256         c3      8    bbb     C6    256 -0.11337700  12.010000   ; qtot 8.474280
  257         hc      8    bbb    H11    257 0.09515400   1.008000   ; qtot 8.569434
  258         hc      8    bbb    H12    258 0.09515400   1.008000   ; qtot 8.664588
  259         c3      8    bbb     C7    259 0.21842400  12.010000   ; qtot 8.883012
  260         h1      8    bbb    H13    260 0.04500300   1.008000   ; qtot 8.928015
  261         h1      8    bbb    H14    261 0.04500300   1.008000   ; qtot 8.973018
  262         c3      8    bbb     C8    262 -0.06455200  12.010000   ; qtot 8.908466
  263         h1      8    bbb    H15    263 0.13554100   1.008000   ; qtot 9.044007
  264         h1      8    bbb    H16    264 0.13554100   1.008000   ; qtot 9.179548
  265         c3      8    bbb     C9    265 -0.06455200  12.010000   ; qtot 9.114996
  266         h1      8    bbb    H17    266 0.13554100   1.008000   ; qtot 9.250537
  267         h1      8    bbb    H18    267 0.13554100   1.008000   ; qtot 9.386078
  268         os      8    bbb     O1    268 -0.62587700  16.000000   ; qtot 8.760201
  269         hn      8    bbb    H19    269 0.23982500   1.008000   ; qtot 9.000026
; residue    9 bbb rtp bbb q 1.0
  270         n4      9    bbb     N1    270 0.03726400  14.010000   ; qtot 9.037290
  271         c3      9    bbb     C1    271 -0.07020100  12.010000   ; qtot 8.967089
  272         hx      9    bbb     H1    272 0.12219000   1.008000   ; qtot 9.089279
  273         hx      9    bbb     H2    273 0.12219000   1.008000   ; qtot 9.211469
  274         c3      9    bbb     C2    274 -0.07020100  12.010000   ; qtot 9.141268
  275         hx      9    bbb     H3    275 0.12219000   1.008000   ; qtot 9.263458
  276         hx      9    bbb     H4    276 0.12219000   1.008000   ; qtot 9.385648
  277         c3      9    bbb     C3    277 -0.39007700  12.010000   ; qtot 8.995571
  278         hx      9    bbb     H5    278 0.14940300   1.008000   ; qtot 9.144974
  279         hx      9    bbb     H6    279 0.14940300   1.008000   ; qtot 9.294377
  280         c3      9    bbb     C4    280 0.18057300  12.010000   ; qtot 9.474950
  281         hc      9    bbb     H7    281 0.01788900   1.008000   ; qtot 9.492839
  282         hc      9    bbb     H8    282 0.01788900   1.008000   ; qtot 9.510728
  283         c3      9    bbb     C5    283 -0.11337700  12.010000   ; qtot 9.397351
  284         hc      9    bbb     H9    284 0.09515400   1.008000   ; qtot 9.492505
  285         hc      9    bbb    H10    285 0.09515400   1.008000   ; qtot 9.587659
  286         c3      9    bbb     C6    286 -0.11337700  12.010000   ; qtot 9.474282
  287         hc      9    bbb    H11    287 0.09515400   1.008000   ; qtot 9.569436
  288         hc      9    bbb    H12    288 0.09515400   1.008000   ; qtot 9.664590
  289         c3      9    bbb     C7    289 0.21842400  12.010000   ; qtot 9.883014
  290         h1      9    bbb    H13    290 0.04500300   1.008000   ; qtot 9.928017
  291         h1      9    bbb    H14    291 0.04500300   1.008000   ; qtot 9.973020
  292         c3      9    bbb     C8    292 -0.06455200  12.010000   ; qtot 9.908468
  293         h1      9    bbb    H15    293 0.13554100   1.008000   ; qtot 10.044009
  294         h1      9    bbb    H16    294 0.13554100   1.008000   ; qtot 10.179550
  295         c3      9    bbb     C9    295 -0.06455200  12.010000   ; qtot 10.114998
  296         h1      9    bbb    H17    296 0.13554100   1.008000   ; qtot 10.250539
  297         h1      9    bbb    H18    297 0.13554100   1.008000   ; qtot 10.386080
  298         os      9    bbb     O1    298 -0.62587700  16.000000   ; qtot 9.760203
  299         hn      9    bbb    H19    299 0.23982500   1.008000   ; qtot 10.000028
; residue   10 bbb rtp bbb q 1.0
  300         n4     10    bbb     N1    300 0.03726400  14.010000   ; qtot 10.037292
  301         c3     10    bbb     C1    301 -0.07020100  12.010000   ; qtot 9.967091
  302         hx     10    bbb     H1    302 0.12219000   1.008000   ; qtot 10.089281
  303         hx     10    bbb     H2    303 0.12219000   1.008000   ; qtot 10.211471
  304         c3     10    bbb     C2    304 -0.07020100  12.010000   ; qtot 10.141270
  305         hx     10    bbb     H3    305 0.12219000   1.008000   ; qtot 10.263460
  306         hx     10    bbb     H4    306 0.12219000   1.008000   ; qtot 10.385650
  307         c3     10    bbb     C3    307 -0.39007700  12.010000   ; qtot 9.995573
  308         hx     10    bbb     H5    308 0.14940300   1.008000   ; qtot 10.144976
  309         hx     10    bbb     H6    309 0.14940300   1.008000   ; qtot 10.294379
  310         c3     10    bbb     C4    310 0.18057300  12.010000   ; qtot 10.474952
  311         hc     10    bbb     H7    311 0.01788900   1.008000   ; qtot 10.492841
  312         hc     10    bbb     H8    312 0.01788900   1.008000   ; qtot 10.510730
  313         c3     10    bbb     C5    313 -0.11337700  12.010000   ; qtot 10.397353
  314         hc     10    bbb     H9    314 0.09515400   1.008000   ; qtot 10.492507
  315         hc     10    bbb    H10    315 0.09515400   1.008000   ; qtot 10.587661
  316         c3     10    bbb     C6    316 -0.11337700  12.010000   ; qtot 10.474284
  317         hc     10    bbb    H11    317 0.09515400   1.008000   ; qtot 10.569438
  318         hc     10    bbb    H12    318 0.09515400   1.008000   ; qtot 10.664592
  319         c3     10    bbb     C7    319 0.21842400  12.010000   ; qtot 10.883016
  320         h1     10    bbb    H13    320 0.04500300   1.008000   ; qtot 10.928019
  321         h1     10    bbb    H14    321 0.04500300   1.008000   ; qtot 10.973022
  322         c3     10    bbb     C8    322 -0.06455200  12.010000   ; qtot 10.908470
  323         h1     10    bbb    H15    323 0.13554100   1.008000   ; qtot 11.044011
  324         h1     10    bbb    H16    324 0.13554100   1.008000   ; qtot 11.179552
  325         c3     10    bbb     C9    325 -0.06455200  12.010000   ; qtot 11.115000
  326         h1     10    bbb    H17    326 0.13554100   1.008000   ; qtot 11.250541
  327         h1     10    bbb    H18    327 0.13554100   1.008000   ; qtot 11.386082
  328         os     10    bbb     O1    328 -0.62587700  16.000000   ; qtot 10.760205
  329         hn     10    bbb    H19    329 0.23982500   1.008000   ; qtot 11.000030
; residue   11 bbb rtp bbb q 1.0
  330         n4     11    bbb     N1    330 0.03726400  14.010000   ; qtot 11.037294
  331         c3     11    bbb     C1    331 -0.07020100  12.010000   ; qtot 10.967093
  332         hx     11    bbb     H1    332 0.12219000   1.008000   ; qtot 11.089283
  333         hx     11    bbb     H2    333 0.12219000   1.008000   ; qtot 11.211473
  334         c3     11    bbb     C2    334 -0.07020100  12.010000   ; qtot 11.141272
  335         hx     11    bbb     H3    335 0.12219000   1.008000   ; qtot 11.263462
  336         hx     11    bbb     H4    336 0.12219000   1.008000   ; qtot 11.385652
  337         c3     11    bbb     C3    337 -0.39007700  12.010000   ; qtot 10.995575
  338         hx     11    bbb     H5    338 0.14940300   1.008000   ; qtot 11.144978
  339         hx     11    bbb     H6    339 0.14940300   1.008000   ; qtot 11.294381
  340         c3     11    bbb     C4    340 0.18057300  12.010000   ; qtot 11.474954
  341         hc     11    bbb     H7    341 0.01788900   1.008000   ; qtot 11.492843
  342         hc     11    bbb     H8    342 0.01788900   1.008000   ; qtot 11.510732
  343         c3     11    bbb     C5    343 -0.11337700  12.010000   ; qtot 11.397355
  344         hc     11    bbb     H9    344 0.09515400   1.008000   ; qtot 11.492509
  345         hc     11    bbb    H10    345 0.09515400   1.008000   ; qtot 11.587663
  346         c3     11    bbb     C6    346 -0.11337700  12.010000   ; qtot 11.474286
  347         hc     11    bbb    H11    347 0.09515400   1.008000   ; qtot 11.569440
  348         hc     11    bbb    H12    348 0.09515400   1.008000   ; qtot 11.664594
  349         c3     11    bbb     C7    349 0.21842400  12.010000   ; qtot 11.883018
  350         h1     11    bbb    H13    350 0.04500300   1.008000   ; qtot 11.928021
  351         h1     11    bbb    H14    351 0.04500300   1.008000   ; qtot 11.973024
  352         c3     11    bbb     C8    352 -0.06455200  12.010000   ; qtot 11.908472
  353         h1     11    bbb    H15    353 0.13554100   1.008000   ; qtot 12.044013
  354         h1     11    bbb    H16    354 0.13554100   1.008000   ; qtot 12.179554
  355         c3     11    bbb     C9    355 -0.06455200  12.010000   ; qtot 12.115002
  356         h1     11    bbb    H17    356 0.13554100   1.008000   ; qtot 12.250543
  357         h1     11    bbb    H18    357 0.13554100   1.008000   ; qtot 12.386084
  358         os     11    bbb     O1    358 -0.62587700  16.000000   ; qtot 11.760207
  359         hn     11    bbb    H19    359 0.23982500   1.008000   ; qtot 12.000032
; residue   12 bbb rtp bbb q 1.0
  360         n4     12    bbb     N1    360 0.03726400  14.010000   ; qtot 12.037296
  361         c3     12    bbb     C1    361 -0.07020100  12.010000   ; qtot 11.967095
  362         hx     12    bbb     H1    362 0.12219000   1.008000   ; qtot 12.089285
  363         hx     12    bbb     H2    363 0.12219000   1.008000   ; qtot 12.211475
  364         c3     12    bbb     C2    364 -0.07020100  12.010000   ; qtot 12.141274
  365         hx     12    bbb     H3    365 0.12219000   1.008000   ; qtot 12.263464
  366         hx     12    bbb     H4    366 0.12219000   1.008000   ; qtot 12.385654
  367         c3     12    bbb     C3    367 -0.39007700  12.010000   ; qtot 11.995577
  368         hx     12    bbb     H5    368 0.14940300   1.008000   ; qtot 12.144980
  369         hx     12    bbb     H6    369 0.14940300   1.008000   ; qtot 12.294383
  370         c3     12    bbb     C4    370 0.18057300  12.010000   ; qtot 12.474956
  371         hc     12    bbb     H7    371 0.01788900   1.008000   ; qtot 12.492845
  372         hc     12    bbb     H8    372 0.01788900   1.008000   ; qtot 12.510734
  373         c3     12    bbb     C5    373 -0.11337700  12.010000   ; qtot 12.397357
  374         hc     12    bbb     H9    374 0.09515400   1.008000   ; qtot 12.492511
  375         hc     12    bbb    H10    375 0.09515400   1.008000   ; qtot 12.587665
  376         c3     12    bbb     C6    376 -0.11337700  12.010000   ; qtot 12.474288
  377         hc     12    bbb    H11    377 0.09515400   1.008000   ; qtot 12.569442
  378         hc     12    bbb    H12    378 0.09515400   1.008000   ; qtot 12.664596
  379         c3     12    bbb     C7    379 0.21842400  12.010000   ; qtot 12.883020
  380         h1     12    bbb    H13    380 0.04500300   1.008000   ; qtot 12.928023
  381         h1     12    bbb    H14    381 0.04500300   1.008000   ; qtot 12.973026
  382         c3     12    bbb     C8    382 -0.06455200  12.010000   ; qtot 12.908474
  383         h1     12    bbb    H15    383 0.13554100   1.008000   ; qtot 13.044015
  384         h1     12    bbb    H16    384 0.13554100   1.008000   ; qtot 13.179556
  385         c3     12    bbb     C9    385 -0.06455200  12.010000   ; qtot 13.115004
  386         h1     12    bbb    H17    386 0.13554100   1.008000   ; qtot 13.250545
  387         h1     12    bbb    H18    387 0.13554100   1.008000   ; qtot 13.386086
  388         os     12    bbb     O1    388 -0.62587700  16.000000   ; qtot 12.760209
  389         hn     12    bbb    H19    389 0.23982500   1.008000   ; qtot 13.000034
; residue   13 bbb rtp bbb q 1.0
  390         n4     13    bbb     N1    390 0.03726400  14.010000   ; qtot 13.037298
  391         c3     13    bbb     C1    391 -0.07020100  12.010000   ; qtot 12.967097
  392         hx     13    bbb     H1    392 0.12219000   1.008000   ; qtot 13.089287
  393         hx     13    bbb     H2    393 0.12219000   1.008000   ; qtot 13.211477
  394         c3     13    bbb     C2    394 -0.07020100  12.010000   ; qtot 13.141276
  395         hx     13    bbb     H3    395 0.12219000   1.008000   ; qtot 13.263466
  396         hx     13    bbb     H4    396 0.12219000   1.008000   ; qtot 13.385656
  397         c3     13    bbb     C3    397 -0.39007700  12.010000   ; qtot 12.995579
  398         hx     13    bbb     H5    398 0.14940300   1.008000   ; qtot 13.144982
  399         hx     13    bbb     H6    399 0.14940300   1.008000   ; qtot 13.294385
  400         c3     13    bbb     C4    400 0.18057300  12.010000   ; qtot 13.474958
  401         hc     13    bbb     H7    401 0.01788900   1.008000   ; qtot 13.492847
  402         hc     13    bbb     H8    402 0.01788900   1.008000   ; qtot 13.510736
  403         c3     13    bbb     C5    403 -0.11337700  12.010000   ; qtot 13.397359
  404         hc     13    bbb     H9    404 0.09515400   1.008000   ; qtot 13.492513
  405         hc     13    bbb    H10    405 0.09515400   1.008000   ; qtot 13.587667
  406         c3     13    bbb     C6    406 -0.11337700  12.010000   ; qtot 13.474290
  407         hc     13    bbb    H11    407 0.09515400   1.008000   ; qtot 13.569444
  408         hc     13    bbb    H12    408 0.09515400   1.008000   ; qtot 13.664598
  409         c3     13    bbb     C7    409 0.21842400  12.010000   ; qtot 13.883022
  410         h1     13    bbb    H13    410 0.04500300   1.008000   ; qtot 13.928025
  411         h1     13    bbb    H14    411 0.04500300   1.008000   ; qtot 13.973028
  412         c3     13    bbb     C8    412 -0.06455200  12.010000   ; qtot 13.908476
  413         h1     13    bbb    H15    413 0.13554100   1.008000   ; qtot 14.044017
  414         h1     13    bbb    H16    414 0.13554100   1.008000   ; qtot 14.179558
  415         c3     13    bbb     C9    415 -0.06455200  12.010000   ; qtot 14.115006
  416         h1     13    bbb    H17    416 0.13554100   1.008000   ; qtot 14.250547
  417         h1     13    bbb    H18    417 0.13554100   1.008000   ; qtot 14.386088
  418         os     13    bbb     O1    418 -0.62587700  16.000000   ; qtot 13.760211
  419         hn     13    bbb    H19    419 0.23982500   1.008000   ; qtot 14.000036
; residue   14 bbb rtp bbb q 1.0
  420         n4     14    bbb     N1    420 0.03726400  14.010000   ; qtot 14.037300
  421         c3     14    bbb     C1    421 -0.07020100  12.010000   ; qtot 13.967099
  422         hx     14    bbb     H1    422 0.12219000   1.008000   ; qtot 14.089289
  423         hx     14    bbb     H2    423 0.12219000   1.008000   ; qtot 14.211479
  424         c3     14    bbb     C2    424 -0.07020100  12.010000   ; qtot 14.141278
  425         hx     14    bbb     H3    425 0.12219000   1.008000   ; qtot 14.263468
  426         hx     14    bbb     H4    426 0.12219000   1.008000   ; qtot 14.385658
  427         c3     14    bbb     C3    427 -0.39007700  12.010000   ; qtot 13.995581
  428         hx     14    bbb     H5    428 0.14940300   1.008000   ; qtot 14.144984
  429         hx     14    bbb     H6    429 0.14940300   1.008000   ; qtot 14.294387
  430         c3     14    bbb     C4    430 0.18057300  12.010000   ; qtot 14.474960
  431         hc     14    bbb     H7    431 0.01788900   1.008000   ; qtot 14.492849
  432         hc     14    bbb     H8    432 0.01788900   1.008000   ; qtot 14.510738
  433         c3     14    bbb     C5    433 -0.11337700  12.010000   ; qtot 14.397361
  434         hc     14    bbb     H9    434 0.09515400   1.008000   ; qtot 14.492515
  435         hc     14    bbb    H10    435 0.09515400   1.008000   ; qtot 14.587669
  436         c3     14    bbb     C6    436 -0.11337700  12.010000   ; qtot 14.474292
  437         hc     14    bbb    H11    437 0.09515400   1.008000   ; qtot 14.569446
  438         hc     14    bbb    H12    438 0.09515400   1.008000   ; qtot 14.664600
  439         c3     14    bbb     C7    439 0.21842400  12.010000   ; qtot 14.883024
  440         h1     14    bbb    H13    440 0.04500300   1.008000   ; qtot 14.928027
  441         h1     14    bbb    H14    441 0.04500300   1.008000   ; qtot 14.973030
  442         c3     14    bbb     C8    442 -0.06455200  12.010000   ; qtot 14.908478
  443         h1     14    bbb    H15    443 0.13554100   1.008000   ; qtot 15.044019
  444         h1     14    bbb    H16    444 0.13554100   1.008000   ; qtot 15.179560
  445         c3     14    bbb     C9    445 -0.06455200  12.010000   ; qtot 15.115008
  446         h1     14    bbb    H17    446 0.13554100   1.008000   ; qtot 15.250549
  447         h1     14    bbb    H18    447 0.13554100   1.008000   ; qtot 15.386090
  448         os     14    bbb     O1    448 -0.62587700  16.000000   ; qtot 14.760213
  449         hn     14    bbb    H19    449 0.23982500   1.008000   ; qtot 15.000038
; residue   15 bbb rtp bbb q 1.0
  450         n4     15    bbb     N1    450 0.03726400  14.010000   ; qtot 15.037302
  451         c3     15    bbb     C1    451 -0.07020100  12.010000   ; qtot 14.967101
  452         hx     15    bbb     H1    452 0.12219000   1.008000   ; qtot 15.089291
  453         hx     15    bbb     H2    453 0.12219000   1.008000   ; qtot 15.211481
  454         c3     15    bbb     C2    454 -0.07020100  12.010000   ; qtot 15.141280
  455         hx     15    bbb     H3    455 0.12219000   1.008000   ; qtot 15.263470
  456         hx     15    bbb     H4    456 0.12219000   1.008000   ; qtot 15.385660
  457         c3     15    bbb     C3    457 -0.39007700  12.010000   ; qtot 14.995583
  458         hx     15    bbb     H5    458 0.14940300   1.008000   ; qtot 15.144986
  459         hx     15    bbb     H6    459 0.14940300   1.008000   ; qtot 15.294389
  460         c3     15    bbb     C4    460 0.18057300  12.010000   ; qtot 15.474962
  461         hc     15    bbb     H7    461 0.01788900   1.008000   ; qtot 15.492851
  462         hc     15    bbb     H8    462 0.01788900   1.008000   ; qtot 15.510740
  463         c3     15    bbb     C5    463 -0.11337700  12.010000   ; qtot 15.397363
  464         hc     15    bbb     H9    464 0.09515400   1.008000   ; qtot 15.492517
  465         hc     15    bbb    H10    465 0.09515400   1.008000   ; qtot 15.587671
  466         c3     15    bbb     C6    466 -0.11337700  12.010000   ; qtot 15.474294
  467         hc     15    bbb    H11    467 0.09515400   1.008000   ; qtot 15.569448
  468         hc     15    bbb    H12    468 0.09515400   1.008000   ; qtot 15.664602
  469         c3     15    bbb     C7    469 0.21842400  12.010000   ; qtot 15.883026
  470         h1     15    bbb    H13    470 0.04500300   1.008000   ; qtot 15.928029
  471         h1     15    bbb    H14    471 0.04500300   1.008000   ; qtot 15.973032
  472         c3     15    bbb     C8    472 -0.06455200  12.010000   ; qtot 15.908480
  473         h1     15    bbb    H15    473 0.13554100   1.008000   ; qtot 16.044021
  474         h1     15    bbb    H16    474 0.13554100   1.008000   ; qtot 16.179562
  475         c3     15    bbb     C9    475 -0.06455200  12.010000   ; qtot 16.115010
  476         h1     15    bbb    H17    476 0.13554100   1.008000   ; qtot 16.250551
  477         h1     15    bbb    H18    477 0.13554100   1.008000   ; qtot 16.386092
  478         os     15    bbb     O1    478 -0.62587700  16.000000   ; qtot 15.760215
  479         hn     15    bbb    H19    479 0.23982500   1.008000   ; qtot 16.000040
; residue   16 bbb rtp bbb q 1.0
  480         n4     16    bbb     N1    480 0.03726400  14.010000   ; qtot 16.037304
  481         c3     16    bbb     C1    481 -0.07020100  12.010000   ; qtot 15.967103
  482         hx     16    bbb     H1    482 0.12219000   1.008000   ; qtot 16.089293
  483         hx     16    bbb     H2    483 0.12219000   1.008000   ; qtot 16.211483
  484         c3     16    bbb     C2    484 -0.07020100  12.010000   ; qtot 16.141282
  485         hx     16    bbb     H3    485 0.12219000   1.008000   ; qtot 16.263472
  486         hx     16    bbb     H4    486 0.12219000   1.008000   ; qtot 16.385662
  487         c3     16    bbb     C3    487 -0.39007700  12.010000   ; qtot 15.995585
  488         hx     16    bbb     H5    488 0.14940300   1.008000   ; qtot 16.144988
  489         hx     16    bbb     H6    489 0.14940300   1.008000   ; qtot 16.294391
  490         c3     16    bbb     C4    490 0.18057300  12.010000   ; qtot 16.474964
  491         hc     16    bbb     H7    491 0.01788900   1.008000   ; qtot 16.492853
  492         hc     16    bbb     H8    492 0.01788900   1.008000   ; qtot 16.510742
  493         c3     16    bbb     C5    493 -0.11337700  12.010000   ; qtot 16.397365
  494         hc     16    bbb     H9    494 0.09515400   1.008000   ; qtot 16.492519
  495         hc     16    bbb    H10    495 0.09515400   1.008000   ; qtot 16.587673
  496         c3     16    bbb     C6    496 -0.11337700  12.010000   ; qtot 16.474296
  497         hc     16    bbb    H11    497 0.09515400   1.008000   ; qtot 16.569450
  498         hc     16    bbb    H12    498 0.09515400   1.008000   ; qtot 16.664604
  499         c3     16    bbb     C7    499 0.21842400  12.010000   ; qtot 16.883028
  500         h1     16    bbb    H13    500 0.04500300   1.008000   ; qtot 16.928031
  501         h1     16    bbb    H14    501 0.04500300   1.008000   ; qtot 16.973034
  502         c3     16    bbb     C8    502 -0.06455200  12.010000   ; qtot 16.908482
  503         h1     16    bbb    H15    503 0.13554100   1.008000   ; qtot 17.044023
  504         h1     16    bbb    H16    504 0.13554100   1.008000   ; qtot 17.179564
  505         c3     16    bbb     C9    505 -0.06455200  12.010000   ; qtot 17.115012
  506         h1     16    bbb    H17    506 0.13554100   1.008000   ; qtot 17.250553
  507         h1     16    bbb    H18    507 0.13554100   1.008000   ; qtot 17.386094
  508         os     16    bbb     O1    508 -0.62587700  16.000000   ; qtot 16.760217
  509         hn     16    bbb    H19    509 0.23982500   1.008000   ; qtot 17.000042
; residue   17 bbb rtp bbb q 1.0
  510         n4     17    bbb     N1    510 0.03726400  14.010000   ; qtot 17.037306
  511         c3     17    bbb     C1    511 -0.07020100  12.010000   ; qtot 16.967105
  512         hx     17    bbb     H1    512 0.12219000   1.008000   ; qtot 17.089295
  513         hx     17    bbb     H2    513 0.12219000   1.008000   ; qtot 17.211485
  514         c3     17    bbb     C2    514 -0.07020100  12.010000   ; qtot 17.141284
  515         hx     17    bbb     H3    515 0.12219000   1.008000   ; qtot 17.263474
  516         hx     17    bbb     H4    516 0.12219000   1.008000   ; qtot 17.385664
  517         c3     17    bbb     C3    517 -0.39007700  12.010000   ; qtot 16.995587
  518         hx     17    bbb     H5    518 0.14940300   1.008000   ; qtot 17.144990
  519         hx     17    bbb     H6    519 0.14940300   1.008000   ; qtot 17.294393
  520         c3     17    bbb     C4    520 0.18057300  12.010000   ; qtot 17.474966
  521         hc     17    bbb     H7    521 0.01788900   1.008000   ; qtot 17.492855
  522         hc     17    bbb     H8    522 0.01788900   1.008000   ; qtot 17.510744
  523         c3     17    bbb     C5    523 -0.11337700  12.010000   ; qtot 17.397367
  524         hc     17    bbb     H9    524 0.09515400   1.008000   ; qtot 17.492521
  525         hc     17    bbb    H10    525 0.09515400   1.008000   ; qtot 17.587675
  526         c3     17    bbb     C6    526 -0.11337700  12.010000   ; qtot 17.474298
  527         hc     17    bbb    H11    527 0.09515400   1.008000   ; qtot 17.569452
  528         hc     17    bbb    H12    528 0.09515400   1.008000   ; qtot 17.664606
  529         c3     17    bbb     C7    529 0.21842400  12.010000   ; qtot 17.883030
  530         h1     17    bbb    H13    530 0.04500300   1.008000   ; qtot 17.928033
  531         h1     17    bbb    H14    531 0.04500300   1.008000   ; qtot 17.973036
  532         c3     17    bbb     C8    532 -0.06455200  12.010000   ; qtot 17.908484
  533         h1     17    bbb    H15    533 0.13554100   1.008000   ; qtot 18.044025
  534         h1     17    bbb    H16    534 0.13554100   1.008000   ; qtot 18.179566
  535         c3     17    bbb     C9    535 -0.06455200  12.010000   ; qtot 18.115014
  536         h1     17    bbb    H17    536 0.13554100   1.008000   ; qtot 18.250555
  537         h1     17    bbb    H18    537 0.13554100   1.008000   ; qtot 18.386096
  538         os     17    bbb     O1    538 -0.62587700  16.000000   ; qtot 17.760219
  539         hn     17    bbb    H19    539 0.23982500   1.008000   ; qtot 18.000044
; residue   18 bbb rtp bbb q 1.0
  540         n4     18    bbb     N1    540 0.03726400  14.010000   ; qtot 18.037308
  541         c3     18    bbb     C1    541 -0.07020100  12.010000   ; qtot 17.967107
  542         hx     18    bbb     H1    542 0.12219000   1.008000   ; qtot 18.089297
  543         hx     18    bbb     H2    543 0.12219000   1.008000   ; qtot 18.211487
  544         c3     18    bbb     C2    544 -0.07020100  12.010000   ; qtot 18.141286
  545         hx     18    bbb     H3    545 0.12219000   1.008000   ; qtot 18.263476
  546         hx     18    bbb     H4    546 0.12219000   1.008000   ; qtot 18.385666
  547         c3     18    bbb     C3    547 -0.39007700  12.010000   ; qtot 17.995589
  548         hx     18    bbb     H5    548 0.14940300   1.008000   ; qtot 18.144992
  549         hx     18    bbb     H6    549 0.14940300   1.008000   ; qtot 18.294395
  550         c3     18    bbb     C4    550 0.18057300  12.010000   ; qtot 18.474968
  551         hc     18    bbb     H7    551 0.01788900   1.008000   ; qtot 18.492857
  552         hc     18    bbb     H8    552 0.01788900   1.008000   ; qtot 18.510746
  553         c3     18    bbb     C5    553 -0.11337700  12.010000   ; qtot 18.397369
  554         hc     18    bbb     H9    554 0.09515400   1.008000   ; qtot 18.492523
  555         hc     18    bbb    H10    555 0.09515400   1.008000   ; qtot 18.587677
  556         c3     18    bbb     C6    556 -0.11337700  12.010000   ; qtot 18.474300
  557         hc     18    bbb    H11    557 0.09515400   1.008000   ; qtot 18.569454
  558         hc     18    bbb    H12    558 0.09515400   1.008000   ; qtot 18.664608
  559         c3     18    bbb     C7    559 0.21842400  12.010000   ; qtot 18.883032
  560         h1     18    bbb    H13    560 0.04500300   1.008000   ; qtot 18.928035
  561         h1     18    bbb    H14    561 0.04500300   1.008000   ; qtot 18.973038
  562         c3     18    bbb     C8    562 -0.06455200  12.010000   ; qtot 18.908486
  563         h1     18    bbb    H15    563 0.13554100   1.008000   ; qtot 19.044027
  564         h1     18    bbb    H16    564 0.13554100   1.008000   ; qtot 19.179568
  565         c3     18    bbb     C9    565 -0.06455200  12.010000   ; qtot 19.115016
  566         h1     18    bbb    H17    566 0.13554100   1.008000   ; qtot 19.250557
  567         h1     18    bbb    H18    567 0.13554100   1.008000   ; qtot 19.386098
  568         os     18    bbb     O1    568 -0.62587700  16.000000   ; qtot 18.760221
  569         hn     18    bbb    H19    569 0.23982500   1.008000   ; qtot 19.000046
; residue   19 bbb rtp bbb q 1.0
  570         n4     19    bbb     N1    570 0.03726400  14.010000   ; qtot 19.037310
  571         c3     19    bbb     C1    571 -0.07020100  12.010000   ; qtot 18.967109
  572         hx     19    bbb     H1    572 0.12219000   1.008000   ; qtot 19.089299
  573         hx     19    bbb     H2    573 0.12219000   1.008000   ; qtot 19.211489
  574         c3     19    bbb     C2    574 -0.07020100  12.010000   ; qtot 19.141288
  575         hx     19    bbb     H3    575 0.12219000   1.008000   ; qtot 19.263478
  576         hx     19    bbb     H4    576 0.12219000   1.008000   ; qtot 19.385668
  577         c3     19    bbb     C3    577 -0.39007700  12.010000   ; qtot 18.995591
  578         hx     19    bbb     H5    578 0.14940300   1.008000   ; qtot 19.144994
  579         hx     19    bbb     H6    579 0.14940300   1.008000   ; qtot 19.294397
  580         c3     19    bbb     C4    580 0.18057300  12.010000   ; qtot 19.474970
  581         hc     19    bbb     H7    581 0.01788900   1.008000   ; qtot 19.492859
  582         hc     19    bbb     H8    582 0.01788900   1.008000   ; qtot 19.510748
  583         c3     19    bbb     C5    583 -0.11337700  12.010000   ; qtot 19.397371
  584         hc     19    bbb     H9    584 0.09515400   1.008000   ; qtot 19.492525
  585         hc     19    bbb    H10    585 0.09515400   1.008000   ; qtot 19.587679
  586         c3     19    bbb     C6    586 -0.11337700  12.010000   ; qtot 19.474302
  587         hc     19    bbb    H11    587 0.09515400   1.008000   ; qtot 19.569456
  588         hc     19    bbb    H12    588 0.09515400   1.008000   ; qtot 19.664610
  589         c3     19    bbb     C7    589 0.21842400  12.010000   ; qtot 19.883034
  590         h1     19    bbb    H13    590 0.04500300   1.008000   ; qtot 19.928037
  591         h1     19    bbb    H14    591 0.04500300   1.008000   ; qtot 19.973040
  592         c3     19    bbb     C8    592 -0.06455200  12.010000   ; qtot 19.908488
  593         h1     19    bbb    H15    593 0.13554100   1.008000   ; qtot 20.044029
  594         h1     19    bbb    H16    594 0.13554100   1.008000   ; qtot 20.179570
  595         c3     19    bbb     C9    595 -0.06455200  12.010000   ; qtot 20.115018
  596         h1     19    bbb    H17    596 0.13554100   1.008000   ; qtot 20.250559
  597         h1     19    bbb    H18    597 0.13554100   1.008000   ; qtot 20.386100
  598         os     19    bbb     O1    598 -0.62587700  16.000000   ; qtot 19.760223
  599         hn     19    bbb    H19    599 0.23982500   1.008000   ; qtot 20.000048
; residue   20 bbb rtp bbb q 1.0
  600         n4     20    bbb     N1    600 0.03726400  14.010000   ; qtot 20.037312
  601         c3     20    bbb     C1    601 -0.07020100  12.010000   ; qtot 19.967111
  602         hx     20    bbb     H1    602 0.12219000   1.008000   ; qtot 20.089301
  603         hx     20    bbb     H2    603 0.12219000   1.008000   ; qtot 20.211491
  604         c3     20    bbb     C2    604 -0.07020100  12.010000   ; qtot 20.141290
  605         hx     20    bbb     H3    605 0.12219000   1.008000   ; qtot 20.263480
  606         hx     20    bbb     H4    606 0.12219000   1.008000   ; qtot 20.385670
  607         c3     20    bbb     C3    607 -0.39007700  12.010000   ; qtot 19.995593
  608         hx     20    bbb     H5    608 0.14940300   1.008000   ; qtot 20.144996
  609         hx     20    bbb     H6    609 0.14940300   1.008000   ; qtot 20.294399
  610         c3     20    bbb     C4    610 0.18057300  12.010000   ; qtot 20.474972
  611         hc     20    bbb     H7    611 0.01788900   1.008000   ; qtot 20.492861
  612         hc     20    bbb     H8    612 0.01788900   1.008000   ; qtot 20.510750
  613         c3     20    bbb     C5    613 -0.11337700  12.010000   ; qtot 20.397373
  614         hc     20    bbb     H9    614 0.09515400   1.008000   ; qtot 20.492527
  615         hc     20    bbb    H10    615 0.09515400   1.008000   ; qtot 20.587681
  616         c3     20    bbb     C6    616 -0.11337700  12.010000   ; qtot 20.474304
  617         hc     20    bbb    H11    617 0.09515400   1.008000   ; qtot 20.569458
  618         hc     20    bbb    H12    618 0.09515400   1.008000   ; qtot 20.664612
  619         c3     20    bbb     C7    619 0.21842400  12.010000   ; qtot 20.883036
  620         h1     20    bbb    H13    620 0.04500300   1.008000   ; qtot 20.928039
  621         h1     20    bbb    H14    621 0.04500300   1.008000   ; qtot 20.973042
  622         c3     20    bbb     C8    622 -0.06455200  12.010000   ; qtot 20.908490
  623         h1     20    bbb    H15    623 0.13554100   1.008000   ; qtot 21.044031
  624         h1     20    bbb    H16    624 0.13554100   1.008000   ; qtot 21.179572
  625         c3     20    bbb     C9    625 -0.06455200  12.010000   ; qtot 21.115020
  626         h1     20    bbb    H17    626 0.13554100   1.008000   ; qtot 21.250561
  627         h1     20    bbb    H18    627 0.13554100   1.008000   ; qtot 21.386102
  628         os     20    bbb     O1    628 -0.62587700  16.000000   ; qtot 20.760225
  629         hn     20    bbb    H19    629 0.23982500   1.008000   ; qtot 21.000050
; residue   21 bbb rtp bbb q 1.0
  630         n4     21    bbb     N1    630 0.03726400  14.010000   ; qtot 21.037314
  631         c3     21    bbb     C1    631 -0.07020100  12.010000   ; qtot 20.967113
  632         hx     21    bbb     H1    632 0.12219000   1.008000   ; qtot 21.089303
  633         hx     21    bbb     H2    633 0.12219000   1.008000   ; qtot 21.211493
  634         c3     21    bbb     C2    634 -0.07020100  12.010000   ; qtot 21.141292
  635         hx     21    bbb     H3    635 0.12219000   1.008000   ; qtot 21.263482
  636         hx     21    bbb     H4    636 0.12219000   1.008000   ; qtot 21.385672
  637         c3     21    bbb     C3    637 -0.39007700  12.010000   ; qtot 20.995595
  638         hx     21    bbb     H5    638 0.14940300   1.008000   ; qtot 21.144998
  639         hx     21    bbb     H6    639 0.14940300   1.008000   ; qtot 21.294401
  640         c3     21    bbb     C4    640 0.18057300  12.010000   ; qtot 21.474974
  641         hc     21    bbb     H7    641 0.01788900   1.008000   ; qtot 21.492863
  642         hc     21    bbb     H8    642 0.01788900   1.008000   ; qtot 21.510752
  643         c3     21    bbb     C5    643 -0.11337700  12.010000   ; qtot 21.397375
  644         hc     21    bbb     H9    644 0.09515400   1.008000   ; qtot 21.492529
  645         hc     21    bbb    H10    645 0.09515400   1.008000   ; qtot 21.587683
  646         c3     21    bbb     C6    646 -0.11337700  12.010000   ; qtot 21.474306
  647         hc     21    bbb    H11    647 0.09515400   1.008000   ; qtot 21.569460
  648         hc     21    bbb    H12    648 0.09515400   1.008000   ; qtot 21.664614
  649         c3     21    bbb     C7    649 0.21842400  12.010000   ; qtot 21.883038
  650         h1     21    bbb    H13    650 0.04500300   1.008000   ; qtot 21.928041
  651         h1     21    bbb    H14    651 0.04500300   1.008000   ; qtot 21.973044
  652         c3     21    bbb     C8    652 -0.06455200  12.010000   ; qtot 21.908492
  653         h1     21    bbb    H15    653 0.13554100   1.008000   ; qtot 22.044033
  654         h1     21    bbb    H16    654 0.13554100   1.008000   ; qtot 22.179574
  655         c3     21    bbb     C9    655 -0.06455200  12.010000   ; qtot 22.115022
  656         h1     21    bbb    H17    656 0.13554100   1.008000   ; qtot 22.250563
  657         h1     21    bbb    H18    657 0.13554100   1.008000   ; qtot 22.386104
  658         os     21    bbb     O1    658 -0.62587700  16.000000   ; qtot 21.760227
  659         hn     21    bbb    H19    659 0.23982500   1.008000   ; qtot 22.000052
; residue   22 bbb rtp bbb q 1.0
  660         n4     22    bbb     N1    660 0.03726400  14.010000   ; qtot 22.037316
  661         c3     22    bbb     C1    661 -0.07020100  12.010000   ; qtot 21.967115
  662         hx     22    bbb     H1    662 0.12219000   1.008000   ; qtot 22.089305
  663         hx     22    bbb     H2    663 0.12219000   1.008000   ; qtot 22.211495
  664         c3     22    bbb     C2    664 -0.07020100  12.010000   ; qtot 22.141294
  665         hx     22    bbb     H3    665 0.12219000   1.008000   ; qtot 22.263484
  666         hx     22    bbb     H4    666 0.12219000   1.008000   ; qtot 22.385674
  667         c3     22    bbb     C3    667 -0.39007700  12.010000   ; qtot 21.995597
  668         hx     22    bbb     H5    668 0.14940300   1.008000   ; qtot 22.145000
  669         hx     22    bbb     H6    669 0.14940300   1.008000   ; qtot 22.294403
  670         c3     22    bbb     C4    670 0.18057300  12.010000   ; qtot 22.474976
  671         hc     22    bbb     H7    671 0.01788900   1.008000   ; qtot 22.492865
  672         hc     22    bbb     H8    672 0.01788900   1.008000   ; qtot 22.510754
  673         c3     22    bbb     C5    673 -0.11337700  12.010000   ; qtot 22.397377
  674         hc     22    bbb     H9    674 0.09515400   1.008000   ; qtot 22.492531
  675         hc     22    bbb    H10    675 0.09515400   1.008000   ; qtot 22.587685
  676         c3     22    bbb     C6    676 -0.11337700  12.010000   ; qtot 22.474308
  677         hc     22    bbb    H11    677 0.09515400   1.008000   ; qtot 22.569462
  678         hc     22    bbb    H12    678 0.09515400   1.008000   ; qtot 22.664616
  679         c3     22    bbb     C7    679 0.21842400  12.010000   ; qtot 22.883040
  680         h1     22    bbb    H13    680 0.04500300   1.008000   ; qtot 22.928043
  681         h1     22    bbb    H14    681 0.04500300   1.008000   ; qtot 22.973046
  682         c3     22    bbb     C8    682 -0.06455200  12.010000   ; qtot 22.908494
  683         h1     22    bbb    H15    683 0.13554100   1.008000   ; qtot 23.044035
  684         h1     22    bbb    H16    684 0.13554100   1.008000   ; qtot 23.179576
  685         c3     22    bbb     C9    685 -0.06455200  12.010000   ; qtot 23.115024
  686         h1     22    bbb    H17    686 0.13554100   1.008000   ; qtot 23.250565
  687         h1     22    bbb    H18    687 0.13554100   1.008000   ; qtot 23.386106
  688         os     22    bbb     O1    688 -0.62587700  16.000000   ; qtot 22.760229
  689         hn     22    bbb    H19    689 0.23982500   1.008000   ; qtot 23.000054
; residue   23 bbb rtp bbb q 1.0
  690         n4     23    bbb     N1    690 0.03726400  14.010000   ; qtot 23.037318
  691         c3     23    bbb     C1    691 -0.07020100  12.010000   ; qtot 22.967117
  692         hx     23    bbb     H1    692 0.12219000   1.008000   ; qtot 23.089307
  693         hx     23    bbb     H2    693 0.12219000   1.008000   ; qtot 23.211497
  694         c3     23    bbb     C2    694 -0.07020100  12.010000   ; qtot 23.141296
  695         hx     23    bbb     H3    695 0.12219000   1.008000   ; qtot 23.263486
  696         hx     23    bbb     H4    696 0.12219000   1.008000   ; qtot 23.385676
  697         c3     23    bbb     C3    697 -0.39007700  12.010000   ; qtot 22.995599
  698         hx     23    bbb     H5    698 0.14940300   1.008000   ; qtot 23.145002
  699         hx     23    bbb     H6    699 0.14940300   1.008000   ; qtot 23.294405
  700         c3     23    bbb     C4    700 0.18057300  12.010000   ; qtot 23.474978
  701         hc     23    bbb     H7    701 0.01788900   1.008000   ; qtot 23.492867
  702         hc     23    bbb     H8    702 0.01788900   1.008000   ; qtot 23.510756
  703         c3     23    bbb     C5    703 -0.11337700  12.010000   ; qtot 23.397379
  704         hc     23    bbb     H9    704 0.09515400   1.008000   ; qtot 23.492533
  705         hc     23    bbb    H10    705 0.09515400   1.008000   ; qtot 23.587687
  706         c3     23    bbb     C6    706 -0.11337700  12.010000   ; qtot 23.474310
  707         hc     23    bbb    H11    707 0.09515400   1.008000   ; qtot 23.569464
  708         hc     23    bbb    H12    708 0.09515400   1.008000   ; qtot 23.664618
  709         c3     23    bbb     C7    709 0.21842400  12.010000   ; qtot 23.883042
  710         h1     23    bbb    H13    710 0.04500300   1.008000   ; qtot 23.928045
  711         h1     23    bbb    H14    711 0.04500300   1.008000   ; qtot 23.973048
  712         c3     23    bbb     C8    712 -0.06455200  12.010000   ; qtot 23.908496
  713         h1     23    bbb    H15    713 0.13554100   1.008000   ; qtot 24.044037
  714         h1     23    bbb    H16    714 0.13554100   1.008000   ; qtot 24.179578
  715         c3     23    bbb     C9    715 -0.06455200  12.010000   ; qtot 24.115026
  716         h1     23    bbb    H17    716 0.13554100   1.008000   ; qtot 24.250567
  717         h1     23    bbb    H18    717 0.13554100   1.008000   ; qtot 24.386108
  718         os     23    bbb     O1    718 -0.62587700  16.000000   ; qtot 23.760231
  719         hn     23    bbb    H19    719 0.23982500   1.008000   ; qtot 24.000056
; residue   24 bbb rtp bbb q 1.0
  720         n4     24    bbb     N1    720 0.03726400  14.010000   ; qtot 24.037320
  721         c3     24    bbb     C1    721 -0.07020100  12.010000   ; qtot 23.967119
  722         hx     24    bbb     H1    722 0.12219000   1.008000   ; qtot 24.089309
  723         hx     24    bbb     H2    723 0.12219000   1.008000   ; qtot 24.211499
  724         c3     24    bbb     C2    724 -0.07020100  12.010000   ; qtot 24.141298
  725         hx     24    bbb     H3    725 0.12219000   1.008000   ; qtot 24.263488
  726         hx     24    bbb     H4    726 0.12219000   1.008000   ; qtot 24.385678
  727         c3     24    bbb     C3    727 -0.39007700  12.010000   ; qtot 23.995601
  728         hx     24    bbb     H5    728 0.14940300   1.008000   ; qtot 24.145004
  729         hx     24    bbb     H6    729 0.14940300   1.008000   ; qtot 24.294407
  730         c3     24    bbb     C4    730 0.18057300  12.010000   ; qtot 24.474980
  731         hc     24    bbb     H7    731 0.01788900   1.008000   ; qtot 24.492869
  732         hc     24    bbb     H8    732 0.01788900   1.008000   ; qtot 24.510758
  733         c3     24    bbb     C5    733 -0.11337700  12.010000   ; qtot 24.397381
  734         hc     24    bbb     H9    734 0.09515400   1.008000   ; qtot 24.492535
  735         hc     24    bbb    H10    735 0.09515400   1.008000   ; qtot 24.587689
  736         c3     24    bbb     C6    736 -0.11337700  12.010000   ; qtot 24.474312
  737         hc     24    bbb    H11    737 0.09515400   1.008000   ; qtot 24.569466
  738         hc     24    bbb    H12    738 0.09515400   1.008000   ; qtot 24.664620
  739         c3     24    bbb     C7    739 0.21842400  12.010000   ; qtot 24.883044
  740         h1     24    bbb    H13    740 0.04500300   1.008000   ; qtot 24.928047
  741         h1     24    bbb    H14    741 0.04500300   1.008000   ; qtot 24.973050
  742         c3     24    bbb     C8    742 -0.06455200  12.010000   ; qtot 24.908498
  743         h1     24    bbb    H15    743 0.13554100   1.008000   ; qtot 25.044039
  744         h1     24    bbb    H16    744 0.13554100   1.008000   ; qtot 25.179580
  745         c3     24    bbb     C9    745 -0.06455200  12.010000   ; qtot 25.115028
  746         h1     24    bbb    H17    746 0.13554100   1.008000   ; qtot 25.250569
  747         h1     24    bbb    H18    747 0.13554100   1.008000   ; qtot 25.386110
  748         os     24    bbb     O1    748 -0.62587700  16.000000   ; qtot 24.760233
  749         hn     24    bbb    H19    749 0.23982500   1.008000   ; qtot 25.000058
; residue   25 bbb rtp bbb q 1.0
  750         n4     25    bbb     N1    750 0.03726400  14.010000   ; qtot 25.037322
  751         c3     25    bbb     C1    751 -0.07020100  12.010000   ; qtot 24.967121
  752         hx     25    bbb     H1    752 0.12219000   1.008000   ; qtot 25.089311
  753         hx     25    bbb     H2    753 0.12219000   1.008000   ; qtot 25.211501
  754         c3     25    bbb     C2    754 -0.07020100  12.010000   ; qtot 25.141300
  755         hx     25    bbb     H3    755 0.12219000   1.008000   ; qtot 25.263490
  756         hx     25    bbb     H4    756 0.12219000   1.008000   ; qtot 25.385680
  757         c3     25    bbb     C3    757 -0.39007700  12.010000   ; qtot 24.995603
  758         hx     25    bbb     H5    758 0.14940300   1.008000   ; qtot 25.145006
  759         hx     25    bbb     H6    759 0.14940300   1.008000   ; qtot 25.294409
  760         c3     25    bbb     C4    760 0.18057300  12.010000   ; qtot 25.474982
  761         hc     25    bbb     H7    761 0.01788900   1.008000   ; qtot 25.492871
  762         hc     25    bbb     H8    762 0.01788900   1.008000   ; qtot 25.510760
  763         c3     25    bbb     C5    763 -0.11337700  12.010000   ; qtot 25.397383
  764         hc     25    bbb     H9    764 0.09515400   1.008000   ; qtot 25.492537
  765         hc     25    bbb    H10    765 0.09515400   1.008000   ; qtot 25.587691
  766         c3     25    bbb     C6    766 -0.11337700  12.010000   ; qtot 25.474314
  767         hc     25    bbb    H11    767 0.09515400   1.008000   ; qtot 25.569468
  768         hc     25    bbb    H12    768 0.09515400   1.008000   ; qtot 25.664622
  769         c3     25    bbb     C7    769 0.21842400  12.010000   ; qtot 25.883046
  770         h1     25    bbb    H13    770 0.04500300   1.008000   ; qtot 25.928049
  771         h1     25    bbb    H14    771 0.04500300   1.008000   ; qtot 25.973052
  772         c3     25    bbb     C8    772 -0.06455200  12.010000   ; qtot 25.908500
  773         h1     25    bbb    H15    773 0.13554100   1.008000   ; qtot 26.044041
  774         h1     25    bbb    H16    774 0.13554100   1.008000   ; qtot 26.179582
  775         c3     25    bbb     C9    775 -0.06455200  12.010000   ; qtot 26.115030
  776         h1     25    bbb    H17    776 0.13554100   1.008000   ; qtot 26.250571
  777         h1     25    bbb    H18    777 0.13554100   1.008000   ; qtot 26.386112
  778         os     25    bbb     O1    778 -0.62587700  16.000000   ; qtot 25.760235
  779         hn     25    bbb    H19    779 0.23982500   1.008000   ; qtot 26.000060
; residue   26 bbb rtp bbb q 1.0
  780         n4     26    bbb     N1    780 0.03726400  14.010000   ; qtot 26.037324
  781         c3     26    bbb     C1    781 -0.07020100  12.010000   ; qtot 25.967123
  782         hx     26    bbb     H1    782 0.12219000   1.008000   ; qtot 26.089313
  783         hx     26    bbb     H2    783 0.12219000   1.008000   ; qtot 26.211503
  784         c3     26    bbb     C2    784 -0.07020100  12.010000   ; qtot 26.141302
  785         hx     26    bbb     H3    785 0.12219000   1.008000   ; qtot 26.263492
  786         hx     26    bbb     H4    786 0.12219000   1.008000   ; qtot 26.385682
  787         c3     26    bbb     C3    787 -0.39007700  12.010000   ; qtot 25.995605
  788         hx     26    bbb     H5    788 0.14940300   1.008000   ; qtot 26.145008
  789         hx     26    bbb     H6    789 0.14940300   1.008000   ; qtot 26.294411
  790         c3     26    bbb     C4    790 0.18057300  12.010000   ; qtot 26.474984
  791         hc     26    bbb     H7    791 0.01788900   1.008000   ; qtot 26.492873
  792         hc     26    bbb     H8    792 0.01788900   1.008000   ; qtot 26.510762
  793         c3     26    bbb     C5    793 -0.11337700  12.010000   ; qtot 26.397385
  794         hc     26    bbb     H9    794 0.09515400   1.008000   ; qtot 26.492539
  795         hc     26    bbb    H10    795 0.09515400   1.008000   ; qtot 26.587693
  796         c3     26    bbb     C6    796 -0.11337700  12.010000   ; qtot 26.474316
  797         hc     26    bbb    H11    797 0.09515400   1.008000   ; qtot 26.569470
  798         hc     26    bbb    H12    798 0.09515400   1.008000   ; qtot 26.664624
  799         c3     26    bbb     C7    799 0.21842400  12.010000   ; qtot 26.883048
  800         h1     26    bbb    H13    800 0.04500300   1.008000   ; qtot 26.928051
  801         h1     26    bbb    H14    801 0.04500300   1.008000   ; qtot 26.973054
  802         c3     26    bbb     C8    802 -0.06455200  12.010000   ; qtot 26.908502
  803         h1     26    bbb    H15    803 0.13554100   1.008000   ; qtot 27.044043
  804         h1     26    bbb    H16    804 0.13554100   1.008000   ; qtot 27.179584
  805         c3     26    bbb     C9    805 -0.06455200  12.010000   ; qtot 27.115032
  806         h1     26    bbb    H17    806 0.13554100   1.008000   ; qtot 27.250573
  807         h1     26    bbb    H18    807 0.13554100   1.008000   ; qtot 27.386114
  808         os     26    bbb     O1    808 -0.62587700  16.000000   ; qtot 26.760237
  809         hn     26    bbb    H19    809 0.23982500   1.008000   ; qtot 27.000062
; residue   27 bbb rtp bbb q 1.0
  810         n4     27    bbb     N1    810 0.03726400  14.010000   ; qtot 27.037326
  811         c3     27    bbb     C1    811 -0.07020100  12.010000   ; qtot 26.967125
  812         hx     27    bbb     H1    812 0.12219000   1.008000   ; qtot 27.089315
  813         hx     27    bbb     H2    813 0.12219000   1.008000   ; qtot 27.211505
  814         c3     27    bbb     C2    814 -0.07020100  12.010000   ; qtot 27.141304
  815         hx     27    bbb     H3    815 0.12219000   1.008000   ; qtot 27.263494
  816         hx     27    bbb     H4    816 0.12219000   1.008000   ; qtot 27.385684
  817         c3     27    bbb     C3    817 -0.39007700  12.010000   ; qtot 26.995607
  818         hx     27    bbb     H5    818 0.14940300   1.008000   ; qtot 27.145010
  819         hx     27    bbb     H6    819 0.14940300   1.008000   ; qtot 27.294413
  820         c3     27    bbb     C4    820 0.18057300  12.010000   ; qtot 27.474986
  821         hc     27    bbb     H7    821 0.01788900   1.008000   ; qtot 27.492875
  822         hc     27    bbb     H8    822 0.01788900   1.008000   ; qtot 27.510764
  823         c3     27    bbb     C5    823 -0.11337700  12.010000   ; qtot 27.397387
  824         hc     27    bbb     H9    824 0.09515400   1.008000   ; qtot 27.492541
  825         hc     27    bbb    H10    825 0.09515400   1.008000   ; qtot 27.587695
  826         c3     27    bbb     C6    826 -0.11337700  12.010000   ; qtot 27.474318
  827         hc     27    bbb    H11    827 0.09515400   1.008000   ; qtot 27.569472
  828         hc     27    bbb    H12    828 0.09515400   1.008000   ; qtot 27.664626
  829         c3     27    bbb     C7    829 0.21842400  12.010000   ; qtot 27.883050
  830         h1     27    bbb    H13    830 0.04500300   1.008000   ; qtot 27.928053
  831         h1     27    bbb    H14    831 0.04500300   1.008000   ; qtot 27.973056
  832         c3     27    bbb     C8    832 -0.06455200  12.010000   ; qtot 27.908504
  833         h1     27    bbb    H15    833 0.13554100   1.008000   ; qtot 28.044045
  834         h1     27    bbb    H16    834 0.13554100   1.008000   ; qtot 28.179586
  835         c3     27    bbb     C9    835 -0.06455200  12.010000   ; qtot 28.115034
  836         h1     27    bbb    H17    836 0.13554100   1.008000   ; qtot 28.250575
  837         h1     27    bbb    H18    837 0.13554100   1.008000   ; qtot 28.386116
  838         os     27    bbb     O1    838 -0.62587700  16.000000   ; qtot 27.760239
  839         hn     27    bbb    H19    839 0.23982500   1.008000   ; qtot 28.000064
; residue   28 bbb rtp bbb q 1.0
  840         n4     28    bbb     N1    840 0.03726400  14.010000   ; qtot 28.037328
  841         c3     28    bbb     C1    841 -0.07020100  12.010000   ; qtot 27.967127
  842         hx     28    bbb     H1    842 0.12219000   1.008000   ; qtot 28.089317
  843         hx     28    bbb     H2    843 0.12219000   1.008000   ; qtot 28.211507
  844         c3     28    bbb     C2    844 -0.07020100  12.010000   ; qtot 28.141306
  845         hx     28    bbb     H3    845 0.12219000   1.008000   ; qtot 28.263496
  846         hx     28    bbb     H4    846 0.12219000   1.008000   ; qtot 28.385686
  847         c3     28    bbb     C3    847 -0.39007700  12.010000   ; qtot 27.995609
  848         hx     28    bbb     H5    848 0.14940300   1.008000   ; qtot 28.145012
  849         hx     28    bbb     H6    849 0.14940300   1.008000   ; qtot 28.294415
  850         c3     28    bbb     C4    850 0.18057300  12.010000   ; qtot 28.474988
  851         hc     28    bbb     H7    851 0.01788900   1.008000   ; qtot 28.492877
  852         hc     28    bbb     H8    852 0.01788900   1.008000   ; qtot 28.510766
  853         c3     28    bbb     C5    853 -0.11337700  12.010000   ; qtot 28.397389
  854         hc     28    bbb     H9    854 0.09515400   1.008000   ; qtot 28.492543
  855         hc     28    bbb    H10    855 0.09515400   1.008000   ; qtot 28.587697
  856         c3     28    bbb     C6    856 -0.11337700  12.010000   ; qtot 28.474320
  857         hc     28    bbb    H11    857 0.09515400   1.008000   ; qtot 28.569474
  858         hc     28    bbb    H12    858 0.09515400   1.008000   ; qtot 28.664628
  859         c3     28    bbb     C7    859 0.21842400  12.010000   ; qtot 28.883052
  860         h1     28    bbb    H13    860 0.04500300   1.008000   ; qtot 28.928055
  861         h1     28    bbb    H14    861 0.04500300   1.008000   ; qtot 28.973058
  862         c3     28    bbb     C8    862 -0.06455200  12.010000   ; qtot 28.908506
  863         h1     28    bbb    H15    863 0.13554100   1.008000   ; qtot 29.044047
  864         h1     28    bbb    H16    864 0.13554100   1.008000   ; qtot 29.179588
  865         c3     28    bbb     C9    865 -0.06455200  12.010000   ; qtot 29.115036
  866         h1     28    bbb    H17    866 0.13554100   1.008000   ; qtot 29.250577
  867         h1     28    bbb    H18    867 0.13554100   1.008000   ; qtot 29.386118
  868         os     28    bbb     O1    868 -0.62587700  16.000000   ; qtot 28.760241
  869         hn     28    bbb    H19    869 0.23982500   1.008000   ; qtot 29.000066
; residue   29 bbb rtp bbb q 1.0
  870         n4     29    bbb     N1    870 0.03726400  14.010000   ; qtot 29.037330
  871         c3     29    bbb     C1    871 -0.07020100  12.010000   ; qtot 28.967129
  872         hx     29    bbb     H1    872 0.12219000   1.008000   ; qtot 29.089319
  873         hx     29    bbb     H2    873 0.12219000   1.008000   ; qtot 29.211509
  874         c3     29    bbb     C2    874 -0.07020100  12.010000   ; qtot 29.141308
  875         hx     29    bbb     H3    875 0.12219000   1.008000   ; qtot 29.263498
  876         hx     29    bbb     H4    876 0.12219000   1.008000   ; qtot 29.385688
  877         c3     29    bbb     C3    877 -0.39007700  12.010000   ; qtot 28.995611
  878         hx     29    bbb     H5    878 0.14940300   1.008000   ; qtot 29.145014
  879         hx     29    bbb     H6    879 0.14940300   1.008000   ; qtot 29.294417
  880         c3     29    bbb     C4    880 0.18057300  12.010000   ; qtot 29.474990
  881         hc     29    bbb     H7    881 0.01788900   1.008000   ; qtot 29.492879
  882         hc     29    bbb     H8    882 0.01788900   1.008000   ; qtot 29.510768
  883         c3     29    bbb     C5    883 -0.11337700  12.010000   ; qtot 29.397391
  884         hc     29    bbb     H9    884 0.09515400   1.008000   ; qtot 29.492545
  885         hc     29    bbb    H10    885 0.09515400   1.008000   ; qtot 29.587699
  886         c3     29    bbb     C6    886 -0.11337700  12.010000   ; qtot 29.474322
  887         hc     29    bbb    H11    887 0.09515400   1.008000   ; qtot 29.569476
  888         hc     29    bbb    H12    888 0.09515400   1.008000   ; qtot 29.664630
  889         c3     29    bbb     C7    889 0.21842400  12.010000   ; qtot 29.883054
  890         h1     29    bbb    H13    890 0.04500300   1.008000   ; qtot 29.928057
  891         h1     29    bbb    H14    891 0.04500300   1.008000   ; qtot 29.973060
  892         c3     29    bbb     C8    892 -0.06455200  12.010000   ; qtot 29.908508
  893         h1     29    bbb    H15    893 0.13554100   1.008000   ; qtot 30.044049
  894         h1     29    bbb    H16    894 0.13554100   1.008000   ; qtot 30.179590
  895         c3     29    bbb     C9    895 -0.06455200  12.010000   ; qtot 30.115038
  896         h1     29    bbb    H17    896 0.13554100   1.008000   ; qtot 30.250579
  897         h1     29    bbb    H18    897 0.13554100   1.008000   ; qtot 30.386120
  898         os     29    bbb     O1    898 -0.62587700  16.000000   ; qtot 29.760243
  899         hn     29    bbb    H19    899 0.23982500   1.008000   ; qtot 30.000068
; residue   30 ccc rtp ccc q 1.0
  900         c3     30    ccc     C1    900 0.17060900  12.010000   ; qtot 30.170677
  901         hx     30    ccc     H1    901 0.04213200   1.008000   ; qtot 30.212809
  902         hx     30    ccc     H2    902 0.04213200   1.008000   ; qtot 30.254941
  903         c3     30    ccc     C2    903 -0.04496700  12.010000   ; qtot 30.209974
  904         hc     30    ccc     H3    904 0.02647500   1.008000   ; qtot 30.236449
  905         hc     30    ccc     H4    905 0.02647500   1.008000   ; qtot 30.262924
  906         c3     30    ccc     C3    906 0.04732600  12.010000   ; qtot 30.310250
  907         h1     30    ccc     H5    907 0.07030200   1.008000   ; qtot 30.380552
  908         h1     30    ccc     H6    908 0.07030200   1.008000   ; qtot 30.450854
  909         n4     30    ccc     N1    909 -0.21077700  14.010000   ; qtot 30.240077
  910         hn     30    ccc     H7    910 0.28399900   1.008000   ; qtot 30.524076
  911         hn     30    ccc     H8    911 0.28399900   1.008000   ; qtot 30.808075
  912         os     30    ccc     O1    912 -0.09200600  16.000000   ; qtot 30.716069
  913         hn     30    ccc    H17    913 0.28399900   1.008000   ; qtot 31.000068
; residue   31 ccc rtp ccc q 1.0
  914         c3     31    ccc     C1    914 0.17060900  12.010000   ; qtot 31.170677
  915         hx     31    ccc     H1    915 0.04213200   1.008000   ; qtot 31.212809
  916         hx     31    ccc     H2    916 0.04213200   1.008000   ; qtot 31.254941
  917         c3     31    ccc     C2    917 -0.04496700  12.010000   ; qtot 31.209974
  918         hc     31    ccc     H3    918 0.02647500   1.008000   ; qtot 31.236449
  919         hc     31    ccc     H4    919 0.02647500   1.008000   ; qtot 31.262924
  920         c3     31    ccc     C3    920 0.04732600  12.010000   ; qtot 31.310250
  921         h1     31    ccc     H5    921 0.07030200   1.008000   ; qtot 31.380552
  922         h1     31    ccc     H6    922 0.07030200   1.008000   ; qtot 31.450854
  923         n4     31    ccc     N1    923 -0.21077700  14.010000   ; qtot 31.240077
  924         hn     31    ccc     H7    924 0.28399900   1.008000   ; qtot 31.524076
  925         hn     31    ccc     H8    925 0.28399900   1.008000   ; qtot 31.808075
  926         os     31    ccc     O1    926 -0.09200600  16.000000   ; qtot 31.716069
  927         hn     31    ccc    H17    927 0.28399900   1.008000   ; qtot 32.000068
; residue   32 ccc rtp ccc q 1.0
  928         c3     32    ccc     C1    928 0.17060900  12.010000   ; qtot 32.170677
  929         hx     32    ccc     H1    929 0.04213200   1.008000   ; qtot 32.212809
  930         hx     32    ccc     H2    930 0.04213200   1.008000   ; qtot 32.254941
  931         c3     32    ccc     C2    931 -0.04496700  12.010000   ; qtot 32.209974
  932         hc     32    ccc     H3    932 0.02647500   1.008000   ; qtot 32.236449
  933         hc     32    ccc     H4    933 0.02647500   1.008000   ; qtot 32.262924
  934         c3     32    ccc     C3    934 0.04732600  12.010000   ; qtot 32.310250
  935         h1     32    ccc     H5    935 0.07030200   1.008000   ; qtot 32.380552
  936         h1     32    ccc     H6    936 0.07030200   1.008000   ; qtot 32.450854
  937         n4     32    ccc     N1    937 -0.21077700  14.010000   ; qtot 32.240077
  938         hn     32    ccc     H7    938 0.28399900   1.008000   ; qtot 32.524076
  939         hn     32    ccc     H8    939 0.28399900   1.008000   ; qtot 32.808075
  940         os     32    ccc     O1    940 -0.09200600  16.000000   ; qtot 32.716069
  941         hn     32    ccc    H17    941 0.28399900   1.008000   ; qtot 33.000068
; residue   33 ccc rtp ccc q 1.0
  942         c3     33    ccc     C1    942 0.17060900  12.010000   ; qtot 33.170677
  943         hx     33    ccc     H1    943 0.04213200   1.008000   ; qtot 33.212809
  944         hx     33    ccc     H2    944 0.04213200   1.008000   ; qtot 33.254941
  945         c3     33    ccc     C2    945 -0.04496700  12.010000   ; qtot 33.209974
  946         hc     33    ccc     H3    946 0.02647500   1.008000   ; qtot 33.236449
  947         hc     33    ccc     H4    947 0.02647500   1.008000   ; qtot 33.262924
  948         c3     33    ccc     C3    948 0.04732600  12.010000   ; qtot 33.310250
  949         h1     33    ccc     H5    949 0.07030200   1.008000   ; qtot 33.380552
  950         h1     33    ccc     H6    950 0.07030200   1.008000   ; qtot 33.450854
  951         n4     33    ccc     N1    951 -0.21077700  14.010000   ; qtot 33.240077
  952         hn     33    ccc     H7    952 0.28399900   1.008000   ; qtot 33.524076
  953         hn     33    ccc     H8    953 0.28399900   1.008000   ; qtot 33.808075
  954         os     33    ccc     O1    954 -0.09200600  16.000000   ; qtot 33.716069
  955         hn     33    ccc    H17    955 0.28399900   1.008000   ; qtot 34.000068
; residue   34 ccc rtp ccc q 1.0
  956         c3     34    ccc     C1    956 0.17060900  12.010000   ; qtot 34.170677
  957         hx     34    ccc     H1    957 0.04213200   1.008000   ; qtot 34.212809
  958         hx     34    ccc     H2    958 0.04213200   1.008000   ; qtot 34.254941
  959         c3     34    ccc     C2    959 -0.04496700  12.010000   ; qtot 34.209974
  960         hc     34    ccc     H3    960 0.02647500   1.008000   ; qtot 34.236449
  961         hc     34    ccc     H4    961 0.02647500   1.008000   ; qtot 34.262924
  962         c3     34    ccc     C3    962 0.04732600  12.010000   ; qtot 34.310250
  963         h1     34    ccc     H5    963 0.07030200   1.008000   ; qtot 34.380552
  964         h1     34    ccc     H6    964 0.07030200   1.008000   ; qtot 34.450854
  965         n4     34    ccc     N1    965 -0.21077700  14.010000   ; qtot 34.240077
  966         hn     34    ccc     H7    966 0.28399900   1.008000   ; qtot 34.524076
  967         hn     34    ccc     H8    967 0.28399900   1.008000   ; qtot 34.808075
  968         os     34    ccc     O1    968 -0.09200600  16.000000   ; qtot 34.716069
  969         hn     34    ccc    H17    969 0.28399900   1.008000   ; qtot 35.000068
; residue   35 ccc rtp ccc q 1.0
  970         c3     35    ccc     C1    970 0.17060900  12.010000   ; qtot 35.170677
  971         hx     35    ccc     H1    971 0.04213200   1.008000   ; qtot 35.212809
  972         hx     35    ccc     H2    972 0.04213200   1.008000   ; qtot 35.254941
  973         c3     35    ccc     C2    973 -0.04496700  12.010000   ; qtot 35.209974
  974         hc     35    ccc     H3    974 0.02647500   1.008000   ; qtot 35.236449
  975         hc     35    ccc     H4    975 0.02647500   1.008000   ; qtot 35.262924
  976         c3     35    ccc     C3    976 0.04732600  12.010000   ; qtot 35.310250
  977         h1     35    ccc     H5    977 0.07030200   1.008000   ; qtot 35.380552
  978         h1     35    ccc     H6    978 0.07030200   1.008000   ; qtot 35.450854
  979         n4     35    ccc     N1    979 -0.21077700  14.010000   ; qtot 35.240077
  980         hn     35    ccc     H7    980 0.28399900   1.008000   ; qtot 35.524076
  981         hn     35    ccc     H8    981 0.28399900   1.008000   ; qtot 35.808075
  982         os     35    ccc     O1    982 -0.09200600  16.000000   ; qtot 35.716069
  983         hn     35    ccc    H17    983 0.28399900   1.008000   ; qtot 36.000068
; residue   36 ccc rtp ccc q 1.0
  984         c3     36    ccc     C1    984 0.17060900  12.010000   ; qtot 36.170677
  985         hx     36    ccc     H1    985 0.04213200   1.008000   ; qtot 36.212809
  986         hx     36    ccc     H2    986 0.04213200   1.008000   ; qtot 36.254941
  987         c3     36    ccc     C2    987 -0.04496700  12.010000   ; qtot 36.209974
  988         hc     36    ccc     H3    988 0.02647500   1.008000   ; qtot 36.236449
  989         hc     36    ccc     H4    989 0.02647500   1.008000   ; qtot 36.262924
  990         c3     36    ccc     C3    990 0.04732600  12.010000   ; qtot 36.310250
  991         h1     36    ccc     H5    991 0.07030200   1.008000   ; qtot 36.380552
  992         h1     36    ccc     H6    992 0.07030200   1.008000   ; qtot 36.450854
  993         n4     36    ccc     N1    993 -0.21077700  14.010000   ; qtot 36.240077
  994         hn     36    ccc     H7    994 0.28399900   1.008000   ; qtot 36.524076
  995         hn     36    ccc     H8    995 0.28399900   1.008000   ; qtot 36.808075
  996         os     36    ccc     O1    996 -0.09200600  16.000000   ; qtot 36.716069
  997         hn     36    ccc    H17    997 0.28399900   1.008000   ; qtot 37.000068
; residue   37 ccc rtp ccc q 1.0
  998         c3     37    ccc     C1    998 0.17060900  12.010000   ; qtot 37.170677
  999         hx     37    ccc     H1    999 0.04213200   1.008000   ; qtot 37.212809
 1000         hx     37    ccc     H2   1000 0.04213200   1.008000   ; qtot 37.254941
 1001         c3     37    ccc     C2   1001 -0.04496700  12.010000   ; qtot 37.209974
 1002         hc     37    ccc     H3   1002 0.02647500   1.008000   ; qtot 37.236449
 1003         hc     37    ccc     H4   1003 0.02647500   1.008000   ; qtot 37.262924
 1004         c3     37    ccc     C3   1004 0.04732600  12.010000   ; qtot 37.310250
 1005         h1     37    ccc     H5   1005 0.07030200   1.008000   ; qtot 37.380552
 1006         h1     37    ccc     H6   1006 0.07030200   1.008000   ; qtot 37.450854
 1007         n4     37    ccc     N1   1007 -0.21077700  14.010000   ; qtot 37.240077
 1008         hn     37    ccc     H7   1008 0.28399900   1.008000   ; qtot 37.524076
 1009         hn     37    ccc     H8   1009 0.28399900   1.008000   ; qtot 37.808075
 1010         os     37    ccc     O1   1010 -0.09200600  16.000000   ; qtot 37.716069
 1011         hn     37    ccc    H17   1011 0.28399900   1.008000   ; qtot 38.000068
; residue   38 ccc rtp ccc q 1.0
 1012         c3     38    ccc     C1   1012 0.17060900  12.010000   ; qtot 38.170677
 1013         hx     38    ccc     H1   1013 0.04213200   1.008000   ; qtot 38.212809
 1014         hx     38    ccc     H2   1014 0.04213200   1.008000   ; qtot 38.254941
 1015         c3     38    ccc     C2   1015 -0.04496700  12.010000   ; qtot 38.209974
 1016         hc     38    ccc     H3   1016 0.02647500   1.008000   ; qtot 38.236449
 1017         hc     38    ccc     H4   1017 0.02647500   1.008000   ; qtot 38.262924
 1018         c3     38    ccc     C3   1018 0.04732600  12.010000   ; qtot 38.310250
 1019         h1     38    ccc     H5   1019 0.07030200   1.008000   ; qtot 38.380552
 1020         h1     38    ccc     H6   1020 0.07030200   1.008000   ; qtot 38.450854
 1021         n4     38    ccc     N1   1021 -0.21077700  14.010000   ; qtot 38.240077
 1022         hn     38    ccc     H7   1022 0.28399900   1.008000   ; qtot 38.524076
 1023         hn     38    ccc     H8   1023 0.28399900   1.008000   ; qtot 38.808075
 1024         os     38    ccc     O1   1024 -0.09200600  16.000000   ; qtot 38.716069
 1025         hn     38    ccc    H17   1025 0.28399900   1.008000   ; qtot 39.000068
; residue   39 ccc rtp ccc q 1.0
 1026         c3     39    ccc     C1   1026 0.17060900  12.010000   ; qtot 39.170677
 1027         hx     39    ccc     H1   1027 0.04213200   1.008000   ; qtot 39.212809
 1028         hx     39    ccc     H2   1028 0.04213200   1.008000   ; qtot 39.254941
 1029         c3     39    ccc     C2   1029 -0.04496700  12.010000   ; qtot 39.209974
 1030         hc     39    ccc     H3   1030 0.02647500   1.008000   ; qtot 39.236449
 1031         hc     39    ccc     H4   1031 0.02647500   1.008000   ; qtot 39.262924
 1032         c3     39    ccc     C3   1032 0.04732600  12.010000   ; qtot 39.310250
 1033         h1     39    ccc     H5   1033 0.07030200   1.008000   ; qtot 39.380552
 1034         h1     39    ccc     H6   1034 0.07030200   1.008000   ; qtot 39.450854
 1035         n4     39    ccc     N1   1035 -0.21077700  14.010000   ; qtot 39.240077
 1036         hn     39    ccc     H7   1036 0.28399900   1.008000   ; qtot 39.524076
 1037         hn     39    ccc     H8   1037 0.28399900   1.008000   ; qtot 39.808075
 1038         os     39    ccc     O1   1038 -0.09200600  16.000000   ; qtot 39.716069
 1039         hn     39    ccc    H17   1039 0.28399900   1.008000   ; qtot 40.000068
; residue   40 ccc rtp ccc q 1.0
 1040         c3     40    ccc     C1   1040 0.17060900  12.010000   ; qtot 40.170677
 1041         hx     40    ccc     H1   1041 0.04213200   1.008000   ; qtot 40.212809
 1042         hx     40    ccc     H2   1042 0.04213200   1.008000   ; qtot 40.254941
 1043         c3     40    ccc     C2   1043 -0.04496700  12.010000   ; qtot 40.209974
 1044         hc     40    ccc     H3   1044 0.02647500   1.008000   ; qtot 40.236449
 1045         hc     40    ccc     H4   1045 0.02647500   1.008000   ; qtot 40.262924
 1046         c3     40    ccc     C3   1046 0.04732600  12.010000   ; qtot 40.310250
 1047         h1     40    ccc     H5   1047 0.07030200   1.008000   ; qtot 40.380552
 1048         h1     40    ccc     H6   1048 0.07030200   1.008000   ; qtot 40.450854
 1049         n4     40    ccc     N1   1049 -0.21077700  14.010000   ; qtot 40.240077
 1050         hn     40    ccc     H7   1050 0.28399900   1.008000   ; qtot 40.524076
 1051         hn     40    ccc     H8   1051 0.28399900   1.008000   ; qtot 40.808075
 1052         os     40    ccc     O1   1052 -0.09200600  16.000000   ; qtot 40.716069
 1053         hn     40    ccc    H17   1053 0.28399900   1.008000   ; qtot 41.000068
; residue   41 ccc rtp ccc q 1.0
 1054         c3     41    ccc     C1   1054 0.17060900  12.010000   ; qtot 41.170677
 1055         hx     41    ccc     H1   1055 0.04213200   1.008000   ; qtot 41.212809
 1056         hx     41    ccc     H2   1056 0.04213200   1.008000   ; qtot 41.254941
 1057         c3     41    ccc     C2   1057 -0.04496700  12.010000   ; qtot 41.209974
 1058         hc     41    ccc     H3   1058 0.02647500   1.008000   ; qtot 41.236449
 1059         hc     41    ccc     H4   1059 0.02647500   1.008000   ; qtot 41.262924
 1060         c3     41    ccc     C3   1060 0.04732600  12.010000   ; qtot 41.310250
 1061         h1     41    ccc     H5   1061 0.07030200   1.008000   ; qtot 41.380552
 1062         h1     41    ccc     H6   1062 0.07030200   1.008000   ; qtot 41.450854
 1063         n4     41    ccc     N1   1063 -0.21077700  14.010000   ; qtot 41.240077
 1064         hn     41    ccc     H7   1064 0.28399900   1.008000   ; qtot 41.524076
 1065         hn     41    ccc     H8   1065 0.28399900   1.008000   ; qtot 41.808075
 1066         os     41    ccc     O1   1066 -0.09200600  16.000000   ; qtot 41.716069
 1067         hn     41    ccc    H17   1067 0.28399900   1.008000   ; qtot 42.000068
; residue   42 ccc rtp ccc q 1.0
 1068         c3     42    ccc     C1   1068 0.17060900  12.010000   ; qtot 42.170677
 1069         hx     42    ccc     H1   1069 0.04213200   1.008000   ; qtot 42.212809
 1070         hx     42    ccc     H2   1070 0.04213200   1.008000   ; qtot 42.254941
 1071         c3     42    ccc     C2   1071 -0.04496700  12.010000   ; qtot 42.209974
 1072         hc     42    ccc     H3   1072 0.02647500   1.008000   ; qtot 42.236449
 1073         hc     42    ccc     H4   1073 0.02647500   1.008000   ; qtot 42.262924
 1074         c3     42    ccc     C3   1074 0.04732600  12.010000   ; qtot 42.310250
 1075         h1     42    ccc     H5   1075 0.07030200   1.008000   ; qtot 42.380552
 1076         h1     42    ccc     H6   1076 0.07030200   1.008000   ; qtot 42.450854
 1077         n4     42    ccc     N1   1077 -0.21077700  14.010000   ; qtot 42.240077
 1078         hn     42    ccc     H7   1078 0.28399900   1.008000   ; qtot 42.524076
 1079         hn     42    ccc     H8   1079 0.28399900   1.008000   ; qtot 42.808075
 1080         os     42    ccc     O1   1080 -0.09200600  16.000000   ; qtot 42.716069
 1081         hn     42    ccc    H17   1081 0.28399900   1.008000   ; qtot 43.000068
; residue   43 ccc rtp ccc q 1.0
 1082         c3     43    ccc     C1   1082 0.17060900  12.010000   ; qtot 43.170677
 1083         hx     43    ccc     H1   1083 0.04213200   1.008000   ; qtot 43.212809
 1084         hx     43    ccc     H2   1084 0.04213200   1.008000   ; qtot 43.254941
 1085         c3     43    ccc     C2   1085 -0.04496700  12.010000   ; qtot 43.209974
 1086         hc     43    ccc     H3   1086 0.02647500   1.008000   ; qtot 43.236449
 1087         hc     43    ccc     H4   1087 0.02647500   1.008000   ; qtot 43.262924
 1088         c3     43    ccc     C3   1088 0.04732600  12.010000   ; qtot 43.310250
 1089         h1     43    ccc     H5   1089 0.07030200   1.008000   ; qtot 43.380552
 1090         h1     43    ccc     H6   1090 0.07030200   1.008000   ; qtot 43.450854
 1091         n4     43    ccc     N1   1091 -0.21077700  14.010000   ; qtot 43.240077
 1092         hn     43    ccc     H7   1092 0.28399900   1.008000   ; qtot 43.524076
 1093         hn     43    ccc     H8   1093 0.28399900   1.008000   ; qtot 43.808075
 1094         os     43    ccc     O1   1094 -0.09200600  16.000000   ; qtot 43.716069
 1095         hn     43    ccc    H17   1095 0.28399900   1.008000   ; qtot 44.000068
; residue   44 ccc rtp ccc q 1.0
 1096         c3     44    ccc     C1   1096 0.17060900  12.010000   ; qtot 44.170677
 1097         hx     44    ccc     H1   1097 0.04213200   1.008000   ; qtot 44.212809
 1098         hx     44    ccc     H2   1098 0.04213200   1.008000   ; qtot 44.254941
 1099         c3     44    ccc     C2   1099 -0.04496700  12.010000   ; qtot 44.209974
 1100         hc     44    ccc     H3   1100 0.02647500   1.008000   ; qtot 44.236449
 1101         hc     44    ccc     H4   1101 0.02647500   1.008000   ; qtot 44.262924
 1102         c3     44    ccc     C3   1102 0.04732600  12.010000   ; qtot 44.310250
 1103         h1     44    ccc     H5   1103 0.07030200   1.008000   ; qtot 44.380552
 1104         h1     44    ccc     H6   1104 0.07030200   1.008000   ; qtot 44.450854
 1105         n4     44    ccc     N1   1105 -0.21077700  14.010000   ; qtot 44.240077
 1106         hn     44    ccc     H7   1106 0.28399900   1.008000   ; qtot 44.524076
 1107         hn     44    ccc     H8   1107 0.28399900   1.008000   ; qtot 44.808075
 1108         os     44    ccc     O1   1108 -0.09200600  16.000000   ; qtot 44.716069
 1109         hn     44    ccc    H17   1109 0.28399900   1.008000   ; qtot 45.000068
; residue   45 ccc rtp ccc q 1.0
 1110         c3     45    ccc     C1   1110 0.17060900  12.010000   ; qtot 45.170677
 1111         hx     45    ccc     H1   1111 0.04213200   1.008000   ; qtot 45.212809
 1112         hx     45    ccc     H2   1112 0.04213200   1.008000   ; qtot 45.254941
 1113         c3     45    ccc     C2   1113 -0.04496700  12.010000   ; qtot 45.209974
 1114         hc     45    ccc     H3   1114 0.02647500   1.008000   ; qtot 45.236449
 1115         hc     45    ccc     H4   1115 0.02647500   1.008000   ; qtot 45.262924
 1116         c3     45    ccc     C3   1116 0.04732600  12.010000   ; qtot 45.310250
 1117         h1     45    ccc     H5   1117 0.07030200   1.008000   ; qtot 45.380552
 1118         h1     45    ccc     H6   1118 0.07030200   1.008000   ; qtot 45.450854
 1119         n4     45    ccc     N1   1119 -0.21077700  14.010000   ; qtot 45.240077
 1120         hn     45    ccc     H7   1120 0.28399900   1.008000   ; qtot 45.524076
 1121         hn     45    ccc     H8   1121 0.28399900   1.008000   ; qtot 45.808075
 1122         os     45    ccc     O1   1122 -0.09200600  16.000000   ; qtot 45.716069
 1123         hn     45    ccc    H17   1123 0.28399900   1.008000   ; qtot 46.000068
; residue   46 ccc rtp ccc q 1.0
 1124         c3     46    ccc     C1   1124 0.17060900  12.010000   ; qtot 46.170677
 1125         hx     46    ccc     H1   1125 0.04213200   1.008000   ; qtot 46.212809
 1126         hx     46    ccc     H2   1126 0.04213200   1.008000   ; qtot 46.254941
 1127         c3     46    ccc     C2   1127 -0.04496700  12.010000   ; qtot 46.209974
 1128         hc     46    ccc     H3   1128 0.02647500   1.008000   ; qtot 46.236449
 1129         hc     46    ccc     H4   1129 0.02647500   1.008000   ; qtot 46.262924
 1130         c3     46    ccc     C3   1130 0.04732600  12.010000   ; qtot 46.310250
 1131         h1     46    ccc     H5   1131 0.07030200   1.008000   ; qtot 46.380552
 1132         h1     46    ccc     H6   1132 0.07030200   1.008000   ; qtot 46.450854
 1133         n4     46    ccc     N1   1133 -0.21077700  14.010000   ; qtot 46.240077
 1134         hn     46    ccc     H7   1134 0.28399900   1.008000   ; qtot 46.524076
 1135         hn     46    ccc     H8   1135 0.28399900   1.008000   ; qtot 46.808075
 1136         os     46    ccc     O1   1136 -0.09200600  16.000000   ; qtot 46.716069
 1137         hn     46    ccc    H17   1137 0.28399900   1.008000   ; qtot 47.000068
; residue   47 ccc rtp ccc q 1.0
 1138         c3     47    ccc     C1   1138 0.17060900  12.010000   ; qtot 47.170677
 1139         hx     47    ccc     H1   1139 0.04213200   1.008000   ; qtot 47.212809
 1140         hx     47    ccc     H2   1140 0.04213200   1.008000   ; qtot 47.254941
 1141         c3     47    ccc     C2   1141 -0.04496700  12.010000   ; qtot 47.209974
 1142         hc     47    ccc     H3   1142 0.02647500   1.008000   ; qtot 47.236449
 1143         hc     47    ccc     H4   1143 0.02647500   1.008000   ; qtot 47.262924
 1144         c3     47    ccc     C3   1144 0.04732600  12.010000   ; qtot 47.310250
 1145         h1     47    ccc     H5   1145 0.07030200   1.008000   ; qtot 47.380552
 1146         h1     47    ccc     H6   1146 0.07030200   1.008000   ; qtot 47.450854
 1147         n4     47    ccc     N1   1147 -0.21077700  14.010000   ; qtot 47.240077
 1148         hn     47    ccc     H7   1148 0.28399900   1.008000   ; qtot 47.524076
 1149         hn     47    ccc     H8   1149 0.28399900   1.008000   ; qtot 47.808075
 1150         os     47    ccc     O1   1150 -0.09200600  16.000000   ; qtot 47.716069
 1151         hn     47    ccc    H17   1151 0.28399900   1.008000   ; qtot 48.000068
; residue   48 ccc rtp ccc q 1.0
 1152         c3     48    ccc     C1   1152 0.17060900  12.010000   ; qtot 48.170677
 1153         hx     48    ccc     H1   1153 0.04213200   1.008000   ; qtot 48.212809
 1154         hx     48    ccc     H2   1154 0.04213200   1.008000   ; qtot 48.254941
 1155         c3     48    ccc     C2   1155 -0.04496700  12.010000   ; qtot 48.209974
 1156         hc     48    ccc     H3   1156 0.02647500   1.008000   ; qtot 48.236449
 1157         hc     48    ccc     H4   1157 0.02647500   1.008000   ; qtot 48.262924
 1158         c3     48    ccc     C3   1158 0.04732600  12.010000   ; qtot 48.310250
 1159         h1     48    ccc     H5   1159 0.07030200   1.008000   ; qtot 48.380552
 1160         h1     48    ccc     H6   1160 0.07030200   1.008000   ; qtot 48.450854
 1161         n4     48    ccc     N1   1161 -0.21077700  14.010000   ; qtot 48.240077
 1162         hn     48    ccc     H7   1162 0.28399900   1.008000   ; qtot 48.524076
 1163         hn     48    ccc     H8   1163 0.28399900   1.008000   ; qtot 48.808075
 1164         os     48    ccc     O1   1164 -0.09200600  16.000000   ; qtot 48.716069
 1165         hn     48    ccc    H17   1165 0.28399900   1.008000   ; qtot 49.000068
; residue   49 ccc rtp ccc q 1.0
 1166         c3     49    ccc     C1   1166 0.17060900  12.010000   ; qtot 49.170677
 1167         hx     49    ccc     H1   1167 0.04213200   1.008000   ; qtot 49.212809
 1168         hx     49    ccc     H2   1168 0.04213200   1.008000   ; qtot 49.254941
 1169         c3     49    ccc     C2   1169 -0.04496700  12.010000   ; qtot 49.209974
 1170         hc     49    ccc     H3   1170 0.02647500   1.008000   ; qtot 49.236449
 1171         hc     49    ccc     H4   1171 0.02647500   1.008000   ; qtot 49.262924
 1172         c3     49    ccc     C3   1172 0.04732600  12.010000   ; qtot 49.310250
 1173         h1     49    ccc     H5   1173 0.07030200   1.008000   ; qtot 49.380552
 1174         h1     49    ccc     H6   1174 0.07030200   1.008000   ; qtot 49.450854
 1175         n4     49    ccc     N1   1175 -0.21077700  14.010000   ; qtot 49.240077
 1176         hn     49    ccc     H7   1176 0.28399900   1.008000   ; qtot 49.524076
 1177         hn     49    ccc     H8   1177 0.28399900   1.008000   ; qtot 49.808075
 1178         os     49    ccc     O1   1178 -0.09200600  16.000000   ; qtot 49.716069
 1179         hn     49    ccc    H17   1179 0.28399900   1.008000   ; qtot 50.000068
; residue   50 ccc rtp ccc q 1.0
 1180         c3     50    ccc     C1   1180 0.17060900  12.010000   ; qtot 50.170677
 1181         hx     50    ccc     H1   1181 0.04213200   1.008000   ; qtot 50.212809
 1182         hx     50    ccc     H2   1182 0.04213200   1.008000   ; qtot 50.254941
 1183         c3     50    ccc     C2   1183 -0.04496700  12.010000   ; qtot 50.209974
 1184         hc     50    ccc     H3   1184 0.02647500   1.008000   ; qtot 50.236449
 1185         hc     50    ccc     H4   1185 0.02647500   1.008000   ; qtot 50.262924
 1186         c3     50    ccc     C3   1186 0.04732600  12.010000   ; qtot 50.310250
 1187         h1     50    ccc     H5   1187 0.07030200   1.008000   ; qtot 50.380552
 1188         h1     50    ccc     H6   1188 0.07030200   1.008000   ; qtot 50.450854
 1189         n4     50    ccc     N1   1189 -0.21077700  14.010000   ; qtot 50.240077
 1190         hn     50    ccc     H7   1190 0.28399900   1.008000   ; qtot 50.524076
 1191         hn     50    ccc     H8   1191 0.28399900   1.008000   ; qtot 50.808075
 1192         os     50    ccc     O1   1192 -0.09200600  16.000000   ; qtot 50.716069
 1193         hn     50    ccc    H17   1193 0.28399900   1.008000   ; qtot 51.000068
; residue   51 ccc rtp ccc q 1.0
 1194         c3     51    ccc     C1   1194 0.17060900  12.010000   ; qtot 51.170677
 1195         hx     51    ccc     H1   1195 0.04213200   1.008000   ; qtot 51.212809
 1196         hx     51    ccc     H2   1196 0.04213200   1.008000   ; qtot 51.254941
 1197         c3     51    ccc     C2   1197 -0.04496700  12.010000   ; qtot 51.209974
 1198         hc     51    ccc     H3   1198 0.02647500   1.008000   ; qtot 51.236449
 1199         hc     51    ccc     H4   1199 0.02647500   1.008000   ; qtot 51.262924
 1200         c3     51    ccc     C3   1200 0.04732600  12.010000   ; qtot 51.310250
 1201         h1     51    ccc     H5   1201 0.07030200   1.008000   ; qtot 51.380552
 1202         h1     51    ccc     H6   1202 0.07030200   1.008000   ; qtot 51.450854
 1203         n4     51    ccc     N1   1203 -0.21077700  14.010000   ; qtot 51.240077
 1204         hn     51    ccc     H7   1204 0.28399900   1.008000   ; qtot 51.524076
 1205         hn     51    ccc     H8   1205 0.28399900   1.008000   ; qtot 51.808075
 1206         os     51    ccc     O1   1206 -0.09200600  16.000000   ; qtot 51.716069
 1207         hn     51    ccc    H17   1207 0.28399900   1.008000   ; qtot 52.000068
; residue   52 ccc rtp ccc q 1.0
 1208         c3     52    ccc     C1   1208 0.17060900  12.010000   ; qtot 52.170677
 1209         hx     52    ccc     H1   1209 0.04213200   1.008000   ; qtot 52.212809
 1210         hx     52    ccc     H2   1210 0.04213200   1.008000   ; qtot 52.254941
 1211         c3     52    ccc     C2   1211 -0.04496700  12.010000   ; qtot 52.209974
 1212         hc     52    ccc     H3   1212 0.02647500   1.008000   ; qtot 52.236449
 1213         hc     52    ccc     H4   1213 0.02647500   1.008000   ; qtot 52.262924
 1214         c3     52    ccc     C3   1214 0.04732600  12.010000   ; qtot 52.310250
 1215         h1     52    ccc     H5   1215 0.07030200   1.008000   ; qtot 52.380552
 1216         h1     52    ccc     H6   1216 0.07030200   1.008000   ; qtot 52.450854
 1217         n4     52    ccc     N1   1217 -0.21077700  14.010000   ; qtot 52.240077
 1218         hn     52    ccc     H7   1218 0.28399900   1.008000   ; qtot 52.524076
 1219         hn     52    ccc     H8   1219 0.28399900   1.008000   ; qtot 52.808075
 1220         os     52    ccc     O1   1220 -0.09200600  16.000000   ; qtot 52.716069
 1221         hn     52    ccc    H17   1221 0.28399900   1.008000   ; qtot 53.000068
; residue   53 ccc rtp ccc q 1.0
 1222         c3     53    ccc     C1   1222 0.17060900  12.010000   ; qtot 53.170677
 1223         hx     53    ccc     H1   1223 0.04213200   1.008000   ; qtot 53.212809
 1224         hx     53    ccc     H2   1224 0.04213200   1.008000   ; qtot 53.254941
 1225         c3     53    ccc     C2   1225 -0.04496700  12.010000   ; qtot 53.209974
 1226         hc     53    ccc     H3   1226 0.02647500   1.008000   ; qtot 53.236449
 1227         hc     53    ccc     H4   1227 0.02647500   1.008000   ; qtot 53.262924
 1228         c3     53    ccc     C3   1228 0.04732600  12.010000   ; qtot 53.310250
 1229         h1     53    ccc     H5   1229 0.07030200   1.008000   ; qtot 53.380552
 1230         h1     53    ccc     H6   1230 0.07030200   1.008000   ; qtot 53.450854
 1231         n4     53    ccc     N1   1231 -0.21077700  14.010000   ; qtot 53.240077
 1232         hn     53    ccc     H7   1232 0.28399900   1.008000   ; qtot 53.524076
 1233         hn     53    ccc     H8   1233 0.28399900   1.008000   ; qtot 53.808075
 1234         os     53    ccc     O1   1234 -0.09200600  16.000000   ; qtot 53.716069
 1235         hn     53    ccc    H17   1235 0.28399900   1.008000   ; qtot 54.000068
; residue   54 ccc rtp ccc q 1.0
 1236         c3     54    ccc     C1   1236 0.17060900  12.010000   ; qtot 54.170677
 1237         hx     54    ccc     H1   1237 0.04213200   1.008000   ; qtot 54.212809
 1238         hx     54    ccc     H2   1238 0.04213200   1.008000   ; qtot 54.254941
 1239         c3     54    ccc     C2   1239 -0.04496700  12.010000   ; qtot 54.209974
 1240         hc     54    ccc     H3   1240 0.02647500   1.008000   ; qtot 54.236449
 1241         hc     54    ccc     H4   1241 0.02647500   1.008000   ; qtot 54.262924
 1242         c3     54    ccc     C3   1242 0.04732600  12.010000   ; qtot 54.310250
 1243         h1     54    ccc     H5   1243 0.07030200   1.008000   ; qtot 54.380552
 1244         h1     54    ccc     H6   1244 0.07030200   1.008000   ; qtot 54.450854
 1245         n4     54    ccc     N1   1245 -0.21077700  14.010000   ; qtot 54.240077
 1246         hn     54    ccc     H7   1246 0.28399900   1.008000   ; qtot 54.524076
 1247         hn     54    ccc     H8   1247 0.28399900   1.008000   ; qtot 54.808075
 1248         os     54    ccc     O1   1248 -0.09200600  16.000000   ; qtot 54.716069
 1249         hn     54    ccc    H17   1249 0.28399900   1.008000   ; qtot 55.000068
; residue   55 ccc rtp ccc q 1.0
 1250         c3     55    ccc     C1   1250 0.17060900  12.010000   ; qtot 55.170677
 1251         hx     55    ccc     H1   1251 0.04213200   1.008000   ; qtot 55.212809
 1252         hx     55    ccc     H2   1252 0.04213200   1.008000   ; qtot 55.254941
 1253         c3     55    ccc     C2   1253 -0.04496700  12.010000   ; qtot 55.209974
 1254         hc     55    ccc     H3   1254 0.02647500   1.008000   ; qtot 55.236449
 1255         hc     55    ccc     H4   1255 0.02647500   1.008000   ; qtot 55.262924
 1256         c3     55    ccc     C3   1256 0.04732600  12.010000   ; qtot 55.310250
 1257         h1     55    ccc     H5   1257 0.07030200   1.008000   ; qtot 55.380552
 1258         h1     55    ccc     H6   1258 0.07030200   1.008000   ; qtot 55.450854
 1259         n4     55    ccc     N1   1259 -0.21077700  14.010000   ; qtot 55.240077
 1260         hn     55    ccc     H7   1260 0.28399900   1.008000   ; qtot 55.524076
 1261         hn     55    ccc     H8   1261 0.28399900   1.008000   ; qtot 55.808075
 1262         os     55    ccc     O1   1262 -0.09200600  16.000000   ; qtot 55.716069
 1263         hn     55    ccc    H17   1263 0.28399900   1.008000   ; qtot 56.000068
; residue   56 ccc rtp ccc q 1.0
 1264         c3     56    ccc     C1   1264 0.17060900  12.010000   ; qtot 56.170677
 1265         hx     56    ccc     H1   1265 0.04213200   1.008000   ; qtot 56.212809
 1266         hx     56    ccc     H2   1266 0.04213200   1.008000   ; qtot 56.254941
 1267         c3     56    ccc     C2   1267 -0.04496700  12.010000   ; qtot 56.209974
 1268         hc     56    ccc     H3   1268 0.02647500   1.008000   ; qtot 56.236449
 1269         hc     56    ccc     H4   1269 0.02647500   1.008000   ; qtot 56.262924
 1270         c3     56    ccc     C3   1270 0.04732600  12.010000   ; qtot 56.310250
 1271         h1     56    ccc     H5   1271 0.07030200   1.008000   ; qtot 56.380552
 1272         h1     56    ccc     H6   1272 0.07030200   1.008000   ; qtot 56.450854
 1273         n4     56    ccc     N1   1273 -0.21077700  14.010000   ; qtot 56.240077
 1274         hn     56    ccc     H7   1274 0.28399900   1.008000   ; qtot 56.524076
 1275         hn     56    ccc     H8   1275 0.28399900   1.008000   ; qtot 56.808075
 1276         os     56    ccc     O1   1276 -0.09200600  16.000000   ; qtot 56.716069
 1277         hn     56    ccc    H17   1277 0.28399900   1.008000   ; qtot 57.000068
; residue   57 ccc rtp ccc q 1.0
 1278         c3     57    ccc     C1   1278 0.17060900  12.010000   ; qtot 57.170677
 1279         hx     57    ccc     H1   1279 0.04213200   1.008000   ; qtot 57.212809
 1280         hx     57    ccc     H2   1280 0.04213200   1.008000   ; qtot 57.254941
 1281         c3     57    ccc     C2   1281 -0.04496700  12.010000   ; qtot 57.209974
 1282         hc     57    ccc     H3   1282 0.02647500   1.008000   ; qtot 57.236449
 1283         hc     57    ccc     H4   1283 0.02647500   1.008000   ; qtot 57.262924
 1284         c3     57    ccc     C3   1284 0.04732600  12.010000   ; qtot 57.310250
 1285         h1     57    ccc     H5   1285 0.07030200   1.008000   ; qtot 57.380552
 1286         h1     57    ccc     H6   1286 0.07030200   1.008000   ; qtot 57.450854
 1287         n4     57    ccc     N1   1287 -0.21077700  14.010000   ; qtot 57.240077
 1288         hn     57    ccc     H7   1288 0.28399900   1.008000   ; qtot 57.524076
 1289         hn     57    ccc     H8   1289 0.28399900   1.008000   ; qtot 57.808075
 1290         os     57    ccc     O1   1290 -0.09200600  16.000000   ; qtot 57.716069
 1291         hn     57    ccc    H17   1291 0.28399900   1.008000   ; qtot 58.000068
; residue   58 ccc rtp ccc q 1.0
 1292         c3     58    ccc     C1   1292 0.17060900  12.010000   ; qtot 58.170677
 1293         hx     58    ccc     H1   1293 0.04213200   1.008000   ; qtot 58.212809
 1294         hx     58    ccc     H2   1294 0.04213200   1.008000   ; qtot 58.254941
 1295         c3     58    ccc     C2   1295 -0.04496700  12.010000   ; qtot 58.209974
 1296         hc     58    ccc     H3   1296 0.02647500   1.008000   ; qtot 58.236449
 1297         hc     58    ccc     H4   1297 0.02647500   1.008000   ; qtot 58.262924
 1298         c3     58    ccc     C3   1298 0.04732600  12.010000   ; qtot 58.310250
 1299         h1     58    ccc     H5   1299 0.07030200   1.008000   ; qtot 58.380552
 1300         h1     58    ccc     H6   1300 0.07030200   1.008000   ; qtot 58.450854
 1301         n4     58    ccc     N1   1301 -0.21077700  14.010000   ; qtot 58.240077
 1302         hn     58    ccc     H7   1302 0.28399900   1.008000   ; qtot 58.524076
 1303         hn     58    ccc     H8   1303 0.28399900   1.008000   ; qtot 58.808075
 1304         os     58    ccc     O1   1304 -0.09200600  16.000000   ; qtot 58.716069
 1305         hn     58    ccc    H17   1305 0.28399900   1.008000   ; qtot 59.000068
; residue   59 ccc rtp ccc q 1.0
 1306         c3     59    ccc     C1   1306 0.17060900  12.010000   ; qtot 59.170677
 1307         hx     59    ccc     H1   1307 0.04213200   1.008000   ; qtot 59.212809
 1308         hx     59    ccc     H2   1308 0.04213200   1.008000   ; qtot 59.254941
 1309         c3     59    ccc     C2   1309 -0.04496700  12.010000   ; qtot 59.209974
 1310         hc     59    ccc     H3   1310 0.02647500   1.008000   ; qtot 59.236449
 1311         hc     59    ccc     H4   1311 0.02647500   1.008000   ; qtot 59.262924
 1312         c3     59    ccc     C3   1312 0.04732600  12.010000   ; qtot 59.310250
 1313         h1     59    ccc     H5   1313 0.07030200   1.008000   ; qtot 59.380552
 1314         h1     59    ccc     H6   1314 0.07030200   1.008000   ; qtot 59.450854
 1315         n4     59    ccc     N1   1315 -0.21077700  14.010000   ; qtot 59.240077
 1316         hn     59    ccc     H7   1316 0.28399900   1.008000   ; qtot 59.524076
 1317         hn     59    ccc     H8   1317 0.28399900   1.008000   ; qtot 59.808075
 1318         os     59    ccc     O1   1318 -0.09200600  16.000000   ; qtot 59.716069
 1319         hn     59    ccc    H17   1319 0.28399900   1.008000   ; qtot 60.000068
; residue   60 ccc rtp ccc q 1.0
 1320         c3     60    ccc     C1   1320 0.17060900  12.010000   ; qtot 60.170677
 1321         hx     60    ccc     H1   1321 0.04213200   1.008000   ; qtot 60.212809
 1322         hx     60    ccc     H2   1322 0.04213200   1.008000   ; qtot 60.254941
 1323         c3     60    ccc     C2   1323 -0.04496700  12.010000   ; qtot 60.209974
 1324         hc     60    ccc     H3   1324 0.02647500   1.008000   ; qtot 60.236449
 1325         hc     60    ccc     H4   1325 0.02647500   1.008000   ; qtot 60.262924
 1326         c3     60    ccc     C3   1326 0.04732600  12.010000   ; qtot 60.310250
 1327         h1     60    ccc     H5   1327 0.07030200   1.008000   ; qtot 60.380552
 1328         h1     60    ccc     H6   1328 0.07030200   1.008000   ; qtot 60.450854
 1329         n4     60    ccc     N1   1329 -0.21077700  14.010000   ; qtot 60.240077
 1330         hn     60    ccc     H7   1330 0.28399900   1.008000   ; qtot 60.524076
 1331         hn     60    ccc     H8   1331 0.28399900   1.008000   ; qtot 60.808075
 1332         os     60    ccc     O1   1332 -0.09200600  16.000000   ; qtot 60.716069
 1333         hn     60    ccc    H17   1333 0.28399900   1.008000   ; qtot 61.000068
; residue   61 ccc rtp ccc q 1.0
 1334         c3     61    ccc     C1   1334 0.17060900  12.010000   ; qtot 61.170677
 1335         hx     61    ccc     H1   1335 0.04213200   1.008000   ; qtot 61.212809
 1336         hx     61    ccc     H2   1336 0.04213200   1.008000   ; qtot 61.254941
 1337         c3     61    ccc     C2   1337 -0.04496700  12.010000   ; qtot 61.209974
 1338         hc     61    ccc     H3   1338 0.02647500   1.008000   ; qtot 61.236449
 1339         hc     61    ccc     H4   1339 0.02647500   1.008000   ; qtot 61.262924
 1340         c3     61    ccc     C3   1340 0.04732600  12.010000   ; qtot 61.310250
 1341         h1     61    ccc     H5   1341 0.07030200   1.008000   ; qtot 61.380552
 1342         h1     61    ccc     H6   1342 0.07030200   1.008000   ; qtot 61.450854
 1343         n4     61    ccc     N1   1343 -0.21077700  14.010000   ; qtot 61.240077
 1344         hn     61    ccc     H7   1344 0.28399900   1.008000   ; qtot 61.524076
 1345         hn     61    ccc     H8   1345 0.28399900   1.008000   ; qtot 61.808075
 1346         os     61    ccc     O1   1346 -0.09200600  16.000000   ; qtot 61.716069
 1347         hn     61    ccc    H17   1347 0.28399900   1.008000   ; qtot 62.000068

[ bonds ]
;    ai     aj funct         c0         c1         c2         c3
      1      2     1   0.14316 258236.480000
      1      5     1   0.14316 258236.480000
      2      8     1   0.15375 251793.120000
      5     11     1   0.15375 251793.120000
      8     14     1   0.15375 251793.120000
     11     17     1   0.15375 251793.120000
     14     20     1   0.15110 237065.440000
     17     21     1   0.15110 237065.440000
     20     28     1   0.15110 237065.440000
     20     31     1   0.15110 237065.440000
     21     22     1   0.15110 237065.440000
     21     25     1   0.15110 237065.440000
     22     34     1   0.15375 251793.120000
     25     37     1   0.15375 251793.120000
     28     40     1   0.15375 251793.120000
     31     43     1   0.15375 251793.120000
     34     55     1   0.15375 251793.120000
     37     52     1   0.15375 251793.120000
     40     49     1   0.15375 251793.120000
     43     46     1   0.15375 251793.120000
     46     88     1   0.14316 258236.480000
     49    118     1   0.14316 258236.480000
     52    148     1   0.14316 258236.480000
     55    178     1   0.14316 258236.480000
     60     61     1   0.15110 237065.440000
     60     64     1   0.15110 237065.440000
     60     67     1   0.15110 237065.440000
     61     73     1   0.15375 251793.120000
     64     76     1   0.15375 251793.120000
     67     70     1   0.15375 251793.120000
     70     79     1   0.15375 251793.120000
     73     85     1   0.15375 251793.120000
     76     82     1   0.15375 251793.120000
     79     88     1   0.14316 258236.480000
     82    208     1   0.14316 258236.480000
     85    238     1   0.14316 258236.480000
     90     91     1   0.15110 237065.440000
     90     94     1   0.15110 237065.440000
     90     97     1   0.15110 237065.440000
     91    103     1   0.15375 251793.120000
     94    106     1   0.15375 251793.120000
     97    100     1   0.15375 251793.120000
    100    109     1   0.15375 251793.120000
    103    115     1   0.15375 251793.120000
    106    112     1   0.15375 251793.120000
    109    118     1   0.14316 258236.480000
    112    268     1   0.14316 258236.480000
    115    298     1   0.14316 258236.480000
    120    121     1   0.15110 237065.440000
    120    124     1   0.15110 237065.440000
    120    127     1   0.15110 237065.440000
    121    133     1   0.15375 251793.120000
    124    136     1   0.15375 251793.120000
    127    130     1   0.15375 251793.120000
    130    139     1   0.15375 251793.120000
    133    145     1   0.15375 251793.120000
    136    142     1   0.15375 251793.120000
    139    148     1   0.14316 258236.480000
    142    328     1   0.14316 258236.480000
    145    358     1   0.14316 258236.480000
    150    151     1   0.15110 237065.440000
    150    154     1   0.15110 237065.440000
    150    157     1   0.15110 237065.440000
    151    163     1   0.15375 251793.120000
    154    166     1   0.15375 251793.120000
    157    160     1   0.15375 251793.120000
    160    169     1   0.15375 251793.120000
    163    175     1   0.15375 251793.120000
    166    172     1   0.15375 251793.120000
    169    178     1   0.14316 258236.480000
    172    388     1   0.14316 258236.480000
    175    418     1   0.14316 258236.480000
    180    181     1   0.15110 237065.440000
    180    184     1   0.15110 237065.440000
    180    187     1   0.15110 237065.440000
    181    193     1   0.15375 251793.120000
    184    196     1   0.15375 251793.120000
    187    190     1   0.15375 251793.120000
    190    199     1   0.15375 251793.120000
    193    205     1   0.15375 251793.120000
    196    202     1   0.15375 251793.120000
    199    208     1   0.14316 258236.480000
    202    448     1   0.14316 258236.480000
    205    478     1   0.14316 258236.480000
    210    211     1   0.15110 237065.440000
    210    214     1   0.15110 237065.440000
    210    217     1   0.15110 237065.440000
    211    223     1   0.15375 251793.120000
    214    226     1   0.15375 251793.120000
    217    220     1   0.15375 251793.120000
    220    229     1   0.15375 251793.120000
    223    235     1   0.15375 251793.120000
    226    232     1   0.15375 251793.120000
    229    238     1   0.14316 258236.480000
    232    508     1   0.14316 258236.480000
    235    538     1   0.14316 258236.480000
    240    241     1   0.15110 237065.440000
    240    244     1   0.15110 237065.440000
    240    247     1   0.15110 237065.440000
    241    253     1   0.15375 251793.120000
    244    256     1   0.15375 251793.120000
    247    250     1   0.15375 251793.120000
    250    259     1   0.15375 251793.120000
    253    265     1   0.15375 251793.120000
    256    262     1   0.15375 251793.120000
    259    268     1   0.14316 258236.480000
    262    568     1   0.14316 258236.480000
    265    598     1   0.14316 258236.480000
    270    271     1   0.15110 237065.440000
    270    274     1   0.15110 237065.440000
    270    277     1   0.15110 237065.440000
    271    283     1   0.15375 251793.120000
    274    286     1   0.15375 251793.120000
    277    280     1   0.15375 251793.120000
    280    289     1   0.15375 251793.120000
    283    295     1   0.15375 251793.120000
    286    292     1   0.15375 251793.120000
    289    298     1   0.14316 258236.480000
    292    628     1   0.14316 258236.480000
    295    658     1   0.14316 258236.480000
    300    301     1   0.15110 237065.440000
    300    304     1   0.15110 237065.440000
    300    307     1   0.15110 237065.440000
    301    313     1   0.15375 251793.120000
    304    316     1   0.15375 251793.120000
    307    310     1   0.15375 251793.120000
    310    319     1   0.15375 251793.120000
    313    325     1   0.15375 251793.120000
    316    322     1   0.15375 251793.120000
    319    328     1   0.14316 258236.480000
    322    688     1   0.14316 258236.480000
    325    718     1   0.14316 258236.480000
    330    331     1   0.15110 237065.440000
    330    334     1   0.15110 237065.440000
    330    337     1   0.15110 237065.440000
    331    343     1   0.15375 251793.120000
    334    346     1   0.15375 251793.120000
    337    340     1   0.15375 251793.120000
    340    349     1   0.15375 251793.120000
    343    355     1   0.15375 251793.120000
    346    352     1   0.15375 251793.120000
    349    358     1   0.14316 258236.480000
    352    748     1   0.14316 258236.480000
    355    778     1   0.14316 258236.480000
    360    361     1   0.15110 237065.440000
    360    364     1   0.15110 237065.440000
    360    367     1   0.15110 237065.440000
    361    373     1   0.15375 251793.120000
    364    376     1   0.15375 251793.120000
    367    370     1   0.15375 251793.120000
    370    379     1   0.15375 251793.120000
    373    385     1   0.15375 251793.120000
    376    382     1   0.15375 251793.120000
    379    388     1   0.14316 258236.480000
    382    808     1   0.14316 258236.480000
    385    838     1   0.14316 258236.480000
    390    391     1   0.15110 237065.440000
    390    394     1   0.15110 237065.440000
    390    397     1   0.15110 237065.440000
    391    403     1   0.15375 251793.120000
    394    406     1   0.15375 251793.120000
    397    400     1   0.15375 251793.120000
    400    409     1   0.15375 251793.120000
    403    415     1   0.15375 251793.120000
    406    412     1   0.15375 251793.120000
    409    418     1   0.14316 258236.480000
    412    868     1   0.14316 258236.480000
    415    898     1   0.14316 258236.480000
    420    421     1   0.15110 237065.440000
    420    424     1   0.15110 237065.440000
    420    427     1   0.15110 237065.440000
    421    433     1   0.15375 251793.120000
    424    436     1   0.15375 251793.120000
    427    430     1   0.15375 251793.120000
    430    439     1   0.15375 251793.120000
    433    445     1   0.15375 251793.120000
    436    442     1   0.15375 251793.120000
    439    448     1   0.14316 258236.480000
    442    912     1   0.14316 258236.480000
    445    926     1   0.14316 258236.480000
    450    451     1   0.15110 237065.440000
    450    454     1   0.15110 237065.440000
    450    457     1   0.15110 237065.440000
    451    463     1   0.15375 251793.120000
    454    466     1   0.15375 251793.120000
    457    460     1   0.15375 251793.120000
    460    469     1   0.15375 251793.120000
    463    475     1   0.15375 251793.120000
    466    472     1   0.15375 251793.120000
    469    478     1   0.14316 258236.480000
    472    940     1   0.14316 258236.480000
    475    954     1   0.14316 258236.480000
    480    481     1   0.15110 237065.440000
    480    484     1   0.15110 237065.440000
    480    487     1   0.15110 237065.440000
    481    493     1   0.15375 251793.120000
    484    496     1   0.15375 251793.120000
    487    490     1   0.15375 251793.120000
    490    499     1   0.15375 251793.120000
    493    505     1   0.15375 251793.120000
    496    502     1   0.15375 251793.120000
    499    508     1   0.14316 258236.480000
    502    968     1   0.14316 258236.480000
    505    982     1   0.14316 258236.480000
    510    511     1   0.15110 237065.440000
    510    514     1   0.15110 237065.440000
    510    517     1   0.15110 237065.440000
    511    523     1   0.15375 251793.120000
    514    526     1   0.15375 251793.120000
    517    520     1   0.15375 251793.120000
    520    529     1   0.15375 251793.120000
    523    535     1   0.15375 251793.120000
    526    532     1   0.15375 251793.120000
    529    538     1   0.14316 258236.480000
    532    996     1   0.14316 258236.480000
    535   1010     1   0.14316 258236.480000
    540    541     1   0.15110 237065.440000
    540    544     1   0.15110 237065.440000
    540    547     1   0.15110 237065.440000
    541    553     1   0.15375 251793.120000
    544    556     1   0.15375 251793.120000
    547    550     1   0.15375 251793.120000
    550    559     1   0.15375 251793.120000
    553    565     1   0.15375 251793.120000
    556    562     1   0.15375 251793.120000
    559    568     1   0.14316 258236.480000
    562   1024     1   0.14316 258236.480000
    565   1038     1   0.14316 258236.480000
    570    571     1   0.15110 237065.440000
    570    574     1   0.15110 237065.440000
    570    577     1   0.15110 237065.440000
    571    583     1   0.15375 251793.120000
    574    586     1   0.15375 251793.120000
    577    580     1   0.15375 251793.120000
    580    589     1   0.15375 251793.120000
    583    595     1   0.15375 251793.120000
    586    592     1   0.15375 251793.120000
    589    598     1   0.14316 258236.480000
    592   1052     1   0.14316 258236.480000
    595   1066     1   0.14316 258236.480000
    600    601     1   0.15110 237065.440000
    600    604     1   0.15110 237065.440000
    600    607     1   0.15110 237065.440000
    601    613     1   0.15375 251793.120000
    604    616     1   0.15375 251793.120000
    607    610     1   0.15375 251793.120000
    610    619     1   0.15375 251793.120000
    613    625     1   0.15375 251793.120000
    616    622     1   0.15375 251793.120000
    619    628     1   0.14316 258236.480000
    622   1080     1   0.14316 258236.480000
    625   1094     1   0.14316 258236.480000
    630    631     1   0.15110 237065.440000
    630    634     1   0.15110 237065.440000
    630    637     1   0.15110 237065.440000
    631    643     1   0.15375 251793.120000
    634    646     1   0.15375 251793.120000
    637    640     1   0.15375 251793.120000
    640    649     1   0.15375 251793.120000
    643    655     1   0.15375 251793.120000
    646    652     1   0.15375 251793.120000
    649    658     1   0.14316 258236.480000
    652   1108     1   0.14316 258236.480000
    655   1122     1   0.14316 258236.480000
    660    661     1   0.15110 237065.440000
    660    664     1   0.15110 237065.440000
    660    667     1   0.15110 237065.440000
    661    673     1   0.15375 251793.120000
    664    676     1   0.15375 251793.120000
    667    670     1   0.15375 251793.120000
    670    679     1   0.15375 251793.120000
    673    685     1   0.15375 251793.120000
    676    682     1   0.15375 251793.120000
    679    688     1   0.14316 258236.480000
    682   1136     1   0.14316 258236.480000
    685   1150     1   0.14316 258236.480000
    690    691     1   0.15110 237065.440000
    690    694     1   0.15110 237065.440000
    690    697     1   0.15110 237065.440000
    691    703     1   0.15375 251793.120000
    694    706     1   0.15375 251793.120000
    697    700     1   0.15375 251793.120000
    700    709     1   0.15375 251793.120000
    703    715     1   0.15375 251793.120000
    706    712     1   0.15375 251793.120000
    709    718     1   0.14316 258236.480000
    712   1164     1   0.14316 258236.480000
    715   1178     1   0.14316 258236.480000
    720    721     1   0.15110 237065.440000
    720    724     1   0.15110 237065.440000
    720    727     1   0.15110 237065.440000
    721    733     1   0.15375 251793.120000
    724    736     1   0.15375 251793.120000
    727    730     1   0.15375 251793.120000
    730    739     1   0.15375 251793.120000
    733    745     1   0.15375 251793.120000
    736    742     1   0.15375 251793.120000
    739    748     1   0.14316 258236.480000
    742   1192     1   0.14316 258236.480000
    745   1206     1   0.14316 258236.480000
    750    751     1   0.15110 237065.440000
    750    754     1   0.15110 237065.440000
    750    757     1   0.15110 237065.440000
    751    763     1   0.15375 251793.120000
    754    766     1   0.15375 251793.120000
    757    760     1   0.15375 251793.120000
    760    769     1   0.15375 251793.120000
    763    775     1   0.15375 251793.120000
    766    772     1   0.15375 251793.120000
    769    778     1   0.14316 258236.480000
    772   1220     1   0.14316 258236.480000
    775   1234     1   0.14316 258236.480000
    780    781     1   0.15110 237065.440000
    780    784     1   0.15110 237065.440000
    780    787     1   0.15110 237065.440000
    781    793     1   0.15375 251793.120000
    784    796     1   0.15375 251793.120000
    787    790     1   0.15375 251793.120000
    790    799     1   0.15375 251793.120000
    793    805     1   0.15375 251793.120000
    796    802     1   0.15375 251793.120000
    799    808     1   0.14316 258236.480000
    802   1248     1   0.14316 258236.480000
    805   1262     1   0.14316 258236.480000
    810    811     1   0.15110 237065.440000
    810    814     1   0.15110 237065.440000
    810    817     1   0.15110 237065.440000
    811    823     1   0.15375 251793.120000
    814    826     1   0.15375 251793.120000
    817    820     1   0.15375 251793.120000
    820    829     1   0.15375 251793.120000
    823    835     1   0.15375 251793.120000
    826    832     1   0.15375 251793.120000
    829    838     1   0.14316 258236.480000
    832   1276     1   0.14316 258236.480000
    835   1290     1   0.14316 258236.480000
    840    841     1   0.15110 237065.440000
    840    844     1   0.15110 237065.440000
    840    847     1   0.15110 237065.440000
    841    853     1   0.15375 251793.120000
    844    856     1   0.15375 251793.120000
    847    850     1   0.15375 251793.120000
    850    859     1   0.15375 251793.120000
    853    865     1   0.15375 251793.120000
    856    862     1   0.15375 251793.120000
    859    868     1   0.14316 258236.480000
    862   1304     1   0.14316 258236.480000
    865   1318     1   0.14316 258236.480000
    870    871     1   0.15110 237065.440000
    870    874     1   0.15110 237065.440000
    870    877     1   0.15110 237065.440000
    871    883     1   0.15375 251793.120000
    874    886     1   0.15375 251793.120000
    877    880     1   0.15375 251793.120000
    880    889     1   0.15375 251793.120000
    883    895     1   0.15375 251793.120000
    886    892     1   0.15375 251793.120000
    889    898     1   0.14316 258236.480000
    892   1332     1   0.14316 258236.480000
    895   1346     1   0.14316 258236.480000
    900    903     1   0.15375 251793.120000
    900    909     1   0.15110 237065.440000
    903    906     1   0.15375 251793.120000
    906    912     1   0.14316 258236.480000
    914    917     1   0.15375 251793.120000
    914    923     1   0.15110 237065.440000
    917    920     1   0.15375 251793.120000
    920    926     1   0.14316 258236.480000
    928    931     1   0.15375 251793.120000
    928    937     1   0.15110 237065.440000
    931    934     1   0.15375 251793.120000
    934    940     1   0.14316 258236.480000
    942    945     1   0.15375 251793.120000
    942    951     1   0.15110 237065.440000
    945    948     1   0.15375 251793.120000
    948    954     1   0.14316 258236.480000
    956    959     1   0.15375 251793.120000
    956    965     1   0.15110 237065.440000
    959    962     1   0.15375 251793.120000
    962    968     1   0.14316 258236.480000
    970    973     1   0.15375 251793.120000
    970    979     1   0.15110 237065.440000
    973    976     1   0.15375 251793.120000
    976    982     1   0.14316 258236.480000
    984    987     1   0.15375 251793.120000
    984    993     1   0.15110 237065.440000
    987    990     1   0.15375 251793.120000
    990    996     1   0.14316 258236.480000
    998   1001     1   0.15375 251793.120000
    998   1007     1   0.15110 237065.440000
   1001   1004     1   0.15375 251793.120000
   1004   1010     1   0.14316 258236.480000
   1012   1015     1   0.15375 251793.120000
   1012   1021     1   0.15110 237065.440000
   1015   1018     1   0.15375 251793.120000
   1018   1024     1   0.14316 258236.480000
   1026   1029     1   0.15375 251793.120000
   1026   1035     1   0.15110 237065.440000
   1029   1032     1   0.15375 251793.120000
   1032   1038     1   0.14316 258236.480000
   1040   1043     1   0.15375 251793.120000
   1040   1049     1   0.15110 237065.440000
   1043   1046     1   0.15375 251793.120000
   1046   1052     1   0.14316 258236.480000
   1054   1057     1   0.15375 251793.120000
   1054   1063     1   0.15110 237065.440000
   1057   1060     1   0.15375 251793.120000
   1060   1066     1   0.14316 258236.480000
   1068   1071     1   0.15375 251793.120000
   1068   1077     1   0.15110 237065.440000
   1071   1074     1   0.15375 251793.120000
   1074   1080     1   0.14316 258236.480000
   1082   1085     1   0.15375 251793.120000
   1082   1091     1   0.15110 237065.440000
   1085   1088     1   0.15375 251793.120000
   1088   1094     1   0.14316 258236.480000
   1096   1099     1   0.15375 251793.120000
   1096   1105     1   0.15110 237065.440000
   1099   1102     1   0.15375 251793.120000
   1102   1108     1   0.14316 258236.480000
   1110   1113     1   0.15375 251793.120000
   1110   1119     1   0.15110 237065.440000
   1113   1116     1   0.15375 251793.120000
   1116   1122     1   0.14316 258236.480000
   1124   1127     1   0.15375 251793.120000
   1124   1133     1   0.15110 237065.440000
   1127   1130     1   0.15375 251793.120000
   1130   1136     1   0.14316 258236.480000
   1138   1141     1   0.15375 251793.120000
   1138   1147     1   0.15110 237065.440000
   1141   1144     1   0.15375 251793.120000
   1144   1150     1   0.14316 258236.480000
   1152   1155     1   0.15375 251793.120000
   1152   1161     1   0.15110 237065.440000
   1155   1158     1   0.15375 251793.120000
   1158   1164     1   0.14316 258236.480000
   1166   1169     1   0.15375 251793.120000
   1166   1175     1   0.15110 237065.440000
   1169   1172     1   0.15375 251793.120000
   1172   1178     1   0.14316 258236.480000
   1180   1183     1   0.15375 251793.120000
   1180   1189     1   0.15110 237065.440000
   1183   1186     1   0.15375 251793.120000
   1186   1192     1   0.14316 258236.480000
   1194   1197     1   0.15375 251793.120000
   1194   1203     1   0.15110 237065.440000
   1197   1200     1   0.15375 251793.120000
   1200   1206     1   0.14316 258236.480000
   1208   1211     1   0.15375 251793.120000
   1208   1217     1   0.15110 237065.440000
   1211   1214     1   0.15375 251793.120000
   1214   1220     1   0.14316 258236.480000
   1222   1225     1   0.15375 251793.120000
   1222   1231     1   0.15110 237065.440000
   1225   1228     1   0.15375 251793.120000
   1228   1234     1   0.14316 258236.480000
   1236   1239     1   0.15375 251793.120000
   1236   1245     1   0.15110 237065.440000
   1239   1242     1   0.15375 251793.120000
   1242   1248     1   0.14316 258236.480000
   1250   1253     1   0.15375 251793.120000
   1250   1259     1   0.15110 237065.440000
   1253   1256     1   0.15375 251793.120000
   1256   1262     1   0.14316 258236.480000
   1264   1267     1   0.15375 251793.120000
   1264   1273     1   0.15110 237065.440000
   1267   1270     1   0.15375 251793.120000
   1270   1276     1   0.14316 258236.480000
   1278   1281     1   0.15375 251793.120000
   1278   1287     1   0.15110 237065.440000
   1281   1284     1   0.15375 251793.120000
   1284   1290     1   0.14316 258236.480000
   1292   1295     1   0.15375 251793.120000
   1292   1301     1   0.15110 237065.440000
   1295   1298     1   0.15375 251793.120000
   1298   1304     1   0.14316 258236.480000
   1306   1309     1   0.15375 251793.120000
   1306   1315     1   0.15110 237065.440000
   1309   1312     1   0.15375 251793.120000
   1312   1318     1   0.14316 258236.480000
   1320   1323     1   0.15375 251793.120000
   1320   1329     1   0.15110 237065.440000
   1323   1326     1   0.15375 251793.120000
   1326   1332     1   0.14316 258236.480000
   1334   1337     1   0.15375 251793.120000
   1334   1343     1   0.15110 237065.440000
   1337   1340     1   0.15375 251793.120000
   1340   1346     1   0.14316 258236.480000
      2      3     1   0.10969 276646.080000
      2      4     1   0.10969 276646.080000
      5      6     1   0.10969 276646.080000
      5      7     1   0.10969 276646.080000
      8      9     1   0.10969 276646.080000
      8     10     1   0.10969 276646.080000
     11     12     1   0.10969 276646.080000
     11     13     1   0.10969 276646.080000
     14     15     1   0.10910 283424.160000
     14     16     1   0.10910 283424.160000
     17     18     1   0.10910 283424.160000
     17     19     1   0.10910 283424.160000
     20     58     1   0.10304 312293.760000
     21     59     1   0.10304 312293.760000
     22     23     1   0.10910 283424.160000
     22     24     1   0.10910 283424.160000
     25     26     1   0.10910 283424.160000
     25     27     1   0.10910 283424.160000
     28     29     1   0.10910 283424.160000
     28     30     1   0.10910 283424.160000
     31     32     1   0.10910 283424.160000
     31     33     1   0.10910 283424.160000
     34     35     1   0.10969 276646.080000
     34     36     1   0.10969 276646.080000
     37     38     1   0.10969 276646.080000
     37     39     1   0.10969 276646.080000
     40     41     1   0.10969 276646.080000
     40     42     1   0.10969 276646.080000
     43     44     1   0.10969 276646.080000
     43     45     1   0.10969 276646.080000
     46     47     1   0.10969 276646.080000
     46     48     1   0.10969 276646.080000
     49     50     1   0.10969 276646.080000
     49     51     1   0.10969 276646.080000
     52     53     1   0.10969 276646.080000
     52     54     1   0.10969 276646.080000
     55     56     1   0.10969 276646.080000
     55     57     1   0.10969 276646.080000
     60     89     1   0.10304 312293.760000
     61     62     1   0.10910 283424.160000
     61     63     1   0.10910 283424.160000
     64     65     1   0.10910 283424.160000
     64     66     1   0.10910 283424.160000
     67     68     1   0.10910 283424.160000
     67     69     1   0.10910 283424.160000
     70     71     1   0.10969 276646.080000
     70     72     1   0.10969 276646.080000
     73     74     1   0.10969 276646.080000
     73     75     1   0.10969 276646.080000
     76     77     1   0.10969 276646.080000
     76     78     1   0.10969 276646.080000
     79     80     1   0.10969 276646.080000
     79     81     1   0.10969 276646.080000
     82     83     1   0.10969 276646.080000
     82     84     1   0.10969 276646.080000
     85     86     1   0.10969 276646.080000
     85     87     1   0.10969 276646.080000
     90    119     1   0.10304 312293.760000
     91     92     1   0.10910 283424.160000
     91     93     1   0.10910 283424.160000
     94     95     1   0.10910 283424.160000
     94     96     1   0.10910 283424.160000
     97     98     1   0.10910 283424.160000
     97     99     1   0.10910 283424.160000
    100    101     1   0.10969 276646.080000
    100    102     1   0.10969 276646.080000
    103    104     1   0.10969 276646.080000
    103    105     1   0.10969 276646.080000
    106    107     1   0.10969 276646.080000
    106    108     1   0.10969 276646.080000
    109    110     1   0.10969 276646.080000
    109    111     1   0.10969 276646.080000
    112    113     1   0.10969 276646.080000
    112    114     1   0.10969 276646.080000
    115    116     1   0.10969 276646.080000
    115    117     1   0.10969 276646.080000
    120    149     1   0.10304 312293.760000
    121    122     1   0.10910 283424.160000
    121    123     1   0.10910 283424.160000
    124    125     1   0.10910 283424.160000
    124    126     1   0.10910 283424.160000
    127    128     1   0.10910 283424.160000
    127    129     1   0.10910 283424.160000
    130    131     1   0.10969 276646.080000
    130    132     1   0.10969 276646.080000
    133    134     1   0.10969 276646.080000
    133    135     1   0.10969 276646.080000
    136    137     1   0.10969 276646.080000
    136    138     1   0.10969 276646.080000
    139    140     1   0.10969 276646.080000
    139    141     1   0.10969 276646.080000
    142    143     1   0.10969 276646.080000
    142    144     1   0.10969 276646.080000
    145    146     1   0.10969 276646.080000
    145    147     1   0.10969 276646.080000
    150    179     1   0.10304 312293.760000
    151    152     1   0.10910 283424.160000
    151    153     1   0.10910 283424.160000
    154    155     1   0.10910 283424.160000
    154    156     1   0.10910 283424.160000
    157    158     1   0.10910 283424.160000
    157    159     1   0.10910 283424.160000
    160    161     1   0.10969 276646.080000
    160    162     1   0.10969 276646.080000
    163    164     1   0.10969 276646.080000
    163    165     1   0.10969 276646.080000
    166    167     1   0.10969 276646.080000
    166    168     1   0.10969 276646.080000
    169    170     1   0.10969 276646.080000
    169    171     1   0.10969 276646.080000
    172    173     1   0.10969 276646.080000
    172    174     1   0.10969 276646.080000
    175    176     1   0.10969 276646.080000
    175    177     1   0.10969 276646.080000
    180    209     1   0.10304 312293.760000
    181    182     1   0.10910 283424.160000
    181    183     1   0.10910 283424.160000
    184    185     1   0.10910 283424.160000
    184    186     1   0.10910 283424.160000
    187    188     1   0.10910 283424.160000
    187    189     1   0.10910 283424.160000
    190    191     1   0.10969 276646.080000
    190    192     1   0.10969 276646.080000
    193    194     1   0.10969 276646.080000
    193    195     1   0.10969 276646.080000
    196    197     1   0.10969 276646.080000
    196    198     1   0.10969 276646.080000
    199    200     1   0.10969 276646.080000
    199    201     1   0.10969 276646.080000
    202    203     1   0.10969 276646.080000
    202    204     1   0.10969 276646.080000
    205    206     1   0.10969 276646.080000
    205    207     1   0.10969 276646.080000
    210    239     1   0.10304 312293.760000
    211    212     1   0.10910 283424.160000
    211    213     1   0.10910 283424.160000
    214    215     1   0.10910 283424.160000
    214    216     1   0.10910 283424.160000
    217    218     1   0.10910 283424.160000
    217    219     1   0.10910 283424.160000
    220    221     1   0.10969 276646.080000
    220    222     1   0.10969 276646.080000
    223    224     1   0.10969 276646.080000
    223    225     1   0.10969 276646.080000
    226    227     1   0.10969 276646.080000
    226    228     1   0.10969 276646.080000
    229    230     1   0.10969 276646.080000
    229    231     1   0.10969 276646.080000
    232    233     1   0.10969 276646.080000
    232    234     1   0.10969 276646.080000
    235    236     1   0.10969 276646.080000
    235    237     1   0.10969 276646.080000
    240    269     1   0.10304 312293.760000
    241    242     1   0.10910 283424.160000
    241    243     1   0.10910 283424.160000
    244    245     1   0.10910 283424.160000
    244    246     1   0.10910 283424.160000
    247    248     1   0.10910 283424.160000
    247    249     1   0.10910 283424.160000
    250    251     1   0.10969 276646.080000
    250    252     1   0.10969 276646.080000
    253    254     1   0.10969 276646.080000
    253    255     1   0.10969 276646.080000
    256    257     1   0.10969 276646.080000
    256    258     1   0.10969 276646.080000
    259    260     1   0.10969 276646.080000
    259    261     1   0.10969 276646.080000
    262    263     1   0.10969 276646.080000
    262    264     1   0.10969 276646.080000
    265    266     1   0.10969 276646.080000
    265    267     1   0.10969 276646.080000
    270    299     1   0.10304 312293.760000
    271    272     1   0.10910 283424.160000
    271    273     1   0.10910 283424.160000
    274    275     1   0.10910 283424.160000
    274    276     1   0.10910 283424.160000
    277    278     1   0.10910 283424.160000
    277    279     1   0.10910 283424.160000
    280    281     1   0.10969 276646.080000
    280    282     1   0.10969 276646.080000
    283    284     1   0.10969 276646.080000
    283    285     1   0.10969 276646.080000
    286    287     1   0.10969 276646.080000
    286    288     1   0.10969 276646.080000
    289    290     1   0.10969 276646.080000
    289    291     1   0.10969 276646.080000
    292    293     1   0.10969 276646.080000
    292    294     1   0.10969 276646.080000
    295    296     1   0.10969 276646.080000
    295    297     1   0.10969 276646.080000
    300    329     1   0.10304 312293.760000
    301    302     1   0.10910 283424.160000
    301    303     1   0.10910 283424.160000
    304    305     1   0.10910 283424.160000
    304    306     1   0.10910 283424.160000
    307    308     1   0.10910 283424.160000
    307    309     1   0.10910 283424.160000
    310    311     1   0.10969 276646.080000
    310    312     1   0.10969 276646.080000
    313    314     1   0.10969 276646.080000
    313    315     1   0.10969 276646.080000
    316    317     1   0.10969 276646.080000
    316    318     1   0.10969 276646.080000
    319    320     1   0.10969 276646.080000
    319    321     1   0.10969 276646.080000
    322    323     1   0.10969 276646.080000
    322    324     1   0.10969 276646.080000
    325    326     1   0.10969 276646.080000
    325    327     1   0.10969 276646.080000
    330    359     1   0.10304 312293.760000
    331    332     1   0.10910 283424.160000
    331    333     1   0.10910 283424.160000
    334    335     1   0.10910 283424.160000
    334    336     1   0.10910 283424.160000
    337    338     1   0.10910 283424.160000
    337    339     1   0.10910 283424.160000
    340    341     1   0.10969 276646.080000
    340    342     1   0.10969 276646.080000
    343    344     1   0.10969 276646.080000
    343    345     1   0.10969 276646.080000
    346    347     1   0.10969 276646.080000
    346    348     1   0.10969 276646.080000
    349    350     1   0.10969 276646.080000
    349    351     1   0.10969 276646.080000
    352    353     1   0.10969 276646.080000
    352    354     1   0.10969 276646.080000
    355    356     1   0.10969 276646.080000
    355    357     1   0.10969 276646.080000
    360    389     1   0.10304 312293.760000
    361    362     1   0.10910 283424.160000
    361    363     1   0.10910 283424.160000
    364    365     1   0.10910 283424.160000
    364    366     1   0.10910 283424.160000
    367    368     1   0.10910 283424.160000
    367    369     1   0.10910 283424.160000
    370    371     1   0.10969 276646.080000
    370    372     1   0.10969 276646.080000
    373    374     1   0.10969 276646.080000
    373    375     1   0.10969 276646.080000
    376    377     1   0.10969 276646.080000
    376    378     1   0.10969 276646.080000
    379    380     1   0.10969 276646.080000
    379    381     1   0.10969 276646.080000
    382    383     1   0.10969 276646.080000
    382    384     1   0.10969 276646.080000
    385    386     1   0.10969 276646.080000
    385    387     1   0.10969 276646.080000
    390    419     1   0.10304 312293.760000
    391    392     1   0.10910 283424.160000
    391    393     1   0.10910 283424.160000
    394    395     1   0.10910 283424.160000
    394    396     1   0.10910 283424.160000
    397    398     1   0.10910 283424.160000
    397    399     1   0.10910 283424.160000
    400    401     1   0.10969 276646.080000
    400    402     1   0.10969 276646.080000
    403    404     1   0.10969 276646.080000
    403    405     1   0.10969 276646.080000
    406    407     1   0.10969 276646.080000
    406    408     1   0.10969 276646.080000
    409    410     1   0.10969 276646.080000
    409    411     1   0.10969 276646.080000
    412    413     1   0.10969 276646.080000
    412    414     1   0.10969 276646.080000
    415    416     1   0.10969 276646.080000
    415    417     1   0.10969 276646.080000
    420    449     1   0.10304 312293.760000
    421    422     1   0.10910 283424.160000
    421    423     1   0.10910 283424.160000
    424    425     1   0.10910 283424.160000
    424    426     1   0.10910 283424.160000
    427    428     1   0.10910 283424.160000
    427    429     1   0.10910 283424.160000
    430    431     1   0.10969 276646.080000
    430    432     1   0.10969 276646.080000
    433    434     1   0.10969 276646.080000
    433    435     1   0.10969 276646.080000
    436    437     1   0.10969 276646.080000
    436    438     1   0.10969 276646.080000
    439    440     1   0.10969 276646.080000
    439    441     1   0.10969 276646.080000
    442    443     1   0.10969 276646.080000
    442    444     1   0.10969 276646.080000
    445    446     1   0.10969 276646.080000
    445    447     1   0.10969 276646.080000
    450    479     1   0.10304 312293.760000
    451    452     1   0.10910 283424.160000
    451    453     1   0.10910 283424.160000
    454    455     1   0.10910 283424.160000
    454    456     1   0.10910 283424.160000
    457    458     1   0.10910 283424.160000
    457    459     1   0.10910 283424.160000
    460    461     1   0.10969 276646.080000
    460    462     1   0.10969 276646.080000
    463    464     1   0.10969 276646.080000
    463    465     1   0.10969 276646.080000
    466    467     1   0.10969 276646.080000
    466    468     1   0.10969 276646.080000
    469    470     1   0.10969 276646.080000
    469    471     1   0.10969 276646.080000
    472    473     1   0.10969 276646.080000
    472    474     1   0.10969 276646.080000
    475    476     1   0.10969 276646.080000
    475    477     1   0.10969 276646.080000
    480    509     1   0.10304 312293.760000
    481    482     1   0.10910 283424.160000
    481    483     1   0.10910 283424.160000
    484    485     1   0.10910 283424.160000
    484    486     1   0.10910 283424.160000
    487    488     1   0.10910 283424.160000
    487    489     1   0.10910 283424.160000
    490    491     1   0.10969 276646.080000
    490    492     1   0.10969 276646.080000
    493    494     1   0.10969 276646.080000
    493    495     1   0.10969 276646.080000
    496    497     1   0.10969 276646.080000
    496    498     1   0.10969 276646.080000
    499    500     1   0.10969 276646.080000
    499    501     1   0.10969 276646.080000
    502    503     1   0.10969 276646.080000
    502    504     1   0.10969 276646.080000
    505    506     1   0.10969 276646.080000
    505    507     1   0.10969 276646.080000
    510    539     1   0.10304 312293.760000
    511    512     1   0.10910 283424.160000
    511    513     1   0.10910 283424.160000
    514    515     1   0.10910 283424.160000
    514    516     1   0.10910 283424.160000
    517    518     1   0.10910 283424.160000
    517    519     1   0.10910 283424.160000
    520    521     1   0.10969 276646.080000
    520    522     1   0.10969 276646.080000
    523    524     1   0.10969 276646.080000
    523    525     1   0.10969 276646.080000
    526    527     1   0.10969 276646.080000
    526    528     1   0.10969 276646.080000
    529    530     1   0.10969 276646.080000
    529    531     1   0.10969 276646.080000
    532    533     1   0.10969 276646.080000
    532    534     1   0.10969 276646.080000
    535    536     1   0.10969 276646.080000
    535    537     1   0.10969 276646.080000
    540    569     1   0.10304 312293.760000
    541    542     1   0.10910 283424.160000
    541    543     1   0.10910 283424.160000
    544    545     1   0.10910 283424.160000
    544    546     1   0.10910 283424.160000
    547    548     1   0.10910 283424.160000
    547    549     1   0.10910 283424.160000
    550    551     1   0.10969 276646.080000
    550    552     1   0.10969 276646.080000
    553    554     1   0.10969 276646.080000
    553    555     1   0.10969 276646.080000
    556    557     1   0.10969 276646.080000
    556    558     1   0.10969 276646.080000
    559    560     1   0.10969 276646.080000
    559    561     1   0.10969 276646.080000
    562    563     1   0.10969 276646.080000
    562    564     1   0.10969 276646.080000
    565    566     1   0.10969 276646.080000
    565    567     1   0.10969 276646.080000
    570    599     1   0.10304 312293.760000
    571    572     1   0.10910 283424.160000
    571    573     1   0.10910 283424.160000
    574    575     1   0.10910 283424.160000
    574    576     1   0.10910 283424.160000
    577    578     1   0.10910 283424.160000
    577    579     1   0.10910 283424.160000
    580    581     1   0.10969 276646.080000
    580    582     1   0.10969 276646.080000
    583    584     1   0.10969 276646.080000
    583    585     1   0.10969 276646.080000
    586    587     1   0.10969 276646.080000
    586    588     1   0.10969 276646.080000
    589    590     1   0.10969 276646.080000
    589    591     1   0.10969 276646.080000
    592    593     1   0.10969 276646.080000
    592    594     1   0.10969 276646.080000
    595    596     1   0.10969 276646.080000
    595    597     1   0.10969 276646.080000
    600    629     1   0.10304 312293.760000
    601    602     1   0.10910 283424.160000
    601    603     1   0.10910 283424.160000
    604    605     1   0.10910 283424.160000
    604    606     1   0.10910 283424.160000
    607    608     1   0.10910 283424.160000
    607    609     1   0.10910 283424.160000
    610    611     1   0.10969 276646.080000
    610    612     1   0.10969 276646.080000
    613    614     1   0.10969 276646.080000
    613    615     1   0.10969 276646.080000
    616    617     1   0.10969 276646.080000
    616    618     1   0.10969 276646.080000
    619    620     1   0.10969 276646.080000
    619    621     1   0.10969 276646.080000
    622    623     1   0.10969 276646.080000
    622    624     1   0.10969 276646.080000
    625    626     1   0.10969 276646.080000
    625    627     1   0.10969 276646.080000
    630    659     1   0.10304 312293.760000
    631    632     1   0.10910 283424.160000
    631    633     1   0.10910 283424.160000
    634    635     1   0.10910 283424.160000
    634    636     1   0.10910 283424.160000
    637    638     1   0.10910 283424.160000
    637    639     1   0.10910 283424.160000
    640    641     1   0.10969 276646.080000
    640    642     1   0.10969 276646.080000
    643    644     1   0.10969 276646.080000
    643    645     1   0.10969 276646.080000
    646    647     1   0.10969 276646.080000
    646    648     1   0.10969 276646.080000
    649    650     1   0.10969 276646.080000
    649    651     1   0.10969 276646.080000
    652    653     1   0.10969 276646.080000
    652    654     1   0.10969 276646.080000
    655    656     1   0.10969 276646.080000
    655    657     1   0.10969 276646.080000
    660    689     1   0.10304 312293.760000
    661    662     1   0.10910 283424.160000
    661    663     1   0.10910 283424.160000
    664    665     1   0.10910 283424.160000
    664    666     1   0.10910 283424.160000
    667    668     1   0.10910 283424.160000
    667    669     1   0.10910 283424.160000
    670    671     1   0.10969 276646.080000
    670    672     1   0.10969 276646.080000
    673    674     1   0.10969 276646.080000
    673    675     1   0.10969 276646.080000
    676    677     1   0.10969 276646.080000
    676    678     1   0.10969 276646.080000
    679    680     1   0.10969 276646.080000
    679    681     1   0.10969 276646.080000
    682    683     1   0.10969 276646.080000
    682    684     1   0.10969 276646.080000
    685    686     1   0.10969 276646.080000
    685    687     1   0.10969 276646.080000
    690    719     1   0.10304 312293.760000
    691    692     1   0.10910 283424.160000
    691    693     1   0.10910 283424.160000
    694    695     1   0.10910 283424.160000
    694    696     1   0.10910 283424.160000
    697    698     1   0.10910 283424.160000
    697    699     1   0.10910 283424.160000
    700    701     1   0.10969 276646.080000
    700    702     1   0.10969 276646.080000
    703    704     1   0.10969 276646.080000
    703    705     1   0.10969 276646.080000
    706    707     1   0.10969 276646.080000
    706    708     1   0.10969 276646.080000
    709    710     1   0.10969 276646.080000
    709    711     1   0.10969 276646.080000
    712    713     1   0.10969 276646.080000
    712    714     1   0.10969 276646.080000
    715    716     1   0.10969 276646.080000
    715    717     1   0.10969 276646.080000
    720    749     1   0.10304 312293.760000
    721    722     1   0.10910 283424.160000
    721    723     1   0.10910 283424.160000
    724    725     1   0.10910 283424.160000
    724    726     1   0.10910 283424.160000
    727    728     1   0.10910 283424.160000
    727    729     1   0.10910 283424.160000
    730    731     1   0.10969 276646.080000
    730    732     1   0.10969 276646.080000
    733    734     1   0.10969 276646.080000
    733    735     1   0.10969 276646.080000
    736    737     1   0.10969 276646.080000
    736    738     1   0.10969 276646.080000
    739    740     1   0.10969 276646.080000
    739    741     1   0.10969 276646.080000
    742    743     1   0.10969 276646.080000
    742    744     1   0.10969 276646.080000
    745    746     1   0.10969 276646.080000
    745    747     1   0.10969 276646.080000
    750    779     1   0.10304 312293.760000
    751    752     1   0.10910 283424.160000
    751    753     1   0.10910 283424.160000
    754    755     1   0.10910 283424.160000
    754    756     1   0.10910 283424.160000
    757    758     1   0.10910 283424.160000
    757    759     1   0.10910 283424.160000
    760    761     1   0.10969 276646.080000
    760    762     1   0.10969 276646.080000
    763    764     1   0.10969 276646.080000
    763    765     1   0.10969 276646.080000
    766    767     1   0.10969 276646.080000
    766    768     1   0.10969 276646.080000
    769    770     1   0.10969 276646.080000
    769    771     1   0.10969 276646.080000
    772    773     1   0.10969 276646.080000
    772    774     1   0.10969 276646.080000
    775    776     1   0.10969 276646.080000
    775    777     1   0.10969 276646.080000
    780    809     1   0.10304 312293.760000
    781    782     1   0.10910 283424.160000
    781    783     1   0.10910 283424.160000
    784    785     1   0.10910 283424.160000
    784    786     1   0.10910 283424.160000
    787    788     1   0.10910 283424.160000
    787    789     1   0.10910 283424.160000
    790    791     1   0.10969 276646.080000
    790    792     1   0.10969 276646.080000
    793    794     1   0.10969 276646.080000
    793    795     1   0.10969 276646.080000
    796    797     1   0.10969 276646.080000
    796    798     1   0.10969 276646.080000
    799    800     1   0.10969 276646.080000
    799    801     1   0.10969 276646.080000
    802    803     1   0.10969 276646.080000
    802    804     1   0.10969 276646.080000
    805    806     1   0.10969 276646.080000
    805    807     1   0.10969 276646.080000
    810    839     1   0.10304 312293.760000
    811    812     1   0.10910 283424.160000
    811    813     1   0.10910 283424.160000
    814    815     1   0.10910 283424.160000
    814    816     1   0.10910 283424.160000
    817    818     1   0.10910 283424.160000
    817    819     1   0.10910 283424.160000
    820    821     1   0.10969 276646.080000
    820    822     1   0.10969 276646.080000
    823    824     1   0.10969 276646.080000
    823    825     1   0.10969 276646.080000
    826    827     1   0.10969 276646.080000
    826    828     1   0.10969 276646.080000
    829    830     1   0.10969 276646.080000
    829    831     1   0.10969 276646.080000
    832    833     1   0.10969 276646.080000
    832    834     1   0.10969 276646.080000
    835    836     1   0.10969 276646.080000
    835    837     1   0.10969 276646.080000
    840    869     1   0.10304 312293.760000
    841    842     1   0.10910 283424.160000
    841    843     1   0.10910 283424.160000
    844    845     1   0.10910 283424.160000
    844    846     1   0.10910 283424.160000
    847    848     1   0.10910 283424.160000
    847    849     1   0.10910 283424.160000
    850    851     1   0.10969 276646.080000
    850    852     1   0.10969 276646.080000
    853    854     1   0.10969 276646.080000
    853    855     1   0.10969 276646.080000
    856    857     1   0.10969 276646.080000
    856    858     1   0.10969 276646.080000
    859    860     1   0.10969 276646.080000
    859    861     1   0.10969 276646.080000
    862    863     1   0.10969 276646.080000
    862    864     1   0.10969 276646.080000
    865    866     1   0.10969 276646.080000
    865    867     1   0.10969 276646.080000
    870    899     1   0.10304 312293.760000
    871    872     1   0.10910 283424.160000
    871    873     1   0.10910 283424.160000
    874    875     1   0.10910 283424.160000
    874    876     1   0.10910 283424.160000
    877    878     1   0.10910 283424.160000
    877    879     1   0.10910 283424.160000
    880    881     1   0.10969 276646.080000
    880    882     1   0.10969 276646.080000
    883    884     1   0.10969 276646.080000
    883    885     1   0.10969 276646.080000
    886    887     1   0.10969 276646.080000
    886    888     1   0.10969 276646.080000
    889    890     1   0.10969 276646.080000
    889    891     1   0.10969 276646.080000
    892    893     1   0.10969 276646.080000
    892    894     1   0.10969 276646.080000
    895    896     1   0.10969 276646.080000
    895    897     1   0.10969 276646.080000
    900    901     1   0.10910 283424.160000
    900    902     1   0.10910 283424.160000
    903    904     1   0.10969 276646.080000
    903    905     1   0.10969 276646.080000
    906    907     1   0.10969 276646.080000
    906    908     1   0.10969 276646.080000
    909    910     1   0.10304 312293.760000
    909    911     1   0.10304 312293.760000
    909    913     1   0.10304 312293.760000
    914    915     1   0.10910 283424.160000
    914    916     1   0.10910 283424.160000
    917    918     1   0.10969 276646.080000
    917    919     1   0.10969 276646.080000
    920    921     1   0.10969 276646.080000
    920    922     1   0.10969 276646.080000
    923    924     1   0.10304 312293.760000
    923    925     1   0.10304 312293.760000
    923    927     1   0.10304 312293.760000
    928    929     1   0.10910 283424.160000
    928    930     1   0.10910 283424.160000
    931    932     1   0.10969 276646.080000
    931    933     1   0.10969 276646.080000
    934    935     1   0.10969 276646.080000
    934    936     1   0.10969 276646.080000
    937    938     1   0.10304 312293.760000
    937    939     1   0.10304 312293.760000
    937    941     1   0.10304 312293.760000
    942    943     1   0.10910 283424.160000
    942    944     1   0.10910 283424.160000
    945    946     1   0.10969 276646.080000
    945    947     1   0.10969 276646.080000
    948    949     1   0.10969 276646.080000
    948    950     1   0.10969 276646.080000
    951    952     1   0.10304 312293.760000
    951    953     1   0.10304 312293.760000
    951    955     1   0.10304 312293.760000
    956    957     1   0.10910 283424.160000
    956    958     1   0.10910 283424.160000
    959    960     1   0.10969 276646.080000
    959    961     1   0.10969 276646.080000
    962    963     1   0.10969 276646.080000
    962    964     1   0.10969 276646.080000
    965    966     1   0.10304 312293.760000
    965    967     1   0.10304 312293.760000
    965    969     1   0.10304 312293.760000
    970    971     1   0.10910 283424.160000
    970    972     1   0.10910 283424.160000
    973    974     1   0.10969 276646.080000
    973    975     1   0.10969 276646.080000
    976    977     1   0.10969 276646.080000
    976    978     1   0.10969 276646.080000
    979    980     1   0.10304 312293.760000
    979    981     1   0.10304 312293.760000
    979    983     1   0.10304 312293.760000
    984    985     1   0.10910 283424.160000
    984    986     1   0.10910 283424.160000
    987    988     1   0.10969 276646.080000
    987    989     1   0.10969 276646.080000
    990    991     1   0.10969 276646.080000
    990    992     1   0.10969 276646.080000
    993    994     1   0.10304 312293.760000
    993    995     1   0.10304 312293.760000
    993    997     1   0.10304 312293.760000
    998    999     1   0.10910 283424.160000
    998   1000     1   0.10910 283424.160000
   1001   1002     1   0.10969 276646.080000
   1001   1003     1   0.10969 276646.080000
   1004   1005     1   0.10969 276646.080000
   1004   1006     1   0.10969 276646.080000
   1007   1008     1   0.10304 312293.760000
   1007   1009     1   0.10304 312293.760000
   1007   1011     1   0.10304 312293.760000
   1012   1013     1   0.10910 283424.160000
   1012   1014     1   0.10910 283424.160000
   1015   1016     1   0.10969 276646.080000
   1015   1017     1   0.10969 276646.080000
   1018   1019     1   0.10969 276646.080000
   1018   1020     1   0.10969 276646.080000
   1021   1022     1   0.10304 312293.760000
   1021   1023     1   0.10304 312293.760000
   1021   1025     1   0.10304 312293.760000
   1026   1027     1   0.10910 283424.160000
   1026   1028     1   0.10910 283424.160000
   1029   1030     1   0.10969 276646.080000
   1029   1031     1   0.10969 276646.080000
   1032   1033     1   0.10969 276646.080000
   1032   1034     1   0.10969 276646.080000
   1035   1036     1   0.10304 312293.760000
   1035   1037     1   0.10304 312293.760000
   1035   1039     1   0.10304 312293.760000
   1040   1041     1   0.10910 283424.160000
   1040   1042     1   0.10910 283424.160000
   1043   1044     1   0.10969 276646.080000
   1043   1045     1   0.10969 276646.080000
   1046   1047     1   0.10969 276646.080000
   1046   1048     1   0.10969 276646.080000
   1049   1050     1   0.10304 312293.760000
   1049   1051     1   0.10304 312293.760000
   1049   1053     1   0.10304 312293.760000
   1054   1055     1   0.10910 283424.160000
   1054   1056     1   0.10910 283424.160000
   1057   1058     1   0.10969 276646.080000
   1057   1059     1   0.10969 276646.080000
   1060   1061     1   0.10969 276646.080000
   1060   1062     1   0.10969 276646.080000
   1063   1064     1   0.10304 312293.760000
   1063   1065     1   0.10304 312293.760000
   1063   1067     1   0.10304 312293.760000
   1068   1069     1   0.10910 283424.160000
   1068   1070     1   0.10910 283424.160000
   1071   1072     1   0.10969 276646.080000
   1071   1073     1   0.10969 276646.080000
   1074   1075     1   0.10969 276646.080000
   1074   1076     1   0.10969 276646.080000
   1077   1078     1   0.10304 312293.760000
   1077   1079     1   0.10304 312293.760000
   1077   1081     1   0.10304 312293.760000
   1082   1083     1   0.10910 283424.160000
   1082   1084     1   0.10910 283424.160000
   1085   1086     1   0.10969 276646.080000
   1085   1087     1   0.10969 276646.080000
   1088   1089     1   0.10969 276646.080000
   1088   1090     1   0.10969 276646.080000
   1091   1092     1   0.10304 312293.760000
   1091   1093     1   0.10304 312293.760000
   1091   1095     1   0.10304 312293.760000
   1096   1097     1   0.10910 283424.160000
   1096   1098     1   0.10910 283424.160000
   1099   1100     1   0.10969 276646.080000
   1099   1101     1   0.10969 276646.080000
   1102   1103     1   0.10969 276646.080000
   1102   1104     1   0.10969 276646.080000
   1105   1106     1   0.10304 312293.760000
   1105   1107     1   0.10304 312293.760000
   1105   1109     1   0.10304 312293.760000
   1110   1111     1   0.10910 283424.160000
   1110   1112     1   0.10910 283424.160000
   1113   1114     1   0.10969 276646.080000
   1113   1115     1   0.10969 276646.080000
   1116   1117     1   0.10969 276646.080000
   1116   1118     1   0.10969 276646.080000
   1119   1120     1   0.10304 312293.760000
   1119   1121     1   0.10304 312293.760000
   1119   1123     1   0.10304 312293.760000
   1124   1125     1   0.10910 283424.160000
   1124   1126     1   0.10910 283424.160000
   1127   1128     1   0.10969 276646.080000
   1127   1129     1   0.10969 276646.080000
   1130   1131     1   0.10969 276646.080000
   1130   1132     1   0.10969 276646.080000
   1133   1134     1   0.10304 312293.760000
   1133   1135     1   0.10304 312293.760000
   1133   1137     1   0.10304 312293.760000
   1138   1139     1   0.10910 283424.160000
   1138   1140     1   0.10910 283424.160000
   1141   1142     1   0.10969 276646.080000
   1141   1143     1   0.10969 276646.080000
   1144   1145     1   0.10969 276646.080000
   1144   1146     1   0.10969 276646.080000
   1147   1148     1   0.10304 312293.760000
   1147   1149     1   0.10304 312293.760000
   1147   1151     1   0.10304 312293.760000
   1152   1153     1   0.10910 283424.160000
   1152   1154     1   0.10910 283424.160000
   1155   1156     1   0.10969 276646.080000
   1155   1157     1   0.10969 276646.080000
   1158   1159     1   0.10969 276646.080000
   1158   1160     1   0.10969 276646.080000
   1161   1162     1   0.10304 312293.760000
   1161   1163     1   0.10304 312293.760000
   1161   1165     1   0.10304 312293.760000
   1166   1167     1   0.10910 283424.160000
   1166   1168     1   0.10910 283424.160000
   1169   1170     1   0.10969 276646.080000
   1169   1171     1   0.10969 276646.080000
   1172   1173     1   0.10969 276646.080000
   1172   1174     1   0.10969 276646.080000
   1175   1176     1   0.10304 312293.760000
   1175   1177     1   0.10304 312293.760000
   1175   1179     1   0.10304 312293.760000
   1180   1181     1   0.10910 283424.160000
   1180   1182     1   0.10910 283424.160000
   1183   1184     1   0.10969 276646.080000
   1183   1185     1   0.10969 276646.080000
   1186   1187     1   0.10969 276646.080000
   1186   1188     1   0.10969 276646.080000
   1189   1190     1   0.10304 312293.760000
   1189   1191     1   0.10304 312293.760000
   1189   1193     1   0.10304 312293.760000
   1194   1195     1   0.10910 283424.160000
   1194   1196     1   0.10910 283424.160000
   1197   1198     1   0.10969 276646.080000
   1197   1199     1   0.10969 276646.080000
   1200   1201     1   0.10969 276646.080000
   1200   1202     1   0.10969 276646.080000
   1203   1204     1   0.10304 312293.760000
   1203   1205     1   0.10304 312293.760000
   1203   1207     1   0.10304 312293.760000
   1208   1209     1   0.10910 283424.160000
   1208   1210     1   0.10910 283424.160000
   1211   1212     1   0.10969 276646.080000
   1211   1213     1   0.10969 276646.080000
   1214   1215     1   0.10969 276646.080000
   1214   1216     1   0.10969 276646.080000
   1217   1218     1   0.10304 312293.760000
   1217   1219     1   0.10304 312293.760000
   1217   1221     1   0.10304 312293.760000
   1222   1223     1   0.10910 283424.160000
   1222   1224     1   0.10910 283424.160000
   1225   1226     1   0.10969 276646.080000
   1225   1227     1   0.10969 276646.080000
   1228   1229     1   0.10969 276646.080000
   1228   1230     1   0.10969 276646.080000
   1231   1232     1   0.10304 312293.760000
   1231   1233     1   0.10304 312293.760000
   1231   1235     1   0.10304 312293.760000
   1236   1237     1   0.10910 283424.160000
   1236   1238     1   0.10910 283424.160000
   1239   1240     1   0.10969 276646.080000
   1239   1241     1   0.10969 276646.080000
   1242   1243     1   0.10969 276646.080000
   1242   1244     1   0.10969 276646.080000
   1245   1246     1   0.10304 312293.760000
   1245   1247     1   0.10304 312293.760000
   1245   1249     1   0.10304 312293.760000
   1250   1251     1   0.10910 283424.160000
   1250   1252     1   0.10910 283424.160000
   1253   1254     1   0.10969 276646.080000
   1253   1255     1   0.10969 276646.080000
   1256   1257     1   0.10969 276646.080000
   1256   1258     1   0.10969 276646.080000
   1259   1260     1   0.10304 312293.760000
   1259   1261     1   0.10304 312293.760000
   1259   1263     1   0.10304 312293.760000
   1264   1265     1   0.10910 283424.160000
   1264   1266     1   0.10910 283424.160000
   1267   1268     1   0.10969 276646.080000
   1267   1269     1   0.10969 276646.080000
   1270   1271     1   0.10969 276646.080000
   1270   1272     1   0.10969 276646.080000
   1273   1274     1   0.10304 312293.760000
   1273   1275     1   0.10304 312293.760000
   1273   1277     1   0.10304 312293.760000
   1278   1279     1   0.10910 283424.160000
   1278   1280     1   0.10910 283424.160000
   1281   1282     1   0.10969 276646.080000
   1281   1283     1   0.10969 276646.080000
   1284   1285     1   0.10969 276646.080000
   1284   1286     1   0.10969 276646.080000
   1287   1288     1   0.10304 312293.760000
   1287   1289     1   0.10304 312293.760000
   1287   1291     1   0.10304 312293.760000
   1292   1293     1   0.10910 283424.160000
   1292   1294     1   0.10910 283424.160000
   1295   1296     1   0.10969 276646.080000
   1295   1297     1   0.10969 276646.080000
   1298   1299     1   0.10969 276646.080000
   1298   1300     1   0.10969 276646.080000
   1301   1302     1   0.10304 312293.760000
   1301   1303     1   0.10304 312293.760000
   1301   1305     1   0.10304 312293.760000
   1306   1307     1   0.10910 283424.160000
   1306   1308     1   0.10910 283424.160000
   1309   1310     1   0.10969 276646.080000
   1309   1311     1   0.10969 276646.080000
   1312   1313     1   0.10969 276646.080000
   1312   1314     1   0.10969 276646.080000
   1315   1316     1   0.10304 312293.760000
   1315   1317     1   0.10304 312293.760000
   1315   1319     1   0.10304 312293.760000
   1320   1321     1   0.10910 283424.160000
   1320   1322     1   0.10910 283424.160000
   1323   1324     1   0.10969 276646.080000
   1323   1325     1   0.10969 276646.080000
   1326   1327     1   0.10969 276646.080000
   1326   1328     1   0.10969 276646.080000
   1329   1330     1   0.10304 312293.760000
   1329   1331     1   0.10304 312293.760000
   1329   1333     1   0.10304 312293.760000
   1334   1335     1   0.10910 283424.160000
   1334   1336     1   0.10910 283424.160000
   1337   1338     1   0.10969 276646.080000
   1337   1339     1   0.10969 276646.080000
   1340   1341     1   0.10969 276646.080000
   1340   1342     1   0.10969 276646.080000
   1343   1344     1   0.10304 312293.760000
   1343   1345     1   0.10304 312293.760000
   1343   1347     1   0.10304 312293.760000

[ pairs ]
;    ai     aj funct         c0         c1         c2         c3
      1     14     1
      1     17     1
      2     11     1
      2     20     1
      5      8     1
      5     21     1
      8     28     1
      8     31     1
     11     22     1
     11     25     1
     14     40     1
     14     43     1
     17     34     1
     17     37     1
     20     49     1
     20     46     1
     21     55     1
     21     52     1
     22     37     1
     22    178     1
     25     34     1
     25    148     1
     28     43     1
     28    118     1
     31     40     1
     31     88     1
     34    169     1
     37    139     1
     40    109     1
     43     79     1
     46     70     1
     49    100     1
     52    130     1
     55    160     1
     60     85     1
     60     82     1
     60     79     1
     61     76     1
     61     70     1
     61    238     1
     64     73     1
     64     70     1
     64    208     1
     67     73     1
     67     76     1
     67     88     1
     73    229     1
     76    199     1
     82    190     1
     85    220     1
     90    115     1
     90    112     1
     90    109     1
     91    106     1
     91    100     1
     91    298     1
     94    103     1
     94    100     1
     94    268     1
     97    103     1
     97    106     1
     97    118     1
    103    289     1
    106    259     1
    112    250     1
    115    280     1
    120    145     1
    120    142     1
    120    139     1
    121    136     1
    121    130     1
    121    358     1
    124    133     1
    124    130     1
    124    328     1
    127    133     1
    127    136     1
    127    148     1
    133    349     1
    136    319     1
    142    310     1
    145    340     1
    150    175     1
    150    172     1
    150    169     1
    151    166     1
    151    160     1
    151    418     1
    154    163     1
    154    160     1
    154    388     1
    157    163     1
    157    166     1
    157    178     1
    163    409     1
    166    379     1
    172    370     1
    175    400     1
    180    205     1
    180    202     1
    180    199     1
    181    196     1
    181    190     1
    181    478     1
    184    193     1
    184    190     1
    184    448     1
    187    193     1
    187    196     1
    187    208     1
    193    469     1
    196    439     1
    202    430     1
    205    460     1
    210    235     1
    210    232     1
    210    229     1
    211    226     1
    211    220     1
    211    538     1
    214    223     1
    214    220     1
    214    508     1
    217    223     1
    217    226     1
    217    238     1
    223    529     1
    226    499     1
    232    490     1
    235    520     1
    240    265     1
    240    262     1
    240    259     1
    241    256     1
    241    250     1
    241    598     1
    244    253     1
    244    250     1
    244    568     1
    247    253     1
    247    256     1
    247    268     1
    253    589     1
    256    559     1
    262    550     1
    265    580     1
    270    295     1
    270    292     1
    270    289     1
    271    286     1
    271    280     1
    271    658     1
    274    283     1
    274    280     1
    274    628     1
    277    283     1
    277    286     1
    277    298     1
    283    649     1
    286    619     1
    292    610     1
    295    640     1
    300    325     1
    300    322     1
    300    319     1
    301    316     1
    301    310     1
    301    718     1
    304    313     1
    304    310     1
    304    688     1
    307    313     1
    307    316     1
    307    328     1
    313    709     1
    316    679     1
    322    670     1
    325    700     1
    330    355     1
    330    352     1
    330    349     1
    331    346     1
    331    340     1
    331    778     1
    334    343     1
    334    340     1
    334    748     1
    337    343     1
    337    346     1
    337    358     1
    343    769     1
    346    739     1
    352    730     1
    355    760     1
    360    385     1
    360    382     1
    360    379     1
    361    376     1
    361    370     1
    361    838     1
    364    373     1
    364    370     1
    364    808     1
    367    373     1
    367    376     1
    367    388     1
    373    829     1
    376    799     1
    382    790     1
    385    820     1
    390    415     1
    390    412     1
    390    409     1
    391    406     1
    391    400     1
    391    898     1
    394    403     1
    394    400     1
    394    868     1
    397    403     1
    397    406     1
    397    418     1
    403    889     1
    406    859     1
    412    850     1
    415    880     1
    420    445     1
    420    442     1
    420    439     1
    421    436     1
    421    430     1
    421    926     1
    424    433     1
    424    430     1
    424    912     1
    427    433     1
    427    436     1
    427    448     1
    433    920     1
    436    906     1
    442    903     1
    445    917     1
    450    475     1
    450    472     1
    450    469     1
    451    466     1
    451    460     1
    451    954     1
    454    463     1
    454    460     1
    454    940     1
    457    463     1
    457    466     1
    457    478     1
    463    948     1
    466    934     1
    472    931     1
    475    945     1
    480    505     1
    480    502     1
    480    499     1
    481    496     1
    481    490     1
    481    982     1
    484    493     1
    484    490     1
    484    968     1
    487    493     1
    487    496     1
    487    508     1
    493    976     1
    496    962     1
    502    959     1
    505    973     1
    510    535     1
    510    532     1
    510    529     1
    511    526     1
    511    520     1
    511   1010     1
    514    523     1
    514    520     1
    514    996     1
    517    523     1
    517    526     1
    517    538     1
    523   1004     1
    526    990     1
    532    987     1
    535   1001     1
    540    565     1
    540    562     1
    540    559     1
    541    556     1
    541    550     1
    541   1038     1
    544    553     1
    544    550     1
    544   1024     1
    547    553     1
    547    556     1
    547    568     1
    553   1032     1
    556   1018     1
    562   1015     1
    565   1029     1
    570    595     1
    570    592     1
    570    589     1
    571    586     1
    571    580     1
    571   1066     1
    574    583     1
    574    580     1
    574   1052     1
    577    583     1
    577    586     1
    577    598     1
    583   1060     1
    586   1046     1
    592   1043     1
    595   1057     1
    600    625     1
    600    622     1
    600    619     1
    601    616     1
    601    610     1
    601   1094     1
    604    613     1
    604    610     1
    604   1080     1
    607    613     1
    607    616     1
    607    628     1
    613   1088     1
    616   1074     1
    622   1071     1
    625   1085     1
    630    655     1
    630    652     1
    630    649     1
    631    646     1
    631    640     1
    631   1122     1
    634    643     1
    634    640     1
    634   1108     1
    637    643     1
    637    646     1
    637    658     1
    643   1116     1
    646   1102     1
    652   1099     1
    655   1113     1
    660    685     1
    660    682     1
    660    679     1
    661    676     1
    661    670     1
    661   1150     1
    664    673     1
    664    670     1
    664   1136     1
    667    673     1
    667    676     1
    667    688     1
    673   1144     1
    676   1130     1
    682   1127     1
    685   1141     1
    690    715     1
    690    712     1
    690    709     1
    691    706     1
    691    700     1
    691   1178     1
    694    703     1
    694    700     1
    694   1164     1
    697    703     1
    697    706     1
    697    718     1
    703   1172     1
    706   1158     1
    712   1155     1
    715   1169     1
    720    745     1
    720    742     1
    720    739     1
    721    736     1
    721    730     1
    721   1206     1
    724    733     1
    724    730     1
    724   1192     1
    727    733     1
    727    736     1
    727    748     1
    733   1200     1
    736   1186     1
    742   1183     1
    745   1197     1
    750    775     1
    750    772     1
    750    769     1
    751    766     1
    751    760     1
    751   1234     1
    754    763     1
    754    760     1
    754   1220     1
    757    763     1
    757    766     1
    757    778     1
    763   1228     1
    766   1214     1
    772   1211     1
    775   1225     1
    780    805     1
    780    802     1
    780    799     1
    781    796     1
    781    790     1
    781   1262     1
    784    793     1
    784    790     1
    784   1248     1
    787    793     1
    787    796     1
    787    808     1
    793   1256     1
    796   1242     1
    802   1239     1
    805   1253     1
    810    835     1
    810    832     1
    810    829     1
    811    826     1
    811    820     1
    811   1290     1
    814    823     1
    814    820     1
    814   1276     1
    817    823     1
    817    826     1
    817    838     1
    823   1284     1
    826   1270     1
    832   1267     1
    835   1281     1
    840    865     1
    840    862     1
    840    859     1
    841    856     1
    841    850     1
    841   1318     1
    844    853     1
    844    850     1
    844   1304     1
    847    853     1
    847    856     1
    847    868     1
    853   1312     1
    856   1298     1
    862   1295     1
    865   1309     1
    870    895     1
    870    892     1
    870    889     1
    871    886     1
    871    880     1
    871   1346     1
    874    883     1
    874    880     1
    874   1332     1
    877    883     1
    877    886     1
    877    898     1
    883   1340     1
    886   1326     1
    892   1323     1
    895   1337     1
    900    912     1
    906    909     1
    914    926     1
    920    923     1
    928    940     1
    934    937     1
    942    954     1
    948    951     1
    956    968     1
    962    965     1
    970    982     1
    976    979     1
    984    996     1
    990    993     1
    998   1010     1
   1004   1007     1
   1012   1024     1
   1018   1021     1
   1026   1038     1
   1032   1035     1
   1040   1052     1
   1046   1049     1
   1054   1066     1
   1060   1063     1
   1068   1080     1
   1074   1077     1
   1082   1094     1
   1088   1091     1
   1096   1108     1
   1102   1105     1
   1110   1122     1
   1116   1119     1
   1124   1136     1
   1130   1133     1
   1138   1150     1
   1144   1147     1
   1152   1164     1
   1158   1161     1
   1166   1178     1
   1172   1175     1
   1180   1192     1
   1186   1189     1
   1194   1206     1
   1200   1203     1
   1208   1220     1
   1214   1217     1
   1222   1234     1
   1228   1231     1
   1236   1248     1
   1242   1245     1
   1250   1262     1
   1256   1259     1
   1264   1276     1
   1270   1273     1
   1278   1290     1
   1284   1287     1
   1292   1304     1
   1298   1301     1
   1306   1318     1
   1312   1315     1
   1320   1332     1
   1326   1329     1
   1334   1346     1
   1340   1343     1
      1      9     1
      1     10     1
      1     12     1
      1     13     1
      2      6     1
      2      7     1
      2     15     1
      2     16     1
      5      3     1
      3     14     1
      3      9     1
      3     10     1
      5      4     1
      4     14     1
      4      9     1
      4     10     1
      5     18     1
      5     19     1
      6     17     1
      6     12     1
      6     13     1
      7     17     1
      7     12     1
      7     13     1
      8     58     1
      9     20     1
      9     15     1
      9     16     1
     10     20     1
     10     15     1
     10     16     1
     11     59     1
     12     21     1
     12     18     1
     12     19     1
     13     21     1
     13     18     1
     13     19     1
     14     29     1
     14     30     1
     14     32     1
     14     33     1
     15     28     1
     15     31     1
     15     58     1
     16     28     1
     16     31     1
     16     58     1
     17     23     1
     17     24     1
     17     26     1
     17     27     1
     18     22     1
     18     25     1
     18     59     1
     19     22     1
     19     25     1
     19     59     1
     20     41     1
     20     42     1
     20     44     1
     20     45     1
     21     35     1
     21     36     1
     21     38     1
     21     39     1
     22     26     1
     22     27     1
     22     56     1
     22     57     1
     23     25     1
     23     59     1
     23     55     1
     23     35     1
     23     36     1
     24     25     1
     24     59     1
     24     55     1
     24     35     1
     24     36     1
     25     53     1
     25     54     1
     26     59     1
     26     52     1
     26     38     1
     26     39     1
     27     59     1
     27     52     1
     27     38     1
     27     39     1
     28     32     1
     28     33     1
     28     50     1
     28     51     1
     29     31     1
     29     58     1
     29     49     1
     29     41     1
     29     42     1
     30     31     1
     30     58     1
     30     49     1
     30     41     1
     30     42     1
     31     47     1
     31     48     1
     32     58     1
     32     46     1
     32     44     1
     32     45     1
     33     58     1
     33     46     1
     33     44     1
     33     45     1
     34     59     1
     35    178     1
     35     56     1
     35     57     1
     36    178     1
     36     56     1
     36     57     1
     37     59     1
     38    148     1
     38     53     1
     38     54     1
     39    148     1
     39     53     1
     39     54     1
     40     58     1
     41    118     1
     41     50     1
     41     51     1
     42    118     1
     42     50     1
     42     51     1
     43     58     1
     44     88     1
     44     47     1
     44     48     1
     45     88     1
     45     47     1
     45     48     1
     46     80     1
     46     81     1
     47     79     1
     48     79     1
     49    110     1
     49    111     1
     50    109     1
     51    109     1
     52    140     1
     52    141     1
     53    139     1
     54    139     1
     55    170     1
     55    171     1
     56    169     1
     57    169     1
     60     74     1
     60     75     1
     60     77     1
     60     78     1
     60     71     1
     60     72     1
     61     65     1
     61     66     1
     61     68     1
     61     69     1
     61     86     1
     61     87     1
     62     64     1
     62     67     1
     62     89     1
     62     85     1
     62     74     1
     62     75     1
     63     64     1
     63     67     1
     63     89     1
     63     85     1
     63     74     1
     63     75     1
     64     68     1
     64     69     1
     64     83     1
     64     84     1
     65     67     1
     65     89     1
     65     82     1
     65     77     1
     65     78     1
     66     67     1
     66     89     1
     66     82     1
     66     77     1
     66     78     1
     67     80     1
     67     81     1
     68     89     1
     68     79     1
     68     71     1
     68     72     1
     69     89     1
     69     79     1
     69     71     1
     69     72     1
     70     89     1
     71     88     1
     71     80     1
     71     81     1
     72     88     1
     72     80     1
     72     81     1
     73     89     1
     74    238     1
     74     86     1
     74     87     1
     75    238     1
     75     86     1
     75     87     1
     76     89     1
     77    208     1
     77     83     1
     77     84     1
     78    208     1
     78     83     1
     78     84     1
     82    200     1
     82    201     1
     83    199     1
     84    199     1
     85    230     1
     85    231     1
     86    229     1
     87    229     1
     90    104     1
     90    105     1
     90    107     1
     90    108     1
     90    101     1
     90    102     1
     91     95     1
     91     96     1
     91     98     1
     91     99     1
     91    116     1
     91    117     1
     92     94     1
     92     97     1
     92    119     1
     92    115     1
     92    104     1
     92    105     1
     93     94     1
     93     97     1
     93    119     1
     93    115     1
     93    104     1
     93    105     1
     94     98     1
     94     99     1
     94    113     1
     94    114     1
     95     97     1
     95    119     1
     95    112     1
     95    107     1
     95    108     1
     96     97     1
     96    119     1
     96    112     1
     96    107     1
     96    108     1
     97    110     1
     97    111     1
     98    119     1
     98    109     1
     98    101     1
     98    102     1
     99    119     1
     99    109     1
     99    101     1
     99    102     1
    100    119     1
    101    118     1
    101    110     1
    101    111     1
    102    118     1
    102    110     1
    102    111     1
    103    119     1
    104    298     1
    104    116     1
    104    117     1
    105    298     1
    105    116     1
    105    117     1
    106    119     1
    107    268     1
    107    113     1
    107    114     1
    108    268     1
    108    113     1
    108    114     1
    112    260     1
    112    261     1
    113    259     1
    114    259     1
    115    290     1
    115    291     1
    116    289     1
    117    289     1
    120    134     1
    120    135     1
    120    137     1
    120    138     1
    120    131     1
    120    132     1
    121    125     1
    121    126     1
    121    128     1
    121    129     1
    121    146     1
    121    147     1
    122    124     1
    122    127     1
    122    149     1
    122    145     1
    122    134     1
    122    135     1
    123    124     1
    123    127     1
    123    149     1
    123    145     1
    123    134     1
    123    135     1
    124    128     1
    124    129     1
    124    143     1
    124    144     1
    125    127     1
    125    149     1
    125    142     1
    125    137     1
    125    138     1
    126    127     1
    126    149     1
    126    142     1
    126    137     1
    126    138     1
    127    140     1
    127    141     1
    128    149     1
    128    139     1
    128    131     1
    128    132     1
    129    149     1
    129    139     1
    129    131     1
    129    132     1
    130    149     1
    131    148     1
    131    140     1
    131    141     1
    132    148     1
    132    140     1
    132    141     1
    133    149     1
    134    358     1
    134    146     1
    134    147     1
    135    358     1
    135    146     1
    135    147     1
    136    149     1
    137    328     1
    137    143     1
    137    144     1
    138    328     1
    138    143     1
    138    144     1
    142    320     1
    142    321     1
    143    319     1
    144    319     1
    145    350     1
    145    351     1
    146    349     1
    147    349     1
    150    164     1
    150    165     1
    150    167     1
    150    168     1
    150    161     1
    150    162     1
    151    155     1
    151    156     1
    151    158     1
    151    159     1
    151    176     1
    151    177     1
    152    154     1
    152    157     1
    152    179     1
    152    175     1
    152    164     1
    152    165     1
    153    154     1
    153    157     1
    153    179     1
    153    175     1
    153    164     1
    153    165     1
    154    158     1
    154    159     1
    154    173     1
    154    174     1
    155    157     1
    155    179     1
    155    172     1
    155    167     1
    155    168     1
    156    157     1
    156    179     1
    156    172     1
    156    167     1
    156    168     1
    157    170     1
    157    171     1
    158    179     1
    158    169     1
    158    161     1
    158    162     1
    159    179     1
    159    169     1
    159    161     1
    159    162     1
    160    179     1
    161    178     1
    161    170     1
    161    171     1
    162    178     1
    162    170     1
    162    171     1
    163    179     1
    164    418     1
    164    176     1
    164    177     1
    165    418     1
    165    176     1
    165    177     1
    166    179     1
    167    388     1
    167    173     1
    167    174     1
    168    388     1
    168    173     1
    168    174     1
    172    380     1
    172    381     1
    173    379     1
    174    379     1
    175    410     1
    175    411     1
    176    409     1
    177    409     1
    180    194     1
    180    195     1
    180    197     1
    180    198     1
    180    191     1
    180    192     1
    181    185     1
    181    186     1
    181    188     1
    181    189     1
    181    206     1
    181    207     1
    182    184     1
    182    187     1
    182    209     1
    182    205     1
    182    194     1
    182    195     1
    183    184     1
    183    187     1
    183    209     1
    183    205     1
    183    194     1
    183    195     1
    184    188     1
    184    189     1
    184    203     1
    184    204     1
    185    187     1
    185    209     1
    185    202     1
    185    197     1
    185    198     1
    186    187     1
    186    209     1
    186    202     1
    186    197     1
    186    198     1
    187    200     1
    187    201     1
    188    209     1
    188    199     1
    188    191     1
    188    192     1
    189    209     1
    189    199     1
    189    191     1
    189    192     1
    190    209     1
    191    208     1
    191    200     1
    191    201     1
    192    208     1
    192    200     1
    192    201     1
    193    209     1
    194    478     1
    194    206     1
    194    207     1
    195    478     1
    195    206     1
    195    207     1
    196    209     1
    197    448     1
    197    203     1
    197    204     1
    198    448     1
    198    203     1
    198    204     1
    202    440     1
    202    441     1
    203    439     1
    204    439     1
    205    470     1
    205    471     1
    206    469     1
    207    469     1
    210    224     1
    210    225     1
    210    227     1
    210    228     1
    210    221     1
    210    222     1
    211    215     1
    211    216     1
    211    218     1
    211    219     1
    211    236     1
    211    237     1
    212    214     1
    212    217     1
    212    239     1
    212    235     1
    212    224     1
    212    225     1
    213    214     1
    213    217     1
    213    239     1
    213    235     1
    213    224     1
    213    225     1
    214    218     1
    214    219     1
    214    233     1
    214    234     1
    215    217     1
    215    239     1
    215    232     1
    215    227     1
    215    228     1
    216    217     1
    216    239     1
    216    232     1
    216    227     1
    216    228     1
    217    230     1
    217    231     1
    218    239     1
    218    229     1
    218    221     1
    218    222     1
    219    239     1
    219    229     1
    219    221     1
    219    222     1
    220    239     1
    221    238     1
    221    230     1
    221    231     1
    222    238     1
    222    230     1
    222    231     1
    223    239     1
    224    538     1
    224    236     1
    224    237     1
    225    538     1
    225    236     1
    225    237     1
    226    239     1
    227    508     1
    227    233     1
    227    234     1
    228    508     1
    228    233     1
    228    234     1
    232    500     1
    232    501     1
    233    499     1
    234    499     1
    235    530     1
    235    531     1
    236    529     1
    237    529     1
    240    254     1
    240    255     1
    240    257     1
    240    258     1
    240    251     1
    240    252     1
    241    245     1
    241    246     1
    241    248     1
    241    249     1
    241    266     1
    241    267     1
    242    244     1
    242    247     1
    242    269     1
    242    265     1
    242    254     1
    242    255     1
    243    244     1
    243    247     1
    243    269     1
    243    265     1
    243    254     1
    243    255     1
    244    248     1
    244    249     1
    244    263     1
    244    264     1
    245    247     1
    245    269     1
    245    262     1
    245    257     1
    245    258     1
    246    247     1
    246    269     1
    246    262     1
    246    257     1
    246    258     1
    247    260     1
    247    261     1
    248    269     1
    248    259     1
    248    251     1
    248    252     1
    249    269     1
    249    259     1
    249    251     1
    249    252     1
    250    269     1
    251    268     1
    251    260     1
    251    261     1
    252    268     1
    252    260     1
    252    261     1
    253    269     1
    254    598     1
    254    266     1
    254    267     1
    255    598     1
    255    266     1
    255    267     1
    256    269     1
    257    568     1
    257    263     1
    257    264     1
    258    568     1
    258    263     1
    258    264     1
    262    560     1
    262    561     1
    263    559     1
    264    559     1
    265    590     1
    265    591     1
    266    589     1
    267    589     1
    270    284     1
    270    285     1
    270    287     1
    270    288     1
    270    281     1
    270    282     1
    271    275     1
    271    276     1
    271    278     1
    271    279     1
    271    296     1
    271    297     1
    272    274     1
    272    277     1
    272    299     1
    272    295     1
    272    284     1
    272    285     1
    273    274     1
    273    277     1
    273    299     1
    273    295     1
    273    284     1
    273    285     1
    274    278     1
    274    279     1
    274    293     1
    274    294     1
    275    277     1
    275    299     1
    275    292     1
    275    287     1
    275    288     1
    276    277     1
    276    299     1
    276    292     1
    276    287     1
    276    288     1
    277    290     1
    277    291     1
    278    299     1
    278    289     1
    278    281     1
    278    282     1
    279    299     1
    279    289     1
    279    281     1
    279    282     1
    280    299     1
    281    298     1
    281    290     1
    281    291     1
    282    298     1
    282    290     1
    282    291     1
    283    299     1
    284    658     1
    284    296     1
    284    297     1
    285    658     1
    285    296     1
    285    297     1
    286    299     1
    287    628     1
    287    293     1
    287    294     1
    288    628     1
    288    293     1
    288    294     1
    292    620     1
    292    621     1
    293    619     1
    294    619     1
    295    650     1
    295    651     1
    296    649     1
    297    649     1
    300    314     1
    300    315     1
    300    317     1
    300    318     1
    300    311     1
    300    312     1
    301    305     1
    301    306     1
    301    308     1
    301    309     1
    301    326     1
    301    327     1
    302    304     1
    302    307     1
    302    329     1
    302    325     1
    302    314     1
    302    315     1
    303    304     1
    303    307     1
    303    329     1
    303    325     1
    303    314     1
    303    315     1
    304    308     1
    304    309     1
    304    323     1
    304    324     1
    305    307     1
    305    329     1
    305    322     1
    305    317     1
    305    318     1
    306    307     1
    306    329     1
    306    322     1
    306    317     1
    306    318     1
    307    320     1
    307    321     1
    308    329     1
    308    319     1
    308    311     1
    308    312     1
    309    329     1
    309    319     1
    309    311     1
    309    312     1
    310    329     1
    311    328     1
    311    320     1
    311    321     1
    312    328     1
    312    320     1
    312    321     1
    313    329     1
    314    718     1
    314    326     1
    314    327     1
    315    718     1
    315    326     1
    315    327     1
    316    329     1
    317    688     1
    317    323     1
    317    324     1
    318    688     1
    318    323     1
    318    324     1
    322    680     1
    322    681     1
    323    679     1
    324    679     1
    325    710     1
    325    711     1
    326    709     1
    327    709     1
    330    344     1
    330    345     1
    330    347     1
    330    348     1
    330    341     1
    330    342     1
    331    335     1
    331    336     1
    331    338     1
    331    339     1
    331    356     1
    331    357     1
    332    334     1
    332    337     1
    332    359     1
    332    355     1
    332    344     1
    332    345     1
    333    334     1
    333    337     1
    333    359     1
    333    355     1
    333    344     1
    333    345     1
    334    338     1
    334    339     1
    334    353     1
    334    354     1
    335    337     1
    335    359     1
    335    352     1
    335    347     1
    335    348     1
    336    337     1
    336    359     1
    336    352     1
    336    347     1
    336    348     1
    337    350     1
    337    351     1
    338    359     1
    338    349     1
    338    341     1
    338    342     1
    339    359     1
    339    349     1
    339    341     1
    339    342     1
    340    359     1
    341    358     1
    341    350     1
    341    351     1
    342    358     1
    342    350     1
    342    351     1
    343    359     1
    344    778     1
    344    356     1
    344    357     1
    345    778     1
    345    356     1
    345    357     1
    346    359     1
    347    748     1
    347    353     1
    347    354     1
    348    748     1
    348    353     1
    348    354     1
    352    740     1
    352    741     1
    353    739     1
    354    739     1
    355    770     1
    355    771     1
    356    769     1
    357    769     1
    360    374     1
    360    375     1
    360    377     1
    360    378     1
    360    371     1
    360    372     1
    361    365     1
    361    366     1
    361    368     1
    361    369     1
    361    386     1
    361    387     1
    362    364     1
    362    367     1
    362    389     1
    362    385     1
    362    374     1
    362    375     1
    363    364     1
    363    367     1
    363    389     1
    363    385     1
    363    374     1
    363    375     1
    364    368     1
    364    369     1
    364    383     1
    364    384     1
    365    367     1
    365    389     1
    365    382     1
    365    377     1
    365    378     1
    366    367     1
    366    389     1
    366    382     1
    366    377     1
    366    378     1
    367    380     1
    367    381     1
    368    389     1
    368    379     1
    368    371     1
    368    372     1
    369    389     1
    369    379     1
    369    371     1
    369    372     1
    370    389     1
    371    388     1
    371    380     1
    371    381     1
    372    388     1
    372    380     1
    372    381     1
    373    389     1
    374    838     1
    374    386     1
    374    387     1
    375    838     1
    375    386     1
    375    387     1
    376    389     1
    377    808     1
    377    383     1
    377    384     1
    378    808     1
    378    383     1
    378    384     1
    382    800     1
    382    801     1
    383    799     1
    384    799     1
    385    830     1
    385    831     1
    386    829     1
    387    829     1
    390    404     1
    390    405     1
    390    407     1
    390    408     1
    390    401     1
    390    402     1
    391    395     1
    391    396     1
    391    398     1
    391    399     1
    391    416     1
    391    417     1
    392    394     1
    392    397     1
    392    419     1
    392    415     1
    392    404     1
    392    405     1
    393    394     1
    393    397     1
    393    419     1
    393    415     1
    393    404     1
    393    405     1
    394    398     1
    394    399     1
    394    413     1
    394    414     1
    395    397     1
    395    419     1
    395    412     1
    395    407     1
    395    408     1
    396    397     1
    396    419     1
    396    412     1
    396    407     1
    396    408     1
    397    410     1
    397    411     1
    398    419     1
    398    409     1
    398    401     1
    398    402     1
    399    419     1
    399    409     1
    399    401     1
    399    402     1
    400    419     1
    401    418     1
    401    410     1
    401    411     1
    402    418     1
    402    410     1
    402    411     1
    403    419     1
    404    898     1
    404    416     1
    404    417     1
    405    898     1
    405    416     1
    405    417     1
    406    419     1
    407    868     1
    407    413     1
    407    414     1
    408    868     1
    408    413     1
    408    414     1
    412    860     1
    412    861     1
    413    859     1
    414    859     1
    415    890     1
    415    891     1
    416    889     1
    417    889     1
    420    434     1
    420    435     1
    420    437     1
    420    438     1
    420    431     1
    420    432     1
    421    425     1
    421    426     1
    421    428     1
    421    429     1
    421    446     1
    421    447     1
    422    424     1
    422    427     1
    422    449     1
    422    445     1
    422    434     1
    422    435     1
    423    424     1
    423    427     1
    423    449     1
    423    445     1
    423    434     1
    423    435     1
    424    428     1
    424    429     1
    424    443     1
    424    444     1
    425    427     1
    425    449     1
    425    442     1
    425    437     1
    425    438     1
    426    427     1
    426    449     1
    426    442     1
    426    437     1
    426    438     1
    427    440     1
    427    441     1
    428    449     1
    428    439     1
    428    431     1
    428    432     1
    429    449     1
    429    439     1
    429    431     1
    429    432     1
    430    449     1
    431    448     1
    431    440     1
    431    441     1
    432    448     1
    432    440     1
    432    441     1
    433    449     1
    434    926     1
    434    446     1
    434    447     1
    435    926     1
    435    446     1
    435    447     1
    436    449     1
    437    912     1
    437    443     1
    437    444     1
    438    912     1
    438    443     1
    438    444     1
    442    907     1
    442    908     1
    443    906     1
    444    906     1
    445    921     1
    445    922     1
    446    920     1
    447    920     1
    450    464     1
    450    465     1
    450    467     1
    450    468     1
    450    461     1
    450    462     1
    451    455     1
    451    456     1
    451    458     1
    451    459     1
    451    476     1
    451    477     1
    452    454     1
    452    457     1
    452    479     1
    452    475     1
    452    464     1
    452    465     1
    453    454     1
    453    457     1
    453    479     1
    453    475     1
    453    464     1
    453    465     1
    454    458     1
    454    459     1
    454    473     1
    454    474     1
    455    457     1
    455    479     1
    455    472     1
    455    467     1
    455    468     1
    456    457     1
    456    479     1
    456    472     1
    456    467     1
    456    468     1
    457    470     1
    457    471     1
    458    479     1
    458    469     1
    458    461     1
    458    462     1
    459    479     1
    459    469     1
    459    461     1
    459    462     1
    460    479     1
    461    478     1
    461    470     1
    461    471     1
    462    478     1
    462    470     1
    462    471     1
    463    479     1
    464    954     1
    464    476     1
    464    477     1
    465    954     1
    465    476     1
    465    477     1
    466    479     1
    467    940     1
    467    473     1
    467    474     1
    468    940     1
    468    473     1
    468    474     1
    472    935     1
    472    936     1
    473    934     1
    474    934     1
    475    949     1
    475    950     1
    476    948     1
    477    948     1
    480    494     1
    480    495     1
    480    497     1
    480    498     1
    480    491     1
    480    492     1
    481    485     1
    481    486     1
    481    488     1
    481    489     1
    481    506     1
    481    507     1
    482    484     1
    482    487     1
    482    509     1
    482    505     1
    482    494     1
    482    495     1
    483    484     1
    483    487     1
    483    509     1
    483    505     1
    483    494     1
    483    495     1
    484    488     1
    484    489     1
    484    503     1
    484    504     1
    485    487     1
    485    509     1
    485    502     1
    485    497     1
    485    498     1
    486    487     1
    486    509     1
    486    502     1
    486    497     1
    486    498     1
    487    500     1
    487    501     1
    488    509     1
    488    499     1
    488    491     1
    488    492     1
    489    509     1
    489    499     1
    489    491     1
    489    492     1
    490    509     1
    491    508     1
    491    500     1
    491    501     1
    492    508     1
    492    500     1
    492    501     1
    493    509     1
    494    982     1
    494    506     1
    494    507     1
    495    982     1
    495    506     1
    495    507     1
    496    509     1
    497    968     1
    497    503     1
    497    504     1
    498    968     1
    498    503     1
    498    504     1
    502    963     1
    502    964     1
    503    962     1
    504    962     1
    505    977     1
    505    978     1
    506    976     1
    507    976     1
    510    524     1
    510    525     1
    510    527     1
    510    528     1
    510    521     1
    510    522     1
    511    515     1
    511    516     1
    511    518     1
    511    519     1
    511    536     1
    511    537     1
    512    514     1
    512    517     1
    512    539     1
    512    535     1
    512    524     1
    512    525     1
    513    514     1
    513    517     1
    513    539     1
    513    535     1
    513    524     1
    513    525     1
    514    518     1
    514    519     1
    514    533     1
    514    534     1
    515    517     1
    515    539     1
    515    532     1
    515    527     1
    515    528     1
    516    517     1
    516    539     1
    516    532     1
    516    527     1
    516    528     1
    517    530     1
    517    531     1
    518    539     1
    518    529     1
    518    521     1
    518    522     1
    519    539     1
    519    529     1
    519    521     1
    519    522     1
    520    539     1
    521    538     1
    521    530     1
    521    531     1
    522    538     1
    522    530     1
    522    531     1
    523    539     1
    524   1010     1
    524    536     1
    524    537     1
    525   1010     1
    525    536     1
    525    537     1
    526    539     1
    527    996     1
    527    533     1
    527    534     1
    528    996     1
    528    533     1
    528    534     1
    532    991     1
    532    992     1
    533    990     1
    534    990     1
    535   1005     1
    535   1006     1
    536   1004     1
    537   1004     1
    540    554     1
    540    555     1
    540    557     1
    540    558     1
    540    551     1
    540    552     1
    541    545     1
    541    546     1
    541    548     1
    541    549     1
    541    566     1
    541    567     1
    542    544     1
    542    547     1
    542    569     1
    542    565     1
    542    554     1
    542    555     1
    543    544     1
    543    547     1
    543    569     1
    543    565     1
    543    554     1
    543    555     1
    544    548     1
    544    549     1
    544    563     1
    544    564     1
    545    547     1
    545    569     1
    545    562     1
    545    557     1
    545    558     1
    546    547     1
    546    569     1
    546    562     1
    546    557     1
    546    558     1
    547    560     1
    547    561     1
    548    569     1
    548    559     1
    548    551     1
    548    552     1
    549    569     1
    549    559     1
    549    551     1
    549    552     1
    550    569     1
    551    568     1
    551    560     1
    551    561     1
    552    568     1
    552    560     1
    552    561     1
    553    569     1
    554   1038     1
    554    566     1
    554    567     1
    555   1038     1
    555    566     1
    555    567     1
    556    569     1
    557   1024     1
    557    563     1
    557    564     1
    558   1024     1
    558    563     1
    558    564     1
    562   1019     1
    562   1020     1
    563   1018     1
    564   1018     1
    565   1033     1
    565   1034     1
    566   1032     1
    567   1032     1
    570    584     1
    570    585     1
    570    587     1
    570    588     1
    570    581     1
    570    582     1
    571    575     1
    571    576     1
    571    578     1
    571    579     1
    571    596     1
    571    597     1
    572    574     1
    572    577     1
    572    599     1
    572    595     1
    572    584     1
    572    585     1
    573    574     1
    573    577     1
    573    599     1
    573    595     1
    573    584     1
    573    585     1
    574    578     1
    574    579     1
    574    593     1
    574    594     1
    575    577     1
    575    599     1
    575    592     1
    575    587     1
    575    588     1
    576    577     1
    576    599     1
    576    592     1
    576    587     1
    576    588     1
    577    590     1
    577    591     1
    578    599     1
    578    589     1
    578    581     1
    578    582     1
    579    599     1
    579    589     1
    579    581     1
    579    582     1
    580    599     1
    581    598     1
    581    590     1
    581    591     1
    582    598     1
    582    590     1
    582    591     1
    583    599     1
    584   1066     1
    584    596     1
    584    597     1
    585   1066     1
    585    596     1
    585    597     1
    586    599     1
    587   1052     1
    587    593     1
    587    594     1
    588   1052     1
    588    593     1
    588    594     1
    592   1047     1
    592   1048     1
    593   1046     1
    594   1046     1
    595   1061     1
    595   1062     1
    596   1060     1
    597   1060     1
    600    614     1
    600    615     1
    600    617     1
    600    618     1
    600    611     1
    600    612     1
    601    605     1
    601    606     1
    601    608     1
    601    609     1
    601    626     1
    601    627     1
    602    604     1
    602    607     1
    602    629     1
    602    625     1
    602    614     1
    602    615     1
    603    604     1
    603    607     1
    603    629     1
    603    625     1
    603    614     1
    603    615     1
    604    608     1
    604    609     1
    604    623     1
    604    624     1
    605    607     1
    605    629     1
    605    622     1
    605    617     1
    605    618     1
    606    607     1
    606    629     1
    606    622     1
    606    617     1
    606    618     1
    607    620     1
    607    621     1
    608    629     1
    608    619     1
    608    611     1
    608    612     1
    609    629     1
    609    619     1
    609    611     1
    609    612     1
    610    629     1
    611    628     1
    611    620     1
    611    621     1
    612    628     1
    612    620     1
    612    621     1
    613    629     1
    614   1094     1
    614    626     1
    614    627     1
    615   1094     1
    615    626     1
    615    627     1
    616    629     1
    617   1080     1
    617    623     1
    617    624     1
    618   1080     1
    618    623     1
    618    624     1
    622   1075     1
    622   1076     1
    623   1074     1
    624   1074     1
    625   1089     1
    625   1090     1
    626   1088     1
    627   1088     1
    630    644     1
    630    645     1
    630    647     1
    630    648     1
    630    641     1
    630    642     1
    631    635     1
    631    636     1
    631    638     1
    631    639     1
    631    656     1
    631    657     1
    632    634     1
    632    637     1
    632    659     1
    632    655     1
    632    644     1
    632    645     1
    633    634     1
    633    637     1
    633    659     1
    633    655     1
    633    644     1
    633    645     1
    634    638     1
    634    639     1
    634    653     1
    634    654     1
    635    637     1
    635    659     1
    635    652     1
    635    647     1
    635    648     1
    636    637     1
    636    659     1
    636    652     1
    636    647     1
    636    648     1
    637    650     1
    637    651     1
    638    659     1
    638    649     1
    638    641     1
    638    642     1
    639    659     1
    639    649     1
    639    641     1
    639    642     1
    640    659     1
    641    658     1
    641    650     1
    641    651     1
    642    658     1
    642    650     1
    642    651     1
    643    659     1
    644   1122     1
    644    656     1
    644    657     1
    645   1122     1
    645    656     1
    645    657     1
    646    659     1
    647   1108     1
    647    653     1
    647    654     1
    648   1108     1
    648    653     1
    648    654     1
    652   1103     1
    652   1104     1
    653   1102     1
    654   1102     1
    655   1117     1
    655   1118     1
    656   1116     1
    657   1116     1
    660    674     1
    660    675     1
    660    677     1
    660    678     1
    660    671     1
    660    672     1
    661    665     1
    661    666     1
    661    668     1
    661    669     1
    661    686     1
    661    687     1
    662    664     1
    662    667     1
    662    689     1
    662    685     1
    662    674     1
    662    675     1
    663    664     1
    663    667     1
    663    689     1
    663    685     1
    663    674     1
    663    675     1
    664    668     1
    664    669     1
    664    683     1
    664    684     1
    665    667     1
    665    689     1
    665    682     1
    665    677     1
    665    678     1
    666    667     1
    666    689     1
    666    682     1
    666    677     1
    666    678     1
    667    680     1
    667    681     1
    668    689     1
    668    679     1
    668    671     1
    668    672     1
    669    689     1
    669    679     1
    669    671     1
    669    672     1
    670    689     1
    671    688     1
    671    680     1
    671    681     1
    672    688     1
    672    680     1
    672    681     1
    673    689     1
    674   1150     1
    674    686     1
    674    687     1
    675   1150     1
    675    686     1
    675    687     1
    676    689     1
    677   1136     1
    677    683     1
    677    684     1
    678   1136     1
    678    683     1
    678    684     1
    682   1131     1
    682   1132     1
    683   1130     1
    684   1130     1
    685   1145     1
    685   1146     1
    686   1144     1
    687   1144     1
    690    704     1
    690    705     1
    690    707     1
    690    708     1
    690    701     1
    690    702     1
    691    695     1
    691    696     1
    691    698     1
    691    699     1
    691    716     1
    691    717     1
    692    694     1
    692    697     1
    692    719     1
    692    715     1
    692    704     1
    692    705     1
    693    694     1
    693    697     1
    693    719     1
    693    715     1
    693    704     1
    693    705     1
    694    698     1
    694    699     1
    694    713     1
    694    714     1
    695    697     1
    695    719     1
    695    712     1
    695    707     1
    695    708     1
    696    697     1
    696    719     1
    696    712     1
    696    707     1
    696    708     1
    697    710     1
    697    711     1
    698    719     1
    698    709     1
    698    701     1
    698    702     1
    699    719     1
    699    709     1
    699    701     1
    699    702     1
    700    719     1
    701    718     1
    701    710     1
    701    711     1
    702    718     1
    702    710     1
    702    711     1
    703    719     1
    704   1178     1
    704    716     1
    704    717     1
    705   1178     1
    705    716     1
    705    717     1
    706    719     1
    707   1164     1
    707    713     1
    707    714     1
    708   1164     1
    708    713     1
    708    714     1
    712   1159     1
    712   1160     1
    713   1158     1
    714   1158     1
    715   1173     1
    715   1174     1
    716   1172     1
    717   1172     1
    720    734     1
    720    735     1
    720    737     1
    720    738     1
    720    731     1
    720    732     1
    721    725     1
    721    726     1
    721    728     1
    721    729     1
    721    746     1
    721    747     1
    722    724     1
    722    727     1
    722    749     1
    722    745     1
    722    734     1
    722    735     1
    723    724     1
    723    727     1
    723    749     1
    723    745     1
    723    734     1
    723    735     1
    724    728     1
    724    729     1
    724    743     1
    724    744     1
    725    727     1
    725    749     1
    725    742     1
    725    737     1
    725    738     1
    726    727     1
    726    749     1
    726    742     1
    726    737     1
    726    738     1
    727    740     1
    727    741     1
    728    749     1
    728    739     1
    728    731     1
    728    732     1
    729    749     1
    729    739     1
    729    731     1
    729    732     1
    730    749     1
    731    748     1
    731    740     1
    731    741     1
    732    748     1
    732    740     1
    732    741     1
    733    749     1
    734   1206     1
    734    746     1
    734    747     1
    735   1206     1
    735    746     1
    735    747     1
    736    749     1
    737   1192     1
    737    743     1
    737    744     1
    738   1192     1
    738    743     1
    738    744     1
    742   1187     1
    742   1188     1
    743   1186     1
    744   1186     1
    745   1201     1
    745   1202     1
    746   1200     1
    747   1200     1
    750    764     1
    750    765     1
    750    767     1
    750    768     1
    750    761     1
    750    762     1
    751    755     1
    751    756     1
    751    758     1
    751    759     1
    751    776     1
    751    777     1
    752    754     1
    752    757     1
    752    779     1
    752    775     1
    752    764     1
    752    765     1
    753    754     1
    753    757     1
    753    779     1
    753    775     1
    753    764     1
    753    765     1
    754    758     1
    754    759     1
    754    773     1
    754    774     1
    755    757     1
    755    779     1
    755    772     1
    755    767     1
    755    768     1
    756    757     1
    756    779     1
    756    772     1
    756    767     1
    756    768     1
    757    770     1
    757    771     1
    758    779     1
    758    769     1
    758    761     1
    758    762     1
    759    779     1
    759    769     1
    759    761     1
    759    762     1
    760    779     1
    761    778     1
    761    770     1
    761    771     1
    762    778     1
    762    770     1
    762    771     1
    763    779     1
    764   1234     1
    764    776     1
    764    777     1
    765   1234     1
    765    776     1
    765    777     1
    766    779     1
    767   1220     1
    767    773     1
    767    774     1
    768   1220     1
    768    773     1
    768    774     1
    772   1215     1
    772   1216     1
    773   1214     1
    774   1214     1
    775   1229     1
    775   1230     1
    776   1228     1
    777   1228     1
    780    794     1
    780    795     1
    780    797     1
    780    798     1
    780    791     1
    780    792     1
    781    785     1
    781    786     1
    781    788     1
    781    789     1
    781    806     1
    781    807     1
    782    784     1
    782    787     1
    782    809     1
    782    805     1
    782    794     1
    782    795     1
    783    784     1
    783    787     1
    783    809     1
    783    805     1
    783    794     1
    783    795     1
    784    788     1
    784    789     1
    784    803     1
    784    804     1
    785    787     1
    785    809     1
    785    802     1
    785    797     1
    785    798     1
    786    787     1
    786    809     1
    786    802     1
    786    797     1
    786    798     1
    787    800     1
    787    801     1
    788    809     1
    788    799     1
    788    791     1
    788    792     1
    789    809     1
    789    799     1
    789    791     1
    789    792     1
    790    809     1
    791    808     1
    791    800     1
    791    801     1
    792    808     1
    792    800     1
    792    801     1
    793    809     1
    794   1262     1
    794    806     1
    794    807     1
    795   1262     1
    795    806     1
    795    807     1
    796    809     1
    797   1248     1
    797    803     1
    797    804     1
    798   1248     1
    798    803     1
    798    804     1
    802   1243     1
    802   1244     1
    803   1242     1
    804   1242     1
    805   1257     1
    805   1258     1
    806   1256     1
    807   1256     1
    810    824     1
    810    825     1
    810    827     1
    810    828     1
    810    821     1
    810    822     1
    811    815     1
    811    816     1
    811    818     1
    811    819     1
    811    836     1
    811    837     1
    812    814     1
    812    817     1
    812    839     1
    812    835     1
    812    824     1
    812    825     1
    813    814     1
    813    817     1
    813    839     1
    813    835     1
    813    824     1
    813    825     1
    814    818     1
    814    819     1
    814    833     1
    814    834     1
    815    817     1
    815    839     1
    815    832     1
    815    827     1
    815    828     1
    816    817     1
    816    839     1
    816    832     1
    816    827     1
    816    828     1
    817    830     1
    817    831     1
    818    839     1
    818    829     1
    818    821     1
    818    822     1
    819    839     1
    819    829     1
    819    821     1
    819    822     1
    820    839     1
    821    838     1
    821    830     1
    821    831     1
    822    838     1
    822    830     1
    822    831     1
    823    839     1
    824   1290     1
    824    836     1
    824    837     1
    825   1290     1
    825    836     1
    825    837     1
    826    839     1
    827   1276     1
    827    833     1
    827    834     1
    828   1276     1
    828    833     1
    828    834     1
    832   1271     1
    832   1272     1
    833   1270     1
    834   1270     1
    835   1285     1
    835   1286     1
    836   1284     1
    837   1284     1
    840    854     1
    840    855     1
    840    857     1
    840    858     1
    840    851     1
    840    852     1
    841    845     1
    841    846     1
    841    848     1
    841    849     1
    841    866     1
    841    867     1
    842    844     1
    842    847     1
    842    869     1
    842    865     1
    842    854     1
    842    855     1
    843    844     1
    843    847     1
    843    869     1
    843    865     1
    843    854     1
    843    855     1
    844    848     1
    844    849     1
    844    863     1
    844    864     1
    845    847     1
    845    869     1
    845    862     1
    845    857     1
    845    858     1
    846    847     1
    846    869     1
    846    862     1
    846    857     1
    846    858     1
    847    860     1
    847    861     1
    848    869     1
    848    859     1
    848    851     1
    848    852     1
    849    869     1
    849    859     1
    849    851     1
    849    852     1
    850    869     1
    851    868     1
    851    860     1
    851    861     1
    852    868     1
    852    860     1
    852    861     1
    853    869     1
    854   1318     1
    854    866     1
    854    867     1
    855   1318     1
    855    866     1
    855    867     1
    856    869     1
    857   1304     1
    857    863     1
    857    864     1
    858   1304     1
    858    863     1
    858    864     1
    862   1299     1
    862   1300     1
    863   1298     1
    864   1298     1
    865   1313     1
    865   1314     1
    866   1312     1
    867   1312     1
    870    884     1
    870    885     1
    870    887     1
    870    888     1
    870    881     1
    870    882     1
    871    875     1
    871    876     1
    871    878     1
    871    879     1
    871    896     1
    871    897     1
    872    874     1
    872    877     1
    872    899     1
    872    895     1
    872    884     1
    872    885     1
    873    874     1
    873    877     1
    873    899     1
    873    895     1
    873    884     1
    873    885     1
    874    878     1
    874    879     1
    874    893     1
    874    894     1
    875    877     1
    875    899     1
    875    892     1
    875    887     1
    875    888     1
    876    877     1
    876    899     1
    876    892     1
    876    887     1
    876    888     1
    877    890     1
    877    891     1
    878    899     1
    878    889     1
    878    881     1
    878    882     1
    879    899     1
    879    889     1
    879    881     1
    879    882     1
    880    899     1
    881    898     1
    881    890     1
    881    891     1
    882    898     1
    882    890     1
    882    891     1
    883    899     1
    884   1346     1
    884    896     1
    884    897     1
    885   1346     1
    885    896     1
    885    897     1
    886    899     1
    887   1332     1
    887    893     1
    887    894     1
    888   1332     1
    888    893     1
    888    894     1
    892   1327     1
    892   1328     1
    893   1326     1
    894   1326     1
    895   1341     1
    895   1342     1
    896   1340     1
    897   1340     1
    900    907     1
    900    908     1
    901    906     1
    901    904     1
    901    905     1
    901    910     1
    901    911     1
    901    913     1
    902    906     1
    902    904     1
    902    905     1
    902    910     1
    902    911     1
    902    913     1
    903    910     1
    903    911     1
    903    913     1
    904    909     1
    904    912     1
    904    907     1
    904    908     1
    905    909     1
    905    912     1
    905    907     1
    905    908     1
    914    921     1
    914    922     1
    915    920     1
    915    918     1
    915    919     1
    915    924     1
    915    925     1
    915    927     1
    916    920     1
    916    918     1
    916    919     1
    916    924     1
    916    925     1
    916    927     1
    917    924     1
    917    925     1
    917    927     1
    918    926     1
    918    921     1
    918    922     1
    918    923     1
    919    926     1
    919    921     1
    919    922     1
    919    923     1
    928    935     1
    928    936     1
    929    934     1
    929    932     1
    929    933     1
    929    938     1
    929    939     1
    929    941     1
    930    934     1
    930    932     1
    930    933     1
    930    938     1
    930    939     1
    930    941     1
    931    938     1
    931    939     1
    931    941     1
    932    937     1
    932    940     1
    932    935     1
    932    936     1
    933    937     1
    933    940     1
    933    935     1
    933    936     1
    942    949     1
    942    950     1
    943    948     1
    943    946     1
    943    947     1
    943    952     1
    943    953     1
    943    955     1
    944    948     1
    944    946     1
    944    947     1
    944    952     1
    944    953     1
    944    955     1
    945    952     1
    945    953     1
    945    955     1
    946    954     1
    946    949     1
    946    950     1
    946    951     1
    947    954     1
    947    949     1
    947    950     1
    947    951     1
    956    963     1
    956    964     1
    957    962     1
    957    960     1
    957    961     1
    957    966     1
    957    967     1
    957    969     1
    958    962     1
    958    960     1
    958    961     1
    958    966     1
    958    967     1
    958    969     1
    959    966     1
    959    967     1
    959    969     1
    960    965     1
    960    968     1
    960    963     1
    960    964     1
    961    965     1
    961    968     1
    961    963     1
    961    964     1
    970    977     1
    970    978     1
    971    976     1
    971    974     1
    971    975     1
    971    980     1
    971    981     1
    971    983     1
    972    976     1
    972    974     1
    972    975     1
    972    980     1
    972    981     1
    972    983     1
    973    980     1
    973    981     1
    973    983     1
    974    982     1
    974    977     1
    974    978     1
    974    979     1
    975    982     1
    975    977     1
    975    978     1
    975    979     1
    984    991     1
    984    992     1
    985    990     1
    985    988     1
    985    989     1
    985    994     1
    985    995     1
    985    997     1
    986    990     1
    986    988     1
    986    989     1
    986    994     1
    986    995     1
    986    997     1
    987    994     1
    987    995     1
    987    997     1
    988    993     1
    988    996     1
    988    991     1
    988    992     1
    989    993     1
    989    996     1
    989    991     1
    989    992     1
    998   1005     1
    998   1006     1
    999   1004     1
    999   1002     1
    999   1003     1
    999   1008     1
    999   1009     1
    999   1011     1
   1000   1004     1
   1000   1002     1
   1000   1003     1
   1000   1008     1
   1000   1009     1
   1000   1011     1
   1001   1008     1
   1001   1009     1
   1001   1011     1
   1002   1010     1
   1002   1005     1
   1002   1006     1
   1002   1007     1
   1003   1010     1
   1003   1005     1
   1003   1006     1
   1003   1007     1
   1012   1019     1
   1012   1020     1
   1013   1018     1
   1013   1016     1
   1013   1017     1
   1013   1022     1
   1013   1023     1
   1013   1025     1
   1014   1018     1
   1014   1016     1
   1014   1017     1
   1014   1022     1
   1014   1023     1
   1014   1025     1
   1015   1022     1
   1015   1023     1
   1015   1025     1
   1016   1021     1
   1016   1024     1
   1016   1019     1
   1016   1020     1
   1017   1021     1
   1017   1024     1
   1017   1019     1
   1017   1020     1
   1026   1033     1
   1026   1034     1
   1027   1032     1
   1027   1030     1
   1027   1031     1
   1027   1036     1
   1027   1037     1
   1027   1039     1
   1028   1032     1
   1028   1030     1
   1028   1031     1
   1028   1036     1
   1028   1037     1
   1028   1039     1
   1029   1036     1
   1029   1037     1
   1029   1039     1
   1030   1038     1
   1030   1033     1
   1030   1034     1
   1030   1035     1
   1031   1038     1
   1031   1033     1
   1031   1034     1
   1031   1035     1
   1040   1047     1
   1040   1048     1
   1041   1046     1
   1041   1044     1
   1041   1045     1
   1041   1050     1
   1041   1051     1
   1041   1053     1
   1042   1046     1
   1042   1044     1
   1042   1045     1
   1042   1050     1
   1042   1051     1
   1042   1053     1
   1043   1050     1
   1043   1051     1
   1043   1053     1
   1044   1049     1
   1044   1052     1
   1044   1047     1
   1044   1048     1
   1045   1049     1
   1045   1052     1
   1045   1047     1
   1045   1048     1
   1054   1061     1
   1054   1062     1
   1055   1060     1
   1055   1058     1
   1055   1059     1
   1055   1064     1
   1055   1065     1
   1055   1067     1
   1056   1060     1
   1056   1058     1
   1056   1059     1
   1056   1064     1
   1056   1065     1
   1056   1067     1
   1057   1064     1
   1057   1065     1
   1057   1067     1
   1058   1066     1
   1058   1061     1
   1058   1062     1
   1058   1063     1
   1059   1066     1
   1059   1061     1
   1059   1062     1
   1059   1063     1
   1068   1075     1
   1068   1076     1
   1069   1074     1
   1069   1072     1
   1069   1073     1
   1069   1078     1
   1069   1079     1
   1069   1081     1
   1070   1074     1
   1070   1072     1
   1070   1073     1
   1070   1078     1
   1070   1079     1
   1070   1081     1
   1071   1078     1
   1071   1079     1
   1071   1081     1
   1072   1077     1
   1072   1080     1
   1072   1075     1
   1072   1076     1
   1073   1077     1
   1073   1080     1
   1073   1075     1
   1073   1076     1
   1082   1089     1
   1082   1090     1
   1083   1088     1
   1083   1086     1
   1083   1087     1
   1083   1092     1
   1083   1093     1
   1083   1095     1
   1084   1088     1
   1084   1086     1
   1084   1087     1
   1084   1092     1
   1084   1093     1
   1084   1095     1
   1085   1092     1
   1085   1093     1
   1085   1095     1
   1086   1094     1
   1086   1089     1
   1086   1090     1
   1086   1091     1
   1087   1094     1
   1087   1089     1
   1087   1090     1
   1087   1091     1
   1096   1103     1
   1096   1104     1
   1097   1102     1
   1097   1100     1
   1097   1101     1
   1097   1106     1
   1097   1107     1
   1097   1109     1
   1098   1102     1
   1098   1100     1
   1098   1101     1
   1098   1106     1
   1098   1107     1
   1098   1109     1
   1099   1106     1
   1099   1107     1
   1099   1109     1
   1100   1105     1
   1100   1108     1
   1100   1103     1
   1100   1104     1
   1101   1105     1
   1101   1108     1
   1101   1103     1
   1101   1104     1
   1110   1117     1
   1110   1118     1
   1111   1116     1
   1111   1114     1
   1111   1115     1
   1111   1120     1
   1111   1121     1
   1111   1123     1
   1112   1116     1
   1112   1114     1
   1112   1115     1
   1112   1120     1
   1112   1121     1
   1112   1123     1
   1113   1120     1
   1113   1121     1
   1113   1123     1
   1114   1122     1
   1114   1117     1
   1114   1118     1
   1114   1119     1
   1115   1122     1
   1115   1117     1
   1115   1118     1
   1115   1119     1
   1124   1131     1
   1124   1132     1
   1125   1130     1
   1125   1128     1
   1125   1129     1
   1125   1134     1
   1125   1135     1
   1125   1137     1
   1126   1130     1
   1126   1128     1
   1126   1129     1
   1126   1134     1
   1126   1135     1
   1126   1137     1
   1127   1134     1
   1127   1135     1
   1127   1137     1
   1128   1133     1
   1128   1136     1
   1128   1131     1
   1128   1132     1
   1129   1133     1
   1129   1136     1
   1129   1131     1
   1129   1132     1
   1138   1145     1
   1138   1146     1
   1139   1144     1
   1139   1142     1
   1139   1143     1
   1139   1148     1
   1139   1149     1
   1139   1151     1
   1140   1144     1
   1140   1142     1
   1140   1143     1
   1140   1148     1
   1140   1149     1
   1140   1151     1
   1141   1148     1
   1141   1149     1
   1141   1151     1
   1142   1150     1
   1142   1145     1
   1142   1146     1
   1142   1147     1
   1143   1150     1
   1143   1145     1
   1143   1146     1
   1143   1147     1
   1152   1159     1
   1152   1160     1
   1153   1158     1
   1153   1156     1
   1153   1157     1
   1153   1162     1
   1153   1163     1
   1153   1165     1
   1154   1158     1
   1154   1156     1
   1154   1157     1
   1154   1162     1
   1154   1163     1
   1154   1165     1
   1155   1162     1
   1155   1163     1
   1155   1165     1
   1156   1161     1
   1156   1164     1
   1156   1159     1
   1156   1160     1
   1157   1161     1
   1157   1164     1
   1157   1159     1
   1157   1160     1
   1166   1173     1
   1166   1174     1
   1167   1172     1
   1167   1170     1
   1167   1171     1
   1167   1176     1
   1167   1177     1
   1167   1179     1
   1168   1172     1
   1168   1170     1
   1168   1171     1
   1168   1176     1
   1168   1177     1
   1168   1179     1
   1169   1176     1
   1169   1177     1
   1169   1179     1
   1170   1178     1
   1170   1173     1
   1170   1174     1
   1170   1175     1
   1171   1178     1
   1171   1173     1
   1171   1174     1
   1171   1175     1
   1180   1187     1
   1180   1188     1
   1181   1186     1
   1181   1184     1
   1181   1185     1
   1181   1190     1
   1181   1191     1
   1181   1193     1
   1182   1186     1
   1182   1184     1
   1182   1185     1
   1182   1190     1
   1182   1191     1
   1182   1193     1
   1183   1190     1
   1183   1191     1
   1183   1193     1
   1184   1189     1
   1184   1192     1
   1184   1187     1
   1184   1188     1
   1185   1189     1
   1185   1192     1
   1185   1187     1
   1185   1188     1
   1194   1201     1
   1194   1202     1
   1195   1200     1
   1195   1198     1
   1195   1199     1
   1195   1204     1
   1195   1205     1
   1195   1207     1
   1196   1200     1
   1196   1198     1
   1196   1199     1
   1196   1204     1
   1196   1205     1
   1196   1207     1
   1197   1204     1
   1197   1205     1
   1197   1207     1
   1198   1206     1
   1198   1201     1
   1198   1202     1
   1198   1203     1
   1199   1206     1
   1199   1201     1
   1199   1202     1
   1199   1203     1
   1208   1215     1
   1208   1216     1
   1209   1214     1
   1209   1212     1
   1209   1213     1
   1209   1218     1
   1209   1219     1
   1209   1221     1
   1210   1214     1
   1210   1212     1
   1210   1213     1
   1210   1218     1
   1210   1219     1
   1210   1221     1
   1211   1218     1
   1211   1219     1
   1211   1221     1
   1212   1217     1
   1212   1220     1
   1212   1215     1
   1212   1216     1
   1213   1217     1
   1213   1220     1
   1213   1215     1
   1213   1216     1
   1222   1229     1
   1222   1230     1
   1223   1228     1
   1223   1226     1
   1223   1227     1
   1223   1232     1
   1223   1233     1
   1223   1235     1
   1224   1228     1
   1224   1226     1
   1224   1227     1
   1224   1232     1
   1224   1233     1
   1224   1235     1
   1225   1232     1
   1225   1233     1
   1225   1235     1
   1226   1234     1
   1226   1229     1
   1226   1230     1
   1226   1231     1
   1227   1234     1
   1227   1229     1
   1227   1230     1
   1227   1231     1
   1236   1243     1
   1236   1244     1
   1237   1242     1
   1237   1240     1
   1237   1241     1
   1237   1246     1
   1237   1247     1
   1237   1249     1
   1238   1242     1
   1238   1240     1
   1238   1241     1
   1238   1246     1
   1238   1247     1
   1238   1249     1
   1239   1246     1
   1239   1247     1
   1239   1249     1
   1240   1245     1
   1240   1248     1
   1240   1243     1
   1240   1244     1
   1241   1245     1
   1241   1248     1
   1241   1243     1
   1241   1244     1
   1250   1257     1
   1250   1258     1
   1251   1256     1
   1251   1254     1
   1251   1255     1
   1251   1260     1
   1251   1261     1
   1251   1263     1
   1252   1256     1
   1252   1254     1
   1252   1255     1
   1252   1260     1
   1252   1261     1
   1252   1263     1
   1253   1260     1
   1253   1261     1
   1253   1263     1
   1254   1262     1
   1254   1257     1
   1254   1258     1
   1254   1259     1
   1255   1262     1
   1255   1257     1
   1255   1258     1
   1255   1259     1
   1264   1271     1
   1264   1272     1
   1265   1270     1
   1265   1268     1
   1265   1269     1
   1265   1274     1
   1265   1275     1
   1265   1277     1
   1266   1270     1
   1266   1268     1
   1266   1269     1
   1266   1274     1
   1266   1275     1
   1266   1277     1
   1267   1274     1
   1267   1275     1
   1267   1277     1
   1268   1273     1
   1268   1276     1
   1268   1271     1
   1268   1272     1
   1269   1273     1
   1269   1276     1
   1269   1271     1
   1269   1272     1
   1278   1285     1
   1278   1286     1
   1279   1284     1
   1279   1282     1
   1279   1283     1
   1279   1288     1
   1279   1289     1
   1279   1291     1
   1280   1284     1
   1280   1282     1
   1280   1283     1
   1280   1288     1
   1280   1289     1
   1280   1291     1
   1281   1288     1
   1281   1289     1
   1281   1291     1
   1282   1290     1
   1282   1285     1
   1282   1286     1
   1282   1287     1
   1283   1290     1
   1283   1285     1
   1283   1286     1
   1283   1287     1
   1292   1299     1
   1292   1300     1
   1293   1298     1
   1293   1296     1
   1293   1297     1
   1293   1302     1
   1293   1303     1
   1293   1305     1
   1294   1298     1
   1294   1296     1
   1294   1297     1
   1294   1302     1
   1294   1303     1
   1294   1305     1
   1295   1302     1
   1295   1303     1
   1295   1305     1
   1296   1301     1
   1296   1304     1
   1296   1299     1
   1296   1300     1
   1297   1301     1
   1297   1304     1
   1297   1299     1
   1297   1300     1
   1306   1313     1
   1306   1314     1
   1307   1312     1
   1307   1310     1
   1307   1311     1
   1307   1316     1
   1307   1317     1
   1307   1319     1
   1308   1312     1
   1308   1310     1
   1308   1311     1
   1308   1316     1
   1308   1317     1
   1308   1319     1
   1309   1316     1
   1309   1317     1
   1309   1319     1
   1310   1318     1
   1310   1313     1
   1310   1314     1
   1310   1315     1
   1311   1318     1
   1311   1313     1
   1311   1314     1
   1311   1315     1
   1320   1327     1
   1320   1328     1
   1321   1326     1
   1321   1324     1
   1321   1325     1
   1321   1330     1
   1321   1331     1
   1321   1333     1
   1322   1326     1
   1322   1324     1
   1322   1325     1
   1322   1330     1
   1322   1331     1
   1322   1333     1
   1323   1330     1
   1323   1331     1
   1323   1333     1
   1324   1329     1
   1324   1332     1
   1324   1327     1
   1324   1328     1
   1325   1329     1
   1325   1332     1
   1325   1327     1
   1325   1328     1
   1334   1341     1
   1334   1342     1
   1335   1340     1
   1335   1338     1
   1335   1339     1
   1335   1344     1
   1335   1345     1
   1335   1347     1
   1336   1340     1
   1336   1338     1
   1336   1339     1
   1336   1344     1
   1336   1345     1
   1336   1347     1
   1337   1344     1
   1337   1345     1
   1337   1347     1
   1338   1346     1
   1338   1341     1
   1338   1342     1
   1338   1343     1
   1339   1346     1
   1339   1341     1
   1339   1342     1
   1339   1343     1

[ angles ]
;    ai     aj     ak funct         c0         c1         c2         c3
      1      2      8     1   107.9700462 569.024000
      1      5     11     1   107.9700462 569.024000
      2      1      5     1   112.4800480 524.673600
      2      8     14     1   111.5100476 526.347200
      5     11     17     1   111.5100476 526.347200
      8     14     20     1   114.2100488 537.225600
     11     17     21     1   114.2100488 537.225600
     14     20     28     1   109.6600471 523.836800
     14     20     31     1   109.6600471 523.836800
     17     21     22     1   109.6600471 523.836800
     17     21     25     1   109.6600471 523.836800
     20     28     40     1   114.2100488 537.225600
     20     31     43     1   114.2100488 537.225600
     21     22     34     1   114.2100488 537.225600
     21     25     37     1   114.2100488 537.225600
     22     21     25     1   109.6600471 523.836800
     22     34     55     1   111.5100476 526.347200
     25     37     52     1   111.5100476 526.347200
     28     20     31     1   109.6600471 523.836800
     28     40     49     1   111.5100476 526.347200
     31     43     46     1   111.5100476 526.347200
     34     55    178     1   107.9700462 569.024000
     37     52    148     1   107.9700462 569.024000
     40     49    118     1   107.9700462 569.024000
     43     46     88     1   107.9700462 569.024000
     46     88     79     1   112.4800480 524.673600
     49    118    109     1   112.4800480 524.673600
     52    148    139     1   112.4800480 524.673600
     55    178    169     1   112.4800480 524.673600
     60     61     73     1   114.2100488 537.225600
     60     64     76     1   114.2100488 537.225600
     60     67     70     1   114.2100488 537.225600
     61     60     64     1   109.6600471 523.836800
     61     60     67     1   109.6600471 523.836800
     61     73     85     1   111.5100476 526.347200
     64     60     67     1   109.6600471 523.836800
     64     76     82     1   111.5100476 526.347200
     67     70     79     1   111.5100476 526.347200
     70     79     88     1   107.9700462 569.024000
     73     85    238     1   107.9700462 569.024000
     76     82    208     1   107.9700462 569.024000
     82    208    199     1   112.4800480 524.673600
     85    238    229     1   112.4800480 524.673600
     90     91    103     1   114.2100488 537.225600
     90     94    106     1   114.2100488 537.225600
     90     97    100     1   114.2100488 537.225600
     91     90     94     1   109.6600471 523.836800
     91     90     97     1   109.6600471 523.836800
     91    103    115     1   111.5100476 526.347200
     94     90     97     1   109.6600471 523.836800
     94    106    112     1   111.5100476 526.347200
     97    100    109     1   111.5100476 526.347200
    100    109    118     1   107.9700462 569.024000
    103    115    298     1   107.9700462 569.024000
    106    112    268     1   107.9700462 569.024000
    112    268    259     1   112.4800480 524.673600
    115    298    289     1   112.4800480 524.673600
    120    121    133     1   114.2100488 537.225600
    120    124    136     1   114.2100488 537.225600
    120    127    130     1   114.2100488 537.225600
    121    120    124     1   109.6600471 523.836800
    121    120    127     1   109.6600471 523.836800
    121    133    145     1   111.5100476 526.347200
    124    120    127     1   109.6600471 523.836800
    124    136    142     1   111.5100476 526.347200
    127    130    139     1   111.5100476 526.347200
    130    139    148     1   107.9700462 569.024000
    133    145    358     1   107.9700462 569.024000
    136    142    328     1   107.9700462 569.024000
    142    328    319     1   112.4800480 524.673600
    145    358    349     1   112.4800480 524.673600
    150    151    163     1   114.2100488 537.225600
    150    154    166     1   114.2100488 537.225600
    150    157    160     1   114.2100488 537.225600
    151    150    154     1   109.6600471 523.836800
    151    150    157     1   109.6600471 523.836800
    151    163    175     1   111.5100476 526.347200
    154    150    157     1   109.6600471 523.836800
    154    166    172     1   111.5100476 526.347200
    157    160    169     1   111.5100476 526.347200
    160    169    178     1   107.9700462 569.024000
    163    175    418     1   107.9700462 569.024000
    166    172    388     1   107.9700462 569.024000
    172    388    379     1   112.4800480 524.673600
    175    418    409     1   112.4800480 524.673600
    180    181    193     1   114.2100488 537.225600
    180    184    196     1   114.2100488 537.225600
    180    187    190     1   114.2100488 537.225600
    181    180    184     1   109.6600471 523.836800
    181    180    187     1   109.6600471 523.836800
    181    193    205     1   111.5100476 526.347200
    184    180    187     1   109.6600471 523.836800
    184    196    202     1   111.5100476 526.347200
    187    190    199     1   111.5100476 526.347200
    190    199    208     1   107.9700462 569.024000
    193    205    478     1   107.9700462 569.024000
    196    202    448     1   107.9700462 569.024000
    202    448    439     1   112.4800480 524.673600
    205    478    469     1   112.4800480 524.673600
    210    211    223     1   114.2100488 537.225600
    210    214    226     1   114.2100488 537.225600
    210    217    220     1   114.2100488 537.225600
    211    210    214     1   109.6600471 523.836800
    211    210    217     1   109.6600471 523.836800
    211    223    235     1   111.5100476 526.347200
    214    210    217     1   109.6600471 523.836800
    214    226    232     1   111.5100476 526.347200
    217    220    229     1   111.5100476 526.347200
    220    229    238     1   107.9700462 569.024000
    223    235    538     1   107.9700462 569.024000
    226    232    508     1   107.9700462 569.024000
    232    508    499     1   112.4800480 524.673600
    235    538    529     1   112.4800480 524.673600
    240    241    253     1   114.2100488 537.225600
    240    244    256     1   114.2100488 537.225600
    240    247    250     1   114.2100488 537.225600
    241    240    244     1   109.6600471 523.836800
    241    240    247     1   109.6600471 523.836800
    241    253    265     1   111.5100476 526.347200
    244    240    247     1   109.6600471 523.836800
    244    256    262     1   111.5100476 526.347200
    247    250    259     1   111.5100476 526.347200
    250    259    268     1   107.9700462 569.024000
    253    265    598     1   107.9700462 569.024000
    256    262    568     1   107.9700462 569.024000
    262    568    559     1   112.4800480 524.673600
    265    598    589     1   112.4800480 524.673600
    270    271    283     1   114.2100488 537.225600
    270    274    286     1   114.2100488 537.225600
    270    277    280     1   114.2100488 537.225600
    271    270    274     1   109.6600471 523.836800
    271    270    277     1   109.6600471 523.836800
    271    283    295     1   111.5100476 526.347200
    274    270    277     1   109.6600471 523.836800
    274    286    292     1   111.5100476 526.347200
    277    280    289     1   111.5100476 526.347200
    280    289    298     1   107.9700462 569.024000
    283    295    658     1   107.9700462 569.024000
    286    292    628     1   107.9700462 569.024000
    292    628    619     1   112.4800480 524.673600
    295    658    649     1   112.4800480 524.673600
    300    301    313     1   114.2100488 537.225600
    300    304    316     1   114.2100488 537.225600
    300    307    310     1   114.2100488 537.225600
    301    300    304     1   109.6600471 523.836800
    301    300    307     1   109.6600471 523.836800
    301    313    325     1   111.5100476 526.347200
    304    300    307     1   109.6600471 523.836800
    304    316    322     1   111.5100476 526.347200
    307    310    319     1   111.5100476 526.347200
    310    319    328     1   107.9700462 569.024000
    313    325    718     1   107.9700462 569.024000
    316    322    688     1   107.9700462 569.024000
    322    688    679     1   112.4800480 524.673600
    325    718    709     1   112.4800480 524.673600
    330    331    343     1   114.2100488 537.225600
    330    334    346     1   114.2100488 537.225600
    330    337    340     1   114.2100488 537.225600
    331    330    334     1   109.6600471 523.836800
    331    330    337     1   109.6600471 523.836800
    331    343    355     1   111.5100476 526.347200
    334    330    337     1   109.6600471 523.836800
    334    346    352     1   111.5100476 526.347200
    337    340    349     1   111.5100476 526.347200
    340    349    358     1   107.9700462 569.024000
    343    355    778     1   107.9700462 569.024000
    346    352    748     1   107.9700462 569.024000
    352    748    739     1   112.4800480 524.673600
    355    778    769     1   112.4800480 524.673600
    360    361    373     1   114.2100488 537.225600
    360    364    376     1   114.2100488 537.225600
    360    367    370     1   114.2100488 537.225600
    361    360    364     1   109.6600471 523.836800
    361    360    367     1   109.6600471 523.836800
    361    373    385     1   111.5100476 526.347200
    364    360    367     1   109.6600471 523.836800
    364    376    382     1   111.5100476 526.347200
    367    370    379     1   111.5100476 526.347200
    370    379    388     1   107.9700462 569.024000
    373    385    838     1   107.9700462 569.024000
    376    382    808     1   107.9700462 569.024000
    382    808    799     1   112.4800480 524.673600
    385    838    829     1   112.4800480 524.673600
    390    391    403     1   114.2100488 537.225600
    390    394    406     1   114.2100488 537.225600
    390    397    400     1   114.2100488 537.225600
    391    390    394     1   109.6600471 523.836800
    391    390    397     1   109.6600471 523.836800
    391    403    415     1   111.5100476 526.347200
    394    390    397     1   109.6600471 523.836800
    394    406    412     1   111.5100476 526.347200
    397    400    409     1   111.5100476 526.347200
    400    409    418     1   107.9700462 569.024000
    403    415    898     1   107.9700462 569.024000
    406    412    868     1   107.9700462 569.024000
    412    868    859     1   112.4800480 524.673600
    415    898    889     1   112.4800480 524.673600
    420    421    433     1   114.2100488 537.225600
    420    424    436     1   114.2100488 537.225600
    420    427    430     1   114.2100488 537.225600
    421    420    424     1   109.6600471 523.836800
    421    420    427     1   109.6600471 523.836800
    421    433    445     1   111.5100476 526.347200
    424    420    427     1   109.6600471 523.836800
    424    436    442     1   111.5100476 526.347200
    427    430    439     1   111.5100476 526.347200
    430    439    448     1   107.9700462 569.024000
    433    445    926     1   107.9700462 569.024000
    436    442    912     1   107.9700462 569.024000
    442    912    906     1   112.4800480 524.673600
    445    926    920     1   112.4800480 524.673600
    450    451    463     1   114.2100488 537.225600
    450    454    466     1   114.2100488 537.225600
    450    457    460     1   114.2100488 537.225600
    451    450    454     1   109.6600471 523.836800
    451    450    457     1   109.6600471 523.836800
    451    463    475     1   111.5100476 526.347200
    454    450    457     1   109.6600471 523.836800
    454    466    472     1   111.5100476 526.347200
    457    460    469     1   111.5100476 526.347200
    460    469    478     1   107.9700462 569.024000
    463    475    954     1   107.9700462 569.024000
    466    472    940     1   107.9700462 569.024000
    472    940    934     1   112.4800480 524.673600
    475    954    948     1   112.4800480 524.673600
    480    481    493     1   114.2100488 537.225600
    480    484    496     1   114.2100488 537.225600
    480    487    490     1   114.2100488 537.225600
    481    480    484     1   109.6600471 523.836800
    481    480    487     1   109.6600471 523.836800
    481    493    505     1   111.5100476 526.347200
    484    480    487     1   109.6600471 523.836800
    484    496    502     1   111.5100476 526.347200
    487    490    499     1   111.5100476 526.347200
    490    499    508     1   107.9700462 569.024000
    493    505    982     1   107.9700462 569.024000
    496    502    968     1   107.9700462 569.024000
    502    968    962     1   112.4800480 524.673600
    505    982    976     1   112.4800480 524.673600
    510    511    523     1   114.2100488 537.225600
    510    514    526     1   114.2100488 537.225600
    510    517    520     1   114.2100488 537.225600
    511    510    514     1   109.6600471 523.836800
    511    510    517     1   109.6600471 523.836800
    511    523    535     1   111.5100476 526.347200
    514    510    517     1   109.6600471 523.836800
    514    526    532     1   111.5100476 526.347200
    517    520    529     1   111.5100476 526.347200
    520    529    538     1   107.9700462 569.024000
    523    535   1010     1   107.9700462 569.024000
    526    532    996     1   107.9700462 569.024000
    532    996    990     1   112.4800480 524.673600
    535   1010   1004     1   112.4800480 524.673600
    540    541    553     1   114.2100488 537.225600
    540    544    556     1   114.2100488 537.225600
    540    547    550     1   114.2100488 537.225600
    541    540    544     1   109.6600471 523.836800
    541    540    547     1   109.6600471 523.836800
    541    553    565     1   111.5100476 526.347200
    544    540    547     1   109.6600471 523.836800
    544    556    562     1   111.5100476 526.347200
    547    550    559     1   111.5100476 526.347200
    550    559    568     1   107.9700462 569.024000
    553    565   1038     1   107.9700462 569.024000
    556    562   1024     1   107.9700462 569.024000
    562   1024   1018     1   112.4800480 524.673600
    565   1038   1032     1   112.4800480 524.673600
    570    571    583     1   114.2100488 537.225600
    570    574    586     1   114.2100488 537.225600
    570    577    580     1   114.2100488 537.225600
    571    570    574     1   109.6600471 523.836800
    571    570    577     1   109.6600471 523.836800
    571    583    595     1   111.5100476 526.347200
    574    570    577     1   109.6600471 523.836800
    574    586    592     1   111.5100476 526.347200
    577    580    589     1   111.5100476 526.347200
    580    589    598     1   107.9700462 569.024000
    583    595   1066     1   107.9700462 569.024000
    586    592   1052     1   107.9700462 569.024000
    592   1052   1046     1   112.4800480 524.673600
    595   1066   1060     1   112.4800480 524.673600
    600    601    613     1   114.2100488 537.225600
    600    604    616     1   114.2100488 537.225600
    600    607    610     1   114.2100488 537.225600
    601    600    604     1   109.6600471 523.836800
    601    600    607     1   109.6600471 523.836800
    601    613    625     1   111.5100476 526.347200
    604    600    607     1   109.6600471 523.836800
    604    616    622     1   111.5100476 526.347200
    607    610    619     1   111.5100476 526.347200
    610    619    628     1   107.9700462 569.024000
    613    625   1094     1   107.9700462 569.024000
    616    622   1080     1   107.9700462 569.024000
    622   1080   1074     1   112.4800480 524.673600
    625   1094   1088     1   112.4800480 524.673600
    630    631    643     1   114.2100488 537.225600
    630    634    646     1   114.2100488 537.225600
    630    637    640     1   114.2100488 537.225600
    631    630    634     1   109.6600471 523.836800
    631    630    637     1   109.6600471 523.836800
    631    643    655     1   111.5100476 526.347200
    634    630    637     1   109.6600471 523.836800
    634    646    652     1   111.5100476 526.347200
    637    640    649     1   111.5100476 526.347200
    640    649    658     1   107.9700462 569.024000
    643    655   1122     1   107.9700462 569.024000
    646    652   1108     1   107.9700462 569.024000
    652   1108   1102     1   112.4800480 524.673600
    655   1122   1116     1   112.4800480 524.673600
    660    661    673     1   114.2100488 537.225600
    660    664    676     1   114.2100488 537.225600
    660    667    670     1   114.2100488 537.225600
    661    660    664     1   109.6600471 523.836800
    661    660    667     1   109.6600471 523.836800
    661    673    685     1   111.5100476 526.347200
    664    660    667     1   109.6600471 523.836800
    664    676    682     1   111.5100476 526.347200
    667    670    679     1   111.5100476 526.347200
    670    679    688     1   107.9700462 569.024000
    673    685   1150     1   107.9700462 569.024000
    676    682   1136     1   107.9700462 569.024000
    682   1136   1130     1   112.4800480 524.673600
    685   1150   1144     1   112.4800480 524.673600
    690    691    703     1   114.2100488 537.225600
    690    694    706     1   114.2100488 537.225600
    690    697    700     1   114.2100488 537.225600
    691    690    694     1   109.6600471 523.836800
    691    690    697     1   109.6600471 523.836800
    691    703    715     1   111.5100476 526.347200
    694    690    697     1   109.6600471 523.836800
    694    706    712     1   111.5100476 526.347200
    697    700    709     1   111.5100476 526.347200
    700    709    718     1   107.9700462 569.024000
    703    715   1178     1   107.9700462 569.024000
    706    712   1164     1   107.9700462 569.024000
    712   1164   1158     1   112.4800480 524.673600
    715   1178   1172     1   112.4800480 524.673600
    720    721    733     1   114.2100488 537.225600
    720    724    736     1   114.2100488 537.225600
    720    727    730     1   114.2100488 537.225600
    721    720    724     1   109.6600471 523.836800
    721    720    727     1   109.6600471 523.836800
    721    733    745     1   111.5100476 526.347200
    724    720    727     1   109.6600471 523.836800
    724    736    742     1   111.5100476 526.347200
    727    730    739     1   111.5100476 526.347200
    730    739    748     1   107.9700462 569.024000
    733    745   1206     1   107.9700462 569.024000
    736    742   1192     1   107.9700462 569.024000
    742   1192   1186     1   112.4800480 524.673600
    745   1206   1200     1   112.4800480 524.673600
    750    751    763     1   114.2100488 537.225600
    750    754    766     1   114.2100488 537.225600
    750    757    760     1   114.2100488 537.225600
    751    750    754     1   109.6600471 523.836800
    751    750    757     1   109.6600471 523.836800
    751    763    775     1   111.5100476 526.347200
    754    750    757     1   109.6600471 523.836800
    754    766    772     1   111.5100476 526.347200
    757    760    769     1   111.5100476 526.347200
    760    769    778     1   107.9700462 569.024000
    763    775   1234     1   107.9700462 569.024000
    766    772   1220     1   107.9700462 569.024000
    772   1220   1214     1   112.4800480 524.673600
    775   1234   1228     1   112.4800480 524.673600
    780    781    793     1   114.2100488 537.225600
    780    784    796     1   114.2100488 537.225600
    780    787    790     1   114.2100488 537.225600
    781    780    784     1   109.6600471 523.836800
    781    780    787     1   109.6600471 523.836800
    781    793    805     1   111.5100476 526.347200
    784    780    787     1   109.6600471 523.836800
    784    796    802     1   111.5100476 526.347200
    787    790    799     1   111.5100476 526.347200
    790    799    808     1   107.9700462 569.024000
    793    805   1262     1   107.9700462 569.024000
    796    802   1248     1   107.9700462 569.024000
    802   1248   1242     1   112.4800480 524.673600
    805   1262   1256     1   112.4800480 524.673600
    810    811    823     1   114.2100488 537.225600
    810    814    826     1   114.2100488 537.225600
    810    817    820     1   114.2100488 537.225600
    811    810    814     1   109.6600471 523.836800
    811    810    817     1   109.6600471 523.836800
    811    823    835     1   111.5100476 526.347200
    814    810    817     1   109.6600471 523.836800
    814    826    832     1   111.5100476 526.347200
    817    820    829     1   111.5100476 526.347200
    820    829    838     1   107.9700462 569.024000
    823    835   1290     1   107.9700462 569.024000
    826    832   1276     1   107.9700462 569.024000
    832   1276   1270     1   112.4800480 524.673600
    835   1290   1284     1   112.4800480 524.673600
    840    841    853     1   114.2100488 537.225600
    840    844    856     1   114.2100488 537.225600
    840    847    850     1   114.2100488 537.225600
    841    840    844     1   109.6600471 523.836800
    841    840    847     1   109.6600471 523.836800
    841    853    865     1   111.5100476 526.347200
    844    840    847     1   109.6600471 523.836800
    844    856    862     1   111.5100476 526.347200
    847    850    859     1   111.5100476 526.347200
    850    859    868     1   107.9700462 569.024000
    853    865   1318     1   107.9700462 569.024000
    856    862   1304     1   107.9700462 569.024000
    862   1304   1298     1   112.4800480 524.673600
    865   1318   1312     1   112.4800480 524.673600
    870    871    883     1   114.2100488 537.225600
    870    874    886     1   114.2100488 537.225600
    870    877    880     1   114.2100488 537.225600
    871    870    874     1   109.6600471 523.836800
    871    870    877     1   109.6600471 523.836800
    871    883    895     1   111.5100476 526.347200
    874    870    877     1   109.6600471 523.836800
    874    886    892     1   111.5100476 526.347200
    877    880    889     1   111.5100476 526.347200
    880    889    898     1   107.9700462 569.024000
    883    895   1346     1   107.9700462 569.024000
    886    892   1332     1   107.9700462 569.024000
    892   1332   1326     1   112.4800480 524.673600
    895   1346   1340     1   112.4800480 524.673600
    900    903    906     1   111.5100476 526.347200
    903    900    909     1   114.2100488 537.225600
    903    906    912     1   107.9700462 569.024000
    914    917    920     1   111.5100476 526.347200
    917    920    926     1   107.9700462 569.024000
    917    914    923     1   114.2100488 537.225600
    928    931    934     1   111.5100476 526.347200
    931    928    937     1   114.2100488 537.225600
    931    934    940     1   107.9700462 569.024000
    942    945    948     1   111.5100476 526.347200
    945    948    954     1   107.9700462 569.024000
    945    942    951     1   114.2100488 537.225600
    956    959    962     1   111.5100476 526.347200
    959    956    965     1   114.2100488 537.225600
    959    962    968     1   107.9700462 569.024000
    970    973    976     1   111.5100476 526.347200
    973    976    982     1   107.9700462 569.024000
    973    970    979     1   114.2100488 537.225600
    984    987    990     1   111.5100476 526.347200
    987    984    993     1   114.2100488 537.225600
    987    990    996     1   107.9700462 569.024000
    998   1001   1004     1   111.5100476 526.347200
   1001   1004   1010     1   107.9700462 569.024000
   1001    998   1007     1   114.2100488 537.225600
   1012   1015   1018     1   111.5100476 526.347200
   1015   1012   1021     1   114.2100488 537.225600
   1015   1018   1024     1   107.9700462 569.024000
   1026   1029   1032     1   111.5100476 526.347200
   1029   1032   1038     1   107.9700462 569.024000
   1029   1026   1035     1   114.2100488 537.225600
   1040   1043   1046     1   111.5100476 526.347200
   1043   1040   1049     1   114.2100488 537.225600
   1043   1046   1052     1   107.9700462 569.024000
   1054   1057   1060     1   111.5100476 526.347200
   1057   1060   1066     1   107.9700462 569.024000
   1057   1054   1063     1   114.2100488 537.225600
   1068   1071   1074     1   111.5100476 526.347200
   1071   1068   1077     1   114.2100488 537.225600
   1071   1074   1080     1   107.9700462 569.024000
   1082   1085   1088     1   111.5100476 526.347200
   1085   1088   1094     1   107.9700462 569.024000
   1085   1082   1091     1   114.2100488 537.225600
   1096   1099   1102     1   111.5100476 526.347200
   1099   1096   1105     1   114.2100488 537.225600
   1099   1102   1108     1   107.9700462 569.024000
   1110   1113   1116     1   111.5100476 526.347200
   1113   1116   1122     1   107.9700462 569.024000
   1113   1110   1119     1   114.2100488 537.225600
   1124   1127   1130     1   111.5100476 526.347200
   1127   1124   1133     1   114.2100488 537.225600
   1127   1130   1136     1   107.9700462 569.024000
   1138   1141   1144     1   111.5100476 526.347200
   1141   1144   1150     1   107.9700462 569.024000
   1141   1138   1147     1   114.2100488 537.225600
   1152   1155   1158     1   111.5100476 526.347200
   1155   1152   1161     1   114.2100488 537.225600
   1155   1158   1164     1   107.9700462 569.024000
   1166   1169   1172     1   111.5100476 526.347200
   1169   1172   1178     1   107.9700462 569.024000
   1169   1166   1175     1   114.2100488 537.225600
   1180   1183   1186     1   111.5100476 526.347200
   1183   1180   1189     1   114.2100488 537.225600
   1183   1186   1192     1   107.9700462 569.024000
   1194   1197   1200     1   111.5100476 526.347200
   1197   1200   1206     1   107.9700462 569.024000
   1197   1194   1203     1   114.2100488 537.225600
   1208   1211   1214     1   111.5100476 526.347200
   1211   1208   1217     1   114.2100488 537.225600
   1211   1214   1220     1   107.9700462 569.024000
   1222   1225   1228     1   111.5100476 526.347200
   1225   1228   1234     1   107.9700462 569.024000
   1225   1222   1231     1   114.2100488 537.225600
   1236   1239   1242     1   111.5100476 526.347200
   1239   1236   1245     1   114.2100488 537.225600
   1239   1242   1248     1   107.9700462 569.024000
   1250   1253   1256     1   111.5100476 526.347200
   1253   1256   1262     1   107.9700462 569.024000
   1253   1250   1259     1   114.2100488 537.225600
   1264   1267   1270     1   111.5100476 526.347200
   1267   1264   1273     1   114.2100488 537.225600
   1267   1270   1276     1   107.9700462 569.024000
   1278   1281   1284     1   111.5100476 526.347200
   1281   1284   1290     1   107.9700462 569.024000
   1281   1278   1287     1   114.2100488 537.225600
   1292   1295   1298     1   111.5100476 526.347200
   1295   1292   1301     1   114.2100488 537.225600
   1295   1298   1304     1   107.9700462 569.024000
   1306   1309   1312     1   111.5100476 526.347200
   1309   1312   1318     1   107.9700462 569.024000
   1309   1306   1315     1   114.2100488 537.225600
   1320   1323   1326     1   111.5100476 526.347200
   1323   1320   1329     1   114.2100488 537.225600
   1323   1326   1332     1   107.9700462 569.024000
   1334   1337   1340     1   111.5100476 526.347200
   1337   1340   1346     1   107.9700462 569.024000
   1337   1334   1343     1   114.2100488 537.225600
      1      2      3     1   109.7800468 425.094400
      1      2      4     1   109.7800468 425.094400
      1      5      6     1   109.7800468 425.094400
      1      5      7     1   109.7800468 425.094400
      2      8      9     1   109.8000471 387.438400
      2      8     10     1   109.8000471 387.438400
      3      2      8     1   109.5600471 388.275200
      3      2      4     1   108.4600466 328.025600
      4      2      8     1   109.5600471 388.275200
      5     11     12     1   109.8000471 387.438400
      5     11     13     1   109.8000471 387.438400
      6      5     11     1   109.5600471 388.275200
      6      5      7     1   108.4600466 328.025600
      7      5     11     1   109.5600471 388.275200
      8     14     15     1   110.5600475 386.601600
      8     14     16     1   110.5600475 386.601600
      9      8     14     1   109.8000471 387.438400
      9      8     10     1   107.5800459 329.699200
     10      8     14     1   109.8000471 387.438400
     11     17     18     1   110.5600475 386.601600
     11     17     19     1   110.5600475 386.601600
     12     11     17     1   109.8000471 387.438400
     12     11     13     1   107.5800459 329.699200
     13     11     17     1   109.8000471 387.438400
     14     20     58     1   110.1100470 384.091200
     15     14     20     1   108.0100461 406.684800
     15     14     16     1   109.7500473 328.025600
     16     14     20     1   108.0100461 406.684800
     17     21     59     1   110.1100470 384.091200
     18     17     21     1   108.0100461 406.684800
     18     17     19     1   109.7500473 328.025600
     19     17     21     1   108.0100461 406.684800
     20     28     29     1   108.0100461 406.684800
     20     28     30     1   108.0100461 406.684800
     20     31     32     1   108.0100461 406.684800
     20     31     33     1   108.0100461 406.684800
     21     22     23     1   108.0100461 406.684800
     21     22     24     1   108.0100461 406.684800
     21     25     26     1   108.0100461 406.684800
     21     25     27     1   108.0100461 406.684800
     22     21     59     1   110.1100470 384.091200
     22     34     35     1   109.8000471 387.438400
     22     34     36     1   109.8000471 387.438400
     23     22     34     1   110.5600475 386.601600
     23     22     24     1   109.7500473 328.025600
     24     22     34     1   110.5600475 386.601600
     25     21     59     1   110.1100470 384.091200
     25     37     38     1   109.8000471 387.438400
     25     37     39     1   109.8000471 387.438400
     26     25     37     1   110.5600475 386.601600
     26     25     27     1   109.7500473 328.025600
     27     25     37     1   110.5600475 386.601600
     28     20     58     1   110.1100470 384.091200
     28     40     41     1   109.8000471 387.438400
     28     40     42     1   109.8000471 387.438400
     29     28     40     1   110.5600475 386.601600
     29     28     30     1   109.7500473 328.025600
     30     28     40     1   110.5600475 386.601600
     31     20     58     1   110.1100470 384.091200
     31     43     44     1   109.8000471 387.438400
     31     43     45     1   109.8000471 387.438400
     32     31     43     1   110.5600475 386.601600
     32     31     33     1   109.7500473 328.025600
     33     31     43     1   110.5600475 386.601600
     34     55     56     1   109.8000471 387.438400
     34     55     57     1   109.8000471 387.438400
     35     34     55     1   109.8000471 387.438400
     35     34     36     1   107.5800459 329.699200
     36     34     55     1   109.8000471 387.438400
     37     52     53     1   109.8000471 387.438400
     37     52     54     1   109.8000471 387.438400
     38     37     52     1   109.8000471 387.438400
     38     37     39     1   107.5800459 329.699200
     39     37     52     1   109.8000471 387.438400
     40     49     50     1   109.8000471 387.438400
     40     49     51     1   109.8000471 387.438400
     41     40     49     1   109.8000471 387.438400
     41     40     42     1   107.5800459 329.699200
     42     40     49     1   109.8000471 387.438400
     43     46     47     1   109.8000471 387.438400
     43     46     48     1   109.8000471 387.438400
     44     43     46     1   109.8000471 387.438400
     44     43     45     1   107.5800459 329.699200
     45     43     46     1   109.8000471 387.438400
     47     46     88     1   108.7000466 426.768000
     47     46     48     1   107.5800459 329.699200
     48     46     88     1   108.7000466 426.768000
     50     49    118     1   108.7000466 426.768000
     50     49     51     1   107.5800459 329.699200
     51     49    118     1   108.7000466 426.768000
     53     52    148     1   108.7000466 426.768000
     53     52     54     1   107.5800459 329.699200
     54     52    148     1   108.7000466 426.768000
     56     55    178     1   108.7000466 426.768000
     56     55     57     1   107.5800459 329.699200
     57     55    178     1   108.7000466 426.768000
     60     61     62     1   108.0100461 406.684800
     60     61     63     1   108.0100461 406.684800
     60     64     65     1   108.0100461 406.684800
     60     64     66     1   108.0100461 406.684800
     60     67     68     1   108.0100461 406.684800
     60     67     69     1   108.0100461 406.684800
     61     60     89     1   110.1100470 384.091200
     61     73     74     1   109.8000471 387.438400
     61     73     75     1   109.8000471 387.438400
     62     61     73     1   110.5600475 386.601600
     62     61     63     1   109.7500473 328.025600
     63     61     73     1   110.5600475 386.601600
     64     60     89     1   110.1100470 384.091200
     64     76     77     1   109.8000471 387.438400
     64     76     78     1   109.8000471 387.438400
     65     64     76     1   110.5600475 386.601600
     65     64     66     1   109.7500473 328.025600
     66     64     76     1   110.5600475 386.601600
     67     60     89     1   110.1100470 384.091200
     67     70     71     1   109.8000471 387.438400
     67     70     72     1   109.8000471 387.438400
     68     67     70     1   110.5600475 386.601600
     68     67     69     1   109.7500473 328.025600
     69     67     70     1   110.5600475 386.601600
     70     79     80     1   109.5600471 388.275200
     70     79     81     1   109.5600471 388.275200
     71     70     79     1   109.8000471 387.438400
     71     70     72     1   107.5800459 329.699200
     72     70     79     1   109.8000471 387.438400
     73     85     86     1   109.5600471 388.275200
     73     85     87     1   109.5600471 388.275200
     74     73     85     1   109.8000471 387.438400
     74     73     75     1   107.5800459 329.699200
     75     73     85     1   109.8000471 387.438400
     76     82     83     1   109.5600471 388.275200
     76     82     84     1   109.5600471 388.275200
     77     76     82     1   109.8000471 387.438400
     77     76     78     1   107.5800459 329.699200
     78     76     82     1   109.8000471 387.438400
     80     79     88     1   109.7800468 425.094400
     80     79     81     1   108.4600466 328.025600
     81     79     88     1   109.7800468 425.094400
     83     82    208     1   109.7800468 425.094400
     83     82     84     1   108.4600466 328.025600
     84     82    208     1   109.7800468 425.094400
     86     85    238     1   109.7800468 425.094400
     86     85     87     1   108.4600466 328.025600
     87     85    238     1   109.7800468 425.094400
     90     91     92     1   108.0100461 406.684800
     90     91     93     1   108.0100461 406.684800
     90     94     95     1   108.0100461 406.684800
     90     94     96     1   108.0100461 406.684800
     90     97     98     1   108.0100461 406.684800
     90     97     99     1   108.0100461 406.684800
     91     90    119     1   110.1100470 384.091200
     91    103    104     1   109.8000471 387.438400
     91    103    105     1   109.8000471 387.438400
     92     91    103     1   110.5600475 386.601600
     92     91     93     1   109.7500473 328.025600
     93     91    103     1   110.5600475 386.601600
     94     90    119     1   110.1100470 384.091200
     94    106    107     1   109.8000471 387.438400
     94    106    108     1   109.8000471 387.438400
     95     94    106     1   110.5600475 386.601600
     95     94     96     1   109.7500473 328.025600
     96     94    106     1   110.5600475 386.601600
     97     90    119     1   110.1100470 384.091200
     97    100    101     1   109.8000471 387.438400
     97    100    102     1   109.8000471 387.438400
     98     97    100     1   110.5600475 386.601600
     98     97     99     1   109.7500473 328.025600
     99     97    100     1   110.5600475 386.601600
    100    109    110     1   109.5600471 388.275200
    100    109    111     1   109.5600471 388.275200
    101    100    109     1   109.8000471 387.438400
    101    100    102     1   107.5800459 329.699200
    102    100    109     1   109.8000471 387.438400
    103    115    116     1   109.5600471 388.275200
    103    115    117     1   109.5600471 388.275200
    104    103    115     1   109.8000471 387.438400
    104    103    105     1   107.5800459 329.699200
    105    103    115     1   109.8000471 387.438400
    106    112    113     1   109.5600471 388.275200
    106    112    114     1   109.5600471 388.275200
    107    106    112     1   109.8000471 387.438400
    107    106    108     1   107.5800459 329.699200
    108    106    112     1   109.8000471 387.438400
    110    109    118     1   109.7800468 425.094400
    110    109    111     1   108.4600466 328.025600
    111    109    118     1   109.7800468 425.094400
    113    112    268     1   109.7800468 425.094400
    113    112    114     1   108.4600466 328.025600
    114    112    268     1   109.7800468 425.094400
    116    115    298     1   109.7800468 425.094400
    116    115    117     1   108.4600466 328.025600
    117    115    298     1   109.7800468 425.094400
    120    121    122     1   108.0100461 406.684800
    120    121    123     1   108.0100461 406.684800
    120    124    125     1   108.0100461 406.684800
    120    124    126     1   108.0100461 406.684800
    120    127    128     1   108.0100461 406.684800
    120    127    129     1   108.0100461 406.684800
    121    120    149     1   110.1100470 384.091200
    121    133    134     1   109.8000471 387.438400
    121    133    135     1   109.8000471 387.438400
    122    121    133     1   110.5600475 386.601600
    122    121    123     1   109.7500473 328.025600
    123    121    133     1   110.5600475 386.601600
    124    120    149     1   110.1100470 384.091200
    124    136    137     1   109.8000471 387.438400
    124    136    138     1   109.8000471 387.438400
    125    124    136     1   110.5600475 386.601600
    125    124    126     1   109.7500473 328.025600
    126    124    136     1   110.5600475 386.601600
    127    120    149     1   110.1100470 384.091200
    127    130    131     1   109.8000471 387.438400
    127    130    132     1   109.8000471 387.438400
    128    127    130     1   110.5600475 386.601600
    128    127    129     1   109.7500473 328.025600
    129    127    130     1   110.5600475 386.601600
    130    139    140     1   109.5600471 388.275200
    130    139    141     1   109.5600471 388.275200
    131    130    139     1   109.8000471 387.438400
    131    130    132     1   107.5800459 329.699200
    132    130    139     1   109.8000471 387.438400
    133    145    146     1   109.5600471 388.275200
    133    145    147     1   109.5600471 388.275200
    134    133    145     1   109.8000471 387.438400
    134    133    135     1   107.5800459 329.699200
    135    133    145     1   109.8000471 387.438400
    136    142    143     1   109.5600471 388.275200
    136    142    144     1   109.5600471 388.275200
    137    136    142     1   109.8000471 387.438400
    137    136    138     1   107.5800459 329.699200
    138    136    142     1   109.8000471 387.438400
    140    139    148     1   109.7800468 425.094400
    140    139    141     1   108.4600466 328.025600
    141    139    148     1   109.7800468 425.094400
    143    142    328     1   109.7800468 425.094400
    143    142    144     1   108.4600466 328.025600
    144    142    328     1   109.7800468 425.094400
    146    145    358     1   109.7800468 425.094400
    146    145    147     1   108.4600466 328.025600
    147    145    358     1   109.7800468 425.094400
    150    151    152     1   108.0100461 406.684800
    150    151    153     1   108.0100461 406.684800
    150    154    155     1   108.0100461 406.684800
    150    154    156     1   108.0100461 406.684800
    150    157    158     1   108.0100461 406.684800
    150    157    159     1   108.0100461 406.684800
    151    150    179     1   110.1100470 384.091200
    151    163    164     1   109.8000471 387.438400
    151    163    165     1   109.8000471 387.438400
    152    151    163     1   110.5600475 386.601600
    152    151    153     1   109.7500473 328.025600
    153    151    163     1   110.5600475 386.601600
    154    150    179     1   110.1100470 384.091200
    154    166    167     1   109.8000471 387.438400
    154    166    168     1   109.8000471 387.438400
    155    154    166     1   110.5600475 386.601600
    155    154    156     1   109.7500473 328.025600
    156    154    166     1   110.5600475 386.601600
    157    150    179     1   110.1100470 384.091200
    157    160    161     1   109.8000471 387.438400
    157    160    162     1   109.8000471 387.438400
    158    157    160     1   110.5600475 386.601600
    158    157    159     1   109.7500473 328.025600
    159    157    160     1   110.5600475 386.601600
    160    169    170     1   109.5600471 388.275200
    160    169    171     1   109.5600471 388.275200
    161    160    169     1   109.8000471 387.438400
    161    160    162     1   107.5800459 329.699200
    162    160    169     1   109.8000471 387.438400
    163    175    176     1   109.5600471 388.275200
    163    175    177     1   109.5600471 388.275200
    164    163    175     1   109.8000471 387.438400
    164    163    165     1   107.5800459 329.699200
    165    163    175     1   109.8000471 387.438400
    166    172    173     1   109.5600471 388.275200
    166    172    174     1   109.5600471 388.275200
    167    166    172     1   109.8000471 387.438400
    167    166    168     1   107.5800459 329.699200
    168    166    172     1   109.8000471 387.438400
    170    169    178     1   109.7800468 425.094400
    170    169    171     1   108.4600466 328.025600
    171    169    178     1   109.7800468 425.094400
    173    172    388     1   109.7800468 425.094400
    173    172    174     1   108.4600466 328.025600
    174    172    388     1   109.7800468 425.094400
    176    175    418     1   109.7800468 425.094400
    176    175    177     1   108.4600466 328.025600
    177    175    418     1   109.7800468 425.094400
    180    181    182     1   108.0100461 406.684800
    180    181    183     1   108.0100461 406.684800
    180    184    185     1   108.0100461 406.684800
    180    184    186     1   108.0100461 406.684800
    180    187    188     1   108.0100461 406.684800
    180    187    189     1   108.0100461 406.684800
    181    180    209     1   110.1100470 384.091200
    181    193    194     1   109.8000471 387.438400
    181    193    195     1   109.8000471 387.438400
    182    181    193     1   110.5600475 386.601600
    182    181    183     1   109.7500473 328.025600
    183    181    193     1   110.5600475 386.601600
    184    180    209     1   110.1100470 384.091200
    184    196    197     1   109.8000471 387.438400
    184    196    198     1   109.8000471 387.438400
    185    184    196     1   110.5600475 386.601600
    185    184    186     1   109.7500473 328.025600
    186    184    196     1   110.5600475 386.601600
    187    180    209     1   110.1100470 384.091200
    187    190    191     1   109.8000471 387.438400
    187    190    192     1   109.8000471 387.438400
    188    187    190     1   110.5600475 386.601600
    188    187    189     1   109.7500473 328.025600
    189    187    190     1   110.5600475 386.601600
    190    199    200     1   109.5600471 388.275200
    190    199    201     1   109.5600471 388.275200
    191    190    199     1   109.8000471 387.438400
    191    190    192     1   107.5800459 329.699200
    192    190    199     1   109.8000471 387.438400
    193    205    206     1   109.5600471 388.275200
    193    205    207     1   109.5600471 388.275200
    194    193    205     1   109.8000471 387.438400
    194    193    195     1   107.5800459 329.699200
    195    193    205     1   109.8000471 387.438400
    196    202    203     1   109.5600471 388.275200
    196    202    204     1   109.5600471 388.275200
    197    196    202     1   109.8000471 387.438400
    197    196    198     1   107.5800459 329.699200
    198    196    202     1   109.8000471 387.438400
    200    199    208     1   109.7800468 425.094400
    200    199    201     1   108.4600466 328.025600
    201    199    208     1   109.7800468 425.094400
    203    202    448     1   109.7800468 425.094400
    203    202    204     1   108.4600466 328.025600
    204    202    448     1   109.7800468 425.094400
    206    205    478     1   109.7800468 425.094400
    206    205    207     1   108.4600466 328.025600
    207    205    478     1   109.7800468 425.094400
    210    211    212     1   108.0100461 406.684800
    210    211    213     1   108.0100461 406.684800
    210    214    215     1   108.0100461 406.684800
    210    214    216     1   108.0100461 406.684800
    210    217    218     1   108.0100461 406.684800
    210    217    219     1   108.0100461 406.684800
    211    210    239     1   110.1100470 384.091200
    211    223    224     1   109.8000471 387.438400
    211    223    225     1   109.8000471 387.438400
    212    211    223     1   110.5600475 386.601600
    212    211    213     1   109.7500473 328.025600
    213    211    223     1   110.5600475 386.601600
    214    210    239     1   110.1100470 384.091200
    214    226    227     1   109.8000471 387.438400
    214    226    228     1   109.8000471 387.438400
    215    214    226     1   110.5600475 386.601600
    215    214    216     1   109.7500473 328.025600
    216    214    226     1   110.5600475 386.601600
    217    210    239     1   110.1100470 384.091200
    217    220    221     1   109.8000471 387.438400
    217    220    222     1   109.8000471 387.438400
    218    217    220     1   110.5600475 386.601600
    218    217    219     1   109.7500473 328.025600
    219    217    220     1   110.5600475 386.601600
    220    229    230     1   109.5600471 388.275200
    220    229    231     1   109.5600471 388.275200
    221    220    229     1   109.8000471 387.438400
    221    220    222     1   107.5800459 329.699200
    222    220    229     1   109.8000471 387.438400
    223    235    236     1   109.5600471 388.275200
    223    235    237     1   109.5600471 388.275200
    224    223    235     1   109.8000471 387.438400
    224    223    225     1   107.5800459 329.699200
    225    223    235     1   109.8000471 387.438400
    226    232    233     1   109.5600471 388.275200
    226    232    234     1   109.5600471 388.275200
    227    226    232     1   109.8000471 387.438400
    227    226    228     1   107.5800459 329.699200
    228    226    232     1   109.8000471 387.438400
    230    229    238     1   109.7800468 425.094400
    230    229    231     1   108.4600466 328.025600
    231    229    238     1   109.7800468 425.094400
    233    232    508     1   109.7800468 425.094400
    233    232    234     1   108.4600466 328.025600
    234    232    508     1   109.7800468 425.094400
    236    235    538     1   109.7800468 425.094400
    236    235    237     1   108.4600466 328.025600
    237    235    538     1   109.7800468 425.094400
    240    241    242     1   108.0100461 406.684800
    240    241    243     1   108.0100461 406.684800
    240    244    245     1   108.0100461 406.684800
    240    244    246     1   108.0100461 406.684800
    240    247    248     1   108.0100461 406.684800
    240    247    249     1   108.0100461 406.684800
    241    240    269     1   110.1100470 384.091200
    241    253    254     1   109.8000471 387.438400
    241    253    255     1   109.8000471 387.438400
    242    241    253     1   110.5600475 386.601600
    242    241    243     1   109.7500473 328.025600
    243    241    253     1   110.5600475 386.601600
    244    240    269     1   110.1100470 384.091200
    244    256    257     1   109.8000471 387.438400
    244    256    258     1   109.8000471 387.438400
    245    244    256     1   110.5600475 386.601600
    245    244    246     1   109.7500473 328.025600
    246    244    256     1   110.5600475 386.601600
    247    240    269     1   110.1100470 384.091200
    247    250    251     1   109.8000471 387.438400
    247    250    252     1   109.8000471 387.438400
    248    247    250     1   110.5600475 386.601600
    248    247    249     1   109.7500473 328.025600
    249    247    250     1   110.5600475 386.601600
    250    259    260     1   109.5600471 388.275200
    250    259    261     1   109.5600471 388.275200
    251    250    259     1   109.8000471 387.438400
    251    250    252     1   107.5800459 329.699200
    252    250    259     1   109.8000471 387.438400
    253    265    266     1   109.5600471 388.275200
    253    265    267     1   109.5600471 388.275200
    254    253    265     1   109.8000471 387.438400
    254    253    255     1   107.5800459 329.699200
    255    253    265     1   109.8000471 387.438400
    256    262    263     1   109.5600471 388.275200
    256    262    264     1   109.5600471 388.275200
    257    256    262     1   109.8000471 387.438400
    257    256    258     1   107.5800459 329.699200
    258    256    262     1   109.8000471 387.438400
    260    259    268     1   109.7800468 425.094400
    260    259    261     1   108.4600466 328.025600
    261    259    268     1   109.7800468 425.094400
    263    262    568     1   109.7800468 425.094400
    263    262    264     1   108.4600466 328.025600
    264    262    568     1   109.7800468 425.094400
    266    265    598     1   109.7800468 425.094400
    266    265    267     1   108.4600466 328.025600
    267    265    598     1   109.7800468 425.094400
    270    271    272     1   108.0100461 406.684800
    270    271    273     1   108.0100461 406.684800
    270    274    275     1   108.0100461 406.684800
    270    274    276     1   108.0100461 406.684800
    270    277    278     1   108.0100461 406.684800
    270    277    279     1   108.0100461 406.684800
    271    270    299     1   110.1100470 384.091200
    271    283    284     1   109.8000471 387.438400
    271    283    285     1   109.8000471 387.438400
    272    271    283     1   110.5600475 386.601600
    272    271    273     1   109.7500473 328.025600
    273    271    283     1   110.5600475 386.601600
    274    270    299     1   110.1100470 384.091200
    274    286    287     1   109.8000471 387.438400
    274    286    288     1   109.8000471 387.438400
    275    274    286     1   110.5600475 386.601600
    275    274    276     1   109.7500473 328.025600
    276    274    286     1   110.5600475 386.601600
    277    270    299     1   110.1100470 384.091200
    277    280    281     1   109.8000471 387.438400
    277    280    282     1   109.8000471 387.438400
    278    277    280     1   110.5600475 386.601600
    278    277    279     1   109.7500473 328.025600
    279    277    280     1   110.5600475 386.601600
    280    289    290     1   109.5600471 388.275200
    280    289    291     1   109.5600471 388.275200
    281    280    289     1   109.8000471 387.438400
    281    280    282     1   107.5800459 329.699200
    282    280    289     1   109.8000471 387.438400
    283    295    296     1   109.5600471 388.275200
    283    295    297     1   109.5600471 388.275200
    284    283    295     1   109.8000471 387.438400
    284    283    285     1   107.5800459 329.699200
    285    283    295     1   109.8000471 387.438400
    286    292    293     1   109.5600471 388.275200
    286    292    294     1   109.5600471 388.275200
    287    286    292     1   109.8000471 387.438400
    287    286    288     1   107.5800459 329.699200
    288    286    292     1   109.8000471 387.438400
    290    289    298     1   109.7800468 425.094400
    290    289    291     1   108.4600466 328.025600
    291    289    298     1   109.7800468 425.094400
    293    292    628     1   109.7800468 425.094400
    293    292    294     1   108.4600466 328.025600
    294    292    628     1   109.7800468 425.094400
    296    295    658     1   109.7800468 425.094400
    296    295    297     1   108.4600466 328.025600
    297    295    658     1   109.7800468 425.094400
    300    301    302     1   108.0100461 406.684800
    300    301    303     1   108.0100461 406.684800
    300    304    305     1   108.0100461 406.684800
    300    304    306     1   108.0100461 406.684800
    300    307    308     1   108.0100461 406.684800
    300    307    309     1   108.0100461 406.684800
    301    300    329     1   110.1100470 384.091200
    301    313    314     1   109.8000471 387.438400
    301    313    315     1   109.8000471 387.438400
    302    301    313     1   110.5600475 386.601600
    302    301    303     1   109.7500473 328.025600
    303    301    313     1   110.5600475 386.601600
    304    300    329     1   110.1100470 384.091200
    304    316    317     1   109.8000471 387.438400
    304    316    318     1   109.8000471 387.438400
    305    304    316     1   110.5600475 386.601600
    305    304    306     1   109.7500473 328.025600
    306    304    316     1   110.5600475 386.601600
    307    300    329     1   110.1100470 384.091200
    307    310    311     1   109.8000471 387.438400
    307    310    312     1   109.8000471 387.438400
    308    307    310     1   110.5600475 386.601600
    308    307    309     1   109.7500473 328.025600
    309    307    310     1   110.5600475 386.601600
    310    319    320     1   109.5600471 388.275200
    310    319    321     1   109.5600471 388.275200
    311    310    319     1   109.8000471 387.438400
    311    310    312     1   107.5800459 329.699200
    312    310    319     1   109.8000471 387.438400
    313    325    326     1   109.5600471 388.275200
    313    325    327     1   109.5600471 388.275200
    314    313    325     1   109.8000471 387.438400
    314    313    315     1   107.5800459 329.699200
    315    313    325     1   109.8000471 387.438400
    316    322    323     1   109.5600471 388.275200
    316    322    324     1   109.5600471 388.275200
    317    316    322     1   109.8000471 387.438400
    317    316    318     1   107.5800459 329.699200
    318    316    322     1   109.8000471 387.438400
    320    319    328     1   109.7800468 425.094400
    320    319    321     1   108.4600466 328.025600
    321    319    328     1   109.7800468 425.094400
    323    322    688     1   109.7800468 425.094400
    323    322    324     1   108.4600466 328.025600
    324    322    688     1   109.7800468 425.094400
    326    325    718     1   109.7800468 425.094400
    326    325    327     1   108.4600466 328.025600
    327    325    718     1   109.7800468 425.094400
    330    331    332     1   108.0100461 406.684800
    330    331    333     1   108.0100461 406.684800
    330    334    335     1   108.0100461 406.684800
    330    334    336     1   108.0100461 406.684800
    330    337    338     1   108.0100461 406.684800
    330    337    339     1   108.0100461 406.684800
    331    330    359     1   110.1100470 384.091200
    331    343    344     1   109.8000471 387.438400
    331    343    345     1   109.8000471 387.438400
    332    331    343     1   110.5600475 386.601600
    332    331    333     1   109.7500473 328.025600
    333    331    343     1   110.5600475 386.601600
    334    330    359     1   110.1100470 384.091200
    334    346    347     1   109.8000471 387.438400
    334    346    348     1   109.8000471 387.438400
    335    334    346     1   110.5600475 386.601600
    335    334    336     1   109.7500473 328.025600
    336    334    346     1   110.5600475 386.601600
    337    330    359     1   110.1100470 384.091200
    337    340    341     1   109.8000471 387.438400
    337    340    342     1   109.8000471 387.438400
    338    337    340     1   110.5600475 386.601600
    338    337    339     1   109.7500473 328.025600
    339    337    340     1   110.5600475 386.601600
    340    349    350     1   109.5600471 388.275200
    340    349    351     1   109.5600471 388.275200
    341    340    349     1   109.8000471 387.438400
    341    340    342     1   107.5800459 329.699200
    342    340    349     1   109.8000471 387.438400
    343    355    356     1   109.5600471 388.275200
    343    355    357     1   109.5600471 388.275200
    344    343    355     1   109.8000471 387.438400
    344    343    345     1   107.5800459 329.699200
    345    343    355     1   109.8000471 387.438400
    346    352    353     1   109.5600471 388.275200
    346    352    354     1   109.5600471 388.275200
    347    346    352     1   109.8000471 387.438400
    347    346    348     1   107.5800459 329.699200
    348    346    352     1   109.8000471 387.438400
    350    349    358     1   109.7800468 425.094400
    350    349    351     1   108.4600466 328.025600
    351    349    358     1   109.7800468 425.094400
    353    352    748     1   109.7800468 425.094400
    353    352    354     1   108.4600466 328.025600
    354    352    748     1   109.7800468 425.094400
    356    355    778     1   109.7800468 425.094400
    356    355    357     1   108.4600466 328.025600
    357    355    778     1   109.7800468 425.094400
    360    361    362     1   108.0100461 406.684800
    360    361    363     1   108.0100461 406.684800
    360    364    365     1   108.0100461 406.684800
    360    364    366     1   108.0100461 406.684800
    360    367    368     1   108.0100461 406.684800
    360    367    369     1   108.0100461 406.684800
    361    360    389     1   110.1100470 384.091200
    361    373    374     1   109.8000471 387.438400
    361    373    375     1   109.8000471 387.438400
    362    361    373     1   110.5600475 386.601600
    362    361    363     1   109.7500473 328.025600
    363    361    373     1   110.5600475 386.601600
    364    360    389     1   110.1100470 384.091200
    364    376    377     1   109.8000471 387.438400
    364    376    378     1   109.8000471 387.438400
    365    364    376     1   110.5600475 386.601600
    365    364    366     1   109.7500473 328.025600
    366    364    376     1   110.5600475 386.601600
    367    360    389     1   110.1100470 384.091200
    367    370    371     1   109.8000471 387.438400
    367    370    372     1   109.8000471 387.438400
    368    367    370     1   110.5600475 386.601600
    368    367    369     1   109.7500473 328.025600
    369    367    370     1   110.5600475 386.601600
    370    379    380     1   109.5600471 388.275200
    370    379    381     1   109.5600471 388.275200
    371    370    379     1   109.8000471 387.438400
    371    370    372     1   107.5800459 329.699200
    372    370    379     1   109.8000471 387.438400
    373    385    386     1   109.5600471 388.275200
    373    385    387     1   109.5600471 388.275200
    374    373    385     1   109.8000471 387.438400
    374    373    375     1   107.5800459 329.699200
    375    373    385     1   109.8000471 387.438400
    376    382    383     1   109.5600471 388.275200
    376    382    384     1   109.5600471 388.275200
    377    376    382     1   109.8000471 387.438400
    377    376    378     1   107.5800459 329.699200
    378    376    382     1   109.8000471 387.438400
    380    379    388     1   109.7800468 425.094400
    380    379    381     1   108.4600466 328.025600
    381    379    388     1   109.7800468 425.094400
    383    382    808     1   109.7800468 425.094400
    383    382    384     1   108.4600466 328.025600
    384    382    808     1   109.7800468 425.094400
    386    385    838     1   109.7800468 425.094400
    386    385    387     1   108.4600466 328.025600
    387    385    838     1   109.7800468 425.094400
    390    391    392     1   108.0100461 406.684800
    390    391    393     1   108.0100461 406.684800
    390    394    395     1   108.0100461 406.684800
    390    394    396     1   108.0100461 406.684800
    390    397    398     1   108.0100461 406.684800
    390    397    399     1   108.0100461 406.684800
    391    390    419     1   110.1100470 384.091200
    391    403    404     1   109.8000471 387.438400
    391    403    405     1   109.8000471 387.438400
    392    391    403     1   110.5600475 386.601600
    392    391    393     1   109.7500473 328.025600
    393    391    403     1   110.5600475 386.601600
    394    390    419     1   110.1100470 384.091200
    394    406    407     1   109.8000471 387.438400
    394    406    408     1   109.8000471 387.438400
    395    394    406     1   110.5600475 386.601600
    395    394    396     1   109.7500473 328.025600
    396    394    406     1   110.5600475 386.601600
    397    390    419     1   110.1100470 384.091200
    397    400    401     1   109.8000471 387.438400
    397    400    402     1   109.8000471 387.438400
    398    397    400     1   110.5600475 386.601600
    398    397    399     1   109.7500473 328.025600
    399    397    400     1   110.5600475 386.601600
    400    409    410     1   109.5600471 388.275200
    400    409    411     1   109.5600471 388.275200
    401    400    409     1   109.8000471 387.438400
    401    400    402     1   107.5800459 329.699200
    402    400    409     1   109.8000471 387.438400
    403    415    416     1   109.5600471 388.275200
    403    415    417     1   109.5600471 388.275200
    404    403    415     1   109.8000471 387.438400
    404    403    405     1   107.5800459 329.699200
    405    403    415     1   109.8000471 387.438400
    406    412    413     1   109.5600471 388.275200
    406    412    414     1   109.5600471 388.275200
    407    406    412     1   109.8000471 387.438400
    407    406    408     1   107.5800459 329.699200
    408    406    412     1   109.8000471 387.438400
    410    409    418     1   109.7800468 425.094400
    410    409    411     1   108.4600466 328.025600
    411    409    418     1   109.7800468 425.094400
    413    412    868     1   109.7800468 425.094400
    413    412    414     1   108.4600466 328.025600
    414    412    868     1   109.7800468 425.094400
    416    415    898     1   109.7800468 425.094400
    416    415    417     1   108.4600466 328.025600
    417    415    898     1   109.7800468 425.094400
    420    421    422     1   108.0100461 406.684800
    420    421    423     1   108.0100461 406.684800
    420    424    425     1   108.0100461 406.684800
    420    424    426     1   108.0100461 406.684800
    420    427    428     1   108.0100461 406.684800
    420    427    429     1   108.0100461 406.684800
    421    420    449     1   110.1100470 384.091200
    421    433    434     1   109.8000471 387.438400
    421    433    435     1   109.8000471 387.438400
    422    421    433     1   110.5600475 386.601600
    422    421    423     1   109.7500473 328.025600
    423    421    433     1   110.5600475 386.601600
    424    420    449     1   110.1100470 384.091200
    424    436    437     1   109.8000471 387.438400
    424    436    438     1   109.8000471 387.438400
    425    424    436     1   110.5600475 386.601600
    425    424    426     1   109.7500473 328.025600
    426    424    436     1   110.5600475 386.601600
    427    420    449     1   110.1100470 384.091200
    427    430    431     1   109.8000471 387.438400
    427    430    432     1   109.8000471 387.438400
    428    427    430     1   110.5600475 386.601600
    428    427    429     1   109.7500473 328.025600
    429    427    430     1   110.5600475 386.601600
    430    439    440     1   109.5600471 388.275200
    430    439    441     1   109.5600471 388.275200
    431    430    439     1   109.8000471 387.438400
    431    430    432     1   107.5800459 329.699200
    432    430    439     1   109.8000471 387.438400
    433    445    446     1   109.5600471 388.275200
    433    445    447     1   109.5600471 388.275200
    434    433    445     1   109.8000471 387.438400
    434    433    435     1   107.5800459 329.699200
    435    433    445     1   109.8000471 387.438400
    436    442    443     1   109.5600471 388.275200
    436    442    444     1   109.5600471 388.275200
    437    436    442     1   109.8000471 387.438400
    437    436    438     1   107.5800459 329.699200
    438    436    442     1   109.8000471 387.438400
    440    439    448     1   109.7800468 425.094400
    440    439    441     1   108.4600466 328.025600
    441    439    448     1   109.7800468 425.094400
    443    442    912     1   109.7800468 425.094400
    443    442    444     1   108.4600466 328.025600
    444    442    912     1   109.7800468 425.094400
    446    445    926     1   109.7800468 425.094400
    446    445    447     1   108.4600466 328.025600
    447    445    926     1   109.7800468 425.094400
    450    451    452     1   108.0100461 406.684800
    450    451    453     1   108.0100461 406.684800
    450    454    455     1   108.0100461 406.684800
    450    454    456     1   108.0100461 406.684800
    450    457    458     1   108.0100461 406.684800
    450    457    459     1   108.0100461 406.684800
    451    450    479     1   110.1100470 384.091200
    451    463    464     1   109.8000471 387.438400
    451    463    465     1   109.8000471 387.438400
    452    451    463     1   110.5600475 386.601600
    452    451    453     1   109.7500473 328.025600
    453    451    463     1   110.5600475 386.601600
    454    450    479     1   110.1100470 384.091200
    454    466    467     1   109.8000471 387.438400
    454    466    468     1   109.8000471 387.438400
    455    454    466     1   110.5600475 386.601600
    455    454    456     1   109.7500473 328.025600
    456    454    466     1   110.5600475 386.601600
    457    450    479     1   110.1100470 384.091200
    457    460    461     1   109.8000471 387.438400
    457    460    462     1   109.8000471 387.438400
    458    457    460     1   110.5600475 386.601600
    458    457    459     1   109.7500473 328.025600
    459    457    460     1   110.5600475 386.601600
    460    469    470     1   109.5600471 388.275200
    460    469    471     1   109.5600471 388.275200
    461    460    469     1   109.8000471 387.438400
    461    460    462     1   107.5800459 329.699200
    462    460    469     1   109.8000471 387.438400
    463    475    476     1   109.5600471 388.275200
    463    475    477     1   109.5600471 388.275200
    464    463    475     1   109.8000471 387.438400
    464    463    465     1   107.5800459 329.699200
    465    463    475     1   109.8000471 387.438400
    466    472    473     1   109.5600471 388.275200
    466    472    474     1   109.5600471 388.275200
    467    466    472     1   109.8000471 387.438400
    467    466    468     1   107.5800459 329.699200
    468    466    472     1   109.8000471 387.438400
    470    469    478     1   109.7800468 425.094400
    470    469    471     1   108.4600466 328.025600
    471    469    478     1   109.7800468 425.094400
    473    472    940     1   109.7800468 425.094400
    473    472    474     1   108.4600466 328.025600
    474    472    940     1   109.7800468 425.094400
    476    475    954     1   109.7800468 425.094400
    476    475    477     1   108.4600466 328.025600
    477    475    954     1   109.7800468 425.094400
    480    481    482     1   108.0100461 406.684800
    480    481    483     1   108.0100461 406.684800
    480    484    485     1   108.0100461 406.684800
    480    484    486     1   108.0100461 406.684800
    480    487    488     1   108.0100461 406.684800
    480    487    489     1   108.0100461 406.684800
    481    480    509     1   110.1100470 384.091200
    481    493    494     1   109.8000471 387.438400
    481    493    495     1   109.8000471 387.438400
    482    481    493     1   110.5600475 386.601600
    482    481    483     1   109.7500473 328.025600
    483    481    493     1   110.5600475 386.601600
    484    480    509     1   110.1100470 384.091200
    484    496    497     1   109.8000471 387.438400
    484    496    498     1   109.8000471 387.438400
    485    484    496     1   110.5600475 386.601600
    485    484    486     1   109.7500473 328.025600
    486    484    496     1   110.5600475 386.601600
    487    480    509     1   110.1100470 384.091200
    487    490    491     1   109.8000471 387.438400
    487    490    492     1   109.8000471 387.438400
    488    487    490     1   110.5600475 386.601600
    488    487    489     1   109.7500473 328.025600
    489    487    490     1   110.5600475 386.601600
    490    499    500     1   109.5600471 388.275200
    490    499    501     1   109.5600471 388.275200
    491    490    499     1   109.8000471 387.438400
    491    490    492     1   107.5800459 329.699200
    492    490    499     1   109.8000471 387.438400
    493    505    506     1   109.5600471 388.275200
    493    505    507     1   109.5600471 388.275200
    494    493    505     1   109.8000471 387.438400
    494    493    495     1   107.5800459 329.699200
    495    493    505     1   109.8000471 387.438400
    496    502    503     1   109.5600471 388.275200
    496    502    504     1   109.5600471 388.275200
    497    496    502     1   109.8000471 387.438400
    497    496    498     1   107.5800459 329.699200
    498    496    502     1   109.8000471 387.438400
    500    499    508     1   109.7800468 425.094400
    500    499    501     1   108.4600466 328.025600
    501    499    508     1   109.7800468 425.094400
    503    502    968     1   109.7800468 425.094400
    503    502    504     1   108.4600466 328.025600
    504    502    968     1   109.7800468 425.094400
    506    505    982     1   109.7800468 425.094400
    506    505    507     1   108.4600466 328.025600
    507    505    982     1   109.7800468 425.094400
    510    511    512     1   108.0100461 406.684800
    510    511    513     1   108.0100461 406.684800
    510    514    515     1   108.0100461 406.684800
    510    514    516     1   108.0100461 406.684800
    510    517    518     1   108.0100461 406.684800
    510    517    519     1   108.0100461 406.684800
    511    510    539     1   110.1100470 384.091200
    511    523    524     1   109.8000471 387.438400
    511    523    525     1   109.8000471 387.438400
    512    511    523     1   110.5600475 386.601600
    512    511    513     1   109.7500473 328.025600
    513    511    523     1   110.5600475 386.601600
    514    510    539     1   110.1100470 384.091200
    514    526    527     1   109.8000471 387.438400
    514    526    528     1   109.8000471 387.438400
    515    514    526     1   110.5600475 386.601600
    515    514    516     1   109.7500473 328.025600
    516    514    526     1   110.5600475 386.601600
    517    510    539     1   110.1100470 384.091200
    517    520    521     1   109.8000471 387.438400
    517    520    522     1   109.8000471 387.438400
    518    517    520     1   110.5600475 386.601600
    518    517    519     1   109.7500473 328.025600
    519    517    520     1   110.5600475 386.601600
    520    529    530     1   109.5600471 388.275200
    520    529    531     1   109.5600471 388.275200
    521    520    529     1   109.8000471 387.438400
    521    520    522     1   107.5800459 329.699200
    522    520    529     1   109.8000471 387.438400
    523    535    536     1   109.5600471 388.275200
    523    535    537     1   109.5600471 388.275200
    524    523    535     1   109.8000471 387.438400
    524    523    525     1   107.5800459 329.699200
    525    523    535     1   109.8000471 387.438400
    526    532    533     1   109.5600471 388.275200
    526    532    534     1   109.5600471 388.275200
    527    526    532     1   109.8000471 387.438400
    527    526    528     1   107.5800459 329.699200
    528    526    532     1   109.8000471 387.438400
    530    529    538     1   109.7800468 425.094400
    530    529    531     1   108.4600466 328.025600
    531    529    538     1   109.7800468 425.094400
    533    532    996     1   109.7800468 425.094400
    533    532    534     1   108.4600466 328.025600
    534    532    996     1   109.7800468 425.094400
    536    535   1010     1   109.7800468 425.094400
    536    535    537     1   108.4600466 328.025600
    537    535   1010     1   109.7800468 425.094400
    540    541    542     1   108.0100461 406.684800
    540    541    543     1   108.0100461 406.684800
    540    544    545     1   108.0100461 406.684800
    540    544    546     1   108.0100461 406.684800
    540    547    548     1   108.0100461 406.684800
    540    547    549     1   108.0100461 406.684800
    541    540    569     1   110.1100470 384.091200
    541    553    554     1   109.8000471 387.438400
    541    553    555     1   109.8000471 387.438400
    542    541    553     1   110.5600475 386.601600
    542    541    543     1   109.7500473 328.025600
    543    541    553     1   110.5600475 386.601600
    544    540    569     1   110.1100470 384.091200
    544    556    557     1   109.8000471 387.438400
    544    556    558     1   109.8000471 387.438400
    545    544    556     1   110.5600475 386.601600
    545    544    546     1   109.7500473 328.025600
    546    544    556     1   110.5600475 386.601600
    547    540    569     1   110.1100470 384.091200
    547    550    551     1   109.8000471 387.438400
    547    550    552     1   109.8000471 387.438400
    548    547    550     1   110.5600475 386.601600
    548    547    549     1   109.7500473 328.025600
    549    547    550     1   110.5600475 386.601600
    550    559    560     1   109.5600471 388.275200
    550    559    561     1   109.5600471 388.275200
    551    550    559     1   109.8000471 387.438400
    551    550    552     1   107.5800459 329.699200
    552    550    559     1   109.8000471 387.438400
    553    565    566     1   109.5600471 388.275200
    553    565    567     1   109.5600471 388.275200
    554    553    565     1   109.8000471 387.438400
    554    553    555     1   107.5800459 329.699200
    555    553    565     1   109.8000471 387.438400
    556    562    563     1   109.5600471 388.275200
    556    562    564     1   109.5600471 388.275200
    557    556    562     1   109.8000471 387.438400
    557    556    558     1   107.5800459 329.699200
    558    556    562     1   109.8000471 387.438400
    560    559    568     1   109.7800468 425.094400
    560    559    561     1   108.4600466 328.025600
    561    559    568     1   109.7800468 425.094400
    563    562   1024     1   109.7800468 425.094400
    563    562    564     1   108.4600466 328.025600
    564    562   1024     1   109.7800468 425.094400
    566    565   1038     1   109.7800468 425.094400
    566    565    567     1   108.4600466 328.025600
    567    565   1038     1   109.7800468 425.094400
    570    571    572     1   108.0100461 406.684800
    570    571    573     1   108.0100461 406.684800
    570    574    575     1   108.0100461 406.684800
    570    574    576     1   108.0100461 406.684800
    570    577    578     1   108.0100461 406.684800
    570    577    579     1   108.0100461 406.684800
    571    570    599     1   110.1100470 384.091200
    571    583    584     1   109.8000471 387.438400
    571    583    585     1   109.8000471 387.438400
    572    571    583     1   110.5600475 386.601600
    572    571    573     1   109.7500473 328.025600
    573    571    583     1   110.5600475 386.601600
    574    570    599     1   110.1100470 384.091200
    574    586    587     1   109.8000471 387.438400
    574    586    588     1   109.8000471 387.438400
    575    574    586     1   110.5600475 386.601600
    575    574    576     1   109.7500473 328.025600
    576    574    586     1   110.5600475 386.601600
    577    570    599     1   110.1100470 384.091200
    577    580    581     1   109.8000471 387.438400
    577    580    582     1   109.8000471 387.438400
    578    577    580     1   110.5600475 386.601600
    578    577    579     1   109.7500473 328.025600
    579    577    580     1   110.5600475 386.601600
    580    589    590     1   109.5600471 388.275200
    580    589    591     1   109.5600471 388.275200
    581    580    589     1   109.8000471 387.438400
    581    580    582     1   107.5800459 329.699200
    582    580    589     1   109.8000471 387.438400
    583    595    596     1   109.5600471 388.275200
    583    595    597     1   109.5600471 388.275200
    584    583    595     1   109.8000471 387.438400
    584    583    585     1   107.5800459 329.699200
    585    583    595     1   109.8000471 387.438400
    586    592    593     1   109.5600471 388.275200
    586    592    594     1   109.5600471 388.275200
    587    586    592     1   109.8000471 387.438400
    587    586    588     1   107.5800459 329.699200
    588    586    592     1   109.8000471 387.438400
    590    589    598     1   109.7800468 425.094400
    590    589    591     1   108.4600466 328.025600
    591    589    598     1   109.7800468 425.094400
    593    592   1052     1   109.7800468 425.094400
    593    592    594     1   108.4600466 328.025600
    594    592   1052     1   109.7800468 425.094400
    596    595   1066     1   109.7800468 425.094400
    596    595    597     1   108.4600466 328.025600
    597    595   1066     1   109.7800468 425.094400
    600    601    602     1   108.0100461 406.684800
    600    601    603     1   108.0100461 406.684800
    600    604    605     1   108.0100461 406.684800
    600    604    606     1   108.0100461 406.684800
    600    607    608     1   108.0100461 406.684800
    600    607    609     1   108.0100461 406.684800
    601    600    629     1   110.1100470 384.091200
    601    613    614     1   109.8000471 387.438400
    601    613    615     1   109.8000471 387.438400
    602    601    613     1   110.5600475 386.601600
    602    601    603     1   109.7500473 328.025600
    603    601    613     1   110.5600475 386.601600
    604    600    629     1   110.1100470 384.091200
    604    616    617     1   109.8000471 387.438400
    604    616    618     1   109.8000471 387.438400
    605    604    616     1   110.5600475 386.601600
    605    604    606     1   109.7500473 328.025600
    606    604    616     1   110.5600475 386.601600
    607    600    629     1   110.1100470 384.091200
    607    610    611     1   109.8000471 387.438400
    607    610    612     1   109.8000471 387.438400
    608    607    610     1   110.5600475 386.601600
    608    607    609     1   109.7500473 328.025600
    609    607    610     1   110.5600475 386.601600
    610    619    620     1   109.5600471 388.275200
    610    619    621     1   109.5600471 388.275200
    611    610    619     1   109.8000471 387.438400
    611    610    612     1   107.5800459 329.699200
    612    610    619     1   109.8000471 387.438400
    613    625    626     1   109.5600471 388.275200
    613    625    627     1   109.5600471 388.275200
    614    613    625     1   109.8000471 387.438400
    614    613    615     1   107.5800459 329.699200
    615    613    625     1   109.8000471 387.438400
    616    622    623     1   109.5600471 388.275200
    616    622    624     1   109.5600471 388.275200
    617    616    622     1   109.8000471 387.438400
    617    616    618     1   107.5800459 329.699200
    618    616    622     1   109.8000471 387.438400
    620    619    628     1   109.7800468 425.094400
    620    619    621     1   108.4600466 328.025600
    621    619    628     1   109.7800468 425.094400
    623    622   1080     1   109.7800468 425.094400
    623    622    624     1   108.4600466 328.025600
    624    622   1080     1   109.7800468 425.094400
    626    625   1094     1   109.7800468 425.094400
    626    625    627     1   108.4600466 328.025600
    627    625   1094     1   109.7800468 425.094400
    630    631    632     1   108.0100461 406.684800
    630    631    633     1   108.0100461 406.684800
    630    634    635     1   108.0100461 406.684800
    630    634    636     1   108.0100461 406.684800
    630    637    638     1   108.0100461 406.684800
    630    637    639     1   108.0100461 406.684800
    631    630    659     1   110.1100470 384.091200
    631    643    644     1   109.8000471 387.438400
    631    643    645     1   109.8000471 387.438400
    632    631    643     1   110.5600475 386.601600
    632    631    633     1   109.7500473 328.025600
    633    631    643     1   110.5600475 386.601600
    634    630    659     1   110.1100470 384.091200
    634    646    647     1   109.8000471 387.438400
    634    646    648     1   109.8000471 387.438400
    635    634    646     1   110.5600475 386.601600
    635    634    636     1   109.7500473 328.025600
    636    634    646     1   110.5600475 386.601600
    637    630    659     1   110.1100470 384.091200
    637    640    641     1   109.8000471 387.438400
    637    640    642     1   109.8000471 387.438400
    638    637    640     1   110.5600475 386.601600
    638    637    639     1   109.7500473 328.025600
    639    637    640     1   110.5600475 386.601600
    640    649    650     1   109.5600471 388.275200
    640    649    651     1   109.5600471 388.275200
    641    640    649     1   109.8000471 387.438400
    641    640    642     1   107.5800459 329.699200
    642    640    649     1   109.8000471 387.438400
    643    655    656     1   109.5600471 388.275200
    643    655    657     1   109.5600471 388.275200
    644    643    655     1   109.8000471 387.438400
    644    643    645     1   107.5800459 329.699200
    645    643    655     1   109.8000471 387.438400
    646    652    653     1   109.5600471 388.275200
    646    652    654     1   109.5600471 388.275200
    647    646    652     1   109.8000471 387.438400
    647    646    648     1   107.5800459 329.699200
    648    646    652     1   109.8000471 387.438400
    650    649    658     1   109.7800468 425.094400
    650    649    651     1   108.4600466 328.025600
    651    649    658     1   109.7800468 425.094400
    653    652   1108     1   109.7800468 425.094400
    653    652    654     1   108.4600466 328.025600
    654    652   1108     1   109.7800468 425.094400
    656    655   1122     1   109.7800468 425.094400
    656    655    657     1   108.4600466 328.025600
    657    655   1122     1   109.7800468 425.094400
    660    661    662     1   108.0100461 406.684800
    660    661    663     1   108.0100461 406.684800
    660    664    665     1   108.0100461 406.684800
    660    664    666     1   108.0100461 406.684800
    660    667    668     1   108.0100461 406.684800
    660    667    669     1   108.0100461 406.684800
    661    660    689     1   110.1100470 384.091200
    661    673    674     1   109.8000471 387.438400
    661    673    675     1   109.8000471 387.438400
    662    661    673     1   110.5600475 386.601600
    662    661    663     1   109.7500473 328.025600
    663    661    673     1   110.5600475 386.601600
    664    660    689     1   110.1100470 384.091200
    664    676    677     1   109.8000471 387.438400
    664    676    678     1   109.8000471 387.438400
    665    664    676     1   110.5600475 386.601600
    665    664    666     1   109.7500473 328.025600
    666    664    676     1   110.5600475 386.601600
    667    660    689     1   110.1100470 384.091200
    667    670    671     1   109.8000471 387.438400
    667    670    672     1   109.8000471 387.438400
    668    667    670     1   110.5600475 386.601600
    668    667    669     1   109.7500473 328.025600
    669    667    670     1   110.5600475 386.601600
    670    679    680     1   109.5600471 388.275200
    670    679    681     1   109.5600471 388.275200
    671    670    679     1   109.8000471 387.438400
    671    670    672     1   107.5800459 329.699200
    672    670    679     1   109.8000471 387.438400
    673    685    686     1   109.5600471 388.275200
    673    685    687     1   109.5600471 388.275200
    674    673    685     1   109.8000471 387.438400
    674    673    675     1   107.5800459 329.699200
    675    673    685     1   109.8000471 387.438400
    676    682    683     1   109.5600471 388.275200
    676    682    684     1   109.5600471 388.275200
    677    676    682     1   109.8000471 387.438400
    677    676    678     1   107.5800459 329.699200
    678    676    682     1   109.8000471 387.438400
    680    679    688     1   109.7800468 425.094400
    680    679    681     1   108.4600466 328.025600
    681    679    688     1   109.7800468 425.094400
    683    682   1136     1   109.7800468 425.094400
    683    682    684     1   108.4600466 328.025600
    684    682   1136     1   109.7800468 425.094400
    686    685   1150     1   109.7800468 425.094400
    686    685    687     1   108.4600466 328.025600
    687    685   1150     1   109.7800468 425.094400
    690    691    692     1   108.0100461 406.684800
    690    691    693     1   108.0100461 406.684800
    690    694    695     1   108.0100461 406.684800
    690    694    696     1   108.0100461 406.684800
    690    697    698     1   108.0100461 406.684800
    690    697    699     1   108.0100461 406.684800
    691    690    719     1   110.1100470 384.091200
    691    703    704     1   109.8000471 387.438400
    691    703    705     1   109.8000471 387.438400
    692    691    703     1   110.5600475 386.601600
    692    691    693     1   109.7500473 328.025600
    693    691    703     1   110.5600475 386.601600
    694    690    719     1   110.1100470 384.091200
    694    706    707     1   109.8000471 387.438400
    694    706    708     1   109.8000471 387.438400
    695    694    706     1   110.5600475 386.601600
    695    694    696     1   109.7500473 328.025600
    696    694    706     1   110.5600475 386.601600
    697    690    719     1   110.1100470 384.091200
    697    700    701     1   109.8000471 387.438400
    697    700    702     1   109.8000471 387.438400
    698    697    700     1   110.5600475 386.601600
    698    697    699     1   109.7500473 328.025600
    699    697    700     1   110.5600475 386.601600
    700    709    710     1   109.5600471 388.275200
    700    709    711     1   109.5600471 388.275200
    701    700    709     1   109.8000471 387.438400
    701    700    702     1   107.5800459 329.699200
    702    700    709     1   109.8000471 387.438400
    703    715    716     1   109.5600471 388.275200
    703    715    717     1   109.5600471 388.275200
    704    703    715     1   109.8000471 387.438400
    704    703    705     1   107.5800459 329.699200
    705    703    715     1   109.8000471 387.438400
    706    712    713     1   109.5600471 388.275200
    706    712    714     1   109.5600471 388.275200
    707    706    712     1   109.8000471 387.438400
    707    706    708     1   107.5800459 329.699200
    708    706    712     1   109.8000471 387.438400
    710    709    718     1   109.7800468 425.094400
    710    709    711     1   108.4600466 328.025600
    711    709    718     1   109.7800468 425.094400
    713    712   1164     1   109.7800468 425.094400
    713    712    714     1   108.4600466 328.025600
    714    712   1164     1   109.7800468 425.094400
    716    715   1178     1   109.7800468 425.094400
    716    715    717     1   108.4600466 328.025600
    717    715   1178     1   109.7800468 425.094400
    720    721    722     1   108.0100461 406.684800
    720    721    723     1   108.0100461 406.684800
    720    724    725     1   108.0100461 406.684800
    720    724    726     1   108.0100461 406.684800
    720    727    728     1   108.0100461 406.684800
    720    727    729     1   108.0100461 406.684800
    721    720    749     1   110.1100470 384.091200
    721    733    734     1   109.8000471 387.438400
    721    733    735     1   109.8000471 387.438400
    722    721    733     1   110.5600475 386.601600
    722    721    723     1   109.7500473 328.025600
    723    721    733     1   110.5600475 386.601600
    724    720    749     1   110.1100470 384.091200
    724    736    737     1   109.8000471 387.438400
    724    736    738     1   109.8000471 387.438400
    725    724    736     1   110.5600475 386.601600
    725    724    726     1   109.7500473 328.025600
    726    724    736     1   110.5600475 386.601600
    727    720    749     1   110.1100470 384.091200
    727    730    731     1   109.8000471 387.438400
    727    730    732     1   109.8000471 387.438400
    728    727    730     1   110.5600475 386.601600
    728    727    729     1   109.7500473 328.025600
    729    727    730     1   110.5600475 386.601600
    730    739    740     1   109.5600471 388.275200
    730    739    741     1   109.5600471 388.275200
    731    730    739     1   109.8000471 387.438400
    731    730    732     1   107.5800459 329.699200
    732    730    739     1   109.8000471 387.438400
    733    745    746     1   109.5600471 388.275200
    733    745    747     1   109.5600471 388.275200
    734    733    745     1   109.8000471 387.438400
    734    733    735     1   107.5800459 329.699200
    735    733    745     1   109.8000471 387.438400
    736    742    743     1   109.5600471 388.275200
    736    742    744     1   109.5600471 388.275200
    737    736    742     1   109.8000471 387.438400
    737    736    738     1   107.5800459 329.699200
    738    736    742     1   109.8000471 387.438400
    740    739    748     1   109.7800468 425.094400
    740    739    741     1   108.4600466 328.025600
    741    739    748     1   109.7800468 425.094400
    743    742   1192     1   109.7800468 425.094400
    743    742    744     1   108.4600466 328.025600
    744    742   1192     1   109.7800468 425.094400
    746    745   1206     1   109.7800468 425.094400
    746    745    747     1   108.4600466 328.025600
    747    745   1206     1   109.7800468 425.094400
    750    751    752     1   108.0100461 406.684800
    750    751    753     1   108.0100461 406.684800
    750    754    755     1   108.0100461 406.684800
    750    754    756     1   108.0100461 406.684800
    750    757    758     1   108.0100461 406.684800
    750    757    759     1   108.0100461 406.684800
    751    750    779     1   110.1100470 384.091200
    751    763    764     1   109.8000471 387.438400
    751    763    765     1   109.8000471 387.438400
    752    751    763     1   110.5600475 386.601600
    752    751    753     1   109.7500473 328.025600
    753    751    763     1   110.5600475 386.601600
    754    750    779     1   110.1100470 384.091200
    754    766    767     1   109.8000471 387.438400
    754    766    768     1   109.8000471 387.438400
    755    754    766     1   110.5600475 386.601600
    755    754    756     1   109.7500473 328.025600
    756    754    766     1   110.5600475 386.601600
    757    750    779     1   110.1100470 384.091200
    757    760    761     1   109.8000471 387.438400
    757    760    762     1   109.8000471 387.438400
    758    757    760     1   110.5600475 386.601600
    758    757    759     1   109.7500473 328.025600
    759    757    760     1   110.5600475 386.601600
    760    769    770     1   109.5600471 388.275200
    760    769    771     1   109.5600471 388.275200
    761    760    769     1   109.8000471 387.438400
    761    760    762     1   107.5800459 329.699200
    762    760    769     1   109.8000471 387.438400
    763    775    776     1   109.5600471 388.275200
    763    775    777     1   109.5600471 388.275200
    764    763    775     1   109.8000471 387.438400
    764    763    765     1   107.5800459 329.699200
    765    763    775     1   109.8000471 387.438400
    766    772    773     1   109.5600471 388.275200
    766    772    774     1   109.5600471 388.275200
    767    766    772     1   109.8000471 387.438400
    767    766    768     1   107.5800459 329.699200
    768    766    772     1   109.8000471 387.438400
    770    769    778     1   109.7800468 425.094400
    770    769    771     1   108.4600466 328.025600
    771    769    778     1   109.7800468 425.094400
    773    772   1220     1   109.7800468 425.094400
    773    772    774     1   108.4600466 328.025600
    774    772   1220     1   109.7800468 425.094400
    776    775   1234     1   109.7800468 425.094400
    776    775    777     1   108.4600466 328.025600
    777    775   1234     1   109.7800468 425.094400
    780    781    782     1   108.0100461 406.684800
    780    781    783     1   108.0100461 406.684800
    780    784    785     1   108.0100461 406.684800
    780    784    786     1   108.0100461 406.684800
    780    787    788     1   108.0100461 406.684800
    780    787    789     1   108.0100461 406.684800
    781    780    809     1   110.1100470 384.091200
    781    793    794     1   109.8000471 387.438400
    781    793    795     1   109.8000471 387.438400
    782    781    793     1   110.5600475 386.601600
    782    781    783     1   109.7500473 328.025600
    783    781    793     1   110.5600475 386.601600
    784    780    809     1   110.1100470 384.091200
    784    796    797     1   109.8000471 387.438400
    784    796    798     1   109.8000471 387.438400
    785    784    796     1   110.5600475 386.601600
    785    784    786     1   109.7500473 328.025600
    786    784    796     1   110.5600475 386.601600
    787    780    809     1   110.1100470 384.091200
    787    790    791     1   109.8000471 387.438400
    787    790    792     1   109.8000471 387.438400
    788    787    790     1   110.5600475 386.601600
    788    787    789     1   109.7500473 328.025600
    789    787    790     1   110.5600475 386.601600
    790    799    800     1   109.5600471 388.275200
    790    799    801     1   109.5600471 388.275200
    791    790    799     1   109.8000471 387.438400
    791    790    792     1   107.5800459 329.699200
    792    790    799     1   109.8000471 387.438400
    793    805    806     1   109.5600471 388.275200
    793    805    807     1   109.5600471 388.275200
    794    793    805     1   109.8000471 387.438400
    794    793    795     1   107.5800459 329.699200
    795    793    805     1   109.8000471 387.438400
    796    802    803     1   109.5600471 388.275200
    796    802    804     1   109.5600471 388.275200
    797    796    802     1   109.8000471 387.438400
    797    796    798     1   107.5800459 329.699200
    798    796    802     1   109.8000471 387.438400
    800    799    808     1   109.7800468 425.094400
    800    799    801     1   108.4600466 328.025600
    801    799    808     1   109.7800468 425.094400
    803    802   1248     1   109.7800468 425.094400
    803    802    804     1   108.4600466 328.025600
    804    802   1248     1   109.7800468 425.094400
    806    805   1262     1   109.7800468 425.094400
    806    805    807     1   108.4600466 328.025600
    807    805   1262     1   109.7800468 425.094400
    810    811    812     1   108.0100461 406.684800
    810    811    813     1   108.0100461 406.684800
    810    814    815     1   108.0100461 406.684800
    810    814    816     1   108.0100461 406.684800
    810    817    818     1   108.0100461 406.684800
    810    817    819     1   108.0100461 406.684800
    811    810    839     1   110.1100470 384.091200
    811    823    824     1   109.8000471 387.438400
    811    823    825     1   109.8000471 387.438400
    812    811    823     1   110.5600475 386.601600
    812    811    813     1   109.7500473 328.025600
    813    811    823     1   110.5600475 386.601600
    814    810    839     1   110.1100470 384.091200
    814    826    827     1   109.8000471 387.438400
    814    826    828     1   109.8000471 387.438400
    815    814    826     1   110.5600475 386.601600
    815    814    816     1   109.7500473 328.025600
    816    814    826     1   110.5600475 386.601600
    817    810    839     1   110.1100470 384.091200
    817    820    821     1   109.8000471 387.438400
    817    820    822     1   109.8000471 387.438400
    818    817    820     1   110.5600475 386.601600
    818    817    819     1   109.7500473 328.025600
    819    817    820     1   110.5600475 386.601600
    820    829    830     1   109.5600471 388.275200
    820    829    831     1   109.5600471 388.275200
    821    820    829     1   109.8000471 387.438400
    821    820    822     1   107.5800459 329.699200
    822    820    829     1   109.8000471 387.438400
    823    835    836     1   109.5600471 388.275200
    823    835    837     1   109.5600471 388.275200
    824    823    835     1   109.8000471 387.438400
    824    823    825     1   107.5800459 329.699200
    825    823    835     1   109.8000471 387.438400
    826    832    833     1   109.5600471 388.275200
    826    832    834     1   109.5600471 388.275200
    827    826    832     1   109.8000471 387.438400
    827    826    828     1   107.5800459 329.699200
    828    826    832     1   109.8000471 387.438400
    830    829    838     1   109.7800468 425.094400
    830    829    831     1   108.4600466 328.025600
    831    829    838     1   109.7800468 425.094400
    833    832   1276     1   109.7800468 425.094400
    833    832    834     1   108.4600466 328.025600
    834    832   1276     1   109.7800468 425.094400
    836    835   1290     1   109.7800468 425.094400
    836    835    837     1   108.4600466 328.025600
    837    835   1290     1   109.7800468 425.094400
    840    841    842     1   108.0100461 406.684800
    840    841    843     1   108.0100461 406.684800
    840    844    845     1   108.0100461 406.684800
    840    844    846     1   108.0100461 406.684800
    840    847    848     1   108.0100461 406.684800
    840    847    849     1   108.0100461 406.684800
    841    840    869     1   110.1100470 384.091200
    841    853    854     1   109.8000471 387.438400
    841    853    855     1   109.8000471 387.438400
    842    841    853     1   110.5600475 386.601600
    842    841    843     1   109.7500473 328.025600
    843    841    853     1   110.5600475 386.601600
    844    840    869     1   110.1100470 384.091200
    844    856    857     1   109.8000471 387.438400
    844    856    858     1   109.8000471 387.438400
    845    844    856     1   110.5600475 386.601600
    845    844    846     1   109.7500473 328.025600
    846    844    856     1   110.5600475 386.601600
    847    840    869     1   110.1100470 384.091200
    847    850    851     1   109.8000471 387.438400
    847    850    852     1   109.8000471 387.438400
    848    847    850     1   110.5600475 386.601600
    848    847    849     1   109.7500473 328.025600
    849    847    850     1   110.5600475 386.601600
    850    859    860     1   109.5600471 388.275200
    850    859    861     1   109.5600471 388.275200
    851    850    859     1   109.8000471 387.438400
    851    850    852     1   107.5800459 329.699200
    852    850    859     1   109.8000471 387.438400
    853    865    866     1   109.5600471 388.275200
    853    865    867     1   109.5600471 388.275200
    854    853    865     1   109.8000471 387.438400
    854    853    855     1   107.5800459 329.699200
    855    853    865     1   109.8000471 387.438400
    856    862    863     1   109.5600471 388.275200
    856    862    864     1   109.5600471 388.275200
    857    856    862     1   109.8000471 387.438400
    857    856    858     1   107.5800459 329.699200
    858    856    862     1   109.8000471 387.438400
    860    859    868     1   109.7800468 425.094400
    860    859    861     1   108.4600466 328.025600
    861    859    868     1   109.7800468 425.094400
    863    862   1304     1   109.7800468 425.094400
    863    862    864     1   108.4600466 328.025600
    864    862   1304     1   109.7800468 425.094400
    866    865   1318     1   109.7800468 425.094400
    866    865    867     1   108.4600466 328.025600
    867    865   1318     1   109.7800468 425.094400
    870    871    872     1   108.0100461 406.684800
    870    871    873     1   108.0100461 406.684800
    870    874    875     1   108.0100461 406.684800
    870    874    876     1   108.0100461 406.684800
    870    877    878     1   108.0100461 406.684800
    870    877    879     1   108.0100461 406.684800
    871    870    899     1   110.1100470 384.091200
    871    883    884     1   109.8000471 387.438400
    871    883    885     1   109.8000471 387.438400
    872    871    883     1   110.5600475 386.601600
    872    871    873     1   109.7500473 328.025600
    873    871    883     1   110.5600475 386.601600
    874    870    899     1   110.1100470 384.091200
    874    886    887     1   109.8000471 387.438400
    874    886    888     1   109.8000471 387.438400
    875    874    886     1   110.5600475 386.601600
    875    874    876     1   109.7500473 328.025600
    876    874    886     1   110.5600475 386.601600
    877    870    899     1   110.1100470 384.091200
    877    880    881     1   109.8000471 387.438400
    877    880    882     1   109.8000471 387.438400
    878    877    880     1   110.5600475 386.601600
    878    877    879     1   109.7500473 328.025600
    879    877    880     1   110.5600475 386.601600
    880    889    890     1   109.5600471 388.275200
    880    889    891     1   109.5600471 388.275200
    881    880    889     1   109.8000471 387.438400
    881    880    882     1   107.5800459 329.699200
    882    880    889     1   109.8000471 387.438400
    883    895    896     1   109.5600471 388.275200
    883    895    897     1   109.5600471 388.275200
    884    883    895     1   109.8000471 387.438400
    884    883    885     1   107.5800459 329.699200
    885    883    895     1   109.8000471 387.438400
    886    892    893     1   109.5600471 388.275200
    886    892    894     1   109.5600471 388.275200
    887    886    892     1   109.8000471 387.438400
    887    886    888     1   107.5800459 329.699200
    888    886    892     1   109.8000471 387.438400
    890    889    898     1   109.7800468 425.094400
    890    889    891     1   108.4600466 328.025600
    891    889    898     1   109.7800468 425.094400
    893    892   1332     1   109.7800468 425.094400
    893    892    894     1   108.4600466 328.025600
    894    892   1332     1   109.7800468 425.094400
    896    895   1346     1   109.7800468 425.094400
    896    895    897     1   108.4600466 328.025600
    897    895   1346     1   109.7800468 425.094400
    900    903    904     1   109.8000471 387.438400
    900    903    905     1   109.8000471 387.438400
    900    909    910     1   110.1100470 384.091200
    900    909    911     1   110.1100470 384.091200
    900    909    913     1   110.1100470 384.091200
    901    900    903     1   110.5600475 386.601600
    901    900    909     1   108.0100461 406.684800
    901    900    902     1   109.7500473 328.025600
    902    900    903     1   110.5600475 386.601600
    902    900    909     1   108.0100461 406.684800
    903    906    907     1   109.5600471 388.275200
    903    906    908     1   109.5600471 388.275200
    904    903    906     1   109.8000471 387.438400
    904    903    905     1   107.5800459 329.699200
    905    903    906     1   109.8000471 387.438400
    907    906    912     1   109.7800468 425.094400
    907    906    908     1   108.4600466 328.025600
    908    906    912     1   109.7800468 425.094400
    910    909    911     1   108.3000464 339.740800
    910    909    913     1   108.3000464 339.740800
    911    909    913     1   108.3000464 339.740800
    914    917    918     1   109.8000471 387.438400
    914    917    919     1   109.8000471 387.438400
    914    923    924     1   110.1100470 384.091200
    914    923    925     1   110.1100470 384.091200
    914    923    927     1   110.1100470 384.091200
    915    914    917     1   110.5600475 386.601600
    915    914    923     1   108.0100461 406.684800
    915    914    916     1   109.7500473 328.025600
    916    914    917     1   110.5600475 386.601600
    916    914    923     1   108.0100461 406.684800
    917    920    921     1   109.5600471 388.275200
    917    920    922     1   109.5600471 388.275200
    918    917    920     1   109.8000471 387.438400
    918    917    919     1   107.5800459 329.699200
    919    917    920     1   109.8000471 387.438400
    921    920    926     1   109.7800468 425.094400
    921    920    922     1   108.4600466 328.025600
    922    920    926     1   109.7800468 425.094400
    924    923    925     1   108.3000464 339.740800
    924    923    927     1   108.3000464 339.740800
    925    923    927     1   108.3000464 339.740800
    928    931    932     1   109.8000471 387.438400
    928    931    933     1   109.8000471 387.438400
    928    937    938     1   110.1100470 384.091200
    928    937    939     1   110.1100470 384.091200
    928    937    941     1   110.1100470 384.091200
    929    928    931     1   110.5600475 386.601600
    929    928    937     1   108.0100461 406.684800
    929    928    930     1   109.7500473 328.025600
    930    928    931     1   110.5600475 386.601600
    930    928    937     1   108.0100461 406.684800
    931    934    935     1   109.5600471 388.275200
    931    934    936     1   109.5600471 388.275200
    932    931    934     1   109.8000471 387.438400
    932    931    933     1   107.5800459 329.699200
    933    931    934     1   109.8000471 387.438400
    935    934    940     1   109.7800468 425.094400
    935    934    936     1   108.4600466 328.025600
    936    934    940     1   109.7800468 425.094400
    938    937    939     1   108.3000464 339.740800
    938    937    941     1   108.3000464 339.740800
    939    937    941     1   108.3000464 339.740800
    942    945    946     1   109.8000471 387.438400
    942    945    947     1   109.8000471 387.438400
    942    951    952     1   110.1100470 384.091200
    942    951    953     1   110.1100470 384.091200
    942    951    955     1   110.1100470 384.091200
    943    942    945     1   110.5600475 386.601600
    943    942    951     1   108.0100461 406.684800
    943    942    944     1   109.7500473 328.025600
    944    942    945     1   110.5600475 386.601600
    944    942    951     1   108.0100461 406.684800
    945    948    949     1   109.5600471 388.275200
    945    948    950     1   109.5600471 388.275200
    946    945    948     1   109.8000471 387.438400
    946    945    947     1   107.5800459 329.699200
    947    945    948     1   109.8000471 387.438400
    949    948    954     1   109.7800468 425.094400
    949    948    950     1   108.4600466 328.025600
    950    948    954     1   109.7800468 425.094400
    952    951    953     1   108.3000464 339.740800
    952    951    955     1   108.3000464 339.740800
    953    951    955     1   108.3000464 339.740800
    956    959    960     1   109.8000471 387.438400
    956    959    961     1   109.8000471 387.438400
    956    965    966     1   110.1100470 384.091200
    956    965    967     1   110.1100470 384.091200
    956    965    969     1   110.1100470 384.091200
    957    956    959     1   110.5600475 386.601600
    957    956    965     1   108.0100461 406.684800
    957    956    958     1   109.7500473 328.025600
    958    956    959     1   110.5600475 386.601600
    958    956    965     1   108.0100461 406.684800
    959    962    963     1   109.5600471 388.275200
    959    962    964     1   109.5600471 388.275200
    960    959    962     1   109.8000471 387.438400
    960    959    961     1   107.5800459 329.699200
    961    959    962     1   109.8000471 387.438400
    963    962    968     1   109.7800468 425.094400
    963    962    964     1   108.4600466 328.025600
    964    962    968     1   109.7800468 425.094400
    966    965    967     1   108.3000464 339.740800
    966    965    969     1   108.3000464 339.740800
    967    965    969     1   108.3000464 339.740800
    970    973    974     1   109.8000471 387.438400
    970    973    975     1   109.8000471 387.438400
    970    979    980     1   110.1100470 384.091200
    970    979    981     1   110.1100470 384.091200
    970    979    983     1   110.1100470 384.091200
    971    970    973     1   110.5600475 386.601600
    971    970    979     1   108.0100461 406.684800
    971    970    972     1   109.7500473 328.025600
    972    970    973     1   110.5600475 386.601600
    972    970    979     1   108.0100461 406.684800
    973    976    977     1   109.5600471 388.275200
    973    976    978     1   109.5600471 388.275200
    974    973    976     1   109.8000471 387.438400
    974    973    975     1   107.5800459 329.699200
    975    973    976     1   109.8000471 387.438400
    977    976    982     1   109.7800468 425.094400
    977    976    978     1   108.4600466 328.025600
    978    976    982     1   109.7800468 425.094400
    980    979    981     1   108.3000464 339.740800
    980    979    983     1   108.3000464 339.740800
    981    979    983     1   108.3000464 339.740800
    984    987    988     1   109.8000471 387.438400
    984    987    989     1   109.8000471 387.438400
    984    993    994     1   110.1100470 384.091200
    984    993    995     1   110.1100470 384.091200
    984    993    997     1   110.1100470 384.091200
    985    984    987     1   110.5600475 386.601600
    985    984    993     1   108.0100461 406.684800
    985    984    986     1   109.7500473 328.025600
    986    984    987     1   110.5600475 386.601600
    986    984    993     1   108.0100461 406.684800
    987    990    991     1   109.5600471 388.275200
    987    990    992     1   109.5600471 388.275200
    988    987    990     1   109.8000471 387.438400
    988    987    989     1   107.5800459 329.699200
    989    987    990     1   109.8000471 387.438400
    991    990    996     1   109.7800468 425.094400
    991    990    992     1   108.4600466 328.025600
    992    990    996     1   109.7800468 425.094400
    994    993    995     1   108.3000464 339.740800
    994    993    997     1   108.3000464 339.740800
    995    993    997     1   108.3000464 339.740800
    998   1001   1002     1   109.8000471 387.438400
    998   1001   1003     1   109.8000471 387.438400
    998   1007   1008     1   110.1100470 384.091200
    998   1007   1009     1   110.1100470 384.091200
    998   1007   1011     1   110.1100470 384.091200
    999    998   1001     1   110.5600475 386.601600
    999    998   1007     1   108.0100461 406.684800
    999    998   1000     1   109.7500473 328.025600
   1000    998   1001     1   110.5600475 386.601600
   1000    998   1007     1   108.0100461 406.684800
   1001   1004   1005     1   109.5600471 388.275200
   1001   1004   1006     1   109.5600471 388.275200
   1002   1001   1004     1   109.8000471 387.438400
   1002   1001   1003     1   107.5800459 329.699200
   1003   1001   1004     1   109.8000471 387.438400
   1005   1004   1010     1   109.7800468 425.094400
   1005   1004   1006     1   108.4600466 328.025600
   1006   1004   1010     1   109.7800468 425.094400
   1008   1007   1009     1   108.3000464 339.740800
   1008   1007   1011     1   108.3000464 339.740800
   1009   1007   1011     1   108.3000464 339.740800
   1012   1015   1016     1   109.8000471 387.438400
   1012   1015   1017     1   109.8000471 387.438400
   1012   1021   1022     1   110.1100470 384.091200
   1012   1021   1023     1   110.1100470 384.091200
   1012   1021   1025     1   110.1100470 384.091200
   1013   1012   1015     1   110.5600475 386.601600
   1013   1012   1021     1   108.0100461 406.684800
   1013   1012   1014     1   109.7500473 328.025600
   1014   1012   1015     1   110.5600475 386.601600
   1014   1012   1021     1   108.0100461 406.684800
   1015   1018   1019     1   109.5600471 388.275200
   1015   1018   1020     1   109.5600471 388.275200
   1016   1015   1018     1   109.8000471 387.438400
   1016   1015   1017     1   107.5800459 329.699200
   1017   1015   1018     1   109.8000471 387.438400
   1019   1018   1024     1   109.7800468 425.094400
   1019   1018   1020     1   108.4600466 328.025600
   1020   1018   1024     1   109.7800468 425.094400
   1022   1021   1023     1   108.3000464 339.740800
   1022   1021   1025     1   108.3000464 339.740800
   1023   1021   1025     1   108.3000464 339.740800
   1026   1029   1030     1   109.8000471 387.438400
   1026   1029   1031     1   109.8000471 387.438400
   1026   1035   1036     1   110.1100470 384.091200
   1026   1035   1037     1   110.1100470 384.091200
   1026   1035   1039     1   110.1100470 384.091200
   1027   1026   1029     1   110.5600475 386.601600
   1027   1026   1035     1   108.0100461 406.684800
   1027   1026   1028     1   109.7500473 328.025600
   1028   1026   1029     1   110.5600475 386.601600
   1028   1026   1035     1   108.0100461 406.684800
   1029   1032   1033     1   109.5600471 388.275200
   1029   1032   1034     1   109.5600471 388.275200
   1030   1029   1032     1   109.8000471 387.438400
   1030   1029   1031     1   107.5800459 329.699200
   1031   1029   1032     1   109.8000471 387.438400
   1033   1032   1038     1   109.7800468 425.094400
   1033   1032   1034     1   108.4600466 328.025600
   1034   1032   1038     1   109.7800468 425.094400
   1036   1035   1037     1   108.3000464 339.740800
   1036   1035   1039     1   108.3000464 339.740800
   1037   1035   1039     1   108.3000464 339.740800
   1040   1043   1044     1   109.8000471 387.438400
   1040   1043   1045     1   109.8000471 387.438400
   1040   1049   1050     1   110.1100470 384.091200
   1040   1049   1051     1   110.1100470 384.091200
   1040   1049   1053     1   110.1100470 384.091200
   1041   1040   1043     1   110.5600475 386.601600
   1041   1040   1049     1   108.0100461 406.684800
   1041   1040   1042     1   109.7500473 328.025600
   1042   1040   1043     1   110.5600475 386.601600
   1042   1040   1049     1   108.0100461 406.684800
   1043   1046   1047     1   109.5600471 388.275200
   1043   1046   1048     1   109.5600471 388.275200
   1044   1043   1046     1   109.8000471 387.438400
   1044   1043   1045     1   107.5800459 329.699200
   1045   1043   1046     1   109.8000471 387.438400
   1047   1046   1052     1   109.7800468 425.094400
   1047   1046   1048     1   108.4600466 328.025600
   1048   1046   1052     1   109.7800468 425.094400
   1050   1049   1051     1   108.3000464 339.740800
   1050   1049   1053     1   108.3000464 339.740800
   1051   1049   1053     1   108.3000464 339.740800
   1054   1057   1058     1   109.8000471 387.438400
   1054   1057   1059     1   109.8000471 387.438400
   1054   1063   1064     1   110.1100470 384.091200
   1054   1063   1065     1   110.1100470 384.091200
   1054   1063   1067     1   110.1100470 384.091200
   1055   1054   1057     1   110.5600475 386.601600
   1055   1054   1063     1   108.0100461 406.684800
   1055   1054   1056     1   109.7500473 328.025600
   1056   1054   1057     1   110.5600475 386.601600
   1056   1054   1063     1   108.0100461 406.684800
   1057   1060   1061     1   109.5600471 388.275200
   1057   1060   1062     1   109.5600471 388.275200
   1058   1057   1060     1   109.8000471 387.438400
   1058   1057   1059     1   107.5800459 329.699200
   1059   1057   1060     1   109.8000471 387.438400
   1061   1060   1066     1   109.7800468 425.094400
   1061   1060   1062     1   108.4600466 328.025600
   1062   1060   1066     1   109.7800468 425.094400
   1064   1063   1065     1   108.3000464 339.740800
   1064   1063   1067     1   108.3000464 339.740800
   1065   1063   1067     1   108.3000464 339.740800
   1068   1071   1072     1   109.8000471 387.438400
   1068   1071   1073     1   109.8000471 387.438400
   1068   1077   1078     1   110.1100470 384.091200
   1068   1077   1079     1   110.1100470 384.091200
   1068   1077   1081     1   110.1100470 384.091200
   1069   1068   1071     1   110.5600475 386.601600
   1069   1068   1077     1   108.0100461 406.684800
   1069   1068   1070     1   109.7500473 328.025600
   1070   1068   1071     1   110.5600475 386.601600
   1070   1068   1077     1   108.0100461 406.684800
   1071   1074   1075     1   109.5600471 388.275200
   1071   1074   1076     1   109.5600471 388.275200
   1072   1071   1074     1   109.8000471 387.438400
   1072   1071   1073     1   107.5800459 329.699200
   1073   1071   1074     1   109.8000471 387.438400
   1075   1074   1080     1   109.7800468 425.094400
   1075   1074   1076     1   108.4600466 328.025600
   1076   1074   1080     1   109.7800468 425.094400
   1078   1077   1079     1   108.3000464 339.740800
   1078   1077   1081     1   108.3000464 339.740800
   1079   1077   1081     1   108.3000464 339.740800
   1082   1085   1086     1   109.8000471 387.438400
   1082   1085   1087     1   109.8000471 387.438400
   1082   1091   1092     1   110.1100470 384.091200
   1082   1091   1093     1   110.1100470 384.091200
   1082   1091   1095     1   110.1100470 384.091200
   1083   1082   1085     1   110.5600475 386.601600
   1083   1082   1091     1   108.0100461 406.684800
   1083   1082   1084     1   109.7500473 328.025600
   1084   1082   1085     1   110.5600475 386.601600
   1084   1082   1091     1   108.0100461 406.684800
   1085   1088   1089     1   109.5600471 388.275200
   1085   1088   1090     1   109.5600471 388.275200
   1086   1085   1088     1   109.8000471 387.438400
   1086   1085   1087     1   107.5800459 329.699200
   1087   1085   1088     1   109.8000471 387.438400
   1089   1088   1094     1   109.7800468 425.094400
   1089   1088   1090     1   108.4600466 328.025600
   1090   1088   1094     1   109.7800468 425.094400
   1092   1091   1093     1   108.3000464 339.740800
   1092   1091   1095     1   108.3000464 339.740800
   1093   1091   1095     1   108.3000464 339.740800
   1096   1099   1100     1   109.8000471 387.438400
   1096   1099   1101     1   109.8000471 387.438400
   1096   1105   1106     1   110.1100470 384.091200
   1096   1105   1107     1   110.1100470 384.091200
   1096   1105   1109     1   110.1100470 384.091200
   1097   1096   1099     1   110.5600475 386.601600
   1097   1096   1105     1   108.0100461 406.684800
   1097   1096   1098     1   109.7500473 328.025600
   1098   1096   1099     1   110.5600475 386.601600
   1098   1096   1105     1   108.0100461 406.684800
   1099   1102   1103     1   109.5600471 388.275200
   1099   1102   1104     1   109.5600471 388.275200
   1100   1099   1102     1   109.8000471 387.438400
   1100   1099   1101     1   107.5800459 329.699200
   1101   1099   1102     1   109.8000471 387.438400
   1103   1102   1108     1   109.7800468 425.094400
   1103   1102   1104     1   108.4600466 328.025600
   1104   1102   1108     1   109.7800468 425.094400
   1106   1105   1107     1   108.3000464 339.740800
   1106   1105   1109     1   108.3000464 339.740800
   1107   1105   1109     1   108.3000464 339.740800
   1110   1113   1114     1   109.8000471 387.438400
   1110   1113   1115     1   109.8000471 387.438400
   1110   1119   1120     1   110.1100470 384.091200
   1110   1119   1121     1   110.1100470 384.091200
   1110   1119   1123     1   110.1100470 384.091200
   1111   1110   1113     1   110.5600475 386.601600
   1111   1110   1119     1   108.0100461 406.684800
   1111   1110   1112     1   109.7500473 328.025600
   1112   1110   1113     1   110.5600475 386.601600
   1112   1110   1119     1   108.0100461 406.684800
   1113   1116   1117     1   109.5600471 388.275200
   1113   1116   1118     1   109.5600471 388.275200
   1114   1113   1116     1   109.8000471 387.438400
   1114   1113   1115     1   107.5800459 329.699200
   1115   1113   1116     1   109.8000471 387.438400
   1117   1116   1122     1   109.7800468 425.094400
   1117   1116   1118     1   108.4600466 328.025600
   1118   1116   1122     1   109.7800468 425.094400
   1120   1119   1121     1   108.3000464 339.740800
   1120   1119   1123     1   108.3000464 339.740800
   1121   1119   1123     1   108.3000464 339.740800
   1124   1127   1128     1   109.8000471 387.438400
   1124   1127   1129     1   109.8000471 387.438400
   1124   1133   1134     1   110.1100470 384.091200
   1124   1133   1135     1   110.1100470 384.091200
   1124   1133   1137     1   110.1100470 384.091200
   1125   1124   1127     1   110.5600475 386.601600
   1125   1124   1133     1   108.0100461 406.684800
   1125   1124   1126     1   109.7500473 328.025600
   1126   1124   1127     1   110.5600475 386.601600
   1126   1124   1133     1   108.0100461 406.684800
   1127   1130   1131     1   109.5600471 388.275200
   1127   1130   1132     1   109.5600471 388.275200
   1128   1127   1130     1   109.8000471 387.438400
   1128   1127   1129     1   107.5800459 329.699200
   1129   1127   1130     1   109.8000471 387.438400
   1131   1130   1136     1   109.7800468 425.094400
   1131   1130   1132     1   108.4600466 328.025600
   1132   1130   1136     1   109.7800468 425.094400
   1134   1133   1135     1   108.3000464 339.740800
   1134   1133   1137     1   108.3000464 339.740800
   1135   1133   1137     1   108.3000464 339.740800
   1138   1141   1142     1   109.8000471 387.438400
   1138   1141   1143     1   109.8000471 387.438400
   1138   1147   1148     1   110.1100470 384.091200
   1138   1147   1149     1   110.1100470 384.091200
   1138   1147   1151     1   110.1100470 384.091200
   1139   1138   1141     1   110.5600475 386.601600
   1139   1138   1147     1   108.0100461 406.684800
   1139   1138   1140     1   109.7500473 328.025600
   1140   1138   1141     1   110.5600475 386.601600
   1140   1138   1147     1   108.0100461 406.684800
   1141   1144   1145     1   109.5600471 388.275200
   1141   1144   1146     1   109.5600471 388.275200
   1142   1141   1144     1   109.8000471 387.438400
   1142   1141   1143     1   107.5800459 329.699200
   1143   1141   1144     1   109.8000471 387.438400
   1145   1144   1150     1   109.7800468 425.094400
   1145   1144   1146     1   108.4600466 328.025600
   1146   1144   1150     1   109.7800468 425.094400
   1148   1147   1149     1   108.3000464 339.740800
   1148   1147   1151     1   108.3000464 339.740800
   1149   1147   1151     1   108.3000464 339.740800
   1152   1155   1156     1   109.8000471 387.438400
   1152   1155   1157     1   109.8000471 387.438400
   1152   1161   1162     1   110.1100470 384.091200
   1152   1161   1163     1   110.1100470 384.091200
   1152   1161   1165     1   110.1100470 384.091200
   1153   1152   1155     1   110.5600475 386.601600
   1153   1152   1161     1   108.0100461 406.684800
   1153   1152   1154     1   109.7500473 328.025600
   1154   1152   1155     1   110.5600475 386.601600
   1154   1152   1161     1   108.0100461 406.684800
   1155   1158   1159     1   109.5600471 388.275200
   1155   1158   1160     1   109.5600471 388.275200
   1156   1155   1158     1   109.8000471 387.438400
   1156   1155   1157     1   107.5800459 329.699200
   1157   1155   1158     1   109.8000471 387.438400
   1159   1158   1164     1   109.7800468 425.094400
   1159   1158   1160     1   108.4600466 328.025600
   1160   1158   1164     1   109.7800468 425.094400
   1162   1161   1163     1   108.3000464 339.740800
   1162   1161   1165     1   108.3000464 339.740800
   1163   1161   1165     1   108.3000464 339.740800
   1166   1169   1170     1   109.8000471 387.438400
   1166   1169   1171     1   109.8000471 387.438400
   1166   1175   1176     1   110.1100470 384.091200
   1166   1175   1177     1   110.1100470 384.091200
   1166   1175   1179     1   110.1100470 384.091200
   1167   1166   1169     1   110.5600475 386.601600
   1167   1166   1175     1   108.0100461 406.684800
   1167   1166   1168     1   109.7500473 328.025600
   1168   1166   1169     1   110.5600475 386.601600
   1168   1166   1175     1   108.0100461 406.684800
   1169   1172   1173     1   109.5600471 388.275200
   1169   1172   1174     1   109.5600471 388.275200
   1170   1169   1172     1   109.8000471 387.438400
   1170   1169   1171     1   107.5800459 329.699200
   1171   1169   1172     1   109.8000471 387.438400
   1173   1172   1178     1   109.7800468 425.094400
   1173   1172   1174     1   108.4600466 328.025600
   1174   1172   1178     1   109.7800468 425.094400
   1176   1175   1177     1   108.3000464 339.740800
   1176   1175   1179     1   108.3000464 339.740800
   1177   1175   1179     1   108.3000464 339.740800
   1180   1183   1184     1   109.8000471 387.438400
   1180   1183   1185     1   109.8000471 387.438400
   1180   1189   1190     1   110.1100470 384.091200
   1180   1189   1191     1   110.1100470 384.091200
   1180   1189   1193     1   110.1100470 384.091200
   1181   1180   1183     1   110.5600475 386.601600
   1181   1180   1189     1   108.0100461 406.684800
   1181   1180   1182     1   109.7500473 328.025600
   1182   1180   1183     1   110.5600475 386.601600
   1182   1180   1189     1   108.0100461 406.684800
   1183   1186   1187     1   109.5600471 388.275200
   1183   1186   1188     1   109.5600471 388.275200
   1184   1183   1186     1   109.8000471 387.438400
   1184   1183   1185     1   107.5800459 329.699200
   1185   1183   1186     1   109.8000471 387.438400
   1187   1186   1192     1   109.7800468 425.094400
   1187   1186   1188     1   108.4600466 328.025600
   1188   1186   1192     1   109.7800468 425.094400
   1190   1189   1191     1   108.3000464 339.740800
   1190   1189   1193     1   108.3000464 339.740800
   1191   1189   1193     1   108.3000464 339.740800
   1194   1197   1198     1   109.8000471 387.438400
   1194   1197   1199     1   109.8000471 387.438400
   1194   1203   1204     1   110.1100470 384.091200
   1194   1203   1205     1   110.1100470 384.091200
   1194   1203   1207     1   110.1100470 384.091200
   1195   1194   1197     1   110.5600475 386.601600
   1195   1194   1203     1   108.0100461 406.684800
   1195   1194   1196     1   109.7500473 328.025600
   1196   1194   1197     1   110.5600475 386.601600
   1196   1194   1203     1   108.0100461 406.684800
   1197   1200   1201     1   109.5600471 388.275200
   1197   1200   1202     1   109.5600471 388.275200
   1198   1197   1200     1   109.8000471 387.438400
   1198   1197   1199     1   107.5800459 329.699200
   1199   1197   1200     1   109.8000471 387.438400
   1201   1200   1206     1   109.7800468 425.094400
   1201   1200   1202     1   108.4600466 328.025600
   1202   1200   1206     1   109.7800468 425.094400
   1204   1203   1205     1   108.3000464 339.740800
   1204   1203   1207     1   108.3000464 339.740800
   1205   1203   1207     1   108.3000464 339.740800
   1208   1211   1212     1   109.8000471 387.438400
   1208   1211   1213     1   109.8000471 387.438400
   1208   1217   1218     1   110.1100470 384.091200
   1208   1217   1219     1   110.1100470 384.091200
   1208   1217   1221     1   110.1100470 384.091200
   1209   1208   1211     1   110.5600475 386.601600
   1209   1208   1217     1   108.0100461 406.684800
   1209   1208   1210     1   109.7500473 328.025600
   1210   1208   1211     1   110.5600475 386.601600
   1210   1208   1217     1   108.0100461 406.684800
   1211   1214   1215     1   109.5600471 388.275200
   1211   1214   1216     1   109.5600471 388.275200
   1212   1211   1214     1   109.8000471 387.438400
   1212   1211   1213     1   107.5800459 329.699200
   1213   1211   1214     1   109.8000471 387.438400
   1215   1214   1220     1   109.7800468 425.094400
   1215   1214   1216     1   108.4600466 328.025600
   1216   1214   1220     1   109.7800468 425.094400
   1218   1217   1219     1   108.3000464 339.740800
   1218   1217   1221     1   108.3000464 339.740800
   1219   1217   1221     1   108.3000464 339.740800
   1222   1225   1226     1   109.8000471 387.438400
   1222   1225   1227     1   109.8000471 387.438400
   1222   1231   1232     1   110.1100470 384.091200
   1222   1231   1233     1   110.1100470 384.091200
   1222   1231   1235     1   110.1100470 384.091200
   1223   1222   1225     1   110.5600475 386.601600
   1223   1222   1231     1   108.0100461 406.684800
   1223   1222   1224     1   109.7500473 328.025600
   1224   1222   1225     1   110.5600475 386.601600
   1224   1222   1231     1   108.0100461 406.684800
   1225   1228   1229     1   109.5600471 388.275200
   1225   1228   1230     1   109.5600471 388.275200
   1226   1225   1228     1   109.8000471 387.438400
   1226   1225   1227     1   107.5800459 329.699200
   1227   1225   1228     1   109.8000471 387.438400
   1229   1228   1234     1   109.7800468 425.094400
   1229   1228   1230     1   108.4600466 328.025600
   1230   1228   1234     1   109.7800468 425.094400
   1232   1231   1233     1   108.3000464 339.740800
   1232   1231   1235     1   108.3000464 339.740800
   1233   1231   1235     1   108.3000464 339.740800
   1236   1239   1240     1   109.8000471 387.438400
   1236   1239   1241     1   109.8000471 387.438400
   1236   1245   1246     1   110.1100470 384.091200
   1236   1245   1247     1   110.1100470 384.091200
   1236   1245   1249     1   110.1100470 384.091200
   1237   1236   1239     1   110.5600475 386.601600
   1237   1236   1245     1   108.0100461 406.684800
   1237   1236   1238     1   109.7500473 328.025600
   1238   1236   1239     1   110.5600475 386.601600
   1238   1236   1245     1   108.0100461 406.684800
   1239   1242   1243     1   109.5600471 388.275200
   1239   1242   1244     1   109.5600471 388.275200
   1240   1239   1242     1   109.8000471 387.438400
   1240   1239   1241     1   107.5800459 329.699200
   1241   1239   1242     1   109.8000471 387.438400
   1243   1242   1248     1   109.7800468 425.094400
   1243   1242   1244     1   108.4600466 328.025600
   1244   1242   1248     1   109.7800468 425.094400
   1246   1245   1247     1   108.3000464 339.740800
   1246   1245   1249     1   108.3000464 339.740800
   1247   1245   1249     1   108.3000464 339.740800
   1250   1253   1254     1   109.8000471 387.438400
   1250   1253   1255     1   109.8000471 387.438400
   1250   1259   1260     1   110.1100470 384.091200
   1250   1259   1261     1   110.1100470 384.091200
   1250   1259   1263     1   110.1100470 384.091200
   1251   1250   1253     1   110.5600475 386.601600
   1251   1250   1259     1   108.0100461 406.684800
   1251   1250   1252     1   109.7500473 328.025600
   1252   1250   1253     1   110.5600475 386.601600
   1252   1250   1259     1   108.0100461 406.684800
   1253   1256   1257     1   109.5600471 388.275200
   1253   1256   1258     1   109.5600471 388.275200
   1254   1253   1256     1   109.8000471 387.438400
   1254   1253   1255     1   107.5800459 329.699200
   1255   1253   1256     1   109.8000471 387.438400
   1257   1256   1262     1   109.7800468 425.094400
   1257   1256   1258     1   108.4600466 328.025600
   1258   1256   1262     1   109.7800468 425.094400
   1260   1259   1261     1   108.3000464 339.740800
   1260   1259   1263     1   108.3000464 339.740800
   1261   1259   1263     1   108.3000464 339.740800
   1264   1267   1268     1   109.8000471 387.438400
   1264   1267   1269     1   109.8000471 387.438400
   1264   1273   1274     1   110.1100470 384.091200
   1264   1273   1275     1   110.1100470 384.091200
   1264   1273   1277     1   110.1100470 384.091200
   1265   1264   1267     1   110.5600475 386.601600
   1265   1264   1273     1   108.0100461 406.684800
   1265   1264   1266     1   109.7500473 328.025600
   1266   1264   1267     1   110.5600475 386.601600
   1266   1264   1273     1   108.0100461 406.684800
   1267   1270   1271     1   109.5600471 388.275200
   1267   1270   1272     1   109.5600471 388.275200
   1268   1267   1270     1   109.8000471 387.438400
   1268   1267   1269     1   107.5800459 329.699200
   1269   1267   1270     1   109.8000471 387.438400
   1271   1270   1276     1   109.7800468 425.094400
   1271   1270   1272     1   108.4600466 328.025600
   1272   1270   1276     1   109.7800468 425.094400
   1274   1273   1275     1   108.3000464 339.740800
   1274   1273   1277     1   108.3000464 339.740800
   1275   1273   1277     1   108.3000464 339.740800
   1278   1281   1282     1   109.8000471 387.438400
   1278   1281   1283     1   109.8000471 387.438400
   1278   1287   1288     1   110.1100470 384.091200
   1278   1287   1289     1   110.1100470 384.091200
   1278   1287   1291     1   110.1100470 384.091200
   1279   1278   1281     1   110.5600475 386.601600
   1279   1278   1287     1   108.0100461 406.684800
   1279   1278   1280     1   109.7500473 328.025600
   1280   1278   1281     1   110.5600475 386.601600
   1280   1278   1287     1   108.0100461 406.684800
   1281   1284   1285     1   109.5600471 388.275200
   1281   1284   1286     1   109.5600471 388.275200
   1282   1281   1284     1   109.8000471 387.438400
   1282   1281   1283     1   107.5800459 329.699200
   1283   1281   1284     1   109.8000471 387.438400
   1285   1284   1290     1   109.7800468 425.094400
   1285   1284   1286     1   108.4600466 328.025600
   1286   1284   1290     1   109.7800468 425.094400
   1288   1287   1289     1   108.3000464 339.740800
   1288   1287   1291     1   108.3000464 339.740800
   1289   1287   1291     1   108.3000464 339.740800
   1292   1295   1296     1   109.8000471 387.438400
   1292   1295   1297     1   109.8000471 387.438400
   1292   1301   1302     1   110.1100470 384.091200
   1292   1301   1303     1   110.1100470 384.091200
   1292   1301   1305     1   110.1100470 384.091200
   1293   1292   1295     1   110.5600475 386.601600
   1293   1292   1301     1   108.0100461 406.684800
   1293   1292   1294     1   109.7500473 328.025600
   1294   1292   1295     1   110.5600475 386.601600
   1294   1292   1301     1   108.0100461 406.684800
   1295   1298   1299     1   109.5600471 388.275200
   1295   1298   1300     1   109.5600471 388.275200
   1296   1295   1298     1   109.8000471 387.438400
   1296   1295   1297     1   107.5800459 329.699200
   1297   1295   1298     1   109.8000471 387.438400
   1299   1298   1304     1   109.7800468 425.094400
   1299   1298   1300     1   108.4600466 328.025600
   1300   1298   1304     1   109.7800468 425.094400
   1302   1301   1303     1   108.3000464 339.740800
   1302   1301   1305     1   108.3000464 339.740800
   1303   1301   1305     1   108.3000464 339.740800
   1306   1309   1310     1   109.8000471 387.438400
   1306   1309   1311     1   109.8000471 387.438400
   1306   1315   1316     1   110.1100470 384.091200
   1306   1315   1317     1   110.1100470 384.091200
   1306   1315   1319     1   110.1100470 384.091200
   1307   1306   1309     1   110.5600475 386.601600
   1307   1306   1315     1   108.0100461 406.684800
   1307   1306   1308     1   109.7500473 328.025600
   1308   1306   1309     1   110.5600475 386.601600
   1308   1306   1315     1   108.0100461 406.684800
   1309   1312   1313     1   109.5600471 388.275200
   1309   1312   1314     1   109.5600471 388.275200
   1310   1309   1312     1   109.8000471 387.438400
   1310   1309   1311     1   107.5800459 329.699200
   1311   1309   1312     1   109.8000471 387.438400
   1313   1312   1318     1   109.7800468 425.094400
   1313   1312   1314     1   108.4600466 328.025600
   1314   1312   1318     1   109.7800468 425.094400
   1316   1315   1317     1   108.3000464 339.740800
   1316   1315   1319     1   108.3000464 339.740800
   1317   1315   1319     1   108.3000464 339.740800
   1320   1323   1324     1   109.8000471 387.438400
   1320   1323   1325     1   109.8000471 387.438400
   1320   1329   1330     1   110.1100470 384.091200
   1320   1329   1331     1   110.1100470 384.091200
   1320   1329   1333     1   110.1100470 384.091200
   1321   1320   1323     1   110.5600475 386.601600
   1321   1320   1329     1   108.0100461 406.684800
   1321   1320   1322     1   109.7500473 328.025600
   1322   1320   1323     1   110.5600475 386.601600
   1322   1320   1329     1   108.0100461 406.684800
   1323   1326   1327     1   109.5600471 388.275200
   1323   1326   1328     1   109.5600471 388.275200
   1324   1323   1326     1   109.8000471 387.438400
   1324   1323   1325     1   107.5800459 329.699200
   1325   1323   1326     1   109.8000471 387.438400
   1327   1326   1332     1   109.7800468 425.094400
   1327   1326   1328     1   108.4600466 328.025600
   1328   1326   1332     1   109.7800468 425.094400
   1330   1329   1331     1   108.3000464 339.740800
   1330   1329   1333     1   108.3000464 339.740800
   1331   1329   1333     1   108.3000464 339.740800
   1334   1337   1338     1   109.8000471 387.438400
   1334   1337   1339     1   109.8000471 387.438400
   1334   1343   1344     1   110.1100470 384.091200
   1334   1343   1345     1   110.1100470 384.091200
   1334   1343   1347     1   110.1100470 384.091200
   1335   1334   1337     1   110.5600475 386.601600
   1335   1334   1343     1   108.0100461 406.684800
   1335   1334   1336     1   109.7500473 328.025600
   1336   1334   1337     1   110.5600475 386.601600
   1336   1334   1343     1   108.0100461 406.684800
   1337   1340   1341     1   109.5600471 388.275200
   1337   1340   1342     1   109.5600471 388.275200
   1338   1337   1340     1   109.8000471 387.438400
   1338   1337   1339     1   107.5800459 329.699200
   1339   1337   1340     1   109.8000471 387.438400
   1341   1340   1346     1   109.7800468 425.094400
   1341   1340   1342     1   108.4600466 328.025600
   1342   1340   1346     1   109.7800468 425.094400
   1344   1343   1345     1   108.3000464 339.740800
   1344   1343   1347     1   108.3000464 339.740800
   1345   1343   1347     1   108.3000464 339.740800

[ dihedrals ]
;    ai     aj     ak     al funct         c0         c1         c2         c3         c4         c5
      1      2      8     14     1  0.0000000  0.6508444  3
      1      5     11     17     1  0.0000000  0.6508444  3
      2      1      5     11     1  180.0000771  0.4184000  2
      2      1      5     11     1  0.0000000  1.6024720  3
      2      8     14     20     1  0.0000000  0.6508444  3
      5      1      2      8     1  180.0000771  0.4184000  2
      5      1      2      8     1  0.0000000  1.6024720  3
      5     11     17     21     1  0.0000000  0.6508444  3
      8     14     20     28     1  0.0000000  0.6508444  3
      8     14     20     31     1  0.0000000  0.6508444  3
     11     17     21     22     1  0.0000000  0.6508444  3
     11     17     21     25     1  0.0000000  0.6508444  3
     14     20     28     40     1  0.0000000  0.6508444  3
     14     20     31     43     1  0.0000000  0.6508444  3
     17     21     22     34     1  0.0000000  0.6508444  3
     17     21     25     37     1  0.0000000  0.6508444  3
     20     28     40     49     1  0.0000000  0.6508444  3
     20     31     43     46     1  0.0000000  0.6508444  3
     21     22     34     55     1  0.0000000  0.6508444  3
     21     25     37     52     1  0.0000000  0.6508444  3
     22     21     25     37     1  0.0000000  0.6508444  3
     22     34     55    178     1  0.0000000  0.6508444  3
     25     21     22     34     1  0.0000000  0.6508444  3
     25     37     52    148     1  0.0000000  0.6508444  3
     28     20     31     43     1  0.0000000  0.6508444  3
     28     40     49    118     1  0.0000000  0.6508444  3
     31     20     28     40     1  0.0000000  0.6508444  3
     31     43     46     88     1  0.0000000  0.6508444  3
     34     55    178    169     1  180.0000771  0.4184000  2
     34     55    178    169     1  0.0000000  1.6024720  3
     37     52    148    139     1  180.0000771  0.4184000  2
     37     52    148    139     1  0.0000000  1.6024720  3
     40     49    118    109     1  180.0000771  0.4184000  2
     40     49    118    109     1  0.0000000  1.6024720  3
     43     46     88     79     1  180.0000771  0.4184000  2
     43     46     88     79     1  0.0000000  1.6024720  3
     46     88     79     70     1  180.0000771  0.4184000  2
     46     88     79     70     1  0.0000000  1.6024720  3
     49    118    109    100     1  180.0000771  0.4184000  2
     49    118    109    100     1  0.0000000  1.6024720  3
     52    148    139    130     1  180.0000771  0.4184000  2
     52    148    139    130     1  0.0000000  1.6024720  3
     55    178    169    160     1  180.0000771  0.4184000  2
     55    178    169    160     1  0.0000000  1.6024720  3
     60     61     73     85     1  0.0000000  0.6508444  3
     60     64     76     82     1  0.0000000  0.6508444  3
     60     67     70     79     1  0.0000000  0.6508444  3
     61     60     64     76     1  0.0000000  0.6508444  3
     61     60     67     70     1  0.0000000  0.6508444  3
     61     73     85    238     1  0.0000000  0.6508444  3
     64     60     61     73     1  0.0000000  0.6508444  3
     64     60     67     70     1  0.0000000  0.6508444  3
     64     76     82    208     1  0.0000000  0.6508444  3
     67     60     61     73     1  0.0000000  0.6508444  3
     67     60     64     76     1  0.0000000  0.6508444  3
     67     70     79     88     1  0.0000000  0.6508444  3
     73     85    238    229     1  180.0000771  0.4184000  2
     73     85    238    229     1  0.0000000  1.6024720  3
     76     82    208    199     1  180.0000771  0.4184000  2
     76     82    208    199     1  0.0000000  1.6024720  3
     82    208    199    190     1  180.0000771  0.4184000  2
     82    208    199    190     1  0.0000000  1.6024720  3
     85    238    229    220     1  180.0000771  0.4184000  2
     85    238    229    220     1  0.0000000  1.6024720  3
     90     91    103    115     1  0.0000000  0.6508444  3
     90     94    106    112     1  0.0000000  0.6508444  3
     90     97    100    109     1  0.0000000  0.6508444  3
     91     90     94    106     1  0.0000000  0.6508444  3
     91     90     97    100     1  0.0000000  0.6508444  3
     91    103    115    298     1  0.0000000  0.6508444  3
     94     90     91    103     1  0.0000000  0.6508444  3
     94     90     97    100     1  0.0000000  0.6508444  3
     94    106    112    268     1  0.0000000  0.6508444  3
     97     90     91    103     1  0.0000000  0.6508444  3
     97     90     94    106     1  0.0000000  0.6508444  3
     97    100    109    118     1  0.0000000  0.6508444  3
    103    115    298    289     1  180.0000771  0.4184000  2
    103    115    298    289     1  0.0000000  1.6024720  3
    106    112    268    259     1  180.0000771  0.4184000  2
    106    112    268    259     1  0.0000000  1.6024720  3
    112    268    259    250     1  180.0000771  0.4184000  2
    112    268    259    250     1  0.0000000  1.6024720  3
    115    298    289    280     1  180.0000771  0.4184000  2
    115    298    289    280     1  0.0000000  1.6024720  3
    120    121    133    145     1  0.0000000  0.6508444  3
    120    124    136    142     1  0.0000000  0.6508444  3
    120    127    130    139     1  0.0000000  0.6508444  3
    121    120    124    136     1  0.0000000  0.6508444  3
    121    120    127    130     1  0.0000000  0.6508444  3
    121    133    145    358     1  0.0000000  0.6508444  3
    124    120    121    133     1  0.0000000  0.6508444  3
    124    120    127    130     1  0.0000000  0.6508444  3
    124    136    142    328     1  0.0000000  0.6508444  3
    127    120    121    133     1  0.0000000  0.6508444  3
    127    120    124    136     1  0.0000000  0.6508444  3
    127    130    139    148     1  0.0000000  0.6508444  3
    133    145    358    349     1  180.0000771  0.4184000  2
    133    145    358    349     1  0.0000000  1.6024720  3
    136    142    328    319     1  180.0000771  0.4184000  2
    136    142    328    319     1  0.0000000  1.6024720  3
    142    328    319    310     1  180.0000771  0.4184000  2
    142    328    319    310     1  0.0000000  1.6024720  3
    145    358    349    340     1  180.0000771  0.4184000  2
    145    358    349    340     1  0.0000000  1.6024720  3
    150    151    163    175     1  0.0000000  0.6508444  3
    150    154    166    172     1  0.0000000  0.6508444  3
    150    157    160    169     1  0.0000000  0.6508444  3
    151    150    154    166     1  0.0000000  0.6508444  3
    151    150    157    160     1  0.0000000  0.6508444  3
    151    163    175    418     1  0.0000000  0.6508444  3
    154    150    151    163     1  0.0000000  0.6508444  3
    154    150    157    160     1  0.0000000  0.6508444  3
    154    166    172    388     1  0.0000000  0.6508444  3
    157    150    151    163     1  0.0000000  0.6508444  3
    157    150    154    166     1  0.0000000  0.6508444  3
    157    160    169    178     1  0.0000000  0.6508444  3
    163    175    418    409     1  180.0000771  0.4184000  2
    163    175    418    409     1  0.0000000  1.6024720  3
    166    172    388    379     1  180.0000771  0.4184000  2
    166    172    388    379     1  0.0000000  1.6024720  3
    172    388    379    370     1  180.0000771  0.4184000  2
    172    388    379    370     1  0.0000000  1.6024720  3
    175    418    409    400     1  180.0000771  0.4184000  2
    175    418    409    400     1  0.0000000  1.6024720  3
    180    181    193    205     1  0.0000000  0.6508444  3
    180    184    196    202     1  0.0000000  0.6508444  3
    180    187    190    199     1  0.0000000  0.6508444  3
    181    180    184    196     1  0.0000000  0.6508444  3
    181    180    187    190     1  0.0000000  0.6508444  3
    181    193    205    478     1  0.0000000  0.6508444  3
    184    180    181    193     1  0.0000000  0.6508444  3
    184    180    187    190     1  0.0000000  0.6508444  3
    184    196    202    448     1  0.0000000  0.6508444  3
    187    180    181    193     1  0.0000000  0.6508444  3
    187    180    184    196     1  0.0000000  0.6508444  3
    187    190    199    208     1  0.0000000  0.6508444  3
    193    205    478    469     1  180.0000771  0.4184000  2
    193    205    478    469     1  0.0000000  1.6024720  3
    196    202    448    439     1  180.0000771  0.4184000  2
    196    202    448    439     1  0.0000000  1.6024720  3
    202    448    439    430     1  180.0000771  0.4184000  2
    202    448    439    430     1  0.0000000  1.6024720  3
    205    478    469    460     1  180.0000771  0.4184000  2
    205    478    469    460     1  0.0000000  1.6024720  3
    210    211    223    235     1  0.0000000  0.6508444  3
    210    214    226    232     1  0.0000000  0.6508444  3
    210    217    220    229     1  0.0000000  0.6508444  3
    211    210    214    226     1  0.0000000  0.6508444  3
    211    210    217    220     1  0.0000000  0.6508444  3
    211    223    235    538     1  0.0000000  0.6508444  3
    214    210    211    223     1  0.0000000  0.6508444  3
    214    210    217    220     1  0.0000000  0.6508444  3
    214    226    232    508     1  0.0000000  0.6508444  3
    217    210    211    223     1  0.0000000  0.6508444  3
    217    210    214    226     1  0.0000000  0.6508444  3
    217    220    229    238     1  0.0000000  0.6508444  3
    223    235    538    529     1  180.0000771  0.4184000  2
    223    235    538    529     1  0.0000000  1.6024720  3
    226    232    508    499     1  180.0000771  0.4184000  2
    226    232    508    499     1  0.0000000  1.6024720  3
    232    508    499    490     1  180.0000771  0.4184000  2
    232    508    499    490     1  0.0000000  1.6024720  3
    235    538    529    520     1  180.0000771  0.4184000  2
    235    538    529    520     1  0.0000000  1.6024720  3
    240    241    253    265     1  0.0000000  0.6508444  3
    240    244    256    262     1  0.0000000  0.6508444  3
    240    247    250    259     1  0.0000000  0.6508444  3
    241    240    244    256     1  0.0000000  0.6508444  3
    241    240    247    250     1  0.0000000  0.6508444  3
    241    253    265    598     1  0.0000000  0.6508444  3
    244    240    241    253     1  0.0000000  0.6508444  3
    244    240    247    250     1  0.0000000  0.6508444  3
    244    256    262    568     1  0.0000000  0.6508444  3
    247    240    241    253     1  0.0000000  0.6508444  3
    247    240    244    256     1  0.0000000  0.6508444  3
    247    250    259    268     1  0.0000000  0.6508444  3
    253    265    598    589     1  180.0000771  0.4184000  2
    253    265    598    589     1  0.0000000  1.6024720  3
    256    262    568    559     1  180.0000771  0.4184000  2
    256    262    568    559     1  0.0000000  1.6024720  3
    262    568    559    550     1  180.0000771  0.4184000  2
    262    568    559    550     1  0.0000000  1.6024720  3
    265    598    589    580     1  180.0000771  0.4184000  2
    265    598    589    580     1  0.0000000  1.6024720  3
    270    271    283    295     1  0.0000000  0.6508444  3
    270    274    286    292     1  0.0000000  0.6508444  3
    270    277    280    289     1  0.0000000  0.6508444  3
    271    270    274    286     1  0.0000000  0.6508444  3
    271    270    277    280     1  0.0000000  0.6508444  3
    271    283    295    658     1  0.0000000  0.6508444  3
    274    270    271    283     1  0.0000000  0.6508444  3
    274    270    277    280     1  0.0000000  0.6508444  3
    274    286    292    628     1  0.0000000  0.6508444  3
    277    270    271    283     1  0.0000000  0.6508444  3
    277    270    274    286     1  0.0000000  0.6508444  3
    277    280    289    298     1  0.0000000  0.6508444  3
    283    295    658    649     1  180.0000771  0.4184000  2
    283    295    658    649     1  0.0000000  1.6024720  3
    286    292    628    619     1  180.0000771  0.4184000  2
    286    292    628    619     1  0.0000000  1.6024720  3
    292    628    619    610     1  180.0000771  0.4184000  2
    292    628    619    610     1  0.0000000  1.6024720  3
    295    658    649    640     1  180.0000771  0.4184000  2
    295    658    649    640     1  0.0000000  1.6024720  3
    300    301    313    325     1  0.0000000  0.6508444  3
    300    304    316    322     1  0.0000000  0.6508444  3
    300    307    310    319     1  0.0000000  0.6508444  3
    301    300    304    316     1  0.0000000  0.6508444  3
    301    300    307    310     1  0.0000000  0.6508444  3
    301    313    325    718     1  0.0000000  0.6508444  3
    304    300    301    313     1  0.0000000  0.6508444  3
    304    300    307    310     1  0.0000000  0.6508444  3
    304    316    322    688     1  0.0000000  0.6508444  3
    307    300    301    313     1  0.0000000  0.6508444  3
    307    300    304    316     1  0.0000000  0.6508444  3
    307    310    319    328     1  0.0000000  0.6508444  3
    313    325    718    709     1  180.0000771  0.4184000  2
    313    325    718    709     1  0.0000000  1.6024720  3
    316    322    688    679     1  180.0000771  0.4184000  2
    316    322    688    679     1  0.0000000  1.6024720  3
    322    688    679    670     1  180.0000771  0.4184000  2
    322    688    679    670     1  0.0000000  1.6024720  3
    325    718    709    700     1  180.0000771  0.4184000  2
    325    718    709    700     1  0.0000000  1.6024720  3
    330    331    343    355     1  0.0000000  0.6508444  3
    330    334    346    352     1  0.0000000  0.6508444  3
    330    337    340    349     1  0.0000000  0.6508444  3
    331    330    334    346     1  0.0000000  0.6508444  3
    331    330    337    340     1  0.0000000  0.6508444  3
    331    343    355    778     1  0.0000000  0.6508444  3
    334    330    331    343     1  0.0000000  0.6508444  3
    334    330    337    340     1  0.0000000  0.6508444  3
    334    346    352    748     1  0.0000000  0.6508444  3
    337    330    331    343     1  0.0000000  0.6508444  3
    337    330    334    346     1  0.0000000  0.6508444  3
    337    340    349    358     1  0.0000000  0.6508444  3
    343    355    778    769     1  180.0000771  0.4184000  2
    343    355    778    769     1  0.0000000  1.6024720  3
    346    352    748    739     1  180.0000771  0.4184000  2
    346    352    748    739     1  0.0000000  1.6024720  3
    352    748    739    730     1  180.0000771  0.4184000  2
    352    748    739    730     1  0.0000000  1.6024720  3
    355    778    769    760     1  180.0000771  0.4184000  2
    355    778    769    760     1  0.0000000  1.6024720  3
    360    361    373    385     1  0.0000000  0.6508444  3
    360    364    376    382     1  0.0000000  0.6508444  3
    360    367    370    379     1  0.0000000  0.6508444  3
    361    360    364    376     1  0.0000000  0.6508444  3
    361    360    367    370     1  0.0000000  0.6508444  3
    361    373    385    838     1  0.0000000  0.6508444  3
    364    360    361    373     1  0.0000000  0.6508444  3
    364    360    367    370     1  0.0000000  0.6508444  3
    364    376    382    808     1  0.0000000  0.6508444  3
    367    360    361    373     1  0.0000000  0.6508444  3
    367    360    364    376     1  0.0000000  0.6508444  3
    367    370    379    388     1  0.0000000  0.6508444  3
    373    385    838    829     1  180.0000771  0.4184000  2
    373    385    838    829     1  0.0000000  1.6024720  3
    376    382    808    799     1  180.0000771  0.4184000  2
    376    382    808    799     1  0.0000000  1.6024720  3
    382    808    799    790     1  180.0000771  0.4184000  2
    382    808    799    790     1  0.0000000  1.6024720  3
    385    838    829    820     1  180.0000771  0.4184000  2
    385    838    829    820     1  0.0000000  1.6024720  3
    390    391    403    415     1  0.0000000  0.6508444  3
    390    394    406    412     1  0.0000000  0.6508444  3
    390    397    400    409     1  0.0000000  0.6508444  3
    391    390    394    406     1  0.0000000  0.6508444  3
    391    390    397    400     1  0.0000000  0.6508444  3
    391    403    415    898     1  0.0000000  0.6508444  3
    394    390    391    403     1  0.0000000  0.6508444  3
    394    390    397    400     1  0.0000000  0.6508444  3
    394    406    412    868     1  0.0000000  0.6508444  3
    397    390    391    403     1  0.0000000  0.6508444  3
    397    390    394    406     1  0.0000000  0.6508444  3
    397    400    409    418     1  0.0000000  0.6508444  3
    403    415    898    889     1  180.0000771  0.4184000  2
    403    415    898    889     1  0.0000000  1.6024720  3
    406    412    868    859     1  180.0000771  0.4184000  2
    406    412    868    859     1  0.0000000  1.6024720  3
    412    868    859    850     1  180.0000771  0.4184000  2
    412    868    859    850     1  0.0000000  1.6024720  3
    415    898    889    880     1  180.0000771  0.4184000  2
    415    898    889    880     1  0.0000000  1.6024720  3
    420    421    433    445     1  0.0000000  0.6508444  3
    420    424    436    442     1  0.0000000  0.6508444  3
    420    427    430    439     1  0.0000000  0.6508444  3
    421    420    424    436     1  0.0000000  0.6508444  3
    421    420    427    430     1  0.0000000  0.6508444  3
    421    433    445    926     1  0.0000000  0.6508444  3
    424    420    421    433     1  0.0000000  0.6508444  3
    424    420    427    430     1  0.0000000  0.6508444  3
    424    436    442    912     1  0.0000000  0.6508444  3
    427    420    421    433     1  0.0000000  0.6508444  3
    427    420    424    436     1  0.0000000  0.6508444  3
    427    430    439    448     1  0.0000000  0.6508444  3
    433    445    926    920     1  180.0000771  0.4184000  2
    433    445    926    920     1  0.0000000  1.6024720  3
    436    442    912    906     1  180.0000771  0.4184000  2
    436    442    912    906     1  0.0000000  1.6024720  3
    442    912    906    903     1  180.0000771  0.4184000  2
    442    912    906    903     1  0.0000000  1.6024720  3
    445    926    920    917     1  180.0000771  0.4184000  2
    445    926    920    917     1  0.0000000  1.6024720  3
    450    451    463    475     1  0.0000000  0.6508444  3
    450    454    466    472     1  0.0000000  0.6508444  3
    450    457    460    469     1  0.0000000  0.6508444  3
    451    450    454    466     1  0.0000000  0.6508444  3
    451    450    457    460     1  0.0000000  0.6508444  3
    451    463    475    954     1  0.0000000  0.6508444  3
    454    450    451    463     1  0.0000000  0.6508444  3
    454    450    457    460     1  0.0000000  0.6508444  3
    454    466    472    940     1  0.0000000  0.6508444  3
    457    450    451    463     1  0.0000000  0.6508444  3
    457    450    454    466     1  0.0000000  0.6508444  3
    457    460    469    478     1  0.0000000  0.6508444  3
    463    475    954    948     1  180.0000771  0.4184000  2
    463    475    954    948     1  0.0000000  1.6024720  3
    466    472    940    934     1  180.0000771  0.4184000  2
    466    472    940    934     1  0.0000000  1.6024720  3
    472    940    934    931     1  180.0000771  0.4184000  2
    472    940    934    931     1  0.0000000  1.6024720  3
    475    954    948    945     1  180.0000771  0.4184000  2
    475    954    948    945     1  0.0000000  1.6024720  3
    480    481    493    505     1  0.0000000  0.6508444  3
    480    484    496    502     1  0.0000000  0.6508444  3
    480    487    490    499     1  0.0000000  0.6508444  3
    481    480    484    496     1  0.0000000  0.6508444  3
    481    480    487    490     1  0.0000000  0.6508444  3
    481    493    505    982     1  0.0000000  0.6508444  3
    484    480    481    493     1  0.0000000  0.6508444  3
    484    480    487    490     1  0.0000000  0.6508444  3
    484    496    502    968     1  0.0000000  0.6508444  3
    487    480    481    493     1  0.0000000  0.6508444  3
    487    480    484    496     1  0.0000000  0.6508444  3
    487    490    499    508     1  0.0000000  0.6508444  3
    493    505    982    976     1  180.0000771  0.4184000  2
    493    505    982    976     1  0.0000000  1.6024720  3
    496    502    968    962     1  180.0000771  0.4184000  2
    496    502    968    962     1  0.0000000  1.6024720  3
    502    968    962    959     1  180.0000771  0.4184000  2
    502    968    962    959     1  0.0000000  1.6024720  3
    505    982    976    973     1  180.0000771  0.4184000  2
    505    982    976    973     1  0.0000000  1.6024720  3
    510    511    523    535     1  0.0000000  0.6508444  3
    510    514    526    532     1  0.0000000  0.6508444  3
    510    517    520    529     1  0.0000000  0.6508444  3
    511    510    514    526     1  0.0000000  0.6508444  3
    511    510    517    520     1  0.0000000  0.6508444  3
    511    523    535   1010     1  0.0000000  0.6508444  3
    514    510    511    523     1  0.0000000  0.6508444  3
    514    510    517    520     1  0.0000000  0.6508444  3
    514    526    532    996     1  0.0000000  0.6508444  3
    517    510    511    523     1  0.0000000  0.6508444  3
    517    510    514    526     1  0.0000000  0.6508444  3
    517    520    529    538     1  0.0000000  0.6508444  3
    523    535   1010   1004     1  180.0000771  0.4184000  2
    523    535   1010   1004     1  0.0000000  1.6024720  3
    526    532    996    990     1  180.0000771  0.4184000  2
    526    532    996    990     1  0.0000000  1.6024720  3
    532    996    990    987     1  180.0000771  0.4184000  2
    532    996    990    987     1  0.0000000  1.6024720  3
    535   1010   1004   1001     1  180.0000771  0.4184000  2
    535   1010   1004   1001     1  0.0000000  1.6024720  3
    540    541    553    565     1  0.0000000  0.6508444  3
    540    544    556    562     1  0.0000000  0.6508444  3
    540    547    550    559     1  0.0000000  0.6508444  3
    541    540    544    556     1  0.0000000  0.6508444  3
    541    540    547    550     1  0.0000000  0.6508444  3
    541    553    565   1038     1  0.0000000  0.6508444  3
    544    540    541    553     1  0.0000000  0.6508444  3
    544    540    547    550     1  0.0000000  0.6508444  3
    544    556    562   1024     1  0.0000000  0.6508444  3
    547    540    541    553     1  0.0000000  0.6508444  3
    547    540    544    556     1  0.0000000  0.6508444  3
    547    550    559    568     1  0.0000000  0.6508444  3
    553    565   1038   1032     1  180.0000771  0.4184000  2
    553    565   1038   1032     1  0.0000000  1.6024720  3
    556    562   1024   1018     1  180.0000771  0.4184000  2
    556    562   1024   1018     1  0.0000000  1.6024720  3
    562   1024   1018   1015     1  180.0000771  0.4184000  2
    562   1024   1018   1015     1  0.0000000  1.6024720  3
    565   1038   1032   1029     1  180.0000771  0.4184000  2
    565   1038   1032   1029     1  0.0000000  1.6024720  3
    570    571    583    595     1  0.0000000  0.6508444  3
    570    574    586    592     1  0.0000000  0.6508444  3
    570    577    580    589     1  0.0000000  0.6508444  3
    571    570    574    586     1  0.0000000  0.6508444  3
    571    570    577    580     1  0.0000000  0.6508444  3
    571    583    595   1066     1  0.0000000  0.6508444  3
    574    570    571    583     1  0.0000000  0.6508444  3
    574    570    577    580     1  0.0000000  0.6508444  3
    574    586    592   1052     1  0.0000000  0.6508444  3
    577    570    571    583     1  0.0000000  0.6508444  3
    577    570    574    586     1  0.0000000  0.6508444  3
    577    580    589    598     1  0.0000000  0.6508444  3
    583    595   1066   1060     1  180.0000771  0.4184000  2
    583    595   1066   1060     1  0.0000000  1.6024720  3
    586    592   1052   1046     1  180.0000771  0.4184000  2
    586    592   1052   1046     1  0.0000000  1.6024720  3
    592   1052   1046   1043     1  180.0000771  0.4184000  2
    592   1052   1046   1043     1  0.0000000  1.6024720  3
    595   1066   1060   1057     1  180.0000771  0.4184000  2
    595   1066   1060   1057     1  0.0000000  1.6024720  3
    600    601    613    625     1  0.0000000  0.6508444  3
    600    604    616    622     1  0.0000000  0.6508444  3
    600    607    610    619     1  0.0000000  0.6508444  3
    601    600    604    616     1  0.0000000  0.6508444  3
    601    600    607    610     1  0.0000000  0.6508444  3
    601    613    625   1094     1  0.0000000  0.6508444  3
    604    600    601    613     1  0.0000000  0.6508444  3
    604    600    607    610     1  0.0000000  0.6508444  3
    604    616    622   1080     1  0.0000000  0.6508444  3
    607    600    601    613     1  0.0000000  0.6508444  3
    607    600    604    616     1  0.0000000  0.6508444  3
    607    610    619    628     1  0.0000000  0.6508444  3
    613    625   1094   1088     1  180.0000771  0.4184000  2
    613    625   1094   1088     1  0.0000000  1.6024720  3
    616    622   1080   1074     1  180.0000771  0.4184000  2
    616    622   1080   1074     1  0.0000000  1.6024720  3
    622   1080   1074   1071     1  180.0000771  0.4184000  2
    622   1080   1074   1071     1  0.0000000  1.6024720  3
    625   1094   1088   1085     1  180.0000771  0.4184000  2
    625   1094   1088   1085     1  0.0000000  1.6024720  3
    630    631    643    655     1  0.0000000  0.6508444  3
    630    634    646    652     1  0.0000000  0.6508444  3
    630    637    640    649     1  0.0000000  0.6508444  3
    631    630    634    646     1  0.0000000  0.6508444  3
    631    630    637    640     1  0.0000000  0.6508444  3
    631    643    655   1122     1  0.0000000  0.6508444  3
    634    630    631    643     1  0.0000000  0.6508444  3
    634    630    637    640     1  0.0000000  0.6508444  3
    634    646    652   1108     1  0.0000000  0.6508444  3
    637    630    631    643     1  0.0000000  0.6508444  3
    637    630    634    646     1  0.0000000  0.6508444  3
    637    640    649    658     1  0.0000000  0.6508444  3
    643    655   1122   1116     1  180.0000771  0.4184000  2
    643    655   1122   1116     1  0.0000000  1.6024720  3
    646    652   1108   1102     1  180.0000771  0.4184000  2
    646    652   1108   1102     1  0.0000000  1.6024720  3
    652   1108   1102   1099     1  180.0000771  0.4184000  2
    652   1108   1102   1099     1  0.0000000  1.6024720  3
    655   1122   1116   1113     1  180.0000771  0.4184000  2
    655   1122   1116   1113     1  0.0000000  1.6024720  3
    660    661    673    685     1  0.0000000  0.6508444  3
    660    664    676    682     1  0.0000000  0.6508444  3
    660    667    670    679     1  0.0000000  0.6508444  3
    661    660    664    676     1  0.0000000  0.6508444  3
    661    660    667    670     1  0.0000000  0.6508444  3
    661    673    685   1150     1  0.0000000  0.6508444  3
    664    660    661    673     1  0.0000000  0.6508444  3
    664    660    667    670     1  0.0000000  0.6508444  3
    664    676    682   1136     1  0.0000000  0.6508444  3
    667    660    661    673     1  0.0000000  0.6508444  3
    667    660    664    676     1  0.0000000  0.6508444  3
    667    670    679    688     1  0.0000000  0.6508444  3
    673    685   1150   1144     1  180.0000771  0.4184000  2
    673    685   1150   1144     1  0.0000000  1.6024720  3
    676    682   1136   1130     1  180.0000771  0.4184000  2
    676    682   1136   1130     1  0.0000000  1.6024720  3
    682   1136   1130   1127     1  180.0000771  0.4184000  2
    682   1136   1130   1127     1  0.0000000  1.6024720  3
    685   1150   1144   1141     1  180.0000771  0.4184000  2
    685   1150   1144   1141     1  0.0000000  1.6024720  3
    690    691    703    715     1  0.0000000  0.6508444  3
    690    694    706    712     1  0.0000000  0.6508444  3
    690    697    700    709     1  0.0000000  0.6508444  3
    691    690    694    706     1  0.0000000  0.6508444  3
    691    690    697    700     1  0.0000000  0.6508444  3
    691    703    715   1178     1  0.0000000  0.6508444  3
    694    690    691    703     1  0.0000000  0.6508444  3
    694    690    697    700     1  0.0000000  0.6508444  3
    694    706    712   1164     1  0.0000000  0.6508444  3
    697    690    691    703     1  0.0000000  0.6508444  3
    697    690    694    706     1  0.0000000  0.6508444  3
    697    700    709    718     1  0.0000000  0.6508444  3
    703    715   1178   1172     1  180.0000771  0.4184000  2
    703    715   1178   1172     1  0.0000000  1.6024720  3
    706    712   1164   1158     1  180.0000771  0.4184000  2
    706    712   1164   1158     1  0.0000000  1.6024720  3
    712   1164   1158   1155     1  180.0000771  0.4184000  2
    712   1164   1158   1155     1  0.0000000  1.6024720  3
    715   1178   1172   1169     1  180.0000771  0.4184000  2
    715   1178   1172   1169     1  0.0000000  1.6024720  3
    720    721    733    745     1  0.0000000  0.6508444  3
    720    724    736    742     1  0.0000000  0.6508444  3
    720    727    730    739     1  0.0000000  0.6508444  3
    721    720    724    736     1  0.0000000  0.6508444  3
    721    720    727    730     1  0.0000000  0.6508444  3
    721    733    745   1206     1  0.0000000  0.6508444  3
    724    720    721    733     1  0.0000000  0.6508444  3
    724    720    727    730     1  0.0000000  0.6508444  3
    724    736    742   1192     1  0.0000000  0.6508444  3
    727    720    721    733     1  0.0000000  0.6508444  3
    727    720    724    736     1  0.0000000  0.6508444  3
    727    730    739    748     1  0.0000000  0.6508444  3
    733    745   1206   1200     1  180.0000771  0.4184000  2
    733    745   1206   1200     1  0.0000000  1.6024720  3
    736    742   1192   1186     1  180.0000771  0.4184000  2
    736    742   1192   1186     1  0.0000000  1.6024720  3
    742   1192   1186   1183     1  180.0000771  0.4184000  2
    742   1192   1186   1183     1  0.0000000  1.6024720  3
    745   1206   1200   1197     1  180.0000771  0.4184000  2
    745   1206   1200   1197     1  0.0000000  1.6024720  3
    750    751    763    775     1  0.0000000  0.6508444  3
    750    754    766    772     1  0.0000000  0.6508444  3
    750    757    760    769     1  0.0000000  0.6508444  3
    751    750    754    766     1  0.0000000  0.6508444  3
    751    750    757    760     1  0.0000000  0.6508444  3
    751    763    775   1234     1  0.0000000  0.6508444  3
    754    750    751    763     1  0.0000000  0.6508444  3
    754    750    757    760     1  0.0000000  0.6508444  3
    754    766    772   1220     1  0.0000000  0.6508444  3
    757    750    751    763     1  0.0000000  0.6508444  3
    757    750    754    766     1  0.0000000  0.6508444  3
    757    760    769    778     1  0.0000000  0.6508444  3
    763    775   1234   1228     1  180.0000771  0.4184000  2
    763    775   1234   1228     1  0.0000000  1.6024720  3
    766    772   1220   1214     1  180.0000771  0.4184000  2
    766    772   1220   1214     1  0.0000000  1.6024720  3
    772   1220   1214   1211     1  180.0000771  0.4184000  2
    772   1220   1214   1211     1  0.0000000  1.6024720  3
    775   1234   1228   1225     1  180.0000771  0.4184000  2
    775   1234   1228   1225     1  0.0000000  1.6024720  3
    780    781    793    805     1  0.0000000  0.6508444  3
    780    784    796    802     1  0.0000000  0.6508444  3
    780    787    790    799     1  0.0000000  0.6508444  3
    781    780    784    796     1  0.0000000  0.6508444  3
    781    780    787    790     1  0.0000000  0.6508444  3
    781    793    805   1262     1  0.0000000  0.6508444  3
    784    780    781    793     1  0.0000000  0.6508444  3
    784    780    787    790     1  0.0000000  0.6508444  3
    784    796    802   1248     1  0.0000000  0.6508444  3
    787    780    781    793     1  0.0000000  0.6508444  3
    787    780    784    796     1  0.0000000  0.6508444  3
    787    790    799    808     1  0.0000000  0.6508444  3
    793    805   1262   1256     1  180.0000771  0.4184000  2
    793    805   1262   1256     1  0.0000000  1.6024720  3
    796    802   1248   1242     1  180.0000771  0.4184000  2
    796    802   1248   1242     1  0.0000000  1.6024720  3
    802   1248   1242   1239     1  180.0000771  0.4184000  2
    802   1248   1242   1239     1  0.0000000  1.6024720  3
    805   1262   1256   1253     1  180.0000771  0.4184000  2
    805   1262   1256   1253     1  0.0000000  1.6024720  3
    810    811    823    835     1  0.0000000  0.6508444  3
    810    814    826    832     1  0.0000000  0.6508444  3
    810    817    820    829     1  0.0000000  0.6508444  3
    811    810    814    826     1  0.0000000  0.6508444  3
    811    810    817    820     1  0.0000000  0.6508444  3
    811    823    835   1290     1  0.0000000  0.6508444  3
    814    810    811    823     1  0.0000000  0.6508444  3
    814    810    817    820     1  0.0000000  0.6508444  3
    814    826    832   1276     1  0.0000000  0.6508444  3
    817    810    811    823     1  0.0000000  0.6508444  3
    817    810    814    826     1  0.0000000  0.6508444  3
    817    820    829    838     1  0.0000000  0.6508444  3
    823    835   1290   1284     1  180.0000771  0.4184000  2
    823    835   1290   1284     1  0.0000000  1.6024720  3
    826    832   1276   1270     1  180.0000771  0.4184000  2
    826    832   1276   1270     1  0.0000000  1.6024720  3
    832   1276   1270   1267     1  180.0000771  0.4184000  2
    832   1276   1270   1267     1  0.0000000  1.6024720  3
    835   1290   1284   1281     1  180.0000771  0.4184000  2
    835   1290   1284   1281     1  0.0000000  1.6024720  3
    840    841    853    865     1  0.0000000  0.6508444  3
    840    844    856    862     1  0.0000000  0.6508444  3
    840    847    850    859     1  0.0000000  0.6508444  3
    841    840    844    856     1  0.0000000  0.6508444  3
    841    840    847    850     1  0.0000000  0.6508444  3
    841    853    865   1318     1  0.0000000  0.6508444  3
    844    840    841    853     1  0.0000000  0.6508444  3
    844    840    847    850     1  0.0000000  0.6508444  3
    844    856    862   1304     1  0.0000000  0.6508444  3
    847    840    841    853     1  0.0000000  0.6508444  3
    847    840    844    856     1  0.0000000  0.6508444  3
    847    850    859    868     1  0.0000000  0.6508444  3
    853    865   1318   1312     1  180.0000771  0.4184000  2
    853    865   1318   1312     1  0.0000000  1.6024720  3
    856    862   1304   1298     1  180.0000771  0.4184000  2
    856    862   1304   1298     1  0.0000000  1.6024720  3
    862   1304   1298   1295     1  180.0000771  0.4184000  2
    862   1304   1298   1295     1  0.0000000  1.6024720  3
    865   1318   1312   1309     1  180.0000771  0.4184000  2
    865   1318   1312   1309     1  0.0000000  1.6024720  3
    870    871    883    895     1  0.0000000  0.6508444  3
    870    874    886    892     1  0.0000000  0.6508444  3
    870    877    880    889     1  0.0000000  0.6508444  3
    871    870    874    886     1  0.0000000  0.6508444  3
    871    870    877    880     1  0.0000000  0.6508444  3
    871    883    895   1346     1  0.0000000  0.6508444  3
    874    870    871    883     1  0.0000000  0.6508444  3
    874    870    877    880     1  0.0000000  0.6508444  3
    874    886    892   1332     1  0.0000000  0.6508444  3
    877    870    871    883     1  0.0000000  0.6508444  3
    877    870    874    886     1  0.0000000  0.6508444  3
    877    880    889    898     1  0.0000000  0.6508444  3
    883    895   1346   1340     1  180.0000771  0.4184000  2
    883    895   1346   1340     1  0.0000000  1.6024720  3
    886    892   1332   1326     1  180.0000771  0.4184000  2
    886    892   1332   1326     1  0.0000000  1.6024720  3
    892   1332   1326   1323     1  180.0000771  0.4184000  2
    892   1332   1326   1323     1  0.0000000  1.6024720  3
    895   1346   1340   1337     1  180.0000771  0.4184000  2
    895   1346   1340   1337     1  0.0000000  1.6024720  3
    900    903    906    912     1  0.0000000  0.6508444  3
    906    903    900    909     1  0.0000000  0.6508444  3
    914    917    920    926     1  0.0000000  0.6508444  3
    920    917    914    923     1  0.0000000  0.6508444  3
    928    931    934    940     1  0.0000000  0.6508444  3
    934    931    928    937     1  0.0000000  0.6508444  3
    942    945    948    954     1  0.0000000  0.6508444  3
    948    945    942    951     1  0.0000000  0.6508444  3
    956    959    962    968     1  0.0000000  0.6508444  3
    962    959    956    965     1  0.0000000  0.6508444  3
    970    973    976    982     1  0.0000000  0.6508444  3
    976    973    970    979     1  0.0000000  0.6508444  3
    984    987    990    996     1  0.0000000  0.6508444  3
    990    987    984    993     1  0.0000000  0.6508444  3
    998   1001   1004   1010     1  0.0000000  0.6508444  3
   1004   1001    998   1007     1  0.0000000  0.6508444  3
   1012   1015   1018   1024     1  0.0000000  0.6508444  3
   1018   1015   1012   1021     1  0.0000000  0.6508444  3
   1026   1029   1032   1038     1  0.0000000  0.6508444  3
   1032   1029   1026   1035     1  0.0000000  0.6508444  3
   1040   1043   1046   1052     1  0.0000000  0.6508444  3
   1046   1043   1040   1049     1  0.0000000  0.6508444  3
   1054   1057   1060   1066     1  0.0000000  0.6508444  3
   1060   1057   1054   1063     1  0.0000000  0.6508444  3
   1068   1071   1074   1080     1  0.0000000  0.6508444  3
   1074   1071   1068   1077     1  0.0000000  0.6508444  3
   1082   1085   1088   1094     1  0.0000000  0.6508444  3
   1088   1085   1082   1091     1  0.0000000  0.6508444  3
   1096   1099   1102   1108     1  0.0000000  0.6508444  3
   1102   1099   1096   1105     1  0.0000000  0.6508444  3
   1110   1113   1116   1122     1  0.0000000  0.6508444  3
   1116   1113   1110   1119     1  0.0000000  0.6508444  3
   1124   1127   1130   1136     1  0.0000000  0.6508444  3
   1130   1127   1124   1133     1  0.0000000  0.6508444  3
   1138   1141   1144   1150     1  0.0000000  0.6508444  3
   1144   1141   1138   1147     1  0.0000000  0.6508444  3
   1152   1155   1158   1164     1  0.0000000  0.6508444  3
   1158   1155   1152   1161     1  0.0000000  0.6508444  3
   1166   1169   1172   1178     1  0.0000000  0.6508444  3
   1172   1169   1166   1175     1  0.0000000  0.6508444  3
   1180   1183   1186   1192     1  0.0000000  0.6508444  3
   1186   1183   1180   1189     1  0.0000000  0.6508444  3
   1194   1197   1200   1206     1  0.0000000  0.6508444  3
   1200   1197   1194   1203     1  0.0000000  0.6508444  3
   1208   1211   1214   1220     1  0.0000000  0.6508444  3
   1214   1211   1208   1217     1  0.0000000  0.6508444  3
   1222   1225   1228   1234     1  0.0000000  0.6508444  3
   1228   1225   1222   1231     1  0.0000000  0.6508444  3
   1236   1239   1242   1248     1  0.0000000  0.6508444  3
   1242   1239   1236   1245     1  0.0000000  0.6508444  3
   1250   1253   1256   1262     1  0.0000000  0.6508444  3
   1256   1253   1250   1259     1  0.0000000  0.6508444  3
   1264   1267   1270   1276     1  0.0000000  0.6508444  3
   1270   1267   1264   1273     1  0.0000000  0.6508444  3
   1278   1281   1284   1290     1  0.0000000  0.6508444  3
   1284   1281   1278   1287     1  0.0000000  0.6508444  3
   1292   1295   1298   1304     1  0.0000000  0.6508444  3
   1298   1295   1292   1301     1  0.0000000  0.6508444  3
   1306   1309   1312   1318     1  0.0000000  0.6508444  3
   1312   1309   1306   1315     1  0.0000000  0.6508444  3
   1320   1323   1326   1332     1  0.0000000  0.6508444  3
   1326   1323   1320   1329     1  0.0000000  0.6508444  3
   1334   1337   1340   1346     1  0.0000000  0.6508444  3
   1340   1337   1334   1343     1  0.0000000  0.6508444  3
      1      2      8      9     1  0.0000000  1.0460000  1
      1      2      8      9     1  0.0000000  0.0000000  3
      1      2      8     10     1  0.0000000  1.0460000  1
      1      2      8     10     1  0.0000000  0.0000000  3
      1      5     11     12     1  0.0000000  1.0460000  1
      1      5     11     12     1  0.0000000  0.0000000  3
      1      5     11     13     1  0.0000000  1.0460000  1
      1      5     11     13     1  0.0000000  0.0000000  3
      2      1      5      6     1  0.0000000  1.6038667  3
      2      1      5      7     1  0.0000000  1.6038667  3
      2      8     14     15     1  0.0000000  0.6508444  3
      2      8     14     16     1  0.0000000  0.6508444  3
      5      1      2      3     1  0.0000000  1.6038667  3
      3      2      8     14     1  0.0000000  0.6508444  3
      3      2      8      9     1  0.0000000  0.6508444  3
      3      2      8     10     1  0.0000000  0.6508444  3
      5      1      2      4     1  0.0000000  1.6038667  3
      4      2      8     14     1  0.0000000  0.6508444  3
      4      2      8      9     1  0.0000000  0.6508444  3
      4      2      8     10     1  0.0000000  0.6508444  3
      5     11     17     18     1  0.0000000  0.6508444  3
      5     11     17     19     1  0.0000000  0.6508444  3
      6      5     11     17     1  0.0000000  0.6508444  3
      6      5     11     12     1  0.0000000  0.6508444  3
      6      5     11     13     1  0.0000000  0.6508444  3
      7      5     11     17     1  0.0000000  0.6508444  3
      7      5     11     12     1  0.0000000  0.6508444  3
      7      5     11     13     1  0.0000000  0.6508444  3
      8     14     20     58     1  0.0000000  0.6508444  3
      9      8     14     20     1  0.0000000  0.6508444  3
      9      8     14     15     1  0.0000000  0.6508444  3
      9      8     14     16     1  0.0000000  0.6508444  3
     10      8     14     20     1  0.0000000  0.6508444  3
     10      8     14     15     1  0.0000000  0.6508444  3
     10      8     14     16     1  0.0000000  0.6508444  3
     11     17     21     59     1  0.0000000  0.6508444  3
     12     11     17     21     1  0.0000000  0.6508444  3
     12     11     17     18     1  0.0000000  0.6508444  3
     12     11     17     19     1  0.0000000  0.6508444  3
     13     11     17     21     1  0.0000000  0.6508444  3
     13     11     17     18     1  0.0000000  0.6508444  3
     13     11     17     19     1  0.0000000  0.6508444  3
     14     20     28     29     1  0.0000000  0.6508444  3
     14     20     28     30     1  0.0000000  0.6508444  3
     14     20     31     32     1  0.0000000  0.6508444  3
     14     20     31     33     1  0.0000000  0.6508444  3
     15     14     20     28     1  0.0000000  0.6508444  3
     15     14     20     31     1  0.0000000  0.6508444  3
     15     14     20     58     1  0.0000000  0.6508444  3
     16     14     20     28     1  0.0000000  0.6508444  3
     16     14     20     31     1  0.0000000  0.6508444  3
     16     14     20     58     1  0.0000000  0.6508444  3
     17     21     22     23     1  0.0000000  0.6508444  3
     17     21     22     24     1  0.0000000  0.6508444  3
     17     21     25     26     1  0.0000000  0.6508444  3
     17     21     25     27     1  0.0000000  0.6508444  3
     18     17     21     22     1  0.0000000  0.6508444  3
     18     17     21     25     1  0.0000000  0.6508444  3
     18     17     21     59     1  0.0000000  0.6508444  3
     19     17     21     22     1  0.0000000  0.6508444  3
     19     17     21     25     1  0.0000000  0.6508444  3
     19     17     21     59     1  0.0000000  0.6508444  3
     20     28     40     41     1  0.0000000  0.6508444  3
     20     28     40     42     1  0.0000000  0.6508444  3
     20     31     43     44     1  0.0000000  0.6508444  3
     20     31     43     45     1  0.0000000  0.6508444  3
     21     22     34     35     1  0.0000000  0.6508444  3
     21     22     34     36     1  0.0000000  0.6508444  3
     21     25     37     38     1  0.0000000  0.6508444  3
     21     25     37     39     1  0.0000000  0.6508444  3
     22     21     25     26     1  0.0000000  0.6508444  3
     22     21     25     27     1  0.0000000  0.6508444  3
     22     34     55     56     1  0.0000000  0.6694400  3
     22     34     55     57     1  0.0000000  0.6694400  3
     23     22     21     25     1  0.0000000  0.6508444  3
     23     22     21     59     1  0.0000000  0.6508444  3
     23     22     34     55     1  0.0000000  0.6508444  3
     23     22     34     35     1  0.0000000  0.6508444  3
     23     22     34     36     1  0.0000000  0.6508444  3
     24     22     21     25     1  0.0000000  0.6508444  3
     24     22     21     59     1  0.0000000  0.6508444  3
     24     22     34     55     1  0.0000000  0.6508444  3
     24     22     34     35     1  0.0000000  0.6508444  3
     24     22     34     36     1  0.0000000  0.6508444  3
     25     37     52     53     1  0.0000000  0.6694400  3
     25     37     52     54     1  0.0000000  0.6694400  3
     26     25     21     59     1  0.0000000  0.6508444  3
     26     25     37     52     1  0.0000000  0.6508444  3
     26     25     37     38     1  0.0000000  0.6508444  3
     26     25     37     39     1  0.0000000  0.6508444  3
     27     25     21     59     1  0.0000000  0.6508444  3
     27     25     37     52     1  0.0000000  0.6508444  3
     27     25     37     38     1  0.0000000  0.6508444  3
     27     25     37     39     1  0.0000000  0.6508444  3
     28     20     31     32     1  0.0000000  0.6508444  3
     28     20     31     33     1  0.0000000  0.6508444  3
     28     40     49     50     1  0.0000000  0.6694400  3
     28     40     49     51     1  0.0000000  0.6694400  3
     29     28     20     31     1  0.0000000  0.6508444  3
     29     28     20     58     1  0.0000000  0.6508444  3
     29     28     40     49     1  0.0000000  0.6508444  3
     29     28     40     41     1  0.0000000  0.6508444  3
     29     28     40     42     1  0.0000000  0.6508444  3
     30     28     20     31     1  0.0000000  0.6508444  3
     30     28     20     58     1  0.0000000  0.6508444  3
     30     28     40     49     1  0.0000000  0.6508444  3
     30     28     40     41     1  0.0000000  0.6508444  3
     30     28     40     42     1  0.0000000  0.6508444  3
     31     43     46     47     1  0.0000000  0.6694400  3
     31     43     46     48     1  0.0000000  0.6694400  3
     32     31     20     58     1  0.0000000  0.6508444  3
     32     31     43     46     1  0.0000000  0.6508444  3
     32     31     43     44     1  0.0000000  0.6508444  3
     32     31     43     45     1  0.0000000  0.6508444  3
     33     31     20     58     1  0.0000000  0.6508444  3
     33     31     43     46     1  0.0000000  0.6508444  3
     33     31     43     44     1  0.0000000  0.6508444  3
     33     31     43     45     1  0.0000000  0.6508444  3
     34     22     21     59     1  0.0000000  0.6508444  3
     35     34     55    178     1  0.0000000  1.0460000  1
     35     34     55    178     1  0.0000000  0.0000000  3
     35     34     55     56     1  0.0000000  0.6276000  3
     35     34     55     57     1  0.0000000  0.6276000  3
     36     34     55    178     1  0.0000000  1.0460000  1
     36     34     55    178     1  0.0000000  0.0000000  3
     36     34     55     56     1  0.0000000  0.6276000  3
     36     34     55     57     1  0.0000000  0.6276000  3
     37     25     21     59     1  0.0000000  0.6508444  3
     38     37     52    148     1  0.0000000  1.0460000  1
     38     37     52    148     1  0.0000000  0.0000000  3
     38     37     52     53     1  0.0000000  0.6276000  3
     38     37     52     54     1  0.0000000  0.6276000  3
     39     37     52    148     1  0.0000000  1.0460000  1
     39     37     52    148     1  0.0000000  0.0000000  3
     39     37     52     53     1  0.0000000  0.6276000  3
     39     37     52     54     1  0.0000000  0.6276000  3
     40     28     20     58     1  0.0000000  0.6508444  3
     41     40     49    118     1  0.0000000  1.0460000  1
     41     40     49    118     1  0.0000000  0.0000000  3
     41     40     49     50     1  0.0000000  0.6276000  3
     41     40     49     51     1  0.0000000  0.6276000  3
     42     40     49    118     1  0.0000000  1.0460000  1
     42     40     49    118     1  0.0000000  0.0000000  3
     42     40     49     50     1  0.0000000  0.6276000  3
     42     40     49     51     1  0.0000000  0.6276000  3
     43     31     20     58     1  0.0000000  0.6508444  3
     44     43     46     88     1  0.0000000  1.0460000  1
     44     43     46     88     1  0.0000000  0.0000000  3
     44     43     46     47     1  0.0000000  0.6276000  3
     44     43     46     48     1  0.0000000  0.6276000  3
     45     43     46     88     1  0.0000000  1.0460000  1
     45     43     46     88     1  0.0000000  0.0000000  3
     45     43     46     47     1  0.0000000  0.6276000  3
     45     43     46     48     1  0.0000000  0.6276000  3
     46     88     79     80     1  0.0000000  1.6038667  3
     46     88     79     81     1  0.0000000  1.6038667  3
     47     46     88     79     1  0.0000000  1.6038667  3
     48     46     88     79     1  0.0000000  1.6038667  3
     49    118    109    110     1  0.0000000  1.6038667  3
     49    118    109    111     1  0.0000000  1.6038667  3
     50     49    118    109     1  0.0000000  1.6038667  3
     51     49    118    109     1  0.0000000  1.6038667  3
     52    148    139    140     1  0.0000000  1.6038667  3
     52    148    139    141     1  0.0000000  1.6038667  3
     53     52    148    139     1  0.0000000  1.6038667  3
     54     52    148    139     1  0.0000000  1.6038667  3
     55    178    169    170     1  0.0000000  1.6038667  3
     55    178    169    171     1  0.0000000  1.6038667  3
     56     55    178    169     1  0.0000000  1.6038667  3
     57     55    178    169     1  0.0000000  1.6038667  3
     60     61     73     74     1  0.0000000  0.6508444  3
     60     61     73     75     1  0.0000000  0.6508444  3
     60     64     76     77     1  0.0000000  0.6508444  3
     60     64     76     78     1  0.0000000  0.6508444  3
     60     67     70     71     1  0.0000000  0.6508444  3
     60     67     70     72     1  0.0000000  0.6508444  3
     61     60     64     65     1  0.0000000  0.6508444  3
     61     60     64     66     1  0.0000000  0.6508444  3
     61     60     67     68     1  0.0000000  0.6508444  3
     61     60     67     69     1  0.0000000  0.6508444  3
     61     73     85     86     1  0.0000000  0.6508444  3
     61     73     85     87     1  0.0000000  0.6508444  3
     62     61     60     64     1  0.0000000  0.6508444  3
     62     61     60     67     1  0.0000000  0.6508444  3
     62     61     60     89     1  0.0000000  0.6508444  3
     62     61     73     85     1  0.0000000  0.6508444  3
     62     61     73     74     1  0.0000000  0.6508444  3
     62     61     73     75     1  0.0000000  0.6508444  3
     63     61     60     64     1  0.0000000  0.6508444  3
     63     61     60     67     1  0.0000000  0.6508444  3
     63     61     60     89     1  0.0000000  0.6508444  3
     63     61     73     85     1  0.0000000  0.6508444  3
     63     61     73     74     1  0.0000000  0.6508444  3
     63     61     73     75     1  0.0000000  0.6508444  3
     64     60     67     68     1  0.0000000  0.6508444  3
     64     60     67     69     1  0.0000000  0.6508444  3
     64     76     82     83     1  0.0000000  0.6508444  3
     64     76     82     84     1  0.0000000  0.6508444  3
     65     64     60     67     1  0.0000000  0.6508444  3
     65     64     60     89     1  0.0000000  0.6508444  3
     65     64     76     82     1  0.0000000  0.6508444  3
     65     64     76     77     1  0.0000000  0.6508444  3
     65     64     76     78     1  0.0000000  0.6508444  3
     66     64     60     67     1  0.0000000  0.6508444  3
     66     64     60     89     1  0.0000000  0.6508444  3
     66     64     76     82     1  0.0000000  0.6508444  3
     66     64     76     77     1  0.0000000  0.6508444  3
     66     64     76     78     1  0.0000000  0.6508444  3
     67     70     79     80     1  0.0000000  0.6508444  3
     67     70     79     81     1  0.0000000  0.6508444  3
     68     67     60     89     1  0.0000000  0.6508444  3
     68     67     70     79     1  0.0000000  0.6508444  3
     68     67     70     71     1  0.0000000  0.6508444  3
     68     67     70     72     1  0.0000000  0.6508444  3
     69     67     60     89     1  0.0000000  0.6508444  3
     69     67     70     79     1  0.0000000  0.6508444  3
     69     67     70     71     1  0.0000000  0.6508444  3
     69     67     70     72     1  0.0000000  0.6508444  3
     70     67     60     89     1  0.0000000  0.6508444  3
     71     70     79     88     1  0.0000000  1.0460000  1
     71     70     79     88     1  0.0000000  0.0000000  3
     71     70     79     80     1  0.0000000  0.6508444  3
     71     70     79     81     1  0.0000000  0.6508444  3
     72     70     79     88     1  0.0000000  1.0460000  1
     72     70     79     88     1  0.0000000  0.0000000  3
     72     70     79     80     1  0.0000000  0.6508444  3
     72     70     79     81     1  0.0000000  0.6508444  3
     73     61     60     89     1  0.0000000  0.6508444  3
     74     73     85    238     1  0.0000000  1.0460000  1
     74     73     85    238     1  0.0000000  0.0000000  3
     74     73     85     86     1  0.0000000  0.6508444  3
     74     73     85     87     1  0.0000000  0.6508444  3
     75     73     85    238     1  0.0000000  1.0460000  1
     75     73     85    238     1  0.0000000  0.0000000  3
     75     73     85     86     1  0.0000000  0.6508444  3
     75     73     85     87     1  0.0000000  0.6508444  3
     76     64     60     89     1  0.0000000  0.6508444  3
     77     76     82    208     1  0.0000000  1.0460000  1
     77     76     82    208     1  0.0000000  0.0000000  3
     77     76     82     83     1  0.0000000  0.6508444  3
     77     76     82     84     1  0.0000000  0.6508444  3
     78     76     82    208     1  0.0000000  1.0460000  1
     78     76     82    208     1  0.0000000  0.0000000  3
     78     76     82     83     1  0.0000000  0.6508444  3
     78     76     82     84     1  0.0000000  0.6508444  3
     82    208    199    200     1  0.0000000  1.6038667  3
     82    208    199    201     1  0.0000000  1.6038667  3
     83     82    208    199     1  0.0000000  1.6038667  3
     84     82    208    199     1  0.0000000  1.6038667  3
     85    238    229    230     1  0.0000000  1.6038667  3
     85    238    229    231     1  0.0000000  1.6038667  3
     86     85    238    229     1  0.0000000  1.6038667  3
     87     85    238    229     1  0.0000000  1.6038667  3
     90     91    103    104     1  0.0000000  0.6508444  3
     90     91    103    105     1  0.0000000  0.6508444  3
     90     94    106    107     1  0.0000000  0.6508444  3
     90     94    106    108     1  0.0000000  0.6508444  3
     90     97    100    101     1  0.0000000  0.6508444  3
     90     97    100    102     1  0.0000000  0.6508444  3
     91     90     94     95     1  0.0000000  0.6508444  3
     91     90     94     96     1  0.0000000  0.6508444  3
     91     90     97     98     1  0.0000000  0.6508444  3
     91     90     97     99     1  0.0000000  0.6508444  3
     91    103    115    116     1  0.0000000  0.6508444  3
     91    103    115    117     1  0.0000000  0.6508444  3
     92     91     90     94     1  0.0000000  0.6508444  3
     92     91     90     97     1  0.0000000  0.6508444  3
     92     91     90    119     1  0.0000000  0.6508444  3
     92     91    103    115     1  0.0000000  0.6508444  3
     92     91    103    104     1  0.0000000  0.6508444  3
     92     91    103    105     1  0.0000000  0.6508444  3
     93     91     90     94     1  0.0000000  0.6508444  3
     93     91     90     97     1  0.0000000  0.6508444  3
     93     91     90    119     1  0.0000000  0.6508444  3
     93     91    103    115     1  0.0000000  0.6508444  3
     93     91    103    104     1  0.0000000  0.6508444  3
     93     91    103    105     1  0.0000000  0.6508444  3
     94     90     97     98     1  0.0000000  0.6508444  3
     94     90     97     99     1  0.0000000  0.6508444  3
     94    106    112    113     1  0.0000000  0.6508444  3
     94    106    112    114     1  0.0000000  0.6508444  3
     95     94     90     97     1  0.0000000  0.6508444  3
     95     94     90    119     1  0.0000000  0.6508444  3
     95     94    106    112     1  0.0000000  0.6508444  3
     95     94    106    107     1  0.0000000  0.6508444  3
     95     94    106    108     1  0.0000000  0.6508444  3
     96     94     90     97     1  0.0000000  0.6508444  3
     96     94     90    119     1  0.0000000  0.6508444  3
     96     94    106    112     1  0.0000000  0.6508444  3
     96     94    106    107     1  0.0000000  0.6508444  3
     96     94    106    108     1  0.0000000  0.6508444  3
     97    100    109    110     1  0.0000000  0.6508444  3
     97    100    109    111     1  0.0000000  0.6508444  3
     98     97     90    119     1  0.0000000  0.6508444  3
     98     97    100    109     1  0.0000000  0.6508444  3
     98     97    100    101     1  0.0000000  0.6508444  3
     98     97    100    102     1  0.0000000  0.6508444  3
     99     97     90    119     1  0.0000000  0.6508444  3
     99     97    100    109     1  0.0000000  0.6508444  3
     99     97    100    101     1  0.0000000  0.6508444  3
     99     97    100    102     1  0.0000000  0.6508444  3
    100     97     90    119     1  0.0000000  0.6508444  3
    101    100    109    118     1  0.0000000  1.0460000  1
    101    100    109    118     1  0.0000000  0.0000000  3
    101    100    109    110     1  0.0000000  0.6508444  3
    101    100    109    111     1  0.0000000  0.6508444  3
    102    100    109    118     1  0.0000000  1.0460000  1
    102    100    109    118     1  0.0000000  0.0000000  3
    102    100    109    110     1  0.0000000  0.6508444  3
    102    100    109    111     1  0.0000000  0.6508444  3
    103     91     90    119     1  0.0000000  0.6508444  3
    104    103    115    298     1  0.0000000  1.0460000  1
    104    103    115    298     1  0.0000000  0.0000000  3
    104    103    115    116     1  0.0000000  0.6508444  3
    104    103    115    117     1  0.0000000  0.6508444  3
    105    103    115    298     1  0.0000000  1.0460000  1
    105    103    115    298     1  0.0000000  0.0000000  3
    105    103    115    116     1  0.0000000  0.6508444  3
    105    103    115    117     1  0.0000000  0.6508444  3
    106     94     90    119     1  0.0000000  0.6508444  3
    107    106    112    268     1  0.0000000  1.0460000  1
    107    106    112    268     1  0.0000000  0.0000000  3
    107    106    112    113     1  0.0000000  0.6508444  3
    107    106    112    114     1  0.0000000  0.6508444  3
    108    106    112    268     1  0.0000000  1.0460000  1
    108    106    112    268     1  0.0000000  0.0000000  3
    108    106    112    113     1  0.0000000  0.6508444  3
    108    106    112    114     1  0.0000000  0.6508444  3
    112    268    259    260     1  0.0000000  1.6038667  3
    112    268    259    261     1  0.0000000  1.6038667  3
    113    112    268    259     1  0.0000000  1.6038667  3
    114    112    268    259     1  0.0000000  1.6038667  3
    115    298    289    290     1  0.0000000  1.6038667  3
    115    298    289    291     1  0.0000000  1.6038667  3
    116    115    298    289     1  0.0000000  1.6038667  3
    117    115    298    289     1  0.0000000  1.6038667  3
    120    121    133    134     1  0.0000000  0.6508444  3
    120    121    133    135     1  0.0000000  0.6508444  3
    120    124    136    137     1  0.0000000  0.6508444  3
    120    124    136    138     1  0.0000000  0.6508444  3
    120    127    130    131     1  0.0000000  0.6508444  3
    120    127    130    132     1  0.0000000  0.6508444  3
    121    120    124    125     1  0.0000000  0.6508444  3
    121    120    124    126     1  0.0000000  0.6508444  3
    121    120    127    128     1  0.0000000  0.6508444  3
    121    120    127    129     1  0.0000000  0.6508444  3
    121    133    145    146     1  0.0000000  0.6508444  3
    121    133    145    147     1  0.0000000  0.6508444  3
    122    121    120    124     1  0.0000000  0.6508444  3
    122    121    120    127     1  0.0000000  0.6508444  3
    122    121    120    149     1  0.0000000  0.6508444  3
    122    121    133    145     1  0.0000000  0.6508444  3
    122    121    133    134     1  0.0000000  0.6508444  3
    122    121    133    135     1  0.0000000  0.6508444  3
    123    121    120    124     1  0.0000000  0.6508444  3
    123    121    120    127     1  0.0000000  0.6508444  3
    123    121    120    149     1  0.0000000  0.6508444  3
    123    121    133    145     1  0.0000000  0.6508444  3
    123    121    133    134     1  0.0000000  0.6508444  3
    123    121    133    135     1  0.0000000  0.6508444  3
    124    120    127    128     1  0.0000000  0.6508444  3
    124    120    127    129     1  0.0000000  0.6508444  3
    124    136    142    143     1  0.0000000  0.6508444  3
    124    136    142    144     1  0.0000000  0.6508444  3
    125    124    120    127     1  0.0000000  0.6508444  3
    125    124    120    149     1  0.0000000  0.6508444  3
    125    124    136    142     1  0.0000000  0.6508444  3
    125    124    136    137     1  0.0000000  0.6508444  3
    125    124    136    138     1  0.0000000  0.6508444  3
    126    124    120    127     1  0.0000000  0.6508444  3
    126    124    120    149     1  0.0000000  0.6508444  3
    126    124    136    142     1  0.0000000  0.6508444  3
    126    124    136    137     1  0.0000000  0.6508444  3
    126    124    136    138     1  0.0000000  0.6508444  3
    127    130    139    140     1  0.0000000  0.6508444  3
    127    130    139    141     1  0.0000000  0.6508444  3
    128    127    120    149     1  0.0000000  0.6508444  3
    128    127    130    139     1  0.0000000  0.6508444  3
    128    127    130    131     1  0.0000000  0.6508444  3
    128    127    130    132     1  0.0000000  0.6508444  3
    129    127    120    149     1  0.0000000  0.6508444  3
    129    127    130    139     1  0.0000000  0.6508444  3
    129    127    130    131     1  0.0000000  0.6508444  3
    129    127    130    132     1  0.0000000  0.6508444  3
    130    127    120    149     1  0.0000000  0.6508444  3
    131    130    139    148     1  0.0000000  1.0460000  1
    131    130    139    148     1  0.0000000  0.0000000  3
    131    130    139    140     1  0.0000000  0.6508444  3
    131    130    139    141     1  0.0000000  0.6508444  3
    132    130    139    148     1  0.0000000  1.0460000  1
    132    130    139    148     1  0.0000000  0.0000000  3
    132    130    139    140     1  0.0000000  0.6508444  3
    132    130    139    141     1  0.0000000  0.6508444  3
    133    121    120    149     1  0.0000000  0.6508444  3
    134    133    145    358     1  0.0000000  1.0460000  1
    134    133    145    358     1  0.0000000  0.0000000  3
    134    133    145    146     1  0.0000000  0.6508444  3
    134    133    145    147     1  0.0000000  0.6508444  3
    135    133    145    358     1  0.0000000  1.0460000  1
    135    133    145    358     1  0.0000000  0.0000000  3
    135    133    145    146     1  0.0000000  0.6508444  3
    135    133    145    147     1  0.0000000  0.6508444  3
    136    124    120    149     1  0.0000000  0.6508444  3
    137    136    142    328     1  0.0000000  1.0460000  1
    137    136    142    328     1  0.0000000  0.0000000  3
    137    136    142    143     1  0.0000000  0.6508444  3
    137    136    142    144     1  0.0000000  0.6508444  3
    138    136    142    328     1  0.0000000  1.0460000  1
    138    136    142    328     1  0.0000000  0.0000000  3
    138    136    142    143     1  0.0000000  0.6508444  3
    138    136    142    144     1  0.0000000  0.6508444  3
    142    328    319    320     1  0.0000000  1.6038667  3
    142    328    319    321     1  0.0000000  1.6038667  3
    143    142    328    319     1  0.0000000  1.6038667  3
    144    142    328    319     1  0.0000000  1.6038667  3
    145    358    349    350     1  0.0000000  1.6038667  3
    145    358    349    351     1  0.0000000  1.6038667  3
    146    145    358    349     1  0.0000000  1.6038667  3
    147    145    358    349     1  0.0000000  1.6038667  3
    150    151    163    164     1  0.0000000  0.6508444  3
    150    151    163    165     1  0.0000000  0.6508444  3
    150    154    166    167     1  0.0000000  0.6508444  3
    150    154    166    168     1  0.0000000  0.6508444  3
    150    157    160    161     1  0.0000000  0.6508444  3
    150    157    160    162     1  0.0000000  0.6508444  3
    151    150    154    155     1  0.0000000  0.6508444  3
    151    150    154    156     1  0.0000000  0.6508444  3
    151    150    157    158     1  0.0000000  0.6508444  3
    151    150    157    159     1  0.0000000  0.6508444  3
    151    163    175    176     1  0.0000000  0.6508444  3
    151    163    175    177     1  0.0000000  0.6508444  3
    152    151    150    154     1  0.0000000  0.6508444  3
    152    151    150    157     1  0.0000000  0.6508444  3
    152    151    150    179     1  0.0000000  0.6508444  3
    152    151    163    175     1  0.0000000  0.6508444  3
    152    151    163    164     1  0.0000000  0.6508444  3
    152    151    163    165     1  0.0000000  0.6508444  3
    153    151    150    154     1  0.0000000  0.6508444  3
    153    151    150    157     1  0.0000000  0.6508444  3
    153    151    150    179     1  0.0000000  0.6508444  3
    153    151    163    175     1  0.0000000  0.6508444  3
    153    151    163    164     1  0.0000000  0.6508444  3
    153    151    163    165     1  0.0000000  0.6508444  3
    154    150    157    158     1  0.0000000  0.6508444  3
    154    150    157    159     1  0.0000000  0.6508444  3
    154    166    172    173     1  0.0000000  0.6508444  3
    154    166    172    174     1  0.0000000  0.6508444  3
    155    154    150    157     1  0.0000000  0.6508444  3
    155    154    150    179     1  0.0000000  0.6508444  3
    155    154    166    172     1  0.0000000  0.6508444  3
    155    154    166    167     1  0.0000000  0.6508444  3
    155    154    166    168     1  0.0000000  0.6508444  3
    156    154    150    157     1  0.0000000  0.6508444  3
    156    154    150    179     1  0.0000000  0.6508444  3
    156    154    166    172     1  0.0000000  0.6508444  3
    156    154    166    167     1  0.0000000  0.6508444  3
    156    154    166    168     1  0.0000000  0.6508444  3
    157    160    169    170     1  0.0000000  0.6508444  3
    157    160    169    171     1  0.0000000  0.6508444  3
    158    157    150    179     1  0.0000000  0.6508444  3
    158    157    160    169     1  0.0000000  0.6508444  3
    158    157    160    161     1  0.0000000  0.6508444  3
    158    157    160    162     1  0.0000000  0.6508444  3
    159    157    150    179     1  0.0000000  0.6508444  3
    159    157    160    169     1  0.0000000  0.6508444  3
    159    157    160    161     1  0.0000000  0.6508444  3
    159    157    160    162     1  0.0000000  0.6508444  3
    160    157    150    179     1  0.0000000  0.6508444  3
    161    160    169    178     1  0.0000000  1.0460000  1
    161    160    169    178     1  0.0000000  0.0000000  3
    161    160    169    170     1  0.0000000  0.6508444  3
    161    160    169    171     1  0.0000000  0.6508444  3
    162    160    169    178     1  0.0000000  1.0460000  1
    162    160    169    178     1  0.0000000  0.0000000  3
    162    160    169    170     1  0.0000000  0.6508444  3
    162    160    169    171     1  0.0000000  0.6508444  3
    163    151    150    179     1  0.0000000  0.6508444  3
    164    163    175    418     1  0.0000000  1.0460000  1
    164    163    175    418     1  0.0000000  0.0000000  3
    164    163    175    176     1  0.0000000  0.6508444  3
    164    163    175    177     1  0.0000000  0.6508444  3
    165    163    175    418     1  0.0000000  1.0460000  1
    165    163    175    418     1  0.0000000  0.0000000  3
    165    163    175    176     1  0.0000000  0.6508444  3
    165    163    175    177     1  0.0000000  0.6508444  3
    166    154    150    179     1  0.0000000  0.6508444  3
    167    166    172    388     1  0.0000000  1.0460000  1
    167    166    172    388     1  0.0000000  0.0000000  3
    167    166    172    173     1  0.0000000  0.6508444  3
    167    166    172    174     1  0.0000000  0.6508444  3
    168    166    172    388     1  0.0000000  1.0460000  1
    168    166    172    388     1  0.0000000  0.0000000  3
    168    166    172    173     1  0.0000000  0.6508444  3
    168    166    172    174     1  0.0000000  0.6508444  3
    172    388    379    380     1  0.0000000  1.6038667  3
    172    388    379    381     1  0.0000000  1.6038667  3
    173    172    388    379     1  0.0000000  1.6038667  3
    174    172    388    379     1  0.0000000  1.6038667  3
    175    418    409    410     1  0.0000000  1.6038667  3
    175    418    409    411     1  0.0000000  1.6038667  3
    176    175    418    409     1  0.0000000  1.6038667  3
    177    175    418    409     1  0.0000000  1.6038667  3
    180    181    193    194     1  0.0000000  0.6508444  3
    180    181    193    195     1  0.0000000  0.6508444  3
    180    184    196    197     1  0.0000000  0.6508444  3
    180    184    196    198     1  0.0000000  0.6508444  3
    180    187    190    191     1  0.0000000  0.6508444  3
    180    187    190    192     1  0.0000000  0.6508444  3
    181    180    184    185     1  0.0000000  0.6508444  3
    181    180    184    186     1  0.0000000  0.6508444  3
    181    180    187    188     1  0.0000000  0.6508444  3
    181    180    187    189     1  0.0000000  0.6508444  3
    181    193    205    206     1  0.0000000  0.6508444  3
    181    193    205    207     1  0.0000000  0.6508444  3
    182    181    180    184     1  0.0000000  0.6508444  3
    182    181    180    187     1  0.0000000  0.6508444  3
    182    181    180    209     1  0.0000000  0.6508444  3
    182    181    193    205     1  0.0000000  0.6508444  3
    182    181    193    194     1  0.0000000  0.6508444  3
    182    181    193    195     1  0.0000000  0.6508444  3
    183    181    180    184     1  0.0000000  0.6508444  3
    183    181    180    187     1  0.0000000  0.6508444  3
    183    181    180    209     1  0.0000000  0.6508444  3
    183    181    193    205     1  0.0000000  0.6508444  3
    183    181    193    194     1  0.0000000  0.6508444  3
    183    181    193    195     1  0.0000000  0.6508444  3
    184    180    187    188     1  0.0000000  0.6508444  3
    184    180    187    189     1  0.0000000  0.6508444  3
    184    196    202    203     1  0.0000000  0.6508444  3
    184    196    202    204     1  0.0000000  0.6508444  3
    185    184    180    187     1  0.0000000  0.6508444  3
    185    184    180    209     1  0.0000000  0.6508444  3
    185    184    196    202     1  0.0000000  0.6508444  3
    185    184    196    197     1  0.0000000  0.6508444  3
    185    184    196    198     1  0.0000000  0.6508444  3
    186    184    180    187     1  0.0000000  0.6508444  3
    186    184    180    209     1  0.0000000  0.6508444  3
    186    184    196    202     1  0.0000000  0.6508444  3
    186    184    196    197     1  0.0000000  0.6508444  3
    186    184    196    198     1  0.0000000  0.6508444  3
    187    190    199    200     1  0.0000000  0.6508444  3
    187    190    199    201     1  0.0000000  0.6508444  3
    188    187    180    209     1  0.0000000  0.6508444  3
    188    187    190    199     1  0.0000000  0.6508444  3
    188    187    190    191     1  0.0000000  0.6508444  3
    188    187    190    192     1  0.0000000  0.6508444  3
    189    187    180    209     1  0.0000000  0.6508444  3
    189    187    190    199     1  0.0000000  0.6508444  3
    189    187    190    191     1  0.0000000  0.6508444  3
    189    187    190    192     1  0.0000000  0.6508444  3
    190    187    180    209     1  0.0000000  0.6508444  3
    191    190    199    208     1  0.0000000  1.0460000  1
    191    190    199    208     1  0.0000000  0.0000000  3
    191    190    199    200     1  0.0000000  0.6508444  3
    191    190    199    201     1  0.0000000  0.6508444  3
    192    190    199    208     1  0.0000000  1.0460000  1
    192    190    199    208     1  0.0000000  0.0000000  3
    192    190    199    200     1  0.0000000  0.6508444  3
    192    190    199    201     1  0.0000000  0.6508444  3
    193    181    180    209     1  0.0000000  0.6508444  3
    194    193    205    478     1  0.0000000  1.0460000  1
    194    193    205    478     1  0.0000000  0.0000000  3
    194    193    205    206     1  0.0000000  0.6508444  3
    194    193    205    207     1  0.0000000  0.6508444  3
    195    193    205    478     1  0.0000000  1.0460000  1
    195    193    205    478     1  0.0000000  0.0000000  3
    195    193    205    206     1  0.0000000  0.6508444  3
    195    193    205    207     1  0.0000000  0.6508444  3
    196    184    180    209     1  0.0000000  0.6508444  3
    197    196    202    448     1  0.0000000  1.0460000  1
    197    196    202    448     1  0.0000000  0.0000000  3
    197    196    202    203     1  0.0000000  0.6508444  3
    197    196    202    204     1  0.0000000  0.6508444  3
    198    196    202    448     1  0.0000000  1.0460000  1
    198    196    202    448     1  0.0000000  0.0000000  3
    198    196    202    203     1  0.0000000  0.6508444  3
    198    196    202    204     1  0.0000000  0.6508444  3
    202    448    439    440     1  0.0000000  1.6038667  3
    202    448    439    441     1  0.0000000  1.6038667  3
    203    202    448    439     1  0.0000000  1.6038667  3
    204    202    448    439     1  0.0000000  1.6038667  3
    205    478    469    470     1  0.0000000  1.6038667  3
    205    478    469    471     1  0.0000000  1.6038667  3
    206    205    478    469     1  0.0000000  1.6038667  3
    207    205    478    469     1  0.0000000  1.6038667  3
    210    211    223    224     1  0.0000000  0.6508444  3
    210    211    223    225     1  0.0000000  0.6508444  3
    210    214    226    227     1  0.0000000  0.6508444  3
    210    214    226    228     1  0.0000000  0.6508444  3
    210    217    220    221     1  0.0000000  0.6508444  3
    210    217    220    222     1  0.0000000  0.6508444  3
    211    210    214    215     1  0.0000000  0.6508444  3
    211    210    214    216     1  0.0000000  0.6508444  3
    211    210    217    218     1  0.0000000  0.6508444  3
    211    210    217    219     1  0.0000000  0.6508444  3
    211    223    235    236     1  0.0000000  0.6508444  3
    211    223    235    237     1  0.0000000  0.6508444  3
    212    211    210    214     1  0.0000000  0.6508444  3
    212    211    210    217     1  0.0000000  0.6508444  3
    212    211    210    239     1  0.0000000  0.6508444  3
    212    211    223    235     1  0.0000000  0.6508444  3
    212    211    223    224     1  0.0000000  0.6508444  3
    212    211    223    225     1  0.0000000  0.6508444  3
    213    211    210    214     1  0.0000000  0.6508444  3
    213    211    210    217     1  0.0000000  0.6508444  3
    213    211    210    239     1  0.0000000  0.6508444  3
    213    211    223    235     1  0.0000000  0.6508444  3
    213    211    223    224     1  0.0000000  0.6508444  3
    213    211    223    225     1  0.0000000  0.6508444  3
    214    210    217    218     1  0.0000000  0.6508444  3
    214    210    217    219     1  0.0000000  0.6508444  3
    214    226    232    233     1  0.0000000  0.6508444  3
    214    226    232    234     1  0.0000000  0.6508444  3
    215    214    210    217     1  0.0000000  0.6508444  3
    215    214    210    239     1  0.0000000  0.6508444  3
    215    214    226    232     1  0.0000000  0.6508444  3
    215    214    226    227     1  0.0000000  0.6508444  3
    215    214    226    228     1  0.0000000  0.6508444  3
    216    214    210    217     1  0.0000000  0.6508444  3
    216    214    210    239     1  0.0000000  0.6508444  3
    216    214    226    232     1  0.0000000  0.6508444  3
    216    214    226    227     1  0.0000000  0.6508444  3
    216    214    226    228     1  0.0000000  0.6508444  3
    217    220    229    230     1  0.0000000  0.6508444  3
    217    220    229    231     1  0.0000000  0.6508444  3
    218    217    210    239     1  0.0000000  0.6508444  3
    218    217    220    229     1  0.0000000  0.6508444  3
    218    217    220    221     1  0.0000000  0.6508444  3
    218    217    220    222     1  0.0000000  0.6508444  3
    219    217    210    239     1  0.0000000  0.6508444  3
    219    217    220    229     1  0.0000000  0.6508444  3
    219    217    220    221     1  0.0000000  0.6508444  3
    219    217    220    222     1  0.0000000  0.6508444  3
    220    217    210    239     1  0.0000000  0.6508444  3
    221    220    229    238     1  0.0000000  1.0460000  1
    221    220    229    238     1  0.0000000  0.0000000  3
    221    220    229    230     1  0.0000000  0.6508444  3
    221    220    229    231     1  0.0000000  0.6508444  3
    222    220    229    238     1  0.0000000  1.0460000  1
    222    220    229    238     1  0.0000000  0.0000000  3
    222    220    229    230     1  0.0000000  0.6508444  3
    222    220    229    231     1  0.0000000  0.6508444  3
    223    211    210    239     1  0.0000000  0.6508444  3
    224    223    235    538     1  0.0000000  1.0460000  1
    224    223    235    538     1  0.0000000  0.0000000  3
    224    223    235    236     1  0.0000000  0.6508444  3
    224    223    235    237     1  0.0000000  0.6508444  3
    225    223    235    538     1  0.0000000  1.0460000  1
    225    223    235    538     1  0.0000000  0.0000000  3
    225    223    235    236     1  0.0000000  0.6508444  3
    225    223    235    237     1  0.0000000  0.6508444  3
    226    214    210    239     1  0.0000000  0.6508444  3
    227    226    232    508     1  0.0000000  1.0460000  1
    227    226    232    508     1  0.0000000  0.0000000  3
    227    226    232    233     1  0.0000000  0.6508444  3
    227    226    232    234     1  0.0000000  0.6508444  3
    228    226    232    508     1  0.0000000  1.0460000  1
    228    226    232    508     1  0.0000000  0.0000000  3
    228    226    232    233     1  0.0000000  0.6508444  3
    228    226    232    234     1  0.0000000  0.6508444  3
    232    508    499    500     1  0.0000000  1.6038667  3
    232    508    499    501     1  0.0000000  1.6038667  3
    233    232    508    499     1  0.0000000  1.6038667  3
    234    232    508    499     1  0.0000000  1.6038667  3
    235    538    529    530     1  0.0000000  1.6038667  3
    235    538    529    531     1  0.0000000  1.6038667  3
    236    235    538    529     1  0.0000000  1.6038667  3
    237    235    538    529     1  0.0000000  1.6038667  3
    240    241    253    254     1  0.0000000  0.6508444  3
    240    241    253    255     1  0.0000000  0.6508444  3
    240    244    256    257     1  0.0000000  0.6508444  3
    240    244    256    258     1  0.0000000  0.6508444  3
    240    247    250    251     1  0.0000000  0.6508444  3
    240    247    250    252     1  0.0000000  0.6508444  3
    241    240    244    245     1  0.0000000  0.6508444  3
    241    240    244    246     1  0.0000000  0.6508444  3
    241    240    247    248     1  0.0000000  0.6508444  3
    241    240    247    249     1  0.0000000  0.6508444  3
    241    253    265    266     1  0.0000000  0.6508444  3
    241    253    265    267     1  0.0000000  0.6508444  3
    242    241    240    244     1  0.0000000  0.6508444  3
    242    241    240    247     1  0.0000000  0.6508444  3
    242    241    240    269     1  0.0000000  0.6508444  3
    242    241    253    265     1  0.0000000  0.6508444  3
    242    241    253    254     1  0.0000000  0.6508444  3
    242    241    253    255     1  0.0000000  0.6508444  3
    243    241    240    244     1  0.0000000  0.6508444  3
    243    241    240    247     1  0.0000000  0.6508444  3
    243    241    240    269     1  0.0000000  0.6508444  3
    243    241    253    265     1  0.0000000  0.6508444  3
    243    241    253    254     1  0.0000000  0.6508444  3
    243    241    253    255     1  0.0000000  0.6508444  3
    244    240    247    248     1  0.0000000  0.6508444  3
    244    240    247    249     1  0.0000000  0.6508444  3
    244    256    262    263     1  0.0000000  0.6508444  3
    244    256    262    264     1  0.0000000  0.6508444  3
    245    244    240    247     1  0.0000000  0.6508444  3
    245    244    240    269     1  0.0000000  0.6508444  3
    245    244    256    262     1  0.0000000  0.6508444  3
    245    244    256    257     1  0.0000000  0.6508444  3
    245    244    256    258     1  0.0000000  0.6508444  3
    246    244    240    247     1  0.0000000  0.6508444  3
    246    244    240    269     1  0.0000000  0.6508444  3
    246    244    256    262     1  0.0000000  0.6508444  3
    246    244    256    257     1  0.0000000  0.6508444  3
    246    244    256    258     1  0.0000000  0.6508444  3
    247    250    259    260     1  0.0000000  0.6508444  3
    247    250    259    261     1  0.0000000  0.6508444  3
    248    247    240    269     1  0.0000000  0.6508444  3
    248    247    250    259     1  0.0000000  0.6508444  3
    248    247    250    251     1  0.0000000  0.6508444  3
    248    247    250    252     1  0.0000000  0.6508444  3
    249    247    240    269     1  0.0000000  0.6508444  3
    249    247    250    259     1  0.0000000  0.6508444  3
    249    247    250    251     1  0.0000000  0.6508444  3
    249    247    250    252     1  0.0000000  0.6508444  3
    250    247    240    269     1  0.0000000  0.6508444  3
    251    250    259    268     1  0.0000000  1.0460000  1
    251    250    259    268     1  0.0000000  0.0000000  3
    251    250    259    260     1  0.0000000  0.6508444  3
    251    250    259    261     1  0.0000000  0.6508444  3
    252    250    259    268     1  0.0000000  1.0460000  1
    252    250    259    268     1  0.0000000  0.0000000  3
    252    250    259    260     1  0.0000000  0.6508444  3
    252    250    259    261     1  0.0000000  0.6508444  3
    253    241    240    269     1  0.0000000  0.6508444  3
    254    253    265    598     1  0.0000000  1.0460000  1
    254    253    265    598     1  0.0000000  0.0000000  3
    254    253    265    266     1  0.0000000  0.6508444  3
    254    253    265    267     1  0.0000000  0.6508444  3
    255    253    265    598     1  0.0000000  1.0460000  1
    255    253    265    598     1  0.0000000  0.0000000  3
    255    253    265    266     1  0.0000000  0.6508444  3
    255    253    265    267     1  0.0000000  0.6508444  3
    256    244    240    269     1  0.0000000  0.6508444  3
    257    256    262    568     1  0.0000000  1.0460000  1
    257    256    262    568     1  0.0000000  0.0000000  3
    257    256    262    263     1  0.0000000  0.6508444  3
    257    256    262    264     1  0.0000000  0.6508444  3
    258    256    262    568     1  0.0000000  1.0460000  1
    258    256    262    568     1  0.0000000  0.0000000  3
    258    256    262    263     1  0.0000000  0.6508444  3
    258    256    262    264     1  0.0000000  0.6508444  3
    262    568    559    560     1  0.0000000  1.6038667  3
    262    568    559    561     1  0.0000000  1.6038667  3
    263    262    568    559     1  0.0000000  1.6038667  3
    264    262    568    559     1  0.0000000  1.6038667  3
    265    598    589    590     1  0.0000000  1.6038667  3
    265    598    589    591     1  0.0000000  1.6038667  3
    266    265    598    589     1  0.0000000  1.6038667  3
    267    265    598    589     1  0.0000000  1.6038667  3
    270    271    283    284     1  0.0000000  0.6508444  3
    270    271    283    285     1  0.0000000  0.6508444  3
    270    274    286    287     1  0.0000000  0.6508444  3
    270    274    286    288     1  0.0000000  0.6508444  3
    270    277    280    281     1  0.0000000  0.6508444  3
    270    277    280    282     1  0.0000000  0.6508444  3
    271    270    274    275     1  0.0000000  0.6508444  3
    271    270    274    276     1  0.0000000  0.6508444  3
    271    270    277    278     1  0.0000000  0.6508444  3
    271    270    277    279     1  0.0000000  0.6508444  3
    271    283    295    296     1  0.0000000  0.6508444  3
    271    283    295    297     1  0.0000000  0.6508444  3
    272    271    270    274     1  0.0000000  0.6508444  3
    272    271    270    277     1  0.0000000  0.6508444  3
    272    271    270    299     1  0.0000000  0.6508444  3
    272    271    283    295     1  0.0000000  0.6508444  3
    272    271    283    284     1  0.0000000  0.6508444  3
    272    271    283    285     1  0.0000000  0.6508444  3
    273    271    270    274     1  0.0000000  0.6508444  3
    273    271    270    277     1  0.0000000  0.6508444  3
    273    271    270    299     1  0.0000000  0.6508444  3
    273    271    283    295     1  0.0000000  0.6508444  3
    273    271    283    284     1  0.0000000  0.6508444  3
    273    271    283    285     1  0.0000000  0.6508444  3
    274    270    277    278     1  0.0000000  0.6508444  3
    274    270    277    279     1  0.0000000  0.6508444  3
    274    286    292    293     1  0.0000000  0.6508444  3
    274    286    292    294     1  0.0000000  0.6508444  3
    275    274    270    277     1  0.0000000  0.6508444  3
    275    274    270    299     1  0.0000000  0.6508444  3
    275    274    286    292     1  0.0000000  0.6508444  3
    275    274    286    287     1  0.0000000  0.6508444  3
    275    274    286    288     1  0.0000000  0.6508444  3
    276    274    270    277     1  0.0000000  0.6508444  3
    276    274    270    299     1  0.0000000  0.6508444  3
    276    274    286    292     1  0.0000000  0.6508444  3
    276    274    286    287     1  0.0000000  0.6508444  3
    276    274    286    288     1  0.0000000  0.6508444  3
    277    280    289    290     1  0.0000000  0.6508444  3
    277    280    289    291     1  0.0000000  0.6508444  3
    278    277    270    299     1  0.0000000  0.6508444  3
    278    277    280    289     1  0.0000000  0.6508444  3
    278    277    280    281     1  0.0000000  0.6508444  3
    278    277    280    282     1  0.0000000  0.6508444  3
    279    277    270    299     1  0.0000000  0.6508444  3
    279    277    280    289     1  0.0000000  0.6508444  3
    279    277    280    281     1  0.0000000  0.6508444  3
    279    277    280    282     1  0.0000000  0.6508444  3
    280    277    270    299     1  0.0000000  0.6508444  3
    281    280    289    298     1  0.0000000  1.0460000  1
    281    280    289    298     1  0.0000000  0.0000000  3
    281    280    289    290     1  0.0000000  0.6508444  3
    281    280    289    291     1  0.0000000  0.6508444  3
    282    280    289    298     1  0.0000000  1.0460000  1
    282    280    289    298     1  0.0000000  0.0000000  3
    282    280    289    290     1  0.0000000  0.6508444  3
    282    280    289    291     1  0.0000000  0.6508444  3
    283    271    270    299     1  0.0000000  0.6508444  3
    284    283    295    658     1  0.0000000  1.0460000  1
    284    283    295    658     1  0.0000000  0.0000000  3
    284    283    295    296     1  0.0000000  0.6508444  3
    284    283    295    297     1  0.0000000  0.6508444  3
    285    283    295    658     1  0.0000000  1.0460000  1
    285    283    295    658     1  0.0000000  0.0000000  3
    285    283    295    296     1  0.0000000  0.6508444  3
    285    283    295    297     1  0.0000000  0.6508444  3
    286    274    270    299     1  0.0000000  0.6508444  3
    287    286    292    628     1  0.0000000  1.0460000  1
    287    286    292    628     1  0.0000000  0.0000000  3
    287    286    292    293     1  0.0000000  0.6508444  3
    287    286    292    294     1  0.0000000  0.6508444  3
    288    286    292    628     1  0.0000000  1.0460000  1
    288    286    292    628     1  0.0000000  0.0000000  3
    288    286    292    293     1  0.0000000  0.6508444  3
    288    286    292    294     1  0.0000000  0.6508444  3
    292    628    619    620     1  0.0000000  1.6038667  3
    292    628    619    621     1  0.0000000  1.6038667  3
    293    292    628    619     1  0.0000000  1.6038667  3
    294    292    628    619     1  0.0000000  1.6038667  3
    295    658    649    650     1  0.0000000  1.6038667  3
    295    658    649    651     1  0.0000000  1.6038667  3
    296    295    658    649     1  0.0000000  1.6038667  3
    297    295    658    649     1  0.0000000  1.6038667  3
    300    301    313    314     1  0.0000000  0.6508444  3
    300    301    313    315     1  0.0000000  0.6508444  3
    300    304    316    317     1  0.0000000  0.6508444  3
    300    304    316    318     1  0.0000000  0.6508444  3
    300    307    310    311     1  0.0000000  0.6508444  3
    300    307    310    312     1  0.0000000  0.6508444  3
    301    300    304    305     1  0.0000000  0.6508444  3
    301    300    304    306     1  0.0000000  0.6508444  3
    301    300    307    308     1  0.0000000  0.6508444  3
    301    300    307    309     1  0.0000000  0.6508444  3
    301    313    325    326     1  0.0000000  0.6508444  3
    301    313    325    327     1  0.0000000  0.6508444  3
    302    301    300    304     1  0.0000000  0.6508444  3
    302    301    300    307     1  0.0000000  0.6508444  3
    302    301    300    329     1  0.0000000  0.6508444  3
    302    301    313    325     1  0.0000000  0.6508444  3
    302    301    313    314     1  0.0000000  0.6508444  3
    302    301    313    315     1  0.0000000  0.6508444  3
    303    301    300    304     1  0.0000000  0.6508444  3
    303    301    300    307     1  0.0000000  0.6508444  3
    303    301    300    329     1  0.0000000  0.6508444  3
    303    301    313    325     1  0.0000000  0.6508444  3
    303    301    313    314     1  0.0000000  0.6508444  3
    303    301    313    315     1  0.0000000  0.6508444  3
    304    300    307    308     1  0.0000000  0.6508444  3
    304    300    307    309     1  0.0000000  0.6508444  3
    304    316    322    323     1  0.0000000  0.6508444  3
    304    316    322    324     1  0.0000000  0.6508444  3
    305    304    300    307     1  0.0000000  0.6508444  3
    305    304    300    329     1  0.0000000  0.6508444  3
    305    304    316    322     1  0.0000000  0.6508444  3
    305    304    316    317     1  0.0000000  0.6508444  3
    305    304    316    318     1  0.0000000  0.6508444  3
    306    304    300    307     1  0.0000000  0.6508444  3
    306    304    300    329     1  0.0000000  0.6508444  3
    306    304    316    322     1  0.0000000  0.6508444  3
    306    304    316    317     1  0.0000000  0.6508444  3
    306    304    316    318     1  0.0000000  0.6508444  3
    307    310    319    320     1  0.0000000  0.6508444  3
    307    310    319    321     1  0.0000000  0.6508444  3
    308    307    300    329     1  0.0000000  0.6508444  3
    308    307    310    319     1  0.0000000  0.6508444  3
    308    307    310    311     1  0.0000000  0.6508444  3
    308    307    310    312     1  0.0000000  0.6508444  3
    309    307    300    329     1  0.0000000  0.6508444  3
    309    307    310    319     1  0.0000000  0.6508444  3
    309    307    310    311     1  0.0000000  0.6508444  3
    309    307    310    312     1  0.0000000  0.6508444  3
    310    307    300    329     1  0.0000000  0.6508444  3
    311    310    319    328     1  0.0000000  1.0460000  1
    311    310    319    328     1  0.0000000  0.0000000  3
    311    310    319    320     1  0.0000000  0.6508444  3
    311    310    319    321     1  0.0000000  0.6508444  3
    312    310    319    328     1  0.0000000  1.0460000  1
    312    310    319    328     1  0.0000000  0.0000000  3
    312    310    319    320     1  0.0000000  0.6508444  3
    312    310    319    321     1  0.0000000  0.6508444  3
    313    301    300    329     1  0.0000000  0.6508444  3
    314    313    325    718     1  0.0000000  1.0460000  1
    314    313    325    718     1  0.0000000  0.0000000  3
    314    313    325    326     1  0.0000000  0.6508444  3
    314    313    325    327     1  0.0000000  0.6508444  3
    315    313    325    718     1  0.0000000  1.0460000  1
    315    313    325    718     1  0.0000000  0.0000000  3
    315    313    325    326     1  0.0000000  0.6508444  3
    315    313    325    327     1  0.0000000  0.6508444  3
    316    304    300    329     1  0.0000000  0.6508444  3
    317    316    322    688     1  0.0000000  1.0460000  1
    317    316    322    688     1  0.0000000  0.0000000  3
    317    316    322    323     1  0.0000000  0.6508444  3
    317    316    322    324     1  0.0000000  0.6508444  3
    318    316    322    688     1  0.0000000  1.0460000  1
    318    316    322    688     1  0.0000000  0.0000000  3
    318    316    322    323     1  0.0000000  0.6508444  3
    318    316    322    324     1  0.0000000  0.6508444  3
    322    688    679    680     1  0.0000000  1.6038667  3
    322    688    679    681     1  0.0000000  1.6038667  3
    323    322    688    679     1  0.0000000  1.6038667  3
    324    322    688    679     1  0.0000000  1.6038667  3
    325    718    709    710     1  0.0000000  1.6038667  3
    325    718    709    711     1  0.0000000  1.6038667  3
    326    325    718    709     1  0.0000000  1.6038667  3
    327    325    718    709     1  0.0000000  1.6038667  3
    330    331    343    344     1  0.0000000  0.6508444  3
    330    331    343    345     1  0.0000000  0.6508444  3
    330    334    346    347     1  0.0000000  0.6508444  3
    330    334    346    348     1  0.0000000  0.6508444  3
    330    337    340    341     1  0.0000000  0.6508444  3
    330    337    340    342     1  0.0000000  0.6508444  3
    331    330    334    335     1  0.0000000  0.6508444  3
    331    330    334    336     1  0.0000000  0.6508444  3
    331    330    337    338     1  0.0000000  0.6508444  3
    331    330    337    339     1  0.0000000  0.6508444  3
    331    343    355    356     1  0.0000000  0.6508444  3
    331    343    355    357     1  0.0000000  0.6508444  3
    332    331    330    334     1  0.0000000  0.6508444  3
    332    331    330    337     1  0.0000000  0.6508444  3
    332    331    330    359     1  0.0000000  0.6508444  3
    332    331    343    355     1  0.0000000  0.6508444  3
    332    331    343    344     1  0.0000000  0.6508444  3
    332    331    343    345     1  0.0000000  0.6508444  3
    333    331    330    334     1  0.0000000  0.6508444  3
    333    331    330    337     1  0.0000000  0.6508444  3
    333    331    330    359     1  0.0000000  0.6508444  3
    333    331    343    355     1  0.0000000  0.6508444  3
    333    331    343    344     1  0.0000000  0.6508444  3
    333    331    343    345     1  0.0000000  0.6508444  3
    334    330    337    338     1  0.0000000  0.6508444  3
    334    330    337    339     1  0.0000000  0.6508444  3
    334    346    352    353     1  0.0000000  0.6508444  3
    334    346    352    354     1  0.0000000  0.6508444  3
    335    334    330    337     1  0.0000000  0.6508444  3
    335    334    330    359     1  0.0000000  0.6508444  3
    335    334    346    352     1  0.0000000  0.6508444  3
    335    334    346    347     1  0.0000000  0.6508444  3
    335    334    346    348     1  0.0000000  0.6508444  3
    336    334    330    337     1  0.0000000  0.6508444  3
    336    334    330    359     1  0.0000000  0.6508444  3
    336    334    346    352     1  0.0000000  0.6508444  3
    336    334    346    347     1  0.0000000  0.6508444  3
    336    334    346    348     1  0.0000000  0.6508444  3
    337    340    349    350     1  0.0000000  0.6508444  3
    337    340    349    351     1  0.0000000  0.6508444  3
    338    337    330    359     1  0.0000000  0.6508444  3
    338    337    340    349     1  0.0000000  0.6508444  3
    338    337    340    341     1  0.0000000  0.6508444  3
    338    337    340    342     1  0.0000000  0.6508444  3
    339    337    330    359     1  0.0000000  0.6508444  3
    339    337    340    349     1  0.0000000  0.6508444  3
    339    337    340    341     1  0.0000000  0.6508444  3
    339    337    340    342     1  0.0000000  0.6508444  3
    340    337    330    359     1  0.0000000  0.6508444  3
    341    340    349    358     1  0.0000000  1.0460000  1
    341    340    349    358     1  0.0000000  0.0000000  3
    341    340    349    350     1  0.0000000  0.6508444  3
    341    340    349    351     1  0.0000000  0.6508444  3
    342    340    349    358     1  0.0000000  1.0460000  1
    342    340    349    358     1  0.0000000  0.0000000  3
    342    340    349    350     1  0.0000000  0.6508444  3
    342    340    349    351     1  0.0000000  0.6508444  3
    343    331    330    359     1  0.0000000  0.6508444  3
    344    343    355    778     1  0.0000000  1.0460000  1
    344    343    355    778     1  0.0000000  0.0000000  3
    344    343    355    356     1  0.0000000  0.6508444  3
    344    343    355    357     1  0.0000000  0.6508444  3
    345    343    355    778     1  0.0000000  1.0460000  1
    345    343    355    778     1  0.0000000  0.0000000  3
    345    343    355    356     1  0.0000000  0.6508444  3
    345    343    355    357     1  0.0000000  0.6508444  3
    346    334    330    359     1  0.0000000  0.6508444  3
    347    346    352    748     1  0.0000000  1.0460000  1
    347    346    352    748     1  0.0000000  0.0000000  3
    347    346    352    353     1  0.0000000  0.6508444  3
    347    346    352    354     1  0.0000000  0.6508444  3
    348    346    352    748     1  0.0000000  1.0460000  1
    348    346    352    748     1  0.0000000  0.0000000  3
    348    346    352    353     1  0.0000000  0.6508444  3
    348    346    352    354     1  0.0000000  0.6508444  3
    352    748    739    740     1  0.0000000  1.6038667  3
    352    748    739    741     1  0.0000000  1.6038667  3
    353    352    748    739     1  0.0000000  1.6038667  3
    354    352    748    739     1  0.0000000  1.6038667  3
    355    778    769    770     1  0.0000000  1.6038667  3
    355    778    769    771     1  0.0000000  1.6038667  3
    356    355    778    769     1  0.0000000  1.6038667  3
    357    355    778    769     1  0.0000000  1.6038667  3
    360    361    373    374     1  0.0000000  0.6508444  3
    360    361    373    375     1  0.0000000  0.6508444  3
    360    364    376    377     1  0.0000000  0.6508444  3
    360    364    376    378     1  0.0000000  0.6508444  3
    360    367    370    371     1  0.0000000  0.6508444  3
    360    367    370    372     1  0.0000000  0.6508444  3
    361    360    364    365     1  0.0000000  0.6508444  3
    361    360    364    366     1  0.0000000  0.6508444  3
    361    360    367    368     1  0.0000000  0.6508444  3
    361    360    367    369     1  0.0000000  0.6508444  3
    361    373    385    386     1  0.0000000  0.6508444  3
    361    373    385    387     1  0.0000000  0.6508444  3
    362    361    360    364     1  0.0000000  0.6508444  3
    362    361    360    367     1  0.0000000  0.6508444  3
    362    361    360    389     1  0.0000000  0.6508444  3
    362    361    373    385     1  0.0000000  0.6508444  3
    362    361    373    374     1  0.0000000  0.6508444  3
    362    361    373    375     1  0.0000000  0.6508444  3
    363    361    360    364     1  0.0000000  0.6508444  3
    363    361    360    367     1  0.0000000  0.6508444  3
    363    361    360    389     1  0.0000000  0.6508444  3
    363    361    373    385     1  0.0000000  0.6508444  3
    363    361    373    374     1  0.0000000  0.6508444  3
    363    361    373    375     1  0.0000000  0.6508444  3
    364    360    367    368     1  0.0000000  0.6508444  3
    364    360    367    369     1  0.0000000  0.6508444  3
    364    376    382    383     1  0.0000000  0.6508444  3
    364    376    382    384     1  0.0000000  0.6508444  3
    365    364    360    367     1  0.0000000  0.6508444  3
    365    364    360    389     1  0.0000000  0.6508444  3
    365    364    376    382     1  0.0000000  0.6508444  3
    365    364    376    377     1  0.0000000  0.6508444  3
    365    364    376    378     1  0.0000000  0.6508444  3
    366    364    360    367     1  0.0000000  0.6508444  3
    366    364    360    389     1  0.0000000  0.6508444  3
    366    364    376    382     1  0.0000000  0.6508444  3
    366    364    376    377     1  0.0000000  0.6508444  3
    366    364    376    378     1  0.0000000  0.6508444  3
    367    370    379    380     1  0.0000000  0.6508444  3
    367    370    379    381     1  0.0000000  0.6508444  3
    368    367    360    389     1  0.0000000  0.6508444  3
    368    367    370    379     1  0.0000000  0.6508444  3
    368    367    370    371     1  0.0000000  0.6508444  3
    368    367    370    372     1  0.0000000  0.6508444  3
    369    367    360    389     1  0.0000000  0.6508444  3
    369    367    370    379     1  0.0000000  0.6508444  3
    369    367    370    371     1  0.0000000  0.6508444  3
    369    367    370    372     1  0.0000000  0.6508444  3
    370    367    360    389     1  0.0000000  0.6508444  3
    371    370    379    388     1  0.0000000  1.0460000  1
    371    370    379    388     1  0.0000000  0.0000000  3
    371    370    379    380     1  0.0000000  0.6508444  3
    371    370    379    381     1  0.0000000  0.6508444  3
    372    370    379    388     1  0.0000000  1.0460000  1
    372    370    379    388     1  0.0000000  0.0000000  3
    372    370    379    380     1  0.0000000  0.6508444  3
    372    370    379    381     1  0.0000000  0.6508444  3
    373    361    360    389     1  0.0000000  0.6508444  3
    374    373    385    838     1  0.0000000  1.0460000  1
    374    373    385    838     1  0.0000000  0.0000000  3
    374    373    385    386     1  0.0000000  0.6508444  3
    374    373    385    387     1  0.0000000  0.6508444  3
    375    373    385    838     1  0.0000000  1.0460000  1
    375    373    385    838     1  0.0000000  0.0000000  3
    375    373    385    386     1  0.0000000  0.6508444  3
    375    373    385    387     1  0.0000000  0.6508444  3
    376    364    360    389     1  0.0000000  0.6508444  3
    377    376    382    808     1  0.0000000  1.0460000  1
    377    376    382    808     1  0.0000000  0.0000000  3
    377    376    382    383     1  0.0000000  0.6508444  3
    377    376    382    384     1  0.0000000  0.6508444  3
    378    376    382    808     1  0.0000000  1.0460000  1
    378    376    382    808     1  0.0000000  0.0000000  3
    378    376    382    383     1  0.0000000  0.6508444  3
    378    376    382    384     1  0.0000000  0.6508444  3
    382    808    799    800     1  0.0000000  1.6038667  3
    382    808    799    801     1  0.0000000  1.6038667  3
    383    382    808    799     1  0.0000000  1.6038667  3
    384    382    808    799     1  0.0000000  1.6038667  3
    385    838    829    830     1  0.0000000  1.6038667  3
    385    838    829    831     1  0.0000000  1.6038667  3
    386    385    838    829     1  0.0000000  1.6038667  3
    387    385    838    829     1  0.0000000  1.6038667  3
    390    391    403    404     1  0.0000000  0.6508444  3
    390    391    403    405     1  0.0000000  0.6508444  3
    390    394    406    407     1  0.0000000  0.6508444  3
    390    394    406    408     1  0.0000000  0.6508444  3
    390    397    400    401     1  0.0000000  0.6508444  3
    390    397    400    402     1  0.0000000  0.6508444  3
    391    390    394    395     1  0.0000000  0.6508444  3
    391    390    394    396     1  0.0000000  0.6508444  3
    391    390    397    398     1  0.0000000  0.6508444  3
    391    390    397    399     1  0.0000000  0.6508444  3
    391    403    415    416     1  0.0000000  0.6508444  3
    391    403    415    417     1  0.0000000  0.6508444  3
    392    391    390    394     1  0.0000000  0.6508444  3
    392    391    390    397     1  0.0000000  0.6508444  3
    392    391    390    419     1  0.0000000  0.6508444  3
    392    391    403    415     1  0.0000000  0.6508444  3
    392    391    403    404     1  0.0000000  0.6508444  3
    392    391    403    405     1  0.0000000  0.6508444  3
    393    391    390    394     1  0.0000000  0.6508444  3
    393    391    390    397     1  0.0000000  0.6508444  3
    393    391    390    419     1  0.0000000  0.6508444  3
    393    391    403    415     1  0.0000000  0.6508444  3
    393    391    403    404     1  0.0000000  0.6508444  3
    393    391    403    405     1  0.0000000  0.6508444  3
    394    390    397    398     1  0.0000000  0.6508444  3
    394    390    397    399     1  0.0000000  0.6508444  3
    394    406    412    413     1  0.0000000  0.6508444  3
    394    406    412    414     1  0.0000000  0.6508444  3
    395    394    390    397     1  0.0000000  0.6508444  3
    395    394    390    419     1  0.0000000  0.6508444  3
    395    394    406    412     1  0.0000000  0.6508444  3
    395    394    406    407     1  0.0000000  0.6508444  3
    395    394    406    408     1  0.0000000  0.6508444  3
    396    394    390    397     1  0.0000000  0.6508444  3
    396    394    390    419     1  0.0000000  0.6508444  3
    396    394    406    412     1  0.0000000  0.6508444  3
    396    394    406    407     1  0.0000000  0.6508444  3
    396    394    406    408     1  0.0000000  0.6508444  3
    397    400    409    410     1  0.0000000  0.6508444  3
    397    400    409    411     1  0.0000000  0.6508444  3
    398    397    390    419     1  0.0000000  0.6508444  3
    398    397    400    409     1  0.0000000  0.6508444  3
    398    397    400    401     1  0.0000000  0.6508444  3
    398    397    400    402     1  0.0000000  0.6508444  3
    399    397    390    419     1  0.0000000  0.6508444  3
    399    397    400    409     1  0.0000000  0.6508444  3
    399    397    400    401     1  0.0000000  0.6508444  3
    399    397    400    402     1  0.0000000  0.6508444  3
    400    397    390    419     1  0.0000000  0.6508444  3
    401    400    409    418     1  0.0000000  1.0460000  1
    401    400    409    418     1  0.0000000  0.0000000  3
    401    400    409    410     1  0.0000000  0.6508444  3
    401    400    409    411     1  0.0000000  0.6508444  3
    402    400    409    418     1  0.0000000  1.0460000  1
    402    400    409    418     1  0.0000000  0.0000000  3
    402    400    409    410     1  0.0000000  0.6508444  3
    402    400    409    411     1  0.0000000  0.6508444  3
    403    391    390    419     1  0.0000000  0.6508444  3
    404    403    415    898     1  0.0000000  1.0460000  1
    404    403    415    898     1  0.0000000  0.0000000  3
    404    403    415    416     1  0.0000000  0.6508444  3
    404    403    415    417     1  0.0000000  0.6508444  3
    405    403    415    898     1  0.0000000  1.0460000  1
    405    403    415    898     1  0.0000000  0.0000000  3
    405    403    415    416     1  0.0000000  0.6508444  3
    405    403    415    417     1  0.0000000  0.6508444  3
    406    394    390    419     1  0.0000000  0.6508444  3
    407    406    412    868     1  0.0000000  1.0460000  1
    407    406    412    868     1  0.0000000  0.0000000  3
    407    406    412    413     1  0.0000000  0.6508444  3
    407    406    412    414     1  0.0000000  0.6508444  3
    408    406    412    868     1  0.0000000  1.0460000  1
    408    406    412    868     1  0.0000000  0.0000000  3
    408    406    412    413     1  0.0000000  0.6508444  3
    408    406    412    414     1  0.0000000  0.6508444  3
    412    868    859    860     1  0.0000000  1.6038667  3
    412    868    859    861     1  0.0000000  1.6038667  3
    413    412    868    859     1  0.0000000  1.6038667  3
    414    412    868    859     1  0.0000000  1.6038667  3
    415    898    889    890     1  0.0000000  1.6038667  3
    415    898    889    891     1  0.0000000  1.6038667  3
    416    415    898    889     1  0.0000000  1.6038667  3
    417    415    898    889     1  0.0000000  1.6038667  3
    420    421    433    434     1  0.0000000  0.6508444  3
    420    421    433    435     1  0.0000000  0.6508444  3
    420    424    436    437     1  0.0000000  0.6508444  3
    420    424    436    438     1  0.0000000  0.6508444  3
    420    427    430    431     1  0.0000000  0.6508444  3
    420    427    430    432     1  0.0000000  0.6508444  3
    421    420    424    425     1  0.0000000  0.6508444  3
    421    420    424    426     1  0.0000000  0.6508444  3
    421    420    427    428     1  0.0000000  0.6508444  3
    421    420    427    429     1  0.0000000  0.6508444  3
    421    433    445    446     1  0.0000000  0.6508444  3
    421    433    445    447     1  0.0000000  0.6508444  3
    422    421    420    424     1  0.0000000  0.6508444  3
    422    421    420    427     1  0.0000000  0.6508444  3
    422    421    420    449     1  0.0000000  0.6508444  3
    422    421    433    445     1  0.0000000  0.6508444  3
    422    421    433    434     1  0.0000000  0.6508444  3
    422    421    433    435     1  0.0000000  0.6508444  3
    423    421    420    424     1  0.0000000  0.6508444  3
    423    421    420    427     1  0.0000000  0.6508444  3
    423    421    420    449     1  0.0000000  0.6508444  3
    423    421    433    445     1  0.0000000  0.6508444  3
    423    421    433    434     1  0.0000000  0.6508444  3
    423    421    433    435     1  0.0000000  0.6508444  3
    424    420    427    428     1  0.0000000  0.6508444  3
    424    420    427    429     1  0.0000000  0.6508444  3
    424    436    442    443     1  0.0000000  0.6508444  3
    424    436    442    444     1  0.0000000  0.6508444  3
    425    424    420    427     1  0.0000000  0.6508444  3
    425    424    420    449     1  0.0000000  0.6508444  3
    425    424    436    442     1  0.0000000  0.6508444  3
    425    424    436    437     1  0.0000000  0.6508444  3
    425    424    436    438     1  0.0000000  0.6508444  3
    426    424    420    427     1  0.0000000  0.6508444  3
    426    424    420    449     1  0.0000000  0.6508444  3
    426    424    436    442     1  0.0000000  0.6508444  3
    426    424    436    437     1  0.0000000  0.6508444  3
    426    424    436    438     1  0.0000000  0.6508444  3
    427    430    439    440     1  0.0000000  0.6508444  3
    427    430    439    441     1  0.0000000  0.6508444  3
    428    427    420    449     1  0.0000000  0.6508444  3
    428    427    430    439     1  0.0000000  0.6508444  3
    428    427    430    431     1  0.0000000  0.6508444  3
    428    427    430    432     1  0.0000000  0.6508444  3
    429    427    420    449     1  0.0000000  0.6508444  3
    429    427    430    439     1  0.0000000  0.6508444  3
    429    427    430    431     1  0.0000000  0.6508444  3
    429    427    430    432     1  0.0000000  0.6508444  3
    430    427    420    449     1  0.0000000  0.6508444  3
    431    430    439    448     1  0.0000000  1.0460000  1
    431    430    439    448     1  0.0000000  0.0000000  3
    431    430    439    440     1  0.0000000  0.6508444  3
    431    430    439    441     1  0.0000000  0.6508444  3
    432    430    439    448     1  0.0000000  1.0460000  1
    432    430    439    448     1  0.0000000  0.0000000  3
    432    430    439    440     1  0.0000000  0.6508444  3
    432    430    439    441     1  0.0000000  0.6508444  3
    433    421    420    449     1  0.0000000  0.6508444  3
    434    433    445    926     1  0.0000000  1.0460000  1
    434    433    445    926     1  0.0000000  0.0000000  3
    434    433    445    446     1  0.0000000  0.6508444  3
    434    433    445    447     1  0.0000000  0.6508444  3
    435    433    445    926     1  0.0000000  1.0460000  1
    435    433    445    926     1  0.0000000  0.0000000  3
    435    433    445    446     1  0.0000000  0.6508444  3
    435    433    445    447     1  0.0000000  0.6508444  3
    436    424    420    449     1  0.0000000  0.6508444  3
    437    436    442    912     1  0.0000000  1.0460000  1
    437    436    442    912     1  0.0000000  0.0000000  3
    437    436    442    443     1  0.0000000  0.6508444  3
    437    436    442    444     1  0.0000000  0.6508444  3
    438    436    442    912     1  0.0000000  1.0460000  1
    438    436    442    912     1  0.0000000  0.0000000  3
    438    436    442    443     1  0.0000000  0.6508444  3
    438    436    442    444     1  0.0000000  0.6508444  3
    442    912    906    907     1  0.0000000  1.6038667  3
    442    912    906    908     1  0.0000000  1.6038667  3
    443    442    912    906     1  0.0000000  1.6038667  3
    444    442    912    906     1  0.0000000  1.6038667  3
    445    926    920    921     1  0.0000000  1.6038667  3
    445    926    920    922     1  0.0000000  1.6038667  3
    446    445    926    920     1  0.0000000  1.6038667  3
    447    445    926    920     1  0.0000000  1.6038667  3
    450    451    463    464     1  0.0000000  0.6508444  3
    450    451    463    465     1  0.0000000  0.6508444  3
    450    454    466    467     1  0.0000000  0.6508444  3
    450    454    466    468     1  0.0000000  0.6508444  3
    450    457    460    461     1  0.0000000  0.6508444  3
    450    457    460    462     1  0.0000000  0.6508444  3
    451    450    454    455     1  0.0000000  0.6508444  3
    451    450    454    456     1  0.0000000  0.6508444  3
    451    450    457    458     1  0.0000000  0.6508444  3
    451    450    457    459     1  0.0000000  0.6508444  3
    451    463    475    476     1  0.0000000  0.6508444  3
    451    463    475    477     1  0.0000000  0.6508444  3
    452    451    450    454     1  0.0000000  0.6508444  3
    452    451    450    457     1  0.0000000  0.6508444  3
    452    451    450    479     1  0.0000000  0.6508444  3
    452    451    463    475     1  0.0000000  0.6508444  3
    452    451    463    464     1  0.0000000  0.6508444  3
    452    451    463    465     1  0.0000000  0.6508444  3
    453    451    450    454     1  0.0000000  0.6508444  3
    453    451    450    457     1  0.0000000  0.6508444  3
    453    451    450    479     1  0.0000000  0.6508444  3
    453    451    463    475     1  0.0000000  0.6508444  3
    453    451    463    464     1  0.0000000  0.6508444  3
    453    451    463    465     1  0.0000000  0.6508444  3
    454    450    457    458     1  0.0000000  0.6508444  3
    454    450    457    459     1  0.0000000  0.6508444  3
    454    466    472    473     1  0.0000000  0.6508444  3
    454    466    472    474     1  0.0000000  0.6508444  3
    455    454    450    457     1  0.0000000  0.6508444  3
    455    454    450    479     1  0.0000000  0.6508444  3
    455    454    466    472     1  0.0000000  0.6508444  3
    455    454    466    467     1  0.0000000  0.6508444  3
    455    454    466    468     1  0.0000000  0.6508444  3
    456    454    450    457     1  0.0000000  0.6508444  3
    456    454    450    479     1  0.0000000  0.6508444  3
    456    454    466    472     1  0.0000000  0.6508444  3
    456    454    466    467     1  0.0000000  0.6508444  3
    456    454    466    468     1  0.0000000  0.6508444  3
    457    460    469    470     1  0.0000000  0.6508444  3
    457    460    469    471     1  0.0000000  0.6508444  3
    458    457    450    479     1  0.0000000  0.6508444  3
    458    457    460    469     1  0.0000000  0.6508444  3
    458    457    460    461     1  0.0000000  0.6508444  3
    458    457    460    462     1  0.0000000  0.6508444  3
    459    457    450    479     1  0.0000000  0.6508444  3
    459    457    460    469     1  0.0000000  0.6508444  3
    459    457    460    461     1  0.0000000  0.6508444  3
    459    457    460    462     1  0.0000000  0.6508444  3
    460    457    450    479     1  0.0000000  0.6508444  3
    461    460    469    478     1  0.0000000  1.0460000  1
    461    460    469    478     1  0.0000000  0.0000000  3
    461    460    469    470     1  0.0000000  0.6508444  3
    461    460    469    471     1  0.0000000  0.6508444  3
    462    460    469    478     1  0.0000000  1.0460000  1
    462    460    469    478     1  0.0000000  0.0000000  3
    462    460    469    470     1  0.0000000  0.6508444  3
    462    460    469    471     1  0.0000000  0.6508444  3
    463    451    450    479     1  0.0000000  0.6508444  3
    464    463    475    954     1  0.0000000  1.0460000  1
    464    463    475    954     1  0.0000000  0.0000000  3
    464    463    475    476     1  0.0000000  0.6508444  3
    464    463    475    477     1  0.0000000  0.6508444  3
    465    463    475    954     1  0.0000000  1.0460000  1
    465    463    475    954     1  0.0000000  0.0000000  3
    465    463    475    476     1  0.0000000  0.6508444  3
    465    463    475    477     1  0.0000000  0.6508444  3
    466    454    450    479     1  0.0000000  0.6508444  3
    467    466    472    940     1  0.0000000  1.0460000  1
    467    466    472    940     1  0.0000000  0.0000000  3
    467    466    472    473     1  0.0000000  0.6508444  3
    467    466    472    474     1  0.0000000  0.6508444  3
    468    466    472    940     1  0.0000000  1.0460000  1
    468    466    472    940     1  0.0000000  0.0000000  3
    468    466    472    473     1  0.0000000  0.6508444  3
    468    466    472    474     1  0.0000000  0.6508444  3
    472    940    934    935     1  0.0000000  1.6038667  3
    472    940    934    936     1  0.0000000  1.6038667  3
    473    472    940    934     1  0.0000000  1.6038667  3
    474    472    940    934     1  0.0000000  1.6038667  3
    475    954    948    949     1  0.0000000  1.6038667  3
    475    954    948    950     1  0.0000000  1.6038667  3
    476    475    954    948     1  0.0000000  1.6038667  3
    477    475    954    948     1  0.0000000  1.6038667  3
    480    481    493    494     1  0.0000000  0.6508444  3
    480    481    493    495     1  0.0000000  0.6508444  3
    480    484    496    497     1  0.0000000  0.6508444  3
    480    484    496    498     1  0.0000000  0.6508444  3
    480    487    490    491     1  0.0000000  0.6508444  3
    480    487    490    492     1  0.0000000  0.6508444  3
    481    480    484    485     1  0.0000000  0.6508444  3
    481    480    484    486     1  0.0000000  0.6508444  3
    481    480    487    488     1  0.0000000  0.6508444  3
    481    480    487    489     1  0.0000000  0.6508444  3
    481    493    505    506     1  0.0000000  0.6508444  3
    481    493    505    507     1  0.0000000  0.6508444  3
    482    481    480    484     1  0.0000000  0.6508444  3
    482    481    480    487     1  0.0000000  0.6508444  3
    482    481    480    509     1  0.0000000  0.6508444  3
    482    481    493    505     1  0.0000000  0.6508444  3
    482    481    493    494     1  0.0000000  0.6508444  3
    482    481    493    495     1  0.0000000  0.6508444  3
    483    481    480    484     1  0.0000000  0.6508444  3
    483    481    480    487     1  0.0000000  0.6508444  3
    483    481    480    509     1  0.0000000  0.6508444  3
    483    481    493    505     1  0.0000000  0.6508444  3
    483    481    493    494     1  0.0000000  0.6508444  3
    483    481    493    495     1  0.0000000  0.6508444  3
    484    480    487    488     1  0.0000000  0.6508444  3
    484    480    487    489     1  0.0000000  0.6508444  3
    484    496    502    503     1  0.0000000  0.6508444  3
    484    496    502    504     1  0.0000000  0.6508444  3
    485    484    480    487     1  0.0000000  0.6508444  3
    485    484    480    509     1  0.0000000  0.6508444  3
    485    484    496    502     1  0.0000000  0.6508444  3
    485    484    496    497     1  0.0000000  0.6508444  3
    485    484    496    498     1  0.0000000  0.6508444  3
    486    484    480    487     1  0.0000000  0.6508444  3
    486    484    480    509     1  0.0000000  0.6508444  3
    486    484    496    502     1  0.0000000  0.6508444  3
    486    484    496    497     1  0.0000000  0.6508444  3
    486    484    496    498     1  0.0000000  0.6508444  3
    487    490    499    500     1  0.0000000  0.6508444  3
    487    490    499    501     1  0.0000000  0.6508444  3
    488    487    480    509     1  0.0000000  0.6508444  3
    488    487    490    499     1  0.0000000  0.6508444  3
    488    487    490    491     1  0.0000000  0.6508444  3
    488    487    490    492     1  0.0000000  0.6508444  3
    489    487    480    509     1  0.0000000  0.6508444  3
    489    487    490    499     1  0.0000000  0.6508444  3
    489    487    490    491     1  0.0000000  0.6508444  3
    489    487    490    492     1  0.0000000  0.6508444  3
    490    487    480    509     1  0.0000000  0.6508444  3
    491    490    499    508     1  0.0000000  1.0460000  1
    491    490    499    508     1  0.0000000  0.0000000  3
    491    490    499    500     1  0.0000000  0.6508444  3
    491    490    499    501     1  0.0000000  0.6508444  3
    492    490    499    508     1  0.0000000  1.0460000  1
    492    490    499    508     1  0.0000000  0.0000000  3
    492    490    499    500     1  0.0000000  0.6508444  3
    492    490    499    501     1  0.0000000  0.6508444  3
    493    481    480    509     1  0.0000000  0.6508444  3
    494    493    505    982     1  0.0000000  1.0460000  1
    494    493    505    982     1  0.0000000  0.0000000  3
    494    493    505    506     1  0.0000000  0.6508444  3
    494    493    505    507     1  0.0000000  0.6508444  3
    495    493    505    982     1  0.0000000  1.0460000  1
    495    493    505    982     1  0.0000000  0.0000000  3
    495    493    505    506     1  0.0000000  0.6508444  3
    495    493    505    507     1  0.0000000  0.6508444  3
    496    484    480    509     1  0.0000000  0.6508444  3
    497    496    502    968     1  0.0000000  1.0460000  1
    497    496    502    968     1  0.0000000  0.0000000  3
    497    496    502    503     1  0.0000000  0.6508444  3
    497    496    502    504     1  0.0000000  0.6508444  3
    498    496    502    968     1  0.0000000  1.0460000  1
    498    496    502    968     1  0.0000000  0.0000000  3
    498    496    502    503     1  0.0000000  0.6508444  3
    498    496    502    504     1  0.0000000  0.6508444  3
    502    968    962    963     1  0.0000000  1.6038667  3
    502    968    962    964     1  0.0000000  1.6038667  3
    503    502    968    962     1  0.0000000  1.6038667  3
    504    502    968    962     1  0.0000000  1.6038667  3
    505    982    976    977     1  0.0000000  1.6038667  3
    505    982    976    978     1  0.0000000  1.6038667  3
    506    505    982    976     1  0.0000000  1.6038667  3
    507    505    982    976     1  0.0000000  1.6038667  3
    510    511    523    524     1  0.0000000  0.6508444  3
    510    511    523    525     1  0.0000000  0.6508444  3
    510    514    526    527     1  0.0000000  0.6508444  3
    510    514    526    528     1  0.0000000  0.6508444  3
    510    517    520    521     1  0.0000000  0.6508444  3
    510    517    520    522     1  0.0000000  0.6508444  3
    511    510    514    515     1  0.0000000  0.6508444  3
    511    510    514    516     1  0.0000000  0.6508444  3
    511    510    517    518     1  0.0000000  0.6508444  3
    511    510    517    519     1  0.0000000  0.6508444  3
    511    523    535    536     1  0.0000000  0.6508444  3
    511    523    535    537     1  0.0000000  0.6508444  3
    512    511    510    514     1  0.0000000  0.6508444  3
    512    511    510    517     1  0.0000000  0.6508444  3
    512    511    510    539     1  0.0000000  0.6508444  3
    512    511    523    535     1  0.0000000  0.6508444  3
    512    511    523    524     1  0.0000000  0.6508444  3
    512    511    523    525     1  0.0000000  0.6508444  3
    513    511    510    514     1  0.0000000  0.6508444  3
    513    511    510    517     1  0.0000000  0.6508444  3
    513    511    510    539     1  0.0000000  0.6508444  3
    513    511    523    535     1  0.0000000  0.6508444  3
    513    511    523    524     1  0.0000000  0.6508444  3
    513    511    523    525     1  0.0000000  0.6508444  3
    514    510    517    518     1  0.0000000  0.6508444  3
    514    510    517    519     1  0.0000000  0.6508444  3
    514    526    532    533     1  0.0000000  0.6508444  3
    514    526    532    534     1  0.0000000  0.6508444  3
    515    514    510    517     1  0.0000000  0.6508444  3
    515    514    510    539     1  0.0000000  0.6508444  3
    515    514    526    532     1  0.0000000  0.6508444  3
    515    514    526    527     1  0.0000000  0.6508444  3
    515    514    526    528     1  0.0000000  0.6508444  3
    516    514    510    517     1  0.0000000  0.6508444  3
    516    514    510    539     1  0.0000000  0.6508444  3
    516    514    526    532     1  0.0000000  0.6508444  3
    516    514    526    527     1  0.0000000  0.6508444  3
    516    514    526    528     1  0.0000000  0.6508444  3
    517    520    529    530     1  0.0000000  0.6508444  3
    517    520    529    531     1  0.0000000  0.6508444  3
    518    517    510    539     1  0.0000000  0.6508444  3
    518    517    520    529     1  0.0000000  0.6508444  3
    518    517    520    521     1  0.0000000  0.6508444  3
    518    517    520    522     1  0.0000000  0.6508444  3
    519    517    510    539     1  0.0000000  0.6508444  3
    519    517    520    529     1  0.0000000  0.6508444  3
    519    517    520    521     1  0.0000000  0.6508444  3
    519    517    520    522     1  0.0000000  0.6508444  3
    520    517    510    539     1  0.0000000  0.6508444  3
    521    520    529    538     1  0.0000000  1.0460000  1
    521    520    529    538     1  0.0000000  0.0000000  3
    521    520    529    530     1  0.0000000  0.6508444  3
    521    520    529    531     1  0.0000000  0.6508444  3
    522    520    529    538     1  0.0000000  1.0460000  1
    522    520    529    538     1  0.0000000  0.0000000  3
    522    520    529    530     1  0.0000000  0.6508444  3
    522    520    529    531     1  0.0000000  0.6508444  3
    523    511    510    539     1  0.0000000  0.6508444  3
    524    523    535   1010     1  0.0000000  1.0460000  1
    524    523    535   1010     1  0.0000000  0.0000000  3
    524    523    535    536     1  0.0000000  0.6508444  3
    524    523    535    537     1  0.0000000  0.6508444  3
    525    523    535   1010     1  0.0000000  1.0460000  1
    525    523    535   1010     1  0.0000000  0.0000000  3
    525    523    535    536     1  0.0000000  0.6508444  3
    525    523    535    537     1  0.0000000  0.6508444  3
    526    514    510    539     1  0.0000000  0.6508444  3
    527    526    532    996     1  0.0000000  1.0460000  1
    527    526    532    996     1  0.0000000  0.0000000  3
    527    526    532    533     1  0.0000000  0.6508444  3
    527    526    532    534     1  0.0000000  0.6508444  3
    528    526    532    996     1  0.0000000  1.0460000  1
    528    526    532    996     1  0.0000000  0.0000000  3
    528    526    532    533     1  0.0000000  0.6508444  3
    528    526    532    534     1  0.0000000  0.6508444  3
    532    996    990    991     1  0.0000000  1.6038667  3
    532    996    990    992     1  0.0000000  1.6038667  3
    533    532    996    990     1  0.0000000  1.6038667  3
    534    532    996    990     1  0.0000000  1.6038667  3
    535   1010   1004   1005     1  0.0000000  1.6038667  3
    535   1010   1004   1006     1  0.0000000  1.6038667  3
    536    535   1010   1004     1  0.0000000  1.6038667  3
    537    535   1010   1004     1  0.0000000  1.6038667  3
    540    541    553    554     1  0.0000000  0.6508444  3
    540    541    553    555     1  0.0000000  0.6508444  3
    540    544    556    557     1  0.0000000  0.6508444  3
    540    544    556    558     1  0.0000000  0.6508444  3
    540    547    550    551     1  0.0000000  0.6508444  3
    540    547    550    552     1  0.0000000  0.6508444  3
    541    540    544    545     1  0.0000000  0.6508444  3
    541    540    544    546     1  0.0000000  0.6508444  3
    541    540    547    548     1  0.0000000  0.6508444  3
    541    540    547    549     1  0.0000000  0.6508444  3
    541    553    565    566     1  0.0000000  0.6508444  3
    541    553    565    567     1  0.0000000  0.6508444  3
    542    541    540    544     1  0.0000000  0.6508444  3
    542    541    540    547     1  0.0000000  0.6508444  3
    542    541    540    569     1  0.0000000  0.6508444  3
    542    541    553    565     1  0.0000000  0.6508444  3
    542    541    553    554     1  0.0000000  0.6508444  3
    542    541    553    555     1  0.0000000  0.6508444  3
    543    541    540    544     1  0.0000000  0.6508444  3
    543    541    540    547     1  0.0000000  0.6508444  3
    543    541    540    569     1  0.0000000  0.6508444  3
    543    541    553    565     1  0.0000000  0.6508444  3
    543    541    553    554     1  0.0000000  0.6508444  3
    543    541    553    555     1  0.0000000  0.6508444  3
    544    540    547    548     1  0.0000000  0.6508444  3
    544    540    547    549     1  0.0000000  0.6508444  3
    544    556    562    563     1  0.0000000  0.6508444  3
    544    556    562    564     1  0.0000000  0.6508444  3
    545    544    540    547     1  0.0000000  0.6508444  3
    545    544    540    569     1  0.0000000  0.6508444  3
    545    544    556    562     1  0.0000000  0.6508444  3
    545    544    556    557     1  0.0000000  0.6508444  3
    545    544    556    558     1  0.0000000  0.6508444  3
    546    544    540    547     1  0.0000000  0.6508444  3
    546    544    540    569     1  0.0000000  0.6508444  3
    546    544    556    562     1  0.0000000  0.6508444  3
    546    544    556    557     1  0.0000000  0.6508444  3
    546    544    556    558     1  0.0000000  0.6508444  3
    547    550    559    560     1  0.0000000  0.6508444  3
    547    550    559    561     1  0.0000000  0.6508444  3
    548    547    540    569     1  0.0000000  0.6508444  3
    548    547    550    559     1  0.0000000  0.6508444  3
    548    547    550    551     1  0.0000000  0.6508444  3
    548    547    550    552     1  0.0000000  0.6508444  3
    549    547    540    569     1  0.0000000  0.6508444  3
    549    547    550    559     1  0.0000000  0.6508444  3
    549    547    550    551     1  0.0000000  0.6508444  3
    549    547    550    552     1  0.0000000  0.6508444  3
    550    547    540    569     1  0.0000000  0.6508444  3
    551    550    559    568     1  0.0000000  1.0460000  1
    551    550    559    568     1  0.0000000  0.0000000  3
    551    550    559    560     1  0.0000000  0.6508444  3
    551    550    559    561     1  0.0000000  0.6508444  3
    552    550    559    568     1  0.0000000  1.0460000  1
    552    550    559    568     1  0.0000000  0.0000000  3
    552    550    559    560     1  0.0000000  0.6508444  3
    552    550    559    561     1  0.0000000  0.6508444  3
    553    541    540    569     1  0.0000000  0.6508444  3
    554    553    565   1038     1  0.0000000  1.0460000  1
    554    553    565   1038     1  0.0000000  0.0000000  3
    554    553    565    566     1  0.0000000  0.6508444  3
    554    553    565    567     1  0.0000000  0.6508444  3
    555    553    565   1038     1  0.0000000  1.0460000  1
    555    553    565   1038     1  0.0000000  0.0000000  3
    555    553    565    566     1  0.0000000  0.6508444  3
    555    553    565    567     1  0.0000000  0.6508444  3
    556    544    540    569     1  0.0000000  0.6508444  3
    557    556    562   1024     1  0.0000000  1.0460000  1
    557    556    562   1024     1  0.0000000  0.0000000  3
    557    556    562    563     1  0.0000000  0.6508444  3
    557    556    562    564     1  0.0000000  0.6508444  3
    558    556    562   1024     1  0.0000000  1.0460000  1
    558    556    562   1024     1  0.0000000  0.0000000  3
    558    556    562    563     1  0.0000000  0.6508444  3
    558    556    562    564     1  0.0000000  0.6508444  3
    562   1024   1018   1019     1  0.0000000  1.6038667  3
    562   1024   1018   1020     1  0.0000000  1.6038667  3
    563    562   1024   1018     1  0.0000000  1.6038667  3
    564    562   1024   1018     1  0.0000000  1.6038667  3
    565   1038   1032   1033     1  0.0000000  1.6038667  3
    565   1038   1032   1034     1  0.0000000  1.6038667  3
    566    565   1038   1032     1  0.0000000  1.6038667  3
    567    565   1038   1032     1  0.0000000  1.6038667  3
    570    571    583    584     1  0.0000000  0.6508444  3
    570    571    583    585     1  0.0000000  0.6508444  3
    570    574    586    587     1  0.0000000  0.6508444  3
    570    574    586    588     1  0.0000000  0.6508444  3
    570    577    580    581     1  0.0000000  0.6508444  3
    570    577    580    582     1  0.0000000  0.6508444  3
    571    570    574    575     1  0.0000000  0.6508444  3
    571    570    574    576     1  0.0000000  0.6508444  3
    571    570    577    578     1  0.0000000  0.6508444  3
    571    570    577    579     1  0.0000000  0.6508444  3
    571    583    595    596     1  0.0000000  0.6508444  3
    571    583    595    597     1  0.0000000  0.6508444  3
    572    571    570    574     1  0.0000000  0.6508444  3
    572    571    570    577     1  0.0000000  0.6508444  3
    572    571    570    599     1  0.0000000  0.6508444  3
    572    571    583    595     1  0.0000000  0.6508444  3
    572    571    583    584     1  0.0000000  0.6508444  3
    572    571    583    585     1  0.0000000  0.6508444  3
    573    571    570    574     1  0.0000000  0.6508444  3
    573    571    570    577     1  0.0000000  0.6508444  3
    573    571    570    599     1  0.0000000  0.6508444  3
    573    571    583    595     1  0.0000000  0.6508444  3
    573    571    583    584     1  0.0000000  0.6508444  3
    573    571    583    585     1  0.0000000  0.6508444  3
    574    570    577    578     1  0.0000000  0.6508444  3
    574    570    577    579     1  0.0000000  0.6508444  3
    574    586    592    593     1  0.0000000  0.6508444  3
    574    586    592    594     1  0.0000000  0.6508444  3
    575    574    570    577     1  0.0000000  0.6508444  3
    575    574    570    599     1  0.0000000  0.6508444  3
    575    574    586    592     1  0.0000000  0.6508444  3
    575    574    586    587     1  0.0000000  0.6508444  3
    575    574    586    588     1  0.0000000  0.6508444  3
    576    574    570    577     1  0.0000000  0.6508444  3
    576    574    570    599     1  0.0000000  0.6508444  3
    576    574    586    592     1  0.0000000  0.6508444  3
    576    574    586    587     1  0.0000000  0.6508444  3
    576    574    586    588     1  0.0000000  0.6508444  3
    577    580    589    590     1  0.0000000  0.6508444  3
    577    580    589    591     1  0.0000000  0.6508444  3
    578    577    570    599     1  0.0000000  0.6508444  3
    578    577    580    589     1  0.0000000  0.6508444  3
    578    577    580    581     1  0.0000000  0.6508444  3
    578    577    580    582     1  0.0000000  0.6508444  3
    579    577    570    599     1  0.0000000  0.6508444  3
    579    577    580    589     1  0.0000000  0.6508444  3
    579    577    580    581     1  0.0000000  0.6508444  3
    579    577    580    582     1  0.0000000  0.6508444  3
    580    577    570    599     1  0.0000000  0.6508444  3
    581    580    589    598     1  0.0000000  1.0460000  1
    581    580    589    598     1  0.0000000  0.0000000  3
    581    580    589    590     1  0.0000000  0.6508444  3
    581    580    589    591     1  0.0000000  0.6508444  3
    582    580    589    598     1  0.0000000  1.0460000  1
    582    580    589    598     1  0.0000000  0.0000000  3
    582    580    589    590     1  0.0000000  0.6508444  3
    582    580    589    591     1  0.0000000  0.6508444  3
    583    571    570    599     1  0.0000000  0.6508444  3
    584    583    595   1066     1  0.0000000  1.0460000  1
    584    583    595   1066     1  0.0000000  0.0000000  3
    584    583    595    596     1  0.0000000  0.6508444  3
    584    583    595    597     1  0.0000000  0.6508444  3
    585    583    595   1066     1  0.0000000  1.0460000  1
    585    583    595   1066     1  0.0000000  0.0000000  3
    585    583    595    596     1  0.0000000  0.6508444  3
    585    583    595    597     1  0.0000000  0.6508444  3
    586    574    570    599     1  0.0000000  0.6508444  3
    587    586    592   1052     1  0.0000000  1.0460000  1
    587    586    592   1052     1  0.0000000  0.0000000  3
    587    586    592    593     1  0.0000000  0.6508444  3
    587    586    592    594     1  0.0000000  0.6508444  3
    588    586    592   1052     1  0.0000000  1.0460000  1
    588    586    592   1052     1  0.0000000  0.0000000  3
    588    586    592    593     1  0.0000000  0.6508444  3
    588    586    592    594     1  0.0000000  0.6508444  3
    592   1052   1046   1047     1  0.0000000  1.6038667  3
    592   1052   1046   1048     1  0.0000000  1.6038667  3
    593    592   1052   1046     1  0.0000000  1.6038667  3
    594    592   1052   1046     1  0.0000000  1.6038667  3
    595   1066   1060   1061     1  0.0000000  1.6038667  3
    595   1066   1060   1062     1  0.0000000  1.6038667  3
    596    595   1066   1060     1  0.0000000  1.6038667  3
    597    595   1066   1060     1  0.0000000  1.6038667  3
    600    601    613    614     1  0.0000000  0.6508444  3
    600    601    613    615     1  0.0000000  0.6508444  3
    600    604    616    617     1  0.0000000  0.6508444  3
    600    604    616    618     1  0.0000000  0.6508444  3
    600    607    610    611     1  0.0000000  0.6508444  3
    600    607    610    612     1  0.0000000  0.6508444  3
    601    600    604    605     1  0.0000000  0.6508444  3
    601    600    604    606     1  0.0000000  0.6508444  3
    601    600    607    608     1  0.0000000  0.6508444  3
    601    600    607    609     1  0.0000000  0.6508444  3
    601    613    625    626     1  0.0000000  0.6508444  3
    601    613    625    627     1  0.0000000  0.6508444  3
    602    601    600    604     1  0.0000000  0.6508444  3
    602    601    600    607     1  0.0000000  0.6508444  3
    602    601    600    629     1  0.0000000  0.6508444  3
    602    601    613    625     1  0.0000000  0.6508444  3
    602    601    613    614     1  0.0000000  0.6508444  3
    602    601    613    615     1  0.0000000  0.6508444  3
    603    601    600    604     1  0.0000000  0.6508444  3
    603    601    600    607     1  0.0000000  0.6508444  3
    603    601    600    629     1  0.0000000  0.6508444  3
    603    601    613    625     1  0.0000000  0.6508444  3
    603    601    613    614     1  0.0000000  0.6508444  3
    603    601    613    615     1  0.0000000  0.6508444  3
    604    600    607    608     1  0.0000000  0.6508444  3
    604    600    607    609     1  0.0000000  0.6508444  3
    604    616    622    623     1  0.0000000  0.6508444  3
    604    616    622    624     1  0.0000000  0.6508444  3
    605    604    600    607     1  0.0000000  0.6508444  3
    605    604    600    629     1  0.0000000  0.6508444  3
    605    604    616    622     1  0.0000000  0.6508444  3
    605    604    616    617     1  0.0000000  0.6508444  3
    605    604    616    618     1  0.0000000  0.6508444  3
    606    604    600    607     1  0.0000000  0.6508444  3
    606    604    600    629     1  0.0000000  0.6508444  3
    606    604    616    622     1  0.0000000  0.6508444  3
    606    604    616    617     1  0.0000000  0.6508444  3
    606    604    616    618     1  0.0000000  0.6508444  3
    607    610    619    620     1  0.0000000  0.6508444  3
    607    610    619    621     1  0.0000000  0.6508444  3
    608    607    600    629     1  0.0000000  0.6508444  3
    608    607    610    619     1  0.0000000  0.6508444  3
    608    607    610    611     1  0.0000000  0.6508444  3
    608    607    610    612     1  0.0000000  0.6508444  3
    609    607    600    629     1  0.0000000  0.6508444  3
    609    607    610    619     1  0.0000000  0.6508444  3
    609    607    610    611     1  0.0000000  0.6508444  3
    609    607    610    612     1  0.0000000  0.6508444  3
    610    607    600    629     1  0.0000000  0.6508444  3
    611    610    619    628     1  0.0000000  1.0460000  1
    611    610    619    628     1  0.0000000  0.0000000  3
    611    610    619    620     1  0.0000000  0.6508444  3
    611    610    619    621     1  0.0000000  0.6508444  3
    612    610    619    628     1  0.0000000  1.0460000  1
    612    610    619    628     1  0.0000000  0.0000000  3
    612    610    619    620     1  0.0000000  0.6508444  3
    612    610    619    621     1  0.0000000  0.6508444  3
    613    601    600    629     1  0.0000000  0.6508444  3
    614    613    625   1094     1  0.0000000  1.0460000  1
    614    613    625   1094     1  0.0000000  0.0000000  3
    614    613    625    626     1  0.0000000  0.6508444  3
    614    613    625    627     1  0.0000000  0.6508444  3
    615    613    625   1094     1  0.0000000  1.0460000  1
    615    613    625   1094     1  0.0000000  0.0000000  3
    615    613    625    626     1  0.0000000  0.6508444  3
    615    613    625    627     1  0.0000000  0.6508444  3
    616    604    600    629     1  0.0000000  0.6508444  3
    617    616    622   1080     1  0.0000000  1.0460000  1
    617    616    622   1080     1  0.0000000  0.0000000  3
    617    616    622    623     1  0.0000000  0.6508444  3
    617    616    622    624     1  0.0000000  0.6508444  3
    618    616    622   1080     1  0.0000000  1.0460000  1
    618    616    622   1080     1  0.0000000  0.0000000  3
    618    616    622    623     1  0.0000000  0.6508444  3
    618    616    622    624     1  0.0000000  0.6508444  3
    622   1080   1074   1075     1  0.0000000  1.6038667  3
    622   1080   1074   1076     1  0.0000000  1.6038667  3
    623    622   1080   1074     1  0.0000000  1.6038667  3
    624    622   1080   1074     1  0.0000000  1.6038667  3
    625   1094   1088   1089     1  0.0000000  1.6038667  3
    625   1094   1088   1090     1  0.0000000  1.6038667  3
    626    625   1094   1088     1  0.0000000  1.6038667  3
    627    625   1094   1088     1  0.0000000  1.6038667  3
    630    631    643    644     1  0.0000000  0.6508444  3
    630    631    643    645     1  0.0000000  0.6508444  3
    630    634    646    647     1  0.0000000  0.6508444  3
    630    634    646    648     1  0.0000000  0.6508444  3
    630    637    640    641     1  0.0000000  0.6508444  3
    630    637    640    642     1  0.0000000  0.6508444  3
    631    630    634    635     1  0.0000000  0.6508444  3
    631    630    634    636     1  0.0000000  0.6508444  3
    631    630    637    638     1  0.0000000  0.6508444  3
    631    630    637    639     1  0.0000000  0.6508444  3
    631    643    655    656     1  0.0000000  0.6508444  3
    631    643    655    657     1  0.0000000  0.6508444  3
    632    631    630    634     1  0.0000000  0.6508444  3
    632    631    630    637     1  0.0000000  0.6508444  3
    632    631    630    659     1  0.0000000  0.6508444  3
    632    631    643    655     1  0.0000000  0.6508444  3
    632    631    643    644     1  0.0000000  0.6508444  3
    632    631    643    645     1  0.0000000  0.6508444  3
    633    631    630    634     1  0.0000000  0.6508444  3
    633    631    630    637     1  0.0000000  0.6508444  3
    633    631    630    659     1  0.0000000  0.6508444  3
    633    631    643    655     1  0.0000000  0.6508444  3
    633    631    643    644     1  0.0000000  0.6508444  3
    633    631    643    645     1  0.0000000  0.6508444  3
    634    630    637    638     1  0.0000000  0.6508444  3
    634    630    637    639     1  0.0000000  0.6508444  3
    634    646    652    653     1  0.0000000  0.6508444  3
    634    646    652    654     1  0.0000000  0.6508444  3
    635    634    630    637     1  0.0000000  0.6508444  3
    635    634    630    659     1  0.0000000  0.6508444  3
    635    634    646    652     1  0.0000000  0.6508444  3
    635    634    646    647     1  0.0000000  0.6508444  3
    635    634    646    648     1  0.0000000  0.6508444  3
    636    634    630    637     1  0.0000000  0.6508444  3
    636    634    630    659     1  0.0000000  0.6508444  3
    636    634    646    652     1  0.0000000  0.6508444  3
    636    634    646    647     1  0.0000000  0.6508444  3
    636    634    646    648     1  0.0000000  0.6508444  3
    637    640    649    650     1  0.0000000  0.6508444  3
    637    640    649    651     1  0.0000000  0.6508444  3
    638    637    630    659     1  0.0000000  0.6508444  3
    638    637    640    649     1  0.0000000  0.6508444  3
    638    637    640    641     1  0.0000000  0.6508444  3
    638    637    640    642     1  0.0000000  0.6508444  3
    639    637    630    659     1  0.0000000  0.6508444  3
    639    637    640    649     1  0.0000000  0.6508444  3
    639    637    640    641     1  0.0000000  0.6508444  3
    639    637    640    642     1  0.0000000  0.6508444  3
    640    637    630    659     1  0.0000000  0.6508444  3
    641    640    649    658     1  0.0000000  1.0460000  1
    641    640    649    658     1  0.0000000  0.0000000  3
    641    640    649    650     1  0.0000000  0.6508444  3
    641    640    649    651     1  0.0000000  0.6508444  3
    642    640    649    658     1  0.0000000  1.0460000  1
    642    640    649    658     1  0.0000000  0.0000000  3
    642    640    649    650     1  0.0000000  0.6508444  3
    642    640    649    651     1  0.0000000  0.6508444  3
    643    631    630    659     1  0.0000000  0.6508444  3
    644    643    655   1122     1  0.0000000  1.0460000  1
    644    643    655   1122     1  0.0000000  0.0000000  3
    644    643    655    656     1  0.0000000  0.6508444  3
    644    643    655    657     1  0.0000000  0.6508444  3
    645    643    655   1122     1  0.0000000  1.0460000  1
    645    643    655   1122     1  0.0000000  0.0000000  3
    645    643    655    656     1  0.0000000  0.6508444  3
    645    643    655    657     1  0.0000000  0.6508444  3
    646    634    630    659     1  0.0000000  0.6508444  3
    647    646    652   1108     1  0.0000000  1.0460000  1
    647    646    652   1108     1  0.0000000  0.0000000  3
    647    646    652    653     1  0.0000000  0.6508444  3
    647    646    652    654     1  0.0000000  0.6508444  3
    648    646    652   1108     1  0.0000000  1.0460000  1
    648    646    652   1108     1  0.0000000  0.0000000  3
    648    646    652    653     1  0.0000000  0.6508444  3
    648    646    652    654     1  0.0000000  0.6508444  3
    652   1108   1102   1103     1  0.0000000  1.6038667  3
    652   1108   1102   1104     1  0.0000000  1.6038667  3
    653    652   1108   1102     1  0.0000000  1.6038667  3
    654    652   1108   1102     1  0.0000000  1.6038667  3
    655   1122   1116   1117     1  0.0000000  1.6038667  3
    655   1122   1116   1118     1  0.0000000  1.6038667  3
    656    655   1122   1116     1  0.0000000  1.6038667  3
    657    655   1122   1116     1  0.0000000  1.6038667  3
    660    661    673    674     1  0.0000000  0.6508444  3
    660    661    673    675     1  0.0000000  0.6508444  3
    660    664    676    677     1  0.0000000  0.6508444  3
    660    664    676    678     1  0.0000000  0.6508444  3
    660    667    670    671     1  0.0000000  0.6508444  3
    660    667    670    672     1  0.0000000  0.6508444  3
    661    660    664    665     1  0.0000000  0.6508444  3
    661    660    664    666     1  0.0000000  0.6508444  3
    661    660    667    668     1  0.0000000  0.6508444  3
    661    660    667    669     1  0.0000000  0.6508444  3
    661    673    685    686     1  0.0000000  0.6508444  3
    661    673    685    687     1  0.0000000  0.6508444  3
    662    661    660    664     1  0.0000000  0.6508444  3
    662    661    660    667     1  0.0000000  0.6508444  3
    662    661    660    689     1  0.0000000  0.6508444  3
    662    661    673    685     1  0.0000000  0.6508444  3
    662    661    673    674     1  0.0000000  0.6508444  3
    662    661    673    675     1  0.0000000  0.6508444  3
    663    661    660    664     1  0.0000000  0.6508444  3
    663    661    660    667     1  0.0000000  0.6508444  3
    663    661    660    689     1  0.0000000  0.6508444  3
    663    661    673    685     1  0.0000000  0.6508444  3
    663    661    673    674     1  0.0000000  0.6508444  3
    663    661    673    675     1  0.0000000  0.6508444  3
    664    660    667    668     1  0.0000000  0.6508444  3
    664    660    667    669     1  0.0000000  0.6508444  3
    664    676    682    683     1  0.0000000  0.6508444  3
    664    676    682    684     1  0.0000000  0.6508444  3
    665    664    660    667     1  0.0000000  0.6508444  3
    665    664    660    689     1  0.0000000  0.6508444  3
    665    664    676    682     1  0.0000000  0.6508444  3
    665    664    676    677     1  0.0000000  0.6508444  3
    665    664    676    678     1  0.0000000  0.6508444  3
    666    664    660    667     1  0.0000000  0.6508444  3
    666    664    660    689     1  0.0000000  0.6508444  3
    666    664    676    682     1  0.0000000  0.6508444  3
    666    664    676    677     1  0.0000000  0.6508444  3
    666    664    676    678     1  0.0000000  0.6508444  3
    667    670    679    680     1  0.0000000  0.6508444  3
    667    670    679    681     1  0.0000000  0.6508444  3
    668    667    660    689     1  0.0000000  0.6508444  3
    668    667    670    679     1  0.0000000  0.6508444  3
    668    667    670    671     1  0.0000000  0.6508444  3
    668    667    670    672     1  0.0000000  0.6508444  3
    669    667    660    689     1  0.0000000  0.6508444  3
    669    667    670    679     1  0.0000000  0.6508444  3
    669    667    670    671     1  0.0000000  0.6508444  3
    669    667    670    672     1  0.0000000  0.6508444  3
    670    667    660    689     1  0.0000000  0.6508444  3
    671    670    679    688     1  0.0000000  1.0460000  1
    671    670    679    688     1  0.0000000  0.0000000  3
    671    670    679    680     1  0.0000000  0.6508444  3
    671    670    679    681     1  0.0000000  0.6508444  3
    672    670    679    688     1  0.0000000  1.0460000  1
    672    670    679    688     1  0.0000000  0.0000000  3
    672    670    679    680     1  0.0000000  0.6508444  3
    672    670    679    681     1  0.0000000  0.6508444  3
    673    661    660    689     1  0.0000000  0.6508444  3
    674    673    685   1150     1  0.0000000  1.0460000  1
    674    673    685   1150     1  0.0000000  0.0000000  3
    674    673    685    686     1  0.0000000  0.6508444  3
    674    673    685    687     1  0.0000000  0.6508444  3
    675    673    685   1150     1  0.0000000  1.0460000  1
    675    673    685   1150     1  0.0000000  0.0000000  3
    675    673    685    686     1  0.0000000  0.6508444  3
    675    673    685    687     1  0.0000000  0.6508444  3
    676    664    660    689     1  0.0000000  0.6508444  3
    677    676    682   1136     1  0.0000000  1.0460000  1
    677    676    682   1136     1  0.0000000  0.0000000  3
    677    676    682    683     1  0.0000000  0.6508444  3
    677    676    682    684     1  0.0000000  0.6508444  3
    678    676    682   1136     1  0.0000000  1.0460000  1
    678    676    682   1136     1  0.0000000  0.0000000  3
    678    676    682    683     1  0.0000000  0.6508444  3
    678    676    682    684     1  0.0000000  0.6508444  3
    682   1136   1130   1131     1  0.0000000  1.6038667  3
    682   1136   1130   1132     1  0.0000000  1.6038667  3
    683    682   1136   1130     1  0.0000000  1.6038667  3
    684    682   1136   1130     1  0.0000000  1.6038667  3
    685   1150   1144   1145     1  0.0000000  1.6038667  3
    685   1150   1144   1146     1  0.0000000  1.6038667  3
    686    685   1150   1144     1  0.0000000  1.6038667  3
    687    685   1150   1144     1  0.0000000  1.6038667  3
    690    691    703    704     1  0.0000000  0.6508444  3
    690    691    703    705     1  0.0000000  0.6508444  3
    690    694    706    707     1  0.0000000  0.6508444  3
    690    694    706    708     1  0.0000000  0.6508444  3
    690    697    700    701     1  0.0000000  0.6508444  3
    690    697    700    702     1  0.0000000  0.6508444  3
    691    690    694    695     1  0.0000000  0.6508444  3
    691    690    694    696     1  0.0000000  0.6508444  3
    691    690    697    698     1  0.0000000  0.6508444  3
    691    690    697    699     1  0.0000000  0.6508444  3
    691    703    715    716     1  0.0000000  0.6508444  3
    691    703    715    717     1  0.0000000  0.6508444  3
    692    691    690    694     1  0.0000000  0.6508444  3
    692    691    690    697     1  0.0000000  0.6508444  3
    692    691    690    719     1  0.0000000  0.6508444  3
    692    691    703    715     1  0.0000000  0.6508444  3
    692    691    703    704     1  0.0000000  0.6508444  3
    692    691    703    705     1  0.0000000  0.6508444  3
    693    691    690    694     1  0.0000000  0.6508444  3
    693    691    690    697     1  0.0000000  0.6508444  3
    693    691    690    719     1  0.0000000  0.6508444  3
    693    691    703    715     1  0.0000000  0.6508444  3
    693    691    703    704     1  0.0000000  0.6508444  3
    693    691    703    705     1  0.0000000  0.6508444  3
    694    690    697    698     1  0.0000000  0.6508444  3
    694    690    697    699     1  0.0000000  0.6508444  3
    694    706    712    713     1  0.0000000  0.6508444  3
    694    706    712    714     1  0.0000000  0.6508444  3
    695    694    690    697     1  0.0000000  0.6508444  3
    695    694    690    719     1  0.0000000  0.6508444  3
    695    694    706    712     1  0.0000000  0.6508444  3
    695    694    706    707     1  0.0000000  0.6508444  3
    695    694    706    708     1  0.0000000  0.6508444  3
    696    694    690    697     1  0.0000000  0.6508444  3
    696    694    690    719     1  0.0000000  0.6508444  3
    696    694    706    712     1  0.0000000  0.6508444  3
    696    694    706    707     1  0.0000000  0.6508444  3
    696    694    706    708     1  0.0000000  0.6508444  3
    697    700    709    710     1  0.0000000  0.6508444  3
    697    700    709    711     1  0.0000000  0.6508444  3
    698    697    690    719     1  0.0000000  0.6508444  3
    698    697    700    709     1  0.0000000  0.6508444  3
    698    697    700    701     1  0.0000000  0.6508444  3
    698    697    700    702     1  0.0000000  0.6508444  3
    699    697    690    719     1  0.0000000  0.6508444  3
    699    697    700    709     1  0.0000000  0.6508444  3
    699    697    700    701     1  0.0000000  0.6508444  3
    699    697    700    702     1  0.0000000  0.6508444  3
    700    697    690    719     1  0.0000000  0.6508444  3
    701    700    709    718     1  0.0000000  1.0460000  1
    701    700    709    718     1  0.0000000  0.0000000  3
    701    700    709    710     1  0.0000000  0.6508444  3
    701    700    709    711     1  0.0000000  0.6508444  3
    702    700    709    718     1  0.0000000  1.0460000  1
    702    700    709    718     1  0.0000000  0.0000000  3
    702    700    709    710     1  0.0000000  0.6508444  3
    702    700    709    711     1  0.0000000  0.6508444  3
    703    691    690    719     1  0.0000000  0.6508444  3
    704    703    715   1178     1  0.0000000  1.0460000  1
    704    703    715   1178     1  0.0000000  0.0000000  3
    704    703    715    716     1  0.0000000  0.6508444  3
    704    703    715    717     1  0.0000000  0.6508444  3
    705    703    715   1178     1  0.0000000  1.0460000  1
    705    703    715   1178     1  0.0000000  0.0000000  3
    705    703    715    716     1  0.0000000  0.6508444  3
    705    703    715    717     1  0.0000000  0.6508444  3
    706    694    690    719     1  0.0000000  0.6508444  3
    707    706    712   1164     1  0.0000000  1.0460000  1
    707    706    712   1164     1  0.0000000  0.0000000  3
    707    706    712    713     1  0.0000000  0.6508444  3
    707    706    712    714     1  0.0000000  0.6508444  3
    708    706    712   1164     1  0.0000000  1.0460000  1
    708    706    712   1164     1  0.0000000  0.0000000  3
    708    706    712    713     1  0.0000000  0.6508444  3
    708    706    712    714     1  0.0000000  0.6508444  3
    712   1164   1158   1159     1  0.0000000  1.6038667  3
    712   1164   1158   1160     1  0.0000000  1.6038667  3
    713    712   1164   1158     1  0.0000000  1.6038667  3
    714    712   1164   1158     1  0.0000000  1.6038667  3
    715   1178   1172   1173     1  0.0000000  1.6038667  3
    715   1178   1172   1174     1  0.0000000  1.6038667  3
    716    715   1178   1172     1  0.0000000  1.6038667  3
    717    715   1178   1172     1  0.0000000  1.6038667  3
    720    721    733    734     1  0.0000000  0.6508444  3
    720    721    733    735     1  0.0000000  0.6508444  3
    720    724    736    737     1  0.0000000  0.6508444  3
    720    724    736    738     1  0.0000000  0.6508444  3
    720    727    730    731     1  0.0000000  0.6508444  3
    720    727    730    732     1  0.0000000  0.6508444  3
    721    720    724    725     1  0.0000000  0.6508444  3
    721    720    724    726     1  0.0000000  0.6508444  3
    721    720    727    728     1  0.0000000  0.6508444  3
    721    720    727    729     1  0.0000000  0.6508444  3
    721    733    745    746     1  0.0000000  0.6508444  3
    721    733    745    747     1  0.0000000  0.6508444  3
    722    721    720    724     1  0.0000000  0.6508444  3
    722    721    720    727     1  0.0000000  0.6508444  3
    722    721    720    749     1  0.0000000  0.6508444  3
    722    721    733    745     1  0.0000000  0.6508444  3
    722    721    733    734     1  0.0000000  0.6508444  3
    722    721    733    735     1  0.0000000  0.6508444  3
    723    721    720    724     1  0.0000000  0.6508444  3
    723    721    720    727     1  0.0000000  0.6508444  3
    723    721    720    749     1  0.0000000  0.6508444  3
    723    721    733    745     1  0.0000000  0.6508444  3
    723    721    733    734     1  0.0000000  0.6508444  3
    723    721    733    735     1  0.0000000  0.6508444  3
    724    720    727    728     1  0.0000000  0.6508444  3
    724    720    727    729     1  0.0000000  0.6508444  3
    724    736    742    743     1  0.0000000  0.6508444  3
    724    736    742    744     1  0.0000000  0.6508444  3
    725    724    720    727     1  0.0000000  0.6508444  3
    725    724    720    749     1  0.0000000  0.6508444  3
    725    724    736    742     1  0.0000000  0.6508444  3
    725    724    736    737     1  0.0000000  0.6508444  3
    725    724    736    738     1  0.0000000  0.6508444  3
    726    724    720    727     1  0.0000000  0.6508444  3
    726    724    720    749     1  0.0000000  0.6508444  3
    726    724    736    742     1  0.0000000  0.6508444  3
    726    724    736    737     1  0.0000000  0.6508444  3
    726    724    736    738     1  0.0000000  0.6508444  3
    727    730    739    740     1  0.0000000  0.6508444  3
    727    730    739    741     1  0.0000000  0.6508444  3
    728    727    720    749     1  0.0000000  0.6508444  3
    728    727    730    739     1  0.0000000  0.6508444  3
    728    727    730    731     1  0.0000000  0.6508444  3
    728    727    730    732     1  0.0000000  0.6508444  3
    729    727    720    749     1  0.0000000  0.6508444  3
    729    727    730    739     1  0.0000000  0.6508444  3
    729    727    730    731     1  0.0000000  0.6508444  3
    729    727    730    732     1  0.0000000  0.6508444  3
    730    727    720    749     1  0.0000000  0.6508444  3
    731    730    739    748     1  0.0000000  1.0460000  1
    731    730    739    748     1  0.0000000  0.0000000  3
    731    730    739    740     1  0.0000000  0.6508444  3
    731    730    739    741     1  0.0000000  0.6508444  3
    732    730    739    748     1  0.0000000  1.0460000  1
    732    730    739    748     1  0.0000000  0.0000000  3
    732    730    739    740     1  0.0000000  0.6508444  3
    732    730    739    741     1  0.0000000  0.6508444  3
    733    721    720    749     1  0.0000000  0.6508444  3
    734    733    745   1206     1  0.0000000  1.0460000  1
    734    733    745   1206     1  0.0000000  0.0000000  3
    734    733    745    746     1  0.0000000  0.6508444  3
    734    733    745    747     1  0.0000000  0.6508444  3
    735    733    745   1206     1  0.0000000  1.0460000  1
    735    733    745   1206     1  0.0000000  0.0000000  3
    735    733    745    746     1  0.0000000  0.6508444  3
    735    733    745    747     1  0.0000000  0.6508444  3
    736    724    720    749     1  0.0000000  0.6508444  3
    737    736    742   1192     1  0.0000000  1.0460000  1
    737    736    742   1192     1  0.0000000  0.0000000  3
    737    736    742    743     1  0.0000000  0.6508444  3
    737    736    742    744     1  0.0000000  0.6508444  3
    738    736    742   1192     1  0.0000000  1.0460000  1
    738    736    742   1192     1  0.0000000  0.0000000  3
    738    736    742    743     1  0.0000000  0.6508444  3
    738    736    742    744     1  0.0000000  0.6508444  3
    742   1192   1186   1187     1  0.0000000  1.6038667  3
    742   1192   1186   1188     1  0.0000000  1.6038667  3
    743    742   1192   1186     1  0.0000000  1.6038667  3
    744    742   1192   1186     1  0.0000000  1.6038667  3
    745   1206   1200   1201     1  0.0000000  1.6038667  3
    745   1206   1200   1202     1  0.0000000  1.6038667  3
    746    745   1206   1200     1  0.0000000  1.6038667  3
    747    745   1206   1200     1  0.0000000  1.6038667  3
    750    751    763    764     1  0.0000000  0.6508444  3
    750    751    763    765     1  0.0000000  0.6508444  3
    750    754    766    767     1  0.0000000  0.6508444  3
    750    754    766    768     1  0.0000000  0.6508444  3
    750    757    760    761     1  0.0000000  0.6508444  3
    750    757    760    762     1  0.0000000  0.6508444  3
    751    750    754    755     1  0.0000000  0.6508444  3
    751    750    754    756     1  0.0000000  0.6508444  3
    751    750    757    758     1  0.0000000  0.6508444  3
    751    750    757    759     1  0.0000000  0.6508444  3
    751    763    775    776     1  0.0000000  0.6508444  3
    751    763    775    777     1  0.0000000  0.6508444  3
    752    751    750    754     1  0.0000000  0.6508444  3
    752    751    750    757     1  0.0000000  0.6508444  3
    752    751    750    779     1  0.0000000  0.6508444  3
    752    751    763    775     1  0.0000000  0.6508444  3
    752    751    763    764     1  0.0000000  0.6508444  3
    752    751    763    765     1  0.0000000  0.6508444  3
    753    751    750    754     1  0.0000000  0.6508444  3
    753    751    750    757     1  0.0000000  0.6508444  3
    753    751    750    779     1  0.0000000  0.6508444  3
    753    751    763    775     1  0.0000000  0.6508444  3
    753    751    763    764     1  0.0000000  0.6508444  3
    753    751    763    765     1  0.0000000  0.6508444  3
    754    750    757    758     1  0.0000000  0.6508444  3
    754    750    757    759     1  0.0000000  0.6508444  3
    754    766    772    773     1  0.0000000  0.6508444  3
    754    766    772    774     1  0.0000000  0.6508444  3
    755    754    750    757     1  0.0000000  0.6508444  3
    755    754    750    779     1  0.0000000  0.6508444  3
    755    754    766    772     1  0.0000000  0.6508444  3
    755    754    766    767     1  0.0000000  0.6508444  3
    755    754    766    768     1  0.0000000  0.6508444  3
    756    754    750    757     1  0.0000000  0.6508444  3
    756    754    750    779     1  0.0000000  0.6508444  3
    756    754    766    772     1  0.0000000  0.6508444  3
    756    754    766    767     1  0.0000000  0.6508444  3
    756    754    766    768     1  0.0000000  0.6508444  3
    757    760    769    770     1  0.0000000  0.6508444  3
    757    760    769    771     1  0.0000000  0.6508444  3
    758    757    750    779     1  0.0000000  0.6508444  3
    758    757    760    769     1  0.0000000  0.6508444  3
    758    757    760    761     1  0.0000000  0.6508444  3
    758    757    760    762     1  0.0000000  0.6508444  3
    759    757    750    779     1  0.0000000  0.6508444  3
    759    757    760    769     1  0.0000000  0.6508444  3
    759    757    760    761     1  0.0000000  0.6508444  3
    759    757    760    762     1  0.0000000  0.6508444  3
    760    757    750    779     1  0.0000000  0.6508444  3
    761    760    769    778     1  0.0000000  1.0460000  1
    761    760    769    778     1  0.0000000  0.0000000  3
    761    760    769    770     1  0.0000000  0.6508444  3
    761    760    769    771     1  0.0000000  0.6508444  3
    762    760    769    778     1  0.0000000  1.0460000  1
    762    760    769    778     1  0.0000000  0.0000000  3
    762    760    769    770     1  0.0000000  0.6508444  3
    762    760    769    771     1  0.0000000  0.6508444  3
    763    751    750    779     1  0.0000000  0.6508444  3
    764    763    775   1234     1  0.0000000  1.0460000  1
    764    763    775   1234     1  0.0000000  0.0000000  3
    764    763    775    776     1  0.0000000  0.6508444  3
    764    763    775    777     1  0.0000000  0.6508444  3
    765    763    775   1234     1  0.0000000  1.0460000  1
    765    763    775   1234     1  0.0000000  0.0000000  3
    765    763    775    776     1  0.0000000  0.6508444  3
    765    763    775    777     1  0.0000000  0.6508444  3
    766    754    750    779     1  0.0000000  0.6508444  3
    767    766    772   1220     1  0.0000000  1.0460000  1
    767    766    772   1220     1  0.0000000  0.0000000  3
    767    766    772    773     1  0.0000000  0.6508444  3
    767    766    772    774     1  0.0000000  0.6508444  3
    768    766    772   1220     1  0.0000000  1.0460000  1
    768    766    772   1220     1  0.0000000  0.0000000  3
    768    766    772    773     1  0.0000000  0.6508444  3
    768    766    772    774     1  0.0000000  0.6508444  3
    772   1220   1214   1215     1  0.0000000  1.6038667  3
    772   1220   1214   1216     1  0.0000000  1.6038667  3
    773    772   1220   1214     1  0.0000000  1.6038667  3
    774    772   1220   1214     1  0.0000000  1.6038667  3
    775   1234   1228   1229     1  0.0000000  1.6038667  3
    775   1234   1228   1230     1  0.0000000  1.6038667  3
    776    775   1234   1228     1  0.0000000  1.6038667  3
    777    775   1234   1228     1  0.0000000  1.6038667  3
    780    781    793    794     1  0.0000000  0.6508444  3
    780    781    793    795     1  0.0000000  0.6508444  3
    780    784    796    797     1  0.0000000  0.6508444  3
    780    784    796    798     1  0.0000000  0.6508444  3
    780    787    790    791     1  0.0000000  0.6508444  3
    780    787    790    792     1  0.0000000  0.6508444  3
    781    780    784    785     1  0.0000000  0.6508444  3
    781    780    784    786     1  0.0000000  0.6508444  3
    781    780    787    788     1  0.0000000  0.6508444  3
    781    780    787    789     1  0.0000000  0.6508444  3
    781    793    805    806     1  0.0000000  0.6508444  3
    781    793    805    807     1  0.0000000  0.6508444  3
    782    781    780    784     1  0.0000000  0.6508444  3
    782    781    780    787     1  0.0000000  0.6508444  3
    782    781    780    809     1  0.0000000  0.6508444  3
    782    781    793    805     1  0.0000000  0.6508444  3
    782    781    793    794     1  0.0000000  0.6508444  3
    782    781    793    795     1  0.0000000  0.6508444  3
    783    781    780    784     1  0.0000000  0.6508444  3
    783    781    780    787     1  0.0000000  0.6508444  3
    783    781    780    809     1  0.0000000  0.6508444  3
    783    781    793    805     1  0.0000000  0.6508444  3
    783    781    793    794     1  0.0000000  0.6508444  3
    783    781    793    795     1  0.0000000  0.6508444  3
    784    780    787    788     1  0.0000000  0.6508444  3
    784    780    787    789     1  0.0000000  0.6508444  3
    784    796    802    803     1  0.0000000  0.6508444  3
    784    796    802    804     1  0.0000000  0.6508444  3
    785    784    780    787     1  0.0000000  0.6508444  3
    785    784    780    809     1  0.0000000  0.6508444  3
    785    784    796    802     1  0.0000000  0.6508444  3
    785    784    796    797     1  0.0000000  0.6508444  3
    785    784    796    798     1  0.0000000  0.6508444  3
    786    784    780    787     1  0.0000000  0.6508444  3
    786    784    780    809     1  0.0000000  0.6508444  3
    786    784    796    802     1  0.0000000  0.6508444  3
    786    784    796    797     1  0.0000000  0.6508444  3
    786    784    796    798     1  0.0000000  0.6508444  3
    787    790    799    800     1  0.0000000  0.6508444  3
    787    790    799    801     1  0.0000000  0.6508444  3
    788    787    780    809     1  0.0000000  0.6508444  3
    788    787    790    799     1  0.0000000  0.6508444  3
    788    787    790    791     1  0.0000000  0.6508444  3
    788    787    790    792     1  0.0000000  0.6508444  3
    789    787    780    809     1  0.0000000  0.6508444  3
    789    787    790    799     1  0.0000000  0.6508444  3
    789    787    790    791     1  0.0000000  0.6508444  3
    789    787    790    792     1  0.0000000  0.6508444  3
    790    787    780    809     1  0.0000000  0.6508444  3
    791    790    799    808     1  0.0000000  1.0460000  1
    791    790    799    808     1  0.0000000  0.0000000  3
    791    790    799    800     1  0.0000000  0.6508444  3
    791    790    799    801     1  0.0000000  0.6508444  3
    792    790    799    808     1  0.0000000  1.0460000  1
    792    790    799    808     1  0.0000000  0.0000000  3
    792    790    799    800     1  0.0000000  0.6508444  3
    792    790    799    801     1  0.0000000  0.6508444  3
    793    781    780    809     1  0.0000000  0.6508444  3
    794    793    805   1262     1  0.0000000  1.0460000  1
    794    793    805   1262     1  0.0000000  0.0000000  3
    794    793    805    806     1  0.0000000  0.6508444  3
    794    793    805    807     1  0.0000000  0.6508444  3
    795    793    805   1262     1  0.0000000  1.0460000  1
    795    793    805   1262     1  0.0000000  0.0000000  3
    795    793    805    806     1  0.0000000  0.6508444  3
    795    793    805    807     1  0.0000000  0.6508444  3
    796    784    780    809     1  0.0000000  0.6508444  3
    797    796    802   1248     1  0.0000000  1.0460000  1
    797    796    802   1248     1  0.0000000  0.0000000  3
    797    796    802    803     1  0.0000000  0.6508444  3
    797    796    802    804     1  0.0000000  0.6508444  3
    798    796    802   1248     1  0.0000000  1.0460000  1
    798    796    802   1248     1  0.0000000  0.0000000  3
    798    796    802    803     1  0.0000000  0.6508444  3
    798    796    802    804     1  0.0000000  0.6508444  3
    802   1248   1242   1243     1  0.0000000  1.6038667  3
    802   1248   1242   1244     1  0.0000000  1.6038667  3
    803    802   1248   1242     1  0.0000000  1.6038667  3
    804    802   1248   1242     1  0.0000000  1.6038667  3
    805   1262   1256   1257     1  0.0000000  1.6038667  3
    805   1262   1256   1258     1  0.0000000  1.6038667  3
    806    805   1262   1256     1  0.0000000  1.6038667  3
    807    805   1262   1256     1  0.0000000  1.6038667  3
    810    811    823    824     1  0.0000000  0.6508444  3
    810    811    823    825     1  0.0000000  0.6508444  3
    810    814    826    827     1  0.0000000  0.6508444  3
    810    814    826    828     1  0.0000000  0.6508444  3
    810    817    820    821     1  0.0000000  0.6508444  3
    810    817    820    822     1  0.0000000  0.6508444  3
    811    810    814    815     1  0.0000000  0.6508444  3
    811    810    814    816     1  0.0000000  0.6508444  3
    811    810    817    818     1  0.0000000  0.6508444  3
    811    810    817    819     1  0.0000000  0.6508444  3
    811    823    835    836     1  0.0000000  0.6508444  3
    811    823    835    837     1  0.0000000  0.6508444  3
    812    811    810    814     1  0.0000000  0.6508444  3
    812    811    810    817     1  0.0000000  0.6508444  3
    812    811    810    839     1  0.0000000  0.6508444  3
    812    811    823    835     1  0.0000000  0.6508444  3
    812    811    823    824     1  0.0000000  0.6508444  3
    812    811    823    825     1  0.0000000  0.6508444  3
    813    811    810    814     1  0.0000000  0.6508444  3
    813    811    810    817     1  0.0000000  0.6508444  3
    813    811    810    839     1  0.0000000  0.6508444  3
    813    811    823    835     1  0.0000000  0.6508444  3
    813    811    823    824     1  0.0000000  0.6508444  3
    813    811    823    825     1  0.0000000  0.6508444  3
    814    810    817    818     1  0.0000000  0.6508444  3
    814    810    817    819     1  0.0000000  0.6508444  3
    814    826    832    833     1  0.0000000  0.6508444  3
    814    826    832    834     1  0.0000000  0.6508444  3
    815    814    810    817     1  0.0000000  0.6508444  3
    815    814    810    839     1  0.0000000  0.6508444  3
    815    814    826    832     1  0.0000000  0.6508444  3
    815    814    826    827     1  0.0000000  0.6508444  3
    815    814    826    828     1  0.0000000  0.6508444  3
    816    814    810    817     1  0.0000000  0.6508444  3
    816    814    810    839     1  0.0000000  0.6508444  3
    816    814    826    832     1  0.0000000  0.6508444  3
    816    814    826    827     1  0.0000000  0.6508444  3
    816    814    826    828     1  0.0000000  0.6508444  3
    817    820    829    830     1  0.0000000  0.6508444  3
    817    820    829    831     1  0.0000000  0.6508444  3
    818    817    810    839     1  0.0000000  0.6508444  3
    818    817    820    829     1  0.0000000  0.6508444  3
    818    817    820    821     1  0.0000000  0.6508444  3
    818    817    820    822     1  0.0000000  0.6508444  3
    819    817    810    839     1  0.0000000  0.6508444  3
    819    817    820    829     1  0.0000000  0.6508444  3
    819    817    820    821     1  0.0000000  0.6508444  3
    819    817    820    822     1  0.0000000  0.6508444  3
    820    817    810    839     1  0.0000000  0.6508444  3
    821    820    829    838     1  0.0000000  1.0460000  1
    821    820    829    838     1  0.0000000  0.0000000  3
    821    820    829    830     1  0.0000000  0.6508444  3
    821    820    829    831     1  0.0000000  0.6508444  3
    822    820    829    838     1  0.0000000  1.0460000  1
    822    820    829    838     1  0.0000000  0.0000000  3
    822    820    829    830     1  0.0000000  0.6508444  3
    822    820    829    831     1  0.0000000  0.6508444  3
    823    811    810    839     1  0.0000000  0.6508444  3
    824    823    835   1290     1  0.0000000  1.0460000  1
    824    823    835   1290     1  0.0000000  0.0000000  3
    824    823    835    836     1  0.0000000  0.6508444  3
    824    823    835    837     1  0.0000000  0.6508444  3
    825    823    835   1290     1  0.0000000  1.0460000  1
    825    823    835   1290     1  0.0000000  0.0000000  3
    825    823    835    836     1  0.0000000  0.6508444  3
    825    823    835    837     1  0.0000000  0.6508444  3
    826    814    810    839     1  0.0000000  0.6508444  3
    827    826    832   1276     1  0.0000000  1.0460000  1
    827    826    832   1276     1  0.0000000  0.0000000  3
    827    826    832    833     1  0.0000000  0.6508444  3
    827    826    832    834     1  0.0000000  0.6508444  3
    828    826    832   1276     1  0.0000000  1.0460000  1
    828    826    832   1276     1  0.0000000  0.0000000  3
    828    826    832    833     1  0.0000000  0.6508444  3
    828    826    832    834     1  0.0000000  0.6508444  3
    832   1276   1270   1271     1  0.0000000  1.6038667  3
    832   1276   1270   1272     1  0.0000000  1.6038667  3
    833    832   1276   1270     1  0.0000000  1.6038667  3
    834    832   1276   1270     1  0.0000000  1.6038667  3
    835   1290   1284   1285     1  0.0000000  1.6038667  3
    835   1290   1284   1286     1  0.0000000  1.6038667  3
    836    835   1290   1284     1  0.0000000  1.6038667  3
    837    835   1290   1284     1  0.0000000  1.6038667  3
    840    841    853    854     1  0.0000000  0.6508444  3
    840    841    853    855     1  0.0000000  0.6508444  3
    840    844    856    857     1  0.0000000  0.6508444  3
    840    844    856    858     1  0.0000000  0.6508444  3
    840    847    850    851     1  0.0000000  0.6508444  3
    840    847    850    852     1  0.0000000  0.6508444  3
    841    840    844    845     1  0.0000000  0.6508444  3
    841    840    844    846     1  0.0000000  0.6508444  3
    841    840    847    848     1  0.0000000  0.6508444  3
    841    840    847    849     1  0.0000000  0.6508444  3
    841    853    865    866     1  0.0000000  0.6508444  3
    841    853    865    867     1  0.0000000  0.6508444  3
    842    841    840    844     1  0.0000000  0.6508444  3
    842    841    840    847     1  0.0000000  0.6508444  3
    842    841    840    869     1  0.0000000  0.6508444  3
    842    841    853    865     1  0.0000000  0.6508444  3
    842    841    853    854     1  0.0000000  0.6508444  3
    842    841    853    855     1  0.0000000  0.6508444  3
    843    841    840    844     1  0.0000000  0.6508444  3
    843    841    840    847     1  0.0000000  0.6508444  3
    843    841    840    869     1  0.0000000  0.6508444  3
    843    841    853    865     1  0.0000000  0.6508444  3
    843    841    853    854     1  0.0000000  0.6508444  3
    843    841    853    855     1  0.0000000  0.6508444  3
    844    840    847    848     1  0.0000000  0.6508444  3
    844    840    847    849     1  0.0000000  0.6508444  3
    844    856    862    863     1  0.0000000  0.6508444  3
    844    856    862    864     1  0.0000000  0.6508444  3
    845    844    840    847     1  0.0000000  0.6508444  3
    845    844    840    869     1  0.0000000  0.6508444  3
    845    844    856    862     1  0.0000000  0.6508444  3
    845    844    856    857     1  0.0000000  0.6508444  3
    845    844    856    858     1  0.0000000  0.6508444  3
    846    844    840    847     1  0.0000000  0.6508444  3
    846    844    840    869     1  0.0000000  0.6508444  3
    846    844    856    862     1  0.0000000  0.6508444  3
    846    844    856    857     1  0.0000000  0.6508444  3
    846    844    856    858     1  0.0000000  0.6508444  3
    847    850    859    860     1  0.0000000  0.6508444  3
    847    850    859    861     1  0.0000000  0.6508444  3
    848    847    840    869     1  0.0000000  0.6508444  3
    848    847    850    859     1  0.0000000  0.6508444  3
    848    847    850    851     1  0.0000000  0.6508444  3
    848    847    850    852     1  0.0000000  0.6508444  3
    849    847    840    869     1  0.0000000  0.6508444  3
    849    847    850    859     1  0.0000000  0.6508444  3
    849    847    850    851     1  0.0000000  0.6508444  3
    849    847    850    852     1  0.0000000  0.6508444  3
    850    847    840    869     1  0.0000000  0.6508444  3
    851    850    859    868     1  0.0000000  1.0460000  1
    851    850    859    868     1  0.0000000  0.0000000  3
    851    850    859    860     1  0.0000000  0.6508444  3
    851    850    859    861     1  0.0000000  0.6508444  3
    852    850    859    868     1  0.0000000  1.0460000  1
    852    850    859    868     1  0.0000000  0.0000000  3
    852    850    859    860     1  0.0000000  0.6508444  3
    852    850    859    861     1  0.0000000  0.6508444  3
    853    841    840    869     1  0.0000000  0.6508444  3
    854    853    865   1318     1  0.0000000  1.0460000  1
    854    853    865   1318     1  0.0000000  0.0000000  3
    854    853    865    866     1  0.0000000  0.6508444  3
    854    853    865    867     1  0.0000000  0.6508444  3
    855    853    865   1318     1  0.0000000  1.0460000  1
    855    853    865   1318     1  0.0000000  0.0000000  3
    855    853    865    866     1  0.0000000  0.6508444  3
    855    853    865    867     1  0.0000000  0.6508444  3
    856    844    840    869     1  0.0000000  0.6508444  3
    857    856    862   1304     1  0.0000000  1.0460000  1
    857    856    862   1304     1  0.0000000  0.0000000  3
    857    856    862    863     1  0.0000000  0.6508444  3
    857    856    862    864     1  0.0000000  0.6508444  3
    858    856    862   1304     1  0.0000000  1.0460000  1
    858    856    862   1304     1  0.0000000  0.0000000  3
    858    856    862    863     1  0.0000000  0.6508444  3
    858    856    862    864     1  0.0000000  0.6508444  3
    862   1304   1298   1299     1  0.0000000  1.6038667  3
    862   1304   1298   1300     1  0.0000000  1.6038667  3
    863    862   1304   1298     1  0.0000000  1.6038667  3
    864    862   1304   1298     1  0.0000000  1.6038667  3
    865   1318   1312   1313     1  0.0000000  1.6038667  3
    865   1318   1312   1314     1  0.0000000  1.6038667  3
    866    865   1318   1312     1  0.0000000  1.6038667  3
    867    865   1318   1312     1  0.0000000  1.6038667  3
    870    871    883    884     1  0.0000000  0.6508444  3
    870    871    883    885     1  0.0000000  0.6508444  3
    870    874    886    887     1  0.0000000  0.6508444  3
    870    874    886    888     1  0.0000000  0.6508444  3
    870    877    880    881     1  0.0000000  0.6508444  3
    870    877    880    882     1  0.0000000  0.6508444  3
    871    870    874    875     1  0.0000000  0.6508444  3
    871    870    874    876     1  0.0000000  0.6508444  3
    871    870    877    878     1  0.0000000  0.6508444  3
    871    870    877    879     1  0.0000000  0.6508444  3
    871    883    895    896     1  0.0000000  0.6508444  3
    871    883    895    897     1  0.0000000  0.6508444  3
    872    871    870    874     1  0.0000000  0.6508444  3
    872    871    870    877     1  0.0000000  0.6508444  3
    872    871    870    899     1  0.0000000  0.6508444  3
    872    871    883    895     1  0.0000000  0.6508444  3
    872    871    883    884     1  0.0000000  0.6508444  3
    872    871    883    885     1  0.0000000  0.6508444  3
    873    871    870    874     1  0.0000000  0.6508444  3
    873    871    870    877     1  0.0000000  0.6508444  3
    873    871    870    899     1  0.0000000  0.6508444  3
    873    871    883    895     1  0.0000000  0.6508444  3
    873    871    883    884     1  0.0000000  0.6508444  3
    873    871    883    885     1  0.0000000  0.6508444  3
    874    870    877    878     1  0.0000000  0.6508444  3
    874    870    877    879     1  0.0000000  0.6508444  3
    874    886    892    893     1  0.0000000  0.6508444  3
    874    886    892    894     1  0.0000000  0.6508444  3
    875    874    870    877     1  0.0000000  0.6508444  3
    875    874    870    899     1  0.0000000  0.6508444  3
    875    874    886    892     1  0.0000000  0.6508444  3
    875    874    886    887     1  0.0000000  0.6508444  3
    875    874    886    888     1  0.0000000  0.6508444  3
    876    874    870    877     1  0.0000000  0.6508444  3
    876    874    870    899     1  0.0000000  0.6508444  3
    876    874    886    892     1  0.0000000  0.6508444  3
    876    874    886    887     1  0.0000000  0.6508444  3
    876    874    886    888     1  0.0000000  0.6508444  3
    877    880    889    890     1  0.0000000  0.6508444  3
    877    880    889    891     1  0.0000000  0.6508444  3
    878    877    870    899     1  0.0000000  0.6508444  3
    878    877    880    889     1  0.0000000  0.6508444  3
    878    877    880    881     1  0.0000000  0.6508444  3
    878    877    880    882     1  0.0000000  0.6508444  3
    879    877    870    899     1  0.0000000  0.6508444  3
    879    877    880    889     1  0.0000000  0.6508444  3
    879    877    880    881     1  0.0000000  0.6508444  3
    879    877    880    882     1  0.0000000  0.6508444  3
    880    877    870    899     1  0.0000000  0.6508444  3
    881    880    889    898     1  0.0000000  1.0460000  1
    881    880    889    898     1  0.0000000  0.0000000  3
    881    880    889    890     1  0.0000000  0.6508444  3
    881    880    889    891     1  0.0000000  0.6508444  3
    882    880    889    898     1  0.0000000  1.0460000  1
    882    880    889    898     1  0.0000000  0.0000000  3
    882    880    889    890     1  0.0000000  0.6508444  3
    882    880    889    891     1  0.0000000  0.6508444  3
    883    871    870    899     1  0.0000000  0.6508444  3
    884    883    895   1346     1  0.0000000  1.0460000  1
    884    883    895   1346     1  0.0000000  0.0000000  3
    884    883    895    896     1  0.0000000  0.6508444  3
    884    883    895    897     1  0.0000000  0.6508444  3
    885    883    895   1346     1  0.0000000  1.0460000  1
    885    883    895   1346     1  0.0000000  0.0000000  3
    885    883    895    896     1  0.0000000  0.6508444  3
    885    883    895    897     1  0.0000000  0.6508444  3
    886    874    870    899     1  0.0000000  0.6508444  3
    887    886    892   1332     1  0.0000000  1.0460000  1
    887    886    892   1332     1  0.0000000  0.0000000  3
    887    886    892    893     1  0.0000000  0.6508444  3
    887    886    892    894     1  0.0000000  0.6508444  3
    888    886    892   1332     1  0.0000000  1.0460000  1
    888    886    892   1332     1  0.0000000  0.0000000  3
    888    886    892    893     1  0.0000000  0.6508444  3
    888    886    892    894     1  0.0000000  0.6508444  3
    892   1332   1326   1327     1  0.0000000  1.6038667  3
    892   1332   1326   1328     1  0.0000000  1.6038667  3
    893    892   1332   1326     1  0.0000000  1.6038667  3
    894    892   1332   1326     1  0.0000000  1.6038667  3
    895   1346   1340   1341     1  0.0000000  1.6038667  3
    895   1346   1340   1342     1  0.0000000  1.6038667  3
    896    895   1346   1340     1  0.0000000  1.6038667  3
    897    895   1346   1340     1  0.0000000  1.6038667  3
    900    903    906    907     1  0.0000000  0.6508444  3
    900    903    906    908     1  0.0000000  0.6508444  3
    901    900    903    906     1  0.0000000  0.6508444  3
    901    900    903    904     1  0.0000000  0.6508444  3
    901    900    903    905     1  0.0000000  0.6508444  3
    901    900    909    910     1  0.0000000  0.6508444  3
    901    900    909    911     1  0.0000000  0.6508444  3
    901    900    909    913     1  0.0000000  0.6508444  3
    902    900    903    906     1  0.0000000  0.6508444  3
    902    900    903    904     1  0.0000000  0.6508444  3
    902    900    903    905     1  0.0000000  0.6508444  3
    902    900    909    910     1  0.0000000  0.6508444  3
    902    900    909    911     1  0.0000000  0.6508444  3
    902    900    909    913     1  0.0000000  0.6508444  3
    903    900    909    910     1  0.0000000  0.6508444  3
    903    900    909    911     1  0.0000000  0.6508444  3
    903    900    909    913     1  0.0000000  0.6508444  3
    904    903    900    909     1  0.0000000  0.6508444  3
    904    903    906    912     1  0.0000000  1.0460000  1
    904    903    906    912     1  0.0000000  0.0000000  3
    904    903    906    907     1  0.0000000  0.6508444  3
    904    903    906    908     1  0.0000000  0.6508444  3
    905    903    900    909     1  0.0000000  0.6508444  3
    905    903    906    912     1  0.0000000  1.0460000  1
    905    903    906    912     1  0.0000000  0.0000000  3
    905    903    906    907     1  0.0000000  0.6508444  3
    905    903    906    908     1  0.0000000  0.6508444  3
    914    917    920    921     1  0.0000000  0.6508444  3
    914    917    920    922     1  0.0000000  0.6508444  3
    915    914    917    920     1  0.0000000  0.6508444  3
    915    914    917    918     1  0.0000000  0.6508444  3
    915    914    917    919     1  0.0000000  0.6508444  3
    915    914    923    924     1  0.0000000  0.6508444  3
    915    914    923    925     1  0.0000000  0.6508444  3
    915    914    923    927     1  0.0000000  0.6508444  3
    916    914    917    920     1  0.0000000  0.6508444  3
    916    914    917    918     1  0.0000000  0.6508444  3
    916    914    917    919     1  0.0000000  0.6508444  3
    916    914    923    924     1  0.0000000  0.6508444  3
    916    914    923    925     1  0.0000000  0.6508444  3
    916    914    923    927     1  0.0000000  0.6508444  3
    917    914    923    924     1  0.0000000  0.6508444  3
    917    914    923    925     1  0.0000000  0.6508444  3
    917    914    923    927     1  0.0000000  0.6508444  3
    918    917    920    926     1  0.0000000  1.0460000  1
    918    917    920    926     1  0.0000000  0.0000000  3
    918    917    920    921     1  0.0000000  0.6508444  3
    918    917    920    922     1  0.0000000  0.6508444  3
    918    917    914    923     1  0.0000000  0.6508444  3
    919    917    920    926     1  0.0000000  1.0460000  1
    919    917    920    926     1  0.0000000  0.0000000  3
    919    917    920    921     1  0.0000000  0.6508444  3
    919    917    920    922     1  0.0000000  0.6508444  3
    919    917    914    923     1  0.0000000  0.6508444  3
    928    931    934    935     1  0.0000000  0.6508444  3
    928    931    934    936     1  0.0000000  0.6508444  3
    929    928    931    934     1  0.0000000  0.6508444  3
    929    928    931    932     1  0.0000000  0.6508444  3
    929    928    931    933     1  0.0000000  0.6508444  3
    929    928    937    938     1  0.0000000  0.6508444  3
    929    928    937    939     1  0.0000000  0.6508444  3
    929    928    937    941     1  0.0000000  0.6508444  3
    930    928    931    934     1  0.0000000  0.6508444  3
    930    928    931    932     1  0.0000000  0.6508444  3
    930    928    931    933     1  0.0000000  0.6508444  3
    930    928    937    938     1  0.0000000  0.6508444  3
    930    928    937    939     1  0.0000000  0.6508444  3
    930    928    937    941     1  0.0000000  0.6508444  3
    931    928    937    938     1  0.0000000  0.6508444  3
    931    928    937    939     1  0.0000000  0.6508444  3
    931    928    937    941     1  0.0000000  0.6508444  3
    932    931    928    937     1  0.0000000  0.6508444  3
    932    931    934    940     1  0.0000000  1.0460000  1
    932    931    934    940     1  0.0000000  0.0000000  3
    932    931    934    935     1  0.0000000  0.6508444  3
    932    931    934    936     1  0.0000000  0.6508444  3
    933    931    928    937     1  0.0000000  0.6508444  3
    933    931    934    940     1  0.0000000  1.0460000  1
    933    931    934    940     1  0.0000000  0.0000000  3
    933    931    934    935     1  0.0000000  0.6508444  3
    933    931    934    936     1  0.0000000  0.6508444  3
    942    945    948    949     1  0.0000000  0.6508444  3
    942    945    948    950     1  0.0000000  0.6508444  3
    943    942    945    948     1  0.0000000  0.6508444  3
    943    942    945    946     1  0.0000000  0.6508444  3
    943    942    945    947     1  0.0000000  0.6508444  3
    943    942    951    952     1  0.0000000  0.6508444  3
    943    942    951    953     1  0.0000000  0.6508444  3
    943    942    951    955     1  0.0000000  0.6508444  3
    944    942    945    948     1  0.0000000  0.6508444  3
    944    942    945    946     1  0.0000000  0.6508444  3
    944    942    945    947     1  0.0000000  0.6508444  3
    944    942    951    952     1  0.0000000  0.6508444  3
    944    942    951    953     1  0.0000000  0.6508444  3
    944    942    951    955     1  0.0000000  0.6508444  3
    945    942    951    952     1  0.0000000  0.6508444  3
    945    942    951    953     1  0.0000000  0.6508444  3
    945    942    951    955     1  0.0000000  0.6508444  3
    946    945    948    954     1  0.0000000  1.0460000  1
    946    945    948    954     1  0.0000000  0.0000000  3
    946    945    948    949     1  0.0000000  0.6508444  3
    946    945    948    950     1  0.0000000  0.6508444  3
    946    945    942    951     1  0.0000000  0.6508444  3
    947    945    948    954     1  0.0000000  1.0460000  1
    947    945    948    954     1  0.0000000  0.0000000  3
    947    945    948    949     1  0.0000000  0.6508444  3
    947    945    948    950     1  0.0000000  0.6508444  3
    947    945    942    951     1  0.0000000  0.6508444  3
    956    959    962    963     1  0.0000000  0.6508444  3
    956    959    962    964     1  0.0000000  0.6508444  3
    957    956    959    962     1  0.0000000  0.6508444  3
    957    956    959    960     1  0.0000000  0.6508444  3
    957    956    959    961     1  0.0000000  0.6508444  3
    957    956    965    966     1  0.0000000  0.6508444  3
    957    956    965    967     1  0.0000000  0.6508444  3
    957    956    965    969     1  0.0000000  0.6508444  3
    958    956    959    962     1  0.0000000  0.6508444  3
    958    956    959    960     1  0.0000000  0.6508444  3
    958    956    959    961     1  0.0000000  0.6508444  3
    958    956    965    966     1  0.0000000  0.6508444  3
    958    956    965    967     1  0.0000000  0.6508444  3
    958    956    965    969     1  0.0000000  0.6508444  3
    959    956    965    966     1  0.0000000  0.6508444  3
    959    956    965    967     1  0.0000000  0.6508444  3
    959    956    965    969     1  0.0000000  0.6508444  3
    960    959    956    965     1  0.0000000  0.6508444  3
    960    959    962    968     1  0.0000000  1.0460000  1
    960    959    962    968     1  0.0000000  0.0000000  3
    960    959    962    963     1  0.0000000  0.6508444  3
    960    959    962    964     1  0.0000000  0.6508444  3
    961    959    956    965     1  0.0000000  0.6508444  3
    961    959    962    968     1  0.0000000  1.0460000  1
    961    959    962    968     1  0.0000000  0.0000000  3
    961    959    962    963     1  0.0000000  0.6508444  3
    961    959    962    964     1  0.0000000  0.6508444  3
    970    973    976    977     1  0.0000000  0.6508444  3
    970    973    976    978     1  0.0000000  0.6508444  3
    971    970    973    976     1  0.0000000  0.6508444  3
    971    970    973    974     1  0.0000000  0.6508444  3
    971    970    973    975     1  0.0000000  0.6508444  3
    971    970    979    980     1  0.0000000  0.6508444  3
    971    970    979    981     1  0.0000000  0.6508444  3
    971    970    979    983     1  0.0000000  0.6508444  3
    972    970    973    976     1  0.0000000  0.6508444  3
    972    970    973    974     1  0.0000000  0.6508444  3
    972    970    973    975     1  0.0000000  0.6508444  3
    972    970    979    980     1  0.0000000  0.6508444  3
    972    970    979    981     1  0.0000000  0.6508444  3
    972    970    979    983     1  0.0000000  0.6508444  3
    973    970    979    980     1  0.0000000  0.6508444  3
    973    970    979    981     1  0.0000000  0.6508444  3
    973    970    979    983     1  0.0000000  0.6508444  3
    974    973    976    982     1  0.0000000  1.0460000  1
    974    973    976    982     1  0.0000000  0.0000000  3
    974    973    976    977     1  0.0000000  0.6508444  3
    974    973    976    978     1  0.0000000  0.6508444  3
    974    973    970    979     1  0.0000000  0.6508444  3
    975    973    976    982     1  0.0000000  1.0460000  1
    975    973    976    982     1  0.0000000  0.0000000  3
    975    973    976    977     1  0.0000000  0.6508444  3
    975    973    976    978     1  0.0000000  0.6508444  3
    975    973    970    979     1  0.0000000  0.6508444  3
    984    987    990    991     1  0.0000000  0.6508444  3
    984    987    990    992     1  0.0000000  0.6508444  3
    985    984    987    990     1  0.0000000  0.6508444  3
    985    984    987    988     1  0.0000000  0.6508444  3
    985    984    987    989     1  0.0000000  0.6508444  3
    985    984    993    994     1  0.0000000  0.6508444  3
    985    984    993    995     1  0.0000000  0.6508444  3
    985    984    993    997     1  0.0000000  0.6508444  3
    986    984    987    990     1  0.0000000  0.6508444  3
    986    984    987    988     1  0.0000000  0.6508444  3
    986    984    987    989     1  0.0000000  0.6508444  3
    986    984    993    994     1  0.0000000  0.6508444  3
    986    984    993    995     1  0.0000000  0.6508444  3
    986    984    993    997     1  0.0000000  0.6508444  3
    987    984    993    994     1  0.0000000  0.6508444  3
    987    984    993    995     1  0.0000000  0.6508444  3
    987    984    993    997     1  0.0000000  0.6508444  3
    988    987    984    993     1  0.0000000  0.6508444  3
    988    987    990    996     1  0.0000000  1.0460000  1
    988    987    990    996     1  0.0000000  0.0000000  3
    988    987    990    991     1  0.0000000  0.6508444  3
    988    987    990    992     1  0.0000000  0.6508444  3
    989    987    984    993     1  0.0000000  0.6508444  3
    989    987    990    996     1  0.0000000  1.0460000  1
    989    987    990    996     1  0.0000000  0.0000000  3
    989    987    990    991     1  0.0000000  0.6508444  3
    989    987    990    992     1  0.0000000  0.6508444  3
    998   1001   1004   1005     1  0.0000000  0.6508444  3
    998   1001   1004   1006     1  0.0000000  0.6508444  3
    999    998   1001   1004     1  0.0000000  0.6508444  3
    999    998   1001   1002     1  0.0000000  0.6508444  3
    999    998   1001   1003     1  0.0000000  0.6508444  3
    999    998   1007   1008     1  0.0000000  0.6508444  3
    999    998   1007   1009     1  0.0000000  0.6508444  3
    999    998   1007   1011     1  0.0000000  0.6508444  3
   1000    998   1001   1004     1  0.0000000  0.6508444  3
   1000    998   1001   1002     1  0.0000000  0.6508444  3
   1000    998   1001   1003     1  0.0000000  0.6508444  3
   1000    998   1007   1008     1  0.0000000  0.6508444  3
   1000    998   1007   1009     1  0.0000000  0.6508444  3
   1000    998   1007   1011     1  0.0000000  0.6508444  3
   1001    998   1007   1008     1  0.0000000  0.6508444  3
   1001    998   1007   1009     1  0.0000000  0.6508444  3
   1001    998   1007   1011     1  0.0000000  0.6508444  3
   1002   1001   1004   1010     1  0.0000000  1.0460000  1
   1002   1001   1004   1010     1  0.0000000  0.0000000  3
   1002   1001   1004   1005     1  0.0000000  0.6508444  3
   1002   1001   1004   1006     1  0.0000000  0.6508444  3
   1002   1001    998   1007     1  0.0000000  0.6508444  3
   1003   1001   1004   1010     1  0.0000000  1.0460000  1
   1003   1001   1004   1010     1  0.0000000  0.0000000  3
   1003   1001   1004   1005     1  0.0000000  0.6508444  3
   1003   1001   1004   1006     1  0.0000000  0.6508444  3
   1003   1001    998   1007     1  0.0000000  0.6508444  3
   1012   1015   1018   1019     1  0.0000000  0.6508444  3
   1012   1015   1018   1020     1  0.0000000  0.6508444  3
   1013   1012   1015   1018     1  0.0000000  0.6508444  3
   1013   1012   1015   1016     1  0.0000000  0.6508444  3
   1013   1012   1015   1017     1  0.0000000  0.6508444  3
   1013   1012   1021   1022     1  0.0000000  0.6508444  3
   1013   1012   1021   1023     1  0.0000000  0.6508444  3
   1013   1012   1021   1025     1  0.0000000  0.6508444  3
   1014   1012   1015   1018     1  0.0000000  0.6508444  3
   1014   1012   1015   1016     1  0.0000000  0.6508444  3
   1014   1012   1015   1017     1  0.0000000  0.6508444  3
   1014   1012   1021   1022     1  0.0000000  0.6508444  3
   1014   1012   1021   1023     1  0.0000000  0.6508444  3
   1014   1012   1021   1025     1  0.0000000  0.6508444  3
   1015   1012   1021   1022     1  0.0000000  0.6508444  3
   1015   1012   1021   1023     1  0.0000000  0.6508444  3
   1015   1012   1021   1025     1  0.0000000  0.6508444  3
   1016   1015   1012   1021     1  0.0000000  0.6508444  3
   1016   1015   1018   1024     1  0.0000000  1.0460000  1
   1016   1015   1018   1024     1  0.0000000  0.0000000  3
   1016   1015   1018   1019     1  0.0000000  0.6508444  3
   1016   1015   1018   1020     1  0.0000000  0.6508444  3
   1017   1015   1012   1021     1  0.0000000  0.6508444  3
   1017   1015   1018   1024     1  0.0000000  1.0460000  1
   1017   1015   1018   1024     1  0.0000000  0.0000000  3
   1017   1015   1018   1019     1  0.0000000  0.6508444  3
   1017   1015   1018   1020     1  0.0000000  0.6508444  3
   1026   1029   1032   1033     1  0.0000000  0.6508444  3
   1026   1029   1032   1034     1  0.0000000  0.6508444  3
   1027   1026   1029   1032     1  0.0000000  0.6508444  3
   1027   1026   1029   1030     1  0.0000000  0.6508444  3
   1027   1026   1029   1031     1  0.0000000  0.6508444  3
   1027   1026   1035   1036     1  0.0000000  0.6508444  3
   1027   1026   1035   1037     1  0.0000000  0.6508444  3
   1027   1026   1035   1039     1  0.0000000  0.6508444  3
   1028   1026   1029   1032     1  0.0000000  0.6508444  3
   1028   1026   1029   1030     1  0.0000000  0.6508444  3
   1028   1026   1029   1031     1  0.0000000  0.6508444  3
   1028   1026   1035   1036     1  0.0000000  0.6508444  3
   1028   1026   1035   1037     1  0.0000000  0.6508444  3
   1028   1026   1035   1039     1  0.0000000  0.6508444  3
   1029   1026   1035   1036     1  0.0000000  0.6508444  3
   1029   1026   1035   1037     1  0.0000000  0.6508444  3
   1029   1026   1035   1039     1  0.0000000  0.6508444  3
   1030   1029   1032   1038     1  0.0000000  1.0460000  1
   1030   1029   1032   1038     1  0.0000000  0.0000000  3
   1030   1029   1032   1033     1  0.0000000  0.6508444  3
   1030   1029   1032   1034     1  0.0000000  0.6508444  3
   1030   1029   1026   1035     1  0.0000000  0.6508444  3
   1031   1029   1032   1038     1  0.0000000  1.0460000  1
   1031   1029   1032   1038     1  0.0000000  0.0000000  3
   1031   1029   1032   1033     1  0.0000000  0.6508444  3
   1031   1029   1032   1034     1  0.0000000  0.6508444  3
   1031   1029   1026   1035     1  0.0000000  0.6508444  3
   1040   1043   1046   1047     1  0.0000000  0.6508444  3
   1040   1043   1046   1048     1  0.0000000  0.6508444  3
   1041   1040   1043   1046     1  0.0000000  0.6508444  3
   1041   1040   1043   1044     1  0.0000000  0.6508444  3
   1041   1040   1043   1045     1  0.0000000  0.6508444  3
   1041   1040   1049   1050     1  0.0000000  0.6508444  3
   1041   1040   1049   1051     1  0.0000000  0.6508444  3
   1041   1040   1049   1053     1  0.0000000  0.6508444  3
   1042   1040   1043   1046     1  0.0000000  0.6508444  3
   1042   1040   1043   1044     1  0.0000000  0.6508444  3
   1042   1040   1043   1045     1  0.0000000  0.6508444  3
   1042   1040   1049   1050     1  0.0000000  0.6508444  3
   1042   1040   1049   1051     1  0.0000000  0.6508444  3
   1042   1040   1049   1053     1  0.0000000  0.6508444  3
   1043   1040   1049   1050     1  0.0000000  0.6508444  3
   1043   1040   1049   1051     1  0.0000000  0.6508444  3
   1043   1040   1049   1053     1  0.0000000  0.6508444  3
   1044   1043   1040   1049     1  0.0000000  0.6508444  3
   1044   1043   1046   1052     1  0.0000000  1.0460000  1
   1044   1043   1046   1052     1  0.0000000  0.0000000  3
   1044   1043   1046   1047     1  0.0000000  0.6508444  3
   1044   1043   1046   1048     1  0.0000000  0.6508444  3
   1045   1043   1040   1049     1  0.0000000  0.6508444  3
   1045   1043   1046   1052     1  0.0000000  1.0460000  1
   1045   1043   1046   1052     1  0.0000000  0.0000000  3
   1045   1043   1046   1047     1  0.0000000  0.6508444  3
   1045   1043   1046   1048     1  0.0000000  0.6508444  3
   1054   1057   1060   1061     1  0.0000000  0.6508444  3
   1054   1057   1060   1062     1  0.0000000  0.6508444  3
   1055   1054   1057   1060     1  0.0000000  0.6508444  3
   1055   1054   1057   1058     1  0.0000000  0.6508444  3
   1055   1054   1057   1059     1  0.0000000  0.6508444  3
   1055   1054   1063   1064     1  0.0000000  0.6508444  3
   1055   1054   1063   1065     1  0.0000000  0.6508444  3
   1055   1054   1063   1067     1  0.0000000  0.6508444  3
   1056   1054   1057   1060     1  0.0000000  0.6508444  3
   1056   1054   1057   1058     1  0.0000000  0.6508444  3
   1056   1054   1057   1059     1  0.0000000  0.6508444  3
   1056   1054   1063   1064     1  0.0000000  0.6508444  3
   1056   1054   1063   1065     1  0.0000000  0.6508444  3
   1056   1054   1063   1067     1  0.0000000  0.6508444  3
   1057   1054   1063   1064     1  0.0000000  0.6508444  3
   1057   1054   1063   1065     1  0.0000000  0.6508444  3
   1057   1054   1063   1067     1  0.0000000  0.6508444  3
   1058   1057   1060   1066     1  0.0000000  1.0460000  1
   1058   1057   1060   1066     1  0.0000000  0.0000000  3
   1058   1057   1060   1061     1  0.0000000  0.6508444  3
   1058   1057   1060   1062     1  0.0000000  0.6508444  3
   1058   1057   1054   1063     1  0.0000000  0.6508444  3
   1059   1057   1060   1066     1  0.0000000  1.0460000  1
   1059   1057   1060   1066     1  0.0000000  0.0000000  3
   1059   1057   1060   1061     1  0.0000000  0.6508444  3
   1059   1057   1060   1062     1  0.0000000  0.6508444  3
   1059   1057   1054   1063     1  0.0000000  0.6508444  3
   1068   1071   1074   1075     1  0.0000000  0.6508444  3
   1068   1071   1074   1076     1  0.0000000  0.6508444  3
   1069   1068   1071   1074     1  0.0000000  0.6508444  3
   1069   1068   1071   1072     1  0.0000000  0.6508444  3
   1069   1068   1071   1073     1  0.0000000  0.6508444  3
   1069   1068   1077   1078     1  0.0000000  0.6508444  3
   1069   1068   1077   1079     1  0.0000000  0.6508444  3
   1069   1068   1077   1081     1  0.0000000  0.6508444  3
   1070   1068   1071   1074     1  0.0000000  0.6508444  3
   1070   1068   1071   1072     1  0.0000000  0.6508444  3
   1070   1068   1071   1073     1  0.0000000  0.6508444  3
   1070   1068   1077   1078     1  0.0000000  0.6508444  3
   1070   1068   1077   1079     1  0.0000000  0.6508444  3
   1070   1068   1077   1081     1  0.0000000  0.6508444  3
   1071   1068   1077   1078     1  0.0000000  0.6508444  3
   1071   1068   1077   1079     1  0.0000000  0.6508444  3
   1071   1068   1077   1081     1  0.0000000  0.6508444  3
   1072   1071   1068   1077     1  0.0000000  0.6508444  3
   1072   1071   1074   1080     1  0.0000000  1.0460000  1
   1072   1071   1074   1080     1  0.0000000  0.0000000  3
   1072   1071   1074   1075     1  0.0000000  0.6508444  3
   1072   1071   1074   1076     1  0.0000000  0.6508444  3
   1073   1071   1068   1077     1  0.0000000  0.6508444  3
   1073   1071   1074   1080     1  0.0000000  1.0460000  1
   1073   1071   1074   1080     1  0.0000000  0.0000000  3
   1073   1071   1074   1075     1  0.0000000  0.6508444  3
   1073   1071   1074   1076     1  0.0000000  0.6508444  3
   1082   1085   1088   1089     1  0.0000000  0.6508444  3
   1082   1085   1088   1090     1  0.0000000  0.6508444  3
   1083   1082   1085   1088     1  0.0000000  0.6508444  3
   1083   1082   1085   1086     1  0.0000000  0.6508444  3
   1083   1082   1085   1087     1  0.0000000  0.6508444  3
   1083   1082   1091   1092     1  0.0000000  0.6508444  3
   1083   1082   1091   1093     1  0.0000000  0.6508444  3
   1083   1082   1091   1095     1  0.0000000  0.6508444  3
   1084   1082   1085   1088     1  0.0000000  0.6508444  3
   1084   1082   1085   1086     1  0.0000000  0.6508444  3
   1084   1082   1085   1087     1  0.0000000  0.6508444  3
   1084   1082   1091   1092     1  0.0000000  0.6508444  3
   1084   1082   1091   1093     1  0.0000000  0.6508444  3
   1084   1082   1091   1095     1  0.0000000  0.6508444  3
   1085   1082   1091   1092     1  0.0000000  0.6508444  3
   1085   1082   1091   1093     1  0.0000000  0.6508444  3
   1085   1082   1091   1095     1  0.0000000  0.6508444  3
   1086   1085   1088   1094     1  0.0000000  1.0460000  1
   1086   1085   1088   1094     1  0.0000000  0.0000000  3
   1086   1085   1088   1089     1  0.0000000  0.6508444  3
   1086   1085   1088   1090     1  0.0000000  0.6508444  3
   1086   1085   1082   1091     1  0.0000000  0.6508444  3
   1087   1085   1088   1094     1  0.0000000  1.0460000  1
   1087   1085   1088   1094     1  0.0000000  0.0000000  3
   1087   1085   1088   1089     1  0.0000000  0.6508444  3
   1087   1085   1088   1090     1  0.0000000  0.6508444  3
   1087   1085   1082   1091     1  0.0000000  0.6508444  3
   1096   1099   1102   1103     1  0.0000000  0.6508444  3
   1096   1099   1102   1104     1  0.0000000  0.6508444  3
   1097   1096   1099   1102     1  0.0000000  0.6508444  3
   1097   1096   1099   1100     1  0.0000000  0.6508444  3
   1097   1096   1099   1101     1  0.0000000  0.6508444  3
   1097   1096   1105   1106     1  0.0000000  0.6508444  3
   1097   1096   1105   1107     1  0.0000000  0.6508444  3
   1097   1096   1105   1109     1  0.0000000  0.6508444  3
   1098   1096   1099   1102     1  0.0000000  0.6508444  3
   1098   1096   1099   1100     1  0.0000000  0.6508444  3
   1098   1096   1099   1101     1  0.0000000  0.6508444  3
   1098   1096   1105   1106     1  0.0000000  0.6508444  3
   1098   1096   1105   1107     1  0.0000000  0.6508444  3
   1098   1096   1105   1109     1  0.0000000  0.6508444  3
   1099   1096   1105   1106     1  0.0000000  0.6508444  3
   1099   1096   1105   1107     1  0.0000000  0.6508444  3
   1099   1096   1105   1109     1  0.0000000  0.6508444  3
   1100   1099   1096   1105     1  0.0000000  0.6508444  3
   1100   1099   1102   1108     1  0.0000000  1.0460000  1
   1100   1099   1102   1108     1  0.0000000  0.0000000  3
   1100   1099   1102   1103     1  0.0000000  0.6508444  3
   1100   1099   1102   1104     1  0.0000000  0.6508444  3
   1101   1099   1096   1105     1  0.0000000  0.6508444  3
   1101   1099   1102   1108     1  0.0000000  1.0460000  1
   1101   1099   1102   1108     1  0.0000000  0.0000000  3
   1101   1099   1102   1103     1  0.0000000  0.6508444  3
   1101   1099   1102   1104     1  0.0000000  0.6508444  3
   1110   1113   1116   1117     1  0.0000000  0.6508444  3
   1110   1113   1116   1118     1  0.0000000  0.6508444  3
   1111   1110   1113   1116     1  0.0000000  0.6508444  3
   1111   1110   1113   1114     1  0.0000000  0.6508444  3
   1111   1110   1113   1115     1  0.0000000  0.6508444  3
   1111   1110   1119   1120     1  0.0000000  0.6508444  3
   1111   1110   1119   1121     1  0.0000000  0.6508444  3
   1111   1110   1119   1123     1  0.0000000  0.6508444  3
   1112   1110   1113   1116     1  0.0000000  0.6508444  3
   1112   1110   1113   1114     1  0.0000000  0.6508444  3
   1112   1110   1113   1115     1  0.0000000  0.6508444  3
   1112   1110   1119   1120     1  0.0000000  0.6508444  3
   1112   1110   1119   1121     1  0.0000000  0.6508444  3
   1112   1110   1119   1123     1  0.0000000  0.6508444  3
   1113   1110   1119   1120     1  0.0000000  0.6508444  3
   1113   1110   1119   1121     1  0.0000000  0.6508444  3
   1113   1110   1119   1123     1  0.0000000  0.6508444  3
   1114   1113   1116   1122     1  0.0000000  1.0460000  1
   1114   1113   1116   1122     1  0.0000000  0.0000000  3
   1114   1113   1116   1117     1  0.0000000  0.6508444  3
   1114   1113   1116   1118     1  0.0000000  0.6508444  3
   1114   1113   1110   1119     1  0.0000000  0.6508444  3
   1115   1113   1116   1122     1  0.0000000  1.0460000  1
   1115   1113   1116   1122     1  0.0000000  0.0000000  3
   1115   1113   1116   1117     1  0.0000000  0.6508444  3
   1115   1113   1116   1118     1  0.0000000  0.6508444  3
   1115   1113   1110   1119     1  0.0000000  0.6508444  3
   1124   1127   1130   1131     1  0.0000000  0.6508444  3
   1124   1127   1130   1132     1  0.0000000  0.6508444  3
   1125   1124   1127   1130     1  0.0000000  0.6508444  3
   1125   1124   1127   1128     1  0.0000000  0.6508444  3
   1125   1124   1127   1129     1  0.0000000  0.6508444  3
   1125   1124   1133   1134     1  0.0000000  0.6508444  3
   1125   1124   1133   1135     1  0.0000000  0.6508444  3
   1125   1124   1133   1137     1  0.0000000  0.6508444  3
   1126   1124   1127   1130     1  0.0000000  0.6508444  3
   1126   1124   1127   1128     1  0.0000000  0.6508444  3
   1126   1124   1127   1129     1  0.0000000  0.6508444  3
   1126   1124   1133   1134     1  0.0000000  0.6508444  3
   1126   1124   1133   1135     1  0.0000000  0.6508444  3
   1126   1124   1133   1137     1  0.0000000  0.6508444  3
   1127   1124   1133   1134     1  0.0000000  0.6508444  3
   1127   1124   1133   1135     1  0.0000000  0.6508444  3
   1127   1124   1133   1137     1  0.0000000  0.6508444  3
   1128   1127   1124   1133     1  0.0000000  0.6508444  3
   1128   1127   1130   1136     1  0.0000000  1.0460000  1
   1128   1127   1130   1136     1  0.0000000  0.0000000  3
   1128   1127   1130   1131     1  0.0000000  0.6508444  3
   1128   1127   1130   1132     1  0.0000000  0.6508444  3
   1129   1127   1124   1133     1  0.0000000  0.6508444  3
   1129   1127   1130   1136     1  0.0000000  1.0460000  1
   1129   1127   1130   1136     1  0.0000000  0.0000000  3
   1129   1127   1130   1131     1  0.0000000  0.6508444  3
   1129   1127   1130   1132     1  0.0000000  0.6508444  3
   1138   1141   1144   1145     1  0.0000000  0.6508444  3
   1138   1141   1144   1146     1  0.0000000  0.6508444  3
   1139   1138   1141   1144     1  0.0000000  0.6508444  3
   1139   1138   1141   1142     1  0.0000000  0.6508444  3
   1139   1138   1141   1143     1  0.0000000  0.6508444  3
   1139   1138   1147   1148     1  0.0000000  0.6508444  3
   1139   1138   1147   1149     1  0.0000000  0.6508444  3
   1139   1138   1147   1151     1  0.0000000  0.6508444  3
   1140   1138   1141   1144     1  0.0000000  0.6508444  3
   1140   1138   1141   1142     1  0.0000000  0.6508444  3
   1140   1138   1141   1143     1  0.0000000  0.6508444  3
   1140   1138   1147   1148     1  0.0000000  0.6508444  3
   1140   1138   1147   1149     1  0.0000000  0.6508444  3
   1140   1138   1147   1151     1  0.0000000  0.6508444  3
   1141   1138   1147   1148     1  0.0000000  0.6508444  3
   1141   1138   1147   1149     1  0.0000000  0.6508444  3
   1141   1138   1147   1151     1  0.0000000  0.6508444  3
   1142   1141   1144   1150     1  0.0000000  1.0460000  1
   1142   1141   1144   1150     1  0.0000000  0.0000000  3
   1142   1141   1144   1145     1  0.0000000  0.6508444  3
   1142   1141   1144   1146     1  0.0000000  0.6508444  3
   1142   1141   1138   1147     1  0.0000000  0.6508444  3
   1143   1141   1144   1150     1  0.0000000  1.0460000  1
   1143   1141   1144   1150     1  0.0000000  0.0000000  3
   1143   1141   1144   1145     1  0.0000000  0.6508444  3
   1143   1141   1144   1146     1  0.0000000  0.6508444  3
   1143   1141   1138   1147     1  0.0000000  0.6508444  3
   1152   1155   1158   1159     1  0.0000000  0.6508444  3
   1152   1155   1158   1160     1  0.0000000  0.6508444  3
   1153   1152   1155   1158     1  0.0000000  0.6508444  3
   1153   1152   1155   1156     1  0.0000000  0.6508444  3
   1153   1152   1155   1157     1  0.0000000  0.6508444  3
   1153   1152   1161   1162     1  0.0000000  0.6508444  3
   1153   1152   1161   1163     1  0.0000000  0.6508444  3
   1153   1152   1161   1165     1  0.0000000  0.6508444  3
   1154   1152   1155   1158     1  0.0000000  0.6508444  3
   1154   1152   1155   1156     1  0.0000000  0.6508444  3
   1154   1152   1155   1157     1  0.0000000  0.6508444  3
   1154   1152   1161   1162     1  0.0000000  0.6508444  3
   1154   1152   1161   1163     1  0.0000000  0.6508444  3
   1154   1152   1161   1165     1  0.0000000  0.6508444  3
   1155   1152   1161   1162     1  0.0000000  0.6508444  3
   1155   1152   1161   1163     1  0.0000000  0.6508444  3
   1155   1152   1161   1165     1  0.0000000  0.6508444  3
   1156   1155   1152   1161     1  0.0000000  0.6508444  3
   1156   1155   1158   1164     1  0.0000000  1.0460000  1
   1156   1155   1158   1164     1  0.0000000  0.0000000  3
   1156   1155   1158   1159     1  0.0000000  0.6508444  3
   1156   1155   1158   1160     1  0.0000000  0.6508444  3
   1157   1155   1152   1161     1  0.0000000  0.6508444  3
   1157   1155   1158   1164     1  0.0000000  1.0460000  1
   1157   1155   1158   1164     1  0.0000000  0.0000000  3
   1157   1155   1158   1159     1  0.0000000  0.6508444  3
   1157   1155   1158   1160     1  0.0000000  0.6508444  3
   1166   1169   1172   1173     1  0.0000000  0.6508444  3
   1166   1169   1172   1174     1  0.0000000  0.6508444  3
   1167   1166   1169   1172     1  0.0000000  0.6508444  3
   1167   1166   1169   1170     1  0.0000000  0.6508444  3
   1167   1166   1169   1171     1  0.0000000  0.6508444  3
   1167   1166   1175   1176     1  0.0000000  0.6508444  3
   1167   1166   1175   1177     1  0.0000000  0.6508444  3
   1167   1166   1175   1179     1  0.0000000  0.6508444  3
   1168   1166   1169   1172     1  0.0000000  0.6508444  3
   1168   1166   1169   1170     1  0.0000000  0.6508444  3
   1168   1166   1169   1171     1  0.0000000  0.6508444  3
   1168   1166   1175   1176     1  0.0000000  0.6508444  3
   1168   1166   1175   1177     1  0.0000000  0.6508444  3
   1168   1166   1175   1179     1  0.0000000  0.6508444  3
   1169   1166   1175   1176     1  0.0000000  0.6508444  3
   1169   1166   1175   1177     1  0.0000000  0.6508444  3
   1169   1166   1175   1179     1  0.0000000  0.6508444  3
   1170   1169   1172   1178     1  0.0000000  1.0460000  1
   1170   1169   1172   1178     1  0.0000000  0.0000000  3
   1170   1169   1172   1173     1  0.0000000  0.6508444  3
   1170   1169   1172   1174     1  0.0000000  0.6508444  3
   1170   1169   1166   1175     1  0.0000000  0.6508444  3
   1171   1169   1172   1178     1  0.0000000  1.0460000  1
   1171   1169   1172   1178     1  0.0000000  0.0000000  3
   1171   1169   1172   1173     1  0.0000000  0.6508444  3
   1171   1169   1172   1174     1  0.0000000  0.6508444  3
   1171   1169   1166   1175     1  0.0000000  0.6508444  3
   1180   1183   1186   1187     1  0.0000000  0.6508444  3
   1180   1183   1186   1188     1  0.0000000  0.6508444  3
   1181   1180   1183   1186     1  0.0000000  0.6508444  3
   1181   1180   1183   1184     1  0.0000000  0.6508444  3
   1181   1180   1183   1185     1  0.0000000  0.6508444  3
   1181   1180   1189   1190     1  0.0000000  0.6508444  3
   1181   1180   1189   1191     1  0.0000000  0.6508444  3
   1181   1180   1189   1193     1  0.0000000  0.6508444  3
   1182   1180   1183   1186     1  0.0000000  0.6508444  3
   1182   1180   1183   1184     1  0.0000000  0.6508444  3
   1182   1180   1183   1185     1  0.0000000  0.6508444  3
   1182   1180   1189   1190     1  0.0000000  0.6508444  3
   1182   1180   1189   1191     1  0.0000000  0.6508444  3
   1182   1180   1189   1193     1  0.0000000  0.6508444  3
   1183   1180   1189   1190     1  0.0000000  0.6508444  3
   1183   1180   1189   1191     1  0.0000000  0.6508444  3
   1183   1180   1189   1193     1  0.0000000  0.6508444  3
   1184   1183   1180   1189     1  0.0000000  0.6508444  3
   1184   1183   1186   1192     1  0.0000000  1.0460000  1
   1184   1183   1186   1192     1  0.0000000  0.0000000  3
   1184   1183   1186   1187     1  0.0000000  0.6508444  3
   1184   1183   1186   1188     1  0.0000000  0.6508444  3
   1185   1183   1180   1189     1  0.0000000  0.6508444  3
   1185   1183   1186   1192     1  0.0000000  1.0460000  1
   1185   1183   1186   1192     1  0.0000000  0.0000000  3
   1185   1183   1186   1187     1  0.0000000  0.6508444  3
   1185   1183   1186   1188     1  0.0000000  0.6508444  3
   1194   1197   1200   1201     1  0.0000000  0.6508444  3
   1194   1197   1200   1202     1  0.0000000  0.6508444  3
   1195   1194   1197   1200     1  0.0000000  0.6508444  3
   1195   1194   1197   1198     1  0.0000000  0.6508444  3
   1195   1194   1197   1199     1  0.0000000  0.6508444  3
   1195   1194   1203   1204     1  0.0000000  0.6508444  3
   1195   1194   1203   1205     1  0.0000000  0.6508444  3
   1195   1194   1203   1207     1  0.0000000  0.6508444  3
   1196   1194   1197   1200     1  0.0000000  0.6508444  3
   1196   1194   1197   1198     1  0.0000000  0.6508444  3
   1196   1194   1197   1199     1  0.0000000  0.6508444  3
   1196   1194   1203   1204     1  0.0000000  0.6508444  3
   1196   1194   1203   1205     1  0.0000000  0.6508444  3
   1196   1194   1203   1207     1  0.0000000  0.6508444  3
   1197   1194   1203   1204     1  0.0000000  0.6508444  3
   1197   1194   1203   1205     1  0.0000000  0.6508444  3
   1197   1194   1203   1207     1  0.0000000  0.6508444  3
   1198   1197   1200   1206     1  0.0000000  1.0460000  1
   1198   1197   1200   1206     1  0.0000000  0.0000000  3
   1198   1197   1200   1201     1  0.0000000  0.6508444  3
   1198   1197   1200   1202     1  0.0000000  0.6508444  3
   1198   1197   1194   1203     1  0.0000000  0.6508444  3
   1199   1197   1200   1206     1  0.0000000  1.0460000  1
   1199   1197   1200   1206     1  0.0000000  0.0000000  3
   1199   1197   1200   1201     1  0.0000000  0.6508444  3
   1199   1197   1200   1202     1  0.0000000  0.6508444  3
   1199   1197   1194   1203     1  0.0000000  0.6508444  3
   1208   1211   1214   1215     1  0.0000000  0.6508444  3
   1208   1211   1214   1216     1  0.0000000  0.6508444  3
   1209   1208   1211   1214     1  0.0000000  0.6508444  3
   1209   1208   1211   1212     1  0.0000000  0.6508444  3
   1209   1208   1211   1213     1  0.0000000  0.6508444  3
   1209   1208   1217   1218     1  0.0000000  0.6508444  3
   1209   1208   1217   1219     1  0.0000000  0.6508444  3
   1209   1208   1217   1221     1  0.0000000  0.6508444  3
   1210   1208   1211   1214     1  0.0000000  0.6508444  3
   1210   1208   1211   1212     1  0.0000000  0.6508444  3
   1210   1208   1211   1213     1  0.0000000  0.6508444  3
   1210   1208   1217   1218     1  0.0000000  0.6508444  3
   1210   1208   1217   1219     1  0.0000000  0.6508444  3
   1210   1208   1217   1221     1  0.0000000  0.6508444  3
   1211   1208   1217   1218     1  0.0000000  0.6508444  3
   1211   1208   1217   1219     1  0.0000000  0.6508444  3
   1211   1208   1217   1221     1  0.0000000  0.6508444  3
   1212   1211   1208   1217     1  0.0000000  0.6508444  3
   1212   1211   1214   1220     1  0.0000000  1.0460000  1
   1212   1211   1214   1220     1  0.0000000  0.0000000  3
   1212   1211   1214   1215     1  0.0000000  0.6508444  3
   1212   1211   1214   1216     1  0.0000000  0.6508444  3
   1213   1211   1208   1217     1  0.0000000  0.6508444  3
   1213   1211   1214   1220     1  0.0000000  1.0460000  1
   1213   1211   1214   1220     1  0.0000000  0.0000000  3
   1213   1211   1214   1215     1  0.0000000  0.6508444  3
   1213   1211   1214   1216     1  0.0000000  0.6508444  3
   1222   1225   1228   1229     1  0.0000000  0.6508444  3
   1222   1225   1228   1230     1  0.0000000  0.6508444  3
   1223   1222   1225   1228     1  0.0000000  0.6508444  3
   1223   1222   1225   1226     1  0.0000000  0.6508444  3
   1223   1222   1225   1227     1  0.0000000  0.6508444  3
   1223   1222   1231   1232     1  0.0000000  0.6508444  3
   1223   1222   1231   1233     1  0.0000000  0.6508444  3
   1223   1222   1231   1235     1  0.0000000  0.6508444  3
   1224   1222   1225   1228     1  0.0000000  0.6508444  3
   1224   1222   1225   1226     1  0.0000000  0.6508444  3
   1224   1222   1225   1227     1  0.0000000  0.6508444  3
   1224   1222   1231   1232     1  0.0000000  0.6508444  3
   1224   1222   1231   1233     1  0.0000000  0.6508444  3
   1224   1222   1231   1235     1  0.0000000  0.6508444  3
   1225   1222   1231   1232     1  0.0000000  0.6508444  3
   1225   1222   1231   1233     1  0.0000000  0.6508444  3
   1225   1222   1231   1235     1  0.0000000  0.6508444  3
   1226   1225   1228   1234     1  0.0000000  1.0460000  1
   1226   1225   1228   1234     1  0.0000000  0.0000000  3
   1226   1225   1228   1229     1  0.0000000  0.6508444  3
   1226   1225   1228   1230     1  0.0000000  0.6508444  3
   1226   1225   1222   1231     1  0.0000000  0.6508444  3
   1227   1225   1228   1234     1  0.0000000  1.0460000  1
   1227   1225   1228   1234     1  0.0000000  0.0000000  3
   1227   1225   1228   1229     1  0.0000000  0.6508444  3
   1227   1225   1228   1230     1  0.0000000  0.6508444  3
   1227   1225   1222   1231     1  0.0000000  0.6508444  3
   1236   1239   1242   1243     1  0.0000000  0.6508444  3
   1236   1239   1242   1244     1  0.0000000  0.6508444  3
   1237   1236   1239   1242     1  0.0000000  0.6508444  3
   1237   1236   1239   1240     1  0.0000000  0.6508444  3
   1237   1236   1239   1241     1  0.0000000  0.6508444  3
   1237   1236   1245   1246     1  0.0000000  0.6508444  3
   1237   1236   1245   1247     1  0.0000000  0.6508444  3
   1237   1236   1245   1249     1  0.0000000  0.6508444  3
   1238   1236   1239   1242     1  0.0000000  0.6508444  3
   1238   1236   1239   1240     1  0.0000000  0.6508444  3
   1238   1236   1239   1241     1  0.0000000  0.6508444  3
   1238   1236   1245   1246     1  0.0000000  0.6508444  3
   1238   1236   1245   1247     1  0.0000000  0.6508444  3
   1238   1236   1245   1249     1  0.0000000  0.6508444  3
   1239   1236   1245   1246     1  0.0000000  0.6508444  3
   1239   1236   1245   1247     1  0.0000000  0.6508444  3
   1239   1236   1245   1249     1  0.0000000  0.6508444  3
   1240   1239   1236   1245     1  0.0000000  0.6508444  3
   1240   1239   1242   1248     1  0.0000000  1.0460000  1
   1240   1239   1242   1248     1  0.0000000  0.0000000  3
   1240   1239   1242   1243     1  0.0000000  0.6508444  3
   1240   1239   1242   1244     1  0.0000000  0.6508444  3
   1241   1239   1236   1245     1  0.0000000  0.6508444  3
   1241   1239   1242   1248     1  0.0000000  1.0460000  1
   1241   1239   1242   1248     1  0.0000000  0.0000000  3
   1241   1239   1242   1243     1  0.0000000  0.6508444  3
   1241   1239   1242   1244     1  0.0000000  0.6508444  3
   1250   1253   1256   1257     1  0.0000000  0.6508444  3
   1250   1253   1256   1258     1  0.0000000  0.6508444  3
   1251   1250   1253   1256     1  0.0000000  0.6508444  3
   1251   1250   1253   1254     1  0.0000000  0.6508444  3
   1251   1250   1253   1255     1  0.0000000  0.6508444  3
   1251   1250   1259   1260     1  0.0000000  0.6508444  3
   1251   1250   1259   1261     1  0.0000000  0.6508444  3
   1251   1250   1259   1263     1  0.0000000  0.6508444  3
   1252   1250   1253   1256     1  0.0000000  0.6508444  3
   1252   1250   1253   1254     1  0.0000000  0.6508444  3
   1252   1250   1253   1255     1  0.0000000  0.6508444  3
   1252   1250   1259   1260     1  0.0000000  0.6508444  3
   1252   1250   1259   1261     1  0.0000000  0.6508444  3
   1252   1250   1259   1263     1  0.0000000  0.6508444  3
   1253   1250   1259   1260     1  0.0000000  0.6508444  3
   1253   1250   1259   1261     1  0.0000000  0.6508444  3
   1253   1250   1259   1263     1  0.0000000  0.6508444  3
   1254   1253   1256   1262     1  0.0000000  1.0460000  1
   1254   1253   1256   1262     1  0.0000000  0.0000000  3
   1254   1253   1256   1257     1  0.0000000  0.6508444  3
   1254   1253   1256   1258     1  0.0000000  0.6508444  3
   1254   1253   1250   1259     1  0.0000000  0.6508444  3
   1255   1253   1256   1262     1  0.0000000  1.0460000  1
   1255   1253   1256   1262     1  0.0000000  0.0000000  3
   1255   1253   1256   1257     1  0.0000000  0.6508444  3
   1255   1253   1256   1258     1  0.0000000  0.6508444  3
   1255   1253   1250   1259     1  0.0000000  0.6508444  3
   1264   1267   1270   1271     1  0.0000000  0.6508444  3
   1264   1267   1270   1272     1  0.0000000  0.6508444  3
   1265   1264   1267   1270     1  0.0000000  0.6508444  3
   1265   1264   1267   1268     1  0.0000000  0.6508444  3
   1265   1264   1267   1269     1  0.0000000  0.6508444  3
   1265   1264   1273   1274     1  0.0000000  0.6508444  3
   1265   1264   1273   1275     1  0.0000000  0.6508444  3
   1265   1264   1273   1277     1  0.0000000  0.6508444  3
   1266   1264   1267   1270     1  0.0000000  0.6508444  3
   1266   1264   1267   1268     1  0.0000000  0.6508444  3
   1266   1264   1267   1269     1  0.0000000  0.6508444  3
   1266   1264   1273   1274     1  0.0000000  0.6508444  3
   1266   1264   1273   1275     1  0.0000000  0.6508444  3
   1266   1264   1273   1277     1  0.0000000  0.6508444  3
   1267   1264   1273   1274     1  0.0000000  0.6508444  3
   1267   1264   1273   1275     1  0.0000000  0.6508444  3
   1267   1264   1273   1277     1  0.0000000  0.6508444  3
   1268   1267   1264   1273     1  0.0000000  0.6508444  3
   1268   1267   1270   1276     1  0.0000000  1.0460000  1
   1268   1267   1270   1276     1  0.0000000  0.0000000  3
   1268   1267   1270   1271     1  0.0000000  0.6508444  3
   1268   1267   1270   1272     1  0.0000000  0.6508444  3
   1269   1267   1264   1273     1  0.0000000  0.6508444  3
   1269   1267   1270   1276     1  0.0000000  1.0460000  1
   1269   1267   1270   1276     1  0.0000000  0.0000000  3
   1269   1267   1270   1271     1  0.0000000  0.6508444  3
   1269   1267   1270   1272     1  0.0000000  0.6508444  3
   1278   1281   1284   1285     1  0.0000000  0.6508444  3
   1278   1281   1284   1286     1  0.0000000  0.6508444  3
   1279   1278   1281   1284     1  0.0000000  0.6508444  3
   1279   1278   1281   1282     1  0.0000000  0.6508444  3
   1279   1278   1281   1283     1  0.0000000  0.6508444  3
   1279   1278   1287   1288     1  0.0000000  0.6508444  3
   1279   1278   1287   1289     1  0.0000000  0.6508444  3
   1279   1278   1287   1291     1  0.0000000  0.6508444  3
   1280   1278   1281   1284     1  0.0000000  0.6508444  3
   1280   1278   1281   1282     1  0.0000000  0.6508444  3
   1280   1278   1281   1283     1  0.0000000  0.6508444  3
   1280   1278   1287   1288     1  0.0000000  0.6508444  3
   1280   1278   1287   1289     1  0.0000000  0.6508444  3
   1280   1278   1287   1291     1  0.0000000  0.6508444  3
   1281   1278   1287   1288     1  0.0000000  0.6508444  3
   1281   1278   1287   1289     1  0.0000000  0.6508444  3
   1281   1278   1287   1291     1  0.0000000  0.6508444  3
   1282   1281   1284   1290     1  0.0000000  1.0460000  1
   1282   1281   1284   1290     1  0.0000000  0.0000000  3
   1282   1281   1284   1285     1  0.0000000  0.6508444  3
   1282   1281   1284   1286     1  0.0000000  0.6508444  3
   1282   1281   1278   1287     1  0.0000000  0.6508444  3
   1283   1281   1284   1290     1  0.0000000  1.0460000  1
   1283   1281   1284   1290     1  0.0000000  0.0000000  3
   1283   1281   1284   1285     1  0.0000000  0.6508444  3
   1283   1281   1284   1286     1  0.0000000  0.6508444  3
   1283   1281   1278   1287     1  0.0000000  0.6508444  3
   1292   1295   1298   1299     1  0.0000000  0.6508444  3
   1292   1295   1298   1300     1  0.0000000  0.6508444  3
   1293   1292   1295   1298     1  0.0000000  0.6508444  3
   1293   1292   1295   1296     1  0.0000000  0.6508444  3
   1293   1292   1295   1297     1  0.0000000  0.6508444  3
   1293   1292   1301   1302     1  0.0000000  0.6508444  3
   1293   1292   1301   1303     1  0.0000000  0.6508444  3
   1293   1292   1301   1305     1  0.0000000  0.6508444  3
   1294   1292   1295   1298     1  0.0000000  0.6508444  3
   1294   1292   1295   1296     1  0.0000000  0.6508444  3
   1294   1292   1295   1297     1  0.0000000  0.6508444  3
   1294   1292   1301   1302     1  0.0000000  0.6508444  3
   1294   1292   1301   1303     1  0.0000000  0.6508444  3
   1294   1292   1301   1305     1  0.0000000  0.6508444  3
   1295   1292   1301   1302     1  0.0000000  0.6508444  3
   1295   1292   1301   1303     1  0.0000000  0.6508444  3
   1295   1292   1301   1305     1  0.0000000  0.6508444  3
   1296   1295   1292   1301     1  0.0000000  0.6508444  3
   1296   1295   1298   1304     1  0.0000000  1.0460000  1
   1296   1295   1298   1304     1  0.0000000  0.0000000  3
   1296   1295   1298   1299     1  0.0000000  0.6508444  3
   1296   1295   1298   1300     1  0.0000000  0.6508444  3
   1297   1295   1292   1301     1  0.0000000  0.6508444  3
   1297   1295   1298   1304     1  0.0000000  1.0460000  1
   1297   1295   1298   1304     1  0.0000000  0.0000000  3
   1297   1295   1298   1299     1  0.0000000  0.6508444  3
   1297   1295   1298   1300     1  0.0000000  0.6508444  3
   1306   1309   1312   1313     1  0.0000000  0.6508444  3
   1306   1309   1312   1314     1  0.0000000  0.6508444  3
   1307   1306   1309   1312     1  0.0000000  0.6508444  3
   1307   1306   1309   1310     1  0.0000000  0.6508444  3
   1307   1306   1309   1311     1  0.0000000  0.6508444  3
   1307   1306   1315   1316     1  0.0000000  0.6508444  3
   1307   1306   1315   1317     1  0.0000000  0.6508444  3
   1307   1306   1315   1319     1  0.0000000  0.6508444  3
   1308   1306   1309   1312     1  0.0000000  0.6508444  3
   1308   1306   1309   1310     1  0.0000000  0.6508444  3
   1308   1306   1309   1311     1  0.0000000  0.6508444  3
   1308   1306   1315   1316     1  0.0000000  0.6508444  3
   1308   1306   1315   1317     1  0.0000000  0.6508444  3
   1308   1306   1315   1319     1  0.0000000  0.6508444  3
   1309   1306   1315   1316     1  0.0000000  0.6508444  3
   1309   1306   1315   1317     1  0.0000000  0.6508444  3
   1309   1306   1315   1319     1  0.0000000  0.6508444  3
   1310   1309   1312   1318     1  0.0000000  1.0460000  1
   1310   1309   1312   1318     1  0.0000000  0.0000000  3
   1310   1309   1312   1313     1  0.0000000  0.6508444  3
   1310   1309   1312   1314     1  0.0000000  0.6508444  3
   1310   1309   1306   1315     1  0.0000000  0.6508444  3
   1311   1309   1312   1318     1  0.0000000  1.0460000  1
   1311   1309   1312   1318     1  0.0000000  0.0000000  3
   1311   1309   1312   1313     1  0.0000000  0.6508444  3
   1311   1309   1312   1314     1  0.0000000  0.6508444  3
   1311   1309   1306   1315     1  0.0000000  0.6508444  3
   1320   1323   1326   1327     1  0.0000000  0.6508444  3
   1320   1323   1326   1328     1  0.0000000  0.6508444  3
   1321   1320   1323   1326     1  0.0000000  0.6508444  3
   1321   1320   1323   1324     1  0.0000000  0.6508444  3
   1321   1320   1323   1325     1  0.0000000  0.6508444  3
   1321   1320   1329   1330     1  0.0000000  0.6508444  3
   1321   1320   1329   1331     1  0.0000000  0.6508444  3
   1321   1320   1329   1333     1  0.0000000  0.6508444  3
   1322   1320   1323   1326     1  0.0000000  0.6508444  3
   1322   1320   1323   1324     1  0.0000000  0.6508444  3
   1322   1320   1323   1325     1  0.0000000  0.6508444  3
   1322   1320   1329   1330     1  0.0000000  0.6508444  3
   1322   1320   1329   1331     1  0.0000000  0.6508444  3
   1322   1320   1329   1333     1  0.0000000  0.6508444  3
   1323   1320   1329   1330     1  0.0000000  0.6508444  3
   1323   1320   1329   1331     1  0.0000000  0.6508444  3
   1323   1320   1329   1333     1  0.0000000  0.6508444  3
   1324   1323   1320   1329     1  0.0000000  0.6508444  3
   1324   1323   1326   1332     1  0.0000000  1.0460000  1
   1324   1323   1326   1332     1  0.0000000  0.0000000  3
   1324   1323   1326   1327     1  0.0000000  0.6508444  3
   1324   1323   1326   1328     1  0.0000000  0.6508444  3
   1325   1323   1320   1329     1  0.0000000  0.6508444  3
   1325   1323   1326   1332     1  0.0000000  1.0460000  1
   1325   1323   1326   1332     1  0.0000000  0.0000000  3
   1325   1323   1326   1327     1  0.0000000  0.6508444  3
   1325   1323   1326   1328     1  0.0000000  0.6508444  3
   1334   1337   1340   1341     1  0.0000000  0.6508444  3
   1334   1337   1340   1342     1  0.0000000  0.6508444  3
   1335   1334   1337   1340     1  0.0000000  0.6508444  3
   1335   1334   1337   1338     1  0.0000000  0.6508444  3
   1335   1334   1337   1339     1  0.0000000  0.6508444  3
   1335   1334   1343   1344     1  0.0000000  0.6508444  3
   1335   1334   1343   1345     1  0.0000000  0.6508444  3
   1335   1334   1343   1347     1  0.0000000  0.6508444  3
   1336   1334   1337   1340     1  0.0000000  0.6508444  3
   1336   1334   1337   1338     1  0.0000000  0.6508444  3
   1336   1334   1337   1339     1  0.0000000  0.6508444  3
   1336   1334   1343   1344     1  0.0000000  0.6508444  3
   1336   1334   1343   1345     1  0.0000000  0.6508444  3
   1336   1334   1343   1347     1  0.0000000  0.6508444  3
   1337   1334   1343   1344     1  0.0000000  0.6508444  3
   1337   1334   1343   1345     1  0.0000000  0.6508444  3
   1337   1334   1343   1347     1  0.0000000  0.6508444  3
   1338   1337   1340   1346     1  0.0000000  1.0460000  1
   1338   1337   1340   1346     1  0.0000000  0.0000000  3
   1338   1337   1340   1341     1  0.0000000  0.6508444  3
   1338   1337   1340   1342     1  0.0000000  0.6508444  3
   1338   1337   1334   1343     1  0.0000000  0.6508444  3
   1339   1337   1340   1346     1  0.0000000  1.0460000  1
   1339   1337   1340   1346     1  0.0000000  0.0000000  3
   1339   1337   1340   1341     1  0.0000000  0.6508444  3
   1339   1337   1340   1342     1  0.0000000  0.6508444  3
   1339   1337   1334   1343     1  0.0000000  0.6508444  3

;[ system ]
;; Name
;Generic title
;
;[ molecules ]
;; Compound       #mols
;system1              1
