G2POcore-PETIM in water
69511
    1aaa     O1    1   3.180   3.715   2.464  0.3034 -0.1112  0.6698
    1aaa     C1    2   3.197   3.578   2.417 -0.0428 -0.0055 -0.3811
    1aaa     H1    3   3.237   3.594   2.316 -0.7221 -0.4295 -0.7234
    1aaa     H2    4   3.106   3.517   2.424  0.2688 -0.4542 -0.1361
    1aaa     C2    5   3.055   3.758   2.402  0.0952 -0.1744  0.2663
    1aaa     H3    6   2.974   3.705   2.454  0.4749  0.6332  1.7435
    1aaa     H4    7   3.054   3.737   2.295  0.8914 -0.5990  0.3318
    1aaa     C3    8   3.317   3.516   2.500  0.1662  0.5288  0.2146
    1aaa     H5    9   3.328   3.410   2.475  1.0720  0.5726  0.4221
    1aaa     H6   10   3.291   3.519   2.607 -0.1807 -1.2513  0.2158
    1aaa     C4   11   3.028   3.904   2.425 -0.0525 -0.9497  0.2588
    1aaa     H7   12   2.989   3.937   2.328  0.7746  0.4084  0.3575
    1aaa     H8   13   3.118   3.962   2.450  0.9237 -1.6683 -1.4308
    1aaa     C5   14   3.447   3.593   2.462 -0.2639 -0.4997 -0.2388
    1aaa     H9   15   3.448   3.586   2.353  0.8972  0.5317 -0.3313
    1aaa    H10   16   3.437   3.700   2.482 -1.4406 -0.7536  0.5610
    1aaa     C6   17   2.924   3.922   2.533 -0.1584  0.2129 -0.2778
    1aaa    H11   18   2.970   3.918   2.632 -0.8541  3.2163  0.2718
    1aaa    H12   19   2.858   3.835   2.530  0.1167 -0.1779  2.3635
    1aaa     N1   20   3.572   3.542   2.533 -0.7015  0.3126 -0.0769
    1aaa     N2   21   2.832   4.043   2.529 -0.0915  0.2141  0.5412
    1aaa     C7   22   2.910   4.151   2.608  0.0222 -0.2146  0.3173
    1aaa    H13   23   2.834   4.205   2.664  1.3272 -0.1989  2.1639
    1aaa    H14   24   2.972   4.097   2.680  0.6972 -1.6884 -1.3042
    1aaa     C8   25   2.704   4.019   2.605 -0.2643  0.1780  0.0362
    1aaa    H15   26   2.657   4.116   2.591  1.6756  0.8117 -3.1389
    1aaa    H16   27   2.643   3.958   2.537 -0.5090  2.2677 -1.7551
    1aaa     C9   28   3.683   3.622   2.465  0.6862  0.3349  0.4978
    1aaa    H17   29   3.636   3.720   2.453 -0.3113 -0.3732 -1.7377
    1aaa    H18   30   3.768   3.632   2.532  0.5652 -0.9538  0.8643
    1aaa    C10   31   3.576   3.567   2.685  0.1722  0.0932  0.3269
    1aaa    H19   32   3.506   3.487   2.711 -2.2258  1.1804 -2.2011
    1aaa    H20   33   3.675   3.537   2.720  0.4529 -0.6387 -1.0254
    1aaa    C11   34   2.987   4.249   2.526  0.2132 -0.0907  0.7600
    1aaa    H21   35   3.075   4.205   2.476  0.3199 -0.3737  1.1901
    1aaa    H22   36   2.927   4.277   2.438  2.7657 -0.5595 -1.2462
    1aaa    C12   37   2.718   3.980   2.752  0.1132 -0.6093  0.1855
    1aaa    H23   38   2.773   3.885   2.756  0.3939 -0.4241  1.9666
    1aaa    H24   39   2.783   4.056   2.797 -0.8367  2.0365 -2.5684
    1aaa    C13   40   3.735   3.582   2.324  0.7692  0.3800 -0.6560
    1aaa    H25   41   3.658   3.608   2.250  0.0726 -0.9685 -0.4389
    1aaa    H26   42   3.822   3.642   2.296  0.1147  1.6890 -0.0067
    1aaa    C14   43   3.541   3.692   2.756  0.0646 -0.2567 -0.2871
    1aaa    H27   44   3.445   3.714   2.707  0.1602  0.1514 -0.2944
    1aaa    H28   45   3.530   3.675   2.864  1.3873  0.9673  0.0613
    1aaa    C15   46   3.639   3.808   2.741 -0.8787  0.0076  0.4222
    1aaa    H29   47   3.740   3.768   2.758 -1.1195 -0.8277 -0.0077
    1aaa    H30   48   3.639   3.842   2.636 -1.0197  1.9579  1.0154
    1aaa    C16   49   3.760   3.436   2.312  0.6986  0.3504 -0.0931
    1aaa    H31   50   3.817   3.396   2.397  0.4341  0.4381  0.1279
    1aaa    H32   51   3.659   3.393   2.313  0.5126  0.7161  2.1997
    1aaa    C17   52   2.586   3.973   2.827  0.2214  0.1183 -0.5699
    1aaa    H33   53   2.544   3.872   2.823  2.1804 -0.7445 -0.1475
    1aaa    H34   54   2.605   3.976   2.935  1.6059 -0.5682 -0.7755
    1aaa    C18   55   3.042   4.370   2.603 -0.0879  0.2109 -0.0382
    1aaa    H35   56   2.959   4.413   2.661  0.0496 -0.1243  0.4047
    1aaa    H36   57   3.114   4.350   2.682 -0.4016 -0.6748  0.0356
    1aaa    H38   58   3.589   3.443   2.508 -3.0663  0.1638 -1.3795
    1aaa    H37   59   2.807   4.068   2.432 -1.4014  0.9581  1.0468
    2bbb     N1   60   3.719   3.913   3.159 -0.0641  0.2502 -0.0971
    2bbb     C1   61   3.706   3.758   3.130  0.3452  0.1339  0.0657
    2bbb     H1   62   3.662   3.749   3.030 -1.6611 -1.7588  1.0538
    2bbb     H2   63   3.630   3.718   3.196  0.1945 -0.7692 -0.6359
    2bbb     C2   64   3.733   3.930   3.310  0.5440  0.6969  0.2175
    2bbb     H3   65   3.837   3.923   3.341  0.0925  1.6184  2.0939
    2bbb     H4   66   3.678   3.849   3.358  2.2566 -0.4551  0.3421
    2bbb     C3   67   3.838   3.974   3.086 -0.0373  0.3404  1.1502
    2bbb     H5   68   3.929   3.926   3.120  0.1783  0.6113  0.9575
    2bbb     H6   69   3.831   4.080   3.108 -0.6405  0.7843 -0.8958
    2bbb     C4   70   3.839   3.956   2.932 -0.3014 -0.2520  0.2457
    2bbb     H7   71   3.867   3.853   2.911  1.9271  0.0410  1.4443
    2bbb     H8   72   3.926   4.014   2.897 -1.2116  1.2290  0.3338
    2bbb     C5   73   3.829   3.668   3.143 -0.1176  0.6935 -0.6254
    2bbb     H9   74   3.856   3.650   3.248  0.3399 -1.0711 -1.0214
    2bbb    H10   75   3.919   3.709   3.095  0.0882 -0.6692 -1.4741
    2bbb     C6   76   3.676   4.063   3.355 -0.4173  0.6549  0.6048
    2bbb    H11   77   3.569   4.064   3.330 -0.2605  1.4396 -0.0437
    2bbb    H12   78   3.725   4.142   3.298  1.1186 -2.0886 -2.1750
    2bbb     C7   79   3.712   4.005   2.854 -0.1255 -0.5040 -0.4978
    2bbb    H13   80   3.741   4.051   2.759  0.5113  1.1422  0.4392
    2bbb    H14   81   3.673   4.093   2.907  2.2895 -0.2970  1.0927
    2bbb     C8   82   3.702   4.100   3.501  0.2769  0.3668  0.2808
    2bbb    H15   83   3.805   4.097   3.538 -0.2174  0.5610  1.7697
    2bbb    H16   84   3.677   4.207   3.506 -2.1939 -0.0620 -1.1896
    2bbb     C9   85   3.813   3.528   3.082 -0.5522  0.2527  0.2208
    2bbb    H17   86   3.785   3.549   2.978  0.6058  0.9698  0.0282
    2bbb    H18   87   3.728   3.477   3.128  0.8936  0.1042  2.9033
    2bbb     O1   88   3.610   3.905   2.841  0.1513  0.7437  0.8012
    2bbb    H19   89   3.629   3.954   3.130 -0.2937 -0.1492  0.0426
    3bbb     N1   90   3.740   2.991   1.969  0.5518 -0.3620  0.5375
    3bbb     C1   91   3.642   3.044   1.860  0.1418 -0.6599 -0.7442
    3bbb     H1   92   3.581   3.126   1.898  2.5361  0.2878  1.3956
    3bbb     H2   93   3.570   2.964   1.841 -0.1931 -0.8387  1.0533
    3bbb     C2   94   3.778   2.850   1.930  0.6613  0.0652 -0.0176
    3bbb     H3   95   3.837   2.858   1.839 -0.8209  0.9338 -0.9587
    3bbb     H4   96   3.685   2.797   1.909  1.7011 -3.6012  3.4158
    3bbb     C3   97   3.866   3.077   1.996 -0.2600  0.0844 -0.4940
    3bbb     H5   98   3.945   3.062   1.922  0.2433  1.1971 -0.2013
    3bbb     H6   99   3.907   3.037   2.088  0.8812  1.4791 -0.3609
    3bbb     C4  100   3.842   3.230   2.019 -0.7806  0.3454 -0.3221
    3bbb     H7  101   3.759   3.267   1.958 -0.8907 -1.6013 -1.4333
    3bbb     H8  102   3.932   3.282   1.986 -0.6520 -0.1462 -0.7622
    3bbb     C5  103   3.702   3.087   1.727  0.0544  0.2622 -0.6020
    3bbb     H9  104   3.755   3.012   1.668 -0.2372 -0.1329 -0.3671
    3bbb    H10  105   3.777   3.163   1.751  3.2671 -2.8830  0.1780
    3bbb     C6  106   3.864   2.764   2.031 -0.3846 -0.1245 -0.3524
    3bbb    H11  107   3.817   2.756   2.130  0.7512  0.9830  0.2998
    3bbb    H12  108   3.954   2.823   2.052 -0.6709  0.3034 -0.3079
    3bbb     C7  109   3.820   3.258   2.167  0.1030 -0.4161  0.2856
    3bbb    H13  110   3.907   3.229   2.227  3.3106  1.9840 -2.7946
    3bbb    H14  111   3.720   3.221   2.193 -0.2189  0.5480  0.4753
    3bbb     C8  112   3.899   2.613   1.987  0.1196 -0.2962  0.3512
    3bbb    H15  113   3.811   2.553   2.014  0.1195  0.2211  1.6016
    3bbb    H16  114   3.923   2.612   1.881 -1.7578 -1.1525 -0.1123
    3bbb     C9  115   3.596   3.140   1.628 -0.2523  0.3671  0.0220
    3bbb    H17  116   3.645   3.203   1.554  1.1542  2.0695  2.2816
    3bbb    H18  117   3.524   3.210   1.673 -0.5040  0.2778 -0.2375
    3bbb     O1  118   3.814   3.400   2.179 -0.2004  0.0472  0.2346
    3bbb    H19  119   3.690   2.978   2.058 -1.8562 -0.3835 -0.7383
    4bbb     N1  120   2.191   4.141   2.754  0.1622  0.2535 -0.3532
    4bbb     C1  121   2.188   4.021   2.851  0.0930 -0.2958 -0.5748
    4bbb     H1  122   2.117   4.042   2.932  0.9582 -1.2561  0.4767
    4bbb     H2  123   2.286   4.012   2.899  0.0922 -0.8945 -0.6790
    4bbb     C2  124   2.044   4.162   2.707 -0.3690  0.0647 -0.1716
    4bbb     H3  125   1.988   4.188   2.796  3.0506  2.3548  1.5612
    4bbb     H4  126   2.009   4.064   2.674 -0.4196  0.1275 -0.3085
    4bbb     C3  127   2.254   4.272   2.809  0.8829 -0.5848  0.2286
    4bbb     H5  128   2.246   4.273   2.918  0.4469  2.8765  0.2859
    4bbb     H6  129   2.199   4.363   2.782  0.6293 -0.4543  1.1519
    4bbb     C4  130   2.395   4.299   2.768 -0.0928  0.4689  0.6543
    4bbb     H7  131   2.416   4.403   2.796  0.4008  0.7484 -0.6589
    4bbb     H8  132   2.395   4.292   2.658 -0.0468 -2.0658  0.7650
    4bbb     C5  133   2.150   3.886   2.786  0.0301 -0.2374 -0.1501
    4bbb     H9  134   2.186   3.881   2.683 -1.4863 -0.9313 -0.6830
    4bbb    H10  135   2.041   3.886   2.771 -0.0801 -0.1856  0.6113
    4bbb     C6  136   2.016   4.273   2.599  0.0744  0.1410  0.1241
    4bbb    H11  137   2.067   4.366   2.626  0.4115 -0.5509  2.0472
    4bbb    H12  138   1.907   4.286   2.595 -0.1243 -1.0859  0.8800
    4bbb     C7  139   2.509   4.213   2.822 -0.1923  0.0565  0.3817
    4bbb    H13  140   2.510   4.229   2.930 -1.5373  0.8697  0.2962
    4bbb    H14  141   2.608   4.240   2.785 -0.8188  1.0105 -0.6515
    4bbb     C8  142   2.067   4.223   2.465  0.1234 -0.4475 -0.5706
    4bbb    H15  143   2.033   4.296   2.390 -0.5058 -1.7863 -1.6321
    4bbb    H16  144   2.176   4.234   2.469 -0.1044  2.6290 -0.3357
    4bbb     C9  145   2.182   3.759   2.861 -0.7810 -0.3697 -0.1523
    4bbb    H17  146   2.288   3.730   2.862 -0.9080 -0.8295  0.0996
    4bbb    H18  147   2.138   3.669   2.815  1.1598 -1.6652  0.3871
    4bbb     O1  148   2.484   4.070   2.791  0.7262 -0.4869 -0.5000
    4bbb    H19  149   2.250   4.108   2.676 -2.0329 -2.1675 -1.1138
    5bbb     N1  150   3.216   4.645   2.140 -0.6348 -0.4784 -0.6476
    5bbb     C1  151   3.132   4.626   2.005  0.3698 -0.8147  0.2891
    5bbb     H1  152   3.163   4.533   1.958  1.4640  0.1678 -1.0116
    5bbb     H2  153   3.163   4.703   1.934  1.2199 -1.4292 -0.0222
    5bbb     C2  154   3.182   4.771   2.217 -0.8247  0.0892 -0.0198
    5bbb     H3  155   3.246   4.765   2.305  0.4973  0.3694 -0.9340
    5bbb     H4  156   3.075   4.764   2.238 -0.8897  1.2912  0.1446
    5bbb     C3  157   3.185   4.530   2.233 -0.7590 -0.3231 -0.1197
    5bbb     H5  158   3.173   4.441   2.171  0.0622  1.8610 -3.7810
    5bbb     H6  159   3.087   4.555   2.272 -1.8768 -3.1023 -0.9692
    5bbb     C4  160   3.285   4.509   2.347  0.3590  0.5298 -0.7581
    5bbb     H7  161   3.310   4.596   2.409  0.6177 -0.5759  0.7276
    5bbb     H8  162   3.381   4.471   2.310 -0.0240 -0.8834 -0.3425
    5bbb     C5  163   2.982   4.632   2.023  0.4593 -0.4294 -0.1171
    5bbb     H9  164   2.941   4.715   2.081 -3.7523 -1.7783 -0.7966
    5bbb    H10  165   2.943   4.538   2.066  0.7859 -2.6754 -4.1537
    5bbb     C6  166   3.222   4.893   2.133  0.9302 -0.4960 -0.0728
    5bbb    H11  167   3.170   4.903   2.036  1.4995 -0.4818 -0.3772
    5bbb    H12  168   3.330   4.892   2.115  0.9808 -2.3011  0.1579
    5bbb     C7  169   3.227   4.411   2.450 -0.2823  0.5812 -0.1668
    5bbb    H13  170   3.299   4.406   2.533 -0.5051 -0.0326 -0.0089
    5bbb    H14  171   3.220   4.312   2.404 -0.1595 -0.1045  1.2165
    5bbb     C8  172   3.188   5.021   2.214 -0.3659 -0.1171  0.0572
    5bbb    H15  173   3.228   5.100   2.150  1.3232 -1.2267 -0.3459
    5bbb    H16  174   3.081   5.035   2.227 -0.7599  2.9265 -4.3589
    5bbb     C9  175   2.913   4.640   1.886  1.1383  0.3701  0.4876
    5bbb    H17  176   2.805   4.657   1.897  1.1093 -0.3768  1.5379
    5bbb    H18  177   2.927   4.545   1.834  2.4498  1.6105 -1.5764
    5bbb     O1  178   3.097   4.458   2.506 -0.3378 -0.2656 -0.8367
    5bbb    H19  179   3.316   4.662   2.122 -0.4178 -1.5174 -0.5150
    6bbb     N1  180   3.619   4.066   4.014  0.7034 -0.3386 -0.1727
    6bbb     C1  181   3.753   4.081   4.093  0.6040 -0.2901 -0.3792
    6bbb     H1  182   3.726   4.100   4.197  0.6613 -2.3697  0.0553
    6bbb     H2  183   3.806   4.162   4.043  1.0554  0.2726  0.9894
    6bbb     C2  184   3.526   4.196   4.038 -0.5711  0.4020 -0.0976
    6bbb     H3  185   3.452   4.203   3.958 -0.4853  0.2283 -0.1927
    6bbb     H4  186   3.589   4.282   4.017  0.2684 -0.3768 -0.8111
    6bbb     C3  187   3.661   4.053   3.868  0.1090 -0.5970 -0.1103
    6bbb     H5  188   3.770   4.057   3.870  0.0849  1.3606 -0.4779
    6bbb     H6  189   3.626   4.143   3.817  2.9136  0.2076 -0.7672
    6bbb     C4  190   3.621   3.922   3.800 -0.4367 -0.3236  0.2691
    6bbb     H7  191   3.512   3.917   3.808 -0.3575 -0.1484  1.6985
    6bbb     H8  192   3.666   3.838   3.854  0.1854  0.8548  1.6684
    6bbb     C5  193   3.837   3.952   4.117  0.4995 -0.4124  0.4016
    6bbb     H9  194   3.875   3.913   4.022 -0.6216 -0.6114  0.0194
    6bbb    H10  195   3.764   3.885   4.164 -1.8492  2.0131  0.4230
    6bbb     C6  196   3.458   4.190   4.176 -0.3057  0.2544  0.2462
    6bbb    H11  197   3.523   4.174   4.263 -0.6019  1.8816  0.8147
    6bbb    H12  198   3.404   4.095   4.169 -2.3932  1.4676 -1.5853
    6bbb     C7  199   3.684   3.917   3.657 -0.3883 -0.0739  0.7478
    6bbb    H13  200   3.679   3.823   3.600  1.7040  2.0767 -3.3819
    6bbb    H14  201   3.792   3.936   3.657 -0.9281  3.6739 -0.0662
    6bbb     C8  202   3.356   4.299   4.209 -0.1457  0.3886 -0.0613
    6bbb    H15  203   3.301   4.323   4.118  1.3543  0.7502 -0.9103
    6bbb    H16  204   3.289   4.265   4.290  0.5058 -0.6819  0.0420
    6bbb     C9  205   3.951   3.981   4.214 -0.3970 -0.0248 -0.7259
    6bbb    H17  206   3.992   3.884   4.245 -1.0149 -0.2543 -0.6117
    6bbb    H18  207   3.906   4.025   4.304  0.1844  1.3065 -1.0606
    6bbb     O1  208   3.615   4.022   3.582  0.0617 -0.3609  0.0001
    6bbb    H19  209   3.562   3.987   4.049  0.3349  0.6621  1.6282
    7bbb     N1  210   4.093   3.323   3.316 -0.7863 -0.0093  0.0217
    7bbb     C1  211   4.083   3.266   3.457  0.4419 -0.0670 -0.0180
    7bbb     H1  212   3.981   3.232   3.471  1.1098 -2.3944 -0.3278
    7bbb     H2  213   4.104   3.347   3.527 -1.7759 -1.1962  2.0782
    7bbb     C2  214   4.222   3.403   3.289  0.5842  0.3296 -0.2222
    7bbb     H3  215   4.252   3.393   3.185  1.2430  2.1458 -0.2489
    7bbb     H4  216   4.298   3.356   3.352 -1.1836 -1.2296  0.8524
    7bbb     C3  217   4.069   3.203   3.219 -0.2225  0.6123  0.3854
    7bbb     H5  218   3.973   3.155   3.240  0.9204 -1.5179  0.9130
    7bbb     H6  219   4.146   3.127   3.234 -1.2574 -0.2363  1.5954
    7bbb     C4  220   4.053   3.241   3.072  0.6006 -0.3158 -0.3079
    7bbb     H7  221   4.059   3.150   3.011 -1.8416 -0.0054 -1.1244
    7bbb     H8  222   4.136   3.307   3.046 -1.6963  2.1015 -1.9947
    7bbb     C5  223   4.169   3.148   3.484  0.0842  0.1658  0.6814
    7bbb     H9  224   4.271   3.162   3.448 -0.3145 -1.4138 -1.1860
    7bbb    H10  225   4.128   3.065   3.426 -0.0167 -0.2238  1.2958
    7bbb     C6  226   4.216   3.554   3.334  0.4860  0.3781 -0.2495
    7bbb    H11  227   4.187   3.553   3.440  2.6065 -1.4135  0.3975
    7bbb    H12  228   4.149   3.611   3.269  0.0222 -1.0092 -1.0255
    7bbb     C7  229   3.930   3.322   3.022 -0.2509 -0.4782  0.0937
    7bbb    H13  230   3.838   3.267   3.045 -1.7522  1.5229 -0.7707
    7bbb    H14  231   3.930   3.337   2.914  4.3558  1.4326  0.1268
    7bbb     C8  232   4.365   3.615   3.319  0.3447 -0.4194 -0.9072
    7bbb    H15  233   4.394   3.633   3.215  1.1331  0.3048 -0.5783
    7bbb    H16  234   4.357   3.709   3.374  1.0781 -0.2832 -1.0233
    7bbb     C9  235   4.173   3.118   3.628 -0.7406  0.5051 -0.4954
    7bbb    H17  236   4.216   3.205   3.680 -0.6935  0.8767 -1.1460
    7bbb    H18  237   4.251   3.042   3.640 -1.0335 -0.0058 -1.7397
    7bbb     O1  238   3.933   3.450   3.093 -0.6700  0.4796 -0.1607
    7bbb    H19  239   4.018   3.393   3.318 -1.2569 -0.5054  1.1881
    8bbb     N1  240   4.418   2.416   2.209 -0.4051 -0.1543  0.7963
    8bbb     C1  241   4.552   2.488   2.195 -0.3836 -0.0473 -0.4724
    8bbb     H1  242   4.598   2.465   2.099  2.7767 -1.1935  1.1801
    8bbb     H2  243   4.612   2.435   2.269 -0.8011  1.8050  1.2707
    8bbb     C2  244   4.363   2.410   2.353 -0.4297  0.0256 -0.2738
    8bbb     H3  245   4.259   2.379   2.350 -0.3008 -0.6074  1.0178
    8bbb     H4  246   4.375   2.507   2.401 -0.7396 -0.3595  0.6148
    8bbb     C3  247   4.312   2.467   2.111 -0.6249  0.1909  0.5347
    8bbb     H5  248   4.353   2.453   2.010 -0.3112  0.2629  0.6510
    8bbb     H6  249   4.292   2.574   2.124 -1.0600  0.1329  0.3518
    8bbb     C4  250   4.179   2.388   2.113  0.2690 -0.4469  0.6276
    8bbb     H7  251   4.129   2.364   2.208  0.0706  0.5222  0.7761
    8bbb     H8  252   4.196   2.287   2.073  0.6615 -0.3920  0.6562
    8bbb     C5  253   4.573   2.642   2.221 -0.1793 -0.2919  0.4166
    8bbb     H9  254   4.542   2.656   2.325  1.3729 -0.0961  0.8807
    8bbb    H10  255   4.508   2.704   2.158 -0.6650 -1.6080 -0.4260
    8bbb     C6  256   4.434   2.308   2.439 -0.2487  0.3624 -0.0212
    8bbb    H11  257   4.426   2.340   2.544 -0.4520  1.7635 -0.4479
    8bbb    H12  258   4.542   2.310   2.419 -0.2456 -3.2316 -1.1400
    8bbb     C7  259   4.065   2.440   2.018  1.0904 -0.2166  0.6790
    8bbb    H13  260   3.986   2.364   2.012  0.0944  0.7719  0.8817
    8bbb    H14  261   4.116   2.459   1.923  0.6610 -1.4798  0.1735
    8bbb     C8  262   4.371   2.165   2.411  0.1176 -0.0291 -0.6209
    8bbb    H15  263   4.422   2.093   2.476 -2.6253  0.5329  2.4339
    8bbb    H16  264   4.263   2.173   2.430 -0.3024 -0.6886 -2.5601
    8bbb     C9  265   4.720   2.689   2.204 -0.4621  0.1923 -0.1072
    8bbb    H17  266   4.777   2.635   2.282  0.8019 -0.3302 -1.3477
    8bbb    H18  267   4.722   2.797   2.224  0.1540 -0.0506  1.3138
    8bbb     O1  268   4.014   2.571   2.065 -0.0254  0.7194  0.3940
    8bbb    H19  269   4.448   2.320   2.187 -0.1410 -0.0963  0.8997
    9bbb     N1  270   3.216   2.734   1.443 -0.1062  0.3938  0.9090
    9bbb     C1  271   3.317   2.648   1.516 -0.1494  0.1068  0.4115
    9bbb     H1  272   3.270   2.597   1.600 -1.0727 -2.2199 -1.4093
    9bbb     H2  273   3.390   2.722   1.551  1.3874 -0.6463 -1.0397
    9bbb     C2  274   3.075   2.693   1.485 -0.4071 -0.1183  0.1047
    9bbb     H3  275   3.067   2.725   1.589 -0.6252 -0.3277  0.1519
    9bbb     H4  276   3.071   2.584   1.492  0.8198 -0.1158  1.4901
    9bbb     C3  277   3.239   2.879   1.482 -0.4410  0.5900  0.2129
    9bbb     H5  278   3.254   2.874   1.590  3.5035 -0.9879 -0.2423
    9bbb     H6  279   3.144   2.928   1.462 -1.7319 -1.6655  0.4671
    9bbb     C4  280   3.362   2.948   1.406 -0.4247  0.8871  0.2146
    9bbb     H7  281   3.313   2.982   1.314 -0.3473  1.2857  0.3164
    9bbb     H8  282   3.445   2.883   1.376  0.2805  1.6893  0.3952
    9bbb     C5  283   3.397   2.548   1.429 -0.0132 -0.6661  0.4532
    9bbb     H9  284   3.403   2.460   1.494  1.2942 -0.1986  0.9825
    9bbb    H10  285   3.500   2.581   1.410 -0.4770  0.4279 -0.2772
    9bbb     C6  286   2.972   2.756   1.393 -0.6576  0.1096  0.4445
    9bbb    H11  287   2.989   2.863   1.377  0.2691 -0.1472 -0.3851
    9bbb    H12  288   2.872   2.740   1.435 -0.7286  0.6123  0.4689
    9bbb     C7  289   3.426   3.072   1.470  0.5921 -0.0166 -0.2899
    9bbb    H13  290   3.351   3.133   1.520  1.2402 -0.2570  1.0220
    9bbb    H14  291   3.471   3.141   1.398 -0.7267  1.6463  0.4192
    9bbb     C8  292   2.995   2.689   1.255  0.5535  0.4157  0.0796
    9bbb    H15  293   3.005   2.580   1.257 -0.1896  0.3456  0.3822
    9bbb    H16  294   2.901   2.704   1.200  0.0276 -0.1504  0.8159
    9bbb     C9  295   3.331   2.491   1.305  0.1643  0.0941  0.2706
    9bbb    H17  296   3.398   2.413   1.267  0.3379  0.1431  0.4752
    9bbb    H18  297   3.311   2.568   1.230  0.4533  0.7938  0.8947
    9bbb     O1  298   3.526   3.031   1.570  0.0481  0.0507  0.2844
    9bbb    H19  299   3.220   2.716   1.342  0.2423  0.1375  0.9670
   10bbb     N1  300   1.773   4.101   2.079  0.5116  0.5833  0.0206
   10bbb     C1  301   1.817   4.004   1.972 -0.6637  0.3238 -0.4880
   10bbb     H1  302   1.921   4.028   1.947 -0.1783 -0.7937  0.3841
   10bbb     H2  303   1.760   4.028   1.882  0.1211 -0.2291 -1.1513
   10bbb     C2  304   1.617   4.083   2.096 -0.2025 -0.3203  0.2494
   10bbb     H3  305   1.591   3.985   2.137  1.9921 -0.1278  2.3827
   10bbb     H4  306   1.582   4.085   1.993  0.0057  1.1446  0.1884
   10bbb     C3  307   1.848   4.067   2.204 -0.5130 -0.1954 -0.4542
   10bbb     H5  308   1.816   3.970   2.242 -0.9970  0.5096  0.9766
   10bbb     H6  309   1.819   4.131   2.287  2.4143 -0.0644  0.6029
   10bbb     C4  310   2.000   4.074   2.201 -0.0394  0.6621 -0.2669
   10bbb     H7  311   2.014   4.182   2.192 -1.8112  1.7474  5.5773
   10bbb     H8  312   2.042   4.020   2.115 -0.2351 -2.2648  1.3395
   10bbb     C5  313   1.811   3.850   1.986 -0.4098  0.2846 -0.6251
   10bbb     H9  314   1.716   3.818   2.030  0.1501 -1.6848 -0.7818
   10bbb    H10  315   1.886   3.817   2.059 -1.5071  0.2434  0.5188
   10bbb     C6  316   1.552   4.191   2.187 -0.1809  0.8290 -0.2939
   10bbb    H11  317   1.588   4.292   2.161 -2.5424  1.7855 -0.0921
   10bbb    H12  318   1.574   4.168   2.292  0.3178  2.2517 -0.0608
   10bbb     C7  319   2.056   4.014   2.336  0.0755 -0.5352  0.1673
   10bbb    H13  320   2.165   4.023   2.327  0.1314 -0.0939  1.1542
   10bbb    H14  321   2.035   3.907   2.344  1.4002 -0.9037 -0.7963
   10bbb     C8  322   1.403   4.196   2.167  0.3136 -0.0777  0.2244
   10bbb    H15  323   1.383   4.233   2.066 -0.0513 -2.1703 -0.5153
   10bbb    H16  324   1.358   4.097   2.181 -0.7698  0.4812  0.8321
   10bbb     C9  325   1.837   3.778   1.851 -0.0974  0.3049  0.5438
   10bbb    H17  326   1.891   3.684   1.870  0.4039  0.6544  0.8846
   10bbb    H18  327   1.912   3.833   1.793 -0.6740  1.1369  0.5751
   10bbb     O1  328   2.011   4.090   2.448 -0.4019 -0.3161  0.3081
   10bbb    H19  329   1.795   4.196   2.046  2.7637 -0.3421 -1.3593
   11bbb     N1  330   1.780   3.723   3.360  0.0970 -0.2133 -0.8976
   11bbb     C1  331   1.636   3.749   3.392 -0.0511  0.2724  0.3227
   11bbb     H1  332   1.631   3.728   3.499 -0.2407 -0.3352  0.1980
   11bbb     H2  333   1.576   3.671   3.344  0.7508  0.2869 -0.7237
   11bbb     C2  334   1.812   3.577   3.399  0.2050  0.3719  0.9176
   11bbb     H3  335   1.908   3.548   3.358 -1.1976 -2.6706 -0.5623
   11bbb     H4  336   1.740   3.509   3.354 -0.3596  0.6083  1.4407
   11bbb     C3  337   1.819   3.754   3.213 -1.4130  0.4758  0.0636
   11bbb     H5  338   1.786   3.854   3.186 -0.1890  0.5664 -1.2084
   11bbb     H6  339   1.773   3.688   3.140 -1.7370 -0.4029  1.0352
   11bbb     C4  340   1.970   3.756   3.169 -0.3143  0.3246 -0.1097
   11bbb     H7  341   2.000   3.651   3.184 -1.8030 -0.2936 -1.2031
   11bbb     H8  342   2.022   3.819   3.241  0.7233  1.8147 -2.0836
   11bbb     C5  343   1.590   3.896   3.375  0.8882  0.0871 -0.5156
   11bbb     H9  344   1.589   3.914   3.267 -4.4019  1.3724 -0.5677
   11bbb    H10  345   1.644   3.972   3.431  0.0065  0.4294 -0.1016
   11bbb     C6  346   1.815   3.546   3.556 -0.5445 -0.4916  0.4561
   11bbb    H11  347   1.712   3.570   3.585 -0.7065  2.0136 -1.7865
   11bbb    H12  348   1.891   3.603   3.611  1.4117 -0.8111 -1.7590
   11bbb     C7  349   2.004   3.802   3.026  0.1085  0.4222  0.9768
   11bbb    H13  350   1.988   3.910   3.015  0.3343  0.2751 -1.4870
   11bbb    H14  351   1.937   3.753   2.954  2.3940 -0.0965 -0.9213
   11bbb     C8  352   1.831   3.396   3.579 -0.1802 -1.4608  0.1289
   11bbb    H15  353   1.857   3.382   3.685  2.2453 -3.4872 -0.6397
   11bbb    H16  354   1.737   3.349   3.546 -1.4436  0.5798  0.6371
   11bbb     C9  355   1.435   3.910   3.411 -0.2661 -0.1113 -0.0199
   11bbb    H17  356   1.384   3.853   3.331  0.8206 -1.0399 -0.0846
   11bbb    H18  357   1.407   4.016   3.417 -0.8316 -0.2633  0.1262
   11bbb     O1  358   2.138   3.778   3.001  0.1483 -0.6116  0.2458
   11bbb    H19  359   1.845   3.789   3.406 -1.3918  0.8067 -0.1346
   12bbb     N1  360   3.490   4.986   2.722 -0.4705 -0.3248  0.0149
   12bbb     C1  361   3.470   4.865   2.808 -0.8763  0.8179  0.2547
   12bbb     H1  362   3.556   4.852   2.872 -1.4710 -2.6465  0.5560
   12bbb     H2  363   3.467   4.782   2.737  0.7478 -0.1937  1.3122
   12bbb     C2  364   3.625   4.978   2.650 -0.5386 -0.0585 -0.0760
   12bbb     H3  365   3.649   5.071   2.598 -0.6944  0.1675  0.2535
   12bbb     H4  366   3.609   4.909   2.567  1.2218  0.4827 -0.9054
   12bbb     C3  367   3.391   4.992   2.603 -0.0831  0.3314 -0.4839
   12bbb     H5  368   3.295   4.959   2.645  1.5066 -1.2767  2.2132
   12bbb     H6  369   3.420   4.926   2.522  1.3819  2.1926 -1.5597
   12bbb     C4  370   3.362   5.131   2.527  0.1517 -0.1417 -0.3187
   12bbb     H7  371   3.455   5.166   2.480  1.3696 -1.5261  0.9715
   12bbb     H8  372   3.337   5.216   2.592  1.0219  0.9089 -1.3061
   12bbb     C5  373   3.337   4.869   2.877  0.0285  0.2343  0.3581
   12bbb     H9  374   3.310   4.777   2.930  0.1001 -0.1946 -0.3376
   12bbb    H10  375   3.253   4.879   2.807 -0.1783  1.0677  0.7084
   12bbb     C6  376   3.748   4.927   2.720 -0.0617  0.2545  0.1324
   12bbb    H11  377   3.738   4.819   2.738  1.5743  0.2399  1.2272
   12bbb    H12  378   3.773   4.968   2.819  1.7580  0.0694 -0.2110
   12bbb     C7  379   3.246   5.127   2.423  0.5113 -0.1042 -0.2681
   12bbb    H13  380   3.224   5.225   2.379  0.6224  1.2261  2.4671
   12bbb    H14  381   3.148   5.101   2.466  1.2440  0.1295  1.6456
   12bbb     C8  382   3.876   4.953   2.642 -0.7366  0.7412 -0.1722
   12bbb    H15  383   3.953   4.917   2.712 -2.5163 -1.1703  0.9184
   12bbb    H16  384   3.878   4.891   2.552 -1.8673  0.6328 -0.1343
   12bbb     C9  385   3.330   4.980   2.984 -0.0572  0.1968  0.0234
   12bbb    H17  386   3.427   4.988   3.034  0.3455  1.4032 -0.8974
   12bbb    H18  387   3.254   4.967   3.063 -0.4476 -0.0432 -0.3859
   12bbb     O1  388   3.288   5.034   2.324  0.1833 -0.3127  0.2876
   12bbb    H19  389   3.477   5.075   2.773  1.9804 -0.3256  0.7681
   13bbb     N1  390   3.010   5.117   1.504 -0.3216  0.9457 -0.3516
   13bbb     C1  391   3.015   5.251   1.579  0.0805  0.8035  0.5841
   13bbb     H1  392   3.057   5.323   1.509 -2.2617  0.1405 -1.6366
   13bbb     H2  393   3.084   5.240   1.663  0.4706 -0.7742  0.0835
   13bbb     C2  394   3.157   5.087   1.459 -0.4357  0.4628  0.0014
   13bbb     H3  395   3.160   4.985   1.419  0.3892  0.2759  0.4968
   13bbb     H4  396   3.218   5.068   1.547  0.3639  0.2874 -0.5740
   13bbb     C3  397   2.967   5.012   1.604 -0.1315  0.1489 -0.6389
   13bbb     H5  398   2.861   5.031   1.618 -0.2434  0.2612 -1.5931
   13bbb     H6  399   3.012   5.039   1.700  1.2738  0.6162 -1.4011
   13bbb     C4  400   2.991   4.856   1.579 -0.4348  0.2812 -0.2901
   13bbb     H7  401   3.098   4.831   1.586 -0.9543 -1.8936  0.9676
   13bbb     H8  402   2.972   4.840   1.473  1.1198 -1.5125 -0.3484
   13bbb     C5  403   2.881   5.304   1.618  0.8360 -0.6295 -0.2613
   13bbb     H9  404   2.822   5.223   1.663 -0.2691  0.5859  0.5405
   13bbb    H10  405   2.823   5.333   1.530  1.4437  0.0877 -0.4447
   13bbb     C6  406   3.234   5.194   1.380  0.0368  0.3907 -0.4475
   13bbb    H11  407   3.335   5.154   1.366  0.1487  0.4460  0.1766
   13bbb    H12  408   3.252   5.275   1.452 -0.1725 -0.4131  0.5266
   13bbb     C7  409   2.912   4.758   1.672  0.2924 -0.5983  0.2194
   13bbb    H13  410   2.918   4.658   1.628 -2.7141 -1.1022  0.7016
   13bbb    H14  411   2.806   4.781   1.693  0.2992  2.2676 -2.2063
   13bbb     C8  412   3.184   5.236   1.239  0.7557 -0.1168 -0.1138
   13bbb    H15  413   3.196   5.153   1.169  0.3206  0.9653 -1.5247
   13bbb    H16  414   3.076   5.259   1.244  1.0388  1.1181  1.0084
   13bbb     C9  415   2.878   5.421   1.723 -0.7664 -0.2228  0.5219
   13bbb    H17  416   2.904   5.511   1.667  0.5764  0.5076  2.2063
   13bbb    H18  417   2.952   5.402   1.801  0.8296  2.0456 -0.3343
   13bbb     O1  418   2.971   4.742   1.802 -0.4710  0.5107 -0.2971
   13bbb    H19  419   2.950   5.116   1.420 -1.0058 -0.8507  0.1076
   14bbb     N1  420   3.421   4.769   4.495 -0.1422  0.4420 -0.0463
   14bbb     C1  421   3.516   4.799   4.616  0.7527  0.2073 -0.0735
   14bbb     H1  422   3.468   4.846   4.702  0.1448 -1.3262  0.4646
   14bbb     H2  423   3.584   4.876   4.582 -0.3370  0.3905 -1.9516
   14bbb     C2  424   3.359   4.899   4.466 -0.9824  0.0143 -0.0924
   14bbb     H3  425   3.325   4.942   4.561 -1.5697  1.1846 -0.8067
   14bbb     H4  426   3.276   4.878   4.399 -0.9698 -0.7987  0.1392
   14bbb     C3  427   3.493   4.711   4.380 -0.1520  0.6484  0.2977
   14bbb     H5  428   3.559   4.631   4.417 -0.2351  0.2410 -0.4148
   14bbb     H6  429   3.560   4.787   4.341  0.8186  0.0229  0.6835
   14bbb     C4  430   3.417   4.655   4.259 -0.3465  0.8181  0.1665
   14bbb     H7  431   3.490   4.641   4.178  0.3657 -0.9851  1.0559
   14bbb     H8  432   3.344   4.728   4.222 -0.0437  1.7675  1.3969
   14bbb     C5  433   3.589   4.671   4.675 -0.0901 -0.1334  0.3843
   14bbb     H9  434   3.673   4.662   4.605 -1.1072  0.7879 -0.9826
   14bbb    H10  435   3.523   4.584   4.681 -2.3658  1.2978 -1.9421
   14bbb     C6  436   3.438   5.012   4.393 -0.1421  0.0420  0.0833
   14bbb    H11  437   3.463   4.969   4.295  1.4038 -0.7905  0.8060
   14bbb    H12  438   3.522   5.028   4.461  1.0749 -3.2493 -0.4435
   14bbb     C7  439   3.331   4.523   4.279 -0.8430 -0.3856 -0.1497
   14bbb    H13  440   3.252   4.511   4.205 -1.1367 -1.1695  0.2873
   14bbb    H14  441   3.289   4.531   4.380 -0.2295 -1.6214  0.2183
   14bbb     C8  442   3.350   5.141   4.380  0.4947 -0.0061 -0.1849
   14bbb    H15  443   3.397   5.221   4.321  0.4236  1.0289  1.1162
   14bbb    H16  444   3.250   5.129   4.336 -0.4729  4.2570  0.3925
   14bbb     C9  445   3.645   4.709   4.817 -0.2680 -0.2898  0.1965
   14bbb    H17  446   3.700   4.804   4.811  1.5190 -1.3325 -0.7708
   14bbb    H18  447   3.705   4.623   4.848 -0.1640 -0.4862 -0.5405
   14bbb     O1  448   3.428   4.412   4.266  0.0555 -0.0140  0.2241
   14bbb    H19  449   3.342   4.711   4.529 -0.5138  0.1244 -1.3797
   15bbb     N1  450   4.221   4.446   4.048 -0.0220  0.9964 -0.3322
   15bbb     C1  451   4.291   4.384   3.929 -0.0099 -0.2684 -0.6010
   15bbb     H1  452   4.222   4.361   3.849 -2.1343  1.9695  0.4667
   15bbb     H2  453   4.327   4.287   3.962 -0.5191 -0.6590 -1.1776
   15bbb     C2  454   4.128   4.557   4.000  0.4281 -0.5736 -0.0208
   15bbb     H3  455   4.045   4.511   3.947  0.2335 -1.3648  0.9255
   15bbb     H4  456   4.178   4.616   3.923  0.8860  0.3426  0.9508
   15bbb     C3  457   4.144   4.342   4.119 -0.2498  0.2690 -0.5915
   15bbb     H5  458   4.076   4.295   4.048 -1.1462 -0.8692  0.9630
   15bbb     H6  459   4.086   4.392   4.197  1.0747 -1.7967  1.8662
   15bbb     C4  460   4.230   4.229   4.193  0.8272  0.0962 -0.0192
   15bbb     H7  461   4.283   4.282   4.273 -1.2498  0.0097  1.4815
   15bbb     H8  462   4.310   4.192   4.127  3.2840  1.5881  1.9379
   15bbb     C5  463   4.422   4.459   3.881 -0.6482 -0.6192  1.0296
   15bbb     H9  464   4.485   4.461   3.971  2.1044 -1.9714 -0.7400
   15bbb    H10  465   4.400   4.563   3.851  0.1098  0.1791  3.0581
   15bbb     C6  466   4.074   4.648   4.113 -0.3530  0.2516  0.3413
   15bbb    H11  467   4.161   4.703   4.149 -0.6188  1.4372 -0.7402
   15bbb    H12  468   4.023   4.584   4.186  1.4445 -1.9598 -0.2523
   15bbb     C7  469   4.139   4.116   4.243  0.0826 -0.4543 -0.6985
   15bbb    H13  470   4.083   4.151   4.330  0.7907  0.0168 -0.4189
   15bbb    H14  471   4.208   4.036   4.273 -1.1254 -0.7580  1.4343
   15bbb     C8  472   3.976   4.755   4.058 -0.8927 -0.6211 -0.3540
   15bbb    H15  473   4.025   4.838   4.006 -0.6799 -0.3113  0.3226
   15bbb    H16  474   3.928   4.815   4.136 -0.5151  0.4310 -0.9090
   15bbb     C9  475   4.498   4.378   3.766  0.4927 -0.8221  0.8577
   15bbb    H17  476   4.514   4.274   3.798 -0.0881 -1.0891  0.3016
   15bbb    H18  477   4.433   4.378   3.678 -0.2467  3.0506  1.2628
   15bbb     O1  478   4.042   4.065   4.145  0.0563  0.6197 -0.1378
   15bbb    H19  479   4.292   4.496   4.104 -0.0607 -1.2994  1.9297
   16bbb     N1  480   4.803   3.456   3.689  0.9928 -0.6609 -0.0179
   16bbb     C1  481   4.780   3.477   3.840  0.9288 -0.4726 -0.1437
   16bbb     H1  482   4.739   3.577   3.854 -0.2095 -1.0616  0.9762
   16bbb     H2  483   4.875   3.470   3.893  1.2457  1.1492 -0.4721
   16bbb     C2  484   4.822   3.312   3.652 -0.2018 -0.0451  0.2366
   16bbb     H3  485   4.814   3.300   3.544 -0.5014  2.7489 -0.1127
   16bbb     H4  486   4.732   3.260   3.687 -0.3350  0.2728  0.3719
   16bbb     C3  487   4.682   3.507   3.612 -0.2062  0.2034 -0.2130
   16bbb     H5  488   4.668   3.606   3.657  0.0844  0.6242 -1.0311
   16bbb     H6  489   4.592   3.447   3.629 -1.2198  1.1046 -2.0661
   16bbb     C4  490   4.702   3.525   3.457 -0.6428  0.2017 -0.4091
   16bbb     H7  491   4.712   3.427   3.411 -0.6563  0.1364 -0.2741
   16bbb     H8  492   4.791   3.587   3.441 -0.2160 -0.6492 -1.3954
   16bbb     C5  493   4.676   3.384   3.915  0.3876  0.9615 -0.2971
   16bbb     H9  494   4.722   3.284   3.917  0.5862  0.9946 -2.0190
   16bbb    H10  495   4.588   3.383   3.849  1.5892  3.9816 -2.1080
   16bbb     C6  496   4.947   3.232   3.708 -0.3627  0.5578 -0.2588
   16bbb    H11  497   4.973   3.273   3.806 -0.1147 -0.0925 -0.0508
   16bbb    H12  498   5.026   3.256   3.636  1.1988 -2.6767  0.2208
   16bbb     C7  499   4.584   3.613   3.399 -0.3595  0.9320  0.4044
   16bbb    H13  500   4.624   3.645   3.302  2.9680  1.2142  1.7413
   16bbb    H14  501   4.567   3.702   3.461 -0.9182  1.6617 -0.7824
   16bbb     C8  502   4.915   3.079   3.710 -0.0459  0.1962  0.0632
   16bbb    H15  503   4.876   3.050   3.611  0.5492 -1.8313  0.3653
   16bbb    H16  504   5.006   3.022   3.733  1.3388  3.1065  2.3330
   16bbb     C9  505   4.638   3.434   4.059  0.5773 -0.2169  0.7354
   16bbb    H17  506   4.594   3.535   4.052  0.1985 -0.3564  1.0818
   16bbb    H18  507   4.738   3.445   4.104  0.6292 -1.5985  0.9986
   16bbb     O1  508   4.462   3.539   3.388  0.5876  0.1024  0.3964
   16bbb    H19  509   4.882   3.515   3.658  1.5735  0.5177  3.2422
   17bbb     N1  510   3.834   2.751   3.906 -0.2720 -0.0083  0.0732
   17bbb     C1  511   3.690   2.798   3.900  0.4213 -0.6954 -0.1817
   17bbb     H1  512   3.681   2.898   3.942 -2.5334 -0.8629 -0.2015
   17bbb     H2  513   3.636   2.733   3.969  1.1871  0.1958  1.2924
   17bbb     C2  514   3.861   2.612   3.851  0.3359 -0.6793 -0.1487
   17bbb     H3  515   3.841   2.615   3.744 -2.6151  0.8418  0.3560
   17bbb     H4  516   3.796   2.538   3.899 -1.3779  0.3611 -0.7643
   17bbb     C3  517   3.931   2.845   3.839 -0.5561 -0.3991 -0.2815
   17bbb     H5  518   3.905   2.844   3.733 -1.1705  1.0856 -0.1673
   17bbb     H6  519   4.031   2.804   3.853 -1.4384 -1.9563  1.8767
   17bbb     C4  520   3.928   2.989   3.880  0.9162  0.4293 -0.5365
   17bbb     H7  521   3.916   2.996   3.989  0.4361 -0.5603 -0.5148
   17bbb     H8  522   3.837   3.040   3.846  0.8608  0.9338  0.3325
   17bbb     C5  523   3.630   2.794   3.765 -0.4937  0.1389 -0.3476
   17bbb     H9  524   3.661   2.702   3.714 -1.9521 -0.3662 -0.3541
   17bbb    H10  525   3.673   2.874   3.703  1.0318 -1.3381 -1.2832
   17bbb     C6  526   3.995   2.545   3.862 -0.3532 -0.1880 -0.4558
   17bbb    H11  527   4.021   2.536   3.969 -3.1656 -0.6552  0.2765
   17bbb    H12  528   4.069   2.608   3.812 -1.0014 -0.4550 -1.7911
   17bbb     C7  529   4.059   3.060   3.827  0.9503 -0.2330 -0.8635
   17bbb    H13  530   4.140   2.989   3.846 -0.4317 -1.0705  2.7162
   17bbb    H14  531   4.081   3.156   3.875  1.7472 -0.0677 -1.5399
   17bbb     C8  532   3.995   2.403   3.804  0.4230  0.6155 -0.5396
   17bbb    H15  533   3.970   2.406   3.697 -1.0776  0.7303 -0.2063
   17bbb    H16  534   4.092   2.356   3.824  1.5014  3.4960  1.6816
   17bbb     C9  535   3.479   2.801   3.762  0.5552  0.0253 -0.3890
   17bbb    H17  536   3.430   2.707   3.791  0.8605  0.6604  2.4925
   17bbb    H18  537   3.447   2.825   3.659 -0.3262  4.8734  0.7307
   17bbb     O1  538   4.047   3.070   3.678 -0.0076  0.5303 -0.0148
   17bbb    H19  539   3.848   2.735   4.007 -0.5598 -1.2484 -0.0563
   18bbb     N1  540   4.558   1.851   1.980  0.0422  0.4043 -0.0792
   18bbb     C1  541   4.700   1.798   2.004  0.4696  0.6007  0.3180
   18bbb     H1  542   4.716   1.725   1.924 -3.5560  2.1591 -2.2118
   18bbb     H2  543   4.703   1.747   2.100  1.1509 -0.4037 -0.2150
   18bbb     C2  544   4.467   1.743   1.922 -0.0606  0.0384  0.3019
   18bbb     H3  545   4.513   1.709   1.829 -1.6042  2.4032 -1.4269
   18bbb     H4  546   4.377   1.795   1.889  0.2821  0.6887  0.3960
   18bbb     C3  547   4.505   1.903   2.110  0.9089 -0.1064  0.2095
   18bbb     H5  548   4.577   1.979   2.143 -1.9081  1.8634  2.2106
   18bbb     H6  549   4.509   1.828   2.189 -0.2640  1.1963  1.5713
   18bbb     C4  550   4.370   1.972   2.098 -0.3110 -0.1030 -0.8105
   18bbb     H7  551   4.295   1.900   2.063  2.3539 -2.9786 -0.9619
   18bbb     H8  552   4.384   2.056   2.028  0.2772 -1.2794 -2.1351
   18bbb     C5  553   4.801   1.910   1.998 -0.1898 -0.0726  0.0467
   18bbb     H9  554   4.780   1.988   2.071  0.0221  0.1396 -0.1158
   18bbb    H10  555   4.797   1.964   1.902 -0.6664 -0.9339 -0.4346
   18bbb     C6  556   4.437   1.622   2.020  0.4087 -0.0323 -0.7113
   18bbb    H11  557   4.342   1.641   2.071 -0.6871 -0.3016 -2.5711
   18bbb    H12  558   4.516   1.608   2.095  0.9115  0.7649 -1.0858
   18bbb     C7  559   4.314   2.022   2.233  0.4922 -0.5271 -0.1160
   18bbb    H13  560   4.318   1.938   2.303  2.1642  0.2116  0.7474
   18bbb    H14  561   4.214   2.065   2.230  0.5595 -0.2480 -4.2284
   18bbb     C8  562   4.428   1.487   1.942  0.1026 -0.5633  0.7954
   18bbb    H15  563   4.527   1.473   1.896  0.6304  1.6899  1.1373
   18bbb    H16  564   4.408   1.401   2.006 -0.5877 -0.5747  0.5721
   18bbb     C9  565   4.938   1.856   2.028 -0.2320 -0.0172 -0.2391
   18bbb    H17  566   5.011   1.934   2.003  0.7010 -1.6508 -3.1074
   18bbb    H18  567   4.965   1.770   1.965 -0.0708  1.5687 -2.4718
   18bbb     O1  568   4.394   2.129   2.276  0.3406 -0.1145  0.0497
   18bbb    H19  569   4.557   1.920   1.904 -1.8577 -0.2460 -0.6915
   19bbb     N1  570   4.955   2.519   1.689 -0.7968 -0.5383  0.2851
   19bbb     C1  571   5.056   2.401   1.692 -0.0276 -0.0154  0.4321
   19bbb     H1  572   5.001   2.307   1.697 -2.5956  1.3701 -0.1785
   19bbb     H2  573   5.113   2.403   1.785 -0.4638  1.2251  0.6842
   19bbb     C2  574   4.830   2.484   1.596  0.0228  0.2008 -0.6705
   19bbb     H3  575   4.850   2.464   1.491 -0.2720  1.4074 -0.9721
   19bbb     H4  576   4.764   2.571   1.600 -1.6946 -1.0692 -0.0848
   19bbb     C3  577   4.914   2.556   1.832  0.4260 -0.9836  0.1397
   19bbb     H5  578   4.993   2.543   1.906 -1.2789  0.6549  2.4218
   19bbb     H6  579   4.838   2.487   1.871 -2.3293  3.3290  3.2729
   19bbb     C4  580   4.858   2.698   1.861  0.6150 -0.5732  0.6520
   19bbb     H7  581   4.762   2.713   1.811  1.3386 -2.0942 -1.3720
   19bbb     H8  582   4.925   2.766   1.806  0.0182 -1.5579 -1.4062
   19bbb     C5  583   5.154   2.388   1.574 -0.0619  0.0164 -0.9370
   19bbb     H9  584   5.201   2.486   1.562 -0.6096  0.8431  2.5866
   19bbb    H10  585   5.112   2.344   1.483 -1.5048  0.8254 -0.6999
   19bbb     C6  586   4.757   2.351   1.631  0.1834 -0.8564 -0.2158
   19bbb    H11  587   4.724   2.346   1.735 -1.1427 -0.1211 -0.5744
   19bbb    H12  588   4.821   2.263   1.621  0.5605 -0.7930  1.3472
   19bbb     C7  589   4.862   2.729   2.011  0.9327  0.0727 -0.7971
   19bbb    H13  590   4.835   2.834   2.031  0.2292 -0.6424  2.7746
   19bbb    H14  591   4.960   2.714   2.057  0.3774 -0.0263  0.4049
   19bbb     C8  592   4.636   2.323   1.539 -0.5473 -0.0491 -0.2779
   19bbb    H15  593   4.685   2.309   1.442  1.6036  1.5884  0.4839
   19bbb    H16  594   4.575   2.237   1.568  0.7200 -1.9256 -2.8175
   19bbb     C9  595   5.265   2.281   1.619  0.2668 -0.1430  0.5474
   19bbb    H17  596   5.304   2.303   1.720 -0.4348  0.9549  0.6001
   19bbb    H18  597   5.348   2.301   1.550 -0.2621  2.1517  0.4755
   19bbb     O1  598   4.764   2.645   2.077  0.2909  0.1572 -0.3972
   19bbb    H19  599   5.008   2.600   1.654  0.2846 -1.4140 -0.1519
   20bbb     N1  600   3.423   2.792   0.790 -0.4792 -0.1444  0.0775
   20bbb     C1  601   3.353   2.921   0.734 -0.7826  0.9746  0.2250
   20bbb     H1  602   3.439   2.968   0.685  0.5302 -1.5770 -0.0919
   20bbb     H2  603   3.326   2.989   0.815  0.4695 -0.4398  1.9114
   20bbb     C2  604   3.550   2.834   0.861 -0.0386  0.2332 -0.0759
   20bbb     H3  605   3.554   2.764   0.944  0.0940 -0.5438 -0.7260
   20bbb     H4  606   3.518   2.933   0.892  1.2532  1.0940 -1.3549
   20bbb     C3  607   3.329   2.719   0.885  0.2391 -0.5678 -0.0973
   20bbb     H5  608   3.384   2.633   0.921  1.1779  0.5878  1.3283
   20bbb     H6  609   3.250   2.679   0.821  0.4960 -0.0337 -0.7657
   20bbb     C4  610   3.265   2.790   0.998  0.4805  0.2819  0.4589
   20bbb     H7  611   3.227   2.884   0.957 -0.1548 -0.6606 -1.2267
   20bbb     H8  612   3.342   2.810   1.072 -1.9965  0.5744  3.1387
   20bbb     C5  613   3.251   2.898   0.629 -0.4548 -0.5284 -0.3323
   20bbb     H9  614   3.159   2.846   0.658 -1.1228  0.9896  0.4029
   20bbb    H10  615   3.307   2.847   0.549  0.9360  0.4707 -0.0267
   20bbb     C6  616   3.681   2.843   0.778  0.4335 -0.5086  0.0245
   20bbb    H11  617   3.685   2.934   0.717  1.2431 -0.9809 -0.6498
   20bbb    H12  618   3.704   2.752   0.721 -0.8567 -0.9421  0.1758
   20bbb     C7  619   3.142   2.717   1.062 -0.0299 -0.1290  0.5584
   20bbb    H13  620   3.163   2.610   1.070  0.7284  0.0000  0.3809
   20bbb    H14  621   3.062   2.739   0.991  2.0128  0.3555 -1.7129
   20bbb     C8  622   3.798   2.871   0.885  0.3577  0.5080  0.0033
   20bbb    H15  623   3.763   2.945   0.958 -3.5429 -1.0716 -0.0608
   20bbb    H16  624   3.820   2.779   0.941 -1.9009 -0.9024 -1.2867
   20bbb     C9  625   3.199   3.035   0.578 -0.4519  0.0026  0.2272
   20bbb    H17  626   3.125   3.079   0.645 -2.0598 -1.3578 -0.5593
   20bbb    H18  627   3.149   3.016   0.481  1.0646  0.3348 -0.6448
   20bbb     O1  628   3.111   2.753   1.197 -0.0185  0.4918 -0.1697
   20bbb    H19  629   3.453   2.737   0.708 -0.2294  0.7839 -0.4814
   21bbb     N1  630   2.796   2.285   1.432 -0.3206  0.3195  0.0026
   21bbb     C1  631   2.827   2.223   1.571 -0.3693  0.6903  0.0908
   21bbb     H1  632   2.733   2.212   1.626 -0.8087  0.2021 -0.7478
   21bbb     H2  633   2.895   2.285   1.629  1.6462 -1.7419  0.4868
   21bbb     C2  634   2.674   2.373   1.442 -0.3475  0.1004  0.1092
   21bbb     H3  635   2.699   2.451   1.514  0.4964 -0.7764  0.7990
   21bbb     H4  636   2.608   2.298   1.488 -0.2395 -0.9642 -1.4048
   21bbb     C3  637   2.921   2.356   1.380  0.0798  0.1452  0.1995
   21bbb     H5  638   2.973   2.402   1.465  1.1390 -0.3091 -0.1856
   21bbb     H6  639   2.892   2.435   1.311 -1.5885  0.9277  1.7082
   21bbb     C4  640   3.028   2.277   1.303 -0.6419  0.4517  0.7044
   21bbb     H7  641   2.977   2.239   1.214 -0.1897 -1.3656  1.1880
   21bbb     H8  642   3.067   2.186   1.351 -0.0596  0.8978  1.0960
   21bbb     C5  643   2.889   2.076   1.565 -0.1465 -0.8028  0.2881
   21bbb     H9  644   2.995   2.076   1.536 -0.4344 -0.8122 -0.8141
   21bbb    H10  645   2.834   2.012   1.494 -0.5825  1.4040 -1.4710
   21bbb     C6  646   2.611   2.441   1.309  0.3365  0.0264  0.1802
   21bbb    H11  647   2.567   2.369   1.238  1.3695  0.8402 -1.3447
   21bbb    H12  648   2.690   2.497   1.256 -0.4693  2.2466  1.2235
   21bbb     C7  649   3.146   2.359   1.247 -0.5640 -0.6036 -0.7507
   21bbb    H13  650   3.118   2.414   1.156  1.4174 -1.1488 -1.7319
   21bbb    H14  651   3.215   2.281   1.213  3.7216  1.9260  1.2352
   21bbb     C8  652   2.507   2.548   1.350  0.1783 -0.2810  0.1219
   21bbb    H15  653   2.556   2.628   1.407 -0.1909  1.4656 -1.8647
   21bbb    H16  654   2.463   2.598   1.262  2.0406 -0.4207 -0.9453
   21bbb     C9  655   2.884   2.013   1.705 -0.5008  0.1235 -0.0910
   21bbb    H17  656   2.783   1.993   1.744 -0.3902  0.7411  0.5261
   21bbb    H18  657   2.935   2.081   1.774  3.6503 -3.0042  0.3179
   21bbb     O1  658   3.201   2.441   1.343  0.0281  0.6741  0.4845
   21bbb    H19  659   2.763   2.216   1.362  1.3170  0.8780 -1.4003
   22bbb     N1  660   1.312   4.672   2.376  0.2675  0.0287  0.0609
   22bbb     C1  661   1.433   4.632   2.464  0.1630  0.3048  0.3428
   22bbb     H1  662   1.392   4.547   2.518 -0.6485 -1.5187 -2.8336
   22bbb     H2  663   1.454   4.717   2.528  0.4672  0.9090 -0.5323
   22bbb     C2  664   1.360   4.800   2.309  0.3308  0.2854  0.4986
   22bbb     H3  665   1.422   4.769   2.225  0.2976 -1.5852  1.1189
   22bbb     H4  666   1.425   4.853   2.379 -0.8107  2.0253  0.3101
   22bbb     C3  667   1.272   4.569   2.270 -0.1835  0.6031 -0.2592
   22bbb     H5  668   1.359   4.524   2.223 -1.6283 -2.4357 -0.2925
   22bbb     H6  669   1.208   4.612   2.193 -2.0570  1.0273  1.4412
   22bbb     C4  670   1.192   4.452   2.329  0.2590  0.0152 -0.2438
   22bbb     H7  671   1.088   4.486   2.338  0.4007  0.4180 -0.1176
   22bbb     H8  672   1.230   4.437   2.431 -1.7575  0.0205  0.5580
   22bbb     C5  673   1.556   4.568   2.390  0.0264  0.6914 -0.1338
   22bbb     H9  674   1.605   4.635   2.318  0.4159 -0.6346 -1.1477
   22bbb    H10  675   1.523   4.482   2.329  0.1736  2.7812 -3.4262
   22bbb     C6  676   1.259   4.894   2.250 -0.4315 -0.1908  0.9900
   22bbb    H11  677   1.191   4.941   2.322  0.2613 -0.4598  1.8245
   22bbb    H12  678   1.186   4.828   2.202 -0.6995  0.2933  0.7245
   22bbb     C7  679   1.211   4.331   2.225  0.0115 -0.0757 -0.4139
   22bbb    H13  680   1.202   4.366   2.122 -0.6848  0.9166 -0.0384
   22bbb    H14  681   1.134   4.260   2.259  0.8348 -0.0073  1.7949
   22bbb     C8  682   1.319   5.010   2.166  0.2986  0.1967 -0.1338
   22bbb    H15  683   1.242   5.080   2.132 -0.5079 -0.0318  1.1351
   22bbb    H16  684   1.392   5.057   2.233  0.3286 -2.0207  1.5047
   22bbb     C9  685   1.660   4.515   2.489 -0.0589 -0.1944  0.3097
   22bbb    H17  686   1.737   4.458   2.436 -0.7768 -1.4695  0.6095
   22bbb    H18  687   1.613   4.448   2.562  1.6815 -0.8555  0.8853
   22bbb     O1  688   1.342   4.282   2.263 -0.0568 -0.1286 -0.2846
   22bbb    H19  689   1.237   4.690   2.445 -0.0313 -0.1641 -0.2110
   23bbb     N1  690   1.449   3.446   1.807 -0.4256 -0.4495  0.1745
   23bbb     C1  691   1.423   3.506   1.945  0.2563  0.5234  0.3124
   23bbb     H1  692   1.363   3.428   1.992  0.3584  0.0971 -0.2443
   23bbb     H2  693   1.365   3.598   1.939 -0.7004 -0.1425 -1.4349
   23bbb     C2  694   1.321   3.419   1.737  0.2584 -0.0244  0.1742
   23bbb     H3  695   1.345   3.412   1.631 -1.8105  0.6865 -0.3815
   23bbb     H4  696   1.255   3.506   1.744 -0.1347 -0.4461  3.3415
   23bbb     C3  697   1.518   3.548   1.724  0.1090  0.0252 -0.1267
   23bbb     H5  698   1.478   3.645   1.756  1.2243  0.6180 -0.4805
   23bbb     H6  699   1.505   3.530   1.617  1.0922  0.7792 -0.3894
   23bbb     C4  700   1.666   3.541   1.722  0.0041  0.0649  0.2891
   23bbb     H7  701   1.694   3.451   1.667  1.0942  0.9410 -0.6343
   23bbb     H8  702   1.706   3.529   1.823  0.6310  0.0496  0.0450
   23bbb     C5  703   1.549   3.538   2.030  0.1995  0.3518  0.2546
   23bbb     H9  704   1.601   3.626   1.993 -2.2806  0.6672 -2.8939
   23bbb    H10  705   1.619   3.453   2.025 -0.4805 -0.2063  0.0200
   23bbb     C6  706   1.263   3.278   1.777  0.7278 -0.0485  0.4191
   23bbb    H11  707   1.321   3.233   1.859  3.1337  0.1051 -1.0889
   23bbb    H12  708   1.262   3.214   1.688 -0.4073  0.8168 -0.2077
   23bbb     C7  709   1.727   3.664   1.669 -0.1352 -0.4212  0.3903
   23bbb    H13  710   1.665   3.702   1.587 -0.8925 -1.1410  0.6174
   23bbb    H14  711   1.832   3.642   1.645 -0.1780  1.3764 -1.7507
   23bbb     C8  712   1.114   3.288   1.810 -1.1886  0.1379 -0.0691
   23bbb    H15  713   1.084   3.195   1.860  0.3546 -1.0327 -1.1974
   23bbb    H16  714   1.094   3.369   1.881 -0.2812 -0.9087  1.4316
   23bbb     C9  715   1.510   3.554   2.180 -0.6770 -0.4990 -0.2564
   23bbb    H17  716   1.430   3.627   2.195 -0.2759 -0.2613  0.8135
   23bbb    H18  717   1.600   3.597   2.226 -0.5086 -0.3072 -0.7549
   23bbb     O1  718   1.716   3.764   1.773  0.2901  0.0744  0.0270
   23bbb    H19  719   1.496   3.355   1.810 -0.6047 -0.5197  1.6411
   24bbb     N1  720   2.233   3.325   3.562  0.1031 -0.3423 -0.0016
   24bbb     C1  721   2.328   3.355   3.671  0.1752 -0.2868  0.0530
   24bbb     H1  722   2.368   3.454   3.650 -1.0502  0.3108  0.4754
   24bbb     H2  723   2.416   3.292   3.654  0.0350 -0.5269  0.2144
   24bbb     C2  724   2.292   3.362   3.430 -0.1519  0.0956 -0.2183
   24bbb     H3  725   2.286   3.280   3.359  2.5562 -0.4902  0.1010
   24bbb     H4  726   2.399   3.378   3.447 -0.1139  0.9953 -1.1837
   24bbb     C3  727   2.201   3.176   3.554 -0.8058  0.0880  0.0269
   24bbb     H5  728   2.182   3.138   3.654  2.2611 -0.2894  0.5734
   24bbb     H6  729   2.287   3.128   3.506 -0.9205 -0.5160  0.4207
   24bbb     C4  730   2.082   3.152   3.463  0.1985 -0.3774  0.0523
   24bbb     H7  731   2.076   3.043   3.455  1.1514 -0.3611 -1.2087
   24bbb     H8  732   2.099   3.188   3.360  1.5958 -2.2987 -0.4345
   24bbb     C5  733   2.279   3.334   3.819  0.0925  0.4504  0.6375
   24bbb     H9  734   2.220   3.242   3.818 -1.8749  1.6375 -1.1745
   24bbb    H10  735   2.212   3.414   3.851  1.1492  0.7879  2.1419
   24bbb     C6  736   2.233   3.492   3.362 -0.1921 -0.4891 -0.0078
   24bbb    H11  737   2.262   3.579   3.423  0.7697  0.0959 -1.2435
   24bbb    H12  738   2.124   3.493   3.357 -0.1957 -1.1879 -0.0798
   24bbb     C7  739   1.947   3.199   3.519  0.0873 -0.3636 -0.3524
   24bbb    H13  740   1.936   3.160   3.621 -0.6282 -1.9951 -1.0253
   24bbb    H14  741   1.862   3.153   3.467 -1.8107  0.6692  1.6173
   24bbb     C8  742   2.269   3.497   3.215 -0.6555 -0.3913  0.6475
   24bbb    H15  743   2.238   3.599   3.188 -0.5977 -0.5813 -0.1683
   24bbb    H16  744   2.377   3.483   3.205 -0.5968  0.6239 -0.4418
   24bbb     C9  745   2.399   3.323   3.915 -0.1069 -0.0804  0.4508
   24bbb    H17  746   2.438   3.221   3.923 -0.6479 -0.2838  0.5161
   24bbb    H18  747   2.360   3.342   4.015  1.1157  3.0278  0.4540
   24bbb     O1  748   1.943   3.345   3.516 -0.4820 -0.3969  0.2392
   24bbb    H19  749   2.141   3.371   3.570 -0.3139 -1.3437  1.4229
   25bbb     N1  750   1.219   3.583   3.827 -0.4078  0.0912  0.2051
   25bbb     C1  751   1.174   3.444   3.781 -0.0471 -0.2349  0.0402
   25bbb     H1  752   1.187   3.385   3.872 -1.5385 -0.9000 -0.1512
   25bbb     H2  753   1.244   3.412   3.703  0.4661 -0.7778  0.7102
   25bbb     C2  754   1.344   3.594   3.908  0.3218  0.0848 -0.6143
   25bbb     H3  755   1.366   3.701   3.912 -2.0149  0.6218 -0.4780
   25bbb     H4  756   1.431   3.549   3.862  1.4141  0.4643  0.9880
   25bbb     C3  757   1.227   3.674   3.698 -0.3868 -0.4916  0.2133
   25bbb     H5  758   1.134   3.663   3.641  0.4119 -0.5432 -1.1079
   25bbb     H6  759   1.311   3.641   3.637 -0.9519 -2.0015  0.2064
   25bbb     C4  760   1.246   3.827   3.724 -0.4203  0.1225  0.3958
   25bbb     H7  761   1.328   3.844   3.795 -1.0837  0.4759  1.0905
   25bbb     H8  762   1.164   3.877   3.776 -0.3323  0.2526  0.4101
   25bbb     C5  763   1.029   3.422   3.735  0.2592  0.4582 -0.3781
   25bbb     H9  764   1.020   3.478   3.642  2.9473  2.2228  0.3073
   25bbb    H10  765   0.947   3.463   3.795 -1.1772 -0.2161 -1.7975
   25bbb     C6  766   1.336   3.541   4.062  0.0484 -0.0314 -0.2602
   25bbb    H11  767   1.309   3.435   4.061 -4.1769  0.8842  0.0412
   25bbb    H12  768   1.261   3.592   4.122 -0.5122 -0.5959 -0.4707
   25bbb     C7  769   1.281   3.905   3.596 -0.3830 -0.3338 -0.3166
   25bbb    H13  770   1.295   4.009   3.628  0.1433  0.1703 -2.1159
   25bbb    H14  771   1.199   3.891   3.524  0.2736 -0.0444 -1.1255
   25bbb     C8  772   1.469   3.554   4.134  0.7239  0.2254 -0.1246
   25bbb    H15  773   1.468   3.522   4.239 -0.8476  1.0260  0.1249
   25bbb    H16  774   1.532   3.486   4.075 -2.0662 -0.5648 -2.3997
   25bbb     C9  775   1.005   3.272   3.708  0.1876 -0.2429 -0.1262
   25bbb    H17  776   0.988   3.228   3.808  0.9763  1.1183  0.6400
   25bbb    H18  777   1.089   3.241   3.646  0.0267  0.3923 -0.6673
   25bbb     O1  778   1.405   3.851   3.541 -0.6988 -0.2906 -0.9089
   25bbb    H19  779   1.147   3.624   3.888  0.9238  1.6480  0.7944
   26bbb     N1  780   4.255   5.336   2.589 -0.2057 -1.0456 -0.6728
   26bbb     C1  781   4.382   5.357   2.507  0.3270  0.0999 -0.2768
   26bbb     H1  782   4.461   5.387   2.576 -2.3345  1.3677  2.4631
   26bbb     H2  783   4.358   5.436   2.436 -0.3314 -1.4606 -1.8764
   26bbb     C2  784   4.226   5.446   2.689  0.0929  0.7742 -0.1326
   26bbb     H3  785   4.126   5.424   2.728  1.1156  0.3576  2.4707
   26bbb     H4  786   4.229   5.546   2.647  1.7852  0.7099 -0.2301
   26bbb     C3  787   4.140   5.344   2.488 -0.9057 -0.4541  0.1871
   26bbb     H5  788   4.170   5.288   2.399  0.9567 -0.3156  0.6841
   26bbb     H6  789   4.120   5.450   2.467 -2.5509 -0.6666  0.5339
   26bbb     C4  790   4.004   5.287   2.532  0.0533  0.1500  0.1986
   26bbb     H7  791   3.936   5.311   2.450 -0.4178  2.3692  1.1546
   26bbb     H8  792   3.963   5.329   2.624 -1.2020  0.8214 -0.6480
   26bbb     C5  793   4.439   5.238   2.418 -0.3372  0.1559 -0.3130
   26bbb     H9  794   4.376   5.236   2.328  0.8483  1.3593 -1.2018
   26bbb    H10  795   4.419   5.142   2.467 -0.5654  1.2827  1.8906
   26bbb     C6  796   4.323   5.435   2.810  0.0225  0.5903  0.0598
   26bbb    H11  797   4.423   5.425   2.764  0.1378 -0.3734  0.4965
   26bbb    H12  798   4.304   5.354   2.881  0.0565  1.1211  0.6813
   26bbb     C7  799   4.005   5.134   2.552  0.2225  0.0117  1.0054
   26bbb    H13  800   4.078   5.107   2.629  0.5578  2.9945  1.8690
   26bbb    H14  801   4.018   5.080   2.458  1.4170  0.0995  1.1115
   26bbb     C8  802   4.330   5.559   2.898  0.0630 -0.4990 -0.9073
   26bbb    H15  803   4.247   5.592   2.961  1.3327 -2.1510  1.8406
   26bbb    H16  804   4.404   5.534   2.976  0.4491  2.9397  0.0091
   26bbb     C9  805   4.588   5.255   2.366 -0.2886  0.1356 -0.0095
   26bbb    H17  806   4.621   5.160   2.322 -0.7347  0.8356 -1.9482
   26bbb    H18  807   4.654   5.275   2.452 -2.5576 -1.8899  2.3749
   26bbb     O1  808   3.881   5.092   2.606 -0.1391  0.6432 -0.3326
   26bbb    H19  809   4.267   5.240   2.622  0.7404 -1.1479 -1.3048
   27bbb     N1  810   3.253   5.617   2.904 -0.3094  0.4492  0.2274
   27bbb     C1  811   3.104   5.641   2.880 -0.0855  0.4869  0.0806
   27bbb     H1  812   3.085   5.749   2.874 -0.3065  0.4268 -0.3508
   27bbb     H2  813   3.050   5.611   2.970  2.5401 -2.7463  0.7568
   27bbb     C2  814   3.302   5.731   2.990  0.1492 -0.4937  0.8554
   27bbb     H3  815   3.273   5.714   3.094 -1.2926  1.8009  0.9128
   27bbb     H4  816   3.249   5.823   2.964  0.3559 -0.6181 -0.0225
   27bbb     C3  817   3.285   5.483   2.977 -0.6306 -0.8084 -0.0045
   27bbb     H5  818   3.236   5.486   3.074  0.4456 -0.7974  0.5581
   27bbb     H6  819   3.392   5.497   2.994 -0.6110  0.5583 -0.9897
   27bbb     C4  820   3.270   5.344   2.918  0.1067  0.2349 -0.5870
   27bbb     H7  821   3.335   5.340   2.830  1.0700 -2.0477  0.1474
   27bbb     H8  822   3.171   5.331   2.874 -0.0001  1.7140 -0.8321
   27bbb     C5  823   3.045   5.566   2.757 -0.4608 -0.1955 -0.1706
   27bbb     H9  824   2.956   5.510   2.786  0.6844 -2.6239 -1.0882
   27bbb    H10  825   3.110   5.482   2.728 -0.7269  0.2419 -2.1778
   27bbb     C6  826   3.454   5.765   2.985 -0.0174  0.7707 -0.1111
   27bbb    H11  827   3.500   5.748   2.887 -1.2661 -1.0580 -0.4362
   27bbb    H12  828   3.495   5.694   3.058 -1.7263  1.1718  1.3100
   27bbb     C7  829   3.301   5.213   3.003  0.0700 -0.9815 -0.0836
   27bbb    H13  830   3.234   5.206   3.089 -0.6981 -1.3361 -0.6893
   27bbb    H14  831   3.404   5.230   3.037  0.7318 -1.8828 -1.5039
   27bbb     C8  832   3.484   5.912   3.037  0.1776  0.2685 -0.0284
   27bbb    H15  833   3.451   5.924   3.141 -1.2399  1.1144 -0.5511
   27bbb    H16  834   3.432   5.988   2.978  0.1380 -0.6781 -1.2575
   27bbb     C9  835   3.013   5.660   2.637 -0.5919  0.4441 -0.2158
   27bbb    H17  836   3.106   5.682   2.583 -1.6920  1.2863 -1.8542
   27bbb    H18  837   2.954   5.597   2.569 -0.1458  1.1048 -1.2399
   27bbb     O1  838   3.300   5.100   2.921  0.2008 -0.2241 -0.3782
   27bbb    H19  839   3.298   5.623   2.812  1.9801 -2.4663  1.0005
   28bbb     N1  840   3.306   5.688   0.799 -0.1323  0.5861  0.2454
   28bbb     C1  841   3.455   5.709   0.787  0.3063  0.1512  0.4116
   28bbb     H1  842   3.497   5.648   0.706  1.3997  0.0204  1.0542
   28bbb     H2  843   3.501   5.688   0.883 -0.6906 -3.1317  0.2938
   28bbb     C2  844   3.245   5.696   0.655  0.1617 -0.2402  0.4030
   28bbb     H3  845   3.281   5.795   0.625  0.4685 -0.1167  1.1589
   28bbb     H4  846   3.137   5.689   0.667  0.3869 -4.0760  1.4469
   28bbb     C3  847   3.274   5.551   0.860 -1.1746 -0.2047 -0.4415
   28bbb     H5  848   3.326   5.468   0.813  0.3262 -0.7091  1.9067
   28bbb     H6  849   3.166   5.543   0.845 -1.3010  1.7096 -0.7302
   28bbb     C4  850   3.282   5.526   1.013  0.2753 -0.4857 -0.0824
   28bbb     H7  851   3.236   5.616   1.057  0.7703  1.1112 -2.6468
   28bbb     H8  852   3.386   5.531   1.046  0.5965 -0.5598 -1.0608
   28bbb     C5  853   3.497   5.852   0.752  0.3236 -0.0435  0.3251
   28bbb     H9  854   3.476   5.919   0.836  0.5379 -1.9959  2.0176
   28bbb    H10  855   3.441   5.894   0.667 -0.4710 -1.0102  0.3552
   28bbb     C6  856   3.293   5.593   0.549 -1.0518 -0.2268 -0.1402
   28bbb    H11  857   3.292   5.490   0.586  1.4193 -0.8112 -1.4548
   28bbb    H12  858   3.399   5.609   0.527 -1.4014  2.1229 -0.3850
   28bbb     C7  859   3.219   5.396   1.063  0.4938 -0.2073 -0.0139
   28bbb    H13  860   3.235   5.310   0.996  4.2540 -0.9699  1.6200
   28bbb    H14  861   3.114   5.423   1.078  0.7515  1.4353 -0.8854
   28bbb     C8  862   3.222   5.594   0.409 -0.2714 -1.0018 -0.1897
   28bbb    H15  863   3.124   5.546   0.418  0.3602 -2.1804  0.6582
   28bbb    H16  864   3.224   5.696   0.369  1.7350 -0.9469 -0.0570
   28bbb     C9  865   3.644   5.866   0.701  0.1374  0.1024  0.0413
   28bbb    H17  866   3.645   5.971   0.669  0.8535  1.0156  2.7660
   28bbb    H18  867   3.663   5.801   0.615 -0.2422 -1.4346  1.0662
   28bbb     O1  868   3.266   5.351   1.194  0.0418 -0.2223 -0.1556
   28bbb    H19  869   3.269   5.765   0.856 -0.5406  1.4232 -1.0867
   29bbb     N1  870   2.320   5.379   1.869  0.7174  0.0600 -0.1153
   29bbb     C1  871   2.323   5.533   1.865 -0.1617 -0.0338  0.0108
   29bbb     H1  872   2.376   5.569   1.777  0.4234  1.6586  1.0124
   29bbb     H2  873   2.387   5.569   1.946 -1.6382  2.4687  0.1635
   29bbb     C2  874   2.233   5.326   1.758  0.7066 -0.3016  0.7897
   29bbb     H3  875   2.274   5.351   1.660 -0.0766 -3.1964 -0.3882
   29bbb     H4  876   2.132   5.367   1.748  0.7519 -0.6574 -2.1626
   29bbb     C3  877   2.467   5.331   1.863 -0.2094  0.6351  0.3302
   29bbb     H5  878   2.496   5.331   1.758  0.0173 -3.2250  0.2461
   29bbb     H6  879   2.466   5.225   1.889  2.3443  0.2097 -1.0198
   29bbb     C4  880   2.585   5.393   1.939 -0.6280 -0.3035  0.2966
   29bbb     H7  881   2.583   5.342   2.036  1.9955 -2.4139 -0.6340
   29bbb     H8  882   2.576   5.497   1.972  1.3676 -0.0667  0.2248
   29bbb     C5  883   2.199   5.616   1.888 -0.1331 -0.5155  0.1686
   29bbb     H9  884   2.144   5.581   1.976 -0.5536  2.8738  1.3866
   29bbb    H10  885   2.127   5.604   1.806 -1.4295 -0.7656  1.3079
   29bbb     C6  886   2.209   5.170   1.753 -0.4024  0.1931 -0.5705
   29bbb    H11  887   2.159   5.143   1.847  0.7821  0.1808  0.0808
   29bbb    H12  888   2.302   5.114   1.765  0.0377  0.9094 -0.5617
   29bbb     C7  889   2.718   5.351   1.881 -0.1509  0.0076 -0.4876
   29bbb    H13  890   2.704   5.242   1.870  0.2843 -0.1104  0.0937
   29bbb    H14  891   2.791   5.375   1.958  1.9749 -1.1191 -2.0437
   29bbb     C8  892   2.123   5.114   1.637 -0.0521 -0.3578  0.7502
   29bbb    H15  893   2.111   5.006   1.626 -0.2984 -0.2428 -0.2259
   29bbb    H16  894   2.022   5.156   1.642  0.4429  1.1034 -0.6000
   29bbb     C9  895   2.227   5.767   1.900  0.5601  0.7273 -0.0002
   29bbb    H17  896   2.283   5.795   1.991  1.1977  1.1870 -0.5236
   29bbb    H18  897   2.131   5.818   1.915  1.3984  2.0862  1.1093
   29bbb     O1  898   2.742   5.425   1.766 -0.0677  0.4658 -0.5128
   29bbb    H19  899   2.276   5.348   1.958  0.5611 -1.0916 -0.5716
   30ccc     C1  900   3.330   5.501   4.572 -0.0479  0.0973  0.6352
   30ccc     H1  901   3.430   5.459   4.581  0.2355  0.5990 -0.0849
   30ccc     H2  902   3.280   5.506   4.669 -2.4102  1.5550 -0.5499
   30ccc     C2  903   3.238   5.414   4.481  0.7421  0.1401 -0.8822
   30ccc     H3  904   3.146   5.470   4.460 -0.1373 -1.4053 -1.3268
   30ccc     H4  905   3.292   5.408   4.386  1.6181 -0.6569 -0.3553
   30ccc     C3  906   3.209   5.274   4.543 -0.4282  0.5112  0.9308
   30ccc     H5  907   3.133   5.218   4.488 -1.3712  0.0924  2.6074
   30ccc     H6  908   3.181   5.271   4.649 -1.8619  2.5848  0.6612
   30ccc     N1  909   3.345   5.647   4.542  0.3680 -0.5221 -0.3836
   30ccc     H7  910   3.257   5.698   4.554  0.4865 -0.2711 -0.5667
   30ccc     H8  911   3.423   5.686   4.596  1.5176 -1.1020 -1.5680
   30ccc     O1  912   3.327   5.198   4.519 -0.4294 -0.6095  0.1403
   30ccc    H17  913   3.387   5.663   4.449  2.4062  1.8438  0.8377
   31ccc     C1  914   3.365   4.946   5.041 -0.2281  0.2304  0.4927
   31ccc     H1  915   3.375   4.965   4.934 -2.5541 -0.6405  0.0727
   31ccc     H2  916   3.424   5.028   5.082  1.3827  0.1957 -1.5844
   31ccc     C2  917   3.418   4.810   5.087  0.7939 -0.4464 -0.3342
   31ccc     H3  918   3.438   4.819   5.194  0.3933  1.5613 -0.3977
   31ccc     H4  919   3.339   4.736   5.069 -1.3470  1.0569  2.2484
   31ccc     C3  920   3.552   4.776   5.028 -0.3462 -0.1918 -0.0386
   31ccc     H5  921   3.611   4.708   5.091  0.3991 -0.1680 -0.7028
   31ccc     H6  922   3.615   4.863   5.006 -0.6610 -0.0381 -0.3395
   31ccc     N1  923   3.215   4.967   5.068 -0.5522 -0.0707 -0.1515
   31ccc     H7  924   3.189   4.982   5.166  0.1810 -1.9171  0.3621
   31ccc     H8  925   3.166   5.042   5.017 -1.0678 -0.1146  0.2677
   31ccc     O1  926   3.530   4.726   4.902 -0.2872  0.2622 -0.1533
   31ccc    H17  927   3.161   4.883   5.044 -2.6052  0.3687  2.4588
   32ccc     C1  928   3.597   4.877   3.775 -0.1799  0.6050 -0.0502
   32ccc     H1  929   3.537   4.888   3.866 -0.6655 -2.2631  0.0739
   32ccc     H2  930   3.543   4.836   3.690 -0.1849 -0.0111  0.2383
   32ccc     C2  931   3.713   4.779   3.811  0.1564  0.1232 -0.0027
   32ccc     H3  932   3.664   4.681   3.811  0.0710  0.1302  1.7703
   32ccc     H4  933   3.787   4.786   3.730  0.2994 -0.2209  0.0984
   32ccc     C3  934   3.780   4.806   3.942 -0.1522  0.6401  0.6650
   32ccc     H5  935   3.706   4.809   4.023 -1.1735  2.9865 -0.2613
   32ccc     H6  936   3.829   4.903   3.927  1.2773 -0.0785  0.5226
   32ccc     N1  937   3.639   5.017   3.736  0.1564 -0.1284  0.4428
   32ccc     H7  938   3.667   5.067   3.821  0.7751 -0.1110  0.2365
   32ccc     H8  939   3.709   5.023   3.660 -2.1767  1.1873 -1.7612
   32ccc     O1  940   3.874   4.699   3.976  0.4110 -0.5056  0.2775
   32ccc    H17  941   3.555   5.066   3.701  0.7021  1.1086  0.8211
   33ccc     C1  942   4.818   4.647   3.621 -0.1477 -0.4235  0.0731
   33ccc     H1  943   4.769   4.667   3.716 -0.3999 -1.5774  0.2059
   33ccc     H2  944   4.747   4.674   3.543  0.0526 -0.4401 -0.1177
   33ccc     C2  945   4.822   4.489   3.602 -0.5525  0.8102  0.2607
   33ccc     H3  946   4.877   4.459   3.512  1.1509  1.7021  0.9541
   33ccc     H4  947   4.884   4.453   3.685 -0.9833  0.5189  0.4600
   33ccc     C3  948   4.678   4.424   3.609 -0.5490  0.1403  0.0630
   33ccc     H5  949   4.686   4.317   3.584  2.1687  0.4158 -0.5008
   33ccc     H6  950   4.613   4.470   3.533 -0.4154  0.6483  0.2514
   33ccc     N1  951   4.954   4.719   3.618  0.0380 -0.3614  0.7331
   33ccc     H7  952   4.992   4.714   3.523 -2.3546  1.2764 -0.4080
   33ccc     H8  953   4.937   4.817   3.642 -0.3412 -0.4819  0.9650
   33ccc     O1  954   4.627   4.441   3.742  0.1027  0.3575 -0.7785
   33ccc    H17  955   5.028   4.679   3.677  0.2053  0.2433  0.9404
   34ccc     C1  956   4.669   2.949   4.065 -0.9586 -0.1158  0.2227
   34ccc     H1  957   4.581   2.998   4.108 -0.0605  0.6476  1.2367
   34ccc     H2  958   4.755   3.015   4.069  0.3399 -1.8169  1.8357
   34ccc     C2  959   4.623   2.937   3.907  0.1470  0.3370 -0.4143
   34ccc     H3  960   4.573   2.842   3.884  2.0697 -1.3508  1.7561
   34ccc     H4  961   4.558   3.016   3.870 -2.5397 -1.4230  0.2600
   34ccc     C3  962   4.749   2.930   3.813 -0.4207 -0.2996 -0.4503
   34ccc     H5  963   4.714   2.897   3.714  0.5965 -1.3584 -0.4715
   34ccc     H6  964   4.819   2.851   3.842  1.1909  1.9053  2.1867
   34ccc     N1  965   4.699   2.817   4.129 -0.0024  0.4013  0.1843
   34ccc     H7  966   4.612   2.763   4.142 -0.0803  0.3612 -0.4763
   34ccc     H8  967   4.770   2.758   4.083  0.4634  0.6577  0.5667
   34ccc     O1  968   4.815   3.062   3.814  0.6051  0.4117  0.3593
   34ccc    H17  969   4.736   2.837   4.223 -0.0813 -1.5370  0.6788
   35ccc     C1  970   4.688   3.214   4.361 -0.5153  0.6573 -0.4048
   35ccc     H1  971   4.732   3.220   4.262  1.2390  0.0710  0.3131
   35ccc     H2  972   4.626   3.124   4.369 -0.3471  0.2415 -2.9853
   35ccc     C2  973   4.615   3.345   4.367 -1.0055  0.3962  0.3247
   35ccc     H3  974   4.563   3.353   4.463  0.1947  2.1143  0.8753
   35ccc     H4  975   4.699   3.415   4.369  1.2180 -2.1223  0.0089
   35ccc     C3  976   4.508   3.360   4.257  0.0252 -0.4928 -0.7286
   35ccc     H5  977   4.475   3.464   4.261  2.4259  0.3191 -0.5545
   35ccc     H6  978   4.417   3.299   4.267  0.5361 -1.4352 -1.6658
   35ccc     N1  979   4.792   3.197   4.457 -0.4052 -0.3826 -0.2049
   35ccc     H7  980   4.853   3.279   4.457  0.9626 -1.3208  1.2429
   35ccc     H8  981   4.754   3.166   4.548 -0.1681 -0.1962 -0.0427
   35ccc     O1  982   4.554   3.338   4.123  0.3651  0.1258  0.1948
   35ccc    H17  983   4.844   3.114   4.426  1.5640  0.4195  0.8126
   36ccc     C1  984   3.666   2.212   3.741  0.3146  0.6597 -0.1479
   36ccc     H1  985   3.717   2.204   3.645  0.6193 -0.4103  0.0942
   36ccc     H2  986   3.665   2.316   3.774 -0.9542  0.4957  0.3595
   36ccc     C2  987   3.744   2.133   3.844  0.0031 -0.4962  0.0470
   36ccc     H3  988   3.694   2.151   3.940 -0.5742  0.1213 -0.3583
   36ccc     H4  989   3.737   2.026   3.819 -0.5780 -0.3835 -0.2826
   36ccc     C3  990   3.888   2.185   3.853  0.5120 -0.0114 -0.6168
   36ccc     H5  991   3.934   2.174   3.754  1.4362  0.9633 -0.3136
   36ccc     H6  992   3.943   2.128   3.929  1.4205 -0.8814 -1.8770
   36ccc     N1  993   3.521   2.177   3.724 -0.0938 -0.2949 -0.1427
   36ccc     H7  994   3.516   2.101   3.656 -0.4265 -0.9689  0.6217
   36ccc     H8  995   3.478   2.153   3.815  0.5227  0.4526  0.3558
   36ccc     O1  996   3.891   2.325   3.878 -0.0390  0.1511  0.0828
   36ccc    H17  997   3.464   2.258   3.695  1.0859  1.0832  1.1607
   37ccc     C1  998   3.322   3.075   4.044 -0.1111 -0.4314  0.2699
   37ccc     H1  999   3.370   3.172   4.059 -2.2644  0.6452  0.5260
   37ccc     H2 1000   3.398   2.998   4.062  1.6638  1.3686  0.8541
   37ccc     C2 1001   3.272   3.077   3.897  0.0305  0.3980 -0.4066
   37ccc     H3 1002   3.168   3.110   3.892 -1.0260 -2.7001 -0.6933
   37ccc     H4 1003   3.331   3.151   3.840  2.6908 -1.3950 -0.1766
   37ccc     C3 1004   3.289   2.944   3.826 -0.1514 -0.7224 -0.2377
   37ccc     H5 1005   3.266   2.959   3.720  0.5819  2.3317 -0.0509
   37ccc     H6 1006   3.216   2.876   3.870 -0.1633 -0.1997  0.5719
   37ccc     N1 1007   3.209   3.074   4.147 -0.3681  0.0470 -0.1250
   37ccc     H7 1008   3.146   3.155   4.134  1.3927  1.3890 -0.6327
   37ccc     H8 1009   3.157   2.985   4.149 -1.4848  0.6471  2.4522
   37ccc     O1 1010   3.430   2.907   3.852 -0.1345  0.2448  0.4277
   37ccc    H17 1011   3.247   3.087   4.242 -0.6952 -0.0339  0.0196
   38ccc     C1 1012   4.197   1.237   1.596 -0.6987 -0.7068  1.0787
   38ccc     H1 1013   4.287   1.176   1.599 -1.7359 -2.3298  0.3536
   38ccc     H2 1014   4.177   1.263   1.493 -1.2938  0.3633  1.4481
   38ccc     C2 1015   4.238   1.370   1.660 -0.5094  0.1088 -0.5551
   38ccc     H3 1016   4.324   1.410   1.604 -0.6769  0.6486 -0.4271
   38ccc     H4 1017   4.159   1.445   1.660  0.6135  1.4376  2.3472
   38ccc     C3 1018   4.277   1.366   1.801  0.0249 -0.4149 -0.6320
   38ccc     H5 1019   4.344   1.280   1.814  0.4645  0.0634  0.4180
   38ccc     H6 1020   4.194   1.348   1.870  1.0863  1.0918  1.1229
   38ccc     N1 1021   4.092   1.143   1.645  0.4760  0.0078 -0.2047
   38ccc     H7 1022   4.126   1.101   1.733  1.2366 -1.3987 -1.1236
   38ccc     H8 1023   4.000   1.188   1.657 -0.4263 -2.2738  2.8335
   38ccc     O1 1024   4.338   1.494   1.836  0.0390 -0.3060 -0.1238
   38ccc    H17 1025   4.087   1.061   1.582 -0.6355  0.7982 -1.1915
   39ccc     C1 1026   5.152   1.813   2.366  0.0606  0.6841 -0.2455
   39ccc     H1 1027   5.194   1.895   2.308 -2.6348  2.4440  0.1024
   39ccc     H2 1028   5.151   1.735   2.290 -0.2673  1.0898 -0.6572
   39ccc     C2 1029   5.007   1.834   2.404 -0.1606 -0.6568  0.3229
   39ccc     H3 1030   4.964   1.736   2.427 -0.0580 -0.7420  0.1500
   39ccc     H4 1031   4.995   1.900   2.491 -3.4615 -0.0335 -0.4887
   39ccc     C3 1032   4.939   1.897   2.283  0.4506 -0.3874  0.0061
   39ccc     H5 1033   4.978   1.999   2.275 -3.2044  1.3549  1.5935
   39ccc     H6 1034   4.831   1.911   2.302  0.1730  0.7521 -2.1741
   39ccc     N1 1035   5.244   1.783   2.483  0.0144 -0.6103 -0.4209
   39ccc     H7 1036   5.227   1.838   2.569 -2.3444 -1.3609 -0.3226
   39ccc     H8 1037   5.248   1.682   2.501 -6.4604 -1.1015  0.7861
   39ccc     O1 1038   4.945   1.810   2.167  0.0981 -0.2664 -0.5544
   39ccc    H17 1039   5.340   1.804   2.453  0.7435  0.1408  2.1507
   40ccc     C1 1040   4.345   2.624   1.548 -0.0468 -0.2730 -0.5294
   40ccc     H1 1041   4.306   2.724   1.528  0.3783 -0.4634 -2.5312
   40ccc     H2 1042   4.438   2.645   1.601 -0.5289  0.7576 -0.0538
   40ccc     C2 1043   4.367   2.555   1.414  0.3785 -0.8504 -1.1756
   40ccc     H3 1044   4.273   2.555   1.359 -0.0953  0.2607 -0.3890
   40ccc     H4 1045   4.432   2.614   1.348  0.5094  0.7012  0.2813
   40ccc     C3 1046   4.439   2.418   1.433  0.3929  0.4080 -0.2938
   40ccc     H5 1047   4.482   2.374   1.342  0.4349  1.3094 -0.7289
   40ccc     H6 1048   4.371   2.354   1.490  2.0149  1.9467  3.7763
   40ccc     N1 1049   4.250   2.548   1.633  0.1952 -0.2552  0.2397
   40ccc     H7 1050   4.163   2.534   1.579  0.9927  0.1286 -1.2115
   40ccc     H8 1051   4.291   2.461   1.670 -1.3729 -0.4071  1.7400
   40ccc     O1 1052   4.551   2.443   1.524  0.0826 -0.3030 -0.4188
   40ccc    H17 1053   4.208   2.600   1.711 -2.5852  1.3870 -2.1432
   41ccc     C1 1054   5.235   1.898   1.443 -0.3549  0.1220  0.1319
   41ccc     H1 1055   5.162   1.971   1.407 -0.4338  0.3119  0.6738
   41ccc     H2 1056   5.203   1.800   1.408  1.0269 -0.9026  1.5919
   41ccc     C2 1057   5.249   1.902   1.598 -0.4997  0.5221  0.2778
   41ccc     H3 1058   5.156   1.884   1.653 -0.7419 -2.2583 -0.8717
   41ccc     H4 1059   5.320   1.822   1.624  1.1445  1.6533 -0.5688
   41ccc     C3 1060   5.298   2.039   1.634 -0.8786  0.8130 -0.1533
   41ccc     H5 1061   5.397   2.056   1.590 -0.7713  1.2919  0.2663
   41ccc     H6 1062   5.314   2.038   1.743 -0.0655 -0.5777 -0.2681
   41ccc     N1 1063   5.360   1.916   1.373  0.3162  0.3545  0.6785
   41ccc     H7 1064   5.430   1.845   1.398 -1.7427 -1.6629  1.0529
   41ccc     H8 1065   5.341   1.901   1.273 -0.9846 -0.6876  1.0535
   41ccc     O1 1066   5.210   2.148   1.604 -0.5196 -0.4742  0.6402
   41ccc    H17 1067   5.399   2.011   1.389 -0.1364  0.8517 -0.9435
   42ccc     C1 1068   4.120   3.131   0.710 -0.2887 -0.4173 -0.1128
   42ccc     H1 1069   4.172   3.204   0.773  1.4741 -2.3281  0.7816
   42ccc     H2 1070   4.016   3.154   0.687 -0.9061  0.1325  2.8434
   42ccc     C2 1071   4.131   2.995   0.780  0.4399 -0.7580 -0.7213
   42ccc     H3 1072   4.143   2.917   0.703 -0.3793 -0.4765 -1.1411
   42ccc     H4 1073   4.220   2.987   0.843  0.1103 -1.4589 -0.3277
   42ccc     C3 1074   4.013   2.962   0.883 -0.9508 -0.2396  0.8277
   42ccc     H5 1075   3.994   3.050   0.946  1.3214  1.1207 -0.2451
   42ccc     H6 1076   4.044   2.881   0.950  1.5067  0.6138  0.8155
   42ccc     N1 1077   4.188   3.135   0.581  0.1419  0.0059  0.3103
   42ccc     H7 1078   4.280   3.089   0.584  0.4616  0.6843  1.1392
   42ccc     H8 1079   4.133   3.089   0.507  0.2209  2.3870 -1.3562
   42ccc     O1 1080   3.903   2.920   0.808 -0.0754 -0.1989  0.2806
   42ccc    H17 1081   4.206   3.234   0.555 -0.2456  0.0912  0.3483
   43ccc     C1 1082   3.389   3.259   0.283  0.2427 -0.0582  0.0529
   43ccc     H1 1083   3.449   3.178   0.324 -2.1776 -0.3937  3.3593
   43ccc     H2 1084   3.430   3.357   0.309  0.9241 -0.5668  0.9624
   43ccc     C2 1085   3.254   3.246   0.350 -0.4916  0.3882  0.1454
   43ccc     H3 1086   3.190   3.327   0.313 -0.8675 -0.2632 -0.6539
   43ccc     H4 1087   3.204   3.151   0.327 -1.2956  0.5645  1.1103
   43ccc     C3 1088   3.265   3.252   0.501  0.0838 -0.7569 -0.2366
   43ccc     H5 1089   3.162   3.269   0.537  0.2539 -1.2916  0.5426
   43ccc     H6 1090   3.324   3.335   0.543  1.1754 -1.8599  0.4615
   43ccc     N1 1091   3.393   3.262   0.133  0.0553  0.6777  0.3239
   43ccc     H7 1092   3.320   3.324   0.095 -1.4269 -0.4364  1.2380
   43ccc     H8 1093   3.495   3.272   0.123  0.3325  1.3826  3.0295
   43ccc     O1 1094   3.307   3.129   0.559 -0.2513  0.6346 -0.6490
   43ccc    H17 1095   3.376   3.172   0.088  0.6403  0.6309  0.1800
   44ccc     C1 1096   2.223   2.504   1.745 -0.4266  0.0418 -0.6345
   44ccc     H1 1097   2.172   2.599   1.730 -3.5831 -1.7558 -2.1566
   44ccc     H2 1098   2.315   2.529   1.799  0.1184 -0.0820 -1.4915
   44ccc     C2 1099   2.255   2.453   1.606  0.3025 -0.3342  0.3756
   44ccc     H3 1100   2.305   2.356   1.619 -0.0093 -0.6716 -0.8502
   44ccc     H4 1101   2.162   2.429   1.553  1.4780 -2.0397 -1.0107
   44ccc     C3 1102   2.350   2.548   1.532 -0.7298 -0.0578  0.1296
   44ccc     H5 1103   2.436   2.582   1.590 -0.9816  0.6059  0.1224
   44ccc     H6 1104   2.294   2.638   1.503 -2.7550 -1.6415 -1.1718
   44ccc     N1 1105   2.143   2.411   1.842  0.2096  0.0452 -0.0087
   44ccc     H7 1106   2.122   2.452   1.934 -2.4486 -1.2718  0.0837
   44ccc     H8 1107   2.048   2.409   1.801  0.4329  0.5563 -0.5712
   44ccc     O1 1108   2.401   2.484   1.413 -0.0613 -0.1360  0.0402
   44ccc    H17 1109   2.177   2.314   1.846  0.3265  0.0665 -0.4238
   45ccc     C1 1110   2.999   1.610   1.686  0.2247 -0.2511  0.0380
   45ccc     H1 1111   3.066   1.544   1.631  1.6002  0.3331  0.9693
   45ccc     H2 1112   2.943   1.650   1.602 -0.6113 -1.8107 -0.2054
   45ccc     C2 1113   3.080   1.712   1.764  0.6804 -0.2764  0.0880
   45ccc     H3 1114   3.127   1.667   1.852  2.5417 -3.4826 -2.3319
   45ccc     H4 1115   3.155   1.758   1.698 -0.3993  1.3165 -0.1092
   45ccc     C3 1116   2.997   1.837   1.811  0.1276  0.8342  0.3374
   45ccc     H5 1117   3.057   1.900   1.879 -1.1607  0.9329  1.4324
   45ccc     H6 1118   2.905   1.819   1.868 -1.3713 -0.9547 -2.4033
   45ccc     N1 1119   2.912   1.520   1.780 -0.1648 -0.8083  0.1451
   45ccc     H7 1120   2.885   1.429   1.741 -5.2241  0.0621  1.0029
   45ccc     H8 1121   2.961   1.499   1.868 -0.2463 -1.5685  0.0083
   45ccc     O1 1122   2.962   1.900   1.694 -0.7231 -0.0714 -0.0497
   45ccc    H17 1123   2.820   1.559   1.803 -0.2776 -0.2258 -1.1787
   46ccc     C1 1124   1.506   4.940   1.778 -0.0732 -0.8735  0.4563
   46ccc     H1 1125   1.569   4.972   1.861  0.3469 -2.6339  0.8614
   46ccc     H2 1126   1.459   5.027   1.733  0.0800 -0.0966  1.7416
   46ccc     C2 1127   1.392   4.854   1.828 -0.5686  0.3184 -0.2196
   46ccc     H3 1128   1.337   4.807   1.746  0.5294 -2.0707  0.3354
   46ccc     H4 1129   1.434   4.765   1.876 -0.6433 -0.0538 -0.8251
   46ccc     C3 1130   1.302   4.927   1.932 -0.6148  0.6588  0.1655
   46ccc     H5 1131   1.222   4.857   1.957  0.0734 -1.2377 -2.4607
   46ccc     H6 1132   1.264   5.021   1.891 -1.9886  0.9684  2.0528
   46ccc     N1 1133   1.596   4.873   1.674  0.2857  0.3273  0.6712
   46ccc     H7 1134   1.608   4.773   1.698 -2.1177 -0.3252 -0.5336
   46ccc     H8 1135   1.551   4.875   1.582  0.3346 -2.1632  0.5235
   46ccc     O1 1136   1.384   4.955   2.048 -0.4315  0.5470 -0.0744
   46ccc    H17 1137   1.687   4.921   1.668  0.3196  0.5664  2.4646
   47ccc     C1 1138   1.926   4.837   2.601 -1.1993  0.8710  0.4537
   47ccc     H1 1139   1.834   4.871   2.554 -2.5323 -2.2271  0.5781
   47ccc     H2 1140   1.991   4.789   2.528  0.2265 -0.2879  2.3919
   47ccc     C2 1141   1.877   4.734   2.700 -0.4703 -0.4740  0.0680
   47ccc     H3 1142   1.961   4.697   2.760 -1.5633 -4.2585 -0.4898
   47ccc     H4 1143   1.795   4.771   2.763  0.7139  1.3247  0.6394
   47ccc     C3 1144   1.840   4.612   2.623  0.3192 -0.2074  0.0288
   47ccc     H5 1145   1.826   4.526   2.690  2.0170 -1.0505 -0.6440
   47ccc     H6 1146   1.926   4.585   2.561 -0.1568 -1.3483 -0.1772
   47ccc     N1 1147   2.004   4.950   2.670  0.4094 -0.4840 -0.2389
   47ccc     H7 1148   2.059   4.999   2.598 -2.1198  1.5208 -0.9582
   47ccc     H8 1149   1.947   5.019   2.722  3.2896 -0.6484  3.6163
   47ccc     O1 1150   1.722   4.633   2.545 -0.2789  0.1317 -0.1128
   47ccc    H17 1151   2.073   4.922   2.741  1.1211  1.5658 -0.0683
   48ccc     C1 1152   0.884   3.215   1.445  0.7456 -0.0683  0.3225
   48ccc     H1 1153   0.794   3.155   1.451  0.7512 -0.1534 -0.4040
   48ccc     H2 1154   0.968   3.158   1.485  1.4052 -1.4274 -2.7680
   48ccc     C2 1155   0.863   3.347   1.526 -0.2766 -0.2699 -0.3602
   48ccc     H3 1156   0.930   3.424   1.486  1.5216 -0.6377  1.7157
   48ccc     H4 1157   0.759   3.382   1.526 -0.1832  0.0329 -1.2134
   48ccc     C3 1158   0.895   3.331   1.678  0.0589  0.5172 -0.0536
   48ccc     H5 1159   0.835   3.252   1.725  3.4290 -0.6914  2.5579
   48ccc     H6 1160   0.883   3.429   1.724  3.0941  1.6538 -1.4270
   48ccc     N1 1161   0.914   3.242   1.296  0.3902  0.8229 -0.0648
   48ccc     H7 1162   0.843   3.292   1.241  0.3308 -0.4797 -1.2271
   48ccc     H8 1163   0.996   3.305   1.292 -0.7914  2.3210 -2.0685
   48ccc     O1 1164   1.038   3.298   1.684 -0.2072 -0.5330 -0.7249
   48ccc    H17 1165   0.924   3.156   1.241 -2.6159 -0.3436  1.0458
   49ccc     C1 1166   1.454   3.192   2.416  0.0005  0.3107 -0.1970
   49ccc     H1 1167   1.470   3.165   2.521 -0.3203  2.1764  0.3681
   49ccc     H2 1168   1.542   3.221   2.358 -0.3864  0.7246 -0.5829
   49ccc     C2 1169   1.378   3.320   2.433 -0.0253  0.3138 -0.1848
   49ccc     H3 1170   1.283   3.317   2.377  1.0996  2.1329 -2.4108
   49ccc     H4 1171   1.353   3.337   2.538  3.1682 -0.0143  0.7271
   49ccc     C3 1172   1.443   3.442   2.377  0.5878 -0.1560 -0.4806
   49ccc     H5 1173   1.524   3.486   2.436  2.5747  0.4292 -3.4302
   49ccc     H6 1174   1.364   3.518   2.382 -0.5037 -1.3229  0.6344
   49ccc     N1 1175   1.375   3.075   2.358 -0.6430 -0.3401 -0.2855
   49ccc     H7 1176   1.287   3.049   2.403 -1.1770 -2.6370 -2.3915
   49ccc     H8 1177   1.358   3.087   2.257 -1.0235  0.6918 -0.1154
   49ccc     O1 1178   1.483   3.429   2.242 -0.1934 -0.0945 -0.2504
   49ccc    H17 1179   1.433   2.989   2.364  0.8330  0.5872 -0.5666
   50ccc     C1 1180   2.232   3.156   2.942  0.8286  0.0360  0.3603
   50ccc     H1 1181   2.285   3.163   3.037  0.0593  0.5934  0.7506
   50ccc     H2 1182   2.297   3.152   2.854  1.7510 -0.7739  1.0643
   50ccc     C2 1183   2.141   3.281   2.934 -0.4794  0.6503  0.3991
   50ccc     H3 1184   2.132   3.298   2.826 -0.9949  1.2261  0.5282
   50ccc     H4 1185   2.045   3.250   2.975  0.6984 -2.9879  0.7183
   50ccc     C3 1186   2.213   3.401   2.999  0.4575 -0.2568 -0.1303
   50ccc     H5 1187   2.164   3.489   2.957 -2.5773 -0.6472  2.2739
   50ccc     H6 1188   2.318   3.396   2.968  1.3637 -0.7187  2.6533
   50ccc     N1 1189   2.155   3.027   2.924  0.5808 -0.0857 -0.2391
   50ccc     H7 1190   2.081   3.043   2.855  0.5836 -1.5014 -0.6068
   50ccc     H8 1191   2.212   2.948   2.890 -1.1862 -2.1970  1.4182
   50ccc     O1 1192   2.210   3.393   3.145 -0.1754  0.1012  0.2702
   50ccc    H17 1193   2.112   3.000   3.014  0.0692 -0.6346 -0.6382
   51ccc     C1 1194   2.716   3.577   3.763 -0.0143  0.7083  0.2821
   51ccc     H1 1195   2.612   3.588   3.730 -0.0604  0.4736  0.3487
   51ccc     H2 1196   2.758   3.489   3.716 -0.8637 -0.2777  1.3126
   51ccc     C2 1197   2.714   3.543   3.915  0.3170  0.6952  0.2833
   51ccc     H3 1198   2.815   3.536   3.956  0.5721  3.8444  0.4665
   51ccc     H4 1199   2.668   3.624   3.973 -1.3576 -0.9422  1.3532
   51ccc     C3 1200   2.632   3.419   3.957  0.3205 -0.4994  0.5140
   51ccc     H5 1201   2.623   3.414   4.066 -1.7959  0.7869  0.4647
   51ccc     H6 1202   2.685   3.329   3.924  2.6058  1.0765 -0.3889
   51ccc     N1 1203   2.795   3.699   3.730  0.7598  0.0828  1.0889
   51ccc     H7 1204   2.755   3.753   3.652 -1.7380 -1.7373  0.9529
   51ccc     H8 1205   2.797   3.769   3.805  1.4123  3.8813 -2.1268
   51ccc     O1 1206   2.498   3.428   3.890  1.4852  0.0859  0.2355
   51ccc    H17 1207   2.896   3.686   3.719  0.6628 -0.8520  1.2036
   52ccc     C1 1208   1.809   3.915   4.155  0.3847 -0.3964 -0.0054
   52ccc     H1 1209   1.811   3.907   4.046 -2.0544  1.3069 -0.2665
   52ccc     H2 1210   1.877   3.843   4.201 -0.1698  0.7939  2.8915
   52ccc     C2 1211   1.665   3.879   4.206 -0.2586  0.5525  0.4632
   52ccc     H3 1212   1.666   3.900   4.314 -1.6681 -1.3654  0.9008
   52ccc     H4 1213   1.579   3.933   4.164 -1.7821 -0.9967  1.4662
   52ccc     C3 1214   1.635   3.727   4.191  0.1934 -0.7010  0.1306
   52ccc     H5 1215   1.657   3.677   4.286 -0.9564 -0.2894  0.6366
   52ccc     H6 1216   1.716   3.679   4.134  0.5496 -2.6313  2.1472
   52ccc     N1 1217   1.840   4.058   4.198  0.3597 -0.3590 -1.0695
   52ccc     H7 1218   1.820   4.072   4.298  1.3872  0.1412 -0.9314
   52ccc     H8 1219   1.932   4.096   4.174  0.0776  1.4089  0.5136
   52ccc     O1 1220   1.506   3.693   4.125 -0.5574 -0.1739  0.9913
   52ccc    H17 1221   1.774   4.119   4.147  1.6572  0.4611 -1.7994
   53ccc     C1 1222   0.691   3.216   3.412  1.0560  0.1063  1.2296
   53ccc     H1 1223   0.738   3.166   3.327  1.4492  1.5910  0.5454
   53ccc     H2 1224   0.732   3.315   3.431 -2.0815  1.8403 -0.2041
   53ccc     C2 1225   0.691   3.144   3.553 -0.2040 -0.1622 -0.3250
   53ccc     H3 1226   0.622   3.194   3.622 -1.0088 -0.6395 -0.7652
   53ccc     H4 1227   0.654   3.041   3.547  1.4244 -0.8190  0.5878
   53ccc     C3 1228   0.830   3.133   3.614  0.2953  0.2388  0.4620
   53ccc     H5 1229   0.897   3.070   3.553 -0.9747  0.2849 -1.0364
   53ccc     H6 1230   0.811   3.078   3.707 -3.7820  2.2336  0.9967
   53ccc     N1 1231   0.562   3.258   3.355 -0.3753  0.2738  0.2635
   53ccc     H7 1232   0.487   3.188   3.370  0.3470 -0.3642  1.0174
   53ccc     H8 1233   0.535   3.353   3.383  3.1547  1.4316  0.2850
   53ccc     O1 1234   0.884   3.262   3.632 -0.0979 -0.0754 -0.1506
   53ccc    H17 1235   0.573   3.265   3.252  0.3997 -0.6269  0.2671
   54ccc     C1 1236   4.359   5.981   2.726 -0.1694  0.1626 -0.6179
   54ccc     H1 1237   4.264   6.008   2.774 -2.0243 -0.1482 -3.8463
   54ccc     H2 1238   4.330   5.913   2.646 -2.1287 -1.2187  1.1629
   54ccc     C2 1239   4.460   5.901   2.801  0.0720 -0.0283  0.4680
   54ccc     H3 1240   4.535   5.847   2.742 -0.4549 -1.6060  1.2010
   54ccc     H4 1241   4.521   5.971   2.860  0.7809  0.8925 -1.2857
   54ccc     C3 1242   4.385   5.799   2.894 -0.4352 -0.0575  0.8249
   54ccc     H5 1243   4.285   5.829   2.929 -0.4536 -2.1860  2.8700
   54ccc     H6 1244   4.442   5.799   2.987 -1.1594  0.3436  1.2760
   54ccc     N1 1245   4.401   6.097   2.650 -0.7429  0.3421  0.0936
   54ccc     H7 1246   4.437   6.065   2.558 -1.2631 -0.2611  0.0913
   54ccc     H8 1247   4.321   6.160   2.641 -3.0219 -2.0241  2.1445
   54ccc     O1 1248   4.384   5.674   2.825  0.1918  0.1295 -0.6345
   54ccc    H17 1249   4.468   6.150   2.708 -0.4831 -2.6882  2.8441
   55ccc     C1 1250   4.618   5.542   2.019  0.3189 -0.6774 -0.1257
   55ccc     H1 1251   4.515   5.511   2.039  0.1798 -0.1154  0.0405
   55ccc     H2 1252   4.677   5.485   1.947  1.3168  0.1816 -0.0004
   55ccc     C2 1253   4.684   5.543   2.156  0.4420  0.2375  0.4005
   55ccc     H3 1254   4.784   5.583   2.137  1.3173 -0.5115  3.0139
   55ccc     H4 1255   4.633   5.608   2.228 -0.7621  1.5731 -1.5721
   55ccc     C3 1256   4.710   5.405   2.225  0.0965 -0.3331  0.5539
   55ccc     H5 1257   4.780   5.419   2.308 -0.7201  2.5448  0.8517
   55ccc     H6 1258   4.759   5.340   2.151 -0.2245 -0.3795  0.3763
   55ccc     N1 1259   4.603   5.677   1.954  0.2023  0.0260  0.5273
   55ccc     H7 1260   4.691   5.728   1.937 -0.5824  0.5499 -2.6085
   55ccc     H8 1261   4.556   5.665   1.863 -0.1839  0.3952  0.6766
   55ccc     O1 1262   4.584   5.357   2.265 -0.2567  0.0896 -0.3829
   55ccc    H17 1263   4.537   5.733   2.010 -1.3114  0.5752 -1.6543
   56ccc     C1 1264   3.869   6.060   2.915  0.5961  0.4560 -0.7333
   56ccc     H1 1265   3.797   6.008   2.851 -0.5277  0.6033  0.3573
   56ccc     H2 1266   3.969   6.027   2.887  0.4644  1.5177 -2.6136
   56ccc     C2 1267   3.844   6.039   3.063  0.1007  0.3467 -0.4014
   56ccc     H3 1268   3.888   5.945   3.099  0.3812  0.6245 -0.0139
   56ccc     H4 1269   3.897   6.117   3.119 -1.1548  0.3386  0.8728
   56ccc     C3 1270   3.692   6.028   3.094 -0.1810 -0.3324 -0.4113
   56ccc     H5 1271   3.649   6.128   3.083  0.3621  0.0216  0.6506
   56ccc     H6 1272   3.686   6.003   3.200 -0.1127 -1.5806 -0.6835
   56ccc     N1 1273   3.854   6.201   2.880 -0.4230 -0.6537 -0.1857
   56ccc     H7 1274   3.887   6.208   2.782  2.9478 -1.3790  0.7611
   56ccc     H8 1275   3.758   6.239   2.880  0.0435  0.5695  0.1456
   56ccc     O1 1276   3.623   5.935   3.019 -0.6962  0.0715  0.3586
   56ccc    H17 1277   3.913   6.263   2.937  1.3749  0.1551 -2.7468
   57ccc     C1 1278   2.899   6.073   2.702  0.0410  0.1570 -0.1455
   57ccc     H1 1279   2.996   6.120   2.685  0.0492  0.2800  0.2204
   57ccc     H2 1280   2.914   6.015   2.793 -1.5709 -0.7555 -0.4236
   57ccc     C2 1281   2.855   5.979   2.587 -0.1671 -0.0979 -0.3621
   57ccc     H3 1282   2.755   5.939   2.611  0.3620  0.2342  2.7719
   57ccc     H4 1283   2.835   6.040   2.498  0.5745 -0.4817 -0.7987
   57ccc     C3 1284   2.946   5.864   2.561 -0.1584  0.2886  0.4264
   57ccc     H5 1285   3.052   5.887   2.544 -0.0806  0.0329  0.5613
   57ccc     H6 1286   2.916   5.812   2.469  0.5820 -0.6128  0.6823
   57ccc     N1 1287   2.805   6.186   2.725  0.5841 -0.4094 -0.2703
   57ccc     H7 1288   2.714   6.140   2.740  1.8516 -2.5657  1.5407
   57ccc     H8 1289   2.823   6.234   2.814  0.9051 -0.8743 -0.0800
   57ccc     O1 1290   2.933   5.775   2.672 -0.3940 -0.4587 -0.0692
   57ccc    H17 1291   2.800   6.262   2.656 -0.4470  0.3781  0.6346
   58ccc     C1 1292   3.308   5.357  -0.013 -0.2102  0.2878 -0.4065
   58ccc     H1 1293   3.392   5.332  -0.077 -0.9617 -0.8661 -0.9560
   58ccc     H2 1294   3.261   5.441  -0.066 -3.9277 -0.2592  1.6969
   58ccc     C2 1295   3.361   5.405   0.130 -0.0095 -0.2678  0.3178
   58ccc     H3 1296   3.411   5.324   0.185  2.3259  0.8281 -0.0759
   58ccc     H4 1297   3.427   5.493   0.123 -0.3537  0.1177  1.5989
   58ccc     C3 1298   3.242   5.454   0.220 -0.7296 -0.0801  0.3893
   58ccc     H5 1299   3.169   5.377   0.249 -2.4018  1.9836  2.0504
   58ccc     H6 1300   3.180   5.527   0.166 -0.8422  1.2902  2.2489
   58ccc     N1 1301   3.227   5.226  -0.020  0.1023  0.1859 -1.0559
   58ccc     H7 1302   3.133   5.235   0.021 -1.5674 -2.3700 -3.9977
   58ccc     H8 1303   3.213   5.208  -0.120 -0.9823  3.0461 -1.5075
   58ccc     O1 1304   3.303   5.505   0.335 -0.0906 -0.2078 -0.7715
   58ccc    H17 1305   3.270   5.149   0.034 -0.3539  0.0506 -0.8844
   59ccc     C1 1306   3.842   6.062   0.991  1.0446 -0.3081  0.5829
   59ccc     H1 1307   3.741   6.024   1.006  1.0409 -0.7351 -0.4675
   59ccc     H2 1308   3.846   6.149   0.926  0.0313  1.3311  2.5772
   59ccc     C2 1309   3.924   5.951   0.918  0.2304 -0.6340 -0.9549
   59ccc     H3 1310   4.020   6.002   0.898 -0.0852  0.2463 -0.3160
   59ccc     H4 1311   3.940   5.858   0.974 -0.4920 -0.2741 -0.1371
   59ccc     C3 1312   3.860   5.909   0.787  0.2236 -0.4755 -0.3070
   59ccc     H5 1313   3.928   5.852   0.722  1.8222  1.5254 -0.4827
   59ccc     H6 1314   3.840   6.002   0.732 -1.7458 -0.8280 -0.2689
   59ccc     N1 1315   3.885   6.094   1.133 -0.6270  0.5210 -0.2916
   59ccc     H7 1316   3.899   6.004   1.181 -0.1232  0.6483 -0.1956
   59ccc     H8 1317   3.975   6.142   1.146 -0.5236 -0.2674  2.7564
   59ccc     O1 1318   3.735   5.845   0.808 -0.3433  0.2335 -0.3651
   59ccc    H17 1319   3.825   6.153   1.192  0.0911  1.7068 -0.7173
   60ccc     C1 1320   2.308   5.230   1.243  0.0044  0.5061 -0.3587
   60ccc     H1 1321   2.326   5.137   1.190  0.6853  0.0787  0.5846
   60ccc     H2 1322   2.384   5.232   1.321 -1.3535  1.8859  0.9984
   60ccc     C2 1323   2.160   5.245   1.298  0.7620 -0.7953  0.5771
   60ccc     H3 1324   2.163   5.339   1.355  0.7503 -1.0245  0.9586
   60ccc     H4 1325   2.082   5.247   1.221  1.1076  1.5630  0.2107
   60ccc     C3 1326   2.115   5.136   1.399  0.5967 -0.0033  0.0136
   60ccc     H5 1327   2.139   5.040   1.350  4.1255 -0.1521  1.6747
   60ccc     H6 1328   2.008   5.144   1.421  0.4063  0.0716 -0.9125
   60ccc     N1 1329   2.347   5.329   1.143  0.2701 -0.2121  0.4959
   60ccc     H7 1330   2.448   5.320   1.126  0.0754 -1.0497 -0.2617
   60ccc     H8 1331   2.304   5.323   1.049  1.0646 -0.1635  0.1255
   60ccc     O1 1332   2.190   5.156   1.520 -0.3617 -0.7760 -0.3518
   60ccc    H17 1333   2.334   5.425   1.178  1.5245  0.3788 -0.5859
   61ccc     C1 1334   2.477   5.930   1.590  0.3525  0.3924  0.4779
   61ccc     H1 1335   2.464   5.823   1.571  1.7816  0.2260  0.3488
   61ccc     H2 1336   2.552   5.938   1.668  1.5319  0.1223 -0.5964
   61ccc     C2 1337   2.347   6.004   1.633  1.3806 -0.6735 -0.0064
   61ccc     H3 1338   2.368   6.105   1.672 -0.0015 -0.7749  1.1129
   61ccc     H4 1339   2.269   6.021   1.558  0.0730 -0.8242  1.2704
   61ccc     C3 1340   2.286   5.959   1.768 -0.0161  0.0017 -0.4632
   61ccc     H5 1341   2.186   6.002   1.776  0.0803  0.1787 -0.1859
   61ccc     H6 1342   2.350   6.000   1.847 -0.3560 -0.0674 -0.1506
   61ccc     N1 1343   2.544   5.984   1.466  0.5967 -0.2902  0.2226
   61ccc     H7 1344   2.572   6.082   1.460  1.0145 -0.3965  0.4169
   61ccc     H8 1345   2.632   5.934   1.446  0.7306 -1.5733  3.4624
   61ccc     O1 1346   2.284   5.816   1.774  0.0139  0.2386 -0.3214
   61ccc    H17 1347   2.478   5.973   1.387 -0.8576  1.1205  1.1593
   62SOL     OW 1348   4.028   5.343   0.852  0.6466  0.3671  0.2149
   62SOL    HW1 1349   3.983   5.263   0.823  0.5854  0.1136  0.9897
   62SOL    HW2 1350   4.051   5.326   0.943  1.4579  0.8774  0.1214
   63SOL     OW 1351   2.973   5.534   6.028  0.2418 -0.4016 -0.1385
   63SOL    HW1 1352   2.962   5.601   6.096  0.8964 -0.4390  0.0124
   63SOL    HW2 1353   2.971   5.583   5.946  1.6998 -0.0412  0.0043
   64SOL     OW 1354   2.812   8.199   0.468 -0.5376  0.7980  0.5448
   64SOL    HW1 1355   2.828   8.287   0.504 -1.2582  1.4525 -0.6412
   64SOL    HW2 1356   2.889   8.148   0.493  0.2741  1.9961  0.5908
   65SOL     OW 1357   2.213   7.772   6.794  0.4470 -0.3893  0.1823
   65SOL    HW1 1358   2.182   7.848   6.843 -1.1313  0.2019 -1.6095
   65SOL    HW2 1359   2.182   7.696   6.845 -1.0666  0.1994  0.1999
   66SOL     OW 1360   5.757   4.151   2.284 -0.1482 -0.0342  0.7924
   66SOL    HW1 1361   5.681   4.093   2.288 -0.9770  1.0372  1.1178
   66SOL    HW2 1362   5.790   4.154   2.373 -0.4820  0.4476  0.9089
   67SOL     OW 1363   3.256   8.725   0.685 -0.1767  0.3351  0.0796
   67SOL    HW1 1364   3.345   8.692   0.675 -0.4844 -0.9830  1.4061
   67SOL    HW2 1365   3.206   8.651   0.717 -1.8539  0.9508 -0.9672
   68SOL     OW 1366   2.833   6.339   5.397  0.1958  0.3261 -0.0534
   68SOL    HW1 1367   2.757   6.292   5.431 -0.0512  1.3318  0.8764
   68SOL    HW2 1368   2.849   6.301   5.311 -2.5256  1.3133 -1.1286
   69SOL     OW 1369   4.046   3.911   3.541 -0.3977  0.4216 -0.0786
   69SOL    HW1 1370   4.037   3.867   3.625  1.0243 -0.9367 -0.5771
   69SOL    HW2 1371   4.108   3.982   3.557 -0.5366  0.4935  0.1352
   70SOL     OW 1372   1.716   0.076   6.868 -0.1895 -0.2674 -0.3272
   70SOL    HW1 1373   1.694   0.091   6.777 -0.6472  0.7383 -0.0638
   70SOL    HW2 1374   1.657   0.134   6.917 -0.4390 -1.2896  0.6431
   71SOL     OW 1375   4.704   8.646   4.509 -0.2672 -0.1323  0.0841
   71SOL    HW1 1376   4.706   8.564   4.461 -2.1494 -0.6726  0.8407
   71SOL    HW2 1377   4.740   8.625   4.595 -2.9346 -0.8555  1.1299
   72SOL     OW 1378   1.522   5.253   1.471 -0.4147  0.2631  0.4695
   72SOL    HW1 1379   1.565   5.335   1.494 -1.2298  0.7322  0.3878
   72SOL    HW2 1380   1.439   5.255   1.520  0.1246 -1.1379  1.5262
   73SOL     OW 1381   0.733   6.599   4.143  0.3878  0.1938  0.0324
   73SOL    HW1 1382   0.777   6.556   4.070 -1.4453 -0.0401 -0.9940
   73SOL    HW2 1383   0.794   6.590   4.216  2.5098  0.8935 -1.5529
   74SOL     OW 1384   5.975   0.763   1.259 -0.1128  0.2518  0.0108
   74SOL    HW1 1385   5.928   0.729   1.336  2.2800 -1.7309  0.7264
   74SOL    HW2 1386   5.934   0.719   1.185 -0.4105 -0.2166  0.4451
   75SOL     OW 1387   7.603   2.426   8.541 -0.3728  0.1202  0.3097
   75SOL    HW1 1388   7.605   2.503   8.485 -1.1216 -0.1649 -0.1321
   75SOL    HW2 1389   7.548   2.363   8.494  0.5544 -0.8423  0.4604
   76SOL     OW 1390   3.748   6.378   6.997  0.2715  0.1336 -0.2255
   76SOL    HW1 1391   3.716   6.390   6.907  0.2135  0.2085 -0.1946
   76SOL    HW2 1392   3.817   6.444   7.006  1.2366 -0.7738 -0.6805
   77SOL     OW 1393   8.581   6.617   5.558 -0.3917 -0.2449  0.4066
   77SOL    HW1 1394   8.501   6.565   5.549 -1.0112  0.5829  1.0560
   77SOL    HW2 1395   8.621   6.587   5.639 -0.1731 -0.4650  0.2215
   78SOL     OW 1396   3.218   2.753   1.822 -0.0950 -0.3249  0.0731
   78SOL    HW1 1397   3.273   2.797   1.887 -0.2765 -2.0816  1.4791
   78SOL    HW2 1398   3.131   2.791   1.833 -0.0421 -0.3542  0.6204
   79SOL     OW 1399   0.788   3.188   4.897 -0.1670  0.3221  0.3539
   79SOL    HW1 1400   0.776   3.179   4.803 -0.8298 -2.7645  0.6215
   79SOL    HW2 1401   0.755   3.106   4.933  1.1710  0.9065  3.1969
   80SOL     OW 1402   3.649   4.003   4.427 -0.5263 -0.0527  0.2285
   80SOL    HW1 1403   3.610   4.077   4.474  0.4073  0.0234  0.8961
   80SOL    HW2 1404   3.711   3.966   4.488  1.8645  0.9673 -1.4347
   81SOL     OW 1405   4.169   5.784   0.719 -0.4437 -0.7047 -0.5259
   81SOL    HW1 1406   4.197   5.818   0.804  2.9292  0.8617 -2.0544
   81SOL    HW2 1407   4.237   5.722   0.694 -0.8908 -0.5270 -2.3921
   82SOL     OW 1408   0.877   8.756   8.562  0.1731 -0.0157  0.0014
   82SOL    HW1 1409   0.971   8.756   8.547  0.0050  0.1329 -1.1499
   82SOL    HW2 1410   0.867   8.777   8.655  1.3236 -1.9556  0.6074
   83SOL     OW 1411   3.964   3.720   6.177  0.0196  0.1637 -0.7365
   83SOL    HW1 1412   3.986   3.729   6.084  1.7046  0.2252 -0.3552
   83SOL    HW2 1413   3.898   3.651   6.179  1.1327 -0.9684 -1.8371
   84SOL     OW 1414   4.663   0.625   2.120  0.3632 -0.0286  0.1871
   84SOL    HW1 1415   4.660   0.719   2.103  1.4887  0.3861  1.9877
   84SOL    HW2 1416   4.730   0.615   2.188  0.7883 -2.2174 -0.4754
   85SOL     OW 1417   2.216   3.775   6.163 -0.2544 -0.1416  0.2763
   85SOL    HW1 1418   2.129   3.749   6.132 -0.6183  1.0541  0.2191
   85SOL    HW2 1419   2.276   3.720   6.114 -0.9430 -0.1466 -0.5961
   86SOL     OW 1420   6.637   3.048   1.697  0.4116  0.7038 -0.5300
   86SOL    HW1 1421   6.555   3.063   1.649 -0.2676 -1.3106 -0.0936
   86SOL    HW2 1422   6.654   3.132   1.741 -3.1791  0.3899  1.9417
   87SOL     OW 1423   1.228   7.902   0.350  0.2696  0.0732  0.4812
   87SOL    HW1 1424   1.292   7.865   0.411  0.9962  2.0806  1.0277
   87SOL    HW2 1425   1.214   7.833   0.285  3.8972 -0.0849 -0.3575
   88SOL     OW 1426   6.587   8.361   0.423  0.7371  0.0505  0.6573
   88SOL    HW1 1427   6.662   8.311   0.456  1.2326  0.5049  0.2454
   88SOL    HW2 1428   6.589   8.347   0.328 -0.1120 -0.4827  0.7065
   89SOL     OW 1429   8.145   4.294   6.453 -0.2653 -0.3335 -0.0387
   89SOL    HW1 1430   8.213   4.313   6.388  0.0005 -0.1116  0.2988
   89SOL    HW2 1431   8.100   4.217   6.419  0.8206 -1.1108  0.2402
   90SOL     OW 1432   5.039   1.079   7.643 -0.0429  0.2698 -0.3773
   90SOL    HW1 1433   4.987   1.128   7.580 -1.9400 -0.7139  0.3567
   90SOL    HW2 1434   4.981   1.010   7.675  1.0633  0.2859  1.9256
   91SOL     OW 1435   6.854   0.603   1.854 -0.0562  0.4910  0.1963
   91SOL    HW1 1436   6.806   0.551   1.790 -0.3576 -0.0393  0.8479
   91SOL    HW2 1437   6.939   0.559   1.861 -0.3203  0.0677  0.7658
   92SOL     OW 1438   7.157   3.374   5.798 -0.2400  0.4325  0.0469
   92SOL    HW1 1439   7.170   3.337   5.885  0.5160 -1.2722 -0.7426
   92SOL    HW2 1440   7.076   3.424   5.805  0.9346  2.2068  2.2835
   93SOL     OW 1441   7.156   1.214   2.624  0.0501  0.0705 -0.0225
   93SOL    HW1 1442   7.072   1.193   2.664 -2.3952  0.8458 -4.1883
   93SOL    HW2 1443   7.211   1.137   2.641 -2.9552 -2.4174 -0.6271
   94SOL     OW 1444   4.553   0.991   0.434  0.0092  0.0843  0.0865
   94SOL    HW1 1445   4.478   0.966   0.380  0.2873 -1.5392  0.3925
   94SOL    HW2 1446   4.522   0.982   0.524  0.4231 -0.1264  0.2113
   95SOL     OW 1447   8.462   4.396   3.150 -0.2721  0.1428  0.0885
   95SOL    HW1 1448   8.492   4.383   3.240 -0.3062  0.1044  0.0945
   95SOL    HW2 1449   8.395   4.464   3.158  1.2113  1.7051 -0.1834
   96SOL     OW 1450   4.147   6.845   3.431  0.4266  0.1980  0.4595
   96SOL    HW1 1451   4.220   6.901   3.458  0.7957  0.6998 -1.4541
   96SOL    HW2 1452   4.157   6.766   3.484  2.5292  0.1418  0.0765
   97SOL     OW 1453   6.467   7.029   6.404 -0.1218 -0.1081 -0.4818
   97SOL    HW1 1454   6.485   7.107   6.352  0.6657 -0.7692 -1.2177
   97SOL    HW2 1455   6.398   7.057   6.465  0.9518  1.5062  0.0705
   98SOL     OW 1456   7.155   5.224   4.678 -0.4993  0.0177 -0.1507
   98SOL    HW1 1457   7.128   5.154   4.737 -0.8901  0.0800 -0.2522
   98SOL    HW2 1458   7.249   5.233   4.693 -0.5133 -0.2783  0.1274
   99SOL     OW 1459   6.239   2.172   4.292  1.2964  0.2243  0.3130
   99SOL    HW1 1460   6.215   2.095   4.240 -0.0747  1.6904 -1.4069
   99SOL    HW2 1461   6.157   2.198   4.335  2.0482 -0.0061  1.9551
  100SOL     OW 1462   8.169   3.771   2.372 -0.2665  0.3404  0.0902
  100SOL    HW1 1463   8.189   3.719   2.450 -0.8384  1.1850  0.8144
  100SOL    HW2 1464   8.254   3.783   2.329 -0.0441 -0.6840  0.2220
  101SOL     OW 1465   5.552   4.175   2.999 -0.1718 -0.3164  0.4826
  101SOL    HW1 1466   5.637   4.132   3.013  0.2770  0.5375  0.3953
  101SOL    HW2 1467   5.534   4.220   3.081  0.3772  1.0742 -0.1324
  102SOL     OW 1468   4.325   0.812   1.784 -0.2274 -0.4209 -0.5336
  102SOL    HW1 1469   4.341   0.863   1.705 -0.9485  0.9497  0.1767
  102SOL    HW2 1470   4.406   0.763   1.798 -0.0798 -0.6784 -2.0903
  103SOL     OW 1471   1.006   8.384   1.981  0.4339 -0.2088  0.0006
  103SOL    HW1 1472   0.961   8.411   2.061  0.2438  1.1104 -0.5368
  103SOL    HW2 1473   1.014   8.289   1.990 -2.1380 -0.4660  0.2678
  104SOL     OW 1474   0.439   1.837   1.949 -0.3221  0.0603 -0.2364
  104SOL    HW1 1475   0.497   1.882   1.886  0.7226 -1.0633 -0.1198
  104SOL    HW2 1476   0.381   1.906   1.981  2.5522  1.8805  1.5217
  105SOL     OW 1477   7.127   7.437   1.997  0.4865  0.2728 -0.2684
  105SOL    HW1 1478   7.076   7.413   1.920 -0.2646 -0.6627  0.4993
  105SOL    HW2 1479   7.090   7.385   2.068  3.5416 -1.7706  0.0239
  106SOL     OW 1480   2.808   0.417   8.678  0.1060  0.3225  0.5089
  106SOL    HW1 1481   2.760   0.428   8.596  0.7530  0.7767  0.1854
  106SOL    HW2 1482   2.897   0.445   8.658  0.2380  0.5670  1.4045
  107SOL     OW 1483   4.518   1.037   0.720 -0.0623  0.2489 -0.3252
  107SOL    HW1 1484   4.547   1.066   0.807  1.6413 -0.0516 -0.7472
  107SOL    HW2 1485   4.504   0.943   0.729 -3.1032  0.6832  0.4019
  108SOL     OW 1486   6.569   3.916   8.596  0.0584 -0.8904 -0.6316
  108SOL    HW1 1487   6.532   3.984   8.540 -0.3264  0.1956  0.8588
  108SOL    HW2 1488   6.622   3.863   8.537 -1.0150 -0.3431 -2.1646
  109SOL     OW 1489   0.081   7.775   5.827 -0.9005 -0.5196 -0.0543
  109SOL    HW1 1490   0.117   7.760   5.915 -0.8594 -1.5487 -0.2346
  109SOL    HW2 1491  -0.007   7.739   5.831 -0.7307 -1.0046 -0.5638
  110SOL     OW 1492   0.430   5.201   4.152  0.1316  0.1628 -0.0454
  110SOL    HW1 1493   0.385   5.231   4.231  0.1477  0.0131  0.0213
  110SOL    HW2 1494   0.462   5.113   4.175 -0.6447 -0.2544 -0.5244
  111SOL     OW 1495   4.569   7.208   6.812  0.8408 -0.2557 -0.1966
  111SOL    HW1 1496   4.482   7.211   6.771 -0.3756 -2.1120  1.9932
  111SOL    HW2 1497   4.572   7.286   6.868  0.1528 -0.6588  0.4255
  112SOL     OW 1498   1.960   4.905   2.287  0.0221 -0.2143 -0.9691
  112SOL    HW1 1499   1.978   4.997   2.272  1.0755 -0.4585 -1.3390
  112SOL    HW2 1500   2.039   4.860   2.257  0.8687 -1.0220  2.0752
  113SOL     OW 1501   0.067   0.157   6.979  0.1703 -0.1246 -0.7514
  113SOL    HW1 1502   0.057   0.250   6.959 -0.4593 -0.2477 -1.0287
  113SOL    HW2 1503   0.005   0.140   7.049  0.8774 -0.1612 -0.1213
  114SOL     OW 1504   7.850   7.977   0.915 -0.2765 -0.7771 -0.3495
  114SOL    HW1 1505   7.895   7.899   0.882 -2.2513 -2.5603  0.8917
  114SOL    HW2 1506   7.773   7.985   0.858 -0.3295 -0.0007 -0.1782
  115SOL     OW 1507   7.754   6.511   8.559 -0.0859  0.7356 -0.1763
  115SOL    HW1 1508   7.823   6.572   8.534  0.6411  0.9050  1.9847
  115SOL    HW2 1509   7.800   6.433   8.589 -0.9289 -0.0043 -0.7590
  116SOL     OW 1510   4.692   4.165   7.120 -0.1502 -0.1041  0.3113
  116SOL    HW1 1511   4.618   4.199   7.169 -1.0670  0.4845 -1.3994
  116SOL    HW2 1512   4.698   4.073   7.146 -0.3570  0.2658  1.7575
  117SOL     OW 1513   1.261   0.124   0.402  0.5070  0.2920 -0.3188
  117SOL    HW1 1514   1.257   0.143   0.495 -0.5401 -0.0087 -0.2877
  117SOL    HW2 1515   1.210   0.194   0.361 -1.3747 -1.0631 -0.4054
  118SOL     OW 1516   6.941   2.527   5.407 -0.7403 -0.0786 -0.5162
  118SOL    HW1 1517   6.907   2.443   5.437  0.8355 -1.2393 -1.7930
  118SOL    HW2 1518   6.865   2.585   5.407 -1.9936 -1.6406 -0.1338
  119SOL     OW 1519   1.087   1.976   4.469  0.2797  0.9004 -0.2188
  119SOL    HW1 1520   1.090   2.062   4.427  0.9399  0.4578 -1.1172
  119SOL    HW2 1521   1.168   1.934   4.443  0.0084  0.0345  0.2948
  120SOL     OW 1522   1.107   4.469   7.001  0.6381 -0.1751  0.6406
  120SOL    HW1 1523   1.186   4.503   6.959  0.6674 -1.5980 -0.5223
  120SOL    HW2 1524   1.059   4.547   7.028  1.2536  0.7829 -0.8989
  121SOL     OW 1525   3.024   7.058   6.370  0.9516  0.5303 -0.2867
  121SOL    HW1 1526   2.963   7.124   6.340 -0.3813 -0.2737  0.5526
  121SOL    HW2 1527   3.058   7.092   6.453  1.2378  0.7260 -0.4815
  122SOL     OW 1528   5.717   4.304   8.742  0.0043  0.1642 -0.2939
  122SOL    HW1 1529   5.633   4.350   8.749  0.0719  0.3354 -0.5709
  122SOL    HW2 1530   5.698   4.214   8.771  0.1436  0.6542  1.4388
  123SOL     OW 1531   3.809   3.290   4.882  0.3921  0.6156 -0.8376
  123SOL    HW1 1532   3.736   3.251   4.834  0.8950 -0.9100 -0.4112
  123SOL    HW2 1533   3.880   3.227   4.873  1.2284  1.4211 -0.0702
  124SOL     OW 1534   6.749   7.479   3.376  0.4430 -0.2795 -0.2313
  124SOL    HW1 1535   6.755   7.393   3.336 -1.4357 -2.0336  2.8506
  124SOL    HW2 1536   6.714   7.536   3.307  1.0611 -2.0959 -2.1332
  125SOL     OW 1537   3.449   6.784   8.346 -0.0119 -0.0929  0.6254
  125SOL    HW1 1538   3.499   6.863   8.364  0.6947 -0.5174  0.5344
  125SOL    HW2 1539   3.513   6.713   8.348 -0.5085 -0.5762 -0.0543
  126SOL     OW 1540   0.528   7.581   7.200  0.5177  0.1016 -0.5628
  126SOL    HW1 1541   0.492   7.566   7.113 -1.8677 -1.7176  0.6280
  126SOL    HW2 1542   0.472   7.649   7.238 -0.6081 -1.4097  0.6350
  127SOL     OW 1543   3.342   3.499   7.580  0.8458 -0.0400  0.6570
  127SOL    HW1 1544   3.383   3.481   7.664 -0.0465 -0.9231  0.9308
  127SOL    HW2 1545   3.405   3.467   7.515 -0.2196 -3.4689  1.1066
  128SOL     OW 1546   7.003   7.804   3.696 -0.2887  0.1052  0.7967
  128SOL    HW1 1547   7.039   7.732   3.644 -0.9079  0.8359 -0.7050
  128SOL    HW2 1548   6.908   7.792   3.690 -0.4017  1.1266  0.3745
  129SOL     OW 1549   3.049   6.758   2.076 -0.1372 -0.1105 -0.5617
  129SOL    HW1 1550   2.963   6.761   2.034 -0.1241 -0.9606 -0.6594
  129SOL    HW2 1551   3.041   6.692   2.144  0.6938 -0.8429 -1.1542
  130SOL     OW 1552   8.256   2.632   0.489 -0.2428 -0.0223 -0.5086
  130SOL    HW1 1553   8.296   2.577   0.556  1.0846  1.4125 -0.0580
  130SOL    HW2 1554   8.296   2.603   0.407 -1.0156 -1.0146 -0.5466
  131SOL     OW 1555   6.028   6.588   8.424  0.0667 -0.5633 -0.1485
  131SOL    HW1 1556   6.047   6.499   8.396 -0.6819 -0.5213 -0.8289
  131SOL    HW2 1557   5.933   6.598   8.410  0.2445  0.5387 -0.6696
  132SOL     OW 1558   2.696   1.246   6.949 -0.4532  0.2926 -0.3208
  132SOL    HW1 1559   2.728   1.301   7.021 -0.1990  0.4267 -0.5349
  132SOL    HW2 1560   2.626   1.297   6.909 -1.2262 -0.1701  0.3970
  133SOL     OW 1561   2.187   5.469   5.230  0.0236  0.1440 -0.1060
  133SOL    HW1 1562   2.174   5.553   5.187  1.9969  0.7040  0.2938
  133SOL    HW2 1563   2.143   5.478   5.315 -3.4246 -0.7870 -1.5994
  134SOL     OW 1564   3.945   1.295   1.830  0.1417 -0.1617 -0.0999
  134SOL    HW1 1565   3.887   1.340   1.768  1.5293 -0.8559 -1.9782
  134SOL    HW2 1566   3.965   1.362   1.896 -1.0996  0.6987 -0.5472
  135SOL     OW 1567   5.566   1.101   7.524 -0.1904  0.0481 -0.2026
  135SOL    HW1 1568   5.606   1.187   7.529  0.3338 -0.2260  0.7138
  135SOL    HW2 1569   5.639   1.040   7.529 -0.3113 -0.4949 -3.2593
  136SOL     OW 1570   6.193   5.336   3.213 -0.9079  0.1596  0.4313
  136SOL    HW1 1571   6.236   5.256   3.241 -0.3145  1.2207  2.8157
  136SOL    HW2 1572   6.264   5.401   3.206 -1.5242  0.7860 -0.2864
  137SOL     OW 1573   0.769   6.406   2.126  0.5156  0.3198  0.0573
  137SOL    HW1 1574   0.851   6.357   2.132  0.0290 -0.3855  1.4069
  137SOL    HW2 1575   0.740   6.416   2.217 -1.5021 -0.5444 -0.4169
  138SOL     OW 1576   6.501   7.112   2.411  0.6894 -0.1105 -0.0788
  138SOL    HW1 1577   6.456   7.037   2.450  1.3871 -0.0324  0.8994
  138SOL    HW2 1578   6.454   7.188   2.443 -0.5197 -0.1181 -1.7060
  139SOL     OW 1579   8.243   3.543   7.542 -0.2001 -0.4055  0.1594
  139SOL    HW1 1580   8.279   3.573   7.459 -0.3744 -1.1525 -0.2007
  139SOL    HW2 1581   8.271   3.452   7.549 -1.3781 -0.7793  0.2226
  140SOL     OW 1582   7.909   8.190   0.347 -0.4294 -0.4599  0.1660
  140SOL    HW1 1583   7.863   8.156   0.270 -1.1671 -0.1743  0.4743
  140SOL    HW2 1584   7.879   8.280   0.355  0.4586 -0.1590  0.1718
  141SOL     OW 1585   4.872   2.428   5.137 -0.0453  0.0218 -0.0456
  141SOL    HW1 1586   4.834   2.346   5.172  0.0247  0.3278  0.7797
  141SOL    HW2 1587   4.884   2.483   5.215  1.9787 -0.0083 -0.3035
  142SOL     OW 1588   5.999   5.950   2.076 -0.1407 -0.3422  0.3394
  142SOL    HW1 1589   6.000   5.859   2.106 -1.2250 -0.4438  0.0960
  142SOL    HW2 1590   5.935   5.993   2.132  0.0796  0.1850  0.1938
  143SOL     OW 1591   0.761   8.403   7.839 -0.0444 -0.1384  0.2590
  143SOL    HW1 1592   0.673   8.400   7.876 -0.0717  1.7833  0.4647
  143SOL    HW2 1593   0.788   8.495   7.849  1.7887 -0.5802 -0.2415
  144SOL     OW 1594   4.128   2.653   0.800  0.1580  0.0980  0.2807
  144SOL    HW1 1595   4.153   2.671   0.709 -0.0145 -1.0094  0.0041
  144SOL    HW2 1596   4.066   2.580   0.795  1.1946 -0.9063  1.3769
  145SOL     OW 1597   4.235   5.275   1.386  0.4745 -0.7663  0.5605
  145SOL    HW1 1598   4.308   5.295   1.445 -0.2682 -0.1012  1.2851
  145SOL    HW2 1599   4.158   5.306   1.433 -0.1289 -0.0661 -0.8552
  146SOL     OW 1600   8.110   7.305   6.956 -0.5646 -0.2164 -0.0766
  146SOL    HW1 1601   8.124   7.304   6.861  2.8938 -0.5241  0.3043
  146SOL    HW2 1602   8.117   7.213   6.982  1.1711  0.0844  0.6850
  147SOL     OW 1603   1.583   6.692   0.642 -0.1281  0.3263  0.4328
  147SOL    HW1 1604   1.593   6.769   0.586  0.4274  0.0599  0.1638
  147SOL    HW2 1605   1.572   6.619   0.581 -0.7927  0.2083  0.6888
  148SOL     OW 1606   7.852   5.680   6.243  0.4189  0.3859 -0.3381
  148SOL    HW1 1607   7.859   5.754   6.183 -0.5638  0.4151 -0.4344
  148SOL    HW2 1608   7.793   5.618   6.199  1.1801 -0.4292 -0.2327
  149SOL     OW 1609   7.874   1.417   4.034 -0.4940  0.1783  0.4082
  149SOL    HW1 1610   7.868   1.511   4.048 -0.0624  0.1283  0.9441
  149SOL    HW2 1611   7.787   1.392   4.002 -1.0454  0.5379  1.5641
  150SOL     OW 1612   4.386   6.140   4.072  0.2600  0.3943  0.0599
  150SOL    HW1 1613   4.316   6.194   4.036  0.0734  0.9159  1.1754
  150SOL    HW2 1614   4.464   6.195   4.067  0.4502  0.0939 -0.4598
  151SOL     OW 1615   8.740   1.994   6.541  0.2029 -0.1436 -0.0800
  151SOL    HW1 1616   8.665   2.019   6.487  1.0785  2.9747 -0.0106
  151SOL    HW2 1617   8.701   1.947   6.615 -1.4545 -0.3055 -1.0067
  152SOL     OW 1618   5.409   2.653   8.729 -0.0446 -0.0726  0.0632
  152SOL    HW1 1619   5.412   2.721   8.797 -0.0348  0.4921 -0.4935
  152SOL    HW2 1620   5.413   2.570   8.778 -0.7942  0.3084  0.8052
  153SOL     OW 1621   4.787   8.000   8.250  0.3457 -1.1365 -0.2441
  153SOL    HW1 1622   4.806   7.972   8.339  0.6814  0.6798  0.2989
  153SOL    HW2 1623   4.803   8.094   8.251 -1.9194 -0.6752 -1.6079
  154SOL     OW 1624   6.923   5.336   8.152  0.1552 -0.4221  0.0142
  154SOL    HW1 1625   6.895   5.415   8.197  1.1676  0.0424 -0.1498
  154SOL    HW2 1626   6.926   5.361   8.059  3.0640  0.2151  0.1717
  155SOL     OW 1627   1.732   8.136   7.037 -0.6213  0.3811  0.6931
  155SOL    HW1 1628   1.702   8.062   6.984 -0.9435  1.1840 -0.2845
  155SOL    HW2 1629   1.818   8.109   7.068 -0.6401 -0.3207  0.1772
  156SOL     OW 1630   3.583   0.189   5.084  0.0380 -0.7579  0.1856
  156SOL    HW1 1631   3.560   0.101   5.053 -0.2507 -0.3571 -0.7465
  156SOL    HW2 1632   3.659   0.214   5.031  0.7739 -0.8527  1.1643
  157SOL     OW 1633   0.660   2.168   8.506  0.5908 -0.1076  0.5218
  157SOL    HW1 1634   0.690   2.205   8.589 -0.8642 -0.1561  1.1019
  157SOL    HW2 1635   0.675   2.074   8.515  1.3008 -0.0157  0.3427
  158SOL     OW 1636   6.828   4.004   4.155  0.4056  0.2420 -0.2925
  158SOL    HW1 1637   6.807   3.912   4.167 -4.7151  1.3699  1.7503
  158SOL    HW2 1638   6.888   4.025   4.227 -0.2579 -1.0079  0.6591
  159SOL     OW 1639   0.168   0.592   0.055 -0.0154 -0.3753 -0.1082
  159SOL    HW1 1640   0.095   0.573   0.114 -0.6404  2.0446 -0.0117
  159SOL    HW2 1641   0.128   0.603  -0.031  0.2052  0.9037 -0.0688
  160SOL     OW 1642   5.572   8.202   0.620  0.1192 -0.5317  0.3555
  160SOL    HW1 1643   5.550   8.235   0.708 -1.1060 -2.5586  0.8894
  160SOL    HW2 1644   5.639   8.135   0.636  0.9987  0.1377 -0.4506
  161SOL     OW 1645   0.145   4.214   4.552  0.2560  0.2454  0.3519
  161SOL    HW1 1646   0.081   4.152   4.587 -0.2183  0.7972  0.4748
  161SOL    HW2 1647   0.163   4.182   4.463 -1.3583  0.9383 -0.2615
  162SOL     OW 1648   7.592   1.400   3.362 -0.5416 -0.2297 -0.1571
  162SOL    HW1 1649   7.636   1.396   3.278 -1.4785 -2.5790 -0.6096
  162SOL    HW2 1650   7.513   1.451   3.345  0.5296  1.5447 -0.0215
  163SOL     OW 1651   8.198   8.363   2.120  0.1458 -0.6382  0.5807
  163SOL    HW1 1652   8.113   8.345   2.081 -0.6083  0.4801  1.6416
  163SOL    HW2 1653   8.257   8.375   2.045 -0.7582 -0.8295 -0.1721
  164SOL     OW 1654   5.629   3.732   0.282 -0.3206 -0.6766  0.0525
  164SOL    HW1 1655   5.649   3.685   0.363 -0.0842 -0.1449  0.3142
  164SOL    HW2 1656   5.699   3.708   0.222  1.2714  1.2584  0.9971
  165SOL     OW 1657   2.939   8.291   4.715 -0.5321  0.2940 -0.1155
  165SOL    HW1 1658   2.958   8.233   4.789 -2.1172 -0.8627 -0.5623
  165SOL    HW2 1659   2.859   8.337   4.741  0.9188  2.6906  0.4126
  166SOL     OW 1660   3.534   7.197   4.907 -0.1997  0.6555 -0.0568
  166SOL    HW1 1661   3.568   7.197   4.997  1.7213 -0.1310 -0.7196
  166SOL    HW2 1662   3.446   7.161   4.914  0.2680 -0.2731  1.4092
  167SOL     OW 1663   2.535   7.302   2.605 -0.0696 -0.0355 -0.7447
  167SOL    HW1 1664   2.498   7.384   2.570 -2.8662 -1.4139 -1.2666
  167SOL    HW2 1665   2.532   7.314   2.700  1.1153  1.0831 -0.8245
  168SOL     OW 1666   4.325   5.612   5.260 -0.1099 -0.2403  0.6475
  168SOL    HW1 1667   4.399   5.619   5.320  1.4226 -0.2400 -1.1533
  168SOL    HW2 1668   4.353   5.660   5.182 -0.6946 -2.8760 -1.3012
  169SOL     OW 1669   7.885   5.260   8.653  0.4245 -0.2780  0.1676
  169SOL    HW1 1670   7.949   5.197   8.620  1.1874  0.9925 -0.8466
  169SOL    HW2 1671   7.833   5.283   8.576  1.4895  1.8613  0.0196
  170SOL     OW 1672   0.503   0.959   6.162  0.0972 -0.1042  0.4750
  170SOL    HW1 1673   0.501   1.038   6.108 -1.1283  0.5999  1.4835
  170SOL    HW2 1674   0.596   0.945   6.182  0.7590 -1.1079 -2.7313
  171SOL     OW 1675   2.331   2.758   4.419 -0.4936 -0.2256 -0.2832
  171SOL    HW1 1676   2.386   2.681   4.436  0.3909  0.5933  0.7563
  171SOL    HW2 1677   2.274   2.764   4.496 -0.2642  0.3785 -0.1527
  172SOL     OW 1678   3.003   6.889   3.971 -0.4253  0.0007  0.4575
  172SOL    HW1 1679   2.990   6.795   3.960  2.1314 -0.3549 -0.0932
  172SOL    HW2 1680   3.039   6.898   4.059  0.7300  0.2717 -0.0276
  173SOL     OW 1681   1.483   0.202   2.067 -0.9134 -0.2018  0.0087
  173SOL    HW1 1682   1.451   0.120   2.104 -1.2896 -0.4216 -0.7908
  173SOL    HW2 1683   1.409   0.263   2.075 -1.2901 -0.4879 -1.1232
  174SOL     OW 1684   1.075   2.974   1.584  0.1719  0.1486 -0.4006
  174SOL    HW1 1685   1.059   2.881   1.570  0.5171  0.1624 -0.9584
  174SOL    HW2 1686   1.087   2.984   1.678 -1.4690 -0.1070 -0.1357
  175SOL     OW 1687   8.222   4.293   3.714  0.2915  0.1329  0.4258
  175SOL    HW1 1688   8.294   4.297   3.777  1.2288  1.1731 -0.6741
  175SOL    HW2 1689   8.148   4.333   3.759  1.2159  1.7527  0.5534
  176SOL     OW 1690   6.345   4.380   2.838  0.1504 -0.2390 -0.2271
  176SOL    HW1 1691   6.253   4.358   2.820  0.6603 -2.2055 -0.7162
  176SOL    HW2 1692   6.352   4.378   2.933 -0.1043 -1.1443 -0.2177
  177SOL     OW 1693   0.077   2.803   6.852 -0.2221  0.1587  0.3576
  177SOL    HW1 1694   0.002   2.784   6.794 -1.0329 -1.9375  1.9580
  177SOL    HW2 1695   0.038   2.847   6.928 -0.2138 -2.3932  1.9584
  178SOL     OW 1696   6.635   3.438   0.319  0.3880 -0.0291  0.5438
  178SOL    HW1 1697   6.558   3.466   0.368  0.0784  0.5530 -0.2339
  178SOL    HW2 1698   6.621   3.475   0.231  2.0274  0.9753  0.6595
  179SOL     OW 1699   7.672   3.887   5.500 -0.3072 -0.0071  0.1196
  179SOL    HW1 1700   7.627   3.901   5.417  0.2327 -1.7876 -0.5134
  179SOL    HW2 1701   7.638   3.803   5.532 -0.4445  0.6020  1.6789
  180SOL     OW 1702   0.725   2.875   3.843  0.5512 -0.5173  0.1090
  180SOL    HW1 1703   0.648   2.850   3.793 -0.0696  1.5404 -0.0569
  180SOL    HW2 1704   0.692   2.936   3.910  1.8068 -0.8365  1.0725
  181SOL     OW 1705   8.490   4.896   1.210  0.7038  0.1476  0.7399
  181SOL    HW1 1706   8.511   4.912   1.118 -0.4183 -0.3339  0.3866
  181SOL    HW2 1707   8.509   4.803   1.223  0.2865  0.0710  0.8268
  182SOL     OW 1708   0.150   0.855   1.284 -0.6803 -0.1632 -0.4434
  182SOL    HW1 1709   0.186   0.825   1.200 -0.7613  0.2690 -0.6345
  182SOL    HW2 1710   0.063   0.889   1.262 -0.1649  1.2231 -0.4147
  183SOL     OW 1711   6.501   2.779   5.986 -0.1031 -0.2983 -0.9177
  183SOL    HW1 1712   6.474   2.811   5.900  0.8457  1.5632 -0.5809
  183SOL    HW2 1713   6.596   2.775   5.982  0.0556  1.1120  0.4263
  184SOL     OW 1714   8.796   8.392   5.305  0.4156  0.7993 -0.1458
  184SOL    HW1 1715   8.833   8.473   5.339  1.3354 -0.2961  1.5947
  184SOL    HW2 1716   8.780   8.339   5.383  1.7199 -1.4643 -1.3244
  185SOL     OW 1717   7.885   0.274   3.881  0.7010  0.7057  0.5044
  185SOL    HW1 1718   7.974   0.267   3.845  0.5849  0.9825  0.1488
  185SOL    HW2 1719   7.870   0.368   3.888 -0.2406  0.7342 -1.2098
  186SOL     OW 1720   2.131   5.718   4.249 -0.3151 -0.0148  0.2415
  186SOL    HW1 1721   2.160   5.777   4.179  1.2781 -0.9609  0.0549
  186SOL    HW2 1722   2.037   5.732   4.255 -0.3799  0.5713 -1.6454
  187SOL     OW 1723   1.950   6.162   3.065  0.1993 -0.1787  0.9200
  187SOL    HW1 1724   1.918   6.252   3.068 -1.0442 -0.5309 -0.2558
  187SOL    HW2 1725   1.899   6.122   2.994  1.8555 -1.3659  0.3548
  188SOL     OW 1726   7.447   3.099   8.183 -0.1802 -0.1995  0.4935
  188SOL    HW1 1727   7.374   3.106   8.122  1.7863 -0.7795 -2.0815
  188SOL    HW2 1728   7.430   3.168   8.248 -1.2817  2.0409 -1.9606
  189SOL     OW 1729   7.245   1.204   0.056 -0.0851 -0.2569  0.0885
  189SOL    HW1 1730   7.216   1.198  -0.036  0.1145 -0.1954  0.0211
  189SOL    HW2 1731   7.333   1.166   0.056  0.4082  0.8314  0.0293
  190SOL     OW 1732   2.560   4.275   5.421  0.3915  0.3188  0.3935
  190SOL    HW1 1733   2.643   4.228   5.425  1.1140  1.5226  0.1776
  190SOL    HW2 1734   2.528   4.261   5.332  1.2227  1.1990 -0.0717
  191SOL     OW 1735   4.471   7.941   4.472 -0.0467  0.0942 -0.2198
  191SOL    HW1 1736   4.491   7.853   4.438  3.2355  0.3195  0.8068
  191SOL    HW2 1737   4.438   7.925   4.561 -0.5106 -0.1293 -0.4281
  192SOL     OW 1738   8.400   5.596   7.079 -0.6510 -0.0175 -0.4715
  192SOL    HW1 1739   8.390   5.562   6.990  1.7248  0.2273 -0.8945
  192SOL    HW2 1740   8.458   5.534   7.123 -0.5225  0.6921  0.4013
  193SOL     OW 1741   0.007   0.700   5.087  0.4581 -0.1800 -0.0928
  193SOL    HW1 1742   0.026   0.707   4.993 -0.9884 -1.0931 -0.4832
  193SOL    HW2 1743  -0.017   0.788   5.113  1.5119  0.2233 -0.4066
  194SOL     OW 1744   4.321   7.857   1.178 -0.5008 -0.8262 -0.0131
  194SOL    HW1 1745   4.377   7.899   1.242  1.5712  0.4064 -2.4492
  194SOL    HW2 1746   4.331   7.763   1.195  1.9859 -0.6264 -0.0544
  195SOL     OW 1747   2.132   6.685   5.430 -0.1898 -0.0931  0.0334
  195SOL    HW1 1748   2.208   6.634   5.403  1.1182  0.5817  2.1890
  195SOL    HW2 1749   2.103   6.643   5.511 -0.0558  1.6022  0.9977
  196SOL     OW 1750   2.786   2.171   1.056 -0.3794  0.6265  0.1143
  196SOL    HW1 1751   2.834   2.114   1.116 -3.3270 -0.1099  1.9665
  196SOL    HW2 1752   2.801   2.132   0.970  2.1398  0.3703  0.5950
  197SOL     OW 1753   3.563   7.551   4.951 -0.4836 -0.3623  0.0726
  197SOL    HW1 1754   3.530   7.562   4.861 -0.4163 -1.3109 -0.0747
  197SOL    HW2 1755   3.488   7.518   5.000  0.2603 -2.7923 -0.3217
  198SOL     OW 1756   3.777   3.962   6.061 -0.4580 -0.0560 -0.3987
  198SOL    HW1 1757   3.746   3.895   6.122  0.5394  0.6677  0.9670
  198SOL    HW2 1758   3.872   3.949   6.057 -0.6720 -1.4578 -3.5343
  199SOL     OW 1759   2.509   4.637   1.104  0.3352 -0.1359 -0.5224
  199SOL    HW1 1760   2.458   4.707   1.064  0.8724  1.1942  1.0072
  199SOL    HW2 1761   2.470   4.556   1.069 -1.3120  0.8698 -1.1528
  200SOL     OW 1762   2.538   5.322   5.948  0.0555 -0.0254  0.0039
  200SOL    HW1 1763   2.550   5.228   5.930 -0.0897 -0.3095  1.2467
  200SOL    HW2 1764   2.566   5.332   6.039  1.2379  1.3856 -0.4724
  201SOL     OW 1765   2.852   8.213   3.273 -0.2094 -0.4178 -0.0481
  201SOL    HW1 1766   2.854   8.119   3.290  0.1262 -0.7916 -1.9195
  201SOL    HW2 1767   2.922   8.227   3.209 -1.1804  0.8468 -0.8878
  202SOL     OW 1768   0.620   3.926   2.996 -0.4856  0.0413 -0.3863
  202SOL    HW1 1769   0.656   4.014   2.980  0.4486 -0.7213 -2.9628
  202SOL    HW2 1770   0.558   3.939   3.068  0.2855  2.6285 -0.0636
  203SOL     OW 1771   5.543   2.586   4.325  0.1673  0.4607  0.0444
  203SOL    HW1 1772   5.519   2.623   4.410  1.9396 -0.5021  1.0318
  203SOL    HW2 1773   5.639   2.590   4.324  0.4439 -3.1998 -0.1339
  204SOL     OW 1774   2.019   3.756   7.906  0.2424 -0.2276  0.2254
  204SOL    HW1 1775   1.969   3.750   7.988  0.5599 -0.6186  0.3914
  204SOL    HW2 1776   2.038   3.666   7.883  1.4252 -0.0641  0.5014
  205SOL     OW 1777   0.266   4.649   7.338 -0.2771  0.0299  0.0541
  205SOL    HW1 1778   0.340   4.589   7.353 -0.5672 -0.3605 -0.0394
  205SOL    HW2 1779   0.208   4.600   7.281  0.2874  1.0685 -1.4587
  206SOL     OW 1780   5.650   2.959   2.972  0.1448  0.2657  0.1030
  206SOL    HW1 1781   5.678   2.868   2.964 -2.2348 -0.4677 -0.8541
  206SOL    HW2 1782   5.666   2.996   2.885 -1.9897 -0.3023 -0.6210
  207SOL     OW 1783   3.916   4.797   3.493  0.0242 -0.6917  0.4955
  207SOL    HW1 1784   3.901   4.837   3.407 -0.4397 -1.0499  0.4065
  207SOL    HW2 1785   3.911   4.703   3.477  1.6119 -0.8209  0.6120
  208SOL     OW 1786   7.178   5.684   1.077 -0.0584  0.2780 -0.2962
  208SOL    HW1 1787   7.149   5.737   1.151 -0.3689  0.3238 -0.4495
  208SOL    HW2 1788   7.112   5.700   1.009  0.3948  0.4831 -0.6919
  209SOL     OW 1789   7.105   1.023   6.456 -0.6176  0.1192  0.3713
  209SOL    HW1 1790   7.144   1.108   6.471  3.2136 -1.4669  0.4357
  209SOL    HW2 1791   7.064   1.030   6.370 -0.2434  1.9336  0.3062
  210SOL     OW 1792   5.695   0.874   7.117 -0.1359 -0.0087 -0.6647
  210SOL    HW1 1793   5.738   0.837   7.194 -0.6868  0.9528  0.1457
  210SOL    HW2 1794   5.714   0.813   7.046 -0.1716 -1.2752  0.3818
  211SOL     OW 1795   6.550   0.208   0.511  0.3962  0.0099  0.3080
  211SOL    HW1 1796   6.501   0.165   0.581  0.9270  0.6658  1.1041
  211SOL    HW2 1797   6.632   0.159   0.504  0.2880 -0.1378  0.0453
  212SOL     OW 1798   3.405   0.481   3.764  0.5617 -0.6019  0.0593
  212SOL    HW1 1799   3.371   0.405   3.718  0.2900 -0.5072  0.0963
  212SOL    HW2 1800   3.470   0.519   3.705  1.0514 -1.1392  0.2498
  213SOL     OW 1801   2.189   3.813   8.156 -0.2360 -0.0324  0.3773
  213SOL    HW1 1802   2.227   3.873   8.091 -0.5001  0.0867  0.3301
  213SOL    HW2 1803   2.199   3.726   8.118 -3.7768  0.2278 -1.6620
  214SOL     OW 1804   7.570   8.154   5.860  0.5645 -1.3850  0.3037
  214SOL    HW1 1805   7.637   8.152   5.791  1.4469 -1.3826  1.1345
  214SOL    HW2 1806   7.587   8.237   5.906  0.4488 -1.7262  0.9659
  215SOL     OW 1807   3.546   7.253   1.292 -0.1186 -0.3494 -0.0012
  215SOL    HW1 1808   3.606   7.265   1.218 -0.0612 -0.7350 -0.0210
  215SOL    HW2 1809   3.458   7.256   1.253 -0.0704 -2.2202 -0.3682
  216SOL     OW 1810   2.210   2.168   6.970 -0.0798  0.4656 -0.5090
  216SOL    HW1 1811   2.203   2.146   6.877 -1.3562  0.6563 -0.4820
  216SOL    HW2 1812   2.207   2.263   6.972  0.8610  0.4928 -0.3301
  217SOL     OW 1813   7.780   5.976   3.228 -0.7217  0.0540 -0.1653
  217SOL    HW1 1814   7.723   5.967   3.304 -0.0243 -0.2097  0.3385
  217SOL    HW2 1815   7.860   6.015   3.263 -0.5145  0.2321 -0.8251
  218SOL     OW 1816   8.012   0.013   6.109 -0.3756  0.3644  0.1347
  218SOL    HW1 1817   8.024   0.011   6.204  0.8463 -3.5501  0.0827
  218SOL    HW2 1818   7.922   0.043   6.097 -0.8175  0.2435  2.5840
  219SOL     OW 1819   2.896   7.292   8.337  0.0982 -0.2431  0.0198
  219SOL    HW1 1820   2.944   7.243   8.270 -0.1430 -2.4066  1.3589
  219SOL    HW2 1821   2.804   7.270   8.322  0.0165 -0.5100  0.8634
  220SOL     OW 1822   6.863   1.988   6.745  0.1384 -0.4216 -0.4956
  220SOL    HW1 1823   6.955   1.988   6.719  0.0659 -1.6072 -0.8217
  220SOL    HW2 1824   6.826   2.064   6.701  1.3551  1.2472  1.2062
  221SOL     OW 1825   0.284   0.153   2.900 -0.4384  0.0344  0.2917
  221SOL    HW1 1826   0.375   0.140   2.873 -0.6073 -0.2466 -0.1600
  221SOL    HW2 1827   0.279   0.245   2.924 -0.5839  0.6731 -1.9251
  222SOL     OW 1828   3.628   3.743   0.526  0.3712  0.1322 -0.4594
  222SOL    HW1 1829   3.636   3.827   0.482  0.7483  0.9168  1.0685
  222SOL    HW2 1830   3.578   3.761   0.605 -0.9167 -1.3843 -0.8519
  223SOL     OW 1831   8.667   5.118   4.236  0.1960 -0.3765 -0.2237
  223SOL    HW1 1832   8.624   5.058   4.175 -0.3057 -1.1894  0.8983
  223SOL    HW2 1833   8.720   5.061   4.293 -1.2895  0.0612  1.6966
  224SOL     OW 1834   8.420   4.804   5.228 -0.4547 -0.8290 -0.2052
  224SOL    HW1 1835   8.350   4.738   5.230  0.9764 -2.4615 -0.7705
  224SOL    HW2 1836   8.481   4.772   5.161  1.1058  0.2289  0.6396
  225SOL     OW 1837   5.664   1.455   8.459  0.1102  0.3898 -0.2614
  225SOL    HW1 1838   5.614   1.418   8.532  1.5742 -0.5696  0.2889
  225SOL    HW2 1839   5.679   1.381   8.400  0.9499  0.6401 -0.3782
  226SOL     OW 1840   2.286   0.605   0.813  0.3773 -0.2013  0.2924
  226SOL    HW1 1841   2.276   0.567   0.726  0.1657 -1.8979  1.0155
  226SOL    HW2 1842   2.273   0.531   0.873 -0.2549  1.0666  1.7872
  227SOL     OW 1843   8.525   4.957   2.612  0.1465 -0.0200 -0.2252
  227SOL    HW1 1844   8.604   5.011   2.611 -1.2469  2.5079  3.6860
  227SOL    HW2 1845   8.523   4.919   2.699 -1.7730 -2.0056 -1.0551
  228SOL     OW 1846   1.204   1.230   3.562  0.4209 -0.7328  0.4292
  228SOL    HW1 1847   1.220   1.207   3.470  0.8197 -2.3586  0.8592
  228SOL    HW2 1848   1.177   1.321   3.560 -1.6192 -1.2932 -1.5313
  229SOL     OW 1849   1.471   8.858   2.232  0.3294 -0.1063 -0.0880
  229SOL    HW1 1850   1.398   8.896   2.280  0.5044  2.4275 -1.5930
  229SOL    HW2 1851   1.545   8.865   2.291  0.0723  0.7669  0.1490
  230SOL     OW 1852   5.109   4.662   4.371  0.4505 -0.1739  0.2729
  230SOL    HW1 1853   5.092   4.637   4.461 -0.9687 -0.4007 -0.0366
  230SOL    HW2 1854   5.024   4.690   4.337  1.1263  0.7493 -0.7359
  231SOL     OW 1855   0.044   8.109   5.432 -1.2308  0.4773  0.3575
  231SOL    HW1 1856   0.017   8.092   5.342 -0.0089 -0.7680  0.1778
  231SOL    HW2 1857   0.000   8.042   5.484  0.2071 -0.5776  0.2703
  232SOL     OW 1858   6.107   6.950   0.066  0.0899 -0.2658  0.2698
  232SOL    HW1 1859   6.072   6.982   0.149 -0.3319 -2.6751  1.0952
  232SOL    HW2 1860   6.046   6.983   0.000 -1.3534 -0.8555  1.2539
  233SOL     OW 1861   5.194   7.576   5.101 -0.3721  0.1853  0.0519
  233SOL    HW1 1862   5.119   7.628   5.070 -0.3654 -0.1397 -0.5407
  233SOL    HW2 1863   5.262   7.592   5.035  0.3282  1.0241  0.9581
  234SOL     OW 1864   3.111   7.920   1.137  0.2173  0.3698 -0.2274
  234SOL    HW1 1865   3.060   7.934   1.217  0.1902 -0.5819 -0.0569
  234SOL    HW2 1866   3.182   7.862   1.165 -1.9889 -3.3900 -1.6037
  235SOL     OW 1867   8.055   3.477   2.265  0.2242  0.1311 -0.1224
  235SOL    HW1 1868   7.965   3.506   2.281 -0.7744 -2.0938 -1.2688
  235SOL    HW2 1869   8.110   3.548   2.299 -1.9495  1.5658  0.5713
  236SOL     OW 1870   8.822   4.002   4.628  0.2077 -0.6709 -0.0232
  236SOL    HW1 1871   8.845   3.973   4.540 -1.7320 -1.1316 -0.4212
  236SOL    HW2 1872   8.835   3.924   4.683  0.3717 -0.6955 -0.0972
  237SOL     OW 1873   8.590   5.999   4.706 -0.4392  0.1761  0.3379
  237SOL    HW1 1874   8.674   6.045   4.709 -0.4483  0.1394  1.4853
  237SOL    HW2 1875   8.589   5.958   4.620  0.3639  0.8368 -0.0064
  238SOL     OW 1876   1.632   5.436   5.017  0.1757  0.3375  0.5947
  238SOL    HW1 1877   1.553   5.483   4.990  0.5985  1.2372  0.8737
  238SOL    HW2 1878   1.703   5.481   4.972  0.5012 -0.7148  0.0339
  239SOL     OW 1879   1.444   1.659   1.923 -0.0060 -0.1421 -0.9001
  239SOL    HW1 1880   1.424   1.750   1.904 -2.6674 -0.3553  0.3793
  239SOL    HW2 1881   1.514   1.662   1.987  0.2366  0.9673 -1.1987
  240SOL     OW 1882   8.192   2.013   8.220 -0.0173  0.2924 -0.3014
  240SOL    HW1 1883   8.118   1.985   8.273  0.1294  1.3655  0.5085
  240SOL    HW2 1884   8.200   2.107   8.237  2.2057  0.0097  0.5325
  241SOL     OW 1885   3.704   0.170   8.754  0.9553 -0.2662  0.2464
  241SOL    HW1 1886   3.761   0.149   8.828  1.5516 -0.4326 -0.2504
  241SOL    HW2 1887   3.745   0.247   8.714 -0.4239  1.0267  1.2154
  242SOL     OW 1888   2.916   5.579   8.357  0.2250 -0.1330 -0.2757
  242SOL    HW1 1889   2.894   5.555   8.447  0.7154 -0.0403 -0.1306
  242SOL    HW2 1890   2.890   5.671   8.351  1.3905  0.2321  0.1671
  243SOL     OW 1891   5.282   6.531   2.594 -0.8498 -0.5739 -0.2224
  243SOL    HW1 1892   5.296   6.562   2.504 -0.9991  0.5409  0.1308
  243SOL    HW2 1893   5.364   6.489   2.618 -0.5833 -0.3130 -0.6612
  244SOL     OW 1894   0.849   1.881   4.512 -0.1020 -0.2592  0.3915
  244SOL    HW1 1895   0.849   1.795   4.553  0.9368  0.2155  1.4712
  244SOL    HW2 1896   0.942   1.902   4.501 -0.2701  1.3455  1.5905
  245SOL     OW 1897   2.084   2.228   7.439 -0.8529  0.1114 -0.1050
  245SOL    HW1 1898   2.160   2.174   7.419 -0.9264 -0.5509  1.2902
  245SOL    HW2 1899   2.022   2.168   7.479 -2.3580  0.5186 -1.6985
  246SOL     OW 1900   8.511   0.901   6.415 -0.2618 -0.3292  0.7938
  246SOL    HW1 1901   8.561   0.971   6.456 -0.7367 -0.7749  2.1964
  246SOL    HW2 1902   8.427   0.902   6.461 -1.3639  0.0365 -1.1258
  247SOL     OW 1903   4.725   0.432   4.876 -0.6456  0.1502 -0.6456
  247SOL    HW1 1904   4.660   0.460   4.811 -0.7614 -0.9055 -1.0045
  247SOL    HW2 1905   4.680   0.365   4.927  0.0422 -0.3453 -0.6797
  248SOL     OW 1906   7.316   6.828   0.782  0.2685  0.5843 -0.4868
  248SOL    HW1 1907   7.231   6.787   0.798  0.3808  0.0193 -1.2400
  248SOL    HW2 1908   7.296   6.920   0.764 -0.1536  0.5186 -0.3654
  249SOL     OW 1909   4.316   4.183   0.045  0.0138  0.1612 -0.4837
  249SOL    HW1 1910   4.349   4.100   0.079 -0.1883  0.2195 -0.1349
  249SOL    HW2 1911   4.338   4.247   0.112 -0.4916  0.2573 -0.4014
  250SOL     OW 1912   2.914   6.175   0.940 -0.7643  0.1661 -0.1446
  250SOL    HW1 1913   2.950   6.180   1.029 -1.2003 -0.8440  0.1084
  250SOL    HW2 1914   2.990   6.179   0.883 -0.4590  0.5982  0.2873
  251SOL     OW 1915   0.123   5.204   6.748 -0.0562  0.1499 -0.0733
  251SOL    HW1 1916   0.035   5.166   6.751  1.6843 -4.5054  1.0269
  251SOL    HW2 1917   0.146   5.218   6.840 -0.5626  4.3084 -0.4253
  252SOL     OW 1918   6.735   5.894   8.460 -0.2467 -0.3985 -0.2247
  252SOL    HW1 1919   6.677   5.876   8.386  2.4974  1.0814 -2.9281
  252SOL    HW2 1920   6.735   5.989   8.469  0.2771 -0.4956  1.0807
  253SOL     OW 1921   2.812   7.903   4.513  0.3130  0.2499  0.7097
  253SOL    HW1 1922   2.783   7.882   4.424 -2.1629  0.6173  1.3622
  253SOL    HW2 1923   2.851   7.990   4.506 -0.1244  0.3980  0.0172
  254SOL     OW 1924   7.902   8.700   8.788 -0.1176  0.0367 -0.2823
  254SOL    HW1 1925   7.955   8.768   8.829  1.5127 -0.5476 -1.2942
  254SOL    HW2 1926   7.812   8.720   8.813  0.4258  1.9594  0.2625
  255SOL     OW 1927   4.356   0.972   6.752  0.6502 -0.1623 -0.3021
  255SOL    HW1 1928   4.451   0.964   6.756  0.6716 -0.2358 -0.8921
  255SOL    HW2 1929   4.324   0.882   6.745  0.7416 -0.0671 -3.8035
  256SOL     OW 1930   5.278   7.712   5.570 -0.3263  0.4756  0.1785
  256SOL    HW1 1931   5.183   7.700   5.562 -0.3847  1.6289 -1.2954
  256SOL    HW2 1932   5.289   7.746   5.659 -1.2515  0.0392  0.4818
  257SOL     OW 1933   6.292   4.739   6.301  0.2538  0.0430 -0.0084
  257SOL    HW1 1934   6.386   4.721   6.303  0.3532  0.4962 -0.5356
  257SOL    HW2 1935   6.285   4.834   6.298 -0.2657  0.1318  2.0870
  258SOL     OW 1936   8.436   0.885   3.337  0.4862 -0.6305  0.3026
  258SOL    HW1 1937   8.503   0.836   3.290  1.3771  0.1442  0.7440
  258SOL    HW2 1938   8.484   0.951   3.388 -0.5828 -0.2109  0.8156
  259SOL     OW 1939   6.402   8.579   1.994  0.4269 -0.4108 -0.1713
  259SOL    HW1 1940   6.428   8.663   1.956  3.0250 -0.5329  1.1122
  259SOL    HW2 1941   6.415   8.515   1.924  4.3953 -0.5277  0.4422
  260SOL     OW 1942   5.205   5.229   3.010 -0.3652 -0.5919 -0.3137
  260SOL    HW1 1943   5.220   5.207   2.918  0.5375 -0.7720 -0.1334
  260SOL    HW2 1944   5.292   5.239   3.047 -0.7151 -0.6472  0.5580
  261SOL     OW 1945   3.773   6.991   0.730  0.0794  0.1838  0.4886
  261SOL    HW1 1946   3.784   6.899   0.753  0.4386  0.1705  0.2822
  261SOL    HW2 1947   3.853   7.033   0.762  1.1287 -0.0292 -1.6615
  262SOL     OW 1948   4.966   0.102   1.995 -0.2036 -0.6665 -0.4242
  262SOL    HW1 1949   4.939   0.150   1.917  0.2076  0.8348  0.3062
  262SOL    HW2 1950   4.902   0.127   2.062  0.5758 -0.3577  0.2235
  263SOL     OW 1951   0.263   7.554   3.358 -0.1798 -0.0218 -0.7020
  263SOL    HW1 1952   0.277   7.550   3.453 -0.9114  0.1687 -0.5739
  263SOL    HW2 1953   0.284   7.466   3.327  0.8884  0.1522 -0.4912
  264SOL     OW 1954   8.568   7.543   3.384  0.0172  0.7103  0.3592
  264SOL    HW1 1955   8.620   7.509   3.457  0.4102 -3.2913 -1.4755
  264SOL    HW2 1956   8.478   7.544   3.417 -0.1622 -3.2086  0.5415
  265SOL     OW 1957   5.898   1.860   3.985 -0.0474 -0.2113  0.0375
  265SOL    HW1 1958   5.842   1.866   3.907 -0.2309 -1.3407  0.0603
  265SOL    HW2 1959   5.944   1.944   3.988 -0.0714 -0.1293 -1.2663
  266SOL     OW 1960   2.304   0.483   3.560  0.3038  0.0621 -0.2782
  266SOL    HW1 1961   2.345   0.444   3.637  0.4501  1.1338  0.2087
  266SOL    HW2 1962   2.376   0.491   3.497  1.1581  2.6686  0.8519
  267SOL     OW 1963   4.567   3.091   3.597  0.1336 -0.0149 -0.4669
  267SOL    HW1 1964   4.519   3.173   3.590  1.9227  1.4972  2.5942
  267SOL    HW2 1965   4.632   3.094   3.527 -0.8438  0.4007 -1.3658
  268SOL     OW 1966   5.369   7.435   6.410  0.1888  0.1596  0.7451
  268SOL    HW1 1967   5.297   7.481   6.366  0.6812 -0.7113 -1.0824
  268SOL    HW2 1968   5.332   7.407   6.493 -1.5271 -0.0335 -0.0349
  269SOL     OW 1969   2.074   8.502   3.874  0.3094 -0.1546  0.8239
  269SOL    HW1 1970   2.008   8.449   3.919 -0.6793  1.6841  1.6523
  269SOL    HW2 1971   2.035   8.589   3.869  1.7302  0.4434 -0.7883
  270SOL     OW 1972   0.669   6.197   5.289 -0.4163 -0.0503 -0.2322
  270SOL    HW1 1973   0.730   6.255   5.243 -1.0867  0.0471 -1.0139
  270SOL    HW2 1974   0.690   6.110   5.256  0.0545 -0.1604  0.3471
  271SOL     OW 1975   2.307   7.264   8.354 -0.0945  0.1215 -0.3741
  271SOL    HW1 1976   2.371   7.330   8.382 -1.7175  0.6881  2.4112
  271SOL    HW2 1977   2.249   7.311   8.294 -1.0695  1.2533  1.3654
  272SOL     OW 1978   6.480   3.667   3.354  0.2249  0.6672  0.8887
  272SOL    HW1 1979   6.507   3.694   3.442  0.5902  1.9267  0.4181
  272SOL    HW2 1980   6.466   3.573   3.360 -0.0020  0.7793  2.3589
  273SOL     OW 1981   1.759   5.871   3.454  0.1403  0.3162 -0.1492
  273SOL    HW1 1982   1.769   5.776   3.459  0.7932  0.3990  0.4152
  273SOL    HW2 1983   1.841   5.902   3.415  1.1482  0.8427  2.1968
  274SOL     OW 1984   1.518   7.225   7.908  0.2515 -0.0907  0.1937
  274SOL    HW1 1985   1.476   7.291   7.962  0.4466 -0.1071  0.3670
  274SOL    HW2 1986   1.469   7.226   7.826  2.5670  3.0496 -1.3868
  275SOL     OW 1987   4.242   6.939   7.659  0.0115  0.0973 -0.2496
  275SOL    HW1 1988   4.157   6.981   7.671  1.2112  2.6681 -0.2177
  275SOL    HW2 1989   4.272   6.921   7.748 -0.2227 -0.2423 -0.2379
  276SOL     OW 1990   4.415   0.430   5.418 -0.2396 -0.4829 -0.4482
  276SOL    HW1 1991   4.463   0.416   5.336  2.2003 -1.3031  1.0013
  276SOL    HW2 1992   4.390   0.342   5.447 -1.0179 -0.2057 -0.2432
  277SOL     OW 1993   5.118   2.250   5.963 -0.2289  0.5062 -0.9278
  277SOL    HW1 1994   5.031   2.232   5.999 -0.1900 -0.4243 -1.2534
  277SOL    HW2 1995   5.113   2.340   5.930 -1.5242  0.0141 -2.2007
  278SOL     OW 1996   0.351   5.415   0.158 -0.4039 -0.0373  0.0693
  278SOL    HW1 1997   0.394   5.425   0.073  0.2168 -0.7841  0.2829
  278SOL    HW2 1998   0.372   5.326   0.185 -1.7284 -0.2734  0.3959
  279SOL     OW 1999   4.429   1.758   0.290  0.0034 -0.5866 -0.4168
  279SOL    HW1 2000   4.391   1.719   0.368  1.6787  1.2349  1.4226
  279SOL    HW2 2001   4.480   1.833   0.322  0.0980  0.7560 -3.3367
  280SOL     OW 2002   7.317   5.362   8.527 -0.0638 -0.2721  0.2575
  280SOL    HW1 2003   7.261   5.332   8.455  1.6730 -0.9637 -0.8913
  280SOL    HW2 2004   7.299   5.302   8.599 -0.3811 -0.8411 -0.2854
  281SOL     OW 2005   7.139   0.419   8.384 -0.3868 -0.1788 -0.2544
  281SOL    HW1 2006   7.100   0.354   8.326 -2.4440 -0.0619  0.8855
  281SOL    HW2 2007   7.105   0.396   8.471  0.2845  1.3522  0.4473
  282SOL     OW 2008   5.597   1.781   8.563 -0.1284 -0.3134  0.3684
  282SOL    HW1 2009   5.613   1.733   8.645  0.7293  0.2843  0.5685
  282SOL    HW2 2010   5.533   1.727   8.516  2.1347 -2.6688 -0.2672
  283SOL     OW 2011   5.335   6.303   6.977  0.3577 -0.4467 -0.0917
  283SOL    HW1 2012   5.261   6.338   6.928  0.2538  0.4512  0.6753
  283SOL    HW2 2013   5.410   6.356   6.948  0.5256 -0.7241 -0.1701
  284SOL     OW 2014   5.401   1.732   4.635  0.3266 -0.0393  0.0456
  284SOL    HW1 2015   5.467   1.802   4.635  0.6760 -0.3711 -0.0973
  284SOL    HW2 2016   5.318   1.779   4.650  0.5847  0.3811  0.2046
  285SOL     OW 2017   8.798   7.072   5.990  0.4539 -0.3866 -0.3381
  285SOL    HW1 2018   8.814   7.056   6.083  0.0507  1.5786  0.1121
  285SOL    HW2 2019   8.830   7.160   5.974  0.3160 -0.5962 -2.0327
  286SOL     OW 2020   6.743   7.767   3.669  0.8540  0.1876  0.1068
  286SOL    HW1 2021   6.682   7.838   3.686  0.0700 -0.7199  1.2661
  286SOL    HW2 2022   6.694   7.706   3.614  1.3073  0.2371 -0.3624
  287SOL     OW 2023   3.770   1.555   4.686 -0.1441 -0.0158  0.3046
  287SOL    HW1 2024   3.748   1.629   4.742 -1.3524 -0.0443 -0.1114
  287SOL    HW2 2025   3.715   1.484   4.717 -0.0511 -0.3260 -0.2355
  288SOL     OW 2026   0.100   7.692   3.169  0.1789  0.2749  0.1370
  288SOL    HW1 2027   0.119   7.784   3.156 -0.0947  0.2942 -0.1296
  288SOL    HW2 2028   0.168   7.662   3.230 -0.2702  0.8619  0.9489
  289SOL     OW 2029   4.566   6.605   7.799 -0.1027 -0.0106  0.0464
  289SOL    HW1 2030   4.602   6.626   7.885  0.0369  0.1125 -0.0414
  289SOL    HW2 2031   4.549   6.690   7.759 -0.3208 -0.0689  0.0155
  290SOL     OW 2032   3.063   1.518   7.140  0.0504 -0.3862 -0.0230
  290SOL    HW1 2033   3.083   1.516   7.234 -0.1500  1.9809  0.1276
  290SOL    HW2 2034   2.974   1.555   7.136  0.4383  0.4544 -1.1720
  291SOL     OW 2035   0.812   1.066   1.129 -0.6695 -0.3550  0.4568
  291SOL    HW1 2036   0.829   1.145   1.180 -0.3221 -0.0484 -0.1246
  291SOL    HW2 2037   0.752   1.094   1.060 -0.6688 -0.6313  0.3413
  292SOL     OW 2038   6.407   4.042   2.872  0.3169  0.0600  0.0081
  292SOL    HW1 2039   6.377   4.080   2.789  0.9778 -0.9802 -0.7405
  292SOL    HW2 2040   6.485   3.993   2.848  0.1282 -0.8261  1.1319
  293SOL     OW 2041   3.487   5.390   7.067 -0.0802 -0.8625 -0.3757
  293SOL    HW1 2042   3.512   5.298   7.061  2.4001 -0.3367  0.8178
  293SOL    HW2 2043   3.567   5.439   7.049 -1.0268  1.0543  0.2913
  294SOL     OW 2044   2.461   2.833   8.587  0.0668  0.9486  0.3530
  294SOL    HW1 2045   2.440   2.917   8.547 -0.8694 -0.2197 -1.7429
  294SOL    HW2 2046   2.439   2.768   8.521  1.8548 -0.9176  1.4672
  295SOL     OW 2047   1.182   6.183   8.545  0.0596  0.5210 -0.4123
  295SOL    HW1 2048   1.241   6.195   8.619 -0.0203  1.8895 -0.5416
  295SOL    HW2 2049   1.209   6.100   8.506 -0.1143 -0.4121  1.3240
  296SOL     OW 2050   6.851   1.937   7.474 -0.2774  0.3525 -0.0406
  296SOL    HW1 2051   6.843   2.012   7.533 -1.0937 -1.3494  2.1568
  296SOL    HW2 2052   6.803   1.867   7.517  1.8875 -1.9789 -1.1187
  297SOL     OW 2053   1.976   4.188   3.043 -0.2142  0.5740 -0.3432
  297SOL    HW1 2054   1.926   4.250   2.991  1.5969  1.4642 -1.0906
  297SOL    HW2 2055   1.994   4.234   3.125  0.2058  0.6190 -0.4617
  298SOL     OW 2056   0.768   1.381   4.361 -0.5158  0.0755  0.5803
  298SOL    HW1 2057   0.719   1.343   4.287 -1.3671  2.2587 -0.0633
  298SOL    HW2 2058   0.744   1.327   4.436 -4.8347  1.4930  0.5269
  299SOL     OW 2059   1.412   7.622   0.411 -0.0937 -0.0337 -0.5186
  299SOL    HW1 2060   1.471   7.630   0.486  0.0844  1.3261 -0.7779
  299SOL    HW2 2061   1.333   7.582   0.448 -0.4100  1.5689  0.6601
  300SOL     OW 2062   5.772   0.955   7.598 -0.9160  0.0960  0.3077
  300SOL    HW1 2063   5.791   1.031   7.653 -0.3304  0.2006 -0.0255
  300SOL    HW2 2064   5.858   0.930   7.561 -1.1364 -0.5886  0.2434
  301SOL     OW 2065   2.347   5.090   0.843 -0.5208 -0.6684 -0.0728
  301SOL    HW1 2066   2.427   5.138   0.821 -1.2082 -0.0249 -1.2885
  301SOL    HW2 2067   2.322   5.047   0.761 -2.2503  0.4062 -0.1619
  302SOL     OW 2068   8.420   2.813   6.662  0.6123  0.0308  0.1287
  302SOL    HW1 2069   8.423   2.909   6.657  1.4144 -0.0207 -0.8596
  302SOL    HW2 2070   8.403   2.785   6.572 -0.1655 -0.7529  0.5095
  303SOL     OW 2071   2.157   4.180   5.488 -0.1037  0.5741 -0.2595
  303SOL    HW1 2072   2.145   4.255   5.546  1.9793  0.4192  0.4560
  303SOL    HW2 2073   2.167   4.218   5.401 -3.5198  0.7938 -0.6845
  304SOL     OW 2074   2.351   8.692   5.708 -0.3953  0.0850 -0.8431
  304SOL    HW1 2075   2.352   8.787   5.712  0.8097  0.0826 -0.6716
  304SOL    HW2 2076   2.415   8.664   5.773 -0.5919 -0.8353 -1.0265
  305SOL     OW 2077   2.843   7.362   7.754 -0.6201 -0.0189 -0.0189
  305SOL    HW1 2078   2.856   7.402   7.840 -3.1158  2.1315 -0.5152
  305SOL    HW2 2079   2.806   7.276   7.772  1.0091 -0.5397  1.0404
  306SOL     OW 2080   2.150   8.809   6.466  0.9653  0.2292  0.2284
  306SOL    HW1 2081   2.070   8.842   6.425  0.5044  0.3913  1.2281
  306SOL    HW2 2082   2.129   8.718   6.489  0.6706  0.5698  1.4215
  307SOL     OW 2083   1.992   5.945   5.233 -0.3250 -0.1974  0.0048
  307SOL    HW1 2084   2.073   5.994   5.220  0.2162 -1.0436  0.1508
  307SOL    HW2 2085   1.962   5.923   5.145  0.6032 -1.4805 -0.0159
  308SOL     OW 2086   5.525   8.322   4.846 -0.2992 -0.1714  0.1137
  308SOL    HW1 2087   5.477   8.330   4.763 -2.5073  0.2066  1.3773
  308SOL    HW2 2088   5.511   8.405   4.890  0.7606 -0.4207  0.9490
  309SOL     OW 2089   3.901   6.248   7.231 -0.4582 -0.4434 -0.2715
  309SOL    HW1 2090   3.863   6.160   7.222  1.1441 -1.5420  2.4802
  309SOL    HW2 2091   3.979   6.246   7.174 -0.3189 -0.8733 -0.0679
  310SOL     OW 2092   5.877   4.045   8.538  0.2546 -0.1586 -0.3965
  310SOL    HW1 2093   5.905   4.130   8.505 -0.6817  0.0587 -0.6600
  310SOL    HW2 2094   5.867   3.991   8.460  0.8171 -0.5020 -0.2317
  311SOL     OW 2095   8.687   2.178   1.141 -0.1989  0.5488 -0.1316
  311SOL    HW1 2096   8.622   2.123   1.096 -0.9773  0.3191  1.1919
  311SOL    HW2 2097   8.635   2.243   1.188  0.6393  1.4118 -0.3704
  312SOL     OW 2098   4.781   7.949   0.415 -0.1046  0.4185 -0.0951
  312SOL    HW1 2099   4.849   8.012   0.440  0.2636 -0.5865  1.5867
  312SOL    HW2 2100   4.816   7.864   0.440 -1.6432 -0.2136  0.0591
  313SOL     OW 2101   7.876   2.923   1.614 -0.1355 -0.1775  0.1112
  313SOL    HW1 2102   7.910   2.857   1.554 -0.2031 -0.9572  0.9157
  313SOL    HW2 2103   7.946   2.987   1.623  0.2375 -0.5630 -0.0488
  314SOL     OW 2104   5.177   0.040   6.898 -0.6890  0.0711 -0.8493
  314SOL    HW1 2105   5.240   0.087   6.844  1.3496 -2.4279 -0.8200
  314SOL    HW2 2106   5.135  -0.022   6.839  1.5362 -2.6719  0.2620
  315SOL     OW 2107   5.379   3.254   1.001 -0.0505 -0.2971  0.1548
  315SOL    HW1 2108   5.422   3.182   1.047 -0.7517 -0.6651  0.2464
  315SOL    HW2 2109   5.379   3.326   1.063  1.8979  0.2666 -0.4028
  316SOL     OW 2110   0.607   4.142   5.688  1.1462 -0.0538  0.6026
  316SOL    HW1 2111   0.642   4.095   5.764  0.5798 -0.7565  0.4300
  316SOL    HW2 2112   0.678   4.202   5.663  1.8140 -0.6977  0.9152
  317SOL     OW 2113   7.324   1.806   0.558  0.4816  0.1682 -0.1963
  317SOL    HW1 2114   7.277   1.878   0.517 -0.9729  0.5848  2.0529
  317SOL    HW2 2115   7.334   1.741   0.488 -0.6349  1.3860 -1.5462
  318SOL     OW 2116   2.566   0.995   2.747 -0.0727  0.0020  0.0604
  318SOL    HW1 2117   2.563   1.010   2.842 -1.2661  0.6372 -0.0510
  318SOL    HW2 2118   2.658   1.006   2.724  0.7462 -2.7656  1.5251
  319SOL     OW 2119   6.692   4.529   2.346  0.3511  0.0411  0.1766
  319SOL    HW1 2120   6.774   4.521   2.297 -0.0530  1.7742 -0.8487
  319SOL    HW2 2121   6.667   4.438   2.365  0.5490 -0.7367 -2.7975
  320SOL     OW 2122   5.868   5.471   0.520 -0.2690  0.0893 -0.1199
  320SOL    HW1 2123   5.840   5.527   0.448  0.2290 -0.7722 -1.0123
  320SOL    HW2 2124   5.929   5.525   0.570 -0.5761  0.6808 -0.3761
  321SOL     OW 2125   1.187   3.207   7.308  0.1094  0.2953 -0.3319
  321SOL    HW1 2126   1.150   3.118   7.309 -0.2655  0.4467  0.8520
  321SOL    HW2 2127   1.119   3.261   7.268  0.4125  0.0249 -1.2256
  322SOL     OW 2128   3.218   6.609   8.219 -0.2139  0.3373  0.1996
  322SOL    HW1 2129   3.150   6.545   8.240 -1.1281  0.9968 -0.6305
  322SOL    HW2 2130   3.242   6.647   8.303 -1.5497  0.7407  0.4274
  323SOL     OW 2131   5.346   4.026   0.819 -0.1292 -0.5421  0.1575
  323SOL    HW1 2132   5.440   4.016   0.804 -0.1791 -0.3826 -0.2793
  323SOL    HW2 2133   5.315   3.939   0.843 -0.1495 -0.9684 -1.2871
  324SOL     OW 2134   5.604   6.021   6.360 -0.1452 -0.4182 -0.3442
  324SOL    HW1 2135   5.615   5.926   6.360  1.4600 -0.2747  0.4353
  324SOL    HW2 2136   5.559   6.040   6.443 -0.4164 -0.4827 -0.4748
  325SOL     OW 2137   4.175   4.869   3.552  0.2158 -0.1348 -0.2105
  325SOL    HW1 2138   4.084   4.856   3.526  0.6081 -1.5209 -1.0013
  325SOL    HW2 2139   4.214   4.918   3.479  0.9201 -2.6345 -1.6621
  326SOL     OW 2140   6.153   1.552   2.021  0.5665  0.3263 -0.3948
  326SOL    HW1 2141   6.149   1.458   2.040  0.3177  0.6253  1.1541
  326SOL    HW2 2142   6.075   1.570   1.969 -0.4425  0.0144  0.9657
  327SOL     OW 2143   7.164   4.699   4.131  0.3382 -0.3748  0.4343
  327SOL    HW1 2144   7.122   4.660   4.207 -0.3973  0.6809  0.6044
  327SOL    HW2 2145   7.223   4.632   4.098  0.5339 -0.9109  1.8248
  328SOL     OW 2146   6.431   0.798   3.943  0.0587  0.4818 -0.3161
  328SOL    HW1 2147   6.469   0.834   4.023 -1.6654  0.2781  0.6425
  328SOL    HW2 2148   6.440   0.869   3.879 -0.2193  1.3544  0.5861
  329SOL     OW 2149   3.932   2.167   2.918  0.1169  0.1448  0.5593
  329SOL    HW1 2150   3.934   2.136   3.008  0.6485  0.3047  0.6033
  329SOL    HW2 2151   3.976   2.252   2.921 -1.2112  0.8586  0.4200
  330SOL     OW 2152   2.963   2.742   0.616 -0.1972 -0.4990 -0.0167
  330SOL    HW1 2153   2.878   2.756   0.574 -0.4346 -1.9770 -0.0856
  330SOL    HW2 2154   2.968   2.810   0.683 -0.1816  1.3783 -1.8095
  331SOL     OW 2155   5.822   6.958   3.113 -0.0200 -0.2359 -0.9783
  331SOL    HW1 2156   5.881   6.921   3.046  2.1909  2.3719 -0.6777
  331SOL    HW2 2157   5.857   7.046   3.128 -1.5009 -0.1031  2.3967
  332SOL     OW 2158   6.177   1.476   6.462  0.1713  0.1979  0.4761
  332SOL    HW1 2159   6.189   1.384   6.438 -0.9386  0.2260 -0.2511
  332SOL    HW2 2160   6.241   1.491   6.532  1.0509 -0.8530 -0.0666
  333SOL     OW 2161   7.148   1.871   7.428 -0.0798 -0.2834 -0.0646
  333SOL    HW1 2162   7.182   1.940   7.485  0.2446  2.0503 -2.8468
  333SOL    HW2 2163   7.053   1.888   7.424  0.0515  0.2889 -1.0458
  334SOL     OW 2164   8.846   3.777   6.625 -0.4952 -0.0980  0.1755
  334SOL    HW1 2165   8.834   3.715   6.697  1.4376 -1.4031 -0.5275
  334SOL    HW2 2166   8.899   3.729   6.561  2.0577  2.6098  0.0450
  335SOL     OW 2167   4.886   6.484   4.019  0.0414 -0.2902  0.3253
  335SOL    HW1 2168   4.957   6.430   4.055  0.9203 -1.4474 -2.7797
  335SOL    HW2 2169   4.854   6.535   4.094  1.9322 -2.1246  2.5454
  336SOL     OW 2170   7.627   3.466   0.490 -0.0987 -0.4156  0.2262
  336SOL    HW1 2171   7.621   3.561   0.490 -2.3149 -0.5102  0.5928
  336SOL    HW2 2172   7.551   3.437   0.440  0.5520 -2.0112  0.1004
  337SOL     OW 2173   8.224   6.533   3.950 -0.5025  0.2297 -0.1602
  337SOL    HW1 2174   8.298   6.482   3.916 -0.4880  1.0023 -1.3210
  337SOL    HW2 2175   8.244   6.623   3.927 -1.6399  0.4935 -0.1689
  338SOL     OW 2176   5.478   1.039   4.083 -0.0893 -0.1441 -0.2196
  338SOL    HW1 2177   5.427   1.097   4.139 -2.0729 -0.7459 -1.3217
  338SOL    HW2 2178   5.510   0.971   4.142  0.1819  0.6972  0.6364
  339SOL     OW 2179   8.101   6.789   7.458 -0.3243 -0.0329  0.2426
  339SOL    HW1 2180   8.154   6.727   7.407 -1.9536 -2.0305  0.8725
  339SOL    HW2 2181   8.130   6.776   7.549  0.0485  0.9158  0.2720
  340SOL     OW 2182   3.754   5.650   1.852 -0.6640  0.2625  0.1348
  340SOL    HW1 2183   3.795   5.620   1.771  0.0840  1.0162  0.2155
  340SOL    HW2 2184   3.729   5.570   1.897 -1.5322 -0.1615 -1.0527
  341SOL     OW 2185   4.263   6.417   8.585  0.0048 -0.0358 -0.2387
  341SOL    HW1 2186   4.300   6.328   8.589 -0.1757 -0.1181 -0.3670
  341SOL    HW2 2187   4.194   6.411   8.518  0.5020  0.3913 -0.7931
  342SOL     OW 2188   5.269   3.022   4.786 -0.0829  0.3979  0.3045
  342SOL    HW1 2189   5.337   3.018   4.719 -0.3975 -0.1174  0.0132
  342SOL    HW2 2190   5.312   2.992   4.866 -0.0256 -0.1449  0.0735
  343SOL     OW 2191   4.658   3.100   2.325 -0.4040 -0.4095  0.0325
  343SOL    HW1 2192   4.618   3.066   2.405 -1.8238 -1.0452 -0.9011
  343SOL    HW2 2193   4.747   3.064   2.325 -0.5627 -0.8258  1.0610
  344SOL     OW 2194   7.218   3.854   2.784  0.1364  0.2776  0.6279
  344SOL    HW1 2195   7.299   3.891   2.821  1.4317 -2.5067  0.8568
  344SOL    HW2 2196   7.217   3.885   2.694  0.8685  1.2218  0.9237
  345SOL     OW 2197   2.819   0.478   1.398  0.2172  0.5280 -0.4953
  345SOL    HW1 2198   2.865   0.477   1.482 -2.1572  1.3963  0.9052
  345SOL    HW2 2199   2.813   0.386   1.373 -0.0589  0.1400  0.8975
  346SOL     OW 2200   0.475   6.806   6.600 -0.2880 -0.3446 -1.3197
  346SOL    HW1 2201   0.528   6.852   6.665  0.2650 -0.3963 -1.7224
  346SOL    HW2 2202   0.493   6.853   6.518 -0.1864 -0.9028 -1.6223
  347SOL     OW 2203   5.186   0.210   6.056 -0.6487 -0.4254 -0.0755
  347SOL    HW1 2204   5.246   0.217   6.131  0.2514  1.1852 -0.8957
  347SOL    HW2 2205   5.243   0.192   5.981 -1.3027  0.1205 -0.7153
  348SOL     OW 2206   0.291   7.184   7.121  0.3771 -0.0300 -0.1871
  348SOL    HW1 2207   0.357   7.203   7.054  1.2520  2.4593  1.2402
  348SOL    HW2 2208   0.211   7.223   7.087  0.9010  1.5481  0.2863
  349SOL     OW 2209   8.104   0.021   2.197  0.5715  0.3432 -0.3979
  349SOL    HW1 2210   8.181  -0.003   2.249  1.0664  2.8541  0.1482
  349SOL    HW2 2211   8.139   0.045   2.112  0.6667  2.7836  0.2461
  350SOL     OW 2212   0.174   3.357   3.626 -0.3450 -0.1718  0.2230
  350SOL    HW1 2213   0.144   3.390   3.542 -1.7442 -1.6009  0.1062
  350SOL    HW2 2214   0.158   3.428   3.688  0.2651  0.7166 -0.6221
  351SOL     OW 2215   1.177   8.044   1.055 -0.5026  0.8078 -0.0532
  351SOL    HW1 2216   1.188   8.005   0.968  1.3878  0.4394  0.3017
  351SOL    HW2 2217   1.085   8.031   1.076 -0.9463  0.7243 -1.9126
  352SOL     OW 2218   4.966   2.974   2.894  0.2706 -0.0789  0.3046
  352SOL    HW1 2219   4.873   2.968   2.919  0.0688 -1.2304 -0.6415
  352SOL    HW2 2220   4.979   3.067   2.874 -0.5993  0.1452  0.7268
  353SOL     OW 2221   7.185   7.329   4.713  0.0747 -0.2083 -0.1912
  353SOL    HW1 2222   7.183   7.311   4.619 -1.4390  0.6653 -0.3687
  353SOL    HW2 2223   7.278   7.338   4.734  0.4727 -1.0164 -1.4739
  354SOL     OW 2224   5.191   4.536   8.587  0.5464 -0.0246 -0.5131
  354SOL    HW1 2225   5.113   4.528   8.531 -1.1922 -0.4385  1.8008
  354SOL    HW2 2226   5.193   4.628   8.612  1.1525  0.1026 -1.0198
  355SOL     OW 2227   8.809   2.541   7.155 -0.4596  0.1607  0.2632
  355SOL    HW1 2228   8.834   2.534   7.247  0.2833  1.3225  0.1812
  355SOL    HW2 2229   8.769   2.628   7.149 -1.7971 -0.4642 -0.2432
  356SOL     OW 2230   6.187   6.118   6.468  0.4039  0.7668 -0.2531
  356SOL    HW1 2231   6.168   6.025   6.472  2.0149  0.2887 -2.1779
  356SOL    HW2 2232   6.105   6.158   6.438  0.0402 -0.1929 -0.5857
  357SOL     OW 2233   2.056   3.444   0.795  0.4574  0.0371 -0.2883
  357SOL    HW1 2234   2.057   3.502   0.871 -0.7700 -0.8889  0.4614
  357SOL    HW2 2235   2.009   3.366   0.824 -0.1346 -0.3031 -2.0179
  358SOL     OW 2236   4.632   5.014   5.664  0.3734 -0.1962 -0.0257
  358SOL    HW1 2237   4.647   5.108   5.653  2.8937 -0.3413  1.2198
  358SOL    HW2 2238   4.645   4.999   5.757 -1.2068 -1.6447  0.0077
  359SOL     OW 2239   0.503   8.549   0.618  0.2256 -0.1059 -0.2054
  359SOL    HW1 2240   0.523   8.629   0.570  0.3366  0.4326  0.7158
  359SOL    HW2 2241   0.589   8.510   0.637  0.2211  0.0555  0.1629
  360SOL     OW 2242   1.293   1.926   7.810  0.9399 -0.1226  0.0115
  360SOL    HW1 2243   1.248   1.871   7.746  0.8643 -0.0281 -0.0161
  360SOL    HW2 2244   1.354   1.866   7.854 -1.4030 -1.0737  2.2581
  361SOL     OW 2245   2.688   2.495   3.511  0.2334  0.0519  0.0353
  361SOL    HW1 2246   2.624   2.528   3.574 -0.3807  0.8402 -0.9552
  361SOL    HW2 2247   2.773   2.510   3.553 -0.2012 -0.8565  1.2979
  362SOL     OW 2248   3.828   5.385   1.267 -0.2463 -0.3947 -0.3202
  362SOL    HW1 2249   3.761   5.334   1.312 -0.3316  0.1212  0.1554
  362SOL    HW2 2250   3.860   5.328   1.197 -1.5917 -0.4393 -0.9329
  363SOL     OW 2251   3.302   5.950   2.706 -0.0216  0.0277 -0.2036
  363SOL    HW1 2252   3.375   5.888   2.704  0.2471  0.1608  2.2957
  363SOL    HW2 2253   3.284   5.968   2.614  1.0788 -2.3490 -0.9753
  364SOL     OW 2254   4.233   1.405   3.824  0.5432  0.3468 -0.1881
  364SOL    HW1 2255   4.303   1.339   3.824 -0.1156 -0.3738 -0.2705
  364SOL    HW2 2256   4.270   1.480   3.871  2.0509  0.7310 -1.8917
  365SOL     OW 2257   2.865   4.974   8.554 -0.0175  0.1961  0.6385
  365SOL    HW1 2258   2.831   5.010   8.472  1.1681  0.1083  0.1008
  365SOL    HW2 2259   2.960   4.978   8.545  0.1403 -1.1111  1.4371
  366SOL     OW 2260   3.088   3.856   4.222  0.0936 -0.4025  0.2818
  366SOL    HW1 2261   3.004   3.815   4.202 -0.7380  1.3966 -0.0921
  366SOL    HW2 2262   3.066   3.933   4.275  1.6735 -0.8828  1.7039
  367SOL     OW 2263   0.744   2.385   8.741 -0.1181 -0.0329  0.7692
  367SOL    HW1 2264   0.803   2.420   8.674  1.0678 -2.3081  0.5323
  367SOL    HW2 2265   0.656   2.403   8.706  0.4389 -1.8941 -1.9377
  368SOL     OW 2266   7.435   5.722   5.252 -0.1214 -0.1516 -0.6000
  368SOL    HW1 2267   7.504   5.667   5.291  0.8409  0.1208 -1.8455
  368SOL    HW2 2268   7.412   5.678   5.171 -2.5105 -1.0092  0.4639
  369SOL     OW 2269   1.093   3.889   8.814 -0.0394 -0.2491 -0.4605
  369SOL    HW1 2270   1.024   3.842   8.861  0.7635 -1.3204 -0.3259
  369SOL    HW2 2271   1.047   3.961   8.771 -0.9509  0.2277  1.1948
  370SOL     OW 2272   0.085   1.875   0.190  0.1222  0.0405 -0.2374
  370SOL    HW1 2273   0.045   1.962   0.195  0.4107  0.1035  1.5394
  370SOL    HW2 2274   0.177   1.892   0.171  0.4947  0.2548  1.5643
  371SOL     OW 2275   3.596   8.592   3.945  0.4235 -0.0595  0.3744
  371SOL    HW1 2276   3.615   8.553   4.030 -2.1316 -0.8915  0.6513
  371SOL    HW2 2277   3.554   8.675   3.966 -0.5958 -0.4580 -0.0303
  372SOL     OW 2278   7.334   0.701   1.536  0.0112 -0.6451  0.0354
  372SOL    HW1 2279   7.309   0.627   1.592  1.8784  0.8603  3.1683
  372SOL    HW2 2280   7.427   0.686   1.517  0.0281  0.1541 -0.5381
  373SOL     OW 2281   0.768   7.187   3.707  0.3455  0.3722  0.0398
  373SOL    HW1 2282   0.829   7.173   3.779  1.7389 -1.1294 -1.3179
  373SOL    HW2 2283   0.824   7.211   3.633 -0.7174 -0.6227 -1.1453
  374SOL     OW 2284   7.657   0.035   7.888 -0.0619  0.4045 -0.2922
  374SOL    HW1 2285   7.656   0.059   7.981 -0.0346  0.2990 -0.2642
  374SOL    HW2 2286   7.597  -0.040   7.882  0.5148 -0.0698 -0.2270
  375SOL     OW 2287   0.559   3.211   1.695  0.3307 -0.0371 -0.0984
  375SOL    HW1 2288   0.479   3.173   1.659  1.8180 -1.1922 -2.5036
  375SOL    HW2 2289   0.530   3.288   1.744 -2.2600 -0.7766 -0.3146
  376SOL     OW 2290   6.741   7.834   5.646  0.2771 -0.2512  0.2374
  376SOL    HW1 2291   6.806   7.819   5.714 -1.4836 -0.5925  1.9305
  376SOL    HW2 2292   6.732   7.750   5.602  0.3127 -0.4633  0.6303
  377SOL     OW 2293   7.446   3.233   1.828  0.1396 -0.0493 -0.0404
  377SOL    HW1 2294   7.366   3.212   1.876  0.5924 -0.5357  0.5110
  377SOL    HW2 2295   7.472   3.319   1.861 -0.6316  0.5199 -0.8656
  378SOL     OW 2296   2.723   3.967   3.633  0.4492  0.1882 -0.0781
  378SOL    HW1 2297   2.712   3.980   3.728  0.4533 -0.8001  0.0658
  378SOL    HW2 2298   2.647   4.010   3.594 -0.3707 -0.7009  0.4813
  379SOL     OW 2299   2.557   4.269   7.452  0.3457  0.3857 -0.0534
  379SOL    HW1 2300   2.467   4.284   7.482 -0.0471  0.8484 -1.3948
  379SOL    HW2 2301   2.561   4.175   7.433  0.9816 -0.1890  2.5400
  380SOL     OW 2302   5.083   4.261   0.166  0.2256 -0.0253  0.1641
  380SOL    HW1 2303   5.157   4.265   0.105 -0.9849 -1.1120 -1.4689
  380SOL    HW2 2304   5.114   4.307   0.244  2.7818 -0.7976 -0.2698
  381SOL     OW 2305   7.827   5.679   1.341 -0.2660 -0.0538  0.2469
  381SOL    HW1 2306   7.856   5.714   1.257  0.4505  0.0165  0.5090
  381SOL    HW2 2307   7.736   5.653   1.327 -1.0969  2.5942  0.2379
  382SOL     OW 2308   5.702   2.536   5.799  0.1066  0.2794  0.1191
  382SOL    HW1 2309   5.763   2.465   5.817  0.1292 -0.1956 -1.5751
  382SOL    HW2 2310   5.639   2.534   5.871  0.2985 -1.2565  0.2738
  383SOL     OW 2311   2.218   3.910   7.427  0.2544 -0.5118 -0.0482
  383SOL    HW1 2312   2.199   3.818   7.408 -0.1799 -0.3819 -0.2713
  383SOL    HW2 2313   2.232   3.913   7.522  0.3178 -0.8138 -0.0469
  384SOL     OW 2314   7.908   6.386   0.674 -0.0848  0.0577  0.5454
  384SOL    HW1 2315   7.958   6.460   0.639  1.7039 -0.6536  1.4983
  384SOL    HW2 2316   7.904   6.403   0.768 -0.9063 -0.3623  0.5956
  385SOL     OW 2317   6.080   8.180   3.152 -0.0393 -0.0721  0.0356
  385SOL    HW1 2318   6.016   8.112   3.130  0.7921 -0.4264 -1.4837
  385SOL    HW2 2319   6.041   8.261   3.119  0.2892 -0.2995 -0.9608
  386SOL     OW 2320   0.485   1.263   4.994 -0.1638 -0.5798 -0.2420
  386SOL    HW1 2321   0.549   1.200   4.960 -1.0834 -1.6101 -0.1206
  386SOL    HW2 2322   0.403   1.213   5.001 -1.2253  0.9219 -1.2411
  387SOL     OW 2323   4.373   8.716   3.730  0.0805 -0.7835  0.0819
  387SOL    HW1 2324   4.390   8.622   3.721 -0.2597 -0.7709 -0.8700
  387SOL    HW2 2325   4.427   8.756   3.663  0.9180 -0.2048  1.0817
  388SOL     OW 2326   1.053   7.290   1.521  0.0441  0.2013  0.3962
  388SOL    HW1 2327   0.958   7.301   1.513  0.1620  1.0380 -0.0199
  388SOL    HW2 2328   1.087   7.380   1.521  0.8327 -0.0906  0.5865
  389SOL     OW 2329   0.638   6.424   8.130  0.2065 -0.0848  0.3431
  389SOL    HW1 2330   0.678   6.441   8.045 -0.1311  1.0663  0.3940
  389SOL    HW2 2331   0.544   6.420   8.112  0.0048  1.5444  0.8207
  390SOL     OW 2332   1.852   0.603   4.959 -0.6097  0.0975 -0.1283
  390SOL    HW1 2333   1.770   0.648   4.978 -0.5024  0.6541 -0.9569
  390SOL    HW2 2334   1.872   0.555   5.040 -1.1328  0.8964  0.4906
  391SOL     OW 2335   3.425   7.649   0.910  0.2536  0.1728 -0.0854
  391SOL    HW1 2336   3.481   7.637   0.986 -0.8110  0.5343  0.7886
  391SOL    HW2 2337   3.356   7.709   0.940 -0.7729 -0.4921 -1.0226
  392SOL     OW 2338   4.755   1.641   4.472  0.6722 -0.2941  0.4253
  392SOL    HW1 2339   4.722   1.669   4.557  0.1088 -2.8077  1.1111
  392SOL    HW2 2340   4.746   1.718   4.416  0.6063  1.2783  2.4918
  393SOL     OW 2341   6.422   6.395   2.888  0.3446  0.3165  0.1181
  393SOL    HW1 2342   6.491   6.461   2.881  0.3336  0.4112  0.8795
  393SOL    HW2 2343   6.450   6.325   2.828  1.1674  0.2998  0.5031
  394SOL     OW 2344   4.376   7.040   6.538 -0.0826  0.1690 -0.3548
  394SOL    HW1 2345   4.402   7.051   6.447  1.6589  0.9946  0.1962
  394SOL    HW2 2346   4.304   6.977   6.535 -0.8315  1.0239 -2.3834
  395SOL     OW 2347   5.745   0.785   0.599  0.1360 -0.1036 -0.2335
  395SOL    HW1 2348   5.760   0.879   0.590  0.6152 -0.2306 -0.7902
  395SOL    HW2 2349   5.827   0.752   0.637 -0.2258 -0.2228  0.4594
  396SOL     OW 2350   5.224   2.183   2.848  0.5360 -0.2734  0.5095
  396SOL    HW1 2351   5.169   2.104   2.843  1.6908 -1.1015  0.5127
  396SOL    HW2 2352   5.219   2.209   2.940  0.8296 -0.8534  0.6951
  397SOL     OW 2353   3.317   5.246   5.689 -0.0153  0.1404 -0.0368
  397SOL    HW1 2354   3.267   5.302   5.749 -0.0597  1.3997 -1.1973
  397SOL    HW2 2355   3.250   5.196   5.643 -0.3433  2.0843 -1.8464
  398SOL     OW 2356   5.520   7.756   7.051 -0.8303  0.7411 -0.6364
  398SOL    HW1 2357   5.455   7.790   6.990 -1.8835  1.5244  0.8635
  398SOL    HW2 2358   5.507   7.806   7.131  0.0439 -0.7232  0.4800
  399SOL     OW 2359   0.200   2.090   6.103  0.2093 -0.3255 -0.3113
  399SOL    HW1 2360   0.281   2.115   6.060 -0.1232 -0.8469 -1.2622
  399SOL    HW2 2361   0.225   2.074   6.194  1.6217 -2.5529 -1.0202
  400SOL     OW 2362   2.779   4.810   4.394 -0.0577 -0.3424  0.0270
  400SOL    HW1 2363   2.774   4.743   4.463 -0.0483 -1.3803 -0.9522
  400SOL    HW2 2364   2.725   4.882   4.427 -1.9691 -1.7437  0.1194
  401SOL     OW 2365   5.354   6.280   1.568  0.2569  0.2090  0.1300
  401SOL    HW1 2366   5.263   6.292   1.542 -0.0849 -1.2816  0.5707
  401SOL    HW2 2367   5.350   6.246   1.657  1.2178 -0.1918  0.0371
  402SOL     OW 2368   0.918   0.796   5.351  0.4494 -0.2144  0.1386
  402SOL    HW1 2369   0.925   0.820   5.258 -2.2352 -0.7105 -0.2939
  402SOL    HW2 2370   0.958   0.710   5.356 -0.4338 -0.7242 -0.8851
  403SOL     OW 2371   2.509   3.111   4.846 -0.2640 -0.2678 -0.0638
  403SOL    HW1 2372   2.445   3.182   4.839 -1.1251 -1.0278 -0.1456
  403SOL    HW2 2373   2.457   3.036   4.876  0.6433 -0.8426  0.0989
  404SOL     OW 2374   3.410   7.532   6.685 -0.2165  0.4984  0.1993
  404SOL    HW1 2375   3.413   7.609   6.743 -0.5416 -0.4924  1.5988
  404SOL    HW2 2376   3.316   7.514   6.676 -0.1239 -0.0587  0.3422
  405SOL     OW 2377   0.571   2.843   3.103 -0.7596  0.1183  0.0537
  405SOL    HW1 2378   0.551   2.821   3.013 -2.4611  0.3880  0.3253
  405SOL    HW2 2379   0.575   2.759   3.149  1.2966 -0.0981 -0.4649
  406SOL     OW 2380   6.128   3.420   6.713 -0.0372  0.0548  0.3114
  406SOL    HW1 2381   6.149   3.327   6.704  0.3697  0.0552  1.2296
  406SOL    HW2 2382   6.212   3.463   6.728 -0.4344  0.3050  1.9611
  407SOL     OW 2383   3.233   0.603   0.253 -0.5944 -0.5761  0.3902
  407SOL    HW1 2384   3.211   0.610   0.160 -0.3233 -1.3939  0.2588
  407SOL    HW2 2385   3.325   0.629   0.257 -1.2428  2.0141  0.8230
  408SOL     OW 2386   8.839   5.977   7.305  0.2854  0.5059 -0.0553
  408SOL    HW1 2387   8.919   5.948   7.260  0.6087 -0.6212  1.1904
  408SOL    HW2 2388   8.866   5.991   7.396 -1.1209 -0.9499  0.6451
  409SOL     OW 2389   2.333   8.210   3.056 -0.0934  0.3650  0.6540
  409SOL    HW1 2390   2.395   8.245   3.120 -1.3342 -0.8469  2.6036
  409SOL    HW2 2391   2.251   8.256   3.074 -0.1450  1.0194 -1.0430
  410SOL     OW 2392   2.609   5.125   5.013 -0.3950  0.2728  0.5216
  410SOL    HW1 2393   2.569   5.081   5.088 -0.2893 -0.9341 -0.1125
  410SOL    HW2 2394   2.536   5.172   4.972 -0.2652  1.8310  1.9386
  411SOL     OW 2395   0.198   3.718   2.358  0.4848  0.0869  0.2891
  411SOL    HW1 2396   0.176   3.630   2.328 -1.3809  0.3417  0.7841
  411SOL    HW2 2397   0.159   3.725   2.445  0.3811  1.4677  0.1615
  412SOL     OW 2398   6.327   8.688   6.216  0.1990 -0.3188  0.2750
  412SOL    HW1 2399   6.307   8.711   6.125  2.3012 -1.8049 -0.6621
  412SOL    HW2 2400   6.322   8.770   6.264  0.7666  0.8228 -1.5429
  413SOL     OW 2401   8.064   2.137   3.844  0.3878 -0.3640 -0.4143
  413SOL    HW1 2402   8.066   2.222   3.801 -0.1105  0.0504  0.3749
  413SOL    HW2 2403   8.119   2.147   3.922  0.9617 -0.9982 -0.7171
  414SOL     OW 2404   2.040   6.620   0.461 -0.2952  0.0936  0.3386
  414SOL    HW1 2405   2.048   6.665   0.545  1.4589  0.7942 -0.1585
  414SOL    HW2 2406   2.003   6.686   0.402  0.6789  0.3672  0.0177
  415SOL     OW 2407   1.742   6.125   0.446 -0.6204  0.3150  0.1059
  415SOL    HW1 2408   1.732   6.130   0.351 -2.1459  1.0701  0.2659
  415SOL    HW2 2409   1.765   6.214   0.472 -1.9009  0.5293  0.5816
  416SOL     OW 2410   6.479   6.290   6.116  0.3496 -0.2830 -0.7222
  416SOL    HW1 2411   6.391   6.319   6.090 -0.6092 -2.0437  0.3608
  416SOL    HW2 2412   6.483   6.199   6.087  2.4426  0.1812 -2.1171
  417SOL     OW 2413   1.270   2.024   7.290 -0.0287 -0.1468 -0.1111
  417SOL    HW1 2414   1.263   2.106   7.338  0.5618 -0.1192 -0.0749
  417SOL    HW2 2415   1.182   2.010   7.255  0.4683  1.9201 -2.4535
  418SOL     OW 2416   6.820   1.418   3.052 -0.2171  0.3625  0.6367
  418SOL    HW1 2417   6.767   1.343   3.081  0.0835  0.2180  0.8245
  418SOL    HW2 2418   6.766   1.463   2.988  0.1982 -0.8907 -0.6388
  419SOL     OW 2419   0.920   7.045   2.351  0.3694 -0.5003  0.1272
  419SOL    HW1 2420   0.984   7.117   2.351 -0.0000 -0.1688 -0.2846
  419SOL    HW2 2421   0.961   6.977   2.298  1.3460 -1.1715  1.6570
  420SOL     OW 2422   2.050   4.132   4.013  0.0486 -0.1644  0.2538
  420SOL    HW1 2423   1.994   4.188   3.959 -0.0415 -1.2819 -0.8719
  420SOL    HW2 2424   2.105   4.193   4.062 -0.3030  0.9089 -0.6375
  421SOL     OW 2425   5.598   3.291   4.624 -0.1875 -0.1797  0.1911
  421SOL    HW1 2426   5.548   3.249   4.694  1.3859  0.5389  1.8227
  421SOL    HW2 2427   5.667   3.227   4.603 -1.9052 -1.3723 -2.3736
  422SOL     OW 2428   6.960   8.309   6.863 -0.0488  0.1465  0.1985
  422SOL    HW1 2429   7.055   8.301   6.871 -0.1520  0.3662  2.3969
  422SOL    HW2 2430   6.928   8.219   6.873 -0.0903  0.0968 -0.3580
  423SOL     OW 2431   6.709   4.674   6.032  0.3235 -0.0579  0.0958
  423SOL    HW1 2432   6.685   4.613   6.101  0.0248 -0.7146 -0.5699
  423SOL    HW2 2433   6.644   4.745   6.038  0.4375  0.0023  0.6247
  424SOL     OW 2434   2.198   7.522   4.418  0.3369  0.0575  0.4474
  424SOL    HW1 2435   2.109   7.488   4.417  0.1550  0.4144  1.9742
  424SOL    HW2 2436   2.209   7.557   4.507  2.2607 -0.6995  0.5535
  425SOL     OW 2437   1.024   8.647   0.536  0.1860  0.1720  0.4213
  425SOL    HW1 2438   1.013   8.684   0.448  2.6195 -0.7968 -0.3796
  425SOL    HW2 2439   0.962   8.575   0.539 -0.1181  0.3844 -0.4031
  426SOL     OW 2440   8.181   6.519   5.143  0.2555  0.2262  0.4718
  426SOL    HW1 2441   8.236   6.468   5.083  0.0323  1.3344 -0.7045
  426SOL    HW2 2442   8.175   6.464   5.221 -0.9617 -2.1356 -1.1706
  427SOL     OW 2443   2.760   4.615   4.603 -0.5413  0.1821  0.3707
  427SOL    HW1 2444   2.780   4.531   4.562  1.4309  0.6869  0.2100
  427SOL    HW2 2445   2.789   4.605   4.694 -1.8380  0.1710  0.8077
  428SOL     OW 2446   7.118   7.886   4.979  0.5262  0.2675  0.6282
  428SOL    HW1 2447   7.038   7.921   5.019 -0.6691 -2.9382  1.3973
  428SOL    HW2 2448   7.098   7.882   4.885 -0.7637 -1.5039  0.9181
  429SOL     OW 2449   7.167   0.136   3.537  0.5299 -0.5698 -0.3015
  429SOL    HW1 2450   7.245   0.177   3.573  0.3457 -0.8978  0.4958
  429SOL    HW2 2451   7.097   0.200   3.553  0.3604 -0.9123  0.3710
  430SOL     OW 2452   8.742   2.318   2.571  0.0122  0.6417  0.6134
  430SOL    HW1 2453   8.731   2.264   2.492  2.1770 -0.4061  0.9475
  430SOL    HW2 2454   8.744   2.255   2.643  0.1504  1.3921  1.2700
  431SOL     OW 2455   0.895   6.266   0.730  0.1847 -0.4987 -0.2186
  431SOL    HW1 2456   0.971   6.315   0.762  1.2589 -1.9773 -0.4138
  431SOL    HW2 2457   0.887   6.292   0.638  1.4221 -1.4829 -0.6196
  432SOL     OW 2458   8.049   8.693   0.302  0.2341 -0.2099  0.1384
  432SOL    HW1 2459   8.068   8.777   0.261  0.8489  0.1880  1.2141
  432SOL    HW2 2460   7.975   8.711   0.361 -0.1548 -0.6054 -0.2219
  433SOL     OW 2461   0.925   5.629   7.616  0.0822  0.2967  0.2957
  433SOL    HW1 2462   0.830   5.634   7.627 -0.0624 -0.1441 -0.6108
  433SOL    HW2 2463   0.961   5.669   7.695 -0.8655  1.1051  0.3356
  434SOL     OW 2464   1.955   2.486   5.684 -0.1959 -0.0997  0.0424
  434SOL    HW1 2465   1.897   2.540   5.629  1.1605 -1.4088 -2.8785
  434SOL    HW2 2466   2.014   2.550   5.725 -0.8224  0.8922 -0.5385
  435SOL     OW 2467   6.896   0.588   6.535  0.3382 -0.1413 -0.1091
  435SOL    HW1 2468   6.842   0.667   6.544  0.8314  0.2505 -0.5345
  435SOL    HW2 2469   6.845   0.520   6.578 -0.1683  0.3751  0.1285
  436SOL     OW 2470   7.572   5.435   7.426 -0.1698  0.7355 -0.1534
  436SOL    HW1 2471   7.663   5.427   7.395  0.3937  2.3505  0.9412
  436SOL    HW2 2472   7.522   5.380   7.367  1.6762 -1.1402 -0.0994
  437SOL     OW 2473   0.505   8.028   0.061 -0.2644  0.2326 -0.1399
  437SOL    HW1 2474   0.597   8.004   0.053  0.5193  2.6585  0.7776
  437SOL    HW2 2475   0.497   8.111   0.014 -1.6976  0.7032  0.8682
  438SOL     OW 2476   3.227   3.938   0.409  0.5007 -0.4181  0.2054
  438SOL    HW1 2477   3.227   3.909   0.500  1.7314  1.2320  0.7805
  438SOL    HW2 2478   3.289   3.881   0.364  1.1626 -0.1740  0.7961
  439SOL     OW 2479   5.411   2.751   5.146  0.2360  0.0512  0.6044
  439SOL    HW1 2480   5.497   2.753   5.188  0.6191 -0.4280 -0.1421
  439SOL    HW2 2481   5.374   2.666   5.171  1.4200 -1.2948 -1.8235
  440SOL     OW 2482   7.418   3.195   2.847 -0.1057 -0.1581 -0.4642
  440SOL    HW1 2483   7.381   3.222   2.763 -1.6525 -0.7353 -0.0080
  440SOL    HW2 2484   7.502   3.240   2.852 -1.5250  2.7268 -0.7503
  441SOL     OW 2485   2.620   0.398   1.771  0.7613 -0.1522 -0.1431
  441SOL    HW1 2486   2.684   0.432   1.833  0.5867 -0.9502  0.4902
  441SOL    HW2 2487   2.572   0.476   1.741  0.2321  0.1611  1.4239
  442SOL     OW 2488   3.536   5.690   8.101 -0.5481 -0.2749 -0.2333
  442SOL    HW1 2489   3.508   5.673   8.191 -0.7210 -1.9480 -0.5756
  442SOL    HW2 2490   3.582   5.774   8.106 -1.6453  0.2896  1.1731
  443SOL     OW 2491   8.660   6.613   7.437  0.7010  0.0610  0.1128
  443SOL    HW1 2492   8.616   6.540   7.393  0.0555 -0.2711  1.2684
  443SOL    HW2 2493   8.591   6.677   7.453  0.7662 -0.1487  1.2898
  444SOL     OW 2494   4.388   6.782   2.243 -0.2034  0.1958  0.1858
  444SOL    HW1 2495   4.307   6.730   2.242  0.8178 -1.5292 -1.9125
  444SOL    HW2 2496   4.359   6.871   2.220 -1.7020  0.0456  1.3365
  445SOL     OW 2497   0.920   6.224   4.223 -0.3084  0.4588  0.0796
  445SOL    HW1 2498   0.969   6.153   4.182  2.3043  1.7188  0.7517
  445SOL    HW2 2499   0.889   6.188   4.306  1.3617  0.1540  0.6161
  446SOL     OW 2500   6.319   4.482   5.794 -0.4202  0.0680 -0.1912
  446SOL    HW1 2501   6.238   4.450   5.755  0.1528  0.3908 -1.7387
  446SOL    HW2 2502   6.344   4.414   5.857 -3.2285  1.1834  2.3643
  447SOL     OW 2503   6.581   7.596   2.843  0.0876 -0.2408 -0.2822
  447SOL    HW1 2504   6.648   7.528   2.848 -0.5245 -0.9899 -1.9600
  447SOL    HW2 2505   6.550   7.594   2.753 -1.0572  1.2110  0.0374
  448SOL     OW 2506   5.401   7.461   0.039  0.1177 -0.7632  0.7677
  448SOL    HW1 2507   5.311   7.444   0.064 -0.5561  1.0032 -0.3014
  448SOL    HW2 2508   5.422   7.392  -0.024 -1.4118  0.2442 -0.9565
  449SOL     OW 2509   5.854   1.322   2.470  0.4194 -0.4208  0.0300
  449SOL    HW1 2510   5.818   1.280   2.391  0.9780 -1.3096  0.2376
  449SOL    HW2 2511   5.776   1.347   2.520  0.0631 -0.2860 -0.5787
  450SOL     OW 2512   5.294   1.129   5.743  0.0213  0.4486  0.1658
  450SOL    HW1 2513   5.389   1.130   5.756 -0.1575 -0.4516  1.8802
  450SOL    HW2 2514   5.282   1.093   5.655  1.2545 -1.2796  0.6471
  451SOL     OW 2515   3.655   6.026   2.461 -0.0256  0.0485  0.1582
  451SOL    HW1 2516   3.676   6.060   2.374  1.3228 -1.9292 -0.3485
  451SOL    HW2 2517   3.572   6.069   2.484 -2.6998 -2.2674 -3.8395
  452SOL     OW 2518   1.686   1.187   5.554  0.2026  0.0049  0.1281
  452SOL    HW1 2519   1.631   1.265   5.551 -0.0663 -0.1745 -3.1580
  452SOL    HW2 2520   1.625   1.113   5.550  0.5618 -0.3006  0.2024
  453SOL     OW 2521   1.471   7.673   4.502  0.2721  0.0949  0.3901
  453SOL    HW1 2522   1.506   7.754   4.464 -2.6956  1.8351  1.0597
  453SOL    HW2 2523   1.458   7.694   4.595  3.4790 -2.7054  1.6531
  454SOL     OW 2524   8.396   6.489   6.277 -0.2865  0.2939 -0.0740
  454SOL    HW1 2525   8.466   6.502   6.341 -0.4356  0.1933  0.1125
  454SOL    HW2 2526   8.328   6.552   6.303 -0.1880  0.5239 -0.3670
  455SOL     OW 2527   1.488   8.834   0.911 -0.0341  0.2408  0.4867
  455SOL    HW1 2528   1.490   8.788   0.828 -0.0661  0.5785  0.2988
  455SOL    HW2 2529   1.544   8.910   0.898 -1.3047  1.1652  0.2559
  456SOL     OW 2530   5.004   3.303   8.299  0.1701  0.2068  0.1570
  456SOL    HW1 2531   5.081   3.351   8.331 -0.1137  1.5466 -1.0539
  456SOL    HW2 2532   5.008   3.219   8.344  1.3993  0.8895  1.4176
  457SOL     OW 2533   6.520   4.003   1.004 -0.3085 -0.2115  0.1418
  457SOL    HW1 2534   6.432   3.968   1.010 -0.4406 -0.4111 -2.0998
  457SOL    HW2 2535   6.577   3.926   1.001 -0.1880 -0.1181 -0.0068
  458SOL     OW 2536   4.539   3.964   1.606  0.8907 -0.4747 -0.3103
  458SOL    HW1 2537   4.498   3.891   1.653  1.8780  0.1953  1.6949
  458SOL    HW2 2538   4.597   3.921   1.542 -0.5444 -1.4087 -1.0250
  459SOL     OW 2539   8.257   2.730   2.804 -0.5805  0.1377 -0.4285
  459SOL    HW1 2540   8.217   2.799   2.751 -2.9958 -0.0184  1.0225
  459SOL    HW2 2541   8.192   2.713   2.873  1.0787 -1.7924  0.7523
  460SOL     OW 2542   7.000   5.840   8.449 -0.0953  0.5107 -0.1521
  460SOL    HW1 2543   6.909   5.870   8.456  0.2482  1.6215 -0.2025
  460SOL    HW2 2544   7.051   5.908   8.493  0.5019 -1.5791  2.6009
  461SOL     OW 2545   5.356   2.402   0.003 -0.6973 -0.2557 -0.3588
  461SOL    HW1 2546   5.434   2.350  -0.012  1.6316  3.3287 -2.0298
  461SOL    HW2 2547   5.368   2.438   0.091  0.1238  1.0605 -0.9785
  462SOL     OW 2548   7.753   0.386   5.948  0.0347 -0.4097 -0.5290
  462SOL    HW1 2549   7.835   0.422   5.983  0.0581 -0.0506 -0.9491
  462SOL    HW2 2550   7.742   0.428   5.863  0.2416 -1.6292 -1.1955
  463SOL     OW 2551   0.220   7.926   8.692 -0.3589  0.6709  0.7049
  463SOL    HW1 2552   0.250   7.881   8.771 -1.7689 -0.5876  0.5607
  463SOL    HW2 2553   0.134   7.961   8.715 -0.9709 -0.0704 -0.3861
  464SOL     OW 2554   7.113   6.430   8.401  0.0732  0.0363 -0.3014
  464SOL    HW1 2555   7.176   6.372   8.359  2.1406  2.2018 -0.4198
  464SOL    HW2 2556   7.081   6.381   8.476  1.4844 -1.3646 -0.5603
  465SOL     OW 2557   3.936   8.213   6.260 -0.1898 -0.1859 -0.4169
  465SOL    HW1 2558   3.958   8.173   6.176  1.1422 -0.0709 -0.1495
  465SOL    HW2 2559   4.012   8.268   6.281 -0.1538 -0.8190  1.2317
  466SOL     OW 2560   3.716   8.657   6.292  1.1076  0.3834 -0.0176
  466SOL    HW1 2561   3.675   8.627   6.373  1.5722  1.0315  0.4701
  466SOL    HW2 2562   3.698   8.587   6.228 -0.7447  0.6714  0.1624
  467SOL     OW 2563   2.675   5.640   6.701  0.3691 -0.3917  0.7441
  467SOL    HW1 2564   2.697   5.708   6.637  0.5779 -0.2332  0.9788
  467SOL    HW2 2565   2.580   5.646   6.711  0.4445  0.2319  1.1606
  468SOL     OW 2566   1.800   4.211   8.855  0.1210  0.3981 -0.3277
  468SOL    HW1 2567   1.825   4.289   8.905 -0.5163  0.9142 -0.7903
  468SOL    HW2 2568   1.734   4.168   8.910 -0.0353  0.5612 -0.3872
  469SOL     OW 2569   5.411   0.170   3.716 -0.0325 -0.1390 -0.1906
  469SOL    HW1 2570   5.322   0.158   3.748  0.1149  1.2762  0.8289
  469SOL    HW2 2571   5.464   0.183   3.795  1.0300 -0.6548 -0.7936
  470SOL     OW 2572   8.811   1.199   0.864  0.5553 -0.4078 -0.2725
  470SOL    HW1 2573   8.760   1.248   0.800 -3.2790 -2.8965  0.5819
  470SOL    HW2 2574   8.806   1.251   0.944 -1.1220 -0.8000 -0.0907
  471SOL     OW 2575   8.314   7.948   5.698  0.2032 -0.3326  0.1326
  471SOL    HW1 2576   8.315   8.015   5.629 -0.3687 -2.3615 -1.9592
  471SOL    HW2 2577   8.406   7.926   5.711  0.3833  0.7405  0.7277
  472SOL     OW 2578   5.732   6.128   5.325 -0.0390  0.3926 -0.5681
  472SOL    HW1 2579   5.722   6.035   5.348 -0.7659  0.1344 -1.8554
  472SOL    HW2 2580   5.823   6.136   5.296 -0.2257 -0.1101 -1.2994
  473SOL     OW 2581   6.096   7.895   4.465  0.1998  0.4303  0.3285
  473SOL    HW1 2582   6.182   7.935   4.447  0.0457  0.6216  0.0135
  473SOL    HW2 2583   6.041   7.924   4.393 -0.4156  1.1572  1.0849
  474SOL     OW 2584   6.529   0.493   0.870 -0.4677  0.6429  0.1436
  474SOL    HW1 2585   6.544   0.474   0.778 -0.0796  0.0331  0.3313
  474SOL    HW2 2586   6.607   0.542   0.897 -0.2427  0.1838  0.3314
  475SOL     OW 2587   4.342   4.878   1.576  0.0795  0.2401 -0.2077
  475SOL    HW1 2588   4.320   4.902   1.486 -0.3190 -0.6050 -0.3525
  475SOL    HW2 2589   4.420   4.929   1.597 -0.1425  0.8514 -0.8427
  476SOL     OW 2590   0.090   0.661   1.442 -0.1680 -0.6093  0.6334
  476SOL    HW1 2591   0.085   0.604   1.365 -0.6670 -0.3724  0.4884
  476SOL    HW2 2592   0.109   0.748   1.407  2.4283 -0.9633  0.9680
  477SOL     OW 2593   6.673   8.702   5.200 -0.1314  0.1886  0.0322
  477SOL    HW1 2594   6.647   8.637   5.135  0.6473 -0.6385  0.5089
  477SOL    HW2 2595   6.738   8.756   5.155 -0.0045 -0.0353 -0.0602
  478SOL     OW 2596   2.058   0.240   3.193  0.2545  0.4820  0.3122
  478SOL    HW1 2597   2.039   0.295   3.116 -0.5804 -0.0002  0.1641
  478SOL    HW2 2598   1.972   0.212   3.224  0.6360 -0.0680  0.8858
  479SOL     OW 2599   8.068   3.361   2.628 -0.3256 -0.0008 -1.1483
  479SOL    HW1 2600   8.148   3.331   2.670 -0.0388  2.1855 -0.0011
  479SOL    HW2 2601   8.027   3.281   2.595  1.5138 -1.3404 -0.3709
  480SOL     OW 2602   6.829   4.071   3.582 -0.1366 -0.2685 -1.2297
  480SOL    HW1 2603   6.846   4.114   3.665 -1.0882 -0.9043 -0.6794
  480SOL    HW2 2604   6.915   4.063   3.540  0.3722 -0.0577 -0.2529
  481SOL     OW 2605   7.254   7.950   1.383 -0.4427 -0.7537  0.7667
  481SOL    HW1 2606   7.226   7.861   1.404  1.2673 -1.1022  1.8377
  481SOL    HW2 2607   7.239   7.999   1.464 -1.5700  0.0045  0.1174
  482SOL     OW 2608   5.858   2.564   5.076  0.1368 -0.0843 -0.0474
  482SOL    HW1 2609   5.800   2.603   5.141 -0.2028  0.4784 -0.6731
  482SOL    HW2 2610   5.802   2.544   5.002  0.1763 -2.4040  0.4746
  483SOL     OW 2611   8.835   0.933   8.698  0.0901 -0.3398 -0.3568
  483SOL    HW1 2612   8.866   1.012   8.654  3.0047 -1.3818 -0.3946
  483SOL    HW2 2613   8.912   0.900   8.745 -2.0663 -0.9063  3.1812
  484SOL     OW 2614   8.110   5.799   2.613 -0.1505 -0.0152  1.1541
  484SOL    HW1 2615   8.149   5.721   2.574  1.5662  1.2609  0.2133
  484SOL    HW2 2616   8.160   5.814   2.693  0.4844  0.8959  0.6072
  485SOL     OW 2617   5.043   6.893   2.408 -1.0702 -0.1787 -0.2707
  485SOL    HW1 2618   5.058   6.807   2.369 -2.6558 -0.1285 -1.0538
  485SOL    HW2 2619   4.976   6.877   2.475 -1.4118  0.4485 -0.4604
  486SOL     OW 2620   1.363   3.495   0.786  0.1606  0.1589  0.3012
  486SOL    HW1 2621   1.418   3.453   0.852  0.9938  0.4458 -0.1971
  486SOL    HW2 2622   1.273   3.483   0.819  0.6031  1.2499  2.0536
  487SOL     OW 2623   2.129   1.825   3.517  0.0509 -1.0483  0.2836
  487SOL    HW1 2624   2.175   1.827   3.601 -0.6645 -1.0316  0.6814
  487SOL    HW2 2625   2.177   1.760   3.465 -0.4659 -2.2702  1.2723
  488SOL     OW 2626   5.101   3.602   2.610 -0.0367 -0.0221 -0.0857
  488SOL    HW1 2627   5.114   3.614   2.704 -1.0536 -3.2699  0.6074
  488SOL    HW2 2628   5.177   3.551   2.581 -1.1909 -1.7158 -0.2942
  489SOL     OW 2629   2.878   8.101   5.886 -0.1184 -0.4248  0.4508
  489SOL    HW1 2630   2.822   8.173   5.914 -0.9963 -0.6624 -0.5983
  489SOL    HW2 2631   2.830   8.061   5.813  0.4499 -1.9361  0.8736
  490SOL     OW 2632   5.994   0.258   4.193  0.7072  0.0485  0.3485
  490SOL    HW1 2633   5.918   0.222   4.148 -0.0447  1.4611  0.4154
  490SOL    HW2 2634   6.043   0.302   4.124  0.6596  0.4235  0.5511
  491SOL     OW 2635   2.625   0.054   6.667  0.1255 -0.6586 -0.0528
  491SOL    HW1 2636   2.576  -0.023   6.697  1.1942 -0.7619  1.5172
  491SOL    HW2 2637   2.582   0.079   6.585 -0.3022 -2.8808 -0.5686
  492SOL     OW 2638   6.961   0.693   0.766  0.2265  0.3131 -0.0329
  492SOL    HW1 2639   6.879   0.649   0.740 -0.6377  0.9274  1.5364
  492SOL    HW2 2640   6.987   0.743   0.688 -2.4668  2.3839  0.2352
  493SOL     OW 2641   0.262   7.722   5.434  0.3448 -0.8705 -0.3684
  493SOL    HW1 2642   0.185   7.674   5.403  1.0252 -1.6737 -0.8561
  493SOL    HW2 2643   0.243   7.814   5.412 -0.1814 -1.1400 -1.0825
  494SOL     OW 2644   3.408   1.201   8.102 -0.0188 -0.1185 -0.4598
  494SOL    HW1 2645   3.474   1.200   8.033 -1.7625  0.2504 -2.2193
  494SOL    HW2 2646   3.377   1.291   8.105 -0.4277 -0.2718  0.3729
  495SOL     OW 2647   1.515   3.222   0.148 -0.3245 -0.8446  0.6245
  495SOL    HW1 2648   1.453   3.279   0.102 -2.5869 -2.8486  0.9844
  495SOL    HW2 2649   1.599   3.238   0.106 -0.3281  3.9860  1.7957
  496SOL     OW 2650   7.841   8.496   1.532  0.1941  0.0099  0.2673
  496SOL    HW1 2651   7.903   8.434   1.571  1.7352  0.6649 -1.0388
  496SOL    HW2 2652   7.886   8.581   1.537 -1.2424  0.7840  0.6344
  497SOL     OW 2653   2.719   7.772   8.739  0.6260  0.3378  0.2994
  497SOL    HW1 2654   2.727   7.677   8.751  0.7124  0.2201 -0.5966
  497SOL    HW2 2655   2.728   7.808   8.827  2.7914 -0.3452  0.4311
  498SOL     OW 2656   7.312   1.915   3.384  0.1308  0.1497  0.2490
  498SOL    HW1 2657   7.309   1.862   3.304 -1.2277 -2.1640  1.7027
  498SOL    HW2 2658   7.237   1.975   3.376 -0.9299 -1.0984  0.3706
  499SOL     OW 2659   1.120   8.811   7.767 -0.1837 -0.3164 -0.2095
  499SOL    HW1 2660   1.205   8.781   7.799 -0.1031  1.0660  0.9569
  499SOL    HW2 2661   1.079   8.853   7.843 -1.3860  0.1629 -1.0901
  500SOL     OW 2662   1.662   5.725   1.399 -0.2929 -0.3247 -0.8968
  500SOL    HW1 2663   1.662   5.799   1.338 -0.9034 -0.5536 -1.1826
  500SOL    HW2 2664   1.739   5.739   1.454 -0.2600  0.3812 -1.1170
  501SOL     OW 2665   5.455   7.068   8.237 -0.3721  0.0138  0.1878
  501SOL    HW1 2666   5.499   7.113   8.165 -0.9465  1.1570  0.5246
  501SOL    HW2 2667   5.362   7.086   8.223 -0.7649 -2.1472 -0.3639
  502SOL     OW 2668   6.374   8.463   4.451  0.0928  0.3893 -0.3917
  502SOL    HW1 2669   6.359   8.371   4.428  2.7016  0.1282 -1.3363
  502SOL    HW2 2670   6.364   8.510   4.369  0.2718  0.7544 -0.2043
  503SOL     OW 2671   4.552   6.452   3.765 -0.2143 -0.2734  0.4389
  503SOL    HW1 2672   4.504   6.526   3.802  1.9485  2.0577 -1.1251
  503SOL    HW2 2673   4.582   6.403   3.842  0.2497  1.7843  1.6450
  504SOL     OW 2674   6.614   1.792   5.640 -0.0016  0.7505 -0.1193
  504SOL    HW1 2675   6.701   1.832   5.641  0.6075 -0.4663  2.4276
  504SOL    HW2 2676   6.561   1.850   5.693 -0.3964  0.7380 -0.4951
  505SOL     OW 2677   7.564   3.717   0.789  0.1869  0.1665  0.3941
  505SOL    HW1 2678   7.652   3.746   0.765  0.3836 -0.0307  0.8672
  505SOL    HW2 2679   7.560   3.726   0.884 -1.1776  2.6183  0.1815
  506SOL     OW 2680   4.157   6.498   8.009  0.4971 -0.4173 -0.4893
  506SOL    HW1 2681   4.251   6.493   8.028  0.7095 -1.0574 -1.6234
  506SOL    HW2 2682   4.144   6.437   7.937 -0.4445  1.0950 -1.6710
  507SOL     OW 2683   4.648   8.796   0.108 -0.6073 -0.5355 -0.1195
  507SOL    HW1 2684   4.710   8.793   0.181  0.5164 -3.3276 -1.0407
  507SOL    HW2 2685   4.568   8.832   0.147  1.4445  3.2339  1.1027
  508SOL     OW 2686   1.501   1.987   2.704  0.0605 -0.2243 -0.7544
  508SOL    HW1 2687   1.438   2.058   2.720 -1.4033 -2.0589  2.6943
  508SOL    HW2 2688   1.464   1.937   2.632 -1.8529 -0.5553  0.4068
  509SOL     OW 2689   8.753   3.597   7.164 -0.3289 -0.0692 -0.0860
  509SOL    HW1 2690   8.689   3.622   7.231 -0.0000  0.8489 -0.1018
  509SOL    HW2 2691   8.838   3.603   7.208 -0.2281 -1.0166 -0.1398
  510SOL     OW 2692   8.391   8.383   4.445 -0.2773 -0.4048  0.6266
  510SOL    HW1 2693   8.414   8.462   4.495 -0.3527  0.0970 -0.1174
  510SOL    HW2 2694   8.316   8.409   4.392  0.0421 -0.8071 -0.0398
  511SOL     OW 2695   4.573   3.625   6.698  0.1954  0.1247  0.2040
  511SOL    HW1 2696   4.513   3.550   6.701 -1.9346  1.6928 -0.3276
  511SOL    HW2 2697   4.529   3.692   6.751  1.8499  1.1350  0.3596
  512SOL     OW 2698   3.841   4.658   2.923  0.2605 -0.3688  0.6516
  512SOL    HW1 2699   3.875   4.576   2.887  0.6739 -0.2749  0.8251
  512SOL    HW2 2700   3.915   4.719   2.916 -0.0458 -0.0096  0.5193
  513SOL     OW 2701   1.003   3.938   1.014  0.1654  0.6923 -0.3034
  513SOL    HW1 2702   1.031   3.979   0.932 -1.2749  3.5426  0.5022
  513SOL    HW2 2703   0.911   3.914   0.999 -0.1262  1.2863  0.4839
  514SOL     OW 2704   0.070   1.783   3.831 -0.7338  0.4968  0.1302
  514SOL    HW1 2705   0.078   1.811   3.922  0.9869 -0.0807  0.1910
  514SOL    HW2 2706   0.128   1.841   3.782  2.1840 -2.1360  0.1351
  515SOL     OW 2707   4.325   6.788   6.264 -0.5554 -0.4396  0.2023
  515SOL    HW1 2708   4.409   6.829   6.247 -1.2794  0.6487 -0.9253
  515SOL    HW2 2709   4.345   6.695   6.274  0.7244 -0.2562 -0.5087
  516SOL     OW 2710   2.201   3.803   1.163 -0.5858 -0.0748  0.1590
  516SOL    HW1 2711   2.111   3.818   1.191  0.0955  0.8665  1.9546
  516SOL    HW2 2712   2.229   3.885   1.124 -0.0196  0.1731  1.0492
  517SOL     OW 2713   7.650   1.575   6.852  0.3540 -0.0829 -0.3354
  517SOL    HW1 2714   7.589   1.500   6.848  0.6681 -0.5060  1.6897
  517SOL    HW2 2715   7.677   1.578   6.944 -1.4036  3.9412  0.2496
  518SOL     OW 2716   6.257   7.409   8.413  0.0768 -0.3468  0.2143
  518SOL    HW1 2717   6.301   7.492   8.434  2.5550 -1.9924  2.2335
  518SOL    HW2 2718   6.272   7.397   8.319  1.5514  0.5354  0.2932
  519SOL     OW 2719   6.437   6.476   3.419 -0.2834 -0.5288 -0.0129
  519SOL    HW1 2720   6.353   6.521   3.415 -0.9757 -1.5487  1.9982
  519SOL    HW2 2721   6.424   6.395   3.370 -0.8860 -1.2400  1.2712
  520SOL     OW 2722   5.029   7.818   6.715 -0.0972  0.4470  0.2091
  520SOL    HW1 2723   5.022   7.723   6.712 -0.1820  0.4784 -1.5849
  520SOL    HW2 2724   5.051   7.838   6.806 -0.7743 -1.2260  0.7684
  521SOL     OW 2725   5.067   7.391   8.203 -0.2961  0.7545  0.0077
  521SOL    HW1 2726   5.055   7.320   8.140  1.2290 -1.5500  2.1289
  521SOL    HW2 2727   5.139   7.443   8.168  0.5315 -0.5007 -0.2211
  522SOL     OW 2728   5.325   5.543   3.255 -0.2396 -0.0066  0.1274
  522SOL    HW1 2729   5.377   5.476   3.299  0.2623  1.0104  1.1302
  522SOL    HW2 2730   5.292   5.598   3.325  0.0390  1.2808 -0.7128
  523SOL     OW 2731   3.292   1.739   6.102  0.2320  0.3854 -0.1274
  523SOL    HW1 2732   3.325   1.690   6.177  0.5269  0.2815 -0.3233
  523SOL    HW2 2733   3.366   1.793   6.075  0.9952 -1.4406 -1.9337
  524SOL     OW 2734   7.768   8.506   4.754 -0.7941  0.5721 -0.5472
  524SOL    HW1 2735   7.688   8.525   4.705 -1.7447  2.5091  1.6011
  524SOL    HW2 2736   7.748   8.532   4.844  1.1723 -1.9923  0.7564
  525SOL     OW 2737   3.753   2.528   7.227 -0.0849 -0.2416  0.0027
  525SOL    HW1 2738   3.743   2.583   7.305  1.2550  2.0391 -1.3004
  525SOL    HW2 2739   3.840   2.490   7.236 -0.0070 -0.1305 -0.2491
  526SOL     OW 2740   3.044   3.782   4.897  0.2680  0.0972  0.4158
  526SOL    HW1 2741   3.069   3.835   4.821 -1.2105 -0.7730 -0.7536
  526SOL    HW2 2742   3.118   3.721   4.908 -1.2220 -2.9021 -3.4068
  527SOL     OW 2743   1.395   8.180   1.722 -0.0926  0.1895 -0.6309
  527SOL    HW1 2744   1.336   8.246   1.759  0.9699  0.6463  0.3186
  527SOL    HW2 2745   1.482   8.214   1.739  0.4735 -1.1793 -0.6697
  528SOL     OW 2746   7.587   7.763   3.510  0.2852 -0.4780 -0.4351
  528SOL    HW1 2747   7.631   7.695   3.460  2.3319 -0.2827  0.9516
  528SOL    HW2 2748   7.591   7.733   3.601  0.5634  1.1177  0.1204
  529SOL     OW 2749   1.899   7.660   5.269 -0.2292  0.1019 -0.5872
  529SOL    HW1 2750   1.994   7.667   5.264 -0.3192  0.9454 -1.5312
  529SOL    HW2 2751   1.881   7.566   5.274  0.6931 -0.0182  1.1028
  530SOL     OW 2752   0.664   1.206   5.432 -0.2014  0.2617  0.3414
  530SOL    HW1 2753   0.668   1.231   5.524  0.9799  1.7583 -0.0778
  530SOL    HW2 2754   0.755   1.208   5.402 -0.7556  2.9311 -1.5954
  531SOL     OW 2755   6.619   5.887   8.208  0.0837 -0.0259 -0.0604
  531SOL    HW1 2756   6.561   5.865   8.135 -0.8565  1.5213  0.1928
  531SOL    HW2 2757   6.666   5.965   8.179  0.3397  0.0895  0.6339
  532SOL     OW 2758   5.280   0.911   5.064 -0.4085  0.0521 -0.8829
  532SOL    HW1 2759   5.375   0.914   5.072 -0.4829 -1.1740  1.3572
  532SOL    HW2 2760   5.252   0.855   5.137 -2.6799 -1.6716 -2.9125
  533SOL     OW 2761   1.536   7.269   6.983  0.0223  0.1935  0.4824
  533SOL    HW1 2762   1.477   7.307   6.918 -1.1598  1.0141  1.9508
  533SOL    HW2 2763   1.617   7.320   6.974 -0.3384  0.7150  0.0695
  534SOL     OW 2764   3.244   4.248   8.426 -0.4624 -0.1798 -0.7706
  534SOL    HW1 2765   3.210   4.232   8.338 -1.4913 -0.0366 -0.4171
  534SOL    HW2 2766   3.226   4.340   8.442 -0.5725 -0.2850 -0.2889
  535SOL     OW 2767   4.537   2.497   6.624 -0.0163 -0.4246  0.1462
  535SOL    HW1 2768   4.473   2.505   6.695 -0.8542 -0.4635 -0.5867
  535SOL    HW2 2769   4.611   2.551   6.652 -1.7486  2.5039 -0.5287
  536SOL     OW 2770   4.019   7.339   4.807  0.2342  0.4996 -0.1938
  536SOL    HW1 2771   3.964   7.302   4.876  0.6325  0.0937 -0.0900
  536SOL    HW2 2772   3.973   7.319   4.725  1.2888 -1.7992 -0.2917
  537SOL     OW 2773   7.514   4.736   0.308  0.0399 -0.1047  0.1047
  537SOL    HW1 2774   7.576   4.694   0.366  0.0431  1.3623  1.2354
  537SOL    HW2 2775   7.452   4.667   0.284  0.1809 -0.8194  1.6745
  538SOL     OW 2776   7.104   6.998   4.946  0.2157  0.0410  0.3975
  538SOL    HW1 2777   7.029   7.045   4.909  0.2493 -0.7272 -0.6998
  538SOL    HW2 2778   7.164   7.067   4.974 -1.1423  0.6855  1.8816
  539SOL     OW 2779   5.467   6.338   6.126 -0.1588  0.0474  0.0041
  539SOL    HW1 2780   5.407   6.339   6.052 -0.1859 -0.9524 -0.0013
  539SOL    HW2 2781   5.485   6.430   6.144  0.0596  0.3038 -1.4048
  540SOL     OW 2782   7.857   6.713   5.754  0.0205 -0.0338 -0.3088
  540SOL    HW1 2783   7.888   6.672   5.674 -0.3712 -0.7588 -0.0971
  540SOL    HW2 2784   7.897   6.662   5.825  0.7580  0.9040 -0.0327
  541SOL     OW 2785   4.981   4.492   2.508  0.0173  0.4560  0.2459
  541SOL    HW1 2786   5.028   4.411   2.530  0.2846  1.0528  2.0705
  541SOL    HW2 2787   5.016   4.557   2.569 -0.4948  1.8545 -0.9049
  542SOL     OW 2788   7.844   0.891   8.214 -0.7071  0.5377 -0.3232
  542SOL    HW1 2789   7.824   0.800   8.235  0.6463 -0.2301 -2.0721
  542SOL    HW2 2790   7.761   0.927   8.182 -1.7225  0.5284  2.0893
  543SOL     OW 2791   5.003   5.447   4.445 -0.7892  0.3787 -0.6820
  543SOL    HW1 2792   5.090   5.448   4.405 -0.5590 -0.9890 -0.2672
  543SOL    HW2 2793   4.992   5.535   4.480  1.0305  0.1987  0.4882
  544SOL     OW 2794   1.453   3.658   2.977  0.7396 -0.5795  0.3269
  544SOL    HW1 2795   1.374   3.651   3.031 -0.1184 -1.0705 -0.9424
  544SOL    HW2 2796   1.438   3.735   2.923  0.5860 -1.3503 -0.7475
  545SOL     OW 2797   0.516   6.891   5.628 -0.2889  0.1878 -0.0120
  545SOL    HW1 2798   0.455   6.849   5.567 -0.2298 -0.9136  0.6492
  545SOL    HW2 2799   0.472   6.971   5.655 -0.1902  0.8589 -1.7064
  546SOL     OW 2800   4.301   0.298   1.257  0.0794  0.3186  0.5583
  546SOL    HW1 2801   4.302   0.351   1.337  0.3755  0.4775  0.4514
  546SOL    HW2 2802   4.270   0.212   1.286 -2.0071  0.9917  0.4255
  547SOL     OW 2803   1.704   0.732   1.082  0.1928  0.2847 -0.6055
  547SOL    HW1 2804   1.796   0.758   1.072  0.7477 -1.8411 -1.5725
  547SOL    HW2 2805   1.702   0.678   1.161 -0.1702  0.0795 -0.7513
  548SOL     OW 2806   4.497   3.836   1.085 -0.1293 -0.2499  0.0981
  548SOL    HW1 2807   4.510   3.824   0.991 -2.4944  0.9493 -0.4599
  548SOL    HW2 2808   4.516   3.750   1.123  0.1266 -0.9576 -1.5614
  549SOL     OW 2809   3.752   0.379   6.278 -0.3051  0.1081 -0.1780
  549SOL    HW1 2810   3.792   0.297   6.250 -0.9460 -0.0105 -0.7694
  549SOL    HW2 2811   3.658   0.361   6.279 -0.3376  0.0564  2.2203
  550SOL     OW 2812   2.615   7.388   7.348 -0.1096  0.1399  0.2504
  550SOL    HW1 2813   2.541   7.343   7.389  0.4681 -1.1318 -0.0265
  550SOL    HW2 2814   2.680   7.394   7.417  0.1222 -0.2255  0.0725
  551SOL     OW 2815   8.245   7.140   1.221 -0.0814  0.3754 -0.0603
  551SOL    HW1 2816   8.289   7.186   1.293  0.4437 -1.3847  0.8122
  551SOL    HW2 2817   8.312   7.131   1.153  0.4332 -0.7656  0.5629
  552SOL     OW 2818   2.198   6.956   0.848 -0.2318  0.0858 -0.4014
  552SOL    HW1 2819   2.272   7.015   0.864 -0.6696  0.8370 -1.0512
  552SOL    HW2 2820   2.200   6.941   0.754  0.2282 -1.4457 -0.1743
  553SOL     OW 2821   5.857   8.369   1.099 -0.1207  0.9051  0.3500
  553SOL    HW1 2822   5.879   8.405   1.013 -2.0773 -0.6441 -0.9017
  553SOL    HW2 2823   5.762   8.380   1.106  0.0611  1.6224  2.6785
  554SOL     OW 2824   3.346   0.464   0.559 -0.2174  0.1712 -0.1123
  554SOL    HW1 2825   3.291   0.396   0.598  0.1635  0.3156  0.7078
  554SOL    HW2 2826   3.320   0.544   0.603  1.4479  0.0603  1.1873
  555SOL     OW 2827   6.197   4.536   8.662  0.0617 -0.1928 -0.3663
  555SOL    HW1 2828   6.136   4.478   8.708  0.6039  0.7499  1.6876
  555SOL    HW2 2829   6.277   4.484   8.654  0.6470  0.2657  1.7388
  556SOL     OW 2830   5.663   8.062   8.002  0.0310  0.4342  0.1797
  556SOL    HW1 2831   5.575   8.026   7.997 -0.8308  2.5974 -1.6527
  556SOL    HW2 2832   5.704   8.039   7.919 -0.2150  2.7314 -0.6315
  557SOL     OW 2833   7.909   7.040   3.996 -0.4613 -0.3374 -0.2623
  557SOL    HW1 2834   8.003   7.026   4.007 -0.2386 -0.5020 -2.0119
  557SOL    HW2 2835   7.873   6.953   3.980 -0.6954 -0.1504 -0.8041
  558SOL     OW 2836   3.308   0.272   7.743 -0.0344 -0.2354  0.2796
  558SOL    HW1 2837   3.347   0.200   7.792  1.6801  1.9293  2.3044
  558SOL    HW2 2838   3.351   0.350   7.777 -1.9674  1.8007 -1.6556
  559SOL     OW 2839   0.707   4.724   8.112  0.1058  0.3894  0.0391
  559SOL    HW1 2840   0.788   4.773   8.098 -0.1974  0.8315 -0.1988
  559SOL    HW2 2841   0.638   4.791   8.109 -0.3229 -0.0661 -0.4305
  560SOL     OW 2842   3.460   7.847   3.280  0.0672  0.3679 -0.5817
  560SOL    HW1 2843   3.483   7.896   3.359  0.1420  1.5542 -1.3123
  560SOL    HW2 2844   3.525   7.873   3.215  0.1056 -0.7220 -1.0046
  561SOL     OW 2845   5.232   4.287   8.349 -0.6758  0.2081 -0.0750
  561SOL    HW1 2846   5.292   4.223   8.313 -0.7111  1.1318 -1.8935
  561SOL    HW2 2847   5.155   4.237   8.376  0.2890 -0.7901  0.9151
  562SOL     OW 2848   1.432   7.568   7.744 -0.0892 -0.5877 -0.6612
  562SOL    HW1 2849   1.346   7.610   7.743  0.3447  0.3384 -0.0252
  562SOL    HW2 2850   1.427   7.502   7.675 -1.4419 -0.8205 -0.3657
  563SOL     OW 2851   6.267   5.402   2.037 -0.7572  0.1740 -0.2053
  563SOL    HW1 2852   6.221   5.479   2.005  0.5032  0.6360 -0.9768
  563SOL    HW2 2853   6.314   5.432   2.115 -1.2043 -0.1288  0.1904
  564SOL     OW 2854   6.668   3.977   8.059 -0.0762 -0.5626  0.2792
  564SOL    HW1 2855   6.655   4.002   7.968  0.9450 -0.8472  0.0485
  564SOL    HW2 2856   6.579   3.970   8.095 -0.4803 -0.3680 -0.6643
  565SOL     OW 2857   7.814   1.938   8.143 -0.2027  0.6821 -0.3146
  565SOL    HW1 2858   7.879   1.872   8.163  0.0768  1.5238  1.7198
  565SOL    HW2 2859   7.730   1.890   8.144  0.0350  0.2694  0.6981
  566SOL     OW 2860   1.866   1.652   8.258 -0.0341 -0.3792 -0.1192
  566SOL    HW1 2861   1.837   1.639   8.168  0.3864  0.5666 -0.4048
  566SOL    HW2 2862   1.931   1.584   8.273  0.8950  0.2876 -1.0001
  567SOL     OW 2863   8.792   0.901   1.744 -0.3286  0.0642  0.8336
  567SOL    HW1 2864   8.713   0.860   1.778 -0.1002 -2.5488 -1.3968
  567SOL    HW2 2865   8.864   0.856   1.787  0.0188  1.4170  1.7552
  568SOL     OW 2866   1.266   2.235   3.104 -0.2997  0.0535  0.4052
  568SOL    HW1 2867   1.197   2.250   3.040  0.9139 -1.4190 -1.3451
  568SOL    HW2 2868   1.299   2.148   3.085  0.7548 -0.0719  2.4666
  569SOL     OW 2869   5.549   7.631   1.701  0.0944  0.1310  0.1108
  569SOL    HW1 2870   5.503   7.679   1.770 -0.5712 -2.0205  1.2605
  569SOL    HW2 2871   5.625   7.593   1.746 -1.6310 -3.3417  0.4322
  570SOL     OW 2872   8.089   5.596   8.785  0.0910 -0.2870 -0.2366
  570SOL    HW1 2873   8.134   5.680   8.783  1.1368 -0.8095  0.2194
  570SOL    HW2 2874   8.127   5.546   8.712 -0.5560 -0.3555 -0.5387
  571SOL     OW 2875   1.305   5.247   1.627  0.1340  0.0956 -0.1274
  571SOL    HW1 2876   1.252   5.178   1.587 -0.8871  0.9270 -0.2459
  571SOL    HW2 2877   1.258   5.328   1.608  0.8584  0.7489  0.7530
  572SOL     OW 2878   3.064   8.478   5.201 -0.6485 -0.2867 -0.5110
  572SOL    HW1 2879   3.066   8.436   5.115 -1.3997  1.3560 -1.3690
  572SOL    HW2 2880   3.146   8.528   5.205 -0.8886  0.1162 -0.5389
  573SOL     OW 2881   6.324   1.229   1.611  0.2725 -0.0243 -0.3433
  573SOL    HW1 2882   6.366   1.233   1.525  1.5988  0.3083  0.2869
  573SOL    HW2 2883   6.361   1.303   1.659 -0.8658  0.1189  0.3459
  574SOL     OW 2884   4.600   2.417   0.332 -0.3158 -0.3949 -0.5308
  574SOL    HW1 2885   4.593   2.504   0.370  0.1251  0.0060 -1.3271
  574SOL    HW2 2886   4.682   2.382   0.366 -0.9005 -0.8532  0.4559
  575SOL     OW 2887   1.959   8.675   8.016 -0.2193 -0.2801  0.7227
  575SOL    HW1 2888   1.986   8.646   8.103  0.4460  0.2471  0.7055
  575SOL    HW2 2889   1.981   8.768   8.014 -2.5638  0.3313  0.8898
  576SOL     OW 2890   0.256   4.364   7.263  0.1800 -0.5117  0.2562
  576SOL    HW1 2891   0.351   4.372   7.254 -0.0775  3.1995 -1.1779
  576SOL    HW2 2892   0.231   4.297   7.200  1.7235 -0.4001 -0.5115
  577SOL     OW 2893   8.590   7.083   3.140 -0.4966  0.1246 -0.1731
  577SOL    HW1 2894   8.507   7.098   3.183 -0.5834  1.9132 -0.9051
  577SOL    HW2 2895   8.641   7.162   3.156  0.9055 -0.7649 -0.0949
  578SOL     OW 2896   0.200   3.726   7.725 -0.2513 -0.0288  0.2713
  578SOL    HW1 2897   0.285   3.770   7.717  0.3002 -0.9324  0.8889
  578SOL    HW2 2898   0.138   3.797   7.739  0.2697  0.7132 -1.0453
  579SOL     OW 2899   3.109   2.028   0.949 -0.2188  0.4827  0.1634
  579SOL    HW1 2900   3.179   2.008   1.011  0.6283  0.1044 -0.8894
  579SOL    HW2 2901   3.142   2.103   0.899 -0.7873  0.6362  0.0169
  580SOL     OW 2902   8.520   6.828   1.366 -0.1887 -0.3831 -0.5169
  580SOL    HW1 2903   8.436   6.850   1.407 -0.3003  0.4504 -1.1686
  580SOL    HW2 2904   8.584   6.841   1.436 -0.4382  0.5067 -0.4400
  581SOL     OW 2905   2.662   0.275   7.766 -0.0441  0.0646 -0.4802
  581SOL    HW1 2906   2.745   0.320   7.785  0.0191 -0.6592  1.0906
  581SOL    HW2 2907   2.688   0.198   7.715  0.5099 -1.1019  1.4550
  582SOL     OW 2908   0.728   6.105   6.571 -0.3051 -0.1375  0.3443
  582SOL    HW1 2909   0.775   6.108   6.488  0.8840  2.1759  1.0214
  582SOL    HW2 2910   0.656   6.167   6.561  1.1622  1.9439  1.6691
  583SOL     OW 2911   1.330   0.241   8.641 -0.1727 -0.5915  0.1732
  583SOL    HW1 2912   1.356   0.154   8.671  0.0831 -0.0276  1.6255
  583SOL    HW2 2913   1.380   0.302   8.695 -3.3620  0.5277  2.1118
  584SOL     OW 2914   1.399   4.189   2.511  0.0046 -0.0225 -0.0914
  584SOL    HW1 2915   1.364   4.210   2.424 -1.4184  1.4136  0.7808
  584SOL    HW2 2916   1.327   4.143   2.555  1.3860 -2.5517 -0.2703
  585SOL     OW 2917   6.614   7.403   0.046  0.2166  0.0666 -0.6120
  585SOL    HW1 2918   6.590   7.329  -0.010  1.2423  1.2277 -2.6931
  585SOL    HW2 2919   6.690   7.442   0.003 -0.8094  2.8656 -0.0842
  586SOL     OW 2920   5.982   2.035   0.645  0.2704  0.5106 -0.1995
  586SOL    HW1 2921   5.934   1.953   0.658 -0.4934  0.8344 -0.9784
  586SOL    HW2 2922   6.034   2.020   0.565  0.7342  0.5167  0.0925
  587SOL     OW 2923   0.609   1.565   0.533 -0.0370 -0.3753 -0.0389
  587SOL    HW1 2924   0.643   1.631   0.594  0.4467 -0.3773 -0.2956
  587SOL    HW2 2925   0.565   1.616   0.465 -0.8055 -0.3871  0.4483
  588SOL     OW 2926   3.399   6.544   3.062 -0.1399  0.4323 -0.0620
  588SOL    HW1 2927   3.405   6.522   2.969  3.3704 -0.0423  0.1135
  588SOL    HW2 2928   3.341   6.620   3.066 -0.8696  0.0693 -2.5379
  589SOL     OW 2929   5.965   4.082   2.575  0.3912  0.2126 -0.2670
  589SOL    HW1 2930   5.913   4.163   2.573 -0.5666 -0.3754  0.1105
  589SOL    HW2 2931   6.038   4.102   2.633 -1.3523 -0.0429  2.1625
  590SOL     OW 2932   3.851   7.148   2.639 -0.2772 -0.3826  0.0268
  590SOL    HW1 2933   3.855   7.107   2.725  1.3506 -0.6313 -0.1381
  590SOL    HW2 2934   3.791   7.093   2.589 -0.3668 -0.8786  0.6666
  591SOL     OW 2935   8.433   4.301   5.192 -0.3602 -0.0434 -0.3638
  591SOL    HW1 2936   8.491   4.323   5.265 -0.8040 -1.0879  0.3343
  591SOL    HW2 2937   8.470   4.347   5.117  0.2432  0.8621  0.4663
  592SOL     OW 2938   0.491   3.126   6.143 -0.1488 -0.1295 -0.0699
  592SOL    HW1 2939   0.508   3.108   6.235 -0.1357 -1.3597 -0.2970
  592SOL    HW2 2940   0.403   3.092   6.128  0.0907 -0.5108 -0.6541
  593SOL     OW 2941   0.713   3.200   7.540  0.4015  0.3677  0.4249
  593SOL    HW1 2942   0.639   3.248   7.503  0.9522  1.3295  0.5440
  593SOL    HW2 2943   0.761   3.168   7.464  0.2603  0.3658  0.3360
  594SOL     OW 2944   5.476   5.558   4.926  0.0181 -0.2902 -0.8708
  594SOL    HW1 2945   5.472   5.552   4.831  1.4079  0.0516 -0.9632
  594SOL    HW2 2946   5.549   5.617   4.944 -0.4750 -0.0369  0.4039
  595SOL     OW 2947   3.176   3.915   7.985  0.2852 -0.3539  0.4327
  595SOL    HW1 2948   3.082   3.922   7.968  0.2308  3.0820  1.3608
  595SOL    HW2 2949   3.216   3.919   7.898 -0.3586 -1.7314  0.0370
  596SOL     OW 2950   5.168   3.505   3.966 -0.1505 -0.0025  0.0271
  596SOL    HW1 2951   5.121   3.499   4.049 -0.7058  1.0162 -0.2025
  596SOL    HW2 2952   5.219   3.586   3.973  1.3439 -0.9019  0.1373
  597SOL     OW 2953   3.956   7.937   7.070  0.1291  0.3271  0.3799
  597SOL    HW1 2954   3.867   7.902   7.068 -0.2427  1.2264  0.6376
  597SOL    HW2 2955   4.010   7.867   7.034 -0.3151 -1.2363  2.5942
  598SOL     OW 2956   5.749   1.054   4.433  0.3365 -0.5583  0.8039
  598SOL    HW1 2957   5.660   1.020   4.427  1.2349 -2.7276 -2.3207
  598SOL    HW2 2958   5.784   1.014   4.513 -0.7557 -1.5136  0.8245
  599SOL     OW 2959   8.798   3.433   1.627 -0.6404 -0.5005  0.1297
  599SOL    HW1 2960   8.775   3.498   1.694 -2.6451  1.0224 -1.8580
  599SOL    HW2 2961   8.722   3.375   1.622  0.6863 -2.4186  1.1108
  600SOL     OW 2962   5.969   5.178   4.361 -0.4343 -0.1811  0.3660
  600SOL    HW1 2963   5.973   5.259   4.412  0.4829 -0.6504  1.0879
  600SOL    HW2 2964   6.036   5.122   4.400  0.3168 -0.5695 -1.3783
  601SOL     OW 2965   4.445   5.176   7.954 -0.1245 -0.2234 -0.1740
  601SOL    HW1 2966   4.371   5.236   7.959 -1.3098 -1.6709  0.5978
  601SOL    HW2 2967   4.502   5.213   7.887 -0.8087  1.7172  0.2651
  602SOL     OW 2968   5.553   5.431   1.219 -0.6063 -0.0357 -0.1041
  602SOL    HW1 2969   5.584   5.498   1.159 -0.7317 -0.7438 -0.9784
  602SOL    HW2 2970   5.470   5.401   1.182 -0.0177 -1.4451 -0.3671
  603SOL     OW 2971   6.691   8.804   2.513 -0.1534  0.1297 -0.4744
  603SOL    HW1 2972   6.667   8.796   2.606  1.1457  0.1757 -0.1172
  603SOL    HW2 2973   6.709   8.898   2.502  1.3245 -0.1190 -0.3359
  604SOL     OW 2974   1.787   0.692   1.352 -0.0568  0.4794  0.0566
  604SOL    HW1 2975   1.816   0.674   1.441 -1.5611 -0.3964  0.3970
  604SOL    HW2 2976   1.840   0.767   1.324  1.1433  0.1291  1.3069
  605SOL     OW 2977   6.789   4.590   1.690  0.2258  0.3728 -0.3250
  605SOL    HW1 2978   6.845   4.618   1.762 -1.8050 -1.8588  2.3635
  605SOL    HW2 2979   6.700   4.614   1.718 -0.5934 -0.0866 -2.3533
  606SOL     OW 2980   6.907   1.545   1.332 -0.1358 -0.3165  0.1158
  606SOL    HW1 2981   7.001   1.527   1.333  0.0119  0.0499 -1.9980
  606SOL    HW2 2982   6.898   1.624   1.385  0.7164 -0.4887  0.5357
  607SOL     OW 2983   4.034   2.059   1.603 -0.5872 -0.1648 -0.2534
  607SOL    HW1 2984   3.948   2.043   1.643 -1.6122  0.8817 -1.9310
  607SOL    HW2 2985   4.042   1.992   1.535  0.9852 -1.6992  1.3246
  608SOL     OW 2986   2.107   6.409   1.676  0.6513  0.2252 -0.4976
  608SOL    HW1 2987   2.107   6.378   1.766  2.4878  0.1654 -0.4713
  608SOL    HW2 2988   2.030   6.465   1.669  1.7823  2.2253  1.8355
  609SOL     OW 2989   7.175   7.191   5.676 -0.3279  0.1940  0.3773
  609SOL    HW1 2990   7.115   7.166   5.746 -0.4736  0.7081  0.4378
  609SOL    HW2 2991   7.255   7.143   5.695 -0.8967 -0.9534 -0.0302
  610SOL     OW 2992   7.824   5.074   6.739 -0.3987 -0.4652 -0.0630
  610SOL    HW1 2993   7.762   5.020   6.789 -1.3119  0.8755  0.2933
  610SOL    HW2 2994   7.861   5.134   6.804  0.6059 -0.6307 -0.4584
  611SOL     OW 2995   8.065   4.352   7.872  0.3267  0.3768 -0.2883
  611SOL    HW1 2996   8.093   4.381   7.785 -1.1114  2.1227 -0.2403
  611SOL    HW2 2997   8.031   4.432   7.914 -2.0745 -1.0265  0.6267
  612SOL     OW 2998   8.160   0.246   3.871  0.3324 -0.2636  0.1989
  612SOL    HW1 2999   8.196   0.267   3.957  0.0910 -0.2572  0.3012
  612SOL    HW2 3000   8.211   0.300   3.810 -0.4520  0.8521  0.4853
  613SOL     OW 3001   5.829   6.784   4.663 -0.8099 -0.3914 -0.5640
  613SOL    HW1 3002   5.747   6.735   4.657  0.0995 -2.0184 -0.4897
  613SOL    HW2 3003   5.829   6.820   4.752 -0.7106 -1.8159  0.0440
  614SOL     OW 3004   0.799   7.346   8.126 -0.1894  0.1027 -0.2271
  614SOL    HW1 3005   0.872   7.284   8.128  0.9172  1.3339 -1.2925
  614SOL    HW2 3006   0.833   7.424   8.169 -1.1102  0.4775 -0.1577
  615SOL     OW 3007   3.714   5.954   8.084 -0.1907 -0.0684 -0.3253
  615SOL    HW1 3008   3.702   5.979   7.992 -1.8891  3.1434  0.6105
  615SOL    HW2 3009   3.777   6.017   8.118 -0.3637 -0.5542  0.9417
  616SOL     OW 3010   2.187   3.299   5.756 -0.2258  0.0800 -0.0834
  616SOL    HW1 3011   2.237   3.381   5.766 -0.4070  0.5158 -2.3185
  616SOL    HW2 3012   2.205   3.251   5.837  2.6162  0.8759 -0.1072
  617SOL     OW 3013   4.654   1.309   7.659 -0.0407 -0.7566  0.0252
  617SOL    HW1 3014   4.609   1.290   7.742  2.0618 -1.5308  1.0588
  617SOL    HW2 3015   4.711   1.234   7.645 -0.6612 -0.8421 -2.4058
  618SOL     OW 3016   0.198   2.794   4.576 -0.2760 -0.3833  0.0298
  618SOL    HW1 3017   0.207   2.880   4.535 -2.3668 -0.9153 -1.7155
  618SOL    HW2 3018   0.115   2.798   4.623  0.7828 -0.7033  2.0485
  619SOL     OW 3019   5.728   2.255   1.106  0.4123  0.7242 -0.4063
  619SOL    HW1 3020   5.760   2.306   1.180  0.6933  1.5842 -1.1108
  619SOL    HW2 3021   5.706   2.320   1.039 -1.8979  0.1277 -0.3276
  620SOL     OW 3022   6.949   7.851   5.820 -0.2417 -0.4632  0.2910
  620SOL    HW1 3023   6.961   7.859   5.915  0.7815 -1.5518  0.2734
  620SOL    HW2 3024   7.014   7.786   5.793 -0.4666 -0.1061 -1.1761
  621SOL     OW 3025   5.758   3.298   1.090 -0.4447  0.2120 -0.3274
  621SOL    HW1 3026   5.703   3.228   1.125 -2.4614  1.0266 -1.6683
  621SOL    HW2 3027   5.714   3.379   1.118  0.4962  0.9138 -0.8266
  622SOL     OW 3028   3.388   6.411   1.190 -0.3253  0.2824  0.0026
  622SOL    HW1 3029   3.391   6.351   1.115 -2.1450 -0.1693  0.2523
  622SOL    HW2 3030   3.400   6.355   1.266  1.5515  0.7461  0.1035
  623SOL     OW 3031   6.228   3.108   5.854  0.1873 -0.1940  0.1827
  623SOL    HW1 3032   6.223   3.102   5.949  1.8387  0.7654  0.3782
  623SOL    HW2 3033   6.199   3.197   5.834  0.9457 -0.0032 -0.0942
  624SOL     OW 3034   4.748   0.267   0.787 -0.4119  0.6858  0.1106
  624SOL    HW1 3035   4.735   0.265   0.881 -0.4533  0.6334  0.1039
  624SOL    HW2 3036   4.678   0.213   0.751 -0.7579  1.1958  0.0065
  625SOL     OW 3037   3.074   4.722   5.096  0.0479  0.1483  0.6549
  625SOL    HW1 3038   3.112   4.668   5.165  0.1563 -0.6480 -0.0172
  625SOL    HW2 3039   2.988   4.683   5.080 -0.7936  1.4788  1.6418
  626SOL     OW 3040   0.222   8.199   6.891 -0.7114  0.2879  0.3938
  626SOL    HW1 3041   0.166   8.189   6.814 -2.1504  0.3301  1.3917
  626SOL    HW2 3042   0.204   8.287   6.923 -0.2696  0.2055  0.8921
  627SOL     OW 3043   8.571   7.669   4.632 -0.4137 -0.1487 -0.4812
  627SOL    HW1 3044   8.545   7.636   4.546  2.4799  2.2554 -2.4671
  627SOL    HW2 3045   8.651   7.621   4.654 -0.9253 -0.4807  0.7670
  628SOL     OW 3046   7.823   5.906   6.088  0.2438  0.3306 -0.1505
  628SOL    HW1 3047   7.758   5.934   6.023  0.0995  0.9978  0.2748
  628SOL    HW2 3048   7.876   5.984   6.104 -0.0429  0.3201  0.9020
  629SOL     OW 3049   7.620   3.418   5.963 -0.8562  0.0655 -0.2920
  629SOL    HW1 3050   7.681   3.410   5.890 -0.5284 -1.8687  0.1521
  629SOL    HW2 3051   7.542   3.371   5.934 -1.3584  0.7287 -0.0374
  630SOL     OW 3052   4.517   7.986   2.241 -0.1263 -0.4901  0.1217
  630SOL    HW1 3053   4.587   7.966   2.178  1.1428 -1.5224  1.7994
  630SOL    HW2 3054   4.507   7.905   2.291 -2.0238 -0.0982  0.4242
  631SOL     OW 3055   7.780   6.966   6.929  0.2490 -0.0521 -0.3223
  631SOL    HW1 3056   7.740   6.962   7.016 -1.0059 -1.2716 -0.9160
  631SOL    HW2 3057   7.711   7.000   6.872  0.9309  0.3734 -0.9103
  632SOL     OW 3058   6.619   2.097   3.661 -0.1383  0.6024 -0.3380
  632SOL    HW1 3059   6.623   2.016   3.711  0.9575 -0.5644 -2.2114
  632SOL    HW2 3060   6.707   2.133   3.667  0.0363  0.3883 -1.4926
  633SOL     OW 3061   6.579   6.353   0.967  0.2551 -0.0676  0.4749
  633SOL    HW1 3062   6.672   6.340   0.949  1.4422  3.0543  3.2095
  633SOL    HW2 3063   6.558   6.438   0.928 -0.8716  0.2429  1.6783
  634SOL     OW 3064   6.478   8.566   2.520  0.4832 -0.6727 -0.7907
  634SOL    HW1 3065   6.460   8.536   2.609 -0.1232  0.4736 -0.5004
  634SOL    HW2 3066   6.464   8.489   2.465 -1.0528 -0.9333 -0.0908
  635SOL     OW 3067   5.658   3.801   2.347  0.6739 -0.1544  0.4644
  635SOL    HW1 3068   5.730   3.775   2.403  0.5286 -0.7694  0.3718
  635SOL    HW2 3069   5.624   3.719   2.311 -0.6108  0.0495  1.1652
  636SOL     OW 3070   8.673   1.289   5.008 -0.0172 -0.3249 -0.5562
  636SOL    HW1 3071   8.727   1.297   5.086  0.7173 -0.8800 -0.9964
  636SOL    HW2 3072   8.636   1.376   4.995 -1.8704 -0.6589  1.6082
  637SOL     OW 3073   7.515   3.443   0.740 -0.0524 -0.0152 -0.7794
  637SOL    HW1 3074   7.523   3.534   0.770  0.4383 -0.1282 -0.5403
  637SOL    HW2 3075   7.575   3.438   0.665  1.3780 -0.6033  0.3486
  638SOL     OW 3076   1.742   0.206   5.223  0.0274 -0.4243  0.6258
  638SOL    HW1 3077   1.753   0.117   5.257 -0.0240 -0.5393  0.3477
  638SOL    HW2 3078   1.715   0.258   5.298 -0.0016 -0.6580  0.7771
  639SOL     OW 3079   3.806   0.295   7.113 -0.2108  0.1583  0.6158
  639SOL    HW1 3080   3.756   0.215   7.093 -0.6486  0.9221 -1.5964
  639SOL    HW2 3081   3.866   0.305   7.039 -1.5099  2.8860 -0.1820
  640SOL     OW 3082   7.001   3.757   1.055 -0.0398  0.1646  0.4121
  640SOL    HW1 3083   7.032   3.836   1.100 -1.9692  1.3057 -0.1157
  640SOL    HW2 3084   7.080   3.711   1.029  1.1395  0.8726  2.5354
  641SOL     OW 3085   3.703   2.091   2.191 -0.0824  0.3547  0.0529
  641SOL    HW1 3086   3.675   2.046   2.271 -0.5150  0.3729 -0.0856
  641SOL    HW2 3087   3.790   2.125   2.212 -0.5342  1.0722  0.8028
  642SOL     OW 3088   2.364   0.593   1.263 -0.0318 -0.0644 -0.0432
  642SOL    HW1 3089   2.346   0.561   1.174 -0.5136  1.0840 -0.3812
  642SOL    HW2 3090   2.362   0.514   1.317 -2.0423 -0.5406 -0.7093
  643SOL     OW 3091   7.872   7.449   3.989 -0.4445 -0.0531 -0.0897
  643SOL    HW1 3092   7.900   7.540   3.985 -1.3134  0.2464  0.3327
  643SOL    HW2 3093   7.880   7.417   3.899  0.1733  0.3378 -0.1797
  644SOL     OW 3094   1.005   5.200   2.066 -0.2332 -0.1635  0.3754
  644SOL    HW1 3095   0.980   5.108   2.073 -0.3554 -0.0890  0.9883
  644SOL    HW2 3096   0.936   5.247   2.114 -0.0690  0.2276  0.2333
  645SOL     OW 3097   0.210   6.498   7.682 -0.3273  0.0292  0.2981
  645SOL    HW1 3098   0.173   6.410   7.677 -1.4277  0.3620  1.9002
  645SOL    HW2 3099   0.189   6.538   7.598 -0.4635 -0.9863 -0.1591
  646SOL     OW 3100   8.141   1.880   1.051  0.0245  0.1116  0.2242
  646SOL    HW1 3101   8.195   1.802   1.036  0.5505 -0.0828  2.7389
  646SOL    HW2 3102   8.054   1.846   1.069 -0.0617  0.2040 -0.0102
  647SOL     OW 3103   5.644   6.631   6.905  0.7446 -0.1464  0.6544
  647SOL    HW1 3104   5.549   6.618   6.909  0.9134 -2.0619 -0.3998
  647SOL    HW2 3105   5.668   6.615   6.814  2.0769  0.3885  0.8798
  648SOL     OW 3106   1.100   4.380   4.691 -0.3109 -0.0647 -0.0249
  648SOL    HW1 3107   1.084   4.440   4.763 -0.5887  0.1069 -0.2273
  648SOL    HW2 3108   1.022   4.387   4.636  0.0186  0.0204 -0.4927
  649SOL     OW 3109   8.750   4.861   5.326 -0.1594 -0.3986 -0.3272
  649SOL    HW1 3110   8.805   4.790   5.360 -1.3394 -0.9427  0.5169
  649SOL    HW2 3111   8.802   4.940   5.340  0.7068 -0.9685 -0.2333
  650SOL     OW 3112   6.024   3.902   5.932  0.5025 -0.2204  0.1093
  650SOL    HW1 3113   5.947   3.925   5.984  1.8318 -0.6884  2.4284
  650SOL    HW2 3114   5.998   3.824   5.883 -0.2796 -0.8826  1.5098
  651SOL     OW 3115   1.567   4.955   8.529 -0.0675  0.5363 -0.0920
  651SOL    HW1 3116   1.504   4.885   8.510 -0.7212  0.6054  1.6449
  651SOL    HW2 3117   1.652   4.912   8.527 -0.3922 -0.1253  0.1054
  652SOL     OW 3118   4.096   7.130   0.532  0.6000  0.0756  0.4614
  652SOL    HW1 3119   4.168   7.190   0.553  1.1825 -1.4932  3.5057
  652SOL    HW2 3120   4.024   7.188   0.506  1.5849  2.0004  1.7653
  653SOL     OW 3121   2.724   7.465   5.675  0.0089 -0.2741  0.5017
  653SOL    HW1 3122   2.748   7.551   5.711 -0.4544 -0.3040  0.9026
  653SOL    HW2 3123   2.665   7.485   5.602  0.2631 -0.2416  0.3027
  654SOL     OW 3124   7.236   1.785   0.852  0.4385 -0.0874 -0.1253
  654SOL    HW1 3125   7.275   1.792   0.765  1.2179 -0.7850  0.1543
  654SOL    HW2 3126   7.247   1.693   0.876 -0.3270 -0.0367  0.4601
  655SOL     OW 3127   2.216   4.945   2.883  0.3094  0.1668 -0.1927
  655SOL    HW1 3128   2.253   5.028   2.914 -1.9714  0.8891  0.8440
  655SOL    HW2 3129   2.246   4.880   2.947  0.0199  0.7027  0.5085
  656SOL     OW 3130   1.576   4.926   0.355 -0.3169  0.0407 -0.2997
  656SOL    HW1 3131   1.591   4.968   0.440 -0.2222 -1.4972  0.4893
  656SOL    HW2 3132   1.607   4.990   0.291 -1.7167  1.8536  0.7103
  657SOL     OW 3133   1.187   3.970   8.470 -0.3381 -0.2270 -0.0848
  657SOL    HW1 3134   1.116   3.985   8.408  0.7157  0.9428 -1.0584
  657SOL    HW2 3135   1.169   4.031   8.542  0.6918  1.5412 -1.2520
  658SOL     OW 3136   4.897   4.930   5.946 -0.4849 -0.6806 -0.0050
  658SOL    HW1 3137   4.992   4.935   5.938 -0.3082 -0.1030  1.8022
  658SOL    HW2 3138   4.869   5.021   5.955 -1.2198 -0.8411 -0.6020
  659SOL     OW 3139   1.579   0.594   5.743 -0.0581  0.5432  0.2610
  659SOL    HW1 3140   1.502   0.644   5.716 -1.2058 -0.7800  0.9969
  659SOL    HW2 3141   1.646   0.661   5.757 -1.1687  1.7650 -0.0368
  660SOL     OW 3142   1.016   1.698   1.415  0.0242  0.3052  0.1846
  660SOL    HW1 3143   1.078   1.634   1.449  0.0980 -0.0886 -0.6603
  660SOL    HW2 3144   1.059   1.736   1.338 -0.1352  1.1666  0.5066
  661SOL     OW 3145   6.955   1.935   0.803 -0.0454 -0.5685  0.2762
  661SOL    HW1 3146   6.902   1.914   0.880 -0.6200 -1.2541 -0.2906
  661SOL    HW2 3147   7.028   1.873   0.806  1.1626  0.8411  1.4476
  662SOL     OW 3148   0.180   0.178   6.353  0.1733  0.1187 -0.1402
  662SOL    HW1 3149   0.240   0.154   6.424 -1.6973 -1.1677  1.0860
  662SOL    HW2 3150   0.122   0.244   6.392 -1.6779 -1.4990  0.0324
  663SOL     OW 3151   2.060   1.814   1.531  0.1523  0.6095 -0.3361
  663SOL    HW1 3152   2.025   1.740   1.580  2.7576 -1.2909 -1.1401
  663SOL    HW2 3153   1.982   1.855   1.492 -1.4924 -0.9091  1.1704
  664SOL     OW 3154   0.913   4.179   0.016 -0.1782  0.2941  0.1006
  664SOL    HW1 3155   0.899   4.195  -0.077  0.4477 -0.2158 -0.0886
  664SOL    HW2 3156   0.825   4.167   0.052 -0.6230  2.7718  0.0217
  665SOL     OW 3157   1.098   4.520   0.401  0.3972 -0.0300 -0.1281
  665SOL    HW1 3158   1.164   4.452   0.416 -2.4676 -2.8823  0.5791
  665SOL    HW2 3159   1.090   4.525   0.306  1.3911  0.1644 -0.2147
  666SOL     OW 3160   2.015   3.592   4.666 -0.6237  0.4244  0.5395
  666SOL    HW1 3161   2.060   3.669   4.630  0.0583  0.1933  0.8832
  666SOL    HW2 3162   1.954   3.629   4.730 -1.4105  0.7893 -0.3860
  667SOL     OW 3163   1.688   6.876   1.531  0.0924 -0.4174 -0.0937
  667SOL    HW1 3164   1.635   6.816   1.585 -0.3050  0.6087  0.6947
  667SOL    HW2 3165   1.653   6.865   1.443  0.5650 -1.9241 -0.1268
  668SOL     OW 3166   3.331   8.033   2.924 -0.0983  0.7027 -0.4355
  668SOL    HW1 3167   3.411   8.029   2.871 -0.7399 -1.4406 -1.3445
  668SOL    HW2 3168   3.297   7.944   2.922 -2.2620  1.4587  0.3645
  669SOL     OW 3169   7.332   5.063   1.543 -0.4480  0.0476 -0.0679
  669SOL    HW1 3170   7.404   5.085   1.603 -0.8622  2.3365 -0.3147
  669SOL    HW2 3171   7.332   5.134   1.479 -2.4476 -0.3097 -0.5266
  670SOL     OW 3172   0.234   2.819   0.640 -0.0135 -0.1359  0.4801
  670SOL    HW1 3173   0.270   2.731   0.651  1.3489  0.5927  2.4294
  670SOL    HW2 3174   0.306   2.870   0.604  0.4188  0.9325  2.7012
  671SOL     OW 3175   6.063   5.548   3.554  0.0780  0.0025  0.2572
  671SOL    HW1 3176   5.975   5.520   3.527  0.4903 -0.9054 -0.2039
  671SOL    HW2 3177   6.078   5.629   3.505 -0.2950 -0.1350 -0.0945
  672SOL     OW 3178   0.693   7.580   1.573  0.6157 -0.0058  0.9094
  672SOL    HW1 3179   0.772   7.609   1.618  0.6373  1.5427 -0.0432
  672SOL    HW2 3180   0.654   7.661   1.539  1.0171 -1.0714 -2.5012
  673SOL     OW 3181   5.816   0.243   8.734 -0.2972  0.5071 -0.3633
  673SOL    HW1 3182   5.903   0.281   8.747  0.9213 -0.8856 -3.6311
  673SOL    HW2 3183   5.832   0.150   8.718 -2.2788  0.3760 -1.9157
  674SOL     OW 3184   6.317   0.885   3.293  0.1183  0.5352  0.3678
  674SOL    HW1 3185   6.264   0.965   3.295  1.0122  1.1879 -0.3687
  674SOL    HW2 3186   6.325   0.865   3.199 -0.8208 -0.9448  0.5804
  675SOL     OW 3187   6.491   2.141   5.111 -0.1227  0.2656  0.0128
  675SOL    HW1 3188   6.527   2.228   5.096 -2.5846  1.7023  1.7471
  675SOL    HW2 3189   6.398   2.149   5.090 -0.5158 -1.7983  0.7264
  676SOL     OW 3190   2.573   6.690   7.581 -0.2367  0.0052  0.0509
  676SOL    HW1 3191   2.607   6.641   7.655  0.4683 -0.9579 -0.8692
  676SOL    HW2 3192   2.640   6.679   7.513 -1.3691 -0.0558 -1.0877
  677SOL     OW 3193   0.485   7.157   2.029 -0.0494  0.0165  0.2146
  677SOL    HW1 3194   0.530   7.104   1.963  0.2374  0.6598 -0.1225
  677SOL    HW2 3195   0.433   7.219   1.978  0.6019  0.8856  0.5682
  678SOL     OW 3196   3.154   6.490   7.716  0.0028  0.1620 -0.0250
  678SOL    HW1 3197   3.195   6.544   7.783  0.5262 -0.9836  0.6031
  678SOL    HW2 3198   3.225   6.468   7.655 -0.6124  1.8015 -1.4003
  679SOL     OW 3199   3.037   3.989   4.653 -0.6003 -0.0623 -0.2116
  679SOL    HW1 3200   3.086   3.913   4.620  1.1719  0.0121  1.9645
  679SOL    HW2 3201   3.094   4.063   4.634 -0.5530  0.2252  0.9748
  680SOL     OW 3202   1.848   3.551   8.327 -0.3021  0.3247  0.1956
  680SOL    HW1 3203   1.754   3.540   8.343 -0.2403 -1.9748 -0.6520
  680SOL    HW2 3204   1.890   3.490   8.388  0.5442  0.1555 -0.5271
  681SOL     OW 3205   4.329   2.092   5.495 -0.1427  0.1149  0.1294
  681SOL    HW1 3206   4.407   2.142   5.520 -0.1514  0.3520 -0.3108
  681SOL    HW2 3207   4.325   2.101   5.400  0.0356 -0.9994  0.0067
  682SOL     OW 3208   5.252   5.343   7.762  0.0659  0.6117  0.0643
  682SOL    HW1 3209   5.159   5.346   7.783  0.2483  0.5561  0.9146
  682SOL    HW2 3210   5.258   5.285   7.686 -0.5027 -0.1078  0.5557
  683SOL     OW 3211   2.931   5.269   0.948  0.1365  0.1635  0.0943
  683SOL    HW1 3212   2.898   5.282   1.037  0.4869 -0.5135  0.3269
  683SOL    HW2 3213   2.928   5.174   0.935  1.1332  0.1676 -0.2154
  684SOL     OW 3214   2.865   1.494   4.494  0.0304 -0.3147  0.5151
  684SOL    HW1 3215   2.868   1.401   4.473 -2.5938 -0.0906 -1.3366
  684SOL    HW2 3216   2.830   1.497   4.583 -1.5185 -1.1016 -0.0412
  685SOL     OW 3217   2.960   7.665   0.846 -0.9068  0.0470  0.5208
  685SOL    HW1 3218   2.907   7.603   0.896 -1.4942  0.1116 -0.0133
  685SOL    HW2 3219   3.034   7.683   0.903 -0.2896 -1.7626  0.3774
  686SOL     OW 3220   5.507   8.564   1.778  0.4955 -0.2329 -0.4411
  686SOL    HW1 3221   5.530   8.595   1.690  0.5403 -0.8631 -0.6591
  686SOL    HW2 3222   5.430   8.509   1.764  0.0142  0.3164  0.0296
  687SOL     OW 3223   8.337   5.113   0.758 -0.2906 -0.3836 -0.0193
  687SOL    HW1 3224   8.349   5.204   0.784 -0.6125  0.2043 -1.7853
  687SOL    HW2 3225   8.243   5.098   0.769 -0.2344 -0.5194  0.2894
  688SOL     OW 3226   3.474   6.257   2.529  0.0417  0.0157  0.0633
  688SOL    HW1 3227   3.422   6.337   2.527 -2.3823 -1.3403  2.6235
  688SOL    HW2 3228   3.424   6.195   2.476  1.2027 -0.2286 -0.7860
  689SOL     OW 3229   2.597   6.184   2.290  0.8362 -0.2772  0.1743
  689SOL    HW1 3230   2.621   6.120   2.224 -0.7179 -0.6510 -0.0646
  689SOL    HW2 3231   2.635   6.266   2.258  0.5987 -0.5620 -0.8855
  690SOL     OW 3232   8.382   3.836   0.952  0.1695 -0.6413  0.0038
  690SOL    HW1 3233   8.442   3.794   1.013 -0.2187 -1.5510 -0.2205
  690SOL    HW2 3234   8.439   3.878   0.887  0.5750 -0.0642  0.7217
  691SOL     OW 3235   1.999   8.634   1.157  0.0577 -0.0923  0.3912
  691SOL    HW1 3236   2.050   8.669   1.084  2.8205 -2.9619  0.7791
  691SOL    HW2 3237   1.910   8.627   1.122  1.1847 -0.9340 -2.5926
  692SOL     OW 3238   4.561   0.402   2.282 -0.3548  0.5013 -0.3112
  692SOL    HW1 3239   4.645   0.438   2.309  0.7288  0.0663 -2.7843
  692SOL    HW2 3240   4.511   0.477   2.251  0.3578  0.4260 -1.7165
  693SOL     OW 3241   8.795   7.006   6.275  0.4034 -0.0659  0.2054
  693SOL    HW1 3242   8.776   6.935   6.335  1.0288 -0.0678  0.4126
  693SOL    HW2 3243   8.891   7.012   6.274  0.3594  1.8685  1.5021
  694SOL     OW 3244   8.589   4.677   7.761 -0.8652  0.2313  0.0808
  694SOL    HW1 3245   8.600   4.761   7.806 -0.2551  0.1150  0.1654
  694SOL    HW2 3246   8.584   4.612   7.832  0.0804  0.0493  0.0012
  695SOL     OW 3247   4.279   3.086   7.191  0.1367  0.1051 -0.4778
  695SOL    HW1 3248   4.343   3.127   7.133  1.9588 -1.9460 -0.0613
  695SOL    HW2 3249   4.321   3.085   7.277 -0.5351 -1.0628 -0.1388
  696SOL     OW 3250   4.093   4.741   7.113  0.2102  0.1036  0.1188
  696SOL    HW1 3251   4.071   4.784   7.030 -0.8537  0.8103  0.7427
  696SOL    HW2 3252   4.009   4.713   7.149  0.6800 -0.3858  0.8689
  697SOL     OW 3253   5.537   3.645   4.143  0.3925  0.5206 -0.2757
  697SOL    HW1 3254   5.478   3.652   4.067  0.3220 -1.1178 -0.4249
  697SOL    HW2 3255   5.491   3.689   4.214 -0.1496  0.9264 -0.8705
  698SOL     OW 3256   3.886   5.017   0.482  0.5231 -0.6554 -0.2570
  698SOL    HW1 3257   3.801   5.014   0.438 -0.1349 -1.0296  0.9648
  698SOL    HW2 3258   3.931   4.938   0.453  0.8524  0.0213 -1.6379
  699SOL     OW 3259   7.960   7.042   5.713 -0.1931  0.0615 -0.3543
  699SOL    HW1 3260   7.936   6.955   5.746  2.0401 -0.7554 -0.7166
  699SOL    HW2 3261   7.907   7.103   5.765  0.2607 -1.3579  1.9063
  700SOL     OW 3262   2.452   5.292   2.685 -0.3470  0.1047  0.0269
  700SOL    HW1 3263   2.530   5.286   2.740  0.1523 -1.3861 -0.7743
  700SOL    HW2 3264   2.454   5.381   2.650  0.4585  0.4022  0.7934
  701SOL     OW 3265   7.305   6.382   0.111 -0.0064 -0.0781  0.3507
  701SOL    HW1 3266   7.285   6.428   0.030 -1.5859 -0.4208  0.5122
  701SOL    HW2 3267   7.352   6.303   0.083 -1.6955 -0.8578 -0.3730
  702SOL     OW 3268   8.305   6.129   1.359 -0.0688  0.0594  0.0255
  702SOL    HW1 3269   8.361   6.109   1.283  1.0666  0.0587  0.8338
  702SOL    HW2 3270   8.359   6.185   1.414 -1.4168  1.2844  0.1681
  703SOL     OW 3271   5.587   1.858   4.028  0.5298  0.3839  0.6034
  703SOL    HW1 3272   5.632   1.867   3.944  0.9187  0.6086  0.8291
  703SOL    HW2 3273   5.556   1.946   4.048 -2.7173 -0.2637 -0.9888
  704SOL     OW 3274   6.076   8.435   1.539 -0.0572 -0.1574  0.2951
  704SOL    HW1 3275   6.079   8.428   1.444 -0.5067 -0.2495  0.2836
  704SOL    HW2 3276   6.164   8.464   1.564  0.0705 -0.1587 -0.1436
  705SOL     OW 3277   5.651   4.071   5.801 -1.1082 -0.7872  0.6048
  705SOL    HW1 3278   5.589   4.016   5.754 -0.5519 -0.9900  0.1028
  705SOL    HW2 3279   5.667   4.146   5.743 -1.5797 -0.2769  1.1248
  706SOL     OW 3280   8.319   3.436   0.961  0.0773  0.2237  0.3777
  706SOL    HW1 3281   8.260   3.483   1.020 -0.9218  0.2407 -0.5959
  706SOL    HW2 3282   8.344   3.500   0.895 -0.6462 -0.3805 -0.5004
  707SOL     OW 3283   0.322   4.290   1.561  0.6708 -0.0126  0.3604
  707SOL    HW1 3284   0.399   4.302   1.507 -0.3836 -3.4495 -2.2859
  707SOL    HW2 3285   0.260   4.357   1.531  1.5555  0.8385  0.3969
  708SOL     OW 3286   5.836   8.313   2.005 -0.2054 -0.2440 -0.1589
  708SOL    HW1 3287   5.908   8.251   1.991  0.7231  0.8164 -0.2851
  708SOL    HW2 3288   5.845   8.338   2.097 -1.2779 -1.1227  0.2057
  709SOL     OW 3289   1.866   5.151   2.488 -0.1698  0.3648  0.3627
  709SOL    HW1 3290   1.783   5.176   2.446  0.5615 -0.4895 -1.7006
  709SOL    HW2 3291   1.933   5.170   2.423  1.1708 -0.0023  1.5769
  710SOL     OW 3292   8.179   4.117   7.516  0.1217  0.4705  0.5420
  710SOL    HW1 3293   8.149   4.027   7.504  1.0906  0.1445  0.5105
  710SOL    HW2 3294   8.104   4.170   7.491  0.1213 -0.2851 -1.1692
  711SOL     OW 3295   5.322   1.975   0.734 -0.0213  0.1905 -0.0608
  711SOL    HW1 3296   5.277   1.919   0.670  2.4813  0.7316 -2.4860
  711SOL    HW2 3297   5.394   1.922   0.766  0.5790  0.9837 -0.0711
  712SOL     OW 3298   3.721   8.686   7.076 -0.0769 -0.0570  0.5822
  712SOL    HW1 3299   3.722   8.699   7.171  0.3545  0.0894  0.5580
  712SOL    HW2 3300   3.797   8.734   7.044 -0.4455  0.2354  0.1168
  713SOL     OW 3301   7.313   4.939   3.099  0.0280  0.7148  0.2354
  713SOL    HW1 3302   7.345   5.027   3.117  0.9577  0.0136  2.3527
  713SOL    HW2 3303   7.391   4.883   3.106 -0.2685 -0.1798 -2.4319
  714SOL     OW 3304   3.168   0.321   6.160  0.0816 -0.0970  0.1668
  714SOL    HW1 3305   3.087   0.347   6.115  0.4230 -0.2825 -0.5653
  714SOL    HW2 3306   3.235   0.328   6.093  0.6565 -0.0779  0.7402
  715SOL     OW 3307   4.567   8.476   0.400 -0.2707 -0.1117 -0.3084
  715SOL    HW1 3308   4.552   8.382   0.392 -1.1373 -0.0783  0.6877
  715SOL    HW2 3309   4.658   8.488   0.371  0.7978 -1.6657  2.0286
  716SOL     OW 3310   7.510   7.527   7.511  0.4255 -0.9596  0.2079
  716SOL    HW1 3311   7.574   7.565   7.450 -0.0022 -0.2641  0.1907
  716SOL    HW2 3312   7.489   7.442   7.472 -0.2818 -0.2876 -0.9484
  717SOL     OW 3313   4.842   4.207   3.076 -0.4840  0.0172  0.4806
  717SOL    HW1 3314   4.821   4.297   3.051 -1.9588 -0.2324  0.7450
  717SOL    HW2 3315   4.845   4.208   3.172  0.4778 -0.0243  0.4641
  718SOL     OW 3316   2.227   0.951   3.565  0.2926  0.4184  0.3264
  718SOL    HW1 3317   2.250   0.862   3.593 -0.7344 -0.1115 -0.4346
  718SOL    HW2 3318   2.307   0.985   3.525  0.1388 -0.9546 -1.2571
  719SOL     OW 3319   2.152   0.283   5.893  0.4932 -0.5807  0.0097
  719SOL    HW1 3320   2.079   0.262   5.952  0.4659 -1.0227 -0.1819
  719SOL    HW2 3321   2.118   0.265   5.805  0.7539 -0.5487 -0.0986
  720SOL     OW 3322   6.216   3.443   3.232 -0.0050 -0.7025 -0.0153
  720SOL    HW1 3323   6.304   3.441   3.269  0.1326  2.3170  0.0652
  720SOL    HW2 3324   6.230   3.443   3.137 -0.0212 -1.6780 -0.0270
  721SOL     OW 3325   8.042   2.230   1.839  0.5599 -0.2032  0.1652
  721SOL    HW1 3326   8.097   2.262   1.911  1.8405 -1.7483 -0.0542
  721SOL    HW2 3327   7.953   2.238   1.871  1.0020  0.6882  1.2607
  722SOL     OW 3328   4.547   6.715   7.363  0.0794  0.0047 -0.0525
  722SOL    HW1 3329   4.635   6.740   7.334  0.1710  0.6009  0.7084
  722SOL    HW2 3330   4.495   6.794   7.353 -0.5258 -0.4967 -1.0393
  723SOL     OW 3331   2.391   7.932   2.166  0.1535  0.1221  0.0625
  723SOL    HW1 3332   2.369   7.992   2.094 -0.9887 -0.2205  0.0987
  723SOL    HW2 3333   2.306   7.905   2.201  0.6749  0.4801  1.7092
  724SOL     OW 3334   5.721   6.769   5.313  0.2239 -0.7199  0.4064
  724SOL    HW1 3335   5.684   6.843   5.266  1.5221  0.1045  0.6364
  724SOL    HW2 3336   5.816   6.778   5.301  0.3803 -2.9575 -0.4961
  725SOL     OW 3337   4.632   2.545   1.171 -0.5962  0.0976 -0.1078
  725SOL    HW1 3338   4.716   2.501   1.179 -0.9364 -0.4188  0.6298
  725SOL    HW2 3339   4.581   2.490   1.111 -0.7022 -0.0331  0.1021
  726SOL     OW 3340   0.396   3.820   4.464  0.6976  0.0930 -0.6943
  726SOL    HW1 3341   0.334   3.755   4.497  0.8017  0.2012 -0.2748
  726SOL    HW2 3342   0.435   3.858   4.543 -1.9428  3.2743 -0.7242
  727SOL     OW 3343   0.459   2.959   3.949  0.0649 -0.3973  0.4562
  727SOL    HW1 3344   0.422   3.045   3.968 -0.3439 -0.5179  0.2184
  727SOL    HW2 3345   0.383   2.903   3.931  0.3047 -0.9101  1.0171
  728SOL     OW 3346   2.368   8.167   2.604  0.0212 -0.2051 -0.1174
  728SOL    HW1 3347   2.333   8.125   2.683 -0.6441  0.6397  0.0593
  728SOL    HW2 3348   2.329   8.255   2.605  1.4955  0.4845 -0.3794
  729SOL     OW 3349   4.200   1.267   3.277  0.4507 -0.4144  0.0437
  729SOL    HW1 3350   4.289   1.291   3.250  0.5963  0.2560  1.0718
  729SOL    HW2 3351   4.157   1.351   3.293  0.0331 -0.7602  0.7933
  730SOL     OW 3352   6.919   5.424   2.908  0.5782 -0.1888 -0.5499
  730SOL    HW1 3353   6.995   5.439   2.851 -0.0607 -1.6880 -1.8776
  730SOL    HW2 3354   6.932   5.484   2.981  3.2223 -0.6427 -0.5442
  731SOL     OW 3355   6.649   0.182   6.520  1.0146 -0.1793 -0.0103
  731SOL    HW1 3356   6.709   0.248   6.553  0.5745 -1.0019  2.6455
  731SOL    HW2 3357   6.619   0.217   6.436  3.4771  1.2621 -0.3834
  732SOL     OW 3358   0.188   3.162   1.061  0.0049 -0.0030  0.0161
  732SOL    HW1 3359   0.225   3.147   1.148  0.5073 -0.4218 -0.2678
  732SOL    HW2 3360   0.177   3.074   1.024  2.6183  0.2372 -1.5213
  733SOL     OW 3361   3.112   6.212   1.913 -0.4207 -0.2966 -0.1962
  733SOL    HW1 3362   3.159   6.286   1.953 -1.7903  0.8903 -0.6778
  733SOL    HW2 3363   3.180   6.161   1.869  0.7231 -0.0184  1.1792
  734SOL     OW 3364   1.086   1.690   6.524  0.2017  0.0148 -0.0320
  734SOL    HW1 3365   1.104   1.597   6.534 -0.3256 -0.0476  0.4258
  734SOL    HW2 3366   1.130   1.715   6.443 -1.8859 -1.2476 -1.6489
  735SOL     OW 3367   5.234   8.265   7.018 -0.3750 -0.4194  0.3656
  735SOL    HW1 3368   5.172   8.263   7.091 -1.3389  0.4378 -0.3877
  735SOL    HW2 3369   5.315   8.297   7.057 -1.2067  1.2139  0.8875
  736SOL     OW 3370   5.174   0.395   1.720  0.1997  0.5468 -0.1498
  736SOL    HW1 3371   5.098   0.374   1.773 -1.2098  3.6831 -0.6906
  736SOL    HW2 3372   5.159   0.350   1.637 -2.2512  2.6905 -0.9985
  737SOL     OW 3373   8.198   7.773   1.080  0.6511 -0.0699 -0.1013
  737SOL    HW1 3374   8.217   7.852   1.132  1.5533 -0.0071 -0.5087
  737SOL    HW2 3375   8.175   7.707   1.145  0.3135  0.4134  0.2787
  738SOL     OW 3376   5.793   1.651   3.687 -0.0438  0.2004 -0.5052
  738SOL    HW1 3377   5.778   1.604   3.606 -1.5358 -2.7280  1.2932
  738SOL    HW2 3378   5.870   1.609   3.725  1.0304  1.9622 -0.6168
  739SOL     OW 3379   5.801   3.644   0.083  1.1650  0.0114 -0.2763
  739SOL    HW1 3380   5.790   3.549   0.081  0.9912 -0.0095  1.2425
  739SOL    HW2 3381   5.798   3.670  -0.010 -1.9449 -1.0978 -0.5968
  740SOL     OW 3382   1.931   6.884   2.118 -0.6527  0.2645 -0.0452
  740SOL    HW1 3383   1.846   6.869   2.076 -1.1158  2.0721  0.1349
  740SOL    HW2 3384   1.979   6.939   2.056  0.6700 -1.2685 -0.4315
  741SOL     OW 3385   6.514   6.968   3.155  0.0814  0.0952  0.0071
  741SOL    HW1 3386   6.503   6.968   3.250 -1.0335 -0.4153 -0.1046
  741SOL    HW2 3387   6.576   6.897   3.138 -0.1367 -0.1728  0.3191
  742SOL     OW 3388   1.368   6.990   1.001  0.0700  0.5403  0.5121
  742SOL    HW1 3389   1.456   6.982   0.966 -0.0732  0.8233  0.0769
  742SOL    HW2 3390   1.380   7.034   1.085  0.4543 -0.5414  1.0374
  743SOL     OW 3391   1.843   4.242   5.642  0.9570 -0.2871 -0.1706
  743SOL    HW1 3392   1.898   4.314   5.673  1.0203 -1.1857  2.0277
  743SOL    HW2 3393   1.782   4.226   5.714 -1.0628 -0.4756 -1.8285
  744SOL     OW 3394   4.001   1.925   7.855  0.6126  0.1943  0.4859
  744SOL    HW1 3395   3.920   1.883   7.881  1.1405 -1.2022 -0.0221
  744SOL    HW2 3396   4.050   1.857   7.808  2.3850  0.7812  1.3795
  745SOL     OW 3397   2.458   8.741   6.076 -0.5065  0.4073  0.1077
  745SOL    HW1 3398   2.422   8.816   6.029  1.0681  0.3322 -1.3040
  745SOL    HW2 3399   2.474   8.773   6.165 -0.7410  1.4533 -0.2236
  746SOL     OW 3400   4.236   6.463   7.004  0.3157  0.1718 -0.6006
  746SOL    HW1 3401   4.232   6.554   7.032  1.3551 -0.1283  0.6047
  746SOL    HW2 3402   4.242   6.468   6.908 -2.6257  1.2388 -0.8348
  747SOL     OW 3403   3.928   6.750   7.272 -0.1170  0.1909 -0.2376
  747SOL    HW1 3404   3.942   6.777   7.363 -1.2672  0.2778 -0.0714
  747SOL    HW2 3405   3.896   6.829   7.229  0.9883  0.3148 -0.8845
  748SOL     OW 3406   2.854   0.024   2.544 -0.3775 -0.3715  0.4930
  748SOL    HW1 3407   2.834   0.084   2.472  0.0689  0.5954  1.1459
  748SOL    HW2 3408   2.785   0.040   2.609 -0.6987 -1.1345  0.3495
  749SOL     OW 3409   5.156   8.200   5.580  0.2728  0.5479  0.0551
  749SOL    HW1 3410   5.098   8.234   5.512 -0.8167 -0.6502  0.3296
  749SOL    HW2 3411   5.104   8.132   5.623  1.9896 -0.7685  0.1404
  750SOL     OW 3412   4.032   2.458   7.836  0.7193  0.2069 -0.2471
  750SOL    HW1 3413   4.027   2.370   7.874  1.4787  0.1911 -0.1694
  750SOL    HW2 3414   3.947   2.498   7.857  1.4044  0.5117  2.2499
  751SOL     OW 3415   0.913   8.189   7.943  0.3825 -0.1533 -0.2802
  751SOL    HW1 3416   0.881   8.279   7.939 -0.4028 -0.4014  0.4070
  751SOL    HW2 3417   0.886   8.150   7.859 -2.9059 -0.9294  0.9871
  752SOL     OW 3418   7.581   4.117   1.823 -0.3051  0.2563  0.3131
  752SOL    HW1 3419   7.645   4.101   1.754 -0.0406  0.0961  0.5958
  752SOL    HW2 3420   7.628   4.100   1.904 -0.8467 -0.3743  0.5029
  753SOL     OW 3421   2.924   0.975   2.994  0.0419  0.2212  0.1224
  753SOL    HW1 3422   2.991   1.022   2.945  0.8994 -0.8886  0.1906
  753SOL    HW2 3423   2.927   1.014   3.081 -0.4026  1.1324 -0.2503
  754SOL     OW 3424   1.861   3.725   8.113 -0.2668  0.3816 -0.2952
  754SOL    HW1 3425   1.837   3.808   8.155  0.1655  0.4616 -0.2101
  754SOL    HW2 3426   1.877   3.665   8.186 -1.3227 -0.0019 -0.3512
  755SOL     OW 3427   7.770   8.036   5.154  0.1227  0.4150  0.5588
  755SOL    HW1 3428   7.862   8.015   5.171  0.0944 -0.2833 -0.1182
  755SOL    HW2 3429   7.770   8.077   5.068 -0.3537 -0.9148 -0.1083
  756SOL     OW 3430   5.332   8.450   8.328  0.1752  0.3007 -0.1138
  756SOL    HW1 3431   5.388   8.524   8.350  1.8732 -0.6364 -1.0724
  756SOL    HW2 3432   5.244   8.478   8.352  0.9939  1.9491  1.1611
  757SOL     OW 3433   7.221   3.437   0.207  0.2416  0.1973  1.4940
  757SOL    HW1 3434   7.296   3.438   0.266  1.7449  2.0007 -0.3171
  757SOL    HW2 3435   7.145   3.431   0.266  1.6940  0.8604  3.5478
  758SOL     OW 3436   1.987   0.140   4.438  0.1546 -0.3896  0.1024
  758SOL    HW1 3437   2.005   0.065   4.494 -0.7389  0.2737  1.3282
  758SOL    HW2 3438   1.922   0.191   4.486 -0.9552  0.0209 -1.7199
  759SOL     OW 3439   1.094   8.563   1.193 -0.4069  0.1687 -1.1185
  759SOL    HW1 3440   1.012   8.539   1.236  0.5832  2.0978  2.1824
  759SOL    HW2 3441   1.162   8.539   1.255  1.5912 -0.7949 -3.5086
  760SOL     OW 3442   6.902   8.142   1.588  0.1256 -0.1370 -0.7052
  760SOL    HW1 3443   6.917   8.234   1.611 -0.5488 -0.2984  0.4720
  760SOL    HW2 3444   6.824   8.143   1.533  0.5593  0.0546 -1.3309
  761SOL     OW 3445   2.482   7.378   2.195  0.2263 -0.7218  0.3701
  761SOL    HW1 3446   2.475   7.457   2.249 -0.5391  0.6468 -1.6243
  761SOL    HW2 3447   2.572   7.380   2.162 -0.6875  1.2644 -2.3463
  762SOL     OW 3448   0.501   4.827   0.592  0.1528  0.2527  0.1322
  762SOL    HW1 3449   0.504   4.916   0.626  0.8812  0.6821 -1.0070
  762SOL    HW2 3450   0.415   4.820   0.552 -1.0625 -0.5324  2.6520
  763SOL     OW 3451   7.955   8.831   7.327 -0.0397  0.1530  0.2725
  763SOL    HW1 3452   7.888   8.793   7.269  0.8174 -1.9351  0.5910
  763SOL    HW2 3453   8.004   8.890   7.270 -1.3435  0.7597 -0.2680
  764SOL     OW 3454   7.381   6.774   6.026 -0.0166 -0.0002  0.0366
  764SOL    HW1 3455   7.291   6.805   6.019 -0.1392 -0.2151  0.5887
  764SOL    HW2 3456   7.432   6.852   6.046 -0.2046 -0.0190  0.5948
  765SOL     OW 3457   0.527   8.005   7.600 -0.4111 -0.1273  0.2487
  765SOL    HW1 3458   0.530   8.000   7.504  0.2088  1.4407  0.1511
  765SOL    HW2 3459   0.519   8.098   7.619 -0.9807 -0.4499  1.7296
  766SOL     OW 3460   3.401   7.196   2.135  0.2525  0.0087  0.2127
  766SOL    HW1 3461   3.355   7.249   2.070  1.0561  1.6889  0.9621
  766SOL    HW2 3462   3.399   7.248   2.215 -0.8263 -2.0538  1.6399
  767SOL     OW 3463   6.555   4.247   2.674 -0.0629 -0.1442 -0.0419
  767SOL    HW1 3464   6.485   4.273   2.734 -0.7962 -2.9845  0.4832
  767SOL    HW2 3465   6.635   4.284   2.712 -0.9862  1.2949  0.5639
  768SOL     OW 3466   5.893   3.482   8.016 -0.0461 -0.4843 -0.1436
  768SOL    HW1 3467   5.953   3.555   7.997 -0.7390  0.1664  0.1026
  768SOL    HW2 3468   5.937   3.405   7.982  0.0579  0.2560 -1.7783
  769SOL     OW 3469   5.517   5.249   2.825  0.4695  0.1125 -0.6135
  769SOL    HW1 3470   5.424   5.250   2.802  0.5019  1.7381 -0.8078
  769SOL    HW2 3471   5.524   5.182   2.893 -1.1358  0.9504  0.4538
  770SOL     OW 3472   6.941   3.444   7.484 -0.0062  0.3298 -0.3824
  770SOL    HW1 3473   7.007   3.498   7.527 -0.2271  0.2433  0.0645
  770SOL    HW2 3474   6.986   3.362   7.464 -0.0224  0.2121  0.0627
  771SOL     OW 3475   0.758   2.186   0.552 -0.2704 -0.4363  0.2623
  771SOL    HW1 3476   0.834   2.241   0.571 -1.3332  0.6147  1.7356
  771SOL    HW2 3477   0.795   2.100   0.533  1.4750  0.7367 -2.2635
  772SOL     OW 3478   7.048   2.844   6.388  0.1091  0.0908 -0.0447
  772SOL    HW1 3479   6.971   2.841   6.445 -0.2994  0.0153 -0.5805
  772SOL    HW2 3480   7.019   2.895   6.312  0.9199  0.9454  0.2130
  773SOL     OW 3481   5.414   0.068   5.252  0.2676  0.1048 -0.2089
  773SOL    HW1 3482   5.430  -0.026   5.241  0.1421  0.0223  0.2948
  773SOL    HW2 3483   5.390   0.099   5.165  1.0556 -0.1856 -0.5393
  774SOL     OW 3484   5.859   3.075   8.720 -0.2275  0.1762  0.5163
  774SOL    HW1 3485   5.880   2.987   8.749  0.3211  0.8177  2.2096
  774SOL    HW2 3486   5.804   3.111   8.790 -1.1403  0.9075 -0.5374
  775SOL     OW 3487   0.011   6.219   2.819  0.3627 -0.0793  0.8001
  775SOL    HW1 3488  -0.034   6.247   2.739 -0.2524  0.0864  1.2009
  775SOL    HW2 3489   0.018   6.124   2.810  1.0058  0.0148  0.1902
  776SOL     OW 3490   8.767   0.059   4.382  0.3621  0.1571  0.6415
  776SOL    HW1 3491   8.837   0.002   4.411 -0.5155 -2.3013 -1.6195
  776SOL    HW2 3492   8.806   0.111   4.312  0.2324 -0.4345  0.1205
  777SOL     OW 3493   1.676   3.676   5.843  0.3897 -0.7830  0.2806
  777SOL    HW1 3494   1.612   3.608   5.822 -1.0253  0.3708  0.6859
  777SOL    HW2 3495   1.719   3.645   5.923  0.1744 -1.4632  0.1389
  778SOL     OW 3496   7.583   2.906   7.849  0.0914  0.0395 -0.2314
  778SOL    HW1 3497   7.547   2.818   7.860  0.9815 -0.1201  1.9704
  778SOL    HW2 3498   7.628   2.923   7.931  2.5111  1.3821 -1.7160
  779SOL     OW 3499   6.236   5.596   5.688  0.2654  0.0504  0.1124
  779SOL    HW1 3500   6.307   5.573   5.628  0.4842  0.9110  0.0286
  779SOL    HW2 3501   6.237   5.528   5.754  1.4037  0.2392  0.3132
  780SOL     OW 3502   7.760   5.087   7.647 -0.3759  0.0911  0.7925
  780SOL    HW1 3503   7.665   5.084   7.653 -0.2796 -1.7026  2.5437
  780SOL    HW2 3504   7.784   5.006   7.602  0.3181  1.1614 -0.8832
  781SOL     OW 3505   2.416   2.767   3.554 -0.5789 -0.0541 -0.6021
  781SOL    HW1 3506   2.490   2.803   3.603 -0.9113  0.2629 -0.3251
  781SOL    HW2 3507   2.417   2.673   3.575  0.9866 -0.4539 -2.2389
  782SOL     OW 3508   4.001   5.635   2.940 -0.0263 -0.4465  0.1247
  782SOL    HW1 3509   4.027   5.662   3.028 -1.2816 -0.0712  0.4122
  782SOL    HW2 3510   4.040   5.699   2.882  1.0475 -0.8606  0.3745
  783SOL     OW 3511   5.892   6.282   0.289 -0.1552  0.2187 -0.1916
  783SOL    HW1 3512   5.953   6.350   0.260 -0.1167  0.4598  0.4385
  783SOL    HW2 3513   5.845   6.256   0.210 -1.4672  2.2696 -0.1402
  784SOL     OW 3514   6.879   4.822   8.334  0.4819 -0.4410  0.3235
  784SOL    HW1 3515   6.953   4.873   8.364  1.0271 -2.0192  1.8619
  784SOL    HW2 3516   6.902   4.795   8.246 -0.2199  2.5788 -0.9022
  785SOL     OW 3517   1.473   2.266   1.284  0.1977 -0.1911  0.1365
  785SOL    HW1 3518   1.559   2.292   1.254 -0.2554 -0.3775 -1.3884
  785SOL    HW2 3519   1.441   2.342   1.334 -1.0501  2.4310 -4.0711
  786SOL     OW 3520   2.937   3.681   0.311 -0.6848  0.0824  0.4799
  786SOL    HW1 3521   2.922   3.773   0.289  0.1174  0.2633  0.6358
  786SOL    HW2 3522   2.890   3.632   0.244  1.0191  0.6184 -1.2118
  787SOL     OW 3523   2.282   0.129   8.129 -0.6247  0.2175 -0.3861
  787SOL    HW1 3524   2.322   0.052   8.171 -0.5477  0.7857  0.6045
  787SOL    HW2 3525   2.210   0.093   8.077 -0.8719 -0.4832  0.4164
  788SOL     OW 3526   4.012   0.162   5.527  0.0403 -0.5593  0.1873
  788SOL    HW1 3527   3.937   0.118   5.487 -0.2325  0.0884 -0.0175
  788SOL    HW2 3528   3.979   0.196   5.610 -0.8474  2.5661 -1.3200
  789SOL     OW 3529   3.360   6.872   0.956  0.8194 -0.5026  0.1787
  789SOL    HW1 3530   3.324   6.946   1.006  1.3026 -0.8219  1.0252
  789SOL    HW2 3531   3.285   6.831   0.915  0.4109 -0.2218  0.6404
  790SOL     OW 3532   1.646   0.096   6.621 -0.1281  0.4274  0.7821
  790SOL    HW1 3533   1.699   0.085   6.542  0.7979  0.0832  1.4295
  790SOL    HW2 3534   1.573   0.152   6.594  0.0363  0.1037 -0.3700
  791SOL     OW 3535   2.229   1.965   5.202 -0.4158 -0.5058  0.4284
  791SOL    HW1 3536   2.177   2.029   5.153  2.4888  0.9938 -0.9528
  791SOL    HW2 3537   2.165   1.915   5.252 -3.1709  0.8974 -1.4597
  792SOL     OW 3538   4.204   4.641   8.254  0.0869  0.0778 -0.3502
  792SOL    HW1 3539   4.139   4.631   8.184 -0.4324 -1.9119  0.3341
  792SOL    HW2 3540   4.282   4.596   8.222 -0.0026 -0.4458  0.1376
  793SOL     OW 3541   6.562   5.683   0.518  0.4111 -0.0841 -0.0691
  793SOL    HW1 3542   6.587   5.602   0.474  0.2474 -0.4485  0.4965
  793SOL    HW2 3543   6.563   5.749   0.449 -2.0304 -1.0440 -1.1300
  794SOL     OW 3544   2.575   0.249   4.960 -0.4401 -0.7333  0.1498
  794SOL    HW1 3545   2.587   0.339   4.931 -2.9758  0.0015  1.1868
  794SOL    HW2 3546   2.654   0.230   5.012  0.3245  0.7086 -0.4159
  795SOL     OW 3547   0.286   5.690   5.846  0.1066 -0.5270  0.1497
  795SOL    HW1 3548   0.308   5.626   5.778  2.6337 -1.5832  1.8172
  795SOL    HW2 3549   0.243   5.639   5.914  0.9005 -0.2338  0.8945
  796SOL     OW 3550   6.657   2.029   6.456 -0.2481 -0.0952  0.0864
  796SOL    HW1 3551   6.605   1.973   6.514 -1.0982 -0.6061 -1.1309
  796SOL    HW2 3552   6.688   2.100   6.513 -0.0177 -1.2302  1.4332
  797SOL     OW 3553   1.545   4.240   7.776  0.0237 -0.1435 -0.1771
  797SOL    HW1 3554   1.516   4.172   7.836 -1.2332 -0.3421 -0.9645
  797SOL    HW2 3555   1.581   4.193   7.701 -0.5234  0.0443 -0.5684
  798SOL     OW 3556   1.898   3.294   4.390 -0.3305 -0.0601 -0.1713
  798SOL    HW1 3557   1.951   3.286   4.470 -0.0500 -0.3115 -0.3801
  798SOL    HW2 3558   1.962   3.295   4.319 -0.5621  0.5101 -0.3749
  799SOL     OW 3559   3.729   1.105   5.339 -0.5676  0.4662 -0.5247
  799SOL    HW1 3560   3.798   1.047   5.371 -0.5057  1.3004  0.9686
  799SOL    HW2 3561   3.675   1.049   5.283  0.6330 -0.4996 -0.7625
  800SOL     OW 3562   5.545   5.128   6.534  0.6980  0.0218 -0.2045
  800SOL    HW1 3563   5.473   5.185   6.562  1.2596  1.1823 -1.0608
  800SOL    HW2 3564   5.566   5.076   6.612  0.3501  1.1678  0.6769
  801SOL     OW 3565   6.664   0.404   4.307  0.3809 -0.3283 -0.1538
  801SOL    HW1 3566   6.643   0.438   4.220  2.9150 -0.8606 -1.0599
  801SOL    HW2 3567   6.739   0.457   4.337  0.5963 -1.2170  0.9837
  802SOL     OW 3568   4.867   8.543   4.090 -0.1863  0.0332 -0.0621
  802SOL    HW1 3569   4.887   8.619   4.035 -0.0228 -0.3749 -0.5638
  802SOL    HW2 3570   4.778   8.560   4.122  0.2015  0.8962  0.6060
  803SOL     OW 3571   7.861   3.596   0.275 -0.0400  0.2967  0.3422
  803SOL    HW1 3572   7.790   3.624   0.218 -0.7124 -2.7168 -0.5140
  803SOL    HW2 3573   7.931   3.570   0.215  2.0132  3.3948  1.1696
  804SOL     OW 3574   5.146   4.905   5.841 -0.7966 -0.3803  0.4038
  804SOL    HW1 3575   5.219   4.965   5.857 -2.2625  2.2173 -1.7767
  804SOL    HW2 3576   5.179   4.845   5.774 -0.0954 -0.4877  0.8272
  805SOL     OW 3577   7.866   4.857   0.869  0.5263  0.1051 -0.3133
  805SOL    HW1 3578   7.779   4.868   0.831  0.3287 -1.6248 -0.4524
  805SOL    HW2 3579   7.849   4.847   0.963  0.6542  0.5387 -0.2427
  806SOL     OW 3580   1.248   8.332   0.980 -0.4764 -0.3404 -0.9070
  806SOL    HW1 3581   1.292   8.257   0.940  0.2944 -0.0340 -0.6553
  806SOL    HW2 3582   1.255   8.316   1.074  0.9049  0.7033 -0.8052
  807SOL     OW 3583   1.186   0.679   6.881 -0.3206  0.2509 -0.1120
  807SOL    HW1 3584   1.164   0.587   6.895  0.5122  0.1329  0.5016
  807SOL    HW2 3585   1.279   0.679   6.857 -0.1944  0.9538  0.3157
  808SOL     OW 3586   5.610   5.718   5.291 -0.0771 -0.7299  0.5872
  808SOL    HW1 3587   5.539   5.654   5.287 -1.2453  0.5106  0.6972
  808SOL    HW2 3588   5.672   5.690   5.223 -2.6539  0.4116 -2.4864
  809SOL     OW 3589   3.133   1.137   5.800 -0.5793  0.3551 -0.2010
  809SOL    HW1 3590   3.225   1.127   5.825 -0.8319  1.2025  1.1521
  809SOL    HW2 3591   3.091   1.057   5.832 -0.1850 -0.4554 -1.6209
  810SOL     OW 3592   2.652   8.355   5.112  0.1315 -0.3868 -0.0328
  810SOL    HW1 3593   2.710   8.347   5.187  0.3529 -0.8696 -0.2507
  810SOL    HW2 3594   2.574   8.304   5.136 -1.1248  1.8754  1.1027
  811SOL     OW 3595   0.981   1.763   7.015  0.4988  0.2846 -0.5614
  811SOL    HW1 3596   0.896   1.781   6.975  0.5328 -0.5586 -1.0233
  811SOL    HW2 3597   1.002   1.844   7.062 -0.7477  0.3625 -0.0898
  812SOL     OW 3598   0.578   7.723   6.523 -0.1433  0.5122  0.5289
  812SOL    HW1 3599   0.616   7.725   6.611  0.0699 -1.0579  0.5057
  812SOL    HW2 3600   0.551   7.813   6.506  0.9796  1.0912  1.6864
  813SOL     OW 3601   4.662   4.773   0.644 -0.1120  0.3674  0.2815
  813SOL    HW1 3602   4.629   4.808   0.561  0.6989  1.3261  0.3392
  813SOL    HW2 3603   4.699   4.688   0.621 -3.8246 -1.4987  0.4678
  814SOL     OW 3604   5.938   4.352   2.420 -0.1585  0.0336 -0.3342
  814SOL    HW1 3605   5.900   4.439   2.403 -2.4583 -1.0091 -0.9729
  814SOL    HW2 3606   5.893   4.322   2.499 -0.6850 -1.2477 -1.0977
  815SOL     OW 3607   0.027   5.892   0.748  0.2254 -0.4866  0.3122
  815SOL    HW1 3608   0.082   5.889   0.827 -0.0102  0.1277  0.5092
  815SOL    HW2 3609  -0.000   5.984   0.742  0.0910 -0.5692 -0.3853
  816SOL     OW 3610   5.691   5.482   3.126 -0.1017  0.7632 -0.1784
  816SOL    HW1 3611   5.734   5.565   3.146 -0.5252  1.0152 -0.3052
  816SOL    HW2 3612   5.762   5.419   3.121  0.4337  1.4710 -2.0227
  817SOL     OW 3613   8.535   8.697   1.685 -0.0947  0.6320 -0.3332
  817SOL    HW1 3614   8.560   8.768   1.626  0.8678  0.1573 -0.5207
  817SOL    HW2 3615   8.588   8.712   1.763 -0.5292  0.6125 -0.0334
  818SOL     OW 3616   4.482   6.832   3.259 -0.0379  0.2448  0.4753
  818SOL    HW1 3617   4.503   6.876   3.342  0.5498  0.8564  0.0141
  818SOL    HW2 3618   4.387   6.818   3.263 -0.0394  0.4068  1.1829
  819SOL     OW 3619   7.586   6.642   2.339 -0.3051 -0.4360  0.0539
  819SOL    HW1 3620   7.504   6.676   2.376 -0.5237 -0.9549  0.0574
  819SOL    HW2 3621   7.585   6.673   2.249 -0.4278 -0.3015  0.1000
  820SOL     OW 3622   0.258   3.165   4.055  0.3526 -0.0488 -0.9099
  820SOL    HW1 3623   0.286   3.235   4.115 -2.1209 -1.7812  2.6119
  820SOL    HW2 3624   0.224   3.212   3.979  0.5921  2.5320  0.4426
  821SOL     OW 3625   6.187   0.066   2.840 -0.1577 -0.9281  0.7811
  821SOL    HW1 3626   6.278   0.085   2.861  0.1462  1.3256 -2.0137
  821SOL    HW2 3627   6.188  -0.024   2.808  1.5214 -0.3612 -0.9651
  822SOL     OW 3628   5.270   4.505   4.195 -0.0123  0.8182 -0.6032
  822SOL    HW1 3629   5.255   4.413   4.216 -0.2634  0.8126 -0.8002
  822SOL    HW2 3630   5.221   4.554   4.262  2.4542  0.8723  1.3317
  823SOL     OW 3631   0.740   4.720   6.900 -0.5367 -0.3315 -0.3571
  823SOL    HW1 3632   0.682   4.721   6.976 -2.3979  0.1760 -1.7059
  823SOL    HW2 3633   0.776   4.631   6.898 -0.6561 -0.4295  0.9458
  824SOL     OW 3634   1.831   6.304   7.785 -0.2077  0.0389  0.9726
  824SOL    HW1 3635   1.754   6.247   7.789 -0.2828  0.1440  1.0256
  824SOL    HW2 3636   1.903   6.249   7.817  0.2809 -0.9575 -1.5478
  825SOL     OW 3637   8.427   3.624   1.640  0.1381 -0.3631 -0.2974
  825SOL    HW1 3638   8.403   3.539   1.603 -0.4024  0.0240 -0.8583
  825SOL    HW2 3639   8.469   3.603   1.723 -2.4451 -1.0769  0.9099
  826SOL     OW 3640   7.330   8.762   3.735  0.0198  0.0927 -0.6557
  826SOL    HW1 3641   7.338   8.761   3.640  1.1092  0.2747 -0.5857
  826SOL    HW2 3642   7.417   8.737   3.767 -0.2910  0.1551  0.2942
  827SOL     OW 3643   4.614   7.820   3.458 -0.3764  0.5063  0.0160
  827SOL    HW1 3644   4.605   7.733   3.497  0.8726  0.1412 -0.4592
  827SOL    HW2 3645   4.528   7.860   3.468 -1.1241 -0.9735 -0.2358
  828SOL     OW 3646   3.907   6.990   8.591  0.4269 -0.7444 -0.6107
  828SOL    HW1 3647   3.990   6.992   8.543  0.4136  0.0261 -0.6125
  828SOL    HW2 3648   3.863   7.070   8.565  1.5560  1.1447  2.6870
  829SOL     OW 3649   5.114   7.746   7.052 -0.6296 -0.3996  0.4559
  829SOL    HW1 3650   5.136   7.835   7.024 -0.8761 -0.4773  0.0138
  829SOL    HW2 3651   5.019   7.739   7.040 -0.4604 -1.0900 -0.5772
  830SOL     OW 3652   5.082   3.923   4.413  0.1870 -0.1514  0.1470
  830SOL    HW1 3653   5.076   3.892   4.503  3.1233 -0.0226  0.4805
  830SOL    HW2 3654   5.155   3.985   4.413  2.1330 -2.1644 -2.7724
  831SOL     OW 3655   1.006   0.393   0.073 -0.3224  0.3786  0.3360
  831SOL    HW1 3656   0.916   0.424   0.066 -0.8659 -1.2775 -0.7166
  831SOL    HW2 3657   1.011   0.320   0.012  0.9430 -1.3176  2.3007
  832SOL     OW 3658   6.891   1.785   5.604  0.3315 -0.1246  0.3138
  832SOL    HW1 3659   6.903   1.756   5.694  0.3349 -0.0895  0.3246
  832SOL    HW2 3660   6.900   1.706   5.551  0.9919 -0.0347  0.2901
  833SOL     OW 3661   0.914   7.746   3.861  0.6013 -0.0739 -0.0452
  833SOL    HW1 3662   0.824   7.714   3.871  0.8237 -0.3985  1.0260
  833SOL    HW2 3663   0.926   7.754   3.767 -0.1040 -1.3139 -0.2574
  834SOL     OW 3664   7.880   4.639   7.303  0.2047  0.1489 -0.6461
  834SOL    HW1 3665   7.801   4.616   7.352  0.5515 -1.0721 -0.6192
  834SOL    HW2 3666   7.848   4.664   7.216 -0.3651  1.7725 -0.0041
  835SOL     OW 3667   0.571   7.276   8.809 -0.0282  0.3367 -0.2154
  835SOL    HW1 3668   0.528   7.338   8.750 -2.0473 -1.4940 -0.8267
  835SOL    HW2 3669   0.589   7.326   8.888 -1.1811  1.8105 -0.8393
  836SOL     OW 3670   1.875   1.440   0.057 -0.7030  0.5769 -0.4693
  836SOL    HW1 3671   1.939   1.380   0.020 -0.0456  1.1530 -0.2776
  836SOL    HW2 3672   1.796   1.425   0.004 -0.8367 -1.0570  0.1140
  837SOL     OW 3673   5.729   4.894   5.355 -0.2655  0.1544 -0.5543
  837SOL    HW1 3674   5.763   4.805   5.357  0.4724  0.4393 -0.2582
  837SOL    HW2 3675   5.781   4.942   5.419 -2.4143  0.1831  1.2927
  838SOL     OW 3676   7.929   2.665   0.533  0.3895  0.5365 -0.5871
  838SOL    HW1 3677   7.900   2.681   0.443 -1.8219  2.2827  0.3664
  838SOL    HW2 3678   8.009   2.716   0.541  0.8843 -0.0196 -1.6733
  839SOL     OW 3679   7.681   6.383   2.356  0.3951  0.2146  0.1483
  839SOL    HW1 3680   7.625   6.456   2.381  0.0694  0.4641 -1.2497
  839SOL    HW2 3681   7.634   6.305   2.387 -0.2244  0.4858 -0.0950
  840SOL     OW 3682   8.494   5.545   6.744 -0.2320  0.0352 -0.0541
  840SOL    HW1 3683   8.462   5.590   6.665  0.9458  1.2876  0.1533
  840SOL    HW2 3684   8.522   5.615   6.802 -1.0327 -0.8746  1.4935
  841SOL     OW 3685   2.066   0.680   7.798 -0.7434 -0.7168 -0.9943
  841SOL    HW1 3686   2.052   0.733   7.720  0.8912 -0.7252 -1.3251
  841SOL    HW2 3687   2.056   0.589   7.768 -1.4726 -0.6773 -0.8838
  842SOL     OW 3688   1.267   4.277   3.426 -0.0947 -0.1355 -0.2262
  842SOL    HW1 3689   1.222   4.208   3.475 -0.1333  0.4871  0.6505
  842SOL    HW2 3690   1.251   4.357   3.477 -0.4263  0.6105 -1.4530
  843SOL     OW 3691   1.784   8.202   4.128 -0.1682 -0.1596  0.6774
  843SOL    HW1 3692   1.843   8.161   4.192  0.7355 -0.4683 -0.3262
  843SOL    HW2 3693   1.822   8.288   4.112 -1.0629  0.3915  1.4339
  844SOL     OW 3694   1.446   5.232   0.078 -0.4339  0.0794  0.4166
  844SOL    HW1 3695   1.443   5.142   0.047 -0.1938  1.0810 -2.9480
  844SOL    HW2 3696   1.396   5.282   0.012  0.7182  2.5746  1.2974
  845SOL     OW 3697   5.434   6.946   4.544  0.4433 -0.2203 -0.3076
  845SOL    HW1 3698   5.447   6.985   4.457  3.3105 -0.2416 -0.0046
  845SOL    HW2 3699   5.399   6.859   4.526 -1.7423  0.7902 -1.2378
  846SOL     OW 3700   0.650   1.951   7.230  0.0309 -0.1282  0.0042
  846SOL    HW1 3701   0.731   1.981   7.188  2.0143 -3.7374  0.8278
  846SOL    HW2 3702   0.671   1.952   7.324 -1.1923 -0.4248  0.2900
  847SOL     OW 3703   5.299   7.289   7.995  0.3036 -0.1938 -0.2716
  847SOL    HW1 3704   5.271   7.310   7.906 -1.0890  1.4157  0.4893
  847SOL    HW2 3705   5.310   7.194   7.995 -0.0138 -0.2573 -2.0698
  848SOL     OW 3706   4.038   4.148   4.947 -0.4772  0.0619 -0.2747
  848SOL    HW1 3707   4.051   4.241   4.968  0.4672  0.5346 -2.6781
  848SOL    HW2 3708   4.126   4.116   4.926 -0.6831 -1.6086  1.1821
  849SOL     OW 3709   2.893   8.229   7.137 -0.3032 -0.6400 -0.7455
  849SOL    HW1 3710   2.843   8.293   7.187  2.0188 -0.3495  1.4164
  849SOL    HW2 3711   2.858   8.234   7.049 -1.4257  2.3053 -0.2424
  850SOL     OW 3712   6.915   5.872   2.049  0.4114 -0.3877  0.3092
  850SOL    HW1 3713   6.823   5.882   2.072  0.0130  1.1483 -1.7343
  850SOL    HW2 3714   6.924   5.780   2.022 -0.9278 -0.1294 -1.0879
  851SOL     OW 3715   0.197   8.731   4.207 -0.6227 -0.2587 -0.1029
  851SOL    HW1 3716   0.153   8.733   4.292 -1.2416  2.6556 -0.3942
  851SOL    HW2 3717   0.158   8.804   4.158  1.1368 -0.5970 -2.1542
  852SOL     OW 3718   3.704   0.106   8.309 -0.6466  0.1775 -1.1192
  852SOL    HW1 3719   3.734   0.022   8.343 -0.6613  0.7130  0.2636
  852SOL    HW2 3720   3.695   0.092   8.214 -1.6392 -1.6747 -0.7921
  853SOL     OW 3721   5.362   4.113   6.996 -0.1397  0.1616 -0.9323
  853SOL    HW1 3722   5.385   4.200   7.029 -0.0985  0.1085 -0.8227
  853SOL    HW2 3723   5.392   4.115   6.905  0.9846 -0.1617 -0.5866
  854SOL     OW 3724   5.596   8.325   5.986  0.1329  0.1810  0.2425
  854SOL    HW1 3725   5.604   8.415   5.954 -0.7618  0.3754  0.5539
  854SOL    HW2 3726   5.676   8.311   6.037  0.6843  0.4962 -0.5059
  855SOL     OW 3727   2.863   5.541   7.358 -0.0954 -0.3652 -0.7253
  855SOL    HW1 3728   2.915   5.503   7.429 -1.0833 -0.0651  0.1794
  855SOL    HW2 3729   2.810   5.468   7.325 -0.6298 -0.1953 -0.2416
  856SOL     OW 3730   6.692   0.864   5.209  0.2627 -0.2290  0.1958
  856SOL    HW1 3731   6.608   0.820   5.221  1.0662 -1.4558  1.5775
  856SOL    HW2 3732   6.718   0.842   5.119 -1.0295  0.4630 -0.3735
  857SOL     OW 3733   5.324   0.861   3.106 -0.0070 -0.2838  0.0362
  857SOL    HW1 3734   5.370   0.804   3.044 -0.4085 -1.0581  0.4444
  857SOL    HW2 3735   5.392   0.921   3.138  0.4953 -0.7570 -0.1317
  858SOL     OW 3736   7.928   5.677   0.809 -0.2521  0.3840 -0.3170
  858SOL    HW1 3737   7.847   5.724   0.790 -0.5604  0.5121  1.2192
  858SOL    HW2 3738   7.952   5.705   0.897  1.5214  0.4160 -0.7654
  859SOL     OW 3739   4.608   0.258   1.722  0.3173  0.0439 -0.0901
  859SOL    HW1 3740   4.563   0.338   1.695 -0.5189 -0.3114  0.2062
  859SOL    HW2 3741   4.565   0.233   1.804 -0.2241 -1.3331 -0.7656
  860SOL     OW 3742   7.343   7.111   0.781  0.9018  0.0511  0.4508
  860SOL    HW1 3743   7.413   7.107   0.846 -0.7800 -0.8918  2.3398
  860SOL    HW2 3744   7.361   7.191   0.731  2.8529  0.2612  1.3963
  861SOL     OW 3745   3.076   3.455   5.697 -0.3117  0.5153 -0.2891
  861SOL    HW1 3746   3.016   3.390   5.732 -0.5494  1.6265  1.5015
  861SOL    HW2 3747   3.073   3.527   5.760 -0.0609  2.2808 -2.1848
  862SOL     OW 3748   1.156   4.635   6.641 -0.9651 -0.3024 -0.4387
  862SOL    HW1 3749   1.188   4.549   6.613 -0.9728 -0.2908 -0.4824
  862SOL    HW2 3750   1.218   4.661   6.710 -0.5164 -0.0115 -0.9411
  863SOL     OW 3751   1.009   5.622   1.731 -0.1484 -0.7376  0.0114
  863SOL    HW1 3752   1.070   5.604   1.660 -1.8123 -1.6236 -1.2622
  863SOL    HW2 3753   1.019   5.548   1.791 -0.4747 -1.2806 -0.5864
  864SOL     OW 3754   3.738   3.277   7.560  0.5238 -0.1536  0.3823
  864SOL    HW1 3755   3.679   3.239   7.625  2.2912 -0.7116  1.7548
  864SOL    HW2 3756   3.766   3.360   7.599 -1.0512  1.2549 -1.2920
  865SOL     OW 3757   8.258   7.081   7.029 -0.1371 -0.1940 -0.7129
  865SOL    HW1 3758   8.353   7.071   7.018 -0.1147 -0.4892 -0.2661
  865SOL    HW2 3759   8.232   7.004   7.080 -0.8028 -0.7268 -1.8212
  866SOL     OW 3760   6.299   8.531   7.976 -0.3755 -0.5087 -0.0276
  866SOL    HW1 3761   6.259   8.595   7.917 -0.7306 -0.8068 -0.1192
  866SOL    HW2 3762   6.242   8.454   7.969  0.7863 -1.3256 -0.9579
  867SOL     OW 3763   0.477   6.762   2.875  0.4574 -0.2382 -0.3694
  867SOL    HW1 3764   0.511   6.839   2.920 -0.1328 -0.0660 -0.2121
  867SOL    HW2 3765   0.494   6.779   2.782  2.0183 -0.7633 -0.2143
  868SOL     OW 3766   7.940   8.426   3.534 -0.3944 -0.1645  0.0135
  868SOL    HW1 3767   7.959   8.358   3.598 -1.7755  0.2459  0.9050
  868SOL    HW2 3768   7.847   8.445   3.546  0.1751  2.7751  0.7100
  869SOL     OW 3769   7.211   4.849   2.656  0.6245  0.3486  0.2398
  869SOL    HW1 3770   7.157   4.878   2.729  0.3945  0.3585  0.0706
  869SOL    HW2 3771   7.156   4.865   2.578 -0.2937 -2.1548  0.2470
  870SOL     OW 3772   1.117   2.339   6.799 -0.4137 -0.1684 -0.1239
  870SOL    HW1 3773   1.155   2.320   6.885 -1.1646 -0.5262  0.1327
  870SOL    HW2 3774   1.043   2.397   6.818  0.5479  1.3007 -0.7080
  871SOL     OW 3775   2.207   8.709   7.414  0.2100 -0.4699  0.0295
  871SOL    HW1 3776   2.132   8.691   7.357 -0.0296  1.3819 -0.3191
  871SOL    HW2 3777   2.181   8.675   7.500 -0.5954 -0.7759 -0.3267
  872SOL     OW 3778   4.818   8.366   3.898  0.5386 -0.6757 -0.2342
  872SOL    HW1 3779   4.874   8.399   3.827  0.7970  1.0200  0.7058
  872SOL    HW2 3780   4.842   8.419   3.974 -2.4505  0.2457  0.1856
  873SOL     OW 3781   7.470   1.390   1.620  0.1916  0.3760  0.4543
  873SOL    HW1 3782   7.437   1.353   1.702  0.0854  0.3617  0.4061
  873SOL    HW2 3783   7.431   1.335   1.552  0.4907  0.2258  0.4033
  874SOL     OW 3784   4.822   1.867   6.246 -0.0546  0.2312 -0.4186
  874SOL    HW1 3785   4.829   1.773   6.266 -0.0270 -0.0040 -1.4289
  874SOL    HW2 3786   4.890   1.908   6.299 -0.2357 -0.2905  0.2335
  875SOL     OW 3787   5.634   5.999   4.781  0.3375 -0.8091 -0.0103
  875SOL    HW1 3788   5.615   6.079   4.831  1.0197 -0.8133  0.2671
  875SOL    HW2 3789   5.623   6.025   4.689  2.0207  0.0202 -0.0047
  876SOL     OW 3790   7.611   4.494   2.218 -0.6484  0.4481 -0.2740
  876SOL    HW1 3791   7.526   4.474   2.257 -0.0465 -0.9498  0.3832
  876SOL    HW2 3792   7.662   4.531   2.290 -0.7943  1.6410 -0.7583
  877SOL     OW 3793   7.270   2.968   4.328 -0.0026 -0.1150  0.0547
  877SOL    HW1 3794   7.352   2.931   4.361 -0.4628 -1.9144 -0.6704
  877SOL    HW2 3795   7.295   3.050   4.286  1.7415 -1.4281 -1.6511
  878SOL     OW 3796   8.700   5.240   1.260 -0.4147 -0.2618  0.0991
  878SOL    HW1 3797   8.627   5.193   1.300 -0.4680  0.5434  0.9472
  878SOL    HW2 3798   8.661   5.317   1.220  0.1884  1.2220  2.2373
  879SOL     OW 3799   0.881   3.860   6.293 -0.1202 -0.1604 -0.0534
  879SOL    HW1 3800   0.821   3.787   6.280 -0.7747  0.0783  1.4116
  879SOL    HW2 3801   0.849   3.903   6.372  2.4559 -0.4999  1.2719
  880SOL     OW 3802   8.200   5.881   1.385  0.1832  0.8863 -0.1808
  880SOL    HW1 3803   8.243   5.869   1.470 -0.9955 -0.1402  0.3226
  880SOL    HW2 3804   8.244   5.955   1.345  2.1230  0.1397  0.4561
  881SOL     OW 3805   4.797   3.943   7.316  0.5422  0.3775 -0.1625
  881SOL    HW1 3806   4.856   3.921   7.244 -1.9888 -1.0791 -1.9644
  881SOL    HW2 3807   4.758   3.860   7.341  0.6287  1.0054  2.3320
  882SOL     OW 3808   5.276   6.311   8.235  0.2623  0.0638  1.1309
  882SOL    HW1 3809   5.295   6.250   8.164 -3.0910  1.5011 -1.2962
  882SOL    HW2 3810   5.339   6.382   8.223 -1.6614  1.4499 -2.1991
  883SOL     OW 3811   4.947   8.508   0.671 -0.2223  0.1766  0.0322
  883SOL    HW1 3812   4.871   8.565   0.679  0.7098  1.4423  0.0014
  883SOL    HW2 3813   4.993   8.540   0.593 -0.3989 -1.4810 -0.7997
  884SOL     OW 3814   6.027   8.552   1.811  0.1371  0.2276 -0.0878
  884SOL    HW1 3815   6.078   8.476   1.838  0.5103  0.3651 -0.3914
  884SOL    HW2 3816   6.007   8.598   1.892  0.4366  0.1334  0.0387
  885SOL     OW 3817   2.688   4.615   2.381 -0.2719  0.7149 -0.5282
  885SOL    HW1 3818   2.695   4.532   2.334 -1.3018 -0.2151  0.8753
  885SOL    HW2 3819   2.602   4.649   2.357 -1.8183 -0.8837  2.2711
  886SOL     OW 3820   5.040   8.768   2.200  0.1333 -0.4393  0.0714
  886SOL    HW1 3821   5.023   8.841   2.141 -1.3366 -0.2426  0.6985
  886SOL    HW2 3822   5.033   8.806   2.288 -0.3720 -1.2554  0.3986
  887SOL     OW 3823   1.515   3.734   7.147  0.0715 -0.7238  0.5439
  887SOL    HW1 3824   1.582   3.714   7.082 -0.6168  0.5546 -0.6164
  887SOL    HW2 3825   1.563   3.757   7.226  0.9644 -0.8651  0.0505
  888SOL     OW 3826   2.782   4.809   0.354 -0.4023  0.7346 -0.0369
  888SOL    HW1 3827   2.807   4.740   0.416 -0.1232  0.0472 -0.9014
  888SOL    HW2 3828   2.726   4.765   0.290  0.0984  1.2227 -0.8191
  889SOL     OW 3829   2.406   1.068   4.562  0.0219 -0.3746 -0.0709
  889SOL    HW1 3830   2.444   1.155   4.579  0.4042 -0.2414 -1.4776
  889SOL    HW2 3831   2.360   1.078   4.478 -1.8641 -0.9522  0.8446
  890SOL     OW 3832   4.137   6.120   6.701  0.0454 -0.6349 -0.2015
  890SOL    HW1 3833   4.208   6.178   6.728 -0.6892  0.5213 -0.6845
  890SOL    HW2 3834   4.058   6.172   6.712 -0.6489 -1.5906 -0.5374
  891SOL     OW 3835   7.340   1.035   1.986 -0.2926 -0.0882 -0.3462
  891SOL    HW1 3836   7.300   1.075   2.063 -0.0757 -1.8047  0.7387
  891SOL    HW2 3837   7.270   0.985   1.945  0.0052 -0.6609 -0.1793
  892SOL     OW 3838   4.351   6.008   1.530 -0.4561 -0.0589 -0.2741
  892SOL    HW1 3839   4.372   5.953   1.454 -0.9751 -1.1039  0.3184
  892SOL    HW2 3840   4.424   6.070   1.535  0.1531 -0.6882 -0.9607
  893SOL     OW 3841   8.588   5.450   5.705  0.2047  0.2576 -0.2138
  893SOL    HW1 3842   8.549   5.416   5.786  1.2717  1.1752  0.7067
  893SOL    HW2 3843   8.633   5.374   5.668  1.2722  0.2454  1.0280
  894SOL     OW 3844   3.844   7.444   8.005 -0.0065 -0.6515 -0.1822
  894SOL    HW1 3845   3.867   7.474   7.917  0.2728 -1.7634 -0.4996
  894SOL    HW2 3846   3.890   7.361   8.015 -1.2631 -1.3051  0.4202
  895SOL     OW 3847   2.804   8.384   6.554 -0.1075  0.0467 -0.4386
  895SOL    HW1 3848   2.718   8.347   6.572  0.5989 -0.4520  2.5352
  895SOL    HW2 3849   2.843   8.325   6.490 -1.1660 -1.0038 -0.1465
  896SOL     OW 3850   7.780   6.516   4.042 -0.5170  0.7361 -0.3083
  896SOL    HW1 3851   7.732   6.442   4.079 -0.0076  0.1626 -0.7936
  896SOL    HW2 3852   7.817   6.484   3.960  2.0509  0.6254  0.7757
  897SOL     OW 3853   5.563   4.406   7.961  0.9791  0.2597 -0.4705
  897SOL    HW1 3854   5.553   4.496   7.929  1.8242 -0.7332 -3.9815
  897SOL    HW2 3855   5.655   4.385   7.944  0.9039 -1.1353  0.7109
  898SOL     OW 3856   2.206   4.405   4.780 -0.8147 -0.2893 -0.0655
  898SOL    HW1 3857   2.218   4.349   4.704 -1.2685  0.2806 -0.5739
  898SOL    HW2 3858   2.111   4.410   4.792 -0.9780  2.2738 -1.5416
  899SOL     OW 3859   0.047   6.351   1.496 -0.5148  0.8456  0.9616
  899SOL    HW1 3860   0.085   6.283   1.552 -0.8866  1.1744  1.6240
  899SOL    HW2 3861   0.022   6.304   1.416  0.5972  0.4860  0.7972
  900SOL     OW 3862   3.381   7.592   8.845  0.1406  0.4212  0.6875
  900SOL    HW1 3863   3.357   7.499   8.854 -0.5192  0.3148 -1.6456
  900SOL    HW2 3864   3.319   7.627   8.782  3.4865  1.1368 -2.5723
  901SOL     OW 3865   6.743   5.880   7.042  0.2156  0.3979 -0.4297
  901SOL    HW1 3866   6.722   5.803   7.095 -2.1573  1.2486 -0.0531
  901SOL    HW2 3867   6.685   5.872   6.966 -1.6635  2.8393  0.6293
  902SOL     OW 3868   6.962   4.739   5.931 -0.0406 -0.4410 -0.2202
  902SOL    HW1 3869   6.995   4.776   6.013 -0.1755 -0.1595 -0.2899
  902SOL    HW2 3870   6.883   4.690   5.957 -0.9349  0.8580 -0.3656
  903SOL     OW 3871   8.462   7.818   5.007  0.2830  0.4659 -0.2346
  903SOL    HW1 3872   8.438   7.792   5.096 -1.6242 -0.7691 -1.0389
  903SOL    HW2 3873   8.492   7.909   5.016 -0.6996  0.6724  1.5433
  904SOL     OW 3874   6.148   5.866   6.375  0.3838 -0.0972  0.7973
  904SOL    HW1 3875   6.058   5.885   6.402 -0.2564 -2.5562  0.6009
  904SOL    HW2 3876   6.149   5.884   6.281  0.5643  1.3927  1.0587
  905SOL     OW 3877   0.568   3.141   0.361  0.1917 -0.4695 -0.1246
  905SOL    HW1 3878   0.592   3.231   0.386 -0.4696 -0.0404 -0.9960
  905SOL    HW2 3879   0.650   3.102   0.330  0.2219  0.2830 -1.0398
  906SOL     OW 3880   6.333   1.180   6.938 -0.7261 -0.1024  0.1404
  906SOL    HW1 3881   6.346   1.273   6.922  0.5488 -0.0255  1.3756
  906SOL    HW2 3882   6.421   1.143   6.936 -1.3232 -1.5348 -1.6398
  907SOL     OW 3883   3.434   6.090   1.014  0.2494 -0.2959  0.1553
  907SOL    HW1 3884   3.359   6.053   0.967  0.4235 -1.0934  0.5021
  907SOL    HW2 3885   3.473   6.016   1.060  0.4673  0.3585  1.0521
  908SOL     OW 3886   8.840   0.691   6.300  0.2603 -0.2267 -0.0306
  908SOL    HW1 3887   8.763   0.644   6.266  0.8939 -0.1879 -1.6066
  908SOL    HW2 3888   8.812   0.782   6.305  0.3399 -0.1439 -1.0370
  909SOL     OW 3889   8.519   1.076   4.823 -0.1870 -0.4035 -0.1650
  909SOL    HW1 3890   8.597   1.076   4.766 -0.5766  1.0537 -0.7494
  909SOL    HW2 3891   8.449   1.109   4.767 -0.4626  1.6734  1.2908
  910SOL     OW 3892   7.351   8.163   7.021 -0.5278 -0.2024 -0.4776
  910SOL    HW1 3893   7.374   8.070   7.018 -1.1841 -0.3911  0.0336
  910SOL    HW2 3894   7.402   8.197   7.095  0.3752  0.0485 -1.1934
  911SOL     OW 3895   6.561   1.461   8.295 -0.0864 -0.1546  0.2685
  911SOL    HW1 3896   6.574   1.552   8.323  0.3270  0.1350 -0.8348
  911SOL    HW2 3897   6.617   1.410   8.354  1.6141  0.5449 -0.6591
  912SOL     OW 3898   2.116   3.709   6.472 -0.1966  0.7049  0.4121
  912SOL    HW1 3899   2.041   3.649   6.473 -0.1036  0.5975  0.9317
  912SOL    HW2 3900   2.111   3.751   6.386  0.3409 -0.8092 -0.3929
  913SOL     OW 3901   7.454   3.223   7.719  0.2779  0.0961  0.2382
  913SOL    HW1 3902   7.431   3.139   7.761 -2.3198  0.5441 -0.0891
  913SOL    HW2 3903   7.483   3.199   7.632  0.2183 -0.5206  0.3806
  914SOL     OW 3904   5.878   4.469   1.986 -0.1575  0.5768 -0.4990
  914SOL    HW1 3905   5.964   4.503   2.012  0.4579  0.4092 -2.2048
  914SOL    HW2 3906   5.839   4.538   1.933 -1.0305  0.5934  0.1503
  915SOL     OW 3907   2.446   2.163   5.699 -0.2009  0.1269  0.2928
  915SOL    HW1 3908   2.436   2.153   5.794 -0.1629  0.4909  0.3373
  915SOL    HW2 3909   2.365   2.206   5.671 -1.5297 -2.5268 -0.2729
  916SOL     OW 3910   6.879   8.310   0.268 -0.0733  0.1343 -0.2754
  916SOL    HW1 3911   6.855   8.392   0.224 -1.5696  0.3365  0.8538
  916SOL    HW2 3912   6.818   8.245   0.233 -2.1822  0.5635  2.3383
  917SOL     OW 3913   1.722   3.232   6.315  0.2127  0.0621 -0.0449
  917SOL    HW1 3914   1.679   3.249   6.231  1.5524  1.5522 -0.4825
  917SOL    HW2 3915   1.778   3.309   6.329  2.1743 -1.4441  0.8414
  918SOL     OW 3916   6.584   4.717   6.919  0.1494 -0.0626 -0.6070
  918SOL    HW1 3917   6.563   4.639   6.970  2.6138  0.2195  0.9717
  918SOL    HW2 3918   6.537   4.788   6.963 -1.6813 -0.4775 -1.7476
  919SOL     OW 3919   2.787   0.815   8.576  0.2861  0.2719 -0.1804
  919SOL    HW1 3920   2.871   0.774   8.596  0.7704  1.4081  0.2187
  919SOL    HW2 3921   2.777   0.804   8.481  0.3413 -0.8463 -0.0682
  920SOL     OW 3922   2.117   3.603   2.316  0.1097  0.8315 -0.0838
  920SOL    HW1 3923   2.058   3.622   2.389 -1.5304 -1.1938 -0.8200
  920SOL    HW2 3924   2.128   3.508   2.317  2.1013  0.9918 -0.9718
  921SOL     OW 3925   7.043   5.018   5.458  0.1122  0.1285  0.0017
  921SOL    HW1 3926   7.000   4.997   5.375  3.8030 -0.1260 -2.0981
  921SOL    HW2 3927   7.017   4.948   5.517 -1.8281 -0.2657 -1.2443
  922SOL     OW 3928   0.896   8.212   3.390  0.5966 -0.3672  0.5218
  922SOL    HW1 3929   0.905   8.180   3.479  3.4199  0.1722  0.5294
  922SOL    HW2 3930   0.888   8.133   3.336 -0.7627 -0.7026  1.1922
  923SOL     OW 3931   2.616   4.813   8.584  0.0406  0.5950 -0.0177
  923SOL    HW1 3932   2.638   4.801   8.491 -0.9428  0.0690 -0.1933
  923SOL    HW2 3933   2.697   4.793   8.631 -0.1101 -1.6235 -0.6153
  924SOL     OW 3934   3.435   2.322   1.711  0.1268 -0.3504 -0.3490
  924SOL    HW1 3935   3.503   2.283   1.656  0.4987 -0.0084 -0.1380
  924SOL    HW2 3936   3.482   2.384   1.767 -0.5167  0.7253 -0.9879
  925SOL     OW 3937   5.712   6.245   3.363  0.0392  0.3234 -0.0191
  925SOL    HW1 3938   5.654   6.320   3.352  0.5286  0.5588 -1.0711
  925SOL    HW2 3939   5.685   6.183   3.295 -1.0278 -0.9214  1.4617
  926SOL     OW 3940   8.451   0.547   6.725  0.5737 -0.3700 -0.1745
  926SOL    HW1 3941   8.370   0.597   6.726 -0.8415 -2.4764 -1.3568
  926SOL    HW2 3942   8.488   0.562   6.638  0.6986 -0.5483 -0.1541
  927SOL     OW 3943   2.391   4.124   1.740 -0.2784  0.5719  0.6323
  927SOL    HW1 3944   2.444   4.133   1.661 -0.7271  0.5008  0.3150
  927SOL    HW2 3945   2.454   4.120   1.812  0.1825 -0.3847  0.1876
  928SOL     OW 3946   2.693   3.452   3.263  0.3953 -0.2439 -0.0207
  928SOL    HW1 3947   2.699   3.366   3.306 -0.1628 -0.1361  0.2718
  928SOL    HW2 3948   2.782   3.486   3.266  0.4222 -0.3723  0.7752
  929SOL     OW 3949   0.244   6.082   5.134  0.0568 -0.5035  0.2710
  929SOL    HW1 3950   0.259   6.072   5.228  1.4546 -0.2899  0.0928
  929SOL    HW2 3951   0.311   6.027   5.093 -0.7262 -0.8274 -0.6058
  930SOL     OW 3952   0.342   4.480   2.487 -0.0911  0.4191 -0.1770
  930SOL    HW1 3953   0.401   4.435   2.426  1.2920  0.3647  1.1360
  930SOL    HW2 3954   0.294   4.409   2.530  1.2238  0.2217  1.0314
  931SOL     OW 3955   8.679   8.515   0.537  0.4437  0.9370  0.2312
  931SOL    HW1 3956   8.689   8.581   0.606  0.4758 -0.1391  1.2974
  931SOL    HW2 3957   8.660   8.565   0.458  2.9951  2.4213  0.4473
  932SOL     OW 3958   3.566   3.515   7.385  0.0757 -0.1753  0.4985
  932SOL    HW1 3959   3.606   3.538   7.301 -2.3614 -0.0542 -0.7081
  932SOL    HW2 3960   3.619   3.561   7.450  2.6787 -1.1069 -0.8062
  933SOL     OW 3961   6.254   4.011   1.886 -0.3921 -0.1545 -0.5973
  933SOL    HW1 3962   6.206   3.935   1.851 -0.7346  0.2207 -0.9465
  933SOL    HW2 3963   6.286   4.057   1.809 -0.8478  0.4839 -0.4128
  934SOL     OW 3964   2.686   7.594   5.989  1.0305 -0.2389 -0.2833
  934SOL    HW1 3965   2.772   7.634   5.980  0.4093  1.3620  0.5320
  934SOL    HW2 3966   2.639   7.652   6.049 -0.6214 -1.0779 -0.7206
  935SOL     OW 3967   2.374   8.385   7.573 -0.7545 -0.1665  0.2105
  935SOL    HW1 3968   2.334   8.302   7.597  2.0390 -0.8573  3.1823
  935SOL    HW2 3969   2.459   8.360   7.537  0.6980  1.3065  2.3684
  936SOL     OW 3970   7.687   3.622   8.473 -0.4100  0.4978 -0.1680
  936SOL    HW1 3971   7.748   3.633   8.400  1.7187 -1.1191  1.2191
  936SOL    HW2 3972   7.739   3.644   8.551 -2.1298  0.6460  0.9996
  937SOL     OW 3973   0.492   4.916   6.954  0.0078 -0.7189 -0.4902
  937SOL    HW1 3974   0.527   5.003   6.971  0.0787 -0.6007 -1.1905
  937SOL    HW2 3975   0.416   4.931   6.898 -2.1769 -0.8573  2.2626
  938SOL     OW 3976   7.247   7.327   4.416 -0.2148  0.0810 -0.1232
  938SOL    HW1 3977   7.320   7.292   4.468 -0.0172 -1.5348 -1.4047
  938SOL    HW2 3978   7.282   7.408   4.379  0.3159  0.2376  0.6883
  939SOL     OW 3979   6.078   4.570   4.588 -0.7818  0.1560  0.3008
  939SOL    HW1 3980   6.091   4.649   4.640  0.4339 -0.0368  0.2977
  939SOL    HW2 3981   6.067   4.500   4.652  0.1422  0.0112  0.3068
  940SOL     OW 3982   6.252   4.848   7.303  0.4242 -0.2557  0.1750
  940SOL    HW1 3983   6.266   4.915   7.237 -1.1857  0.7754  0.8165
  940SOL    HW2 3984   6.230   4.769   7.253  0.0667  0.2916 -0.5428
  941SOL     OW 3985   1.891   1.210   0.473 -0.4801  0.3661 -0.0253
  941SOL    HW1 3986   1.944   1.136   0.443 -0.9707  0.1674 -0.4175
  941SOL    HW2 3987   1.868   1.189   0.563  0.9445  0.9284  0.4944
  942SOL     OW 3988   6.623   1.778   5.326 -0.1793 -0.3118 -0.2960
  942SOL    HW1 3989   6.656   1.819   5.406  1.8501  0.1141 -1.2774
  942SOL    HW2 3990   6.533   1.751   5.347  1.0531 -2.5339  2.9688
  943SOL     OW 3991   2.491   8.661   4.564  0.1949  0.3358 -0.0366
  943SOL    HW1 3992   2.456   8.641   4.650  1.0073 -2.6522 -0.3146
  943SOL    HW2 3993   2.416   8.650   4.505  0.4641 -1.3363 -0.0970
  944SOL     OW 3994   8.843   2.762   1.523  0.2468  0.1625 -0.5769
  944SOL    HW1 3995   8.796   2.845   1.533 -0.9397 -0.6636  1.4460
  944SOL    HW2 3996   8.774   2.696   1.522  1.1653 -0.8417 -2.2103
  945SOL     OW 3997   0.022   2.259   4.132  0.2697  0.1993 -0.3726
  945SOL    HW1 3998   0.103   2.294   4.169 -0.9870  2.4415  0.4371
  945SOL    HW2 3999   0.021   2.292   4.042  1.3692 -1.8841 -1.2172
  946SOL     OW 4000   6.423   0.472   0.076  0.7388  0.1872  0.1075
  946SOL    HW1 4001   6.474   0.477   0.157 -0.7821 -0.6818  1.1641
  946SOL    HW2 4002   6.406   0.378   0.064  0.4779  0.3525 -0.9218
  947SOL     OW 4003   4.005   6.508   6.590  0.2643  0.3637 -0.1969
  947SOL    HW1 4004   3.943   6.572   6.555 -0.6210 -0.9558 -1.1148
  947SOL    HW2 4005   4.053   6.556   6.657 -2.8837  1.0424  1.8129
  948SOL     OW 4006   1.709   0.243   1.948  0.0069  0.6402 -1.0600
  948SOL    HW1 4007   1.639   0.214   2.006  1.3404 -0.6615 -0.0748
  948SOL    HW2 4008   1.662   0.278   1.871 -1.7102 -0.3135 -0.4975
  949SOL     OW 4009   2.056   1.746   5.005 -0.7309 -0.2859 -0.0162
  949SOL    HW1 4010   2.020   1.824   4.963 -0.9967 -0.1219  0.5183
  949SOL    HW2 4011   2.145   1.738   4.968 -0.2657  0.9367  0.7995
  950SOL     OW 4012   2.282   1.824   1.966  0.2614  0.3581 -0.2347
  950SOL    HW1 4013   2.284   1.775   1.884 -0.5479  1.5056 -0.9527
  950SOL    HW2 4014   2.290   1.915   1.941  2.4698  0.6356  1.1373
  951SOL     OW 4015   5.573   1.601   2.837  0.4023  0.0037  0.1232
  951SOL    HW1 4016   5.652   1.581   2.888 -0.3693 -1.5405  0.7719
  951SOL    HW2 4017   5.557   1.694   2.853  2.0527  0.3477  0.0018
  952SOL     OW 4018   2.348   4.597   5.191 -0.3294  0.6039 -0.5135
  952SOL    HW1 4019   2.299   4.679   5.201  0.0074  1.0263 -2.0482
  952SOL    HW2 4020   2.379   4.577   5.280  0.3485  2.6242 -0.2444
  953SOL     OW 4021   0.703   8.802   7.294 -0.4246  0.3381 -0.0915
  953SOL    HW1 4022   0.687   8.865   7.223 -3.4650  0.2395  0.3869
  953SOL    HW2 4023   0.750   8.853   7.360 -0.6311  1.4091 -0.7411
  954SOL     OW 4024   6.729   8.201   5.524 -0.0717  0.2367  0.3332
  954SOL    HW1 4025   6.745   8.113   5.488 -0.5048 -0.7520  2.3729
  954SOL    HW2 4026   6.810   8.249   5.506  0.2937 -0.6760 -0.5650
  955SOL     OW 4027   2.027   7.733   4.675 -0.2030  0.2054 -0.0172
  955SOL    HW1 4028   2.029   7.698   4.764  1.4766 -1.8503 -0.7717
  955SOL    HW2 4029   2.000   7.659   4.621  0.2734  0.9834 -1.3730
  956SOL     OW 4030   7.071   7.622   4.584 -0.1893  0.0029  0.2513
  956SOL    HW1 4031   6.996   7.568   4.560  0.0755 -1.4468  2.3979
  956SOL    HW2 4032   7.106   7.581   4.663  1.9498  1.5348  0.1932
  957SOL     OW 4033   0.369   8.219   4.005 -0.4033 -0.9409  0.6496
  957SOL    HW1 4034   0.286   8.266   4.003  0.4092  0.5211  0.2491
  957SOL    HW2 4035   0.389   8.208   4.098 -0.2142  0.2497  0.7623
  958SOL     OW 4036   0.666   2.643   1.624 -0.1192 -0.2376 -0.1089
  958SOL    HW1 4037   0.679   2.733   1.593  0.6422  0.0162  0.9004
  958SOL    HW2 4038   0.716   2.589   1.562  1.9634  0.3237  1.0036
  959SOL     OW 4039   4.955   0.232   0.095  0.1335 -0.1194  0.3987
  959SOL    HW1 4040   5.038   0.185   0.108 -0.4649 -0.7526  2.2005
  959SOL    HW2 4041   4.941   0.230   0.000 -0.1014 -4.0939  0.3722
  960SOL     OW 4042   7.129   8.447   7.166  0.3953  0.5229  0.2392
  960SOL    HW1 4043   7.211   8.466   7.212  0.4853 -1.6530  1.1009
  960SOL    HW2 4044   7.120   8.352   7.170 -1.3715  0.5597 -1.2733
  961SOL     OW 4045   1.846   5.911   5.451 -0.6690  0.7255 -0.6168
  961SOL    HW1 4046   1.913   5.916   5.383  1.3092  0.3841  1.1849
  961SOL    HW2 4047   1.838   5.818   5.470 -0.7087  0.8563  0.0409
  962SOL     OW 4048   8.588   0.314   3.303 -0.2224  0.1461 -0.2738
  962SOL    HW1 4049   8.546   0.400   3.302 -0.8749 -0.0960  1.5836
  962SOL    HW2 4050   8.601   0.292   3.211  2.0508  3.1942 -0.8279
  963SOL     OW 4051   5.743   5.314   7.184  0.0413 -0.3864  0.3294
  963SOL    HW1 4052   5.817   5.334   7.127 -1.0849 -0.7345 -1.3191
  963SOL    HW2 4053   5.666   5.337   7.132 -1.0603 -1.7409  1.2997
  964SOL     OW 4054   2.779   3.980   4.771 -0.0426  0.3983 -0.0144
  964SOL    HW1 4055   2.859   3.969   4.718 -0.2983 -1.4752 -0.0719
  964SOL    HW2 4056   2.758   3.892   4.801 -2.2407  0.7995 -0.1982
  965SOL     OW 4057   4.774   8.286   7.429  0.1946  0.1580  0.1035
  965SOL    HW1 4058   4.782   8.372   7.468  1.2065  0.9169 -1.6284
  965SOL    HW2 4059   4.750   8.303   7.338 -1.1541 -1.4695  0.1080
  966SOL     OW 4060   2.890   1.457   8.027 -0.0982  0.0430 -0.0081
  966SOL    HW1 4061   2.928   1.485   7.944  0.2481  0.7272  0.3667
  966SOL    HW2 4062   2.853   1.537   8.064  0.3091 -0.1255  0.7813
  967SOL     OW 4063   1.304   1.664   0.739 -0.3004 -0.7194  0.1396
  967SOL    HW1 4064   1.248   1.639   0.665  0.6559  0.9571 -1.1923
  967SOL    HW2 4065   1.276   1.753   0.761  2.5268  0.6449 -1.3309
  968SOL     OW 4066   6.554   4.699   2.505 -0.4604 -0.6908 -0.5104
  968SOL    HW1 4067   6.611   4.698   2.581  0.5303  0.5273 -1.1799
  968SOL    HW2 4068   6.602   4.651   2.438 -1.0355 -1.2073 -0.5574
  969SOL     OW 4069   6.258   0.045   2.090  0.8117  0.4201 -0.2091
  969SOL    HW1 4070   6.269  -0.034   2.143  0.7565 -1.1207 -2.3707
  969SOL    HW2 4071   6.346   0.083   2.084  1.1903 -0.5132 -0.6661
  970SOL     OW 4072   6.095   1.778   6.021 -0.1433 -0.5100  0.3185
  970SOL    HW1 4073   6.165   1.732   6.070 -0.5839 -0.9132  0.5823
  970SOL    HW2 4074   6.135   1.861   5.995  0.1676 -0.3672  1.2075
  971SOL     OW 4075   2.533   3.321   1.779 -0.0372  0.5089 -0.4993
  971SOL    HW1 4076   2.583   3.240   1.794  1.3805  1.5819  0.9720
  971SOL    HW2 4077   2.588   3.373   1.722 -1.2179  0.2435 -1.9317
  972SOL     OW 4078   1.462   5.992   6.008  0.2165  0.4932 -0.9323
  972SOL    HW1 4079   1.495   5.903   6.022 -2.6475 -0.5316 -0.0320
  972SOL    HW2 4080   1.541   6.044   5.994  2.1332 -1.8613  0.2197
  973SOL     OW 4081   5.380   6.774   3.222  0.2426 -0.4060  0.4134
  973SOL    HW1 4082   5.440   6.791   3.150 -1.6322 -1.2477 -1.4881
  973SOL    HW2 4083   5.311   6.840   3.211 -0.0253 -0.4962  1.4938
  974SOL     OW 4084   4.238   4.956   8.478  0.0798  0.3049 -0.3790
  974SOL    HW1 4085   4.225   4.868   8.512  0.1813  0.0928 -0.8799
  974SOL    HW2 4086   4.273   4.943   8.390 -0.3998  0.8358 -0.6616
  975SOL     OW 4087   3.132   6.490   3.539 -0.4442 -0.4998 -0.1748
  975SOL    HW1 4088   3.115   6.487   3.445 -2.7544  0.7593  0.1217
  975SOL    HW2 4089   3.157   6.581   3.555 -0.1828 -0.6777  0.4293
  976SOL     OW 4090   2.511   0.607   8.677  0.6532  0.1210  0.3890
  976SOL    HW1 4091   2.552   0.598   8.591 -1.9164  1.3752 -1.0923
  976SOL    HW2 4092   2.572   0.661   8.727  2.0424 -0.3447 -0.7270
  977SOL     OW 4093   8.450   8.647   5.686 -0.2919 -0.2990 -0.3304
  977SOL    HW1 4094   8.371   8.683   5.726 -1.1508 -2.3403 -0.0429
  977SOL    HW2 4095   8.425   8.559   5.658  2.0432 -1.3021  0.4316
  978SOL     OW 4096   3.833   5.476   7.843  0.7762  0.1156 -0.2078
  978SOL    HW1 4097   3.887   5.530   7.900 -0.6932  2.0987 -0.5763
  978SOL    HW2 4098   3.754   5.460   7.895  1.5054 -2.5174  0.2334
  979SOL     OW 4099   8.758   2.483   2.794  0.5955 -0.6367 -0.1207
  979SOL    HW1 4100   8.761   2.435   2.712 -0.7149  0.3957 -0.8227
  979SOL    HW2 4101   8.678   2.535   2.789  1.1341  0.4189  1.2652
  980SOL     OW 4102   1.942   6.833   3.963  0.3230 -0.1180  0.1689
  980SOL    HW1 4103   1.905   6.813   4.049  0.4042 -1.9850 -0.2085
  980SOL    HW2 4104   2.032   6.859   3.981 -0.6024  3.1228  0.9525
  981SOL     OW 4105   3.950   8.599   4.858  0.3042  0.4613  0.7942
  981SOL    HW1 4106   3.955   8.593   4.954  1.5617 -2.3428  0.6659
  981SOL    HW2 4107   4.037   8.573   4.828 -0.3492  0.3500 -1.1225
  982SOL     OW 4108   2.027   1.853   1.030  0.5217  0.3405  0.4636
  982SOL    HW1 4109   1.967   1.778   1.033  0.2935  0.5443  1.2221
  982SOL    HW2 4110   2.072   1.851   1.114  0.4043  1.1442  0.5481
  983SOL     OW 4111   7.184   7.093   0.431 -0.1811  0.0720 -0.0444
  983SOL    HW1 4112   7.203   7.114   0.340  0.1604 -0.5006 -0.1055
  983SOL    HW2 4113   7.247   7.025   0.454  0.5494  1.0559  0.9886
  984SOL     OW 4114   0.936   1.865   3.973 -0.5163  0.3920  0.3117
  984SOL    HW1 4115   0.894   1.879   3.887 -0.1584  0.7373  0.1910
  984SOL    HW2 4116   0.863   1.849   4.032 -0.7708  0.1632 -0.0546
  985SOL     OW 4117   0.716   4.872   3.863 -0.2951 -0.7861 -0.3894
  985SOL    HW1 4118   0.636   4.895   3.815  0.1417 -1.5820 -1.5598
  985SOL    HW2 4119   0.784   4.924   3.821  0.2485 -2.1595 -1.2890
  986SOL     OW 4120   1.228   3.458   8.327 -0.4745  0.2704 -0.4059
  986SOL    HW1 4121   1.235   3.545   8.365  0.3548  0.4143 -0.8462
  986SOL    HW2 4122   1.235   3.473   8.232  2.3656 -0.4432 -0.4176
  987SOL     OW 4123   7.447   6.406   5.607  0.5668  0.2633  0.4400
  987SOL    HW1 4124   7.520   6.356   5.645 -0.6172  0.4955  3.2282
  987SOL    HW2 4125   7.471   6.497   5.621 -1.1389  0.3679  3.5268
  988SOL     OW 4126   2.609   2.158   3.330 -0.0327  0.1484  0.1247
  988SOL    HW1 4127   2.564   2.209   3.397  0.9098 -0.6856  1.4488
  988SOL    HW2 4128   2.620   2.071   3.370  1.0927 -0.1872 -0.8634
  989SOL     OW 4129   1.519   7.823   0.063 -0.3648  0.1895  0.6380
  989SOL    HW1 4130   1.551   7.797  -0.023  0.5125 -0.0692  1.0384
  989SOL    HW2 4131   1.459   7.895   0.044 -1.8448 -1.2301 -0.3715
  990SOL     OW 4132   2.796   3.208   5.203  0.0668  0.0126  0.5250
  990SOL    HW1 4133   2.870   3.236   5.149  0.6317  1.3490  1.8989
  990SOL    HW2 4134   2.761   3.131   5.158  2.5915 -0.9718  0.0770
  991SOL     OW 4135   6.289   8.770   8.706 -0.9335  0.5217  0.0051
  991SOL    HW1 4136   6.314   8.678   8.699 -2.1133  0.2824 -2.0258
  991SOL    HW2 4137   6.338   8.813   8.635 -0.6587  1.4108  0.7153
  992SOL     OW 4138   2.909   2.861   5.601  0.1215  0.1805  0.1707
  992SOL    HW1 4139   2.935   2.842   5.510 -0.2236 -0.3593  0.1840
  992SOL    HW2 4140   2.875   2.950   5.598 -2.9663 -0.9000 -0.9030
  993SOL     OW 4141   2.060   5.298   3.047 -0.4509  0.0229 -0.1163
  993SOL    HW1 4142   1.978   5.318   3.002 -1.0370  0.0075  0.9298
  993SOL    HW2 4143   2.072   5.368   3.110 -0.7643 -1.0728  1.2089
  994SOL     OW 4144   4.129   8.020   7.987 -0.3006  0.1525  0.0173
  994SOL    HW1 4145   4.156   8.026   8.079  0.6796 -0.8963 -0.1843
  994SOL    HW2 4146   4.183   8.084   7.942  0.1372 -0.2369 -0.0163
  995SOL     OW 4147   2.810   7.254   5.559  0.4208  0.1883 -0.0309
  995SOL    HW1 4148   2.820   7.215   5.646  0.5471  0.4381  0.0685
  995SOL    HW2 4149   2.765   7.338   5.576  2.0151  1.0743 -0.0060
  996SOL     OW 4150   0.194   6.936   3.169 -0.9213 -0.4262 -0.4125
  996SOL    HW1 4151   0.127   6.969   3.110 -0.1910  0.5394 -0.7184
  996SOL    HW2 4152   0.274   6.938   3.118 -0.6762 -1.8173 -0.1369
  997SOL     OW 4153   8.853   4.873   2.290 -0.0519 -0.1798 -0.3107
  997SOL    HW1 4154   8.853   4.910   2.201  1.1469  0.6528  0.0088
  997SOL    HW2 4155   8.890   4.785   2.280  0.6610  0.1439 -0.5576
  998SOL     OW 4156   0.054   4.466   6.330 -0.2541 -0.2946  0.5594
  998SOL    HW1 4157   0.072   4.560   6.333  1.1985 -0.5133 -0.4510
  998SOL    HW2 4158   0.097   4.436   6.250 -3.2788 -1.2917 -0.8769
  999SOL     OW 4159   0.108   8.421   4.057 -0.6928 -0.1550  0.1709
  999SOL    HW1 4160   0.116   8.356   3.987 -0.0969  0.1050 -0.0061
  999SOL    HW2 4161   0.093   8.504   4.011 -1.2719 -0.1361  0.3892
 1000SOL     OW 4162   8.383   2.322   8.638  0.2050  0.5902 -0.1181
 1000SOL    HW1 4163   8.306   2.349   8.588  1.3788  1.1978 -1.6837
 1000SOL    HW2 4164   8.413   2.242   8.595  0.5357  0.4213  0.4064
 1001SOL     OW 4165   3.215   3.475   6.211 -0.9144 -0.0029 -0.1580
 1001SOL    HW1 4166   3.153   3.525   6.264  1.4183  0.5984  2.2211
 1001SOL    HW2 4167   3.208   3.385   6.244 -2.1795 -0.4701 -1.5921
 1002SOL     OW 4168   0.548   6.786   2.280  0.4262  0.2510  0.1532
 1002SOL    HW1 4169   0.518   6.701   2.310 -0.1354  0.6990  0.8843
 1002SOL    HW2 4170   0.583   6.828   2.358  1.6737  0.2919 -0.4077
 1003SOL     OW 4171   3.790   0.988   6.549 -0.2970 -0.5013  0.0467
 1003SOL    HW1 4172   3.728   0.961   6.481  0.9315  0.9140 -1.7159
 1003SOL    HW2 4173   3.794   1.083   6.541  1.3083 -0.4802  0.8214
 1004SOL     OW 4174   1.127   3.996   8.132 -0.0779  0.1964  0.1453
 1004SOL    HW1 4175   1.198   3.943   8.096  0.4755 -0.0350  1.5221
 1004SOL    HW2 4176   1.142   4.083   8.096 -0.2210 -0.2627 -1.0823
 1005SOL     OW 4177   8.405   6.564   0.151 -0.3163 -0.5306 -0.0045
 1005SOL    HW1 4178   8.398   6.500   0.080 -0.3893 -1.1487  0.5580
 1005SOL    HW2 4179   8.491   6.604   0.138 -0.2601 -0.7561 -0.3457
 1006SOL     OW 4180   3.924   0.532   6.580  0.0281 -0.1135  0.0051
 1006SOL    HW1 4181   3.967   0.474   6.518 -0.3341  0.0585 -0.4154
 1006SOL    HW2 4182   3.951   0.620   6.554 -0.8035  0.0143 -0.4444
 1007SOL     OW 4183   2.095   6.818   1.738  0.1111  0.2593 -0.4900
 1007SOL    HW1 4184   2.130   6.892   1.690 -0.4710  0.6200 -0.3690
 1007SOL    HW2 4185   2.034   6.856   1.801  0.7437 -0.2231  0.4377
 1008SOL     OW 4186   2.433   5.308   7.159 -0.3457 -0.4705  0.3658
 1008SOL    HW1 4187   2.448   5.233   7.102 -1.5721  0.3887 -1.1471
 1008SOL    HW2 4188   2.371   5.277   7.224 -0.5834 -0.8653 -0.0459
 1009SOL     OW 4189   2.446   7.976   5.532 -0.5603  0.2957 -0.4659
 1009SOL    HW1 4190   2.494   8.036   5.589 -0.4799  0.5958 -0.8441
 1009SOL    HW2 4191   2.363   8.021   5.514 -0.4992  0.2953 -0.7518
 1010SOL     OW 4192   4.682   5.477   8.276  0.3588 -0.4121  0.0574
 1010SOL    HW1 4193   4.740   5.523   8.215  0.2720 -0.5397 -0.1227
 1010SOL    HW2 4194   4.688   5.385   8.249 -0.0865 -0.3999 -0.0931
 1011SOL     OW 4195   3.790   1.240   6.808  0.5890  0.1391  0.2668
 1011SOL    HW1 4196   3.713   1.233   6.751  0.4194  1.2671  0.3409
 1011SOL    HW2 4197   3.755   1.276   6.890  1.1766  0.5259  0.3488
 1012SOL     OW 4198   4.930   1.291   7.909 -0.0146 -0.2762  0.0942
 1012SOL    HW1 4199   4.850   1.252   7.943 -0.4341 -0.2573 -0.8303
 1012SOL    HW2 4200   4.922   1.384   7.928 -0.3742 -0.2256 -0.2908
 1013SOL     OW 4201   8.675   4.506   6.911 -0.1195 -0.2999 -0.5212
 1013SOL    HW1 4202   8.602   4.452   6.941  0.9447 -1.6535 -0.2391
 1013SOL    HW2 4203   8.728   4.447   6.857  1.5651  0.1710  0.5315
 1014SOL     OW 4204   3.471   5.333   6.472 -0.2989  0.0764  0.2556
 1014SOL    HW1 4205   3.411   5.291   6.534 -1.6548  0.9064 -0.4455
 1014SOL    HW2 4206   3.417   5.399   6.428  1.6783  2.4561  1.1705
 1015SOL     OW 4207   0.196   8.643   2.396  0.1294 -0.1915  0.4475
 1015SOL    HW1 4208   0.203   8.704   2.322 -1.7286  1.7490  1.7555
 1015SOL    HW2 4209   0.134   8.577   2.366 -1.0300  0.8828  0.3918
 1016SOL     OW 4210   6.013   3.070   0.476  0.2593  0.1844 -0.2447
 1016SOL    HW1 4211   5.971   3.014   0.540 -0.4915  0.2918 -0.6316
 1016SOL    HW2 4212   5.993   3.160   0.504  1.2753  0.2696  0.2530
 1017SOL     OW 4213   7.495   2.963   1.873  0.5231 -0.3235 -0.2286
 1017SOL    HW1 4214   7.589   2.959   1.890  0.4163 -0.0897  0.4268
 1017SOL    HW2 4215   7.481   3.052   1.839  0.1975  0.5144  1.9154
 1018SOL     OW 4216   7.145   8.216   1.127  0.3994  0.2984  0.2983
 1018SOL    HW1 4217   7.161   8.288   1.188  1.3591  0.2394  0.1373
 1018SOL    HW2 4218   7.064   8.175   1.158  0.1099  1.1457  0.6773
 1019SOL     OW 4219   5.546   4.983   0.034 -0.3671  0.1350 -1.0613
 1019SOL    HW1 4220   5.560   5.076   0.018  1.1012 -0.3033 -2.5952
 1019SOL    HW2 4221   5.524   4.947  -0.052 -0.9843 -0.9410 -0.4737
 1020SOL     OW 4222   1.035   8.571   6.360 -0.0285  0.3360  0.3055
 1020SOL    HW1 4223   1.020   8.576   6.266 -1.5700  2.3984  0.5822
 1020SOL    HW2 4224   0.958   8.613   6.399  2.3692  3.3414  2.3114
 1021SOL     OW 4225   4.526   0.193   5.700  0.0971  0.0828 -0.1329
 1021SOL    HW1 4226   4.596   0.167   5.640  0.9054 -0.0192  0.8344
 1021SOL    HW2 4227   4.554   0.160   5.785 -0.3829  1.4108  0.5582
 1022SOL     OW 4228   7.392   1.009   0.442 -0.3902  0.0185  0.2540
 1022SOL    HW1 4229   7.440   0.956   0.379 -1.1769  0.0026 -0.3476
 1022SOL    HW2 4230   7.300   0.990   0.424 -0.7008  1.6533 -0.0649
 1023SOL     OW 4231   1.095   2.024   6.010  0.4782 -0.2262 -0.0114
 1023SOL    HW1 4232   1.108   2.068   6.094  1.0959 -0.5124  0.0464
 1023SOL    HW2 4233   1.165   1.958   6.006 -1.0204 -1.9072  0.3650
 1024SOL     OW 4234   3.945   1.715   8.220  0.6385 -0.0784  0.1309
 1024SOL    HW1 4235   3.870   1.740   8.274  0.6993  0.9661 -0.2449
 1024SOL    HW2 4236   3.907   1.665   8.147  0.3248  0.2710  0.0503
 1025SOL     OW 4237   2.805   4.634   6.072 -0.1589 -0.0680 -0.0590
 1025SOL    HW1 4238   2.746   4.626   6.147 -0.7087 -1.8356 -0.6224
 1025SOL    HW2 4239   2.768   4.574   6.006  0.4050  1.2787 -1.6761
 1026SOL     OW 4240   6.138   4.412   6.853 -0.1480 -0.0127 -0.4323
 1026SOL    HW1 4241   6.166   4.503   6.848  0.4030 -0.1121  0.5252
 1026SOL    HW2 4242   6.214   4.362   6.823 -0.0026 -0.2056  0.2536
 1027SOL     OW 4243   2.847   0.612   3.580 -0.0577 -0.2688  0.4703
 1027SOL    HW1 4244   2.773   0.645   3.630  0.1411  0.1382  0.4954
 1027SOL    HW2 4245   2.816   0.613   3.489 -0.5155 -1.2675  0.5970
 1028SOL     OW 4246   1.556   3.424   6.805 -0.0299 -0.0586 -0.0694
 1028SOL    HW1 4247   1.545   3.507   6.852  1.8554 -0.3045  0.9065
 1028SOL    HW2 4248   1.556   3.448   6.713  0.1391  0.9717  0.1902
 1029SOL     OW 4249   7.229   3.731   6.520 -0.3500 -0.3515  0.6033
 1029SOL    HW1 4250   7.272   3.677   6.454 -0.2626 -0.3286  0.6409
 1029SOL    HW2 4251   7.177   3.794   6.470 -0.5640 -0.5594  0.5604
 1030SOL     OW 4252   5.013   6.447   2.927  0.9570  0.1366 -0.2936
 1030SOL    HW1 4253   5.108   6.456   2.921  0.8562  2.6240  0.6236
 1030SOL    HW2 4254   4.979   6.533   2.904 -0.9086  0.0876  1.8657
 1031SOL     OW 4255   7.803   7.028   5.359 -0.0604 -0.0547  0.5026
 1031SOL    HW1 4256   7.760   7.067   5.283 -0.0796 -0.5025  0.2825
 1031SOL    HW2 4257   7.865   7.095   5.389  0.0819  0.0491 -0.0223
 1032SOL     OW 4258   7.251   2.145   6.226 -0.3703 -0.0841 -0.2851
 1032SOL    HW1 4259   7.333   2.146   6.176  0.3706 -0.1866  0.8727
 1032SOL    HW2 4260   7.245   2.056   6.260 -1.1392 -0.1636 -0.6215
 1033SOL     OW 4261   0.604   3.021   6.363  0.1971  0.1770 -0.1610
 1033SOL    HW1 4262   0.587   2.953   6.429 -0.6070  1.1653  0.6890
 1033SOL    HW2 4263   0.698   3.040   6.372 -0.3655  2.2281  2.7046
 1034SOL     OW 4264   0.774   7.652   7.785 -0.5682 -0.2907 -0.1874
 1034SOL    HW1 4265   0.727   7.735   7.773 -2.4039 -1.4699 -1.8764
 1034SOL    HW2 4266   0.737   7.595   7.718  2.9117 -1.5459 -1.2320
 1035SOL     OW 4267   1.382   5.524   5.025  0.7062  0.1234  0.7474
 1035SOL    HW1 4268   1.374   5.489   5.113  1.9503  0.7228  1.1202
 1035SOL    HW2 4269   1.331   5.465   4.970  0.9620 -0.9883  1.6832
 1036SOL     OW 4270   6.235   5.028   1.279  0.0854 -0.0730 -0.6988
 1036SOL    HW1 4271   6.258   5.092   1.347 -0.5021 -1.2615  0.6678
 1036SOL    HW2 4272   6.167   5.072   1.228 -1.9525 -0.3397  1.5929
 1037SOL     OW 4273   5.383   4.105   0.334 -0.1485 -0.2415  0.3194
 1037SOL    HW1 4274   5.407   4.181   0.280 -0.5696  0.8283  1.5822
 1037SOL    HW2 4275   5.380   4.139   0.424 -0.8231 -1.6503  0.8636
 1038SOL     OW 4276   8.604   4.968   1.782 -0.4156 -0.4570  0.0864
 1038SOL    HW1 4277   8.656   4.895   1.817 -1.5301 -1.3060  0.0425
 1038SOL    HW2 4278   8.534   4.980   1.846 -1.4050 -0.7980 -0.8985
 1039SOL     OW 4279   6.887   2.921   6.147 -0.5135  0.0211 -0.0822
 1039SOL    HW1 4280   6.936   2.864   6.087 -1.6617 -0.9870 -0.1123
 1039SOL    HW2 4281   6.905   3.009   6.116  0.7023 -0.3474 -0.5197
 1040SOL     OW 4282   6.400   7.328   6.833  0.0141  0.7076  0.4353
 1040SOL    HW1 4283   6.399   7.237   6.803 -0.6856  0.5274  0.9721
 1040SOL    HW2 4284   6.314   7.340   6.873 -0.2293  1.8698 -0.3883
 1041SOL     OW 4285   6.672   1.470   2.089 -0.5463  0.0366 -0.5585
 1041SOL    HW1 4286   6.685   1.480   2.184 -0.1950  0.1872 -0.6218
 1041SOL    HW2 4287   6.579   1.448   2.080 -1.0335  1.7904 -0.3002
 1042SOL     OW 4288   2.521   6.404   1.047 -0.3933  0.2783 -0.4220
 1042SOL    HW1 4289   2.445   6.435   1.095 -1.0276 -0.0987 -1.1603
 1042SOL    HW2 4290   2.595   6.452   1.085 -0.8523 -0.0781  0.9663
 1043SOL     OW 4291   8.610   1.031   5.070 -0.4117 -0.1893  0.1628
 1043SOL    HW1 4292   8.653   1.117   5.066 -0.4664 -0.1626  0.1573
 1043SOL    HW2 4293   8.567   1.021   4.986 -2.4076  0.8137  1.0093
 1044SOL     OW 4294   8.842   8.797   2.288  0.1286  0.0218  0.3728
 1044SOL    HW1 4295   8.787   8.876   2.286  0.4643  0.2468 -0.0708
 1044SOL    HW2 4296   8.902   8.808   2.215  1.1743  0.0775  1.2114
 1045SOL     OW 4297   2.770   2.371   8.364 -0.5931  1.0167  0.7532
 1045SOL    HW1 4298   2.707   2.421   8.312  0.1509  1.7853  0.5580
 1045SOL    HW2 4299   2.733   2.369   8.452 -1.2035  0.8966  0.4985
 1046SOL     OW 4300   7.552   5.429   7.719 -0.1151  0.0596 -0.1346
 1046SOL    HW1 4301   7.622   5.487   7.750  0.7303 -0.2180 -1.4346
 1046SOL    HW2 4302   7.545   5.448   7.625 -2.7331  1.0481  0.1529
 1047SOL     OW 4303   5.572   3.346   0.458  0.0345 -0.5845  0.3373
 1047SOL    HW1 4304   5.486   3.387   0.456 -0.4396 -1.5496  0.3263
 1047SOL    HW2 4305   5.559   3.265   0.507  0.4053 -1.9015 -1.6144
 1048SOL     OW 4306   8.156   3.825   7.532 -0.3084 -0.0407 -0.1642
 1048SOL    HW1 4307   8.152   3.879   7.611 -1.6316 -0.2852 -0.0396
 1048SOL    HW2 4308   8.221   3.758   7.552 -0.5109 -0.0033  0.6581
 1049SOL     OW 4309   6.242   8.004   2.398 -0.4820  0.0913  0.3962
 1049SOL    HW1 4310   6.182   8.020   2.471 -0.6914 -0.1260  0.2722
 1049SOL    HW2 4311   6.185   7.995   2.321 -0.2107  1.5029 -0.0136
 1050SOL     OW 4312   6.465   1.064   5.082 -0.1666  0.6003  0.3238
 1050SOL    HW1 4313   6.392   1.102   5.033  0.7850  0.6171 -1.1503
 1050SOL    HW2 4314   6.449   1.090   5.173 -0.3510  3.3237 -0.4008
 1051SOL     OW 4315   5.331   3.062   7.323 -0.4627  0.0327  0.1511
 1051SOL    HW1 4316   5.400   3.012   7.280  1.7138  2.4861  0.4782
 1051SOL    HW2 4317   5.369   3.088   7.407 -1.9116  1.2021  0.4949
 1052SOL     OW 4318   6.307   4.541   0.838  0.9790 -0.4134  0.1297
 1052SOL    HW1 4319   6.281   4.630   0.859  0.0903 -0.3811 -1.0683
 1052SOL    HW2 4320   6.375   4.520   0.903 -1.5972 -0.3285  3.0809
 1053SOL     OW 4321   0.703   7.734   3.617 -0.0414  0.5730 -0.3704
 1053SOL    HW1 4322   0.691   7.825   3.590 -1.5805  0.5705  0.1830
 1053SOL    HW2 4323   0.626   7.688   3.582 -0.5098 -0.0238  1.3258
 1054SOL     OW 4324   1.297   8.609   2.024  0.6783  0.4210 -1.1383
 1054SOL    HW1 4325   1.342   8.693   2.012 -1.8988  2.4561  1.8153
 1054SOL    HW2 4326   1.358   8.557   2.078  0.6802  2.0661  0.5312
 1055SOL     OW 4327   0.669   7.616   8.689  0.0628  0.4702 -0.1959
 1055SOL    HW1 4328   0.575   7.607   8.672 -0.5784  0.0149  2.9867
 1055SOL    HW2 4329   0.694   7.534   8.732  1.9315  0.6259 -0.8747
 1056SOL     OW 4330   5.322   3.194   7.047  0.5191  0.9474 -0.1275
 1056SOL    HW1 4331   5.313   3.145   7.128 -2.2321  0.5032 -0.6212
 1056SOL    HW2 4332   5.359   3.131   6.985  0.6846  0.6699  0.2518
 1057SOL     OW 4333   8.032   3.968   4.814  0.1562  0.3595 -0.3213
 1057SOL    HW1 4334   8.091   4.014   4.755  1.1249 -0.4582 -0.0038
 1057SOL    HW2 4335   7.957   3.945   4.759  0.1097  1.4066 -0.7217
 1058SOL     OW 4336   8.055   5.976   3.363  0.3995 -0.3428  0.1538
 1058SOL    HW1 4337   8.081   6.012   3.448  1.6984  1.6480 -0.9844
 1058SOL    HW2 4338   8.005   5.897   3.384 -0.1771  0.6091  2.7758
 1059SOL     OW 4339   1.251   0.161   0.653 -0.2180 -0.1173  0.2874
 1059SOL    HW1 4340   1.322   0.156   0.718  0.0082  0.4743  0.0991
 1059SOL    HW2 4341   1.198   0.235   0.682 -1.1256 -0.9449  0.7739
 1060SOL     OW 4342   7.540   5.606   8.435 -0.5218  0.2058 -0.0215
 1060SOL    HW1 4343   7.599   5.539   8.400 -0.2336 -0.0727  0.9635
 1060SOL    HW2 4344   7.530   5.669   8.364  0.0334 -0.3491 -0.6002
 1061SOL     OW 4345   5.823   3.742   3.291 -0.2267  0.0396 -0.3103
 1061SOL    HW1 4346   5.859   3.813   3.345 -0.7692 -0.0626  0.1977
 1061SOL    HW2 4347   5.900   3.700   3.253  0.2775 -0.8145  1.5529
 1062SOL     OW 4348   1.302   5.104   0.947  0.4175 -0.2379 -0.0121
 1062SOL    HW1 4349   1.353   5.078   1.024  1.1925 -0.2809 -0.5346
 1062SOL    HW2 4350   1.346   5.062   0.873 -0.1980 -0.0262 -0.5083
 1063SOL     OW 4351   0.043   2.953   0.513 -0.4509 -0.4196 -0.1161
 1063SOL    HW1 4352   0.099   2.896   0.565  0.2640  0.2337 -0.1473
 1063SOL    HW2 4353  -0.043   2.946   0.554 -0.7525 -2.6097 -0.9716
 1064SOL     OW 4354   1.063   7.842   8.756  0.0339  0.2281 -0.0311
 1064SOL    HW1 4355   0.983   7.836   8.704  0.7496  0.7148 -1.2494
 1064SOL    HW2 4356   1.096   7.931   8.739  0.9126 -0.0213  0.3208
 1065SOL     OW 4357   3.200   1.332   2.174 -0.5129  0.0165 -0.1601
 1065SOL    HW1 4358   3.163   1.276   2.106 -0.8414  0.8272 -0.6614
 1065SOL    HW2 4359   3.127   1.347   2.235 -0.8899  1.1870 -0.8716
 1066SOL     OW 4360   4.695   4.095   3.823  0.0694  0.0572 -0.0628
 1066SOL    HW1 4361   4.785   4.121   3.844 -0.0756  0.4842  0.0319
 1066SOL    HW2 4362   4.696   4.082   3.729 -0.3137  2.3113 -0.4435
 1067SOL     OW 4363   4.294   3.840   6.973  0.2691  0.2988  0.1370
 1067SOL    HW1 4364   4.217   3.873   7.018  0.2081  1.4591 -0.7649
 1067SOL    HW2 4365   4.259   3.797   6.894  0.5588  1.5718 -0.7165
 1068SOL     OW 4366   1.409   8.211   3.011  0.2993 -0.0609  0.3380
 1068SOL    HW1 4367   1.490   8.259   3.027  1.3245 -1.0800 -1.5074
 1068SOL    HW2 4368   1.412   8.138   3.073 -0.5174  1.3051  2.0711
 1069SOL     OW 4369   3.867   8.056   0.872 -0.4141 -0.3301  0.2683
 1069SOL    HW1 4370   3.959   8.058   0.897  0.1037  0.0589 -1.5275
 1069SOL    HW2 4371   3.837   8.146   0.881 -0.4552 -0.3463  0.2893
 1070SOL     OW 4372   5.542   1.279   3.499  0.1768  0.2908  0.0572
 1070SOL    HW1 4373   5.551   1.309   3.589  2.0244  2.6228 -0.7778
 1070SOL    HW2 4374   5.605   1.208   3.490 -0.2155 -0.1371  0.6626
 1071SOL     OW 4375   0.889   3.511   5.247 -0.4859  0.5591 -0.3097
 1071SOL    HW1 4376   0.951   3.582   5.264 -1.1875  1.0366  0.3396
 1071SOL    HW2 4377   0.860   3.525   5.157 -0.9093  1.3433 -0.0621
 1072SOL     OW 4378   3.003   8.199   6.272 -0.0353  0.4344  0.1162
 1072SOL    HW1 4379   2.989   8.288   6.240  0.3229  0.7884  0.9135
 1072SOL    HW2 4380   3.016   8.146   6.192 -0.1112  1.1139 -0.3521
 1073SOL     OW 4381   1.338   3.746   2.527 -0.1069 -0.1940 -0.3031
 1073SOL    HW1 4382   1.290   3.696   2.594 -1.4210 -0.2446 -1.2357
 1073SOL    HW2 4383   1.420   3.771   2.569 -0.7346 -0.5625  1.1899
 1074SOL     OW 4384   3.132   8.464   3.915  0.0112  0.3770 -0.5247
 1074SOL    HW1 4385   3.211   8.491   3.869 -0.1893  0.2063 -0.9711
 1074SOL    HW2 4386   3.107   8.381   3.873  0.1192 -0.0528  0.2310
 1075SOL     OW 4387   0.380   6.465   0.838 -0.1288  0.3141  0.2796
 1075SOL    HW1 4388   0.285   6.456   0.847 -0.2130  2.3945  2.6848
 1075SOL    HW2 4389   0.415   6.385   0.877 -0.8625 -0.5902 -0.8642
 1076SOL     OW 4390   6.638   8.649   4.783 -0.7107 -0.6464  0.5368
 1076SOL    HW1 4391   6.561   8.693   4.748 -0.7844 -1.8505 -0.9100
 1076SOL    HW2 4392   6.682   8.613   4.706  2.2392  1.3779  1.1171
 1077SOL     OW 4393   6.390   6.360   7.703 -0.1325  0.0616 -0.3500
 1077SOL    HW1 4394   6.364   6.451   7.694  1.8046  0.5536 -1.6152
 1077SOL    HW2 4395   6.351   6.316   7.628 -2.8721 -0.6996  1.3747
 1078SOL     OW 4396   6.906   7.303   5.044 -0.1295 -1.1292  0.2674
 1078SOL    HW1 4397   6.829   7.274   5.093  1.0941 -2.3342  1.5604
 1078SOL    HW2 4398   6.919   7.235   4.979 -0.6908 -0.4355 -0.5930
 1079SOL     OW 4399   5.861   5.092   8.834  0.4233  0.0860 -0.3083
 1079SOL    HW1 4400   5.770   5.116   8.817  0.2391 -0.5519 -0.2304
 1079SOL    HW2 4401   5.876   5.013   8.783  0.2932 -1.0117  1.2900
 1080SOL     OW 4402   3.549   4.616   2.437 -0.2050  0.6405 -0.6638
 1080SOL    HW1 4403   3.549   4.694   2.382  0.3737  0.5961 -0.7341
 1080SOL    HW2 4404   3.534   4.649   2.526  1.4801  1.0180 -0.4758
 1081SOL     OW 4405   8.734   2.715   2.570  0.1723  0.2122 -0.2719
 1081SOL    HW1 4406   8.656   2.735   2.622 -0.6718 -0.5608 -1.2227
 1081SOL    HW2 4407   8.708   2.645   2.512  1.8557 -0.7142  0.0170
 1082SOL     OW 4408   0.660   0.853   5.211 -0.1988  0.2605  0.0691
 1082SOL    HW1 4409   0.660   0.760   5.235  0.2260  0.1153 -0.4689
 1082SOL    HW2 4410   0.587   0.890   5.260  0.5413 -0.0527  1.4379
 1083SOL     OW 4411   7.748   4.125   4.794 -0.9793  0.4397  0.6662
 1083SOL    HW1 4412   7.823   4.170   4.832 -0.5576  0.4430 -0.1435
 1083SOL    HW2 4413   7.680   4.192   4.788 -0.1351  1.2082 -1.1729
 1084SOL     OW 4414   5.577   1.777   0.691 -0.2987  0.5876 -0.5967
 1084SOL    HW1 4415   5.559   1.806   0.601  0.3834  1.2222 -0.5350
 1084SOL    HW2 4416   5.671   1.763   0.693 -0.4601 -0.5165 -0.2845
 1085SOL     OW 4417   5.131   2.403   5.398  0.4941  0.2194  0.0501
 1085SOL    HW1 4418   5.047   2.448   5.401  1.1554  1.5267 -0.5461
 1085SOL    HW2 4419   5.196   2.472   5.410  1.4772 -0.9534  2.0848
 1086SOL     OW 4420   2.392   7.998   1.262 -0.3405 -0.8987  0.2055
 1086SOL    HW1 4421   2.356   7.910   1.259  1.5438 -1.7203  0.4568
 1086SOL    HW2 4422   2.375   8.029   1.351  0.1680 -1.5551  0.5390
 1087SOL     OW 4423   7.174   1.637   2.626 -0.2277 -0.0596  0.1674
 1087SOL    HW1 4424   7.208   1.563   2.676 -0.2282 -0.3631 -0.2746
 1087SOL    HW2 4425   7.090   1.607   2.592 -0.3448  0.2348  0.1937
 1088SOL     OW 4426   3.632   5.252   1.386 -1.0653 -0.0042  0.2391
 1088SOL    HW1 4427   3.605   5.160   1.378 -0.4307 -0.3906  2.0806
 1088SOL    HW2 4428   3.622   5.272   1.479  0.4398  1.2648  0.1724
 1089SOL     OW 4429   3.354   7.001   7.079 -0.4599  0.1345  0.5881
 1089SOL    HW1 4430   3.420   6.980   7.014 -1.1101 -0.4765  0.1197
 1089SOL    HW2 4431   3.279   7.034   7.029 -0.5523  0.7414  1.1024
 1090SOL     OW 4432   3.353   1.956   1.228 -0.0400  0.0543  0.6257
 1090SOL    HW1 4433   3.330   1.881   1.174  1.0853 -0.3094  0.6438
 1090SOL    HW2 4434   3.333   1.929   1.317  0.3148 -0.2061  0.6263
 1091SOL     OW 4435   2.264   1.429   4.287 -0.0381 -0.9133 -0.2893
 1091SOL    HW1 4436   2.283   1.491   4.217  0.7523 -2.3303 -1.3836
 1091SOL    HW2 4437   2.345   1.426   4.339  0.7161 -2.5382 -1.4763
 1092SOL     OW 4438   0.759   3.664   2.727 -0.3725  0.3273 -0.9021
 1092SOL    HW1 4439   0.663   3.660   2.720 -0.3578  1.0235 -1.6250
 1092SOL    HW2 4440   0.781   3.754   2.702  0.3635  0.6299  0.6553
 1093SOL     OW 4441   3.592   8.738   5.529 -0.0760  0.0491  0.3460
 1093SOL    HW1 4442   3.538   8.817   5.535 -0.9338 -0.3744 -1.2607
 1093SOL    HW2 4443   3.569   8.699   5.445  3.0678  0.0904 -0.6816
 1094SOL     OW 4444   3.878   1.185   7.839  0.3806 -0.3502 -0.5995
 1094SOL    HW1 4445   3.810   1.122   7.815  0.0841  0.0403 -0.7989
 1094SOL    HW2 4446   3.957   1.132   7.849  0.2616 -0.6785 -1.3181
 1095SOL     OW 4447   5.483   4.220   1.408 -0.1429 -0.2190 -0.3035
 1095SOL    HW1 4448   5.453   4.232   1.498 -0.6571 -0.3745 -0.4490
 1095SOL    HW2 4449   5.408   4.245   1.354 -0.1599 -1.0147 -0.6724
 1096SOL     OW 4450   6.900   3.263   2.326  0.3987  0.2532  0.1655
 1096SOL    HW1 4451   6.825   3.308   2.286  0.7392  0.3227 -0.4109
 1096SOL    HW2 4452   6.872   3.245   2.416 -0.3524  0.1820 -0.0704
 1097SOL     OW 4453   6.796   0.943   4.528  0.3426  0.5116  0.1199
 1097SOL    HW1 4454   6.826   0.907   4.444  0.3742  1.1460 -0.1442
 1097SOL    HW2 4455   6.706   0.971   4.511  0.6461  1.4639  0.0435
 1098SOL     OW 4456   7.811   7.709   4.523  0.2082 -0.2212 -0.2712
 1098SOL    HW1 4457   7.722   7.730   4.497  0.3684  0.5260 -0.2507
 1098SOL    HW2 4458   7.841   7.647   4.457 -0.6804 -1.3180  0.3318
 1099SOL     OW 4459   2.595   3.235   3.536  0.3531  0.4766  0.0451
 1099SOL    HW1 4460   2.679   3.268   3.505  0.6150 -0.8634 -0.7257
 1099SOL    HW2 4461   2.557   3.190   3.460 -0.1423 -0.6815  0.9505
 1100SOL     OW 4462   2.773   6.879   5.839  0.1583  0.3677  0.1909
 1100SOL    HW1 4463   2.821   6.910   5.916 -0.4113 -2.1589  1.7069
 1100SOL    HW2 4464   2.828   6.809   5.804  0.1823  1.1911 -1.4781
 1101SOL     OW 4465   4.974   2.256   7.007 -0.4399 -0.5388  0.7033
 1101SOL    HW1 4466   4.939   2.201   6.936 -0.5161  0.6701 -0.2408
 1101SOL    HW2 4467   5.039   2.312   6.963  0.4149 -0.6080  1.8420
 1102SOL     OW 4468   0.563   4.388   2.960  0.4137 -0.1228  0.0340
 1102SOL    HW1 4469   0.582   4.401   2.867  2.9951  0.9996  0.6417
 1102SOL    HW2 4470   0.491   4.448   2.979  0.7880  0.6494 -0.9436
 1103SOL     OW 4471   7.876   7.235   6.357  0.3075  0.2167  0.3176
 1103SOL    HW1 4472   7.904   7.214   6.268  2.7232  1.0971  0.8168
 1103SOL    HW2 4473   7.905   7.325   6.371 -2.2825  1.0089  1.1657
 1104SOL     OW 4474   6.428   0.288   1.958 -0.2592  0.0494  0.3398
 1104SOL    HW1 4475   6.407   0.287   1.865  2.5081  1.3538 -0.4057
 1104SOL    HW2 4476   6.369   0.353   1.995  0.1547  1.2606 -1.0123
 1105SOL     OW 4477   4.913   5.995   3.481  0.0350  0.2738 -0.3402
 1105SOL    HW1 4478   4.991   5.939   3.479  1.3962  2.0903 -1.9688
 1105SOL    HW2 4479   4.873   5.982   3.396 -0.3584  0.8204 -0.2380
 1106SOL     OW 4480   1.996   1.743   6.041 -0.7200 -0.0956  0.0271
 1106SOL    HW1 4481   2.085   1.709   6.051 -1.3724 -1.4681  1.7259
 1106SOL    HW2 4482   1.997   1.827   6.088 -0.1848  0.1751 -0.4585
 1107SOL     OW 4483   4.683   3.868   4.784 -0.0493  0.0567 -0.2086
 1107SOL    HW1 4484   4.629   3.848   4.860  0.8727  0.6531  0.6324
 1107SOL    HW2 4485   4.622   3.902   4.719 -0.8544 -0.5095  0.2384
 1108SOL     OW 4486   5.883   1.804   7.939 -0.1573  0.2023 -0.1661
 1108SOL    HW1 4487   5.790   1.820   7.953 -0.2776 -1.2100  0.8297
 1108SOL    HW2 4488   5.889   1.712   7.914  0.9964  0.1665  0.1846
 1109SOL     OW 4489   7.277   1.264   4.514 -0.2066 -0.5777  0.1502
 1109SOL    HW1 4490   7.235   1.349   4.531 -0.1500 -0.4337 -0.3969
 1109SOL    HW2 4491   7.346   1.258   4.580  1.1373  0.7539 -1.0424
 1110SOL     OW 4492   3.502   5.783   5.110 -0.1120  0.4101  0.4696
 1110SOL    HW1 4493   3.447   5.828   5.175 -0.9845 -1.3329  0.9875
 1110SOL    HW2 4494   3.441   5.726   5.063  0.7730  0.5766 -0.9202
 1111SOL     OW 4495   8.806   1.850   1.698 -0.0364 -0.5844 -0.2236
 1111SOL    HW1 4496   8.742   1.907   1.655  0.7000  1.0060  0.6769
 1111SOL    HW2 4497   8.821   1.779   1.636 -0.8785  0.2865 -1.4767
 1112SOL     OW 4498   3.901   7.925   3.880  0.0997 -0.2404 -0.4071
 1112SOL    HW1 4499   3.961   7.950   3.951  1.0033 -2.1653 -0.4340
 1112SOL    HW2 4500   3.863   7.842   3.909 -1.6002  0.2891 -0.9998
 1113SOL     OW 4501   3.184   8.071   5.435 -0.0973 -0.3185 -0.1102
 1113SOL    HW1 4502   3.175   8.167   5.431 -0.2272 -0.3255 -0.0062
 1113SOL    HW2 4503   3.273   8.054   5.406 -0.3921 -0.2416 -1.0998
 1114SOL     OW 4504   4.024   7.726   0.342  0.4155 -0.3466  0.0823
 1114SOL    HW1 4505   3.963   7.659   0.310  0.1751 -1.2352  2.2636
 1114SOL    HW2 4506   4.087   7.679   0.395  0.9963  1.0062  0.6511
 1115SOL     OW 4507   7.198   5.530   5.134  0.1723 -0.1393 -0.0505
 1115SOL    HW1 4508   7.232   5.441   5.132  2.0903  0.4787  1.9065
 1115SOL    HW2 4509   7.270   5.584   5.101 -0.3883  0.8410  0.3036
 1116SOL     OW 4510   0.624   0.794   3.831  0.4992  0.3120 -0.1790
 1116SOL    HW1 4511   0.618   0.889   3.821 -0.6020  0.0919 -2.1684
 1116SOL    HW2 4512   0.701   0.768   3.780 -1.5665 -0.1937 -3.3300
 1117SOL     OW 4513   6.981   6.175   2.547 -0.0427 -0.8645 -0.2309
 1117SOL    HW1 4514   7.008   6.266   2.542 -1.5351 -0.4602 -2.0096
 1117SOL    HW2 4515   7.059   6.125   2.526  0.8843 -0.0559  1.1127
 1118SOL     OW 4516   2.399   8.795   0.309  0.1606  0.1157 -0.2181
 1118SOL    HW1 4517   2.322   8.795   0.366 -0.4047 -0.4234 -0.9453
 1118SOL    HW2 4518   2.373   8.738   0.236  0.5210  1.4831 -1.4424
 1119SOL     OW 4519   7.410   3.302   8.389  0.2861 -0.2680 -0.4641
 1119SOL    HW1 4520   7.425   3.396   8.375  0.7260  0.2114  2.5094
 1119SOL    HW2 4521   7.329   3.298   8.440  0.5748 -1.4653 -0.0671
 1120SOL     OW 4522   6.641   5.110   5.644  0.1741  0.3214 -0.4950
 1120SOL    HW1 4523   6.707   5.177   5.626 -1.0638  1.0635 -2.5834
 1120SOL    HW2 4524   6.566   5.159   5.676 -0.6861 -0.0589 -1.8750
 1121SOL     OW 4525   8.796   0.910   3.454  0.1742  0.6024 -0.6069
 1121SOL    HW1 4526   8.880   0.903   3.409  0.2175  0.2670 -0.4729
 1121SOL    HW2 4527   8.759   0.993   3.423 -0.7984 -0.6199 -3.0027
 1122SOL     OW 4528   6.186   3.173   6.125 -0.5836 -0.1009  0.0590
 1122SOL    HW1 4529   6.100   3.205   6.151  0.3484  0.8621  2.1987
 1122SOL    HW2 4530   6.190   3.084   6.159 -0.4177  0.1700  0.7621
 1123SOL     OW 4531   1.210   1.365   2.639 -0.3184 -0.5133  0.0081
 1123SOL    HW1 4532   1.153   1.288   2.639  0.7263 -1.3066 -0.3963
 1123SOL    HW2 4533   1.251   1.365   2.553 -1.5379  1.4747 -0.6370
 1124SOL     OW 4534   1.221   6.327   3.784 -0.5914  0.0398 -0.0649
 1124SOL    HW1 4535   1.267   6.322   3.700 -1.9782 -1.1507 -0.8002
 1124SOL    HW2 4536   1.241   6.243   3.827  1.3806  1.2428  1.5547
 1125SOL     OW 4537   6.269   5.113   6.641 -0.0705 -0.0029 -0.3035
 1125SOL    HW1 4538   6.242   5.203   6.659  1.6241 -0.0516  3.2125
 1125SOL    HW2 4539   6.188   5.062   6.647 -0.8279  1.0850 -0.9565
 1126SOL     OW 4540   8.632   0.581   6.136  0.7198 -0.0376  0.3432
 1126SOL    HW1 4541   8.634   0.570   6.041 -1.0633  0.4881  0.2179
 1126SOL    HW2 4542   8.611   0.494   6.170  2.1998 -0.4234  0.3393
 1127SOL     OW 4543   4.207   3.362   3.927 -0.3747  0.1299  0.5036
 1127SOL    HW1 4544   4.195   3.416   4.005  0.7152  1.2368 -0.0631
 1127SOL    HW2 4545   4.250   3.420   3.864 -0.2911 -1.0496 -0.5625
 1128SOL     OW 4546   4.487   8.159   0.763 -0.2286  0.7416 -0.2920
 1128SOL    HW1 4547   4.544   8.222   0.718  1.2538 -0.0852  0.3478
 1128SOL    HW2 4548   4.526   8.149   0.850 -2.0760  1.0457  0.6244
 1129SOL     OW 4549   4.610   1.415   5.284  0.4445 -0.0945 -0.4131
 1129SOL    HW1 4550   4.685   1.444   5.336  1.2211  0.0393 -1.5853
 1129SOL    HW2 4551   4.545   1.485   5.296  1.1473  0.6388 -0.7585
 1130SOL     OW 4552   3.968   5.536   3.647 -0.0198 -0.3302 -0.5628
 1130SOL    HW1 4553   4.011   5.607   3.695 -1.2331 -0.0297  0.1106
 1130SOL    HW2 4554   3.892   5.577   3.607 -0.5152 -1.1745 -0.5015
 1131SOL     OW 4555   6.118   0.136   0.144 -0.4092 -0.4376 -0.0983
 1131SOL    HW1 4556   6.042   0.078   0.149 -0.7607  0.0222 -0.0974
 1131SOL    HW2 4557   6.086   0.221   0.175  0.1899 -0.3234  0.2300
 1132SOL     OW 4558   6.043   3.126   1.011 -0.4030 -0.1734  0.2233
 1132SOL    HW1 4559   5.966   3.071   0.995 -0.7234  0.9915 -2.8856
 1132SOL    HW2 4560   6.015   3.214   0.986  1.8116  0.3538 -0.5906
 1133SOL     OW 4561   1.951   0.071   6.322 -0.2115  0.5428 -0.1044
 1133SOL    HW1 4562   1.864   0.101   6.295  0.5773  1.9273 -1.2504
 1133SOL    HW2 4563   1.992   0.040   6.241  0.5734  0.4660  0.3142
 1134SOL     OW 4564   4.307   3.132   8.395  0.6527 -0.0065  0.0120
 1134SOL    HW1 4565   4.376   3.154   8.458  0.7701 -1.6661  0.5126
 1134SOL    HW2 4566   4.354   3.093   8.321  0.4506  1.2656 -0.8082
 1135SOL     OW 4567   7.544   6.272   4.989  0.5333  0.2062  0.5948
 1135SOL    HW1 4568   7.478   6.315   5.043 -0.9334  1.4635 -2.0049
 1135SOL    HW2 4569   7.618   6.333   4.987  0.0843  0.7509  0.2070
 1136SOL     OW 4570   1.116   1.449   4.429 -0.6351 -0.5178 -0.5622
 1136SOL    HW1 4571   1.037   1.399   4.449 -1.7858  0.7764 -1.7315
 1136SOL    HW2 4572   1.105   1.479   4.340  0.7844  0.4600 -0.4509
 1137SOL     OW 4573   7.346   2.950   4.982 -0.1749 -0.2399  0.4252
 1137SOL    HW1 4574   7.383   3.015   5.041 -0.1851  1.4370 -1.3128
 1137SOL    HW2 4575   7.257   2.980   4.966 -0.1999 -0.7107 -0.3656
 1138SOL     OW 4576   7.888   8.273   3.790 -0.3807 -0.4091 -0.1284
 1138SOL    HW1 4577   7.980   8.255   3.809 -0.3744  1.7154  2.2724
 1138SOL    HW2 4578   7.840   8.239   3.866 -1.5171 -0.6491 -0.9173
 1139SOL     OW 4579   6.655   7.214   7.183  0.2072  0.0184 -0.5424
 1139SOL    HW1 4580   6.583   7.252   7.233  0.5213  1.4357 -1.1069
 1139SOL    HW2 4581   6.684   7.285   7.126  1.6441 -0.7159 -0.7670
 1140SOL     OW 4582   8.097   8.148   1.194  0.2548  0.4014 -0.1029
 1140SOL    HW1 4583   8.176   8.106   1.229  0.4965  0.2253 -0.8535
 1140SOL    HW2 4584   8.035   8.076   1.181  0.7158  0.2320 -1.5169
 1141SOL     OW 4585   1.697   3.274   2.541 -0.2214 -0.1760  0.0295
 1141SOL    HW1 4586   1.645   3.321   2.606 -0.2308  0.6243 -0.5439
 1141SOL    HW2 4587   1.765   3.229   2.593 -1.3099 -1.0441  0.7547
 1142SOL     OW 4588   3.982   4.760   0.409  0.4338  0.2639  0.0106
 1142SOL    HW1 4589   3.925   4.684   0.398  1.1842 -0.2378 -0.5710
 1142SOL    HW2 4590   4.054   4.728   0.463  1.0173  0.4038 -0.6638
 1143SOL     OW 4591   0.812   4.943   0.822  0.0926 -0.4194  0.5995
 1143SOL    HW1 4592   0.827   4.953   0.916  0.4284 -0.1768  0.5238
 1143SOL    HW2 4593   0.811   5.033   0.788  1.9246 -0.5361  0.0859
 1144SOL     OW 4594   8.115   5.947   8.209  0.5270  0.2072  0.1258
 1144SOL    HW1 4595   8.064   5.940   8.128  1.4652  1.4720 -0.5943
 1144SOL    HW2 4596   8.070   6.015   8.260 -0.4677 -1.0625  1.0119
 1145SOL     OW 4597   4.969   4.502   8.413 -0.4433  0.2018 -0.0624
 1145SOL    HW1 4598   4.986   4.596   8.413 -2.5606  0.6457 -0.2485
 1145SOL    HW2 4599   4.984   4.475   8.323  0.1700  0.3395 -0.0095
 1146SOL     OW 4600   7.716   8.722   8.172  0.3623  0.4690 -0.1503
 1146SOL    HW1 4601   7.648   8.663   8.206 -1.4260  0.9234 -2.6474
 1146SOL    HW2 4602   7.770   8.668   8.115  0.2966  0.6978 -0.4337
 1147SOL     OW 4603   7.657   6.298   5.283 -0.1512 -0.5535  0.2182
 1147SOL    HW1 4604   7.663   6.214   5.328  1.0560 -0.2430  0.7104
 1147SOL    HW2 4605   7.748   6.319   5.260 -0.1683  1.3735  1.6089
 1148SOL     OW 4606   6.517   8.759   5.626 -0.3038 -0.1255 -0.8842
 1148SOL    HW1 4607   6.529   8.832   5.687 -1.6944 -1.0596  0.6145
 1148SOL    HW2 4608   6.433   8.778   5.583 -0.9744 -1.0573 -0.0579
 1149SOL     OW 4609   5.838   1.578   0.208 -0.1562 -0.8796 -0.1546
 1149SOL    HW1 4610   5.809   1.627   0.285 -1.3014 -2.3004  0.3703
 1149SOL    HW2 4611   5.804   1.490   0.222  0.4693 -1.4216 -1.8306
 1150SOL     OW 4612   8.392   5.097   4.886  0.1837 -0.2297 -0.6677
 1150SOL    HW1 4613   8.445   5.128   4.812  1.6309 -0.2990  0.2934
 1150SOL    HW2 4614   8.349   5.176   4.919  2.9571  0.6925  1.0632
 1151SOL     OW 4615   7.888   2.975   7.293  0.0345 -0.2845 -0.7337
 1151SOL    HW1 4616   7.809   2.967   7.346 -0.6660  0.5223 -1.6323
 1151SOL    HW2 4617   7.888   3.066   7.263  0.5030 -0.6759 -1.9724
 1152SOL     OW 4618   3.021   2.844   3.681  0.5238 -0.1123  0.3047
 1152SOL    HW1 4619   2.990   2.857   3.591  1.9708 -1.8504 -0.4907
 1152SOL    HW2 4620   3.036   2.750   3.688 -1.3098 -0.3058  3.0007
 1153SOL     OW 4621   3.764   3.859   0.840  0.4976 -0.9030 -0.5711
 1153SOL    HW1 4622   3.821   3.784   0.856  0.8889 -0.6362 -0.7224
 1153SOL    HW2 4623   3.676   3.822   0.840  0.7143 -1.4203 -1.0152
 1154SOL     OW 4624   2.238   3.863   3.384  0.0275 -0.1534  0.2210
 1154SOL    HW1 4625   2.243   3.957   3.368  1.5545 -0.1712  0.4395
 1154SOL    HW2 4626   2.287   3.823   3.313 -1.1709 -0.8493 -0.2416
 1155SOL     OW 4627   3.532   5.528   6.758  1.3420 -0.3585 -0.7992
 1155SOL    HW1 4628   3.518   5.542   6.852  0.3530 -0.7194 -0.8876
 1155SOL    HW2 4629   3.571   5.441   6.752  2.2659  0.0349 -0.6648
 1156SOL     OW 4630   6.634   6.854   4.550  0.0163  0.5963 -0.5123
 1156SOL    HW1 4631   6.644   6.826   4.641  2.5088  1.8139 -0.3478
 1156SOL    HW2 4632   6.610   6.947   4.556  1.5035  1.0399 -1.0664
 1157SOL     OW 4633   4.273   8.687   0.952 -0.3163  0.6012  0.4589
 1157SOL    HW1 4634   4.213   8.759   0.971 -0.4396  0.8930 -0.9395
 1157SOL    HW2 4635   4.221   8.608   0.966 -0.4957  0.8034  0.9636
 1158SOL     OW 4636   1.080   1.532   2.145 -0.3074  0.0470  0.6579
 1158SOL    HW1 4637   1.151   1.502   2.089 -0.2465  0.1195  0.6966
 1158SOL    HW2 4638   1.072   1.464   2.212 -1.6065 -0.9869 -0.4909
 1159SOL     OW 4639   0.049   0.673   8.356  0.4374 -0.3448 -0.1058
 1159SOL    HW1 4640   0.074   0.736   8.289  0.3477 -0.8591 -0.6269
 1159SOL    HW2 4641  -0.047   0.669   8.350  0.2847  0.7145  1.0652
 1160SOL     OW 4642   8.008   8.658   8.323  0.2547  0.3898  0.4547
 1160SOL    HW1 4643   8.059   8.737   8.308 -1.6448  1.2212 -2.3642
 1160SOL    HW2 4644   7.928   8.689   8.366  0.2913 -0.2760  1.0156
 1161SOL     OW 4645   1.101   2.741   7.685 -0.1986  0.1033  0.3569
 1161SOL    HW1 4646   1.027   2.699   7.729 -0.2697  0.3025  0.4293
 1161SOL    HW2 4647   1.063   2.819   7.644  0.1886  0.8518  1.3852
 1162SOL     OW 4648   3.930   1.714   6.628  0.3311 -0.3513  0.4878
 1162SOL    HW1 4649   3.899   1.632   6.588 -0.8922 -0.3734  1.4213
 1162SOL    HW2 4650   3.968   1.763   6.555  0.7135 -1.5776 -0.1628
 1163SOL     OW 4651   5.629   1.116   6.968  0.7439  0.3396  0.5245
 1163SOL    HW1 4652   5.548   1.117   6.917  0.8428  1.5651  0.3398
 1163SOL    HW2 4653   5.638   1.026   6.999 -1.0765  0.3602  1.2003
 1164SOL     OW 4654   1.521   0.262   1.088  0.3706  0.5959 -0.2041
 1164SOL    HW1 4655   1.549   0.208   1.162  1.1946  0.8110 -0.3540
 1164SOL    HW2 4656   1.534   0.352   1.118 -0.1842  0.7087 -0.2769
 1165SOL     OW 4657   7.021   2.554   7.355 -0.3013 -0.1191  0.0649
 1165SOL    HW1 4658   7.116   2.551   7.357 -0.3183 -2.6531  0.1750
 1165SOL    HW2 4659   6.996   2.504   7.277 -1.5324  0.1597  0.2504
 1166SOL     OW 4660   0.870   2.726   7.072  0.4163  0.3635  0.0423
 1166SOL    HW1 4661   0.812   2.751   7.000  2.1569 -1.1322 -2.0048
 1166SOL    HW2 4662   0.912   2.808   7.099 -0.6175  1.0219 -0.3099
 1167SOL     OW 4663   0.294   7.075   5.692  0.3977 -0.3699  0.1675
 1167SOL    HW1 4664   0.215   7.128   5.676  1.4437  1.5196  0.9852
 1167SOL    HW2 4665   0.278   7.033   5.777  0.2513 -0.0463  0.3007
 1168SOL     OW 4666   1.126   2.542   8.834  0.6674 -0.3430  0.4074
 1168SOL    HW1 4667   1.171   2.626   8.836  0.3219 -0.1607  0.6504
 1168SOL    HW2 4668   1.176   2.489   8.771 -0.7895  0.9950 -2.0212
 1169SOL     OW 4669   0.254   7.555   0.009  0.6292  0.6618  0.3223
 1169SOL    HW1 4670   0.297   7.524   0.088 -1.0271  0.9835  1.3856
 1169SOL    HW2 4671   0.166   7.518   0.012  0.8176 -0.1473 -1.8988
 1170SOL     OW 4672   7.202   1.542   1.927 -0.1975 -0.2989 -0.3257
 1170SOL    HW1 4673   7.294   1.518   1.914 -0.6561 -1.5015 -1.6547
 1170SOL    HW2 4674   7.196   1.631   1.892  0.7474  0.3932  1.1634
 1171SOL     OW 4675   4.415   3.248   0.229  0.0891  0.1024  0.0138
 1171SOL    HW1 4676   4.504   3.241   0.263  0.6823 -0.7417 -1.5834
 1171SOL    HW2 4677   4.383   3.158   0.225  0.0539  0.1557 -1.5827
 1172SOL     OW 4678   4.635   2.550   2.580 -0.1080 -0.6932  0.3826
 1172SOL    HW1 4679   4.686   2.599   2.645 -0.9608 -0.6470  1.0255
 1172SOL    HW2 4680   4.671   2.462   2.583  1.1687 -0.2300 -0.4907
 1173SOL     OW 4681   0.355   7.420   5.359  0.1659 -0.0221  0.2325
 1173SOL    HW1 4682   0.365   7.412   5.264 -0.5559 -1.4880  0.2378
 1173SOL    HW2 4683   0.358   7.329   5.390  0.5449  0.4502  1.6323
 1174SOL     OW 4684   2.889   1.046   2.275  0.0853 -0.1580  0.1100
 1174SOL    HW1 4685   2.958   1.089   2.325 -1.7344  2.8760  0.2432
 1174SOL    HW2 4686   2.935   1.005   2.201  2.0548  1.7445  0.1939
 1175SOL     OW 4687   3.058   4.898   4.477 -0.4084  0.1682  0.2812
 1175SOL    HW1 4688   3.026   4.923   4.564 -2.4398 -1.8010  0.1799
 1175SOL    HW2 4689   2.982   4.861   4.433  1.3564 -2.0272 -1.1085
 1176SOL     OW 4690   4.790   8.309   8.540  0.5076 -0.0671 -0.0081
 1176SOL    HW1 4691   4.776   8.403   8.530  1.3154  0.1905  1.0450
 1176SOL    HW2 4692   4.704   8.273   8.559  0.1212  0.3900 -0.8618
 1177SOL     OW 4693   7.763   2.194   4.331  0.3858 -0.2787  0.5431
 1177SOL    HW1 4694   7.765   2.130   4.401 -0.1632  0.8850  1.6666
 1177SOL    HW2 4695   7.804   2.272   4.369  0.1939  0.3341 -0.4730
 1178SOL     OW 4696   6.930   8.052   2.459  0.7100  0.1872 -0.0924
 1178SOL    HW1 4697   6.897   8.095   2.380  2.0564  0.6929 -0.4037
 1178SOL    HW2 4698   7.025   8.060   2.453  0.9881 -2.0576  0.2892
 1179SOL     OW 4699   8.072   3.830   1.414 -0.3171  0.3009 -0.0377
 1179SOL    HW1 4700   8.163   3.827   1.443 -0.0888  1.0178 -0.6579
 1179SOL    HW2 4701   8.023   3.857   1.492  0.2192  1.6366 -0.1397
 1180SOL     OW 4702   7.933   2.009   1.435  0.1865 -0.0540  0.3421
 1180SOL    HW1 4703   7.970   1.998   1.523  0.3557  0.0764  0.2885
 1180SOL    HW2 4704   7.863   2.073   1.447 -0.3257 -0.6443  0.5256
 1181SOL     OW 4705   2.645   2.368   8.599  0.3008  0.0003 -0.3523
 1181SOL    HW1 4706   2.635   2.278   8.631  1.2205  0.0898  0.1997
 1181SOL    HW2 4707   2.645   2.422   8.678 -0.0151  0.4708 -0.6695
 1182SOL     OW 4708   1.437   7.048   4.924  0.2629  0.8144 -0.4866
 1182SOL    HW1 4709   1.411   7.122   4.869  0.5883  0.8960 -0.5293
 1182SOL    HW2 4710   1.440   6.974   4.863  2.9223  1.3356 -1.0969
 1183SOL     OW 4711   3.437   0.764   2.303  0.5088 -0.2659  0.3853
 1183SOL    HW1 4712   3.442   0.763   2.207  0.6044 -1.5714  0.3783
 1183SOL    HW2 4713   3.464   0.675   2.328  3.0783  0.8078  1.7681
 1184SOL     OW 4714   1.538   5.594   0.837  0.1054  0.1501 -0.5197
 1184SOL    HW1 4715   1.444   5.590   0.821  0.2260 -1.0784 -0.9583
 1184SOL    HW2 4716   1.579   5.573   0.753  0.7669  0.1194 -0.2021
 1185SOL     OW 4717   0.828   8.843   1.715 -0.5736  0.3160  0.3750
 1185SOL    HW1 4718   0.797   8.858   1.625 -1.1175 -2.4294 -0.0047
 1185SOL    HW2 4719   0.885   8.766   1.707  0.8507  1.1120  2.1489
 1186SOL     OW 4720   1.102   0.917   3.345 -0.4224  0.0404 -0.2072
 1186SOL    HW1 4721   1.183   0.897   3.392 -0.9793  0.1857  0.8601
 1186SOL    HW2 4722   1.051   0.969   3.408 -2.0603 -1.4856 -0.1939
 1187SOL     OW 4723   7.873   2.511   2.314  0.2520  0.7472 -0.6792
 1187SOL    HW1 4724   7.898   2.585   2.370 -0.6138 -0.2817  1.1348
 1187SOL    HW2 4725   7.936   2.515   2.242  1.5929  1.9773  0.4784
 1188SOL     OW 4726   3.698   7.495   6.241  0.0254  0.2501  0.3431
 1188SOL    HW1 4727   3.630   7.433   6.212  1.0500 -1.0748  0.6422
 1188SOL    HW2 4728   3.663   7.534   6.320 -2.0167  2.5178 -1.5516
 1189SOL     OW 4729   5.010   4.511   2.161 -0.0093 -0.2362 -0.5022
 1189SOL    HW1 4730   4.941   4.476   2.218 -0.7929 -0.3517 -1.5005
 1189SOL    HW2 4731   5.084   4.527   2.220 -1.0971  0.5011  0.6952
 1190SOL     OW 4732   3.125   2.839   7.332  0.3991 -0.2185  0.3293
 1190SOL    HW1 4733   3.161   2.789   7.406  0.2556 -1.0317 -0.1362
 1190SOL    HW2 4734   3.194   2.902   7.310  0.3492  0.1923  1.2989
 1191SOL     OW 4735   6.992   6.509   7.242  0.0438 -0.4389 -0.3453
 1191SOL    HW1 4736   7.039   6.487   7.322  1.9535  0.2664 -1.1876
 1191SOL    HW2 4737   6.950   6.428   7.214 -0.8993 -0.6168  1.4950
 1192SOL     OW 4738   3.957   7.015   5.359  0.3770  0.0177  0.0904
 1192SOL    HW1 4739   3.966   7.107   5.335  0.9207  0.8700  3.1166
 1192SOL    HW2 4740   3.880   7.013   5.416  0.8739 -1.2334  0.7414
 1193SOL     OW 4741   4.052   4.495   5.929 -0.2844  0.0745  0.5780
 1193SOL    HW1 4742   4.018   4.512   5.842  2.5823 -0.0797 -0.6934
 1193SOL    HW2 4743   3.988   4.437   5.970 -2.1283  0.8546 -1.0450
 1194SOL     OW 4744   0.650   5.800   3.501 -0.1307  0.0413 -0.3082
 1194SOL    HW1 4745   0.725   5.824   3.447 -0.0182 -0.8234 -0.5458
 1194SOL    HW2 4746   0.589   5.873   3.492  0.9746  1.0881  0.4537
 1195SOL     OW 4747   1.162   5.840   1.199  0.7921  0.0098 -0.4301
 1195SOL    HW1 4748   1.164   5.916   1.257 -0.8813 -0.3268  0.1320
 1195SOL    HW2 4749   1.108   5.869   1.125  0.7888 -0.3901 -0.5861
 1196SOL     OW 4750   3.064   8.862   0.002 -0.0924 -0.4017  0.3634
 1196SOL    HW1 4751   2.992   8.837   0.060  0.6443 -0.0424  1.4706
 1196SOL    HW2 4752   3.138   8.809   0.031  0.1126 -0.7264 -0.7243
 1197SOL     OW 4753   5.287   0.191   3.326 -0.0734 -0.0306  0.3901
 1197SOL    HW1 4754   5.269   0.110   3.373 -1.0054  0.3676  0.7408
 1197SOL    HW2 4755   5.227   0.255   3.364 -0.2198  0.5214 -0.7276
 1198SOL     OW 4756   4.539   0.990   4.190  0.4667  0.0089 -0.3725
 1198SOL    HW1 4757   4.631   0.973   4.171  0.5730  1.1421 -0.9556
 1198SOL    HW2 4758   4.509   0.912   4.236  1.6142 -0.5397 -0.5272
 1199SOL     OW 4759   5.457   2.750   1.509 -0.6372 -0.0669  0.1901
 1199SOL    HW1 4760   5.552   2.760   1.500 -0.5722  0.5128  1.3044
 1199SOL    HW2 4761   5.421   2.775   1.424  0.1538  0.6139  0.0475
 1200SOL     OW 4762   2.385   8.449   0.318  0.0072 -0.2891 -0.2952
 1200SOL    HW1 4763   2.363   8.482   0.404  1.6596  0.7853 -0.2337
 1200SOL    HW2 4764   2.335   8.503   0.257  0.0764  0.0363 -0.0615
 1201SOL     OW 4765   1.778   2.574   3.021  0.3986  0.0061  0.5636
 1201SOL    HW1 4766   1.755   2.630   2.947 -2.0466  0.4099  1.5347
 1201SOL    HW2 4767   1.794   2.488   2.982  0.9404  0.6086 -0.5938
 1202SOL     OW 4768   8.686   1.086   2.228  0.2941  0.5502  0.5693
 1202SOL    HW1 4769   8.607   1.106   2.177 -0.1097  2.4958  1.8226
 1202SOL    HW2 4770   8.730   1.017   2.179 -1.1985  0.7669 -1.1901
 1203SOL     OW 4771   5.623   7.009   3.515 -0.0429  0.0340  0.2429
 1203SOL    HW1 4772   5.536   7.048   3.518 -0.9260 -1.5876 -1.6168
 1203SOL    HW2 4773   5.607   6.914   3.515  1.5788 -0.3189 -1.8508
 1204SOL     OW 4774   1.631   8.543   2.329 -0.2125  0.1814  0.2809
 1204SOL    HW1 4775   1.724   8.555   2.310 -0.2498  0.2439  0.1322
 1204SOL    HW2 4776   1.612   8.609   2.395  0.2932 -1.1083  1.7702
 1205SOL     OW 4777   4.075   7.109   1.435  0.3881 -0.1402  0.0604
 1205SOL    HW1 4778   4.017   7.154   1.497  1.9388  0.6446  0.9981
 1205SOL    HW2 4779   4.152   7.087   1.486  0.8426 -1.3920 -1.1052
 1206SOL     OW 4780   0.671   3.630   0.835 -0.1938 -0.4932  0.2411
 1206SOL    HW1 4781   0.700   3.557   0.779  0.7703 -0.9542  1.3140
 1206SOL    HW2 4782   0.577   3.615   0.847 -0.5841 -0.0052 -1.7811
 1207SOL     OW 4783   8.074   3.035   8.307 -0.4403  0.0097  0.8257
 1207SOL    HW1 4784   8.101   3.013   8.218 -0.0789 -3.8187  1.7137
 1207SOL    HW2 4785   7.978   3.028   8.306 -0.3928 -0.6422  0.8727
 1208SOL     OW 4786   4.684   5.934   6.234  0.1653 -0.1492  0.2474
 1208SOL    HW1 4787   4.725   5.848   6.239 -2.4368 -1.4607  1.1657
 1208SOL    HW2 4788   4.706   5.966   6.146  1.2472 -1.7360 -0.1022
 1209SOL     OW 4789   4.442   2.300   1.069  0.2168 -0.4555  0.2442
 1209SOL    HW1 4790   4.352   2.284   1.094  0.1379 -0.7147 -0.1936
 1209SOL    HW2 4791   4.438   2.374   1.008  0.4524  0.4657  1.3015
 1210SOL     OW 4792   1.819   7.607   3.774  0.2027 -0.1561 -0.1799
 1210SOL    HW1 4793   1.724   7.612   3.764  0.2015 -0.0910 -0.1429
 1210SOL    HW2 4794   1.840   7.515   3.763  0.2757 -0.0023 -1.3919
 1211SOL     OW 4795   4.399   6.550   2.523  0.2116 -0.1814 -0.3846
 1211SOL    HW1 4796   4.414   6.612   2.452 -1.7363 -0.4646 -1.0957
 1211SOL    HW2 4797   4.433   6.467   2.490  0.5999 -0.0179 -0.4046
 1212SOL     OW 4798   8.704   8.680   5.596 -0.0645  0.0514 -0.3273
 1212SOL    HW1 4799   8.737   8.735   5.667  1.1575  0.4477 -1.1759
 1212SOL    HW2 4800   8.609   8.682   5.606  0.0868 -1.2927  2.3385
 1213SOL     OW 4801   4.215   7.139   6.930  0.0669 -0.4941 -0.2290
 1213SOL    HW1 4802   4.269   7.183   6.995 -0.3973  1.5433 -1.1428
 1213SOL    HW2 4803   4.221   7.046   6.953  1.4689 -0.0350  1.5102
 1214SOL     OW 4804   3.180   3.959   7.517  0.4390 -0.0678  0.7896
 1214SOL    HW1 4805   3.097   3.914   7.501  0.3498  0.2987  0.1865
 1214SOL    HW2 4806   3.171   4.044   7.473  1.1268 -0.0170  0.7249
 1215SOL     OW 4807   3.453   0.242   8.835 -0.3071 -0.0939 -0.0386
 1215SOL    HW1 4808   3.431   0.154   8.863  1.4065 -0.2313  0.9954
 1215SOL    HW2 4809   3.538   0.234   8.792 -1.4633  0.6100 -2.7350
 1216SOL     OW 4810   1.791   1.894   4.461  0.1245 -0.4595  0.2755
 1216SOL    HW1 4811   1.887   1.901   4.458  0.0115  1.0813 -0.5895
 1216SOL    HW2 4812   1.765   1.876   4.371 -0.4962  0.8893  0.1653
 1217SOL     OW 4813   4.997   1.275   1.632 -0.4203 -0.0105  0.3281
 1217SOL    HW1 4814   5.043   1.267   1.716 -0.5824 -1.9160  0.2916
 1217SOL    HW2 4815   4.958   1.362   1.634 -2.2761 -0.7570  3.2210
 1218SOL     OW 4816   5.601   4.627   6.180 -0.2419  0.1288 -0.3329
 1218SOL    HW1 4817   5.588   4.539   6.217 -0.7289  1.1968  2.2474
 1218SOL    HW2 4818   5.695   4.631   6.163 -0.2908 -1.0569 -1.0160
 1219SOL     OW 4819   8.062   8.561   2.272  0.1328 -0.0125 -0.0329
 1219SOL    HW1 4820   8.143   8.532   2.229 -0.2999  0.2476 -1.0234
 1219SOL    HW2 4821   7.992   8.529   2.216 -0.4088  1.2147 -0.0783
 1220SOL     OW 4822   1.150   2.481   4.073  0.1877 -0.0105 -0.8467
 1220SOL    HW1 4823   1.153   2.461   3.980 -1.3750 -0.5924 -0.7975
 1220SOL    HW2 4824   1.143   2.395   4.116  2.5804  0.0939 -0.0388
 1221SOL     OW 4825   8.075   7.880   1.484  0.5686  0.1973 -0.6323
 1221SOL    HW1 4826   8.040   7.939   1.551  0.3217 -1.1594  0.4996
 1221SOL    HW2 4827   8.146   7.928   1.443 -0.5288  1.7976 -0.7442
 1222SOL     OW 4828   7.331   1.997   4.408 -0.1910 -0.1233 -0.2235
 1222SOL    HW1 4829   7.348   2.066   4.343 -1.7080 -0.6172 -1.2128
 1222SOL    HW2 4830   7.411   1.944   4.409 -0.4305 -0.6101 -2.3730
 1223SOL     OW 4831   6.063   8.024   5.795 -0.2340 -0.1480 -0.0646
 1223SOL    HW1 4832   6.020   8.108   5.783 -1.4083 -0.9307 -1.8171
 1223SOL    HW2 4833   6.144   8.030   5.745 -0.9014 -0.4466 -1.2035
 1224SOL     OW 4834   7.274   8.018   4.627  0.3100  0.6583 -0.3856
 1224SOL    HW1 4835   7.191   8.042   4.668 -1.1885  0.2602 -2.9539
 1224SOL    HW2 4836   7.303   8.099   4.585  0.2301  0.3413 -1.0555
 1225SOL     OW 4837   4.411   3.937   0.123  0.0384 -0.3699  0.3083
 1225SOL    HW1 4838   4.360   3.878   0.067 -0.2849 -0.4912  0.7206
 1225SOL    HW2 4839   4.484   3.883   0.153  1.0755  0.1402 -1.2094
 1226SOL     OW 4840   7.020   3.430   6.706 -0.5044 -0.6105 -0.0153
 1226SOL    HW1 4841   6.929   3.408   6.728 -0.4680 -0.7756 -0.0317
 1226SOL    HW2 4842   7.060   3.452   6.790 -1.3817  2.5769 -0.2785
 1227SOL     OW 4843   2.508   2.783   8.183  0.0448 -0.5203 -0.5185
 1227SOL    HW1 4844   2.600   2.810   8.182 -0.7282  2.4421 -0.7782
 1227SOL    HW2 4845   2.488   2.764   8.092  0.5690 -2.0712 -0.3472
 1228SOL     OW 4846   0.076   2.641   0.103  0.0527  0.0730 -0.3947
 1228SOL    HW1 4847   0.014   2.713   0.094 -0.0510 -0.0296 -0.5040
 1228SOL    HW2 4848   0.129   2.664   0.179 -1.3287 -0.7434  0.8654
 1229SOL     OW 4849   2.658   4.349   2.529 -0.2456  0.2567  0.4612
 1229SOL    HW1 4850   2.603   4.354   2.451 -1.0214 -0.8968  0.9078
 1229SOL    HW2 4851   2.621   4.415   2.588  0.7454  1.5884 -0.3576
 1230SOL     OW 4852   0.729   8.845   5.608  0.3440 -0.0056 -0.6056
 1230SOL    HW1 4853   0.659   8.847   5.673 -0.1249  1.8449 -1.1007
 1230SOL    HW2 4854   0.753   8.937   5.596  0.1285 -0.2288 -3.3214
 1231SOL     OW 4855   6.051   1.411   1.055  0.1576  0.0748 -0.1044
 1231SOL    HW1 4856   6.058   1.379   0.965  0.2039  1.0798 -0.4788
 1231SOL    HW2 4857   6.132   1.459   1.070  0.2751 -0.3309  0.5782
 1232SOL     OW 4858   0.713   0.777   4.956  0.1159 -0.1793  0.3274
 1232SOL    HW1 4859   0.807   0.795   4.962  0.2398 -1.1506  1.9588
 1232SOL    HW2 4860   0.681   0.787   5.046 -1.4984  0.8109 -0.3184
 1233SOL     OW 4861   0.091   0.627   8.051 -0.9464  0.5135  0.1627
 1233SOL    HW1 4862   0.126   0.625   7.962 -1.1291 -0.8835  0.1060
 1233SOL    HW2 4863   0.099   0.719   8.077  3.4748  0.2442  0.4534
 1234SOL     OW 4864   1.437   1.478   3.169  0.0799 -0.0287 -0.2187
 1234SOL    HW1 4865   1.370   1.414   3.193  0.0369 -0.4253 -1.3302
 1234SOL    HW2 4866   1.388   1.553   3.134  0.1920 -0.8540 -2.3146
 1235SOL     OW 4867   0.785   1.354   3.291  0.6032  0.3304 -0.2651
 1235SOL    HW1 4868   0.753   1.303   3.366 -1.5104  1.6463 -0.2235
 1235SOL    HW2 4869   0.756   1.305   3.214  0.0855  0.5717 -0.2236
 1236SOL     OW 4870   3.872   6.046   6.869  0.4449 -0.1073  0.2341
 1236SOL    HW1 4871   3.887   6.138   6.846  0.8033  0.5725  2.8744
 1236SOL    HW2 4872   3.879   6.000   6.786  0.0879  2.2532 -1.2120
 1237SOL     OW 4873   1.999   0.523   0.109 -0.4467  0.3145  0.4280
 1237SOL    HW1 4874   1.929   0.581   0.137 -0.3269  0.4445  0.4596
 1237SOL    HW2 4875   2.070   0.582   0.083 -1.0669  0.2522 -1.5333
 1238SOL     OW 4876   4.078   7.088   7.483 -0.2878  0.9721  0.3143
 1238SOL    HW1 4877   4.016   7.104   7.554 -1.9874  1.2773 -1.1458
 1238SOL    HW2 4878   4.098   6.995   7.488  1.3949  1.3700  2.4929
 1239SOL     OW 4879   5.310   5.664   1.726  0.3345 -0.3414 -0.0084
 1239SOL    HW1 4880   5.367   5.670   1.649 -0.4511 -0.4111 -0.6225
 1239SOL    HW2 4881   5.358   5.610   1.788  1.7131  1.1010  0.2405
 1240SOL     OW 4882   0.713   4.611   8.750  0.4697  0.6515  0.0498
 1240SOL    HW1 4883   0.677   4.561   8.823  2.2161  0.0059  0.5051
 1240SOL    HW2 4884   0.796   4.644   8.782  0.1998  2.3452 -0.8738
 1241SOL     OW 4885   7.433   1.068   5.746  0.3345  0.8560  0.1128
 1241SOL    HW1 4886   7.354   1.025   5.780  1.9066  0.4246  3.6791
 1241SOL    HW2 4887   7.436   1.044   5.653 -2.8066 -0.4576  0.2356
 1242SOL     OW 4888   5.775   4.036   4.362  0.4844 -0.7491 -0.1956
 1242SOL    HW1 4889   5.756   4.125   4.391  1.3468 -0.9401  1.0297
 1242SOL    HW2 4890   5.824   4.047   4.281  0.5126 -0.1152 -0.0956
 1243SOL     OW 4891   1.578   8.271   4.282 -0.0348  0.0244  0.2621
 1243SOL    HW1 4892   1.492   8.229   4.271 -0.5551  1.3334 -0.9903
 1243SOL    HW2 4893   1.635   8.223   4.222 -0.0625 -0.3445  0.5219
 1244SOL     OW 4894   2.921   5.892   7.103 -0.3357 -0.3649 -0.4912
 1244SOL    HW1 4895   2.951   5.945   7.029 -1.2556  0.6016 -0.1854
 1244SOL    HW2 4896   2.870   5.952   7.157 -0.9232 -1.4263  0.1666
 1245SOL     OW 4897   6.765   7.080   1.588 -0.9709 -0.0432  0.2337
 1245SOL    HW1 4898   6.804   7.133   1.657  0.0304  2.3545 -1.9799
 1245SOL    HW2 4899   6.672   7.080   1.608 -0.6510  0.1633  1.8343
 1246SOL     OW 4900   2.513   1.586   0.725 -0.3329 -0.1456  0.2037
 1246SOL    HW1 4901   2.508   1.493   0.702  0.4996 -0.0374 -0.4460
 1246SOL    HW2 4902   2.601   1.596   0.762 -0.3906  0.4004  0.1924
 1247SOL     OW 4903   0.137   1.416   1.522  0.0429  0.0712  0.7070
 1247SOL    HW1 4904   0.101   1.328   1.523  0.3739 -0.0571  1.2416
 1247SOL    HW2 4905   0.225   1.407   1.557  0.1675  0.5758  0.5369
 1248SOL     OW 4906   6.482   2.176   8.839  0.1752  0.1839  0.3099
 1248SOL    HW1 4907   6.421   2.244   8.869 -0.1063  0.4726 -0.8797
 1248SOL    HW2 4908   6.496   2.121   8.917 -1.7884 -0.0323  0.5609
 1249SOL     OW 4909   6.932   0.832   7.156 -0.1137  0.0732  0.2453
 1249SOL    HW1 4910   7.016   0.848   7.113 -1.2304  1.9100 -1.3974
 1249SOL    HW2 4911   6.955   0.816   7.248  1.9831  1.3455  0.0018
 1250SOL     OW 4912   4.598   2.178   7.427 -0.1267  0.7512  0.3881
 1250SOL    HW1 4913   4.634   2.267   7.427 -1.4658  1.3403  2.4399
 1250SOL    HW2 4914   4.505   2.189   7.408 -0.5936 -0.0248  2.0215
 1251SOL     OW 4915   2.630   0.745   5.790  0.7850 -0.5413  0.2332
 1251SOL    HW1 4916   2.720   0.717   5.774  0.5753 -1.7386  1.0508
 1251SOL    HW2 4917   2.579   0.703   5.721  1.1019  2.2178 -1.8992
 1252SOL     OW 4918   5.233   4.849   2.210 -0.6959 -0.1619  0.0427
 1252SOL    HW1 4919   5.166   4.786   2.238 -1.3000  0.8954  1.1033
 1252SOL    HW2 4920   5.205   4.875   2.122 -0.6657 -1.0474 -0.2432
 1253SOL     OW 4921   0.017   4.464   0.923 -0.5146  0.0386  0.6771
 1253SOL    HW1 4922   0.036   4.420   1.006 -1.6263  1.5995  1.8123
 1253SOL    HW2 4923  -0.078   4.479   0.925 -0.8148 -1.0413 -1.4958
 1254SOL     OW 4924   3.563   4.954   0.544 -0.2388  0.0178  0.0949
 1254SOL    HW1 4925   3.588   4.880   0.490 -1.3705 -2.4806  2.7255
 1254SOL    HW2 4926   3.590   4.930   0.633 -0.6345  2.7945  1.0980
 1255SOL     OW 4927   5.329   1.036   8.810 -0.1997  0.7925  0.3770
 1255SOL    HW1 4928   5.377   1.118   8.802 -2.9132  2.7056  1.9876
 1255SOL    HW2 4929   5.260   1.041   8.744  0.4266 -0.9406 -0.4897
 1256SOL     OW 4930   6.246   2.195   5.745 -0.0722 -0.1601 -0.4355
 1256SOL    HW1 4931   6.173   2.185   5.684 -0.2562 -0.0752 -0.2266
 1256SOL    HW2 4932   6.303   2.259   5.702 -0.1062 -0.2426 -0.6087
 1257SOL     OW 4933   2.183   2.739   4.654  0.0903  0.2437 -0.1467
 1257SOL    HW1 4934   2.130   2.809   4.693  1.4358 -0.2183  2.7862
 1257SOL    HW2 4935   2.174   2.666   4.715  0.7453 -1.2806 -1.8181
 1258SOL     OW 4936   5.665   7.545   0.566  0.0408  0.4976 -0.2102
 1258SOL    HW1 4937   5.605   7.571   0.496  1.3277  2.8010 -0.5603
 1258SOL    HW2 4938   5.747   7.524   0.520  0.8663  1.9194  0.5572
 1259SOL     OW 4939   0.539   6.254   0.499 -0.5294  0.0795 -0.2088
 1259SOL    HW1 4940   0.455   6.257   0.546 -0.4578  0.7618 -0.1003
 1259SOL    HW2 4941   0.525   6.192   0.428 -1.1153  0.1400 -0.1537
 1260SOL     OW 4942   3.040   5.896   6.484  0.1747 -0.2051 -0.3246
 1260SOL    HW1 4943   3.115   5.878   6.542  0.4449  2.6857  0.4145
 1260SOL    HW2 4944   3.078   5.897   6.396  1.1597  1.5159  0.0657
 1261SOL     OW 4945   0.109   7.858   4.332  0.0312 -0.4692  0.2114
 1261SOL    HW1 4946   0.130   7.938   4.379  0.0276  0.0252 -0.5958
 1261SOL    HW2 4947   0.151   7.868   4.246 -1.2674 -0.6183 -0.4758
 1262SOL     OW 4948   5.990   0.387   0.190 -0.6429 -0.1939  0.1169
 1262SOL    HW1 4949   5.920   0.430   0.239 -1.3179 -1.9201  0.7481
 1262SOL    HW2 4950   6.014   0.450   0.123  0.3336  2.3077  2.6151
 1263SOL     OW 4951   3.110   7.793   7.953 -0.1668 -1.0448  0.1510
 1263SOL    HW1 4952   3.159   7.797   8.035 -1.7166  0.7957  1.0575
 1263SOL    HW2 4953   3.129   7.876   7.910  0.1620 -1.7489 -1.1224
 1264SOL     OW 4954   8.444   1.747   1.683  0.0336  0.9870 -0.1920
 1264SOL    HW1 4955   8.396   1.666   1.700  0.5702  0.5069 -0.8958
 1264SOL    HW2 4956   8.522   1.740   1.738 -0.8004  1.9017  1.1800
 1265SOL     OW 4957   7.945   2.579   4.701 -0.1259  0.5669  0.0909
 1265SOL    HW1 4958   7.908   2.626   4.775  0.7717  1.0651  0.2453
 1265SOL    HW2 4959   7.880   2.587   4.632 -1.6295 -1.1426  1.2333
 1266SOL     OW 4960   4.709   6.226   5.949  0.5924  0.1973  0.2882
 1266SOL    HW1 4961   4.739   6.267   5.868 -1.7994  1.7994  0.0845
 1266SOL    HW2 4962   4.700   6.133   5.928  2.4315  0.1551 -0.4675
 1267SOL     OW 4963   7.253   8.720   6.896 -0.1466 -0.2311  0.3715
 1267SOL    HW1 4964   7.175   8.673   6.924 -0.5989  0.3249  0.0590
 1267SOL    HW2 4965   7.222   8.806   6.870  0.6771  0.2707  0.9775
 1268SOL     OW 4966   3.912   0.582   4.773  0.1720 -0.5632 -0.6064
 1268SOL    HW1 4967   3.940   0.606   4.685  1.1100 -1.1950 -0.4936
 1268SOL    HW2 4968   3.860   0.503   4.761  1.1707 -1.2427 -0.4950
 1269SOL     OW 4969   3.142   6.033   2.902  0.0735  0.5211 -0.5103
 1269SOL    HW1 4970   3.137   6.123   2.870  2.7650  0.6855 -0.6942
 1269SOL    HW2 4971   3.195   5.988   2.837 -1.0501 -1.1931 -0.2939
 1270SOL     OW 4972   7.847   2.398   8.406 -0.3299 -0.2859 -0.0940
 1270SOL    HW1 4973   7.788   2.411   8.480  1.3108 -0.3906  1.2856
 1270SOL    HW2 4974   7.795   2.351   8.341 -1.1529 -2.4205  1.9672
 1271SOL     OW 4975   2.634   2.114   8.678 -0.4412 -0.3749 -0.2706
 1271SOL    HW1 4976   2.549   2.082   8.649  0.0026 -1.3913 -0.5023
 1271SOL    HW2 4977   2.652   2.065   8.758 -0.4419  0.4370  0.2296
 1272SOL     OW 4978   3.876   8.237   3.180 -0.5258 -0.1083 -0.2068
 1272SOL    HW1 4979   3.886   8.172   3.109  0.9980 -0.2657  0.1168
 1272SOL    HW2 4980   3.966   8.259   3.204 -1.0334  0.4715  1.2155
 1273SOL     OW 4981   1.373   8.006   7.002  0.1769 -0.0557 -0.4410
 1273SOL    HW1 4982   1.465   8.003   6.973  0.5505  1.7151  0.4386
 1273SOL    HW2 4983   1.333   8.075   6.949 -0.5438 -0.5310 -0.5255
 1274SOL     OW 4984   1.722   7.055   6.229  0.1561 -0.1159  0.4029
 1274SOL    HW1 4985   1.660   6.986   6.205 -1.3925  0.9699  1.0560
 1274SOL    HW2 4986   1.733   7.046   6.323  0.5562  0.0384  0.3733
 1275SOL     OW 4987   6.325   1.272   8.251 -0.6908  0.8021 -0.3215
 1275SOL    HW1 4988   6.400   1.314   8.208  0.5638  0.0612  1.0712
 1275SOL    HW2 4989   6.354   1.257   8.341 -2.8504  1.3248  0.5208
 1276SOL     OW 4990   3.463   3.236   5.386 -0.6012  0.2935  0.0000
 1276SOL    HW1 4991   3.557   3.219   5.392 -1.0058 -1.6441  2.1391
 1276SOL    HW2 4992   3.443   3.286   5.465 -1.8847 -2.4936  1.5708
 1277SOL     OW 4993   0.643   2.091   4.528  0.3332  0.9547 -0.9075
 1277SOL    HW1 4994   0.715   2.028   4.523 -1.5333 -1.3807 -0.1853
 1277SOL    HW2 4995   0.613   2.101   4.438 -0.2510 -0.3624 -0.8822
 1278SOL     OW 4996   8.271   1.680   3.046  0.3554 -0.5360 -0.3012
 1278SOL    HW1 4997   8.260   1.728   3.128  0.8269 -0.1907 -0.4321
 1278SOL    HW2 4998   8.356   1.637   3.056  0.2179 -0.8366 -0.4362
 1279SOL     OW 4999   6.005   3.901   3.445 -0.2141  0.1608  0.1067
 1279SOL    HW1 5000   6.010   3.906   3.540  1.2130  2.2494 -0.0113
 1279SOL    HW2 5001   6.094   3.879   3.417 -0.3113  0.7935 -0.7687
 1280SOL     OW 5002   3.193   3.596   4.278 -0.1982 -0.9182  0.3015
 1280SOL    HW1 5003   3.244   3.578   4.199 -0.4735  1.2238 -0.4107
 1280SOL    HW2 5004   3.169   3.688   4.271 -1.6299 -1.1046  2.1000
 1281SOL     OW 5005   6.322   2.914   4.472  0.2271 -0.1732 -0.7943
 1281SOL    HW1 5006   6.235   2.880   4.454 -0.0461  0.6176 -0.9939
 1281SOL    HW2 5007   6.380   2.863   4.415 -0.3388  0.6128 -2.1057
 1282SOL     OW 5008   6.747   3.284   3.583  0.1623  0.4332 -0.2994
 1282SOL    HW1 5009   6.751   3.273   3.488  1.7099 -1.7733 -0.0554
 1282SOL    HW2 5010   6.838   3.292   3.610 -0.2665  1.1832  1.0102
 1283SOL     OW 5011   7.128   0.782   7.681 -0.2031  0.0029  0.8125
 1283SOL    HW1 5012   7.076   0.730   7.742  0.6762 -2.8887 -0.6994
 1283SOL    HW2 5013   7.064   0.823   7.623 -0.9270  0.0093  1.6052
 1284SOL     OW 5014   8.376   0.192   8.411 -0.3315 -0.2681 -0.0639
 1284SOL    HW1 5015   8.287   0.159   8.402 -0.3513 -0.3599  0.4488
 1284SOL    HW2 5016   8.401   0.171   8.501  0.2906 -0.4555 -0.2695
 1285SOL     OW 5017   6.567   4.421   5.462 -0.5243 -0.1403  0.2544
 1285SOL    HW1 5018   6.557   4.486   5.393 -1.6504 -0.7420 -0.1779
 1285SOL    HW2 5019   6.534   4.340   5.424 -0.7521 -0.5840  1.3457
 1286SOL     OW 5020   0.146   0.327   5.303 -0.3932 -0.5860 -0.4272
 1286SOL    HW1 5021   0.122   0.264   5.370  1.5593 -2.8615 -1.6761
 1286SOL    HW2 5022   0.134   0.280   5.220  0.9136  0.7284 -1.4347
 1287SOL     OW 5023   5.009   0.882   7.848 -0.0494 -0.0124  0.3268
 1287SOL    HW1 5024   4.976   0.888   7.938  1.9095 -2.3139  1.3267
 1287SOL    HW2 5025   5.098   0.917   7.853 -0.9208  2.7270 -1.4904
 1288SOL     OW 5026   7.248   8.329   4.960  0.4500 -0.4429 -0.3752
 1288SOL    HW1 5027   7.183   8.321   4.890  1.0582  2.4910 -1.3964
 1288SOL    HW2 5028   7.198   8.357   5.037  0.3774  1.2006 -0.9935
 1289SOL     OW 5029   7.167   6.426   3.032 -0.0669 -0.6310 -0.9344
 1289SOL    HW1 5030   7.182   6.516   3.002  2.8026 -0.7670 -0.2487
 1289SOL    HW2 5031   7.179   6.373   2.953 -0.2642 -0.5153 -1.0441
 1290SOL     OW 5032   1.715   3.522   6.107  0.3555 -0.1539 -0.7209
 1290SOL    HW1 5033   1.630   3.496   6.143 -0.5002  0.5009 -2.1772
 1290SOL    HW2 5034   1.773   3.527   6.183 -1.1245  0.2247  0.4285
 1291SOL     OW 5035   2.456   5.359   4.974  0.3672 -0.0660  0.5555
 1291SOL    HW1 5036   2.457   5.432   5.036  0.8436  0.2563  0.1638
 1291SOL    HW2 5037   2.425   5.397   4.892 -0.7989 -0.6014  0.7141
 1292SOL     OW 5038   3.749   3.568   1.972  0.0896 -0.3448 -0.5153
 1292SOL    HW1 5039   3.767   3.515   2.050 -0.6456  0.1666  0.0035
 1292SOL    HW2 5040   3.807   3.531   1.905 -0.4148 -1.8187 -0.1703
 1293SOL     OW 5041   2.208   0.043   1.569  0.2201  0.1274 -1.1570
 1293SOL    HW1 5042   2.170  -0.028   1.516 -1.0117 -0.1215 -0.0183
 1293SOL    HW2 5043   2.185   0.123   1.522  0.0859 -0.1387 -1.5516
 1294SOL     OW 5044   0.785   7.443   1.110  0.2656 -0.0268 -0.9024
 1294SOL    HW1 5045   0.835   7.472   1.187  0.4926 -0.9872 -0.6783
 1294SOL    HW2 5046   0.709   7.500   1.108  1.1044  1.1379 -0.9548
 1295SOL     OW 5047   5.747   6.636   7.443  0.1166  0.1554 -0.0768
 1295SOL    HW1 5048   5.841   6.639   7.425  0.3083 -0.9768  0.5962
 1295SOL    HW2 5049   5.707   6.611   7.359  0.5039 -0.1421 -0.1766
 1296SOL     OW 5050   1.119   5.760   5.500  0.1970  0.0137 -0.1142
 1296SOL    HW1 5051   1.065   5.720   5.567  0.3454 -0.1535 -0.0947
 1296SOL    HW2 5052   1.187   5.695   5.482  1.9535  1.2281  1.7247
 1297SOL     OW 5053   4.072   2.154   2.660 -0.6161 -0.3661  0.1621
 1297SOL    HW1 5054   4.000   2.155   2.724  1.2732  1.4386  2.4476
 1297SOL    HW2 5055   4.149   2.181   2.710  1.7651 -2.3593 -2.1263
 1298SOL     OW 5056   7.608   3.049   0.243  0.3266 -0.2650 -0.3166
 1298SOL    HW1 5057   7.607   3.003   0.327  0.2955  0.9315  0.3765
 1298SOL    HW2 5058   7.701   3.059   0.223  0.4930  2.1168  1.1791
 1299SOL     OW 5059   5.812   5.845   1.637  0.0034  0.1075  0.0620
 1299SOL    HW1 5060   5.727   5.804   1.623 -0.1447  0.8988 -1.5688
 1299SOL    HW2 5061   5.868   5.808   1.569  0.8429 -0.0434  0.8166
 1300SOL     OW 5062   8.768   3.315   1.288 -0.7321 -0.1813 -0.1359
 1300SOL    HW1 5063   8.734   3.384   1.346  0.8499  0.1904  0.3953
 1300SOL    HW2 5064   8.714   3.238   1.308 -1.0083  0.2712  0.9545
 1301SOL     OW 5065   2.307   5.579   6.230 -0.4718  0.4678  0.2505
 1301SOL    HW1 5066   2.218   5.578   6.194 -0.8184  0.3095  1.1082
 1301SOL    HW2 5067   2.329   5.671   6.240 -0.2545  0.5239 -0.6361
 1302SOL     OW 5068   2.956   3.245   4.549  0.2853 -0.1291  0.3127
 1302SOL    HW1 5069   2.901   3.190   4.605  0.7277 -0.6365  0.2520
 1302SOL    HW2 5070   3.045   3.217   4.567  0.4859  0.2381 -0.0790
 1303SOL     OW 5071   5.901   7.883   2.468  0.4701 -0.5934  0.2475
 1303SOL    HW1 5072   5.964   7.845   2.406  1.1026  0.9370 -0.1015
 1303SOL    HW2 5073   5.890   7.816   2.535 -1.7333 -3.1754 -2.4039
 1304SOL     OW 5074   5.705   7.164   0.449  0.3161  0.2664 -0.0084
 1304SOL    HW1 5075   5.679   7.221   0.521  0.7830  2.2861 -1.3371
 1304SOL    HW2 5076   5.762   7.098   0.489  0.9956  1.6360  1.3944
 1305SOL     OW 5077   6.740   4.649   2.724  0.2230  0.1835 -0.4114
 1305SOL    HW1 5078   6.653   4.644   2.765  0.1072  1.2486 -0.5094
 1305SOL    HW2 5079   6.797   4.684   2.792  0.7389 -1.1585 -0.1294
 1306SOL     OW 5080   3.566   6.348   0.555 -0.1270  0.3082 -0.1262
 1306SOL    HW1 5081   3.548   6.323   0.645  0.8116 -0.3415 -0.1047
 1306SOL    HW2 5082   3.617   6.429   0.562 -2.6723  2.0440 -0.1833
 1307SOL     OW 5083   8.341   6.313   1.099  0.3721 -0.1136  0.8669
 1307SOL    HW1 5084   8.390   6.238   1.132 -0.5532 -0.9389  0.4116
 1307SOL    HW2 5085   8.253   6.303   1.135 -0.0915  0.0888 -0.1591
 1308SOL     OW 5086   7.086   2.963   4.531  0.2126 -0.4155 -0.1515
 1308SOL    HW1 5087   7.100   3.046   4.575 -2.1646  0.2032 -0.4033
 1308SOL    HW2 5088   7.135   2.971   4.449 -0.6409  1.1049 -0.5529
 1309SOL     OW 5089   7.425   1.023   8.632 -0.4918  0.0393  0.8672
 1309SOL    HW1 5090   7.364   0.949   8.629 -1.8353  1.0863  1.3511
 1309SOL    HW2 5091   7.441   1.044   8.540  1.0941 -1.7552  0.6784
 1310SOL     OW 5092   5.443   2.502   0.254  0.1910  0.6656 -0.1696
 1310SOL    HW1 5093   5.533   2.521   0.278 -0.8816  2.2018  3.2888
 1310SOL    HW2 5094   5.398   2.586   0.262 -1.7076 -0.1999 -1.0772
 1311SOL     OW 5095   0.114   5.876   3.414 -0.6611 -0.4858 -0.5206
 1311SOL    HW1 5096   0.072   5.935   3.351 -1.0725  0.0049  0.1951
 1311SOL    HW2 5097   0.043   5.821   3.446 -0.4223 -0.8441 -0.5958
 1312SOL     OW 5098   2.810   5.370   6.462  0.3671 -0.1602 -0.1828
 1312SOL    HW1 5099   2.783   5.320   6.385 -1.2017 -2.4983  1.7243
 1312SOL    HW2 5100   2.729   5.403   6.500  1.1579  1.4591  0.1924
 1313SOL     OW 5101   4.301   2.070   0.501 -0.5470  0.0234 -0.3084
 1313SOL    HW1 5102   4.331   2.121   0.576 -0.3631 -1.7497  0.8961
 1313SOL    HW2 5103   4.206   2.078   0.503 -0.5140  0.3883 -0.1911
 1314SOL     OW 5104   4.402   3.480   1.233 -0.3092 -0.0191  0.1567
 1314SOL    HW1 5105   4.367   3.435   1.156  0.7642  0.8668 -0.8868
 1314SOL    HW2 5106   4.346   3.557   1.243  0.4086  0.6312 -0.6414
 1315SOL     OW 5107   0.129   8.418   7.008  0.4866  0.1461  0.0139
 1315SOL    HW1 5108   0.155   8.509   6.998  2.4438 -0.4382 -0.7989
 1315SOL    HW2 5109   0.036   8.416   6.986  0.5680  1.8341 -0.5807
 1316SOL     OW 5110   3.271   2.262   6.437  0.1762 -0.4397  0.2804
 1316SOL    HW1 5111   3.224   2.204   6.498  0.6484 -1.5609 -0.3923
 1316SOL    HW2 5112   3.204   2.322   6.405 -0.9792 -2.2744 -0.9829
 1317SOL     OW 5113   5.025   0.564   0.355 -0.3013 -0.5547  0.3324
 1317SOL    HW1 5114   5.030   0.482   0.403  0.1258 -0.1520  0.9854
 1317SOL    HW2 5115   4.978   0.542   0.274  2.1688 -2.0639 -0.8124
 1318SOL     OW 5116   6.200   2.653   6.977 -0.4328  0.0714  0.1158
 1318SOL    HW1 5117   6.263   2.585   7.003  0.0789  0.7747  0.7554
 1318SOL    HW2 5118   6.250   2.735   6.981 -0.7120  0.3767 -1.7922
 1319SOL     OW 5119   4.044   5.302   4.456  0.3864  0.5424 -0.1275
 1319SOL    HW1 5120   4.084   5.330   4.374  0.1406 -0.6411 -0.6802
 1319SOL    HW2 5121   4.071   5.368   4.520  1.2696  1.0372 -0.9813
 1320SOL     OW 5122   7.619   5.069   6.510  0.3171  0.2649  0.4132
 1320SOL    HW1 5123   7.639   4.976   6.520 -1.4774 -0.1054  0.8998
 1320SOL    HW2 5124   7.648   5.108   6.592 -0.0595 -0.0830  0.7157
 1321SOL     OW 5125   2.050   1.363   1.462 -0.5820  0.0104 -0.5182
 1321SOL    HW1 5126   2.094   1.280   1.477  0.5034  0.6668  0.0769
 1321SOL    HW2 5127   2.003   1.381   1.543 -2.5191 -0.9888 -1.3704
 1322SOL     OW 5128   6.654   1.607   4.442 -0.2279  0.1715 -0.4408
 1322SOL    HW1 5129   6.720   1.539   4.428 -0.5580  0.0370 -1.4248
 1322SOL    HW2 5130   6.704   1.688   4.449  0.1040 -0.0492 -0.2500
 1323SOL     OW 5131   5.862   2.667   2.699  0.3123 -0.4133 -0.0588
 1323SOL    HW1 5132   5.835   2.722   2.625 -0.9298 -0.4669  0.3303
 1323SOL    HW2 5133   5.865   2.578   2.664  0.9567 -0.2783 -0.3491
 1324SOL     OW 5134   0.058   2.083   3.421 -0.2226 -0.1525 -0.0066
 1324SOL    HW1 5135   0.054   2.176   3.398 -0.1750 -0.3172 -0.7036
 1324SOL    HW2 5136   0.143   2.053   3.387  0.3231 -0.1706  1.3178
 1325SOL     OW 5137   1.732   6.222   3.488 -0.1839 -0.2727  0.9593
 1325SOL    HW1 5138   1.742   6.259   3.400 -1.6426 -0.3344  0.7332
 1325SOL    HW2 5139   1.819   6.190   3.511  0.8782  2.2086  0.6970
 1326SOL     OW 5140   3.811   1.040   2.504 -0.3081  0.1088  0.6993
 1326SOL    HW1 5141   3.839   1.040   2.596  0.4907 -0.3377  0.4729
 1326SOL    HW2 5142   3.721   1.071   2.506 -1.5084 -3.0393  1.9920
 1327SOL     OW 5143   7.729   6.761   1.620  0.1885  0.0538  0.2831
 1327SOL    HW1 5144   7.723   6.675   1.661  0.5434  0.3108  0.8776
 1327SOL    HW2 5145   7.653   6.809   1.652  0.2243  0.1096  0.2848
 1328SOL     OW 5146   8.664   0.980   2.475  0.4283  0.8256 -0.3276
 1328SOL    HW1 5147   8.674   1.013   2.386  1.2111  0.7953 -0.2549
 1328SOL    HW2 5148   8.652   0.886   2.465  2.1568  0.5752 -0.3302
 1329SOL     OW 5149   1.351   1.042   5.329 -0.7786  0.4497 -0.0734
 1329SOL    HW1 5150   1.283   1.109   5.317 -1.1849  0.2972  1.1785
 1329SOL    HW2 5151   1.338   1.011   5.419  0.7388  0.1831  0.0929
 1330SOL     OW 5152   5.883   4.620   1.350  0.2101  0.6123 -0.3946
 1330SOL    HW1 5153   5.942   4.694   1.366 -0.1548  0.9712 -0.6782
 1330SOL    HW2 5154   5.938   4.553   1.309  0.7031  0.4536  0.4961
 1331SOL     OW 5155   7.571   7.922   4.231 -0.3270  0.1280 -0.1121
 1331SOL    HW1 5156   7.566   7.979   4.154  1.1380 -1.4041 -1.4376
 1331SOL    HW2 5157   7.662   7.928   4.260 -1.0654  1.3825  2.1347
 1332SOL     OW 5158   1.871   1.244   2.822 -0.5515 -0.0291  0.4863
 1332SOL    HW1 5159   1.779   1.272   2.821 -0.5981 -0.1933 -0.0778
 1332SOL    HW2 5160   1.883   1.200   2.738  0.6388  1.9352 -0.4346
 1333SOL     OW 5161   5.435   6.369   0.634  0.4324  0.4445 -0.1195
 1333SOL    HW1 5162   5.447   6.386   0.727  0.5711 -0.8925  0.1371
 1333SOL    HW2 5163   5.487   6.436   0.590  1.1331  0.5253  0.7973
 1334SOL     OW 5164   4.480   5.548   5.689  0.6051  0.1434 -0.1693
 1334SOL    HW1 5165   4.535   5.475   5.660  0.8628 -0.6316  2.0660
 1334SOL    HW2 5166   4.479   5.608   5.615  1.6757 -1.4013 -1.5086
 1335SOL     OW 5167   8.829   5.064   1.084 -0.2055  0.1100 -1.4825
 1335SOL    HW1 5168   8.743   5.070   1.043  0.1892  0.6443 -2.2524
 1335SOL    HW2 5169   8.827   5.130   1.154  0.0021  1.0357 -2.3203
 1336SOL     OW 5170   4.657   3.422   7.702  0.2871 -1.1345 -0.1668
 1336SOL    HW1 5171   4.591   3.373   7.652  0.8478 -2.4583  0.3313
 1336SOL    HW2 5172   4.738   3.408   7.654  0.2726  0.3067 -0.6499
 1337SOL     OW 5173   6.518   0.522   4.062  0.2641  0.2415  0.4548
 1337SOL    HW1 5174   6.599   0.571   4.049 -0.1023  0.8062  0.2293
 1337SOL    HW2 5175   6.460   0.583   4.108 -0.0687 -0.1220  0.5273
 1338SOL     OW 5176   1.361   4.753   6.190  0.4332 -0.2940  0.1419
 1338SOL    HW1 5177   1.353   4.786   6.280 -0.8383 -1.8092  0.6221
 1338SOL    HW2 5178   1.352   4.832   6.136 -2.2093  0.2991  1.2471
 1339SOL     OW 5179   6.528   5.083   1.149 -0.7612  0.3834 -0.0821
 1339SOL    HW1 5180   6.569   5.088   1.236  2.2942 -1.1317 -1.2948
 1339SOL    HW2 5181   6.461   5.015   1.158 -1.3771  1.1463  1.3754
 1340SOL     OW 5182   3.647   5.557   0.358 -0.4497  0.5363 -0.2138
 1340SOL    HW1 5183   3.612   5.535   0.444  1.1418 -1.1381  0.0780
 1340SOL    HW2 5184   3.659   5.472   0.315 -2.0140  1.3706 -2.4645
 1341SOL     OW 5185   3.239   0.026   5.638 -0.2726 -0.3752 -0.4726
 1341SOL    HW1 5186   3.317   0.072   5.606 -1.2492  1.8703  0.1574
 1341SOL    HW2 5187   3.269  -0.020   5.717 -0.0188  2.5137  1.2507
 1342SOL     OW 5188   6.777   6.258   5.932 -0.3406  0.2078 -0.2359
 1342SOL    HW1 5189   6.746   6.334   5.882  1.3787  1.6695  0.7897
 1342SOL    HW2 5190   6.734   6.266   6.017  0.9238  0.8971  0.3691
 1343SOL     OW 5191   2.100   8.460   4.669  0.0211  0.3396  0.5103
 1343SOL    HW1 5192   2.121   8.506   4.750  0.5065  0.1719  0.4874
 1343SOL    HW2 5193   2.056   8.380   4.697  0.5615  0.0784  0.6414
 1344SOL     OW 5194   6.570   4.714   8.646  0.3116 -0.7708 -0.4689
 1344SOL    HW1 5195   6.652   4.740   8.687 -0.6873  1.1466  0.4303
 1344SOL    HW2 5196   6.506   4.717   8.716 -0.4074 -3.3046 -0.9086
 1345SOL     OW 5197   0.709   7.281   7.565  0.6802 -0.5787  0.2045
 1345SOL    HW1 5198   0.676   7.371   7.559  2.1392  0.0508  1.1088
 1345SOL    HW2 5199   0.713   7.252   7.474 -0.0945  0.1568 -0.0858
 1346SOL     OW 5200   5.575   4.332   5.501 -0.6596 -0.4430 -0.3365
 1346SOL    HW1 5201   5.500   4.311   5.556 -2.1525  0.6905 -1.8637
 1346SOL    HW2 5202   5.651   4.323   5.560 -2.1915  1.2601  2.0720
 1347SOL     OW 5203   3.472   7.300   2.854  0.4712  0.6327  0.6296
 1347SOL    HW1 5204   3.520   7.226   2.889  3.5614  1.5023 -1.3966
 1347SOL    HW2 5205   3.483   7.293   2.759 -2.1213  1.8292  0.1479
 1348SOL     OW 5206   6.979   5.612   2.293 -0.0114  0.4919  0.0380
 1348SOL    HW1 5207   6.936   5.532   2.322 -0.2741  1.0664  1.3222
 1348SOL    HW2 5208   6.980   5.607   2.197  0.3269 -1.2065  0.1082
 1349SOL     OW 5209   8.143   2.156   4.822  0.2485  0.2836 -0.1703
 1349SOL    HW1 5210   8.178   2.231   4.870  0.2345  0.5980 -0.6390
 1349SOL    HW2 5211   8.140   2.186   4.731 -0.5680  0.0165 -0.2393
 1350SOL     OW 5212   1.151   6.224   3.013  0.1775 -0.5199 -0.2466
 1350SOL    HW1 5213   1.237   6.256   2.985  0.5244 -1.3017 -0.0939
 1350SOL    HW2 5214   1.134   6.272   3.094  0.5920 -0.5658 -0.1296
 1351SOL     OW 5215   1.887   5.952   0.941  0.1775 -0.5019  0.1423
 1351SOL    HW1 5216   1.976   5.987   0.933  0.1009 -0.0928  1.0180
 1351SOL    HW2 5217   1.849   5.965   0.854  0.9076 -0.5039 -0.1860
 1352SOL     OW 5218   0.364   5.252   2.166  0.1490 -0.0413  0.6224
 1352SOL    HW1 5219   0.334   5.161   2.162  2.0908 -0.6914 -0.1523
 1352SOL    HW2 5220   0.324   5.287   2.246 -1.5103 -1.2220  0.3617
 1353SOL     OW 5221   4.805   1.487   0.595  0.1360  0.1670  1.0954
 1353SOL    HW1 5222   4.716   1.509   0.621 -0.4823 -0.7562 -0.1799
 1353SOL    HW2 5223   4.806   1.498   0.500  1.5887  0.8400  1.1540
 1354SOL     OW 5224   4.687   0.052   8.688  0.5785  0.4763 -0.4731
 1354SOL    HW1 5225   4.740  -0.002   8.746 -1.1284  0.1788  0.8814
 1354SOL    HW2 5226   4.733   0.136   8.685  1.2220  0.1733  0.5316
 1355SOL     OW 5227   5.579   1.926   8.855  0.1856  0.5835 -0.4595
 1355SOL    HW1 5228   5.520   1.975   8.798  0.6785  1.5238 -0.1868
 1355SOL    HW2 5229   5.616   1.992   8.914  0.8309 -0.1267 -0.0434
 1356SOL     OW 5230   5.277   1.618   0.788  0.1785 -0.1560 -0.2368
 1356SOL    HW1 5231   5.309   1.535   0.752 -1.4144 -0.3845 -1.2351
 1356SOL    HW2 5232   5.251   1.669   0.711  1.3858  1.4203  0.3325
 1357SOL     OW 5233   8.545   8.847   5.107  0.0090 -0.2934  0.4608
 1357SOL    HW1 5234   8.631   8.808   5.121 -0.5055 -0.9090  2.2291
 1357SOL    HW2 5235   8.509   8.803   5.030  0.3013 -1.8152  1.1700
 1358SOL     OW 5236   1.050   1.283   5.321 -0.0229  0.1328  0.2018
 1358SOL    HW1 5237   1.024   1.195   5.351 -2.6166 -0.7050 -3.7621
 1358SOL    HW2 5238   0.996   1.343   5.372  0.1631 -0.6950  1.4130
 1359SOL     OW 5239   6.686   8.841   3.677  0.0721  0.5902  0.7495
 1359SOL    HW1 5240   6.617   8.792   3.634  2.1405 -1.4843 -0.4577
 1359SOL    HW2 5241   6.718   8.783   3.746  1.2847  1.0215  0.5813
 1360SOL     OW 5242   7.631   2.391   4.573 -0.5087  0.0551 -0.3099
 1360SOL    HW1 5243   7.562   2.325   4.581  0.1440 -0.6086 -0.0598
 1360SOL    HW2 5244   7.713   2.342   4.577 -0.0100  0.8329 -0.5772
 1361SOL     OW 5245   6.432   7.762   4.922  0.2146  0.3140 -0.0792
 1361SOL    HW1 5246   6.497   7.703   4.884 -1.4851 -2.2296  0.6715
 1361SOL    HW2 5247   6.418   7.728   5.011 -1.9735  0.8366 -0.1732
 1362SOL     OW 5248   1.471   4.211   8.099  0.0370  0.0531 -0.5441
 1362SOL    HW1 5249   1.376   4.203   8.088  0.0026 -0.5933  0.1691
 1362SOL    HW2 5250   1.508   4.143   8.042 -0.0292 -1.2171  0.8660
 1363SOL     OW 5251   7.879   0.323   4.735  0.0406  0.3601  0.5456
 1363SOL    HW1 5252   7.866   0.299   4.826 -1.7884 -2.0345 -0.2545
 1363SOL    HW2 5253   7.792   0.318   4.695  1.2091 -2.5378 -2.1159
 1364SOL     OW 5254   2.362   7.578   8.348  0.4969 -0.1427  0.2779
 1364SOL    HW1 5255   2.367   7.662   8.302  1.2553  0.0729  0.7399
 1364SOL    HW2 5256   2.454   7.555   8.365  0.2225  0.7979  3.5300
 1365SOL     OW 5257   5.118   1.395   7.723  0.4850  0.7111  0.2623
 1365SOL    HW1 5258   5.050   1.360   7.780  0.1188 -0.4009 -0.8125
 1365SOL    HW2 5259   5.080   1.391   7.635  1.4316  1.3575 -0.1936
 1366SOL     OW 5260   8.662   6.804   0.908  0.1448  0.6954 -0.3072
 1366SOL    HW1 5261   8.635   6.853   0.985  0.5415  0.7268 -0.1822
 1366SOL    HW2 5262   8.749   6.838   0.887 -0.1048  0.9488 -0.9910
 1367SOL     OW 5263   5.011   4.049   2.600 -0.1642  0.0579  0.4491
 1367SOL    HW1 5264   4.995   3.971   2.653 -0.6813  0.2131  0.5251
 1367SOL    HW2 5265   4.980   4.122   2.653 -1.2952  0.1598 -0.3023
 1368SOL     OW 5266   4.486   0.504   8.391 -0.1918  0.0064  0.3443
 1368SOL    HW1 5267   4.451   0.432   8.444  0.1837 -0.1898  0.3299
 1368SOL    HW2 5268   4.409   0.556   8.367 -0.6327 -1.0755 -0.6809
 1369SOL     OW 5269   5.858   4.496   0.828  0.2643 -0.2652  0.0112
 1369SOL    HW1 5270   5.764   4.492   0.811  0.5395 -1.7462 -1.4041
 1369SOL    HW2 5271   5.895   4.421   0.781  2.3176  1.0338 -0.6108
 1370SOL     OW 5272   7.512   7.650   4.455 -0.0574 -0.0112 -0.1296
 1370SOL    HW1 5273   7.453   7.724   4.438  1.4056  1.1682 -0.3003
 1370SOL    HW2 5274   7.516   7.603   4.372  2.1205  2.1064 -1.3758
 1371SOL     OW 5275   8.025   7.409   1.251  0.2643 -0.2513 -0.0077
 1371SOL    HW1 5276   8.094   7.406   1.184  0.1397 -0.0627 -0.1490
 1371SOL    HW2 5277   8.029   7.499   1.284  0.0788 -0.2371 -0.0255
 1372SOL     OW 5278   0.998   5.507   2.696  0.4464 -0.3497  0.5707
 1372SOL    HW1 5279   1.045   5.446   2.753  1.9353  2.0453  2.0829
 1372SOL    HW2 5280   0.934   5.548   2.753 -0.9157 -0.8148 -0.5616
 1373SOL     OW 5281   8.248   6.693   6.373  0.0942 -0.8334 -0.3053
 1373SOL    HW1 5282   8.197   6.680   6.453  3.1531 -0.7518  1.8567
 1373SOL    HW2 5283   8.266   6.787   6.372  0.6928 -0.9492 -0.6491
 1374SOL     OW 5284   4.706   3.920   0.176  0.1492 -0.0748 -0.0547
 1374SOL    HW1 5285   4.760   3.847   0.205 -0.5131 -0.4137  0.3393
 1374SOL    HW2 5286   4.716   3.919   0.080 -0.5843 -1.2700 -0.1409
 1375SOL     OW 5287   7.286   6.995   5.480 -0.0274 -0.9049  0.1838
 1375SOL    HW1 5288   7.325   6.998   5.568 -0.1115 -1.7209  0.2564
 1375SOL    HW2 5289   7.193   7.016   5.494 -0.0954 -1.2976  0.3278
 1376SOL     OW 5290   5.556   2.653   3.126  0.7675 -0.3163  0.2139
 1376SOL    HW1 5291   5.596   2.645   3.040  1.4325 -1.0519  0.5864
 1376SOL    HW2 5292   5.478   2.708   3.111  0.8970 -0.4016 -0.8335
 1377SOL     OW 5293   6.117   2.932   5.543  0.1599 -0.0617  0.3797
 1377SOL    HW1 5294   6.201   2.977   5.551 -0.3934  1.1131 -0.2501
 1377SOL    HW2 5295   6.069   2.982   5.477 -0.9600 -0.8480  0.5768
 1378SOL     OW 5296   4.732   3.824   1.426  0.2721  0.0369  0.3102
 1378SOL    HW1 5297   4.768   3.870   1.350  0.9688 -0.5909  0.2520
 1378SOL    HW2 5298   4.672   3.760   1.388  0.9369 -0.5618  0.2561
 1379SOL     OW 5299   6.600   8.804   1.616  0.3169 -0.2227 -0.2403
 1379SOL    HW1 5300   6.563   8.872   1.560  1.3658  0.9839  0.4590
 1379SOL    HW2 5301   6.579   8.722   1.573 -2.2266  0.4398 -0.4095
 1380SOL     OW 5302   3.386   1.954   4.406 -0.4518  0.5591 -0.3908
 1380SOL    HW1 5303   3.479   1.939   4.419 -0.5117  0.6046  0.1110
 1380SOL    HW2 5304   3.369   1.923   4.317  0.2112  1.3646 -0.8175
 1381SOL     OW 5305   1.045   1.416   7.074  0.6911 -0.2703 -0.5358
 1381SOL    HW1 5306   1.034   1.347   7.139  1.3140 -1.3784 -1.5554
 1381SOL    HW2 5307   1.117   1.469   7.107  0.1624 -0.0536  0.2928
 1382SOL     OW 5308   8.098   6.247   1.236  0.2803 -0.4971 -0.4025
 1382SOL    HW1 5309   8.014   6.233   1.280  0.6237 -0.2523  0.3364
 1382SOL    HW2 5310   8.157   6.185   1.278  0.5380 -0.4943 -0.7570
 1383SOL     OW 5311   7.997   7.154   1.046 -0.3028 -0.0579 -0.2610
 1383SOL    HW1 5312   8.060   7.170   1.117 -1.1309  0.0452  0.4771
 1383SOL    HW2 5313   8.031   7.204   0.972  0.0510  0.6651  0.3744
 1384SOL     OW 5314   6.070   2.769   2.884 -0.3254 -0.1824  0.0959
 1384SOL    HW1 5315   6.012   2.730   2.818 -1.2696  0.0579  0.7541
 1384SOL    HW2 5316   6.139   2.812   2.833  0.5238 -2.3173 -0.6714
 1385SOL     OW 5317   8.208   0.645   1.378 -0.0273  0.3626 -0.2989
 1385SOL    HW1 5318   8.284   0.631   1.434  0.6708 -0.8251 -1.4852
 1385SOL    HW2 5319   8.167   0.559   1.370 -0.4213  0.6177 -1.1695
 1386SOL     OW 5320   2.877   7.656   3.465 -0.2178  0.2494  0.1144
 1386SOL    HW1 5321   2.940   7.645   3.536  1.1246  1.4494 -0.8421
 1386SOL    HW2 5322   2.813   7.718   3.500 -0.9580 -1.0302  1.1150
 1387SOL     OW 5323   4.140   1.792   0.225 -0.6152 -0.3197 -0.0986
 1387SOL    HW1 5324   4.219   1.825   0.183 -0.0384 -1.0168  0.4028
 1387SOL    HW2 5325   4.158   1.798   0.319 -1.5802  0.4937  0.0509
 1388SOL     OW 5326   5.512   3.533   4.523  0.3605 -0.2537 -0.1824
 1388SOL    HW1 5327   5.526   3.458   4.581 -1.7930 -0.0514  0.6964
 1388SOL    HW2 5328   5.589   3.588   4.536 -0.7578  0.6908  3.9815
 1389SOL     OW 5329   5.107   0.994   4.844 -0.4802 -0.0217 -0.5276
 1389SOL    HW1 5330   5.122   0.961   4.933 -1.4680 -0.4626 -0.5114
 1389SOL    HW2 5331   5.087   1.087   4.856  1.6076  0.4723 -0.5107
 1390SOL     OW 5332   4.402   8.111   5.385  0.0064  0.0494  0.3094
 1390SOL    HW1 5333   4.475   8.160   5.424 -0.7965  0.5903  1.1758
 1390SOL    HW2 5334   4.381   8.045   5.451  0.0347 -0.4368 -0.1625
 1391SOL     OW 5335   6.442   5.871   4.398  0.1075  0.2176 -0.2989
 1391SOL    HW1 5336   6.411   5.823   4.475  1.0993  1.2415  0.7832
 1391SOL    HW2 5337   6.388   5.949   4.395 -2.3502 -1.3768 -2.7751
 1392SOL     OW 5338   7.755   3.428   1.525  0.2585  0.2942  0.3813
 1392SOL    HW1 5339   7.720   3.357   1.472  0.2879 -0.0300  0.7913
 1392SOL    HW2 5340   7.701   3.504   1.502 -0.8085 -0.2263  1.0810
 1393SOL     OW 5341   6.968   0.218   7.300  0.2637 -0.3871  0.3295
 1393SOL    HW1 5342   7.033   0.288   7.309  1.2599 -1.2553  0.1640
 1393SOL    HW2 5343   6.909   0.248   7.231  0.5920  0.3453  0.3637
 1394SOL     OW 5344   3.190   4.263   3.908  0.5839  0.3196  0.0841
 1394SOL    HW1 5345   3.207   4.351   3.874 -1.6337  0.5352 -0.6426
 1394SOL    HW2 5346   3.207   4.205   3.834 -0.2740  0.3963 -0.1869
 1395SOL     OW 5347   2.242   7.982   2.409 -0.0163  0.0627  0.3912
 1395SOL    HW1 5348   2.315   8.025   2.453  0.2103 -0.9624  1.0550
 1395SOL    HW2 5349   2.249   7.890   2.435 -0.7411 -0.3034 -0.6292
 1396SOL     OW 5350   7.604   3.530   3.824  0.2747  0.0822  0.1519
 1396SOL    HW1 5351   7.520   3.576   3.820 -0.9447 -1.2311  4.4297
 1396SOL    HW2 5352   7.590   3.449   3.775 -1.0728 -0.1832  0.9282
 1397SOL     OW 5353   6.763   7.606   6.170  0.1160  0.4470  0.4722
 1397SOL    HW1 5354   6.826   7.672   6.141 -1.5547  2.9929  2.2068
 1397SOL    HW2 5355   6.804   7.565   6.246  0.8121  0.0916 -0.0907
 1398SOL     OW 5356   4.768   1.896   5.482  0.0647  0.2735 -0.4537
 1398SOL    HW1 5357   4.801   1.855   5.402  0.6049 -0.5404  0.1715
 1398SOL    HW2 5358   4.842   1.894   5.542 -1.2178 -2.1302  1.1898
 1399SOL     OW 5359   6.172   4.208   8.760  0.7654 -0.4155 -0.1019
 1399SOL    HW1 5360   6.164   4.174   8.670  2.1194  2.7034 -1.5258
 1399SOL    HW2 5361   6.248   4.163   8.796 -0.9659 -3.2412  0.3797
 1400SOL     OW 5362   8.845   6.238   4.322 -0.5790 -0.1699 -0.3183
 1400SOL    HW1 5363   8.894   6.320   4.312 -1.3186  0.4188  0.6376
 1400SOL    HW2 5364   8.763   6.265   4.365  0.1704 -1.7298  2.2668
 1401SOL     OW 5365   0.850   3.809   0.702  0.1198  0.8351 -0.1615
 1401SOL    HW1 5366   0.935   3.766   0.711  0.5436  0.9905 -2.7749
 1401SOL    HW2 5367   0.788   3.748   0.744  1.1378 -0.7577 -0.8773
 1402SOL     OW 5368   1.989   5.234   3.686 -0.2000 -0.2411 -0.1169
 1402SOL    HW1 5369   2.045   5.176   3.737  1.2111  2.2723  1.3902
 1402SOL    HW2 5370   1.930   5.274   3.750 -0.8804  0.2682 -1.0329
 1403SOL     OW 5371   7.843   1.143   0.732 -0.2644 -0.4707 -0.0541
 1403SOL    HW1 5372   7.819   1.095   0.812  0.3032 -0.9461 -0.1612
 1403SOL    HW2 5373   7.769   1.201   0.716  0.0446  0.3790  1.3955
 1404SOL     OW 5374   2.416   5.551   7.774  0.3255 -0.0504 -0.0535
 1404SOL    HW1 5375   2.366   5.580   7.850  0.6896 -1.8147  0.9124
 1404SOL    HW2 5376   2.483   5.619   7.762  0.4800  0.0845  1.4232
 1405SOL     OW 5377   7.924   8.358   6.694 -0.0226 -0.0302  0.0541
 1405SOL    HW1 5378   7.967   8.436   6.728  1.6799 -0.3430 -1.2150
 1405SOL    HW2 5379   7.916   8.374   6.600  0.0130 -1.2050 -0.1636
 1406SOL     OW 5380   2.730   5.651   7.021 -0.0717  0.3575  0.0024
 1406SOL    HW1 5381   2.647   5.670   7.064  0.4568  1.1946  0.6916
 1406SOL    HW2 5382   2.781   5.604   7.087 -0.1565 -0.5548 -0.5718
 1407SOL     OW 5383   5.023   7.659   2.618  0.7437  0.5006  0.0789
 1407SOL    HW1 5384   4.933   7.636   2.594  0.4928  0.1098  1.3472
 1407SOL    HW2 5385   5.046   7.730   2.558 -0.4464  0.6730 -0.1978
 1408SOL     OW 5386   3.775   7.385   5.020 -0.3706  0.2209  0.3978
 1408SOL    HW1 5387   3.710   7.455   5.018  0.2047  0.8224  1.7648
 1408SOL    HW2 5388   3.727   7.308   5.050 -0.9564  0.0548 -0.8978
 1409SOL     OW 5389   0.432   6.954   8.151 -0.2281 -0.2550 -0.4155
 1409SOL    HW1 5390   0.525   6.971   8.137  0.2180 -0.3875  1.9451
 1409SOL    HW2 5391   0.429   6.867   8.191 -1.3450 -0.1995 -0.3444
 1410SOL     OW 5392   4.726   2.894   3.037 -0.0136  0.3502  0.2550
 1410SOL    HW1 5393   4.649   2.877   3.092  0.6789 -0.8684  0.8769
 1410SOL    HW2 5394   4.795   2.838   3.074  0.5696 -0.2605 -1.6691
 1411SOL     OW 5395   8.648   0.329   5.129 -0.1550  0.2525 -0.7343
 1411SOL    HW1 5396   8.616   0.419   5.137  0.7885  0.4635  1.1218
 1411SOL    HW2 5397   8.572   0.274   5.151 -0.4490  0.6074 -0.8569
 1412SOL     OW 5398   7.514   2.647   4.782  0.6415 -0.2965 -0.0406
 1412SOL    HW1 5399   7.591   2.591   4.770  0.3401 -0.5059 -1.1383
 1412SOL    HW2 5400   7.503   2.653   4.877  2.3975  0.2820  0.1600
 1413SOL     OW 5401   6.440   0.191   2.704 -0.3221  0.4511  1.2052
 1413SOL    HW1 5402   6.457   0.285   2.705  0.2772  0.3837 -0.3511
 1413SOL    HW2 5403   6.454   0.163   2.795  1.9807  1.4517  1.2360
 1414SOL     OW 5404   3.920   5.347   5.724  0.5651 -0.9812 -0.4604
 1414SOL    HW1 5405   3.924   5.281   5.655 -1.3015 -1.6773  0.0436
 1414SOL    HW2 5406   3.847   5.319   5.780  1.0006  0.4436  0.8804
 1415SOL     OW 5407   2.262   0.283   0.745 -0.2871 -0.0729  0.6382
 1415SOL    HW1 5408   2.310   0.329   0.675  1.4005 -2.0499  0.4179
 1415SOL    HW2 5409   2.170   0.294   0.721  0.1074  1.8517 -0.2112
 1416SOL     OW 5410   1.737   6.746   0.241  0.4871  0.5108 -0.3320
 1416SOL    HW1 5411   1.786   6.683   0.189 -0.3866 -0.3515 -0.1307
 1416SOL    HW2 5412   1.804   6.796   0.288  1.1687 -1.0681  0.4361
 1417SOL     OW 5413   1.576   2.805   6.535  0.0807  0.4815 -0.1307
 1417SOL    HW1 5414   1.569   2.841   6.446 -1.0173  1.0973  0.1903
 1417SOL    HW2 5415   1.606   2.715   6.522 -0.4289  0.4424 -1.1545
 1418SOL     OW 5416   6.229   2.130   0.824 -0.1995 -0.4021  0.1786
 1418SOL    HW1 5417   6.231   2.054   0.883  1.5657 -0.5275  0.0090
 1418SOL    HW2 5418   6.163   2.107   0.758 -0.6461 -1.1981  0.8812
 1419SOL     OW 5419   4.667   0.506   6.832  0.6342  0.5209  0.5370
 1419SOL    HW1 5420   4.687   0.425   6.878  2.9577  1.7434  1.8350
 1419SOL    HW2 5421   4.571   0.506   6.825  0.5529 -2.5670 -0.0692
 1420SOL     OW 5422   2.551   3.622   3.048 -0.1000  0.2144 -0.4167
 1420SOL    HW1 5423   2.501   3.696   3.081 -0.0665 -0.7109  1.8750
 1420SOL    HW2 5424   2.642   3.640   3.073  0.1551  0.1421 -1.2610
 1421SOL     OW 5425   2.564   0.853   6.014  0.3480 -0.0993  0.5861
 1421SOL    HW1 5426   2.529   0.937   5.985 -0.2197 -0.3469  0.5495
 1421SOL    HW2 5427   2.591   0.809   5.934 -2.2859 -1.2675  0.2642
 1422SOL     OW 5428   3.952   6.442   1.365 -0.3605  0.3808 -0.0723
 1422SOL    HW1 5429   4.013   6.516   1.360  0.2599 -0.0999  0.1997
 1422SOL    HW2 5430   3.899   6.459   1.442  0.1279  0.3013  0.2930
 1423SOL     OW 5431   7.459   4.807   2.764  0.3053  0.3729  0.1027
 1423SOL    HW1 5432   7.485   4.888   2.808  0.3409  1.3282 -1.5898
 1423SOL    HW2 5433   7.368   4.822   2.739 -0.4760 -1.0767  1.8045
 1424SOL     OW 5434   5.560   3.837   7.549  0.1450  0.4463  1.1629
 1424SOL    HW1 5435   5.588   3.746   7.546 -0.0393  0.3754  1.5412
 1424SOL    HW2 5436   5.634   3.886   7.514 -0.2494  0.0529 -0.3108
 1425SOL     OW 5437   1.467   7.678   4.159  0.1092  0.3849 -0.1077
 1425SOL    HW1 5438   1.523   7.624   4.102 -0.9206  0.0631 -0.8502
 1425SOL    HW2 5439   1.428   7.616   4.220 -0.1709  0.4591 -0.2089
 1426SOL     OW 5440   1.780   2.298   2.923  0.7360  0.1444  0.1257
 1426SOL    HW1 5441   1.868   2.270   2.948  0.7110 -0.0192  0.0276
 1426SOL    HW2 5442   1.726   2.276   2.999  0.4901 -1.1876 -0.4039
 1427SOL     OW 5443   7.965   8.203   6.358  0.4801  0.4031 -0.4072
 1427SOL    HW1 5444   7.972   8.160   6.444 -2.2758 -0.9146 -0.7466
 1427SOL    HW2 5445   7.956   8.130   6.296 -1.8264  1.3610 -1.2929
 1428SOL     OW 5446   7.363   7.750   3.987 -0.3909  0.4669  0.5712
 1428SOL    HW1 5447   7.318   7.785   4.063 -1.4485  0.1791  0.0891
 1428SOL    HW2 5448   7.338   7.658   3.984  0.0193  0.3629  0.1388
 1429SOL     OW 5449   7.960   5.945   4.842 -0.6504  0.5992  0.6034
 1429SOL    HW1 5450   8.032   5.913   4.787  0.1617  0.8366  1.4940
 1429SOL    HW2 5451   7.977   5.908   4.929 -1.4350  0.9124  0.9015
 1430SOL     OW 5452   6.109   4.050   8.078  0.1044  0.1237 -0.2308
 1430SOL    HW1 5453   6.132   4.005   7.996  1.4461 -0.5619  0.4928
 1430SOL    HW2 5454   6.111   3.982   8.144 -0.1673  0.8327  0.5201
 1431SOL     OW 5455   4.244   3.740   1.310  0.2128 -0.2207  0.3467
 1431SOL    HW1 5456   4.240   3.826   1.352 -0.8443 -1.0199  1.9856
 1431SOL    HW2 5457   4.202   3.681   1.372  1.1085 -1.9794 -0.6379
 1432SOL     OW 5458   4.813   1.233   6.951 -0.4532  0.3947  0.4946
 1432SOL    HW1 5459   4.819   1.303   7.015  0.0600  0.9582 -0.1514
 1432SOL    HW2 5460   4.760   1.166   6.993 -1.4247  1.3972  0.9163
 1433SOL     OW 5461   5.057   0.696   2.634  0.0749  0.1672 -0.2062
 1433SOL    HW1 5462   5.127   0.661   2.689  0.7336  1.1266 -0.4005
 1433SOL    HW2 5463   4.992   0.729   2.695  1.0621  1.7502  0.0603
 1434SOL     OW 5464   1.266   0.937   4.968  0.0826  0.2113 -0.1818
 1434SOL    HW1 5465   1.349   0.912   4.926  1.0706  0.5624  1.4737
 1434SOL    HW2 5466   1.275   1.031   4.982 -1.2198  0.5201 -1.2416
 1435SOL     OW 5467   5.889   4.878   1.887 -0.2327  0.3835  0.2589
 1435SOL    HW1 5468   5.816   4.828   1.923  1.0298 -1.0035  0.9800
 1435SOL    HW2 5469   5.897   4.847   1.797  0.9962 -1.3046  0.9124
 1436SOL     OW 5470   3.850   1.683   6.241 -0.4732  0.1149 -0.3695
 1436SOL    HW1 5471   3.852   1.593   6.208 -1.8298 -0.0829  0.0430
 1436SOL    HW2 5472   3.939   1.714   6.229 -0.3878 -0.6942 -2.1580
 1437SOL     OW 5473   5.604   6.215   8.412 -0.8324  0.0437 -0.2779
 1437SOL    HW1 5474   5.696   6.189   8.419 -0.9938 -0.5136 -0.1349
 1437SOL    HW2 5475   5.568   6.156   8.346 -1.0395  0.4011 -0.4859
 1438SOL     OW 5476   1.746   1.089   7.473  0.4164  0.3392  0.2525
 1438SOL    HW1 5477   1.704   1.106   7.557 -1.1303 -0.4376 -0.3143
 1438SOL    HW2 5478   1.839   1.081   7.493  0.2292  1.4186  1.6846
 1439SOL     OW 5479   3.799   5.526   5.271  0.3141  0.7520  0.3207
 1439SOL    HW1 5480   3.808   5.620   5.257 -1.6423  1.2410  1.8053
 1439SOL    HW2 5481   3.725   5.501   5.216 -0.9800  0.7124  1.9857
 1440SOL     OW 5482   3.746   0.961   5.616  0.7407  0.2138 -0.1804
 1440SOL    HW1 5483   3.680   1.030   5.620  0.4450 -0.1126  0.7693
 1440SOL    HW2 5484   3.757   0.932   5.706  2.1318  0.2011 -0.3331
 1441SOL     OW 5485   3.410   0.476   8.386 -0.1471  0.2896  0.1433
 1441SOL    HW1 5486   3.359   0.424   8.324 -0.2014  0.7850 -0.2389
 1441SOL    HW2 5487   3.498   0.440   8.382 -0.1661  0.2764 -0.1778
 1442SOL     OW 5488   5.260   2.264   3.100  0.7205 -0.0729  0.1055
 1442SOL    HW1 5489   5.336   2.321   3.085  0.1761  0.0525 -2.6781
 1442SOL    HW2 5490   5.224   2.294   3.184  1.2300  2.8172 -0.5995
 1443SOL     OW 5491   3.420   2.217   6.220  0.3372  0.4746 -0.0834
 1443SOL    HW1 5492   3.364   2.212   6.297 -0.8402  0.9829 -0.8828
 1443SOL    HW2 5493   3.429   2.311   6.202 -0.6641  0.3528 -1.4205
 1444SOL     OW 5494   4.264   4.313   3.105 -0.1449  0.0213 -0.2492
 1444SOL    HW1 5495   4.298   4.399   3.127 -1.3622  0.2191  0.9366
 1444SOL    HW2 5496   4.259   4.313   3.009  1.4878  0.6070 -0.3698
 1445SOL     OW 5497   2.004   8.807   4.629  0.1455 -0.1448  0.0585
 1445SOL    HW1 5498   2.042   8.848   4.707 -0.9776  2.1326 -0.4921
 1445SOL    HW2 5499   1.920   8.773   4.659  0.6534 -1.2364  0.2925
 1446SOL     OW 5500   5.364   2.436   2.593 -0.1852  0.1673 -0.8555
 1446SOL    HW1 5501   5.420   2.449   2.516 -0.9997 -0.1522 -1.5163
 1446SOL    HW2 5502   5.418   2.465   2.666  1.8590 -2.5503 -1.1173
 1447SOL     OW 5503   0.682   0.492   1.706  0.4753 -0.0667  0.1326
 1447SOL    HW1 5504   0.738   0.565   1.678 -0.9986  0.9259 -0.3170
 1447SOL    HW2 5505   0.634   0.525   1.782 -0.7547 -0.2818 -0.5207
 1448SOL     OW 5506   0.374   6.460   6.867 -0.0539 -0.2216 -0.7873
 1448SOL    HW1 5507   0.429   6.395   6.910 -0.7412 -0.6791 -0.5790
 1448SOL    HW2 5508   0.435   6.523   6.830  0.6048 -0.7252 -0.5713
 1449SOL     OW 5509   2.761   0.815   7.671  0.0982  0.2448 -0.0307
 1449SOL    HW1 5510   2.847   0.796   7.707  0.2018  0.7089 -0.0236
 1449SOL    HW2 5511   2.736   0.735   7.625  0.4578  0.0494  0.1099
 1450SOL     OW 5512   2.427   2.303   3.469 -0.2380 -0.4345  0.0890
 1450SOL    HW1 5513   2.372   2.236   3.508  0.4126 -0.1875  1.5036
 1450SOL    HW2 5514   2.407   2.383   3.519 -0.6234  0.3088 -1.2216
 1451SOL     OW 5515   3.086   4.314   1.968  0.1948 -0.0861  0.2226
 1451SOL    HW1 5516   3.079   4.264   2.049 -0.9977 -1.8945 -0.9224
 1451SOL    HW2 5517   3.122   4.252   1.905 -0.2295  0.8432 -0.9620
 1452SOL     OW 5518   8.618   1.228   8.453  0.1099  0.3618  0.0338
 1452SOL    HW1 5519   8.572   1.162   8.505  0.1815 -0.3377 -0.7672
 1452SOL    HW2 5520   8.571   1.309   8.470  0.8876  0.4231  2.1606
 1453SOL     OW 5521   1.088   3.423   2.160  0.1608  0.2627  0.2124
 1453SOL    HW1 5522   1.013   3.419   2.100 -1.4213 -0.5922  2.1308
 1453SOL    HW2 5523   1.095   3.516   2.182 -1.8205  0.1424  1.6747
 1454SOL     OW 5524   8.302   2.283   8.173 -0.0931  0.8629  0.1527
 1454SOL    HW1 5525   8.246   2.343   8.223 -0.3399  0.7391  0.0261
 1454SOL    HW2 5526   8.290   2.310   8.082 -0.6840  0.2275  0.0363
 1455SOL     OW 5527   4.009   0.522   3.416 -0.0780  0.4084 -0.0975
 1455SOL    HW1 5528   3.944   0.454   3.426 -0.1093  0.5072  0.4228
 1455SOL    HW2 5529   4.065   0.514   3.493 -0.0304  0.9107 -0.0705
 1456SOL     OW 5530   0.699   8.691   1.019 -0.1386  0.4194 -0.1182
 1456SOL    HW1 5531   0.760   8.678   1.091  2.1100  4.0505 -1.1230
 1456SOL    HW2 5532   0.672   8.782   1.026 -2.4584 -0.0077 -2.0325
 1457SOL     OW 5533   2.263   8.501   6.650  0.4580  0.0278  0.1162
 1457SOL    HW1 5534   2.228   8.437   6.588 -0.2875  0.7608 -0.2277
 1457SOL    HW2 5535   2.234   8.470   6.736 -1.2166  0.7189 -0.1766
 1458SOL     OW 5536   6.836   4.233   6.932 -0.2682 -0.0370 -0.1739
 1458SOL    HW1 5537   6.879   4.152   6.961 -2.1656 -0.0393  3.1644
 1458SOL    HW2 5538   6.783   4.207   6.858  2.0532 -0.9356 -1.6403
 1459SOL     OW 5539   8.153   5.494   1.650  0.1930 -0.1569 -0.3579
 1459SOL    HW1 5540   8.117   5.579   1.626 -0.6515 -0.5841 -0.6590
 1459SOL    HW2 5541   8.228   5.482   1.592  1.4967  1.1872  0.9554
 1460SOL     OW 5542   1.596   0.985   5.231 -0.2280 -0.2779  0.6803
 1460SOL    HW1 5543   1.628   1.075   5.222 -0.5360 -0.2440 -0.1856
 1460SOL    HW2 5544   1.513   0.995   5.279 -0.0571 -0.1443  0.9526
 1461SOL     OW 5545   2.839   4.966   1.234  0.2131  0.3820 -0.2070
 1461SOL    HW1 5546   2.810   5.056   1.216  0.3414  0.2272 -1.2525
 1461SOL    HW2 5547   2.818   4.918   1.154 -1.7096 -1.0009  1.0597
 1462SOL     OW 5548   6.035   7.111   2.704  0.7042 -0.0997 -0.1741
 1462SOL    HW1 5549   5.979   7.055   2.757 -0.8090 -1.0650 -2.5939
 1462SOL    HW2 5550   6.104   7.053   2.671  1.9087  0.5939  1.0442
 1463SOL     OW 5551   5.675   8.643   6.401 -0.0395  0.0742  0.4296
 1463SOL    HW1 5552   5.687   8.692   6.482 -0.8088 -1.0118  1.2258
 1463SOL    HW2 5553   5.600   8.587   6.418 -0.8479  0.5286 -1.3918
 1464SOL     OW 5554   6.808   8.700   3.913 -1.0833 -0.3581 -0.5633
 1464SOL    HW1 5555   6.817   8.615   3.957 -2.5449 -0.6823 -0.8291
 1464SOL    HW2 5556   6.896   8.738   3.916 -0.8238 -0.9958  1.3387
 1465SOL     OW 5557   7.450   7.642   4.723 -0.2457 -0.4520  0.0263
 1465SOL    HW1 5558   7.452   7.617   4.631 -2.7605 -0.8131  0.0253
 1465SOL    HW2 5559   7.491   7.729   4.725 -0.1363 -0.4567 -1.4055
 1466SOL     OW 5560   3.522   5.092   5.829  0.0657 -0.2169  0.7707
 1466SOL    HW1 5561   3.473   5.010   5.834 -0.6850  0.1535 -0.1152
 1466SOL    HW2 5562   3.461   5.153   5.788  1.1720  0.3507 -0.0881
 1467SOL     OW 5563   3.244   7.821   3.630  0.1711 -0.0095 -0.4382
 1467SOL    HW1 5564   3.191   7.844   3.553  2.6279 -0.6177 -2.4437
 1467SOL    HW2 5565   3.234   7.727   3.640  0.6683 -0.0942 -0.6934
 1468SOL     OW 5566   2.076   8.424   5.347  0.2672  0.2446 -0.0059
 1468SOL    HW1 5567   2.123   8.506   5.332 -0.3162  0.5347 -0.3275
 1468SOL    HW2 5568   2.093   8.372   5.268  0.9569 -0.1049  0.3713
 1469SOL     OW 5569   8.000   8.683   5.047  0.0574 -0.0262  0.2519
 1469SOL    HW1 5570   8.048   8.735   5.112 -0.5050  1.1631 -0.2638
 1469SOL    HW2 5571   7.988   8.742   4.973  1.1916 -1.5507 -1.1989
 1470SOL     OW 5572   2.675   0.277   3.381 -0.0687 -0.3957 -0.1916
 1470SOL    HW1 5573   2.742   0.209   3.373  1.5839  0.9745  1.2015
 1470SOL    HW2 5574   2.680   0.327   3.300  2.3247  1.1210  0.8019
 1471SOL     OW 5575   1.709   6.384   6.819  0.0577  0.3389  0.0244
 1471SOL    HW1 5576   1.698   6.334   6.738  1.8968  0.1270 -0.1495
 1471SOL    HW2 5577   1.701   6.318   6.888 -1.3439  0.4911  0.0376
 1472SOL     OW 5578   5.471   7.074   6.673 -0.3359  0.2837 -0.1039
 1472SOL    HW1 5579   5.442   7.053   6.584  0.3377 -2.6585  0.2656
 1472SOL    HW2 5580   5.561   7.041   6.677 -0.0349  1.2052  1.4225
 1473SOL     OW 5581   6.550   6.784   0.444  0.4415 -0.1487 -0.5459
 1473SOL    HW1 5582   6.632   6.805   0.400  0.7459 -0.5166 -0.1641
 1473SOL    HW2 5583   6.556   6.830   0.528  1.9281 -3.0797  1.1189
 1474SOL     OW 5584   6.340   7.985   8.042  0.1786  0.1771  0.5859
 1474SOL    HW1 5585   6.275   7.916   8.056 -1.4405  0.6251 -3.4248
 1474SOL    HW2 5586   6.420   7.938   8.017 -0.3461 -0.3094 -0.2092
 1475SOL     OW 5587   0.514   1.915   5.713  0.4235  0.0058  0.4391
 1475SOL    HW1 5588   0.448   1.936   5.779  0.8351  1.3139  0.4605
 1475SOL    HW2 5589   0.490   1.967   5.636  0.4631 -0.8170 -0.1433
 1476SOL     OW 5590   6.304   8.174   3.841  1.1590  0.0578 -0.5285
 1476SOL    HW1 5591   6.225   8.204   3.798  0.3495 -0.7347  0.3557
 1476SOL    HW2 5592   6.335   8.101   3.787  0.5453 -0.4742 -0.1770
 1477SOL     OW 5593   6.258   5.015   2.785 -0.0345  0.5201 -0.2654
 1477SOL    HW1 5594   6.180   5.070   2.782 -0.2782  0.1501 -2.4171
 1477SOL    HW2 5595   6.249   4.956   2.710  2.1722  0.2895 -0.4203
 1478SOL     OW 5596   5.166   7.085   0.858 -0.1341  0.4399 -0.1717
 1478SOL    HW1 5597   5.156   7.180   0.860 -1.3439  0.3647 -1.1078
 1478SOL    HW2 5598   5.088   7.054   0.811  0.8846 -0.9103 -1.0574
 1479SOL     OW 5599   7.886   6.303   2.584  0.4572  0.6188  0.2924
 1479SOL    HW1 5600   7.854   6.252   2.509 -0.0890 -0.2782  1.1185
 1479SOL    HW2 5601   7.871   6.247   2.660  0.5412  1.7127  1.1460
 1480SOL     OW 5602   6.371   1.669   5.422  0.3062 -0.1893  0.6051
 1480SOL    HW1 5603   6.333   1.756   5.412 -0.3745 -0.5671 -0.2591
 1480SOL    HW2 5604   6.303   1.616   5.464  0.2999 -0.5759  0.1225
 1481SOL     OW 5605   8.776   7.352   2.478 -0.1475  0.0684 -0.4775
 1481SOL    HW1 5606   8.826   7.290   2.530 -1.8715 -2.8638 -2.0594
 1481SOL    HW2 5607   8.833   7.376   2.406  0.7353  0.8241  0.4481
 1482SOL     OW 5608   2.113   2.599   0.123 -0.3107 -0.3670 -0.0334
 1482SOL    HW1 5609   2.122   2.689   0.156 -1.7486 -0.2156  0.0298
 1482SOL    HW2 5610   2.103   2.546   0.202 -0.7944 -0.3919 -0.1060
 1483SOL     OW 5611   0.955   8.018   4.007  0.0248 -0.4034  0.2315
 1483SOL    HW1 5612   0.930   8.099   3.963 -0.7437 -0.7550  0.0115
 1483SOL    HW2 5613   0.888   7.954   3.981  1.6975 -1.6650 -1.2357
 1484SOL     OW 5614   3.541   2.279   3.174 -0.6960  0.2176 -0.1721
 1484SOL    HW1 5615   3.593   2.311   3.100  1.0554 -2.2766 -0.1338
 1484SOL    HW2 5616   3.567   2.188   3.184 -2.3459 -0.0748  2.3183
 1485SOL     OW 5617   1.775   5.039   3.078 -0.6679 -0.2494 -0.2183
 1485SOL    HW1 5618   1.829   4.969   3.041  0.1074 -0.0825  0.5596
 1485SOL    HW2 5619   1.818   5.061   3.161 -1.3609  0.5922 -0.0680
 1486SOL     OW 5620   5.552   6.150   7.505  0.3118 -0.8398  0.3350
 1486SOL    HW1 5621   5.516   6.111   7.425  0.2872 -1.2667  0.5530
 1486SOL    HW2 5622   5.476   6.183   7.552  0.4413  0.9914 -0.6201
 1487SOL     OW 5623   7.459   3.553   8.315 -0.0340 -0.6571 -0.1222
 1487SOL    HW1 5624   7.412   3.616   8.370 -0.8660 -1.1162 -0.2869
 1487SOL    HW2 5625   7.551   3.572   8.330 -0.2513 -0.5033  1.1201
 1488SOL     OW 5626   0.375   4.945   6.414 -0.3937 -0.3436 -0.1423
 1488SOL    HW1 5627   0.383   4.970   6.321  0.4719 -0.2204 -0.0445
 1488SOL    HW2 5628   0.465   4.936   6.444 -0.5930  1.6532  1.2371
 1489SOL     OW 5629   1.817   6.484   5.454 -0.0266  0.7838 -0.0403
 1489SOL    HW1 5630   1.869   6.522   5.525  1.3662 -1.9288  0.5607
 1489SOL    HW2 5631   1.726   6.505   5.477  0.4005  0.3331  2.4036
 1490SOL     OW 5632   4.635   4.142   1.321  0.0976  0.3330 -0.0225
 1490SOL    HW1 5633   4.556   4.123   1.270  0.6829  2.2619 -1.7995
 1490SOL    HW2 5634   4.696   4.074   1.296 -0.4131 -0.1303 -0.0316
 1491SOL     OW 5635   0.483   8.320   5.431 -0.4009 -0.2689  0.1976
 1491SOL    HW1 5636   0.483   8.345   5.524 -0.8221  0.7345 -0.0637
 1491SOL    HW2 5637   0.405   8.265   5.422 -1.0578  0.6294  0.1989
 1492SOL     OW 5638   0.103   0.565   8.627 -0.3862  0.5693  0.4396
 1492SOL    HW1 5639   0.036   0.506   8.662 -1.2281  1.3461  0.1728
 1492SOL    HW2 5640   0.065   0.600   8.547  0.0068  1.6365  0.7004
 1493SOL     OW 5641   2.045   7.636   2.744  0.8148  0.0489 -0.1972
 1493SOL    HW1 5642   2.067   7.559   2.691 -0.8755 -0.9027  0.3715
 1493SOL    HW2 5643   1.987   7.688   2.688 -0.6191 -0.7398  0.4888
 1494SOL     OW 5644   2.998   7.173   1.183  0.4384 -0.2781 -0.2555
 1494SOL    HW1 5645   3.007   7.215   1.097  0.5428  1.6939  0.6598
 1494SOL    HW2 5646   2.912   7.202   1.214  0.6052 -0.5844  0.5060
 1495SOL     OW 5647   0.617   1.368   2.413 -0.0563  0.0266 -0.4099
 1495SOL    HW1 5648   0.692   1.381   2.470 -0.6675  1.3700  0.1275
 1495SOL    HW2 5649   0.614   1.273   2.399  2.4492  0.0219 -1.4648
 1496SOL     OW 5650   4.182   6.430   5.925 -0.1025  0.0145 -0.2158
 1496SOL    HW1 5651   4.137   6.485   5.989  0.2392  1.0699 -0.8486
 1496SOL    HW2 5652   4.214   6.355   5.976  1.0480  1.3138  1.0779
 1497SOL     OW 5653   7.664   2.889   0.438 -0.0870 -0.0163  0.1580
 1497SOL    HW1 5654   7.717   2.822   0.395 -2.4765 -1.9560  0.0309
 1497SOL    HW2 5655   7.710   2.908   0.519 -0.5282 -3.7914  1.4686
 1498SOL     OW 5656   2.131   0.994   6.843  0.4427 -0.1246  0.1965
 1498SOL    HW1 5657   2.223   1.020   6.838  0.1112  0.8856 -1.2946
 1498SOL    HW2 5658   2.122   0.925   6.777  0.3322 -0.9316  1.0350
 1499SOL     OW 5659   2.209   3.808   2.116 -0.0618  0.2056 -0.1634
 1499SOL    HW1 5660   2.183   3.729   2.163 -1.2073  0.1790 -0.8168
 1499SOL    HW2 5661   2.196   3.787   2.024 -0.8676  1.3116 -0.3243
 1500SOL     OW 5662   5.339   7.345   2.532  0.0789 -0.2142  0.2101
 1500SOL    HW1 5663   5.359   7.378   2.445 -1.8271  1.4877  0.3158
 1500SOL    HW2 5664   5.416   7.295   2.558  2.2222  2.2178 -1.0190
 1501SOL     OW 5665   3.753   8.500   8.276 -0.3048  0.0532 -0.4580
 1501SOL    HW1 5666   3.779   8.586   8.310  1.2548 -1.5121  2.7536
 1501SOL    HW2 5667   3.663   8.488   8.306 -0.9843  0.9740 -1.9884
 1502SOL     OW 5668   6.584   3.525   1.952  0.1987  0.2118  0.0732
 1502SOL    HW1 5669   6.489   3.527   1.960  0.2424 -0.3985  0.8640
 1502SOL    HW2 5670   6.609   3.617   1.941 -0.5667  0.2624 -1.4654
 1503SOL     OW 5671   5.104   1.234   0.096 -0.0955  0.2562 -0.2051
 1503SOL    HW1 5672   5.065   1.149   0.116 -0.5718  0.3667 -0.6282
 1503SOL    HW2 5673   5.039   1.298   0.124  0.1585  0.4772 -0.1087
 1504SOL     OW 5674   1.571   3.476   6.540 -0.0699  0.2140 -0.4942
 1504SOL    HW1 5675   1.518   3.412   6.492  1.3985 -0.5114 -1.2326
 1504SOL    HW2 5676   1.652   3.482   6.489  0.5071  1.3728  0.5231
 1505SOL     OW 5677   7.587   0.070   6.226  0.1448 -0.1958 -0.0714
 1505SOL    HW1 5678   7.534  -0.002   6.191 -0.1813  0.1896 -0.3790
 1505SOL    HW2 5679   7.529   0.146   6.221  1.0125  0.4081 -1.1852
 1506SOL     OW 5680   6.281   3.088   0.546  0.2217  0.3464 -0.1005
 1506SOL    HW1 5681   6.328   3.048   0.472  1.2738 -0.2150  0.8447
 1506SOL    HW2 5682   6.191   3.056   0.537  0.4046  0.0500 -0.9719
 1507SOL     OW 5683   2.675   5.362   5.162 -0.0065 -0.0640  0.1193
 1507SOL    HW1 5684   2.663   5.285   5.106 -0.7396 -0.4910  0.8431
 1507SOL    HW2 5685   2.590   5.374   5.205  0.1666  1.0130  0.1917
 1508SOL     OW 5686   0.005   4.158   5.212 -0.1642 -0.0680 -0.5815
 1508SOL    HW1 5687  -0.088   4.151   5.191 -0.3443  1.4163 -0.4445
 1508SOL    HW2 5688   0.006   4.197   5.300  0.5358  2.0101 -1.4416
 1509SOL     OW 5689   2.129   5.983   8.315 -0.3543  0.4040  0.2933
 1509SOL    HW1 5690   2.222   5.960   8.313 -1.0680 -2.9764  0.7679
 1509SOL    HW2 5691   2.115   6.033   8.235  1.6237 -0.0503 -0.3977
 1510SOL     OW 5692   4.729   5.212   8.261 -0.2475  0.4600 -0.3695
 1510SOL    HW1 5693   4.752   5.180   8.174  0.0170 -1.0165  0.2184
 1510SOL    HW2 5694   4.784   5.162   8.321 -2.8745 -1.1751  0.8820
 1511SOL     OW 5695   5.541   2.491   6.045  0.5751 -0.0519  0.5200
 1511SOL    HW1 5696   5.591   2.516   6.122  0.3790 -0.3818  0.7583
 1511SOL    HW2 5697   5.455   2.533   6.057  0.5272 -0.1457  0.5077
 1512SOL     OW 5698   6.766   6.543   5.589  0.2552 -0.3171 -0.1650
 1512SOL    HW1 5699   6.718   6.507   5.664  1.1140  2.1323  1.6777
 1512SOL    HW2 5700   6.771   6.637   5.606  3.0846 -0.0650 -1.7888
 1513SOL     OW 5701   7.895   1.603   7.868  0.2479 -0.5281  0.0510
 1513SOL    HW1 5702   7.869   1.542   7.798 -1.4032  0.4144 -0.2211
 1513SOL    HW2 5703   7.987   1.622   7.851 -0.3083  0.3357 -2.4204
 1514SOL     OW 5704   4.302   4.076   4.889  0.0728 -0.5556 -0.3372
 1514SOL    HW1 5705   4.342   4.046   4.808  0.9565  1.7054 -0.8366
 1514SOL    HW2 5706   4.376   4.102   4.945 -0.5635  0.6642 -0.0043
 1515SOL     OW 5707   2.971   1.631   5.424  0.2315  0.3761 -0.8162
 1515SOL    HW1 5708   3.037   1.587   5.478  1.1367  1.8765 -0.6442
 1515SOL    HW2 5709   2.917   1.679   5.487  0.4739  1.0730 -1.1280
 1516SOL     OW 5710   1.923   2.081   7.253  0.3773  0.1396 -0.3284
 1516SOL    HW1 5711   1.844   2.128   7.228  0.2971  1.3862  1.9430
 1516SOL    HW2 5712   1.913   2.067   7.347  1.6613 -2.0702 -0.4587
 1517SOL     OW 5713   4.066   6.182   8.509  0.1434 -0.7243 -0.7919
 1517SOL    HW1 5714   4.135   6.191   8.575  1.4480 -0.6521 -2.0871
 1517SOL    HW2 5715   3.986   6.206   8.554  0.9213 -1.0200  0.8480
 1518SOL     OW 5716   6.377   0.153   6.611 -0.2783  0.6806  0.1669
 1518SOL    HW1 5717   6.464   0.175   6.579 -1.2663  0.3948 -3.0412
 1518SOL    HW2 5718   6.386   0.066   6.650  0.8227  0.5078 -0.4485
 1519SOL     OW 5719   4.392   5.590   7.295 -0.5200 -0.1744  0.6662
 1519SOL    HW1 5720   4.363   5.657   7.233 -1.0437 -1.8404 -0.9912
 1519SOL    HW2 5721   4.313   5.538   7.313  0.0173 -0.7794  1.3384
 1520SOL     OW 5722   4.962   3.415   4.228 -0.2839  0.1296 -0.0763
 1520SOL    HW1 5723   4.966   3.504   4.263  1.8427  0.5840 -1.2635
 1520SOL    HW2 5724   5.014   3.363   4.289 -0.7901 -0.1172  0.1451
 1521SOL     OW 5725   8.566   7.048   6.951 -0.0739  0.2246 -0.6196
 1521SOL    HW1 5726   8.639   7.002   6.992 -0.8649 -0.9947 -0.5215
 1521SOL    HW2 5727   8.560   7.131   6.998  0.0604 -0.4539  0.6472
 1522SOL     OW 5728   8.743   1.600   5.117  0.4990  0.3094  0.5603
 1522SOL    HW1 5729   8.746   1.589   5.212  0.3583  0.6659  0.6079
 1522SOL    HW2 5730   8.654   1.576   5.093  0.3659  0.7530  0.5921
 1523SOL     OW 5731   1.669   7.603   3.213 -0.2297  0.0904 -0.1319
 1523SOL    HW1 5732   1.743   7.630   3.159 -0.5154  0.3722 -0.3866
 1523SOL    HW2 5733   1.702   7.528   3.263 -0.8395 -2.3389 -3.0187
 1524SOL     OW 5734   8.276   4.753   7.206  0.3901  0.3692 -0.1624
 1524SOL    HW1 5735   8.283   4.746   7.110 -0.6162 -0.2969 -0.1973
 1524SOL    HW2 5736   8.299   4.844   7.225  1.4378  0.2936 -0.9462
 1525SOL     OW 5737   1.835   7.657   6.104 -0.1726 -0.5074 -0.4050
 1525SOL    HW1 5738   1.833   7.586   6.167 -0.7087  0.8088  1.1259
 1525SOL    HW2 5739   1.864   7.734   6.154  1.8906  0.0740 -2.3283
 1526SOL     OW 5740   5.327   6.244   2.334  0.0790 -0.0668  0.3897
 1526SOL    HW1 5741   5.336   6.339   2.332 -0.6918  0.0829  2.2009
 1526SOL    HW2 5742   5.403   6.212   2.285  1.3793  1.4488  1.2921
 1527SOL     OW 5743   5.284   8.104   0.899 -0.0269  0.2182  0.2814
 1527SOL    HW1 5744   5.361   8.153   0.870  1.4494 -1.1348  1.7320
 1527SOL    HW2 5745   5.319   8.039   0.961 -2.0947 -1.6005 -0.3509
 1528SOL     OW 5746   6.600   0.059   5.967  0.2476  0.5980  0.1659
 1528SOL    HW1 5747   6.684   0.042   5.923  0.6842  0.5616  0.9986
 1528SOL    HW2 5748   6.543   0.092   5.897 -0.2811 -2.9644 -1.2871
 1529SOL     OW 5749   2.181   4.557   2.955 -0.0327  0.1750  0.3435
 1529SOL    HW1 5750   2.229   4.630   2.993  2.5099 -1.5541  0.7762
 1529SOL    HW2 5751   2.172   4.579   2.862  1.1739  0.8273  0.3650
 1530SOL     OW 5752   7.640   5.558   0.222  0.7543  0.3372  0.2257
 1530SOL    HW1 5753   7.733   5.573   0.206  0.8379 -0.9037 -0.5352
 1530SOL    HW2 5754   7.610   5.506   0.147 -0.3704  0.0571  0.8416
 1531SOL     OW 5755   5.540   3.930   6.620  0.1477  0.4655  0.2780
 1531SOL    HW1 5756   5.504   3.965   6.538 -1.0499 -2.3818 -0.5428
 1531SOL    HW2 5757   5.629   3.905   6.598  0.4887  1.5158  0.4316
 1532SOL     OW 5758   0.523   5.603   1.159  0.1253 -0.1255  0.3884
 1532SOL    HW1 5759   0.437   5.563   1.159  0.3960 -0.7264 -0.8326
 1532SOL    HW2 5760   0.520   5.666   1.231 -2.3525  2.0448 -1.4248
 1533SOL     OW 5761   1.194   6.922   8.264 -0.0548 -0.5487  0.3403
 1533SOL    HW1 5762   1.189   6.911   8.169  1.0434 -1.3517  0.3624
 1533SOL    HW2 5763   1.284   6.899   8.286  0.2368  1.3312  1.3645
 1534SOL     OW 5764   8.591   3.454   6.727 -0.2468 -0.2167  0.1970
 1534SOL    HW1 5765   8.639   3.403   6.793 -0.1126  1.4346  1.4343
 1534SOL    HW2 5766   8.573   3.538   6.770  0.9251  1.4055 -2.2973
 1535SOL     OW 5767   0.845   6.090   8.360  0.1649 -0.0686  0.0296
 1535SOL    HW1 5768   0.866   6.164   8.417 -0.7046 -0.8119  1.3608
 1535SOL    HW2 5769   0.858   6.012   8.415 -1.5163 -0.7635 -0.4878
 1536SOL     OW 5770   7.375   8.495   5.915  0.1886  0.0791  0.3603
 1536SOL    HW1 5771   7.333   8.558   5.973  0.6111  1.1394 -0.4632
 1536SOL    HW2 5772   7.313   8.422   5.911 -1.4170  1.4125 -0.4706
 1537SOL     OW 5773   1.318   4.231   4.332 -0.0623  0.4600 -0.4427
 1537SOL    HW1 5774   1.319   4.286   4.411 -1.2843  1.3715 -1.0211
 1537SOL    HW2 5775   1.277   4.150   4.361  2.3156 -0.4710  0.5705
 1538SOL     OW 5776   6.051   1.424   5.933 -0.4353 -0.1277 -0.0253
 1538SOL    HW1 5777   6.118   1.491   5.943 -0.0684 -0.2780 -1.3531
 1538SOL    HW2 5778   6.011   1.417   6.020 -0.2189  1.5140  0.2389
 1539SOL     OW 5779   8.292   6.934   0.988 -0.1276 -0.8597  0.0076
 1539SOL    HW1 5780   8.382   6.961   0.967 -0.2360  0.3960  1.0337
 1539SOL    HW2 5781   8.243   6.951   0.907  0.1580  0.4823  0.0930
 1540SOL     OW 5782   3.538   6.027   7.207  0.3901  0.1726  0.3658
 1540SOL    HW1 5783   3.517   5.935   7.194 -1.2536  0.6122 -0.4125
 1540SOL    HW2 5784   3.617   6.027   7.261  1.9332 -1.6958 -1.7137
 1541SOL     OW 5785   6.949   4.971   1.167  0.6637  0.4772 -0.1947
 1541SOL    HW1 5786   6.942   5.012   1.081 -3.6362 -1.7498 -1.2247
 1541SOL    HW2 5787   7.014   4.901   1.156  1.4661  1.3431 -1.0635
 1542SOL     OW 5788   0.571   1.412   5.242 -0.4435 -0.4625  0.0681
 1542SOL    HW1 5789   0.598   1.346   5.307 -1.5767 -0.6096  0.4243
 1542SOL    HW2 5790   0.510   1.365   5.185 -1.5363  0.3447  0.5368
 1543SOL     OW 5791   8.040   7.364   5.387 -0.7779  0.3760  0.0268
 1543SOL    HW1 5792   7.944   7.363   5.386 -0.7705 -0.6914 -0.4753
 1543SOL    HW2 5793   8.062   7.377   5.479 -1.4237 -1.1327  0.4316
 1544SOL     OW 5794   6.238   4.048   7.477 -0.5235  0.3830  0.3697
 1544SOL    HW1 5795   6.306   4.061   7.411  0.2372 -0.5670  0.9368
 1544SOL    HW2 5796   6.198   4.134   7.487  0.0889  0.7928 -0.5240
 1545SOL     OW 5797   7.415   8.456   1.783 -0.2937 -0.1662 -0.0794
 1545SOL    HW1 5798   7.378   8.444   1.870 -2.0483  0.8720 -0.6175
 1545SOL    HW2 5799   7.403   8.371   1.740  1.4428 -0.9748  0.9437
 1546SOL     OW 5800   2.036   8.512   6.394  0.5972  0.2241 -0.4846
 1546SOL    HW1 5801   2.037   8.488   6.301  1.3316  0.5586 -0.5689
 1546SOL    HW2 5802   2.067   8.433   6.439  0.4108  0.1214 -0.5314
 1547SOL     OW 5803   8.743   5.694   7.344 -0.0367  0.2086 -0.0249
 1547SOL    HW1 5804   8.652   5.721   7.351  0.0433  0.6899 -0.7444
 1547SOL    HW2 5805   8.783   5.725   7.425  0.3934  3.6929 -1.3876
 1548SOL     OW 5806   4.590   3.673   4.426  0.1022  0.1862  0.3659
 1548SOL    HW1 5807   4.651   3.686   4.498  0.0111 -1.5650  0.7911
 1548SOL    HW2 5808   4.617   3.737   4.360 -0.0562  2.1210  2.0553
 1549SOL     OW 5809   2.235   0.472   6.398  0.3212  0.0072  0.0883
 1549SOL    HW1 5810   2.269   0.485   6.487  1.3566 -0.3192 -0.2506
 1549SOL    HW2 5811   2.150   0.516   6.399  1.4813  2.4174  0.4511
 1550SOL     OW 5812   2.801   3.498   8.206  0.3551 -0.2183  0.4574
 1550SOL    HW1 5813   2.774   3.433   8.141  0.3950  0.6257 -0.4144
 1550SOL    HW2 5814   2.723   3.509   8.261 -0.7516  1.2675 -1.2870
 1551SOL     OW 5815   1.466   8.513   0.789  0.4866 -0.5666  0.3347
 1551SOL    HW1 5816   1.372   8.518   0.809  0.8277 -0.4605  2.1459
 1551SOL    HW2 5817   1.478   8.573   0.716 -0.9840 -1.2308 -0.5019
 1552SOL     OW 5818   4.412   3.655   4.778  0.7662  0.1669 -0.1745
 1552SOL    HW1 5819   4.382   3.735   4.820 -1.5441 -0.2036 -0.9542
 1552SOL    HW2 5820   4.428   3.594   4.850 -0.5958  0.3548  0.3126
 1553SOL     OW 5821   5.498   7.835   6.750 -0.1139  0.0429  0.2825
 1553SOL    HW1 5822   5.471   7.889   6.824  0.9134 -1.6464  1.9646
 1553SOL    HW2 5823   5.593   7.844   6.747 -0.1176 -0.1000 -0.7007
 1554SOL     OW 5824   4.215   5.667   7.700  0.0702 -0.0704 -0.6254
 1554SOL    HW1 5825   4.228   5.701   7.611 -1.3391 -0.3184 -0.9502
 1554SOL    HW2 5826   4.155   5.729   7.741 -1.0581 -1.1389 -0.6096
 1555SOL     OW 5827   2.621   7.576   4.531 -0.2193  0.0265 -0.3550
 1555SOL    HW1 5828   2.600   7.653   4.478 -2.8632  0.3403  0.9814
 1555SOL    HW2 5829   2.705   7.598   4.571  0.4346  0.9862 -2.1406
 1556SOL     OW 5830   6.300   5.571   1.279 -0.2122 -0.0737  0.9084
 1556SOL    HW1 5831   6.354   5.512   1.226  1.4364  0.1249  2.2969
 1556SOL    HW2 5832   6.334   5.659   1.261 -1.1750  0.2516  0.5692
 1557SOL     OW 5833   1.271   5.046   8.027  0.4498 -0.0433  0.0246
 1557SOL    HW1 5834   1.331   4.972   8.036  2.2353  1.3761  0.5672
 1557SOL    HW2 5835   1.322   5.112   7.980 -1.5293  0.4170 -1.6194
 1558SOL     OW 5836   6.149   7.370   6.932  0.2735 -0.2945 -0.5226
 1558SOL    HW1 5837   6.096   7.311   6.878  1.6219 -2.1870  0.1193
 1558SOL    HW2 5838   6.085   7.423   6.980 -0.9621 -0.1700 -2.2068
 1559SOL     OW 5839   6.429   0.301   1.691 -0.4175  0.0664 -0.4294
 1559SOL    HW1 5840   6.511   0.351   1.687  0.0615 -0.5776  0.7807
 1559SOL    HW2 5841   6.421   0.261   1.604  0.4685  0.2751 -0.6186
 1560SOL     OW 5842   6.865   3.734   8.668  0.4990  0.0493 -0.0525
 1560SOL    HW1 5843   6.888   3.789   8.594 -3.2932  0.5130 -1.1077
 1560SOL    HW2 5844   6.859   3.794   8.742  0.3688  0.3428 -0.2979
 1561SOL     OW 5845   1.003   2.180   2.124 -0.0264 -0.1111 -0.2083
 1561SOL    HW1 5846   1.015   2.153   2.215 -2.9762 -2.3411 -0.3204
 1561SOL    HW2 5847   0.943   2.254   2.129  1.2632  0.9657 -0.3017
 1562SOL     OW 5848   3.810   8.314   0.391 -0.4316 -0.2892 -0.3089
 1562SOL    HW1 5849   3.812   8.224   0.424  3.1000 -0.4718 -0.6810
 1562SOL    HW2 5850   3.761   8.363   0.458 -0.4140 -2.0727  1.0881
 1563SOL     OW 5851   5.348   5.079   7.097 -0.2088 -0.6310  0.0624
 1563SOL    HW1 5852   5.334   5.029   7.017  1.0340 -0.4290 -0.3029
 1563SOL    HW2 5853   5.324   5.169   7.073  1.8640 -0.2130 -0.6740
 1564SOL     OW 5854   1.233   4.695   0.744  0.6994  0.3557 -0.4023
 1564SOL    HW1 5855   1.241   4.695   0.649 -1.0081 -2.4311 -0.6495
 1564SOL    HW2 5856   1.174   4.767   0.764  0.9115  0.8335 -1.4508
 1565SOL     OW 5857   1.422   5.728   3.455  0.3581  0.3667 -0.3195
 1565SOL    HW1 5858   1.374   5.745   3.536 -0.8676 -1.5273 -0.5889
 1565SOL    HW2 5859   1.441   5.815   3.420  1.1870  1.2695  2.1098
 1566SOL     OW 5860   5.658   7.116   0.943 -0.3969  0.0421  0.1237
 1566SOL    HW1 5861   5.610   7.197   0.930  0.5470  0.8361  1.3863
 1566SOL    HW2 5862   5.634   7.086   1.031  0.5593 -0.1205  0.3443
 1567SOL     OW 5863   6.044   5.365   5.516 -0.2291 -0.2329 -0.4031
 1567SOL    HW1 5864   6.133   5.350   5.548 -0.0749 -0.8908 -1.1186
 1567SOL    HW2 5865   6.035   5.307   5.441 -0.8129  0.8078 -1.1626
 1568SOL     OW 5866   6.651   4.072   1.986 -0.1309 -0.0436  0.2703
 1568SOL    HW1 5867   6.718   4.087   1.919  0.9656 -0.7926  1.1587
 1568SOL    HW2 5868   6.617   4.160   2.005 -1.0366  0.1004 -1.7943
 1569SOL     OW 5869   1.196   8.255   6.133  0.0636 -0.5018 -0.0871
 1569SOL    HW1 5870   1.245   8.283   6.211 -1.2607  1.0676  0.2343
 1569SOL    HW2 5871   1.222   8.317   6.065 -0.7935 -0.2051 -0.1523
 1570SOL     OW 5872   1.658   0.067   2.635 -0.4383 -0.4214 -0.4711
 1570SOL    HW1 5873   1.614   0.152   2.636 -1.0474 -0.7276 -0.7253
 1570SOL    HW2 5874   1.672   0.047   2.728 -0.6161 -0.2091 -0.3968
 1571SOL     OW 5875   7.660   4.902   6.886 -0.2737 -0.0070  0.3241
 1571SOL    HW1 5876   7.570   4.884   6.857 -0.4650 -2.4166  2.0857
 1571SOL    HW2 5877   7.651   4.978   6.944 -1.3319 -0.5944  0.9816
 1572SOL     OW 5878   5.683   3.079   6.942  0.2979  0.2253  0.1743
 1572SOL    HW1 5879   5.750   3.056   6.878 -0.6429 -0.1135 -0.7115
 1572SOL    HW2 5880   5.600   3.072   6.895 -0.3490  1.0443  1.1317
 1573SOL     OW 5881   1.769   0.440   3.098 -0.1693  1.0127  0.1825
 1573SOL    HW1 5882   1.682   0.400   3.102 -0.5471  1.9318  3.0843
 1573SOL    HW2 5883   1.805   0.430   3.186  2.5733  0.9982 -0.8234
 1574SOL     OW 5884   1.930   7.259   6.272  0.2640 -0.0343 -0.0872
 1574SOL    HW1 5885   1.905   7.168   6.289  0.9362 -0.0568  0.8993
 1574SOL    HW2 5886   1.856   7.297   6.225 -0.9344 -0.5235  1.3526
 1575SOL     OW 5887   7.626   5.155   8.719  0.1952 -0.2464  0.3351
 1575SOL    HW1 5888   7.714   5.180   8.748  0.4254 -2.2554  1.5532
 1575SOL    HW2 5889   7.585   5.119   8.797 -2.0400  1.3639 -0.0128
 1576SOL     OW 5890   7.760   7.630   7.970 -0.1563  0.5840 -0.3097
 1576SOL    HW1 5891   7.695   7.693   7.938  0.2616  1.0538 -0.2329
 1576SOL    HW2 5892   7.712   7.547   7.972 -1.0013  1.0651  0.5213
 1577SOL     OW 5893   3.291   7.514   2.737  0.1732 -0.3299  0.3899
 1577SOL    HW1 5894   3.384   7.498   2.724  0.1430 -0.4958  0.3661
 1577SOL    HW2 5895   3.251   7.427   2.729  0.1521 -0.4425  1.6108
 1578SOL     OW 5896   1.793   0.649   0.233  0.2481 -0.6788  0.0460
 1578SOL    HW1 5897   1.781   0.570   0.286  1.4999 -0.9880 -0.0908
 1578SOL    HW2 5898   1.730   0.640   0.161 -0.9313 -0.6265  1.0478
 1579SOL     OW 5899   5.364   1.069   6.869 -0.3898  0.6776  0.8219
 1579SOL    HW1 5900   5.423   0.999   6.895  2.2824  1.9140 -1.4161
 1579SOL    HW2 5901   5.292   1.065   6.932  2.2840 -0.6053  4.0500
 1580SOL     OW 5902   2.072   4.045   7.870 -0.5763 -0.0146  0.7253
 1580SOL    HW1 5903   2.166   4.034   7.883 -0.4364  0.8099  0.4853
 1580SOL    HW2 5904   2.036   3.957   7.879  0.1425 -0.2496  1.3952
 1581SOL     OW 5905   8.591   6.947   8.730 -0.2649  0.2724  0.5674
 1581SOL    HW1 5906   8.636   6.950   8.815 -0.6756  1.2680  0.7634
 1581SOL    HW2 5907   8.571   7.038   8.710 -1.4349 -0.0762  0.0727
 1582SOL     OW 5908   5.738   3.665   6.866 -0.3438  0.4987  0.0813
 1582SOL    HW1 5909   5.653   3.632   6.836 -1.0225  1.6488  0.6869
 1582SOL    HW2 5910   5.783   3.587   6.899 -1.2664 -0.0817  0.0190
 1583SOL     OW 5911   3.618   5.443   8.033 -0.1687 -0.6446 -0.9801
 1583SOL    HW1 5912   3.571   5.522   8.060  0.3110 -1.0654  1.3938
 1583SOL    HW2 5913   3.568   5.371   8.072  1.0374 -1.2684 -0.5183
 1584SOL     OW 5914   7.571   0.265   0.752  0.0937 -0.2363  0.0870
 1584SOL    HW1 5915   7.612   0.190   0.709  0.8832 -0.1668  0.7030
 1584SOL    HW2 5916   7.582   0.338   0.691 -0.6215 -0.5905 -0.4877
 1585SOL     OW 5917   6.931   8.435   1.654  0.6080  0.8377 -0.3180
 1585SOL    HW1 5918   6.927   8.424   1.559  0.2868 -0.3892 -0.1848
 1585SOL    HW2 5919   7.024   8.446   1.673  0.9026 -0.8756 -0.6087
 1586SOL     OW 5920   7.044   5.151   6.897  0.3092 -0.0397  0.3956
 1586SOL    HW1 5921   6.963   5.151   6.846 -0.1015  1.6153  0.9897
 1586SOL    HW2 5922   7.029   5.086   6.966 -0.4079  0.0465  0.3317
 1587SOL     OW 5923   2.966   4.697   6.991 -0.1302  0.0770 -0.2261
 1587SOL    HW1 5924   2.932   4.660   7.072 -0.6812  1.3305  0.1384
 1587SOL    HW2 5925   2.975   4.622   6.932 -1.0429 -0.6508  0.5345
 1588SOL     OW 5926   3.077   0.258   1.468 -1.0340 -0.0735  0.2837
 1588SOL    HW1 5927   3.139   0.190   1.442 -0.8544  0.8775 -1.9652
 1588SOL    HW2 5928   2.996   0.210   1.485 -0.2366 -1.1087  1.2903
 1589SOL     OW 5929   4.958   0.195   3.227 -0.6950 -0.1692 -0.4462
 1589SOL    HW1 5930   4.996   0.131   3.287  0.1432 -0.0407 -0.8256
 1589SOL    HW2 5931   5.020   0.268   3.227 -2.0325  1.0178  0.6037
 1590SOL     OW 5932   2.825   1.035   2.632  0.1017 -0.2050 -0.6862
 1590SOL    HW1 5933   2.888   0.962   2.632 -0.3177 -0.5879  0.4623
 1590SOL    HW2 5934   2.879   1.114   2.628  0.6432 -0.5451 -0.2556
 1591SOL     OW 5935   0.339   3.965   1.714  0.6941 -0.0531 -0.2540
 1591SOL    HW1 5936   0.368   3.882   1.676  0.2613  0.0699 -0.8821
 1591SOL    HW2 5937   0.311   4.017   1.638 -0.7734 -0.0267  0.2692
 1592SOL     OW 5938   7.782   6.100   7.753  0.0537  0.2455  0.3749
 1592SOL    HW1 5939   7.701   6.094   7.703  0.7848  2.1726 -1.1492
 1592SOL    HW2 5940   7.800   6.010   7.780 -1.0708 -0.6737 -1.7146
 1593SOL     OW 5941   1.780   8.020   6.063 -0.1988 -0.3558 -0.3076
 1593SOL    HW1 5942   1.837   8.087   6.024 -0.3018 -0.2272 -0.2389
 1593SOL    HW2 5943   1.756   7.964   5.990 -2.2511  1.2015 -0.9173
 1594SOL     OW 5944   1.767   4.878   7.755 -0.0321  0.5791  0.2292
 1594SOL    HW1 5945   1.763   4.807   7.691 -0.6481  1.5229 -0.8226
 1594SOL    HW2 5946   1.699   4.939   7.726  0.8706  1.8708  0.7759
 1595SOL     OW 5947   8.158   8.362   6.217 -0.2305  0.5174  0.0063
 1595SOL    HW1 5948   8.159   8.324   6.129  0.3924  1.1956 -0.2932
 1595SOL    HW2 5949   8.092   8.311   6.265  0.7673 -1.1098 -0.2860
 1596SOL     OW 5950   5.400   6.606   8.193  0.3967 -0.0710 -0.2557
 1596SOL    HW1 5951   5.323   6.651   8.157  0.6892  0.2443 -0.4951
 1596SOL    HW2 5952   5.429   6.663   8.265  0.0277 -0.5163  0.2575
 1597SOL     OW 5953   3.915   3.634   8.671  0.1611 -0.0098 -0.1666
 1597SOL    HW1 5954   3.890   3.558   8.620  0.3965 -0.4311  0.3350
 1597SOL    HW2 5955   4.010   3.636   8.667  0.2816 -0.8352  1.3315
 1598SOL     OW 5956   0.435   0.617   1.850 -0.2332  0.2026 -0.1976
 1598SOL    HW1 5957   0.448   0.636   1.757 -0.3783 -1.1804 -0.5305
 1598SOL    HW2 5958   0.357   0.668   1.874 -0.7045 -0.0800 -1.0691
 1599SOL     OW 5959   1.529   6.601   7.417 -0.2270 -0.2347  0.5599
 1599SOL    HW1 5960   1.573   6.685   7.409  0.8270 -0.6447  1.7510
 1599SOL    HW2 5961   1.526   6.566   7.327  1.0003  0.2472  0.3178
 1600SOL     OW 5962   7.465   2.001   2.269 -0.6628 -0.2883 -0.2010
 1600SOL    HW1 5963   7.446   1.995   2.176  0.5425  1.7146 -0.6570
 1600SOL    HW2 5964   7.417   2.079   2.298 -0.7545 -0.6997  0.7801
 1601SOL     OW 5965   6.420   6.688   2.721  0.5060 -0.4168 -0.2351
 1601SOL    HW1 5966   6.342   6.637   2.700  0.0791 -0.2469  0.8697
 1601SOL    HW2 5967   6.488   6.623   2.737  0.4749 -0.5772 -0.7293
 1602SOL     OW 5968   2.646   3.245   6.309  0.2052 -0.2354 -0.6214
 1602SOL    HW1 5969   2.648   3.165   6.257  1.7716 -1.7020  1.5282
 1602SOL    HW2 5970   2.739   3.266   6.324 -0.1589  0.0805  1.5375
 1603SOL     OW 5971   2.377   7.006   4.868 -0.3538  0.3017  0.3987
 1603SOL    HW1 5972   2.451   6.956   4.834 -0.5576 -0.5939  1.2142
 1603SOL    HW2 5973   2.415   7.088   4.900 -0.3335  1.9745 -3.3557
 1604SOL     OW 5974   5.411   7.806   6.309 -0.1501  0.1204 -0.3815
 1604SOL    HW1 5975   5.474   7.739   6.280  0.7979  1.4336 -1.4377
 1604SOL    HW2 5976   5.328   7.780   6.268  0.7364  0.8760 -2.8120
 1605SOL     OW 5977   8.492   3.803   8.802 -0.1228  0.5328  0.5288
 1605SOL    HW1 5978   8.398   3.806   8.822 -0.2113  0.6039  0.1068
 1605SOL    HW2 5979   8.496   3.792   8.707  0.2867 -0.3828  0.6381
 1606SOL     OW 5980   6.934   3.855   2.777  0.1252  0.0679 -0.1142
 1606SOL    HW1 5981   6.904   3.945   2.792  1.2888  0.5022 -0.2925
 1606SOL    HW2 5982   7.029   3.863   2.769  0.3251 -1.2975  0.6947
 1607SOL     OW 5983   0.990   0.284   1.173  0.7895 -0.2682 -1.0175
 1607SOL    HW1 5984   0.901   0.292   1.138  0.1081 -2.2516  0.1270
 1607SOL    HW2 5985   1.030   0.214   1.121  0.9200 -0.8913 -0.0954
 1608SOL     OW 5986   5.687   1.620   0.448  0.9708  0.0069  0.2585
 1608SOL    HW1 5987   5.617   1.567   0.411  0.9555 -0.0713  0.4034
 1608SOL    HW2 5988   5.693   1.593   0.539 -0.4364  1.7063  0.9080
 1609SOL     OW 5989   6.844   8.768   5.889 -0.3278 -0.4397  0.5108
 1609SOL    HW1 5990   6.875   8.680   5.870 -1.1372 -0.4625 -0.8270
 1609SOL    HW2 5991   6.885   8.791   5.972  1.4244 -1.3186 -0.0806
 1610SOL     OW 5992   7.082   7.453   5.188 -0.5353 -0.4248 -0.1129
 1610SOL    HW1 5993   7.092   7.390   5.259  0.3602 -1.4637 -1.1242
 1610SOL    HW2 5994   7.014   7.416   5.131 -0.1394 -0.4059 -0.6132
 1611SOL     OW 5995   8.045   0.627   8.452 -0.5345 -0.4549 -0.0202
 1611SOL    HW1 5996   7.981   0.629   8.382  0.7579 -0.1023 -1.2357
 1611SOL    HW2 5997   8.042   0.715   8.490  1.1140  0.4723 -1.8878
 1612SOL     OW 5998   5.716   0.383   4.600 -0.0841  0.8634  0.1644
 1612SOL    HW1 5999   5.799   0.431   4.608 -0.2230  0.9226  1.5834
 1612SOL    HW2 6000   5.711   0.358   4.508  2.1545 -0.3153  0.3136
 1613SOL     OW 6001   6.685   3.348   4.576 -0.2621 -0.4563 -0.5473
 1613SOL    HW1 6002   6.622   3.287   4.615 -2.1346  0.2273 -2.2993
 1613SOL    HW2 6003   6.763   3.296   4.560  0.5272 -0.8649  3.6048
 1614SOL     OW 6004   6.361   8.226   8.131  0.3775  0.5309  0.1691
 1614SOL    HW1 6005   6.355   8.137   8.097  0.5188  0.4794  0.2780
 1614SOL    HW2 6006   6.294   8.275   8.083 -0.5620  0.0841  0.9745
 1615SOL     OW 6007   2.643   0.567   2.626  0.1756  0.2742  0.0585
 1615SOL    HW1 6008   2.565   0.596   2.579  0.7899 -0.2735 -1.3651
 1615SOL    HW2 6009   2.715   0.613   2.582  0.6085  1.6003  2.0265
 1616SOL     OW 6010   3.147   4.420   1.687  0.0668  0.0680  0.1364
 1616SOL    HW1 6011   3.077   4.436   1.750 -1.7498 -0.5708 -1.6185
 1616SOL    HW2 6012   3.106   4.369   1.618  1.8844  0.9603 -1.7115
 1617SOL     OW 6013   6.461   3.050   8.029  0.3124 -0.3297 -0.3113
 1617SOL    HW1 6014   6.519   3.090   8.093 -0.0140 -1.4756  0.7342
 1617SOL    HW2 6015   6.444   3.120   7.966  2.5676  0.1310 -0.5065
 1618SOL     OW 6016   6.600   4.444   4.823  0.0278  0.6500  0.0500
 1618SOL    HW1 6017   6.543   4.392   4.767  0.1695  0.0738  0.4381
 1618SOL    HW2 6018   6.658   4.380   4.864  1.4441  1.2811 -0.8812
 1619SOL     OW 6019   3.117   6.790   0.923 -0.1771 -0.0976  0.4722
 1619SOL    HW1 6020   3.066   6.776   1.003 -1.2603  0.0279 -0.1715
 1619SOL    HW2 6021   3.092   6.718   0.866  2.1288 -1.3717  0.9354
 1620SOL     OW 6022   0.618   6.978   6.378 -0.0437 -0.3084 -0.3523
 1620SOL    HW1 6023   0.572   7.061   6.382 -0.1521 -0.4182  1.5385
 1620SOL    HW2 6024   0.711   7.002   6.373 -0.1477 -0.1037 -1.8432
 1621SOL     OW 6025   4.508   6.121   3.753  0.3601  0.5357 -0.4460
 1621SOL    HW1 6026   4.591   6.082   3.726  0.2372  0.0336 -0.1266
 1621SOL    HW2 6027   4.526   6.158   3.840 -0.7878 -3.5007  1.7842
 1622SOL     OW 6028   7.831   1.451   3.488 -0.0561 -0.2863 -0.0089
 1622SOL    HW1 6029   7.747   1.455   3.442  0.6695 -0.5198 -1.4202
 1622SOL    HW2 6030   7.894   1.490   3.427  0.9898 -0.7856  0.7060
 1623SOL     OW 6031   0.273   5.855   4.393  0.8283 -0.1120 -0.3256
 1623SOL    HW1 6032   0.185   5.892   4.394  0.6825 -0.4074 -1.2362
 1623SOL    HW2 6033   0.318   5.900   4.322  1.7561  0.7694  0.7823
 1624SOL     OW 6034   5.951   6.036   0.731  0.3707  0.2513 -0.1229
 1624SOL    HW1 6035   5.953   6.070   0.641 -0.1447 -0.5970 -0.4680
 1624SOL    HW2 6036   5.990   5.949   0.724  0.3940  0.2111  0.4905
 1625SOL     OW 6037   7.557   8.512   6.567  0.1095 -0.0278 -0.1259
 1625SOL    HW1 6038   7.610   8.577   6.521  1.2354 -0.2679  0.7817
 1625SOL    HW2 6039   7.473   8.555   6.580 -0.1551  0.1342 -2.1487
 1626SOL     OW 6040   2.483   0.434   7.994 -0.0592 -0.0722 -0.6461
 1626SOL    HW1 6041   2.504   0.410   7.904 -1.3318  0.3057 -1.0674
 1626SOL    HW2 6042   2.488   0.351   8.043  2.2381 -0.0284 -0.6965
 1627SOL     OW 6043   0.863   0.862   7.837  0.1427  0.0967  0.2615
 1627SOL    HW1 6044   0.918   0.939   7.823  1.1398 -0.1961  2.2685
 1627SOL    HW2 6045   0.820   0.878   7.921  1.1052 -1.9148  1.2108
 1628SOL     OW 6046   5.467   4.665   2.690  0.3209  0.2264  0.3042
 1628SOL    HW1 6047   5.423   4.624   2.615  1.0786  0.6032 -0.3556
 1628SOL    HW2 6048   5.499   4.748   2.657  0.3800  0.5507  1.1482
 1629SOL     OW 6049   8.772   2.047   6.207 -0.3444  0.1959 -0.3940
 1629SOL    HW1 6050   8.730   2.044   6.122  0.6309 -1.8567 -0.8693
 1629SOL    HW2 6051   8.834   2.119   6.201  1.2192 -1.1984 -2.2383
 1630SOL     OW 6052   8.070   6.897   2.519  0.4228  0.0952  0.2076
 1630SOL    HW1 6053   8.031   6.968   2.467  1.2335 -0.1152 -0.7194
 1630SOL    HW2 6054   8.158   6.886   2.482  0.4154 -1.1906  0.5294
 1631SOL     OW 6055   4.160   3.316   6.230 -0.4434 -0.3042  0.0301
 1631SOL    HW1 6056   4.198   3.255   6.166 -1.3671  0.7659 -1.6180
 1631SOL    HW2 6057   4.118   3.259   6.295 -0.2057 -1.4451 -0.7745
 1632SOL     OW 6058   4.238   8.501   1.530 -0.5864  0.3458  0.2187
 1632SOL    HW1 6059   4.225   8.539   1.443  0.5967 -1.3914 -0.7855
 1632SOL    HW2 6060   4.333   8.492   1.538 -0.5387  1.9168  2.4022
 1633SOL     OW 6061   4.739   2.718   7.676 -0.0472 -0.0380  0.2164
 1633SOL    HW1 6062   4.685   2.661   7.621  0.4843 -0.8315  0.5150
 1633SOL    HW2 6063   4.712   2.807   7.650 -0.1381 -0.3949 -0.9892
 1634SOL     OW 6064   2.691   0.330   0.697  0.0175 -0.2898  0.6740
 1634SOL    HW1 6065   2.674   0.334   0.603 -0.2453 -0.2362  0.7242
 1634SOL    HW2 6066   2.661   0.243   0.723  1.4704 -0.8977  0.4368
 1635SOL     OW 6067   5.189   1.590   8.100  0.3005 -0.4424 -0.1510
 1635SOL    HW1 6068   5.201   1.495   8.105  1.1252 -0.2921  2.4861
 1635SOL    HW2 6069   5.099   1.604   8.129  0.2779 -0.3985 -0.2426
 1636SOL     OW 6070   1.031   0.324   1.545  0.0077 -0.2577 -0.1876
 1636SOL    HW1 6071   0.957   0.338   1.485 -1.0983  2.2909  1.6012
 1636SOL    HW2 6072   1.098   0.282   1.490 -1.9150 -0.6100 -2.4620
 1637SOL     OW 6073   0.687   5.615   2.136  0.2573  0.3111 -0.1978
 1637SOL    HW1 6074   0.649   5.685   2.082  1.0128  0.0373 -1.0931
 1637SOL    HW2 6075   0.715   5.660   2.216 -0.0581  0.8794 -0.3976
 1638SOL     OW 6076   0.376   0.481   6.606  0.4329 -0.1775 -0.0306
 1638SOL    HW1 6077   0.371   0.409   6.669 -0.0996  0.2374  0.3991
 1638SOL    HW2 6078   0.295   0.474   6.555  0.9224 -0.5977 -0.7766
 1639SOL     OW 6079   6.097   1.556   2.861  0.0869 -0.3482  0.4186
 1639SOL    HW1 6080   6.085   1.592   2.949  0.4358  0.4542  0.1439
 1639SOL    HW2 6081   6.102   1.632   2.804 -0.6337 -0.8709 -0.3754
 1640SOL     OW 6082   0.422   8.781   0.505 -0.1939 -0.2800  0.4392
 1640SOL    HW1 6083   0.332   8.779   0.535 -0.3519 -1.8201 -0.0684
 1640SOL    HW2 6084   0.416   8.789   0.409  0.2554  1.3428  0.5128
 1641SOL     OW 6085   8.853   8.017   2.214  0.4422 -0.0040  0.1552
 1641SOL    HW1 6086   8.926   7.991   2.159  0.5086 -0.0876  0.2822
 1641SOL    HW2 6087   8.833   7.939   2.266 -2.5622 -1.4723 -2.8586
 1642SOL     OW 6088   7.136   3.766   6.024  0.3373 -0.1839  0.4145
 1642SOL    HW1 6089   7.067   3.808   5.973  1.8894  0.7019 -1.0506
 1642SOL    HW2 6090   7.201   3.738   5.959  1.2620 -1.1921  1.7165
 1643SOL     OW 6091   7.972   5.681   8.326 -0.0777 -0.3380 -0.2625
 1643SOL    HW1 6092   7.974   5.631   8.408  0.4129 -0.8331 -0.5723
 1643SOL    HW2 6093   7.974   5.773   8.354  2.2255 -0.4790  0.2558
 1644SOL     OW 6094   0.394   1.815   1.278 -0.2352 -0.3541 -0.1942
 1644SOL    HW1 6095   0.477   1.859   1.298  1.5056 -3.4487 -0.0908
 1644SOL    HW2 6096   0.390   1.814   1.182 -0.5634  0.4222 -0.2002
 1645SOL     OW 6097   5.617   8.575   5.890 -0.2014  0.0841 -0.2231
 1645SOL    HW1 6098   5.686   8.639   5.906  0.0502 -0.2377 -0.0262
 1645SOL    HW2 6099   5.536   8.627   5.893 -0.0063  0.3783  0.0078
 1646SOL     OW 6100   6.972   6.357   0.291  0.2382  0.2009  0.0323
 1646SOL    HW1 6101   7.004   6.333   0.204 -0.2432  0.8598 -0.3378
 1646SOL    HW2 6102   6.892   6.407   0.274  0.1340  0.3293  0.8572
 1647SOL     OW 6103   1.775   8.650   5.689 -0.0312  0.2401 -0.2020
 1647SOL    HW1 6104   1.855   8.673   5.641  1.4425 -2.1205  0.9354
 1647SOL    HW2 6105   1.727   8.592   5.630 -0.2478  0.5402 -0.3292
 1648SOL     OW 6106   1.551   6.825   2.261  0.9737 -0.6308  0.1033
 1648SOL    HW1 6107   1.550   6.730   2.272 -0.3075 -0.4278  2.2518
 1648SOL    HW2 6108   1.460   6.848   2.248  1.2369  0.3542 -0.0488
 1649SOL     OW 6109   0.543   3.665   8.712  0.3144  0.5403 -0.0303
 1649SOL    HW1 6110   0.456   3.648   8.748  0.3185  1.1113  0.2621
 1649SOL    HW2 6111   0.593   3.586   8.732  0.0068  0.4168  0.2626
 1650SOL     OW 6112   2.363   8.790   2.986 -0.5514 -0.0185 -0.6771
 1650SOL    HW1 6113   2.394   8.701   2.969 -1.0317 -0.5523  0.9989
 1650SOL    HW2 6114   2.439   8.834   3.025 -0.4068  0.2296 -1.2249
 1651SOL     OW 6115   1.935   8.077   3.234  0.3480 -0.7027  0.5268
 1651SOL    HW1 6116   1.936   8.099   3.327 -0.4566 -1.2054  0.6639
 1651SOL    HW2 6117   1.998   8.137   3.194 -0.9412  1.0693  1.0360
 1652SOL     OW 6118   5.959   1.986   1.012  0.1388 -0.3508  0.2106
 1652SOL    HW1 6119   5.870   1.964   1.039 -0.1992  0.7561  0.0601
 1652SOL    HW2 6120   5.963   2.082   1.017  1.2261 -0.3636 -0.0764
 1653SOL     OW 6121   5.776   5.538   5.170  1.0285 -0.4536  0.2129
 1653SOL    HW1 6122   5.808   5.461   5.123  0.2437 -1.6202  1.4985
 1653SOL    HW2 6123   5.829   5.540   5.250  1.5113  0.7686 -0.1163
 1654SOL     OW 6124   2.777   3.501   6.567 -0.3234  0.3821  0.7364
 1654SOL    HW1 6125   2.731   3.500   6.651  1.9652 -0.4138  2.0732
 1654SOL    HW2 6126   2.857   3.451   6.583 -0.0312 -0.2308 -2.0933
 1655SOL     OW 6127   0.962   3.337   7.268  0.4826 -0.0085 -0.0986
 1655SOL    HW1 6128   0.971   3.401   7.197  0.6400  0.8815  0.7045
 1655SOL    HW2 6129   0.950   3.390   7.346 -0.3404 -0.9915  0.4588
 1656SOL     OW 6130   1.236   2.358   2.089  0.5868  0.1188 -0.8607
 1656SOL    HW1 6131   1.236   2.439   2.140 -0.0732  2.0281 -3.6781
 1656SOL    HW2 6132   1.154   2.315   2.112  0.9139  0.2349  0.6264
 1657SOL     OW 6133   7.526   1.383   2.474  0.2805  0.2616  0.3558
 1657SOL    HW1 6134   7.517   1.368   2.380  1.7053  1.0319  0.0676
 1657SOL    HW2 6135   7.564   1.301   2.508  0.0331  0.0874  0.2125
 1658SOL     OW 6136   3.450   8.606   6.846 -0.8012  0.1814 -0.3914
 1658SOL    HW1 6137   3.526   8.553   6.823  0.2865  0.0618  2.9044
 1658SOL    HW2 6138   3.474   8.696   6.822 -0.6792 -0.1514 -1.5856
 1659SOL     OW 6139   6.902   5.622   6.692  0.0052  0.2835 -0.2963
 1659SOL    HW1 6140   6.866   5.606   6.604 -0.4192  2.4092 -0.5529
 1659SOL    HW2 6141   6.882   5.714   6.710  2.5970  0.7075  0.8573
 1660SOL     OW 6142   2.953   5.723   1.997  0.1884  0.3059  0.3352
 1660SOL    HW1 6143   2.875   5.775   1.979  0.1163  0.1685  0.2513
 1660SOL    HW2 6144   3.018   5.787   2.026  0.6654  0.6927 -1.4844
 1661SOL     OW 6145   1.006   2.488   1.592  0.3369 -0.3389  0.0428
 1661SOL    HW1 6146   1.078   2.474   1.532  0.3634 -0.5118  0.1147
 1661SOL    HW2 6147   0.947   2.414   1.577  0.2251 -0.2528  0.0567
 1662SOL     OW 6148   2.310   8.850   7.766  0.0586 -0.2631  0.0220
 1662SOL    HW1 6149   2.401   8.837   7.794  0.1038  0.3146  0.1472
 1662SOL    HW2 6150   2.281   8.763   7.738  0.3387 -0.6491  0.9014
 1663SOL     OW 6151   4.039   3.556   3.673 -0.3173 -0.0256  0.2963
 1663SOL    HW1 6152   3.954   3.513   3.678 -0.4921  0.1949 -0.5989
 1663SOL    HW2 6153   4.024   3.645   3.705 -0.3445 -0.0875  0.4576
 1664SOL     OW 6154   4.613   8.652   4.163 -0.3660 -0.6598  0.0390
 1664SOL    HW1 6155   4.612   8.633   4.257 -0.9915  1.3123  0.4807
 1664SOL    HW2 6156   4.530   8.697   4.147 -0.4026 -1.2295 -1.5379
 1665SOL     OW 6157   4.606   4.937   7.018 -0.5787 -0.4424 -0.4685
 1665SOL    HW1 6158   4.596   4.843   6.999 -0.3022 -1.0098  1.8589
 1665SOL    HW2 6159   4.548   4.952   7.092 -0.3271  1.1651 -0.5776
 1666SOL     OW 6160   5.091   0.651   5.208  0.1104  0.5593  0.0956
 1666SOL    HW1 6161   5.107   0.592   5.281 -2.6940  0.4526  0.7302
 1666SOL    HW2 6162   5.057   0.595   5.138 -1.2652  1.1867  0.2251
 1667SOL     OW 6163   4.787   6.448   4.304  0.5715  0.0454  0.2417
 1667SOL    HW1 6164   4.831   6.418   4.383 -1.3589  1.4313  1.9499
 1667SOL    HW2 6165   4.726   6.378   4.281  0.0248  0.2985  0.9164
 1668SOL     OW 6166   1.429   0.998   1.074 -0.5195 -0.2754  0.0835
 1668SOL    HW1 6167   1.443   0.942   1.150 -0.6499  1.2458  1.2801
 1668SOL    HW2 6168   1.510   0.991   1.024 -0.5781 -1.5990  0.1476
 1669SOL     OW 6169   6.064   5.404   6.451 -0.4559 -0.0320 -0.6272
 1669SOL    HW1 6170   6.123   5.469   6.411 -1.4696  0.0364 -2.1040
 1669SOL    HW2 6171   6.105   5.320   6.431 -0.1079  0.0753 -0.3675
 1670SOL     OW 6172   8.309   1.276   8.106  0.6638 -0.1780  0.0714
 1670SOL    HW1 6173   8.295   1.227   8.187 -0.3829 -0.8902 -0.5213
 1670SOL    HW2 6174   8.272   1.362   8.122  0.6544 -0.2459  0.4165
 1671SOL     OW 6175   2.264   8.819   2.263 -0.4982  0.1454 -0.7417
 1671SOL    HW1 6176   2.241   8.827   2.356  0.2639 -2.7199 -0.2024
 1671SOL    HW2 6177   2.355   8.847   2.259 -0.4858  0.1298 -0.5902
 1672SOL     OW 6178   7.048   1.615   1.077 -0.1836 -0.4493  0.1435
 1672SOL    HW1 6179   7.005   1.595   0.993  0.5169  2.9674 -1.2244
 1672SOL    HW2 6180   6.980   1.659   1.128 -0.1062 -0.9047  0.6375
 1673SOL     OW 6181   3.809   7.977   1.280  0.1168  0.2352 -0.4352
 1673SOL    HW1 6182   3.849   7.948   1.362 -0.5161 -0.3991 -0.3342
 1673SOL    HW2 6183   3.883   7.992   1.221  0.7068  2.3743  0.7447
 1674SOL     OW 6184   1.605   5.507   4.302  0.0333  0.0525 -0.4828
 1674SOL    HW1 6185   1.695   5.508   4.335 -0.5977  0.2775  1.3819
 1674SOL    HW2 6186   1.566   5.430   4.342 -0.7998  0.3657 -0.6769
 1675SOL     OW 6187   7.528   8.251   8.857  0.4757 -0.3950 -0.1304
 1675SOL    HW1 6188   7.487   8.283   8.938 -0.8458  0.1422 -0.9730
 1675SOL    HW2 6189   7.610   8.300   8.852  0.1152  0.2989  0.3946
 1676SOL     OW 6190   2.965   1.672   4.878 -0.5826  0.0352  0.2581
 1676SOL    HW1 6191   3.025   1.621   4.931 -0.3001 -0.1290 -0.2099
 1676SOL    HW2 6192   2.933   1.741   4.936 -0.8454 -0.5696  0.8551
 1677SOL     OW 6193   0.493   3.862   6.186  0.2118  0.1552 -0.1322
 1677SOL    HW1 6194   0.495   3.950   6.147  0.1276  1.2160  2.0970
 1677SOL    HW2 6195   0.577   3.823   6.161  0.7077  1.2804 -0.2955
 1678SOL     OW 6196   7.035   0.744   7.391 -0.0936 -0.4246  0.0411
 1678SOL    HW1 6197   7.095   0.672   7.411 -0.9172 -0.9775  0.5446
 1678SOL    HW2 6198   6.951   0.717   7.427 -0.3456  0.9345  0.5466
 1679SOL     OW 6199   2.730   2.611   1.030  0.1816  0.2160  0.3887
 1679SOL    HW1 6200   2.786   2.533   1.033 -0.1699  0.0059  2.7410
 1679SOL    HW2 6201   2.696   2.612   0.940  1.4642 -1.4103 -0.1675
 1680SOL     OW 6202   3.086   6.663   5.197  0.5135 -0.4489 -0.4100
 1680SOL    HW1 6203   2.991   6.655   5.204  0.3764  0.5952 -0.9263
 1680SOL    HW2 6204   3.100   6.699   5.109  1.3293  0.2971  0.0185
 1681SOL     OW 6205   0.677   8.691   3.850 -0.0368 -0.1154  0.2206
 1681SOL    HW1 6206   0.670   8.608   3.896 -0.8446  0.3950  1.0725
 1681SOL    HW2 6207   0.760   8.729   3.881 -0.3920  0.0544  1.0011
 1682SOL     OW 6208   4.808   2.606   4.943  0.1294  0.2952  0.2690
 1682SOL    HW1 6209   4.810   2.575   4.853 -2.0560 -0.3688  0.3912
 1682SOL    HW2 6210   4.822   2.527   4.996  0.2348  0.4887  0.5334
 1683SOL     OW 6211   7.391   8.105   4.383  0.2466 -0.0955 -0.5993
 1683SOL    HW1 6212   7.434   8.126   4.300 -0.2621  0.1019 -0.8150
 1683SOL    HW2 6213   7.418   8.015   4.401  1.6093  0.3721 -0.1902
 1684SOL     OW 6214   0.019   6.714   2.390  0.1358 -0.2290  0.6296
 1684SOL    HW1 6215  -0.066   6.727   2.348 -0.3963 -1.7802  1.1630
 1684SOL    HW2 6216   0.082   6.735   2.321 -0.6973 -0.7455 -0.3185
 1685SOL     OW 6217   1.686   7.636   5.051  0.0287  0.3300  1.0531
 1685SOL    HW1 6218   1.597   7.664   5.073 -0.4816  0.1537 -0.6436
 1685SOL    HW2 6219   1.717   7.590   5.129 -1.8789 -0.7756  1.2247
 1686SOL     OW 6220   3.517   2.049   1.531 -0.3906 -0.3205 -0.2638
 1686SOL    HW1 6221   3.558   2.135   1.534  0.7100 -0.7987  3.0990
 1686SOL    HW2 6222   3.579   1.994   1.484  0.3453  0.0907  0.2178
 1687SOL     OW 6223   3.817   1.240   0.399  0.3104 -0.1371  0.4170
 1687SOL    HW1 6224   3.891   1.288   0.435  0.5144  0.5111 -0.8154
 1687SOL    HW2 6225   3.746   1.304   0.395  0.6728  0.2123 -1.5211
 1688SOL     OW 6226   3.613   0.250   7.980  0.2482 -0.2432  0.2250
 1688SOL    HW1 6227   3.687   0.301   8.012 -0.1459  0.1848  0.4581
 1688SOL    HW2 6228   3.653   0.170   7.946  0.8176 -0.0198  0.3496
 1689SOL     OW 6229   1.013   3.298   2.741  0.0658  0.0092  0.0676
 1689SOL    HW1 6230   1.096   3.297   2.790 -0.2477  1.5126  0.6553
 1689SOL    HW2 6231   0.949   3.261   2.801  0.1003 -0.1937 -0.0179
 1690SOL     OW 6232   4.670   0.230   0.461  0.4306 -0.0250  0.5164
 1690SOL    HW1 6233   4.634   0.181   0.535 -1.3289 -0.7689 -0.7807
 1690SOL    HW2 6234   4.601   0.230   0.395  1.4897  1.6640 -0.6985
 1691SOL     OW 6235   7.655   8.477   5.674  0.0046  1.0441 -0.3282
 1691SOL    HW1 6236   7.576   8.462   5.621 -1.4346 -0.4365  2.0474
 1691SOL    HW2 6237   7.673   8.570   5.665 -1.1374  1.1453 -2.0744
 1692SOL     OW 6238   2.559   3.048   3.736  0.4401 -0.1667  0.1248
 1692SOL    HW1 6239   2.618   2.973   3.726  1.0257  0.0340  1.8021
 1692SOL    HW2 6240   2.583   3.106   3.664  1.4685 -0.6375  0.0593
 1693SOL     OW 6241   2.688   8.700   4.942 -0.1261 -0.2519  0.0872
 1693SOL    HW1 6242   2.616   8.754   4.910  2.0686  2.3115 -0.8199
 1693SOL    HW2 6243   2.674   8.615   4.899 -2.7862 -0.0115  0.2964
 1694SOL     OW 6244   0.252   3.621   2.741 -0.2615 -0.1412  0.5015
 1694SOL    HW1 6245   0.242   3.571   2.822  1.4819  0.7268  1.3167
 1694SOL    HW2 6246   0.216   3.565   2.673 -0.9036 -1.2999  1.7519
 1695SOL     OW 6247   4.705   5.941   2.176  0.1234  0.0972  0.2992
 1695SOL    HW1 6248   4.689   5.922   2.269  0.0221 -1.0628  0.0637
 1695SOL    HW2 6249   4.656   6.021   2.159 -0.3235  0.0056  1.1163
 1696SOL     OW 6250   7.210   2.562   5.357  0.2799 -0.4473 -0.1148
 1696SOL    HW1 6251   7.198   2.586   5.265 -0.3554  0.3218  0.1576
 1696SOL    HW2 6252   7.133   2.509   5.378 -1.6894  2.5667  0.9960
 1697SOL     OW 6253   8.261   0.916   1.356  1.1596  0.2475  0.4679
 1697SOL    HW1 6254   8.228   0.827   1.369  2.0995 -0.1181  0.4006
 1697SOL    HW2 6255   8.278   0.948   1.445 -0.1205  0.7426  0.5574
 1698SOL     OW 6256   6.801   0.156   5.730  0.1176  0.4396 -0.2362
 1698SOL    HW1 6257   6.769   0.242   5.758  0.6833  0.9954 -1.2424
 1698SOL    HW2 6258   6.848   0.121   5.806 -0.4386  0.8408  0.3063
 1699SOL     OW 6259   1.016   3.195   3.306  0.3771 -0.0779 -0.2610
 1699SOL    HW1 6260   0.988   3.215   3.217  0.8021 -0.7433 -0.5521
 1699SOL    HW2 6261   1.005   3.278   3.354 -0.3039  0.1553 -0.8086
 1700SOL     OW 6262   2.807   7.719   4.875 -0.0616  0.7520 -0.1713
 1700SOL    HW1 6263   2.817   7.702   4.781  0.1560 -0.1141  0.0034
 1700SOL    HW2 6264   2.787   7.813   4.880 -0.0925  0.8035 -1.0818
 1701SOL     OW 6265   8.737   8.426   3.250  0.1013 -0.0591  0.2129
 1701SOL    HW1 6266   8.692   8.486   3.309 -0.7762 -0.4434 -0.0320
 1701SOL    HW2 6267   8.713   8.456   3.162  1.3943  0.5121  0.0339
 1702SOL     OW 6268   2.678   0.361   2.788 -0.0607 -0.0082  0.7363
 1702SOL    HW1 6269   2.675   0.438   2.731  0.0421 -0.1099  0.5928
 1702SOL    HW2 6270   2.616   0.381   2.858  0.5861  0.5642  1.1541
 1703SOL     OW 6271   1.717   3.475   5.511  0.2536  0.2991 -0.2287
 1703SOL    HW1 6272   1.772   3.534   5.460  1.7583 -2.3215 -1.8637
 1703SOL    HW2 6273   1.760   3.469   5.596  0.8228  0.5408 -0.4931
 1704SOL     OW 6274   5.796   6.429   8.533  0.2994  0.2331  0.0722
 1704SOL    HW1 6275   5.770   6.450   8.443 -0.7178  1.4353  0.6063
 1704SOL    HW2 6276   5.718   6.448   8.585  0.6423 -1.1416  1.1398
 1705SOL     OW 6277   4.091   6.785   5.395 -0.1353  0.5249 -0.5970
 1705SOL    HW1 6278   4.069   6.878   5.383  0.9359  0.7651 -0.7427
 1705SOL    HW2 6279   4.157   6.785   5.464 -1.5104 -0.3149  0.8012
 1706SOL     OW 6280   0.352   2.971   5.445 -0.3665 -0.3161  0.3721
 1706SOL    HW1 6281   0.258   2.976   5.462 -0.5114 -0.6982 -0.2770
 1706SOL    HW2 6282   0.361   2.897   5.384  0.3706 -0.3789  0.5521
 1707SOL     OW 6283   8.589   6.919   8.065 -0.0298 -0.4038 -0.3471
 1707SOL    HW1 6284   8.555   6.962   8.144  1.0169 -0.3971  0.1039
 1707SOL    HW2 6285   8.588   6.988   7.999  0.8287  0.0944  0.1498
 1708SOL     OW 6286   1.426   8.719   1.277 -0.7874 -0.0248  0.6609
 1708SOL    HW1 6287   1.394   8.808   1.290 -1.6194 -0.4693  1.9735
 1708SOL    HW2 6288   1.514   8.719   1.314 -0.2658  0.5655 -0.5541
 1709SOL     OW 6289   1.900   7.814   3.205 -0.3073  0.1630 -0.2717
 1709SOL    HW1 6290   1.871   7.789   3.292 -1.1954 -0.3200 -0.6994
 1709SOL    HW2 6291   1.920   7.907   3.212 -0.4570  0.1454  0.4241
 1710SOL     OW 6292   5.294   1.729   1.167 -0.1786  0.4504  0.4480
 1710SOL    HW1 6293   5.346   1.729   1.087  0.9530 -1.4165  1.1259
 1710SOL    HW2 6294   5.203   1.731   1.136  0.2381  0.1512 -0.8741
 1711SOL     OW 6295   2.947   4.175   0.477 -0.2504  0.2668  0.2341
 1711SOL    HW1 6296   2.922   4.213   0.392  0.8591  0.0817 -0.1830
 1711SOL    HW2 6297   3.034   4.209   0.494 -0.8817  1.1934  1.8515
 1712SOL     OW 6298   5.120   6.311   4.077  0.1321 -0.1020 -0.0453
 1712SOL    HW1 6299   5.189   6.303   4.012 -0.9370 -3.0566 -0.9577
 1712SOL    HW2 6300   5.162   6.357   4.151  1.5919  2.6526 -2.3740
 1713SOL     OW 6301   3.162   8.401   4.949  0.6898 -0.3850 -0.4638
 1713SOL    HW1 6302   3.153   8.307   4.931  2.3349 -0.3746 -1.4908
 1713SOL    HW2 6303   3.250   8.423   4.920  1.5012  0.8540  2.5445
 1714SOL     OW 6304   8.588   2.922   5.360 -0.2261  0.5451  0.0255
 1714SOL    HW1 6305   8.667   2.965   5.394  0.3379 -0.4523  0.0284
 1714SOL    HW2 6306   8.579   2.844   5.414  0.1952 -0.6286 -1.5295
 1715SOL     OW 6307   5.749   3.611   1.803  0.4368  0.7189 -0.0141
 1715SOL    HW1 6308   5.726   3.525   1.767  2.2026 -0.0690  0.6045
 1715SOL    HW2 6309   5.665   3.652   1.823 -0.4607 -0.6277 -0.8531
 1716SOL     OW 6310   2.078   0.652   2.554  0.1330  0.2738  0.1603
 1716SOL    HW1 6311   2.122   0.677   2.472 -0.8038 -2.0778 -1.1646
 1716SOL    HW2 6312   2.028   0.730   2.579 -0.6156  0.6637 -2.2778
 1717SOL     OW 6313   2.604   6.253   8.844 -0.3724 -0.4815 -0.0201
 1717SOL    HW1 6314   2.608   6.244   8.749  0.8759  1.7065 -0.2336
 1717SOL    HW2 6315   2.636   6.341   8.862 -0.1855 -0.9654  2.4677
 1718SOL     OW 6316   8.330   3.156   3.462 -0.0332  0.0962  0.5395
 1718SOL    HW1 6317   8.422   3.177   3.477  0.6384 -0.2659 -2.4549
 1718SOL    HW2 6318   8.305   3.209   3.386 -1.0461 -2.7518 -1.2771
 1719SOL     OW 6319   4.970   0.404   7.401  0.0062  0.7687  0.5339
 1719SOL    HW1 6320   4.890   0.381   7.353  0.4549  1.4953 -0.6030
 1719SOL    HW2 6321   4.939   0.439   7.484 -0.9516  2.4257 -0.4741
 1720SOL     OW 6322   4.107   3.868   3.285  0.3177  0.0371 -0.3259
 1720SOL    HW1 6323   4.196   3.901   3.298 -0.1471  0.8869  0.9457
 1720SOL    HW2 6324   4.070   3.864   3.373 -0.2668 -2.2629 -0.6145
 1721SOL     OW 6325   2.708   5.127   0.760 -0.0160  0.1295 -0.0306
 1721SOL    HW1 6326   2.798   5.157   0.746 -0.3343  1.3693  0.3957
 1721SOL    HW2 6327   2.654   5.191   0.714 -0.6892 -0.4851 -0.1059
 1722SOL     OW 6328   7.001   8.016   2.018 -0.1560 -0.1233  0.1850
 1722SOL    HW1 6329   7.056   7.938   2.014  0.0851 -0.1151  2.2288
 1722SOL    HW2 6330   7.056   8.087   1.986  0.0183 -0.5922 -0.5604
 1723SOL     OW 6331   0.289   8.410   1.850  0.2239  0.0814 -0.1854
 1723SOL    HW1 6332   0.257   8.459   1.774 -2.0104 -0.3694  0.4022
 1723SOL    HW2 6333   0.317   8.326   1.815 -0.2392  0.0941 -0.5914
 1724SOL     OW 6334   2.955   4.327   7.180 -0.3078  0.0143  0.2897
 1724SOL    HW1 6335   3.006   4.275   7.118  1.4624  2.9896 -0.9774
 1724SOL    HW2 6336   2.872   4.280   7.188  1.5069 -3.5007  0.1567
 1725SOL     OW 6337   2.394   4.757   6.649  0.1419  0.6236  0.7178
 1725SOL    HW1 6338   2.358   4.669   6.634  0.3050  0.5765  0.5989
 1725SOL    HW2 6339   2.346   4.790   6.725 -1.2138  1.1589 -0.3417
 1726SOL     OW 6340   2.276   6.318   0.862  0.2060 -0.2163  0.4097
 1726SOL    HW1 6341   2.372   6.318   0.857  0.2829  1.9321  1.1067
 1726SOL    HW2 6342   2.256   6.358   0.947 -1.3119  2.3625 -1.0440
 1727SOL     OW 6343   3.925   3.953   6.335 -0.4550  0.1688  0.3664
 1727SOL    HW1 6344   3.852   3.898   6.363 -0.4635  0.3296  0.6660
 1727SOL    HW2 6345   3.975   3.898   6.275  0.0005 -0.4619  1.2897
 1728SOL     OW 6346   8.304   1.318   5.224  0.2073 -0.2865 -0.0526
 1728SOL    HW1 6347   8.309   1.413   5.232  1.8821 -0.1741 -1.7411
 1728SOL    HW2 6348   8.211   1.299   5.211  0.0589  1.3051 -1.5730
 1729SOL     OW 6349   6.438   5.700   7.671 -0.2910 -0.1322  0.2554
 1729SOL    HW1 6350   6.427   5.611   7.704  1.7223  0.7638  3.9155
 1729SOL    HW2 6351   6.350   5.737   7.672 -1.0600 -1.8237 -0.7159
 1730SOL     OW 6352   0.646   7.893   4.778 -0.1050  0.7174 -0.6860
 1730SOL    HW1 6353   0.660   7.798   4.777  1.5539  0.9227 -0.1999
 1730SOL    HW2 6354   0.700   7.926   4.707 -2.2309  1.1703 -2.1863
 1731SOL     OW 6355   5.371   6.149   8.033  0.5000  0.8325 -0.1007
 1731SOL    HW1 6356   5.446   6.179   7.982  0.3512  0.0340 -0.8108
 1731SOL    HW2 6357   5.302   6.137   7.968  0.7165 -1.5696  0.0518
 1732SOL     OW 6358   0.085   8.212   1.211  0.3182  0.4733  1.0196
 1732SOL    HW1 6359   0.020   8.203   1.141  0.3388 -1.3176  1.1940
 1732SOL    HW2 6360   0.121   8.300   1.199  1.4427 -0.2968 -2.2277
 1733SOL     OW 6361   4.680   8.402   2.081 -0.4031 -0.0565 -0.5565
 1733SOL    HW1 6362   4.715   8.490   2.086 -2.9377  1.0948 -1.2578
 1733SOL    HW2 6363   4.706   8.360   2.163  1.5670  1.0182 -0.5971
 1734SOL     OW 6364   3.592   0.160   2.560  0.3805 -0.1883 -0.2933
 1734SOL    HW1 6365   3.515   0.140   2.507 -0.8593  2.8837  0.1773
 1734SOL    HW2 6366   3.647   0.214   2.503  0.0220  1.3694  0.7721
 1735SOL     OW 6367   2.160   2.066   4.705  0.5754 -0.1176 -0.4413
 1735SOL    HW1 6368   2.251   2.082   4.682  0.7033 -0.3067 -0.0584
 1735SOL    HW2 6369   2.130   2.149   4.743  0.4599  0.0863 -0.9608
 1736SOL     OW 6370   6.196   7.739   7.755  0.0758 -0.0580 -0.1988
 1736SOL    HW1 6371   6.271   7.792   7.727  0.9889 -0.0610  2.0555
 1736SOL    HW2 6372   6.189   7.755   7.849 -0.7679 -2.4921  0.2136
 1737SOL     OW 6373   5.068   8.018   6.988 -0.1354  0.4702  0.1838
 1737SOL    HW1 6374   5.009   8.036   7.061  0.2490  0.5104  0.4874
 1737SOL    HW2 6375   5.066   8.098   6.936  0.5154  0.8938  0.7986
 1738SOL     OW 6376   8.683   4.281   0.645  0.1329 -0.1976  0.4781
 1738SOL    HW1 6377   8.761   4.259   0.595 -0.1083 -0.6707  0.2991
 1738SOL    HW2 6378   8.624   4.322   0.582 -0.6983 -1.9882  0.0277
 1739SOL     OW 6379   4.885   6.664   1.265 -0.4872 -0.7591 -0.4513
 1739SOL    HW1 6380   4.925   6.580   1.246 -1.2562 -1.1427 -0.4015
 1739SOL    HW2 6381   4.803   6.643   1.310 -0.0262  0.0469  0.8211
 1740SOL     OW 6382   7.986   4.603   0.801 -0.3541 -0.2258 -0.0142
 1740SOL    HW1 6383   7.954   4.689   0.826 -0.4173 -0.1891 -0.2260
 1740SOL    HW2 6384   8.042   4.577   0.874 -0.7184 -0.2148  0.2716
 1741SOL     OW 6385   2.763   7.550   2.862 -0.5660 -0.5454  0.1125
 1741SOL    HW1 6386   2.703   7.624   2.853 -1.9310 -1.8489 -3.8999
 1741SOL    HW2 6387   2.829   7.565   2.794  0.0481 -2.1868  0.3034
 1742SOL     OW 6388   0.544   2.402   7.188  0.5986 -0.5328 -0.2217
 1742SOL    HW1 6389   0.504   2.441   7.109 -0.5547 -0.3705  0.4245
 1742SOL    HW2 6390   0.562   2.312   7.163 -2.1654 -1.2621  0.0908
 1743SOL     OW 6391   4.956   8.258   4.734 -0.2721 -0.2070  0.3594
 1743SOL    HW1 6392   5.034   8.203   4.741  2.5321  3.3849  0.5905
 1743SOL    HW2 6393   4.906   8.240   4.814  1.7966 -0.6317  1.6257
 1744SOL     OW 6394   2.978   7.205   4.147 -0.6768  0.0106  0.1270
 1744SOL    HW1 6395   2.950   7.286   4.189 -0.2802 -0.7656  2.0071
 1744SOL    HW2 6396   3.073   7.203   4.158 -0.6465 -0.5629 -0.1704
 1745SOL     OW 6397   8.091   3.179   6.979 -0.0984  0.2009 -0.9895
 1745SOL    HW1 6398   8.061   3.171   6.889 -0.5030  0.7797 -0.9101
 1745SOL    HW2 6399   8.124   3.268   6.987  1.2559 -0.2804 -0.9465
 1746SOL     OW 6400   0.140   6.486   2.511  0.1511 -0.1574  0.0613
 1746SOL    HW1 6401   0.117   6.514   2.599 -0.7208 -0.0899 -0.1814
 1746SOL    HW2 6402   0.092   6.545   2.453  0.3922 -0.4617 -0.4587
 1747SOL     OW 6403   4.518   8.681   7.231 -0.3451 -0.2911 -0.0790
 1747SOL    HW1 6404   4.541   8.636   7.150 -0.6640 -1.3587  0.4132
 1747SOL    HW2 6405   4.588   8.659   7.292  0.1426  0.8911 -0.1890
 1748SOL     OW 6406   3.310   0.963   6.138  0.4364  0.1067  0.1334
 1748SOL    HW1 6407   3.371   0.898   6.174  0.3258  0.6461  1.3602
 1748SOL    HW2 6408   3.231   0.912   6.117  1.7301 -0.8799 -2.9108
 1749SOL     OW 6409   8.602   5.753   5.203 -0.4377  0.6337  0.3899
 1749SOL    HW1 6410   8.518   5.718   5.232 -0.4011  0.4272  0.2577
 1749SOL    HW2 6411   8.582   5.800   5.122 -0.1427 -1.0883 -0.7378
 1750SOL     OW 6412   3.035   3.859   1.158 -0.3561 -0.1677  0.0387
 1750SOL    HW1 6413   3.011   3.882   1.248  0.0569  1.5349 -0.2585
 1750SOL    HW2 6414   2.973   3.908   1.103 -0.8435 -1.4718 -0.6275
 1751SOL     OW 6415   0.200   6.925   6.887  0.2640  0.4241  0.2184
 1751SOL    HW1 6416   0.178   6.864   6.816  0.7190 -0.9061  1.1803
 1751SOL    HW2 6417   0.227   7.005   6.842  1.4677 -0.6908 -1.1704
 1752SOL     OW 6418   7.693   2.554   2.824  0.6588  0.4053  0.1015
 1752SOL    HW1 6419   7.639   2.495   2.772 -2.1072  1.6395  1.3204
 1752SOL    HW2 6420   7.667   2.642   2.795  2.9917  1.0744 -0.1040
 1753SOL     OW 6421   7.804   7.933   3.212  0.0419 -0.0688 -0.2142
 1753SOL    HW1 6422   7.805   7.934   3.117 -1.1132 -1.1658 -0.2501
 1753SOL    HW2 6423   7.744   7.862   3.236  1.3417 -0.7236  1.3273
 1754SOL     OW 6424   0.500   3.613   5.951 -0.0981 -0.1605  0.2869
 1754SOL    HW1 6425   0.512   3.699   5.911  1.1377 -0.7612 -0.6767
 1754SOL    HW2 6426   0.540   3.622   6.038  0.5985  0.0650 -0.0488
 1755SOL     OW 6427   3.992   1.434   6.795 -0.0422  0.2707  0.2381
 1755SOL    HW1 6428   4.027   1.439   6.706  0.3042  0.2575  0.3715
 1755SOL    HW2 6429   3.908   1.389   6.786  0.0668  0.1285 -0.0588
 1756SOL     OW 6430   0.178   0.739   5.512  0.0798 -0.3889 -0.7445
 1756SOL    HW1 6431   0.186   0.696   5.597 -1.5258  0.9223  0.1344
 1756SOL    HW2 6432   0.122   0.681   5.460  0.4404 -0.8245 -0.6500
 1757SOL     OW 6433   2.296   4.362   3.453 -0.1304  0.2066 -0.2362
 1757SOL    HW1 6434   2.265   4.446   3.420  0.4738  1.1063  1.3666
 1757SOL    HW2 6435   2.293   4.371   3.548  3.0742 -0.3650  0.0121
 1758SOL     OW 6436   0.705   2.448   0.827  0.6479 -0.1832  0.2647
 1758SOL    HW1 6437   0.754   2.513   0.776  0.7455 -0.7301 -0.3569
 1758SOL    HW2 6438   0.640   2.414   0.766  0.1865 -0.2272  0.7741
 1759SOL     OW 6439   5.883   3.310   3.021 -0.5225  0.6962 -0.2147
 1759SOL    HW1 6440   5.918   3.223   3.003 -1.7832  0.3734 -1.2629
 1759SOL    HW2 6441   5.789   3.303   3.003 -0.4103  2.6909 -2.0890
 1760SOL     OW 6442   4.396   8.688   4.761 -0.5656  0.3191 -0.5542
 1760SOL    HW1 6443   4.430   8.771   4.728  2.3188 -0.6016 -0.1952
 1760SOL    HW2 6444   4.402   8.696   4.856 -1.5359  0.1410 -0.4642
 1761SOL     OW 6445   2.964   5.590   6.850  0.1725 -0.7199  0.1932
 1761SOL    HW1 6446   2.994   5.562   6.936  0.3055 -1.1459  0.0086
 1761SOL    HW2 6447   2.982   5.516   6.793 -2.2793 -1.4777  0.2940
 1762SOL     OW 6448   4.254   5.912   6.066 -0.1926  0.1337 -0.4034
 1762SOL    HW1 6449   4.319   5.899   5.997 -0.0956 -1.1762 -0.1081
 1762SOL    HW2 6450   4.305   5.914   6.147 -0.1517  3.1077 -0.3962
 1763SOL     OW 6451   6.560   8.359   1.095  0.9022  0.1001 -0.4013
 1763SOL    HW1 6452   6.571   8.398   1.008  0.5035  2.2113  0.4220
 1763SOL    HW2 6453   6.475   8.315   1.091  0.7452  0.4451 -1.0137
 1764SOL     OW 6454   8.774   8.108   5.170 -0.0778  0.7435  0.0324
 1764SOL    HW1 6455   8.806   8.041   5.109 -0.9133  0.2152  0.1613
 1764SOL    HW2 6456   8.682   8.118   5.148 -0.1626  1.2321  0.5995
 1765SOL     OW 6457   1.721   0.745   6.100  0.1604 -0.2891 -0.1787
 1765SOL    HW1 6458   1.648   0.783   6.052 -0.7043 -2.6758 -0.9032
 1765SOL    HW2 6459   1.794   0.804   6.084 -1.0772  1.0200 -1.2283
 1766SOL     OW 6460   6.884   3.359   8.842  0.6516  0.2176 -0.1458
 1766SOL    HW1 6461   6.913   3.445   8.873 -0.0868  1.0962 -1.7683
 1766SOL    HW2 6462   6.927   3.348   8.757  0.3657 -0.8102 -0.1724
 1767SOL     OW 6463   7.400   4.919   6.847 -0.4681  0.5158  0.2727
 1767SOL    HW1 6464   7.366   5.004   6.874 -2.3899 -0.2736  0.5065
 1767SOL    HW2 6465   7.362   4.857   6.910  0.0009 -0.6307 -0.5353
 1768SOL     OW 6466   8.107   7.302   2.360 -0.0505  0.6736 -0.2991
 1768SOL    HW1 6467   8.165   7.306   2.436  3.0699  0.4725 -2.4513
 1768SOL    HW2 6468   8.059   7.385   2.363 -0.9615  0.1598  2.4452
 1769SOL     OW 6469   3.937   4.083   0.258  0.2904 -0.0829  0.5164
 1769SOL    HW1 6470   3.959   4.150   0.193 -2.4363 -0.4614 -0.9487
 1769SOL    HW2 6471   4.015   4.028   0.264  0.7768  0.1770 -2.1940
 1770SOL     OW 6472   2.088   0.039   4.897  0.1825  0.0829  0.0938
 1770SOL    HW1 6473   2.174   0.077   4.913  1.7989 -2.6874 -1.2892
 1770SOL    HW2 6474   2.086  -0.039   4.952 -1.2766 -0.1347 -0.2285
 1771SOL     OW 6475   3.644   4.568   3.595  0.3719 -0.4447 -0.1818
 1771SOL    HW1 6476   3.734   4.557   3.623  0.4569  0.7120  0.0584
 1771SOL    HW2 6477   3.648   4.565   3.499  0.9105  1.0676 -0.2407
 1772SOL     OW 6478   6.691   1.285   8.496  0.3346  0.2642 -0.3924
 1772SOL    HW1 6479   6.772   1.282   8.446 -0.4206 -0.4452 -1.6160
 1772SOL    HW2 6480   6.719   1.308   8.585  1.8106  0.5220 -0.8964
 1773SOL     OW 6481   7.010   1.224   6.224  0.8774 -0.7944  0.0720
 1773SOL    HW1 6482   7.015   1.319   6.208  0.1514 -0.7087  0.3371
 1773SOL    HW2 6483   7.010   1.186   6.136  0.1711 -0.4881 -0.0733
 1774SOL     OW 6484   5.737   2.535   1.840 -0.4600 -0.5424 -0.5768
 1774SOL    HW1 6485   5.646   2.521   1.814 -0.5359  0.3215 -0.8048
 1774SOL    HW2 6486   5.746   2.489   1.924 -1.1429 -0.5084 -0.4843
 1775SOL     OW 6487   5.209   3.857   6.289  0.5302  0.0177 -0.5081
 1775SOL    HW1 6488   5.142   3.925   6.290  0.8399  0.3207  0.0693
 1775SOL    HW2 6489   5.205   3.818   6.376  1.2506  0.1902 -0.3891
 1776SOL     OW 6490   2.352   3.541   5.489  0.2391 -0.7255 -0.4745
 1776SOL    HW1 6491   2.379   3.492   5.566  2.1475  3.2009  1.6424
 1776SOL    HW2 6492   2.420   3.523   5.424  0.9143 -0.8813  0.2659
 1777SOL     OW 6493   1.829   0.935   2.087  0.2659 -0.6888  0.2336
 1777SOL    HW1 6494   1.760   0.873   2.107 -0.5062  0.1837  0.3279
 1777SOL    HW2 6495   1.878   0.896   2.015 -0.5923 -1.1081 -0.1231
 1778SOL     OW 6496   6.805   0.685   7.499  0.0509  0.3261  0.0022
 1778SOL    HW1 6497   6.793   0.651   7.587  0.7108 -0.4996 -0.2177
 1778SOL    HW2 6498   6.716   0.700   7.467 -0.2039  0.1966  0.6368
 1779SOL     OW 6499   0.305   3.182   2.223 -0.1507 -0.2445  0.4812
 1779SOL    HW1 6500   0.252   3.173   2.302  2.1955  0.7601  2.2812
 1779SOL    HW2 6501   0.394   3.196   2.255  0.8317  0.6882 -2.3476
 1780SOL     OW 6502   5.684   5.444   8.120  0.1104 -0.4276  0.3469
 1780SOL    HW1 6503   5.682   5.424   8.213  1.5522  0.0125  0.5006
 1780SOL    HW2 6504   5.592   5.449   8.094 -0.5351  3.3234  2.6233
 1781SOL     OW 6505   6.495   0.540   5.815  0.5811 -0.7163  0.0193
 1781SOL    HW1 6506   6.538   0.483   5.751 -0.1778  0.5625 -1.7165
 1781SOL    HW2 6507   6.461   0.612   5.762  0.6875  0.8530  2.0049
 1782SOL     OW 6508   7.109   2.221   2.503 -0.1995 -0.2167  0.5000
 1782SOL    HW1 6509   7.184   2.226   2.561 -0.6804 -0.4619  1.1602
 1782SOL    HW2 6510   7.034   2.243   2.559 -0.4079  2.1694 -0.6296
 1783SOL     OW 6511   0.329   0.292   3.590 -0.1414 -0.5184 -0.2388
 1783SOL    HW1 6512   0.285   0.375   3.569 -0.6168 -0.6446  0.2469
 1783SOL    HW2 6513   0.298   0.231   3.524  0.7538 -0.1524 -1.0401
 1784SOL     OW 6514   0.733   6.011   0.241 -0.1434 -0.1444 -0.4760
 1784SOL    HW1 6515   0.730   5.962   0.160  1.2820 -0.2039 -0.5277
 1784SOL    HW2 6516   0.711   6.101   0.216  1.3735  0.0715 -1.1729
 1785SOL     OW 6517   1.100   0.803   4.258  0.0490 -0.3703  0.5223
 1785SOL    HW1 6518   1.017   0.817   4.304 -0.7045  1.3880 -1.2857
 1785SOL    HW2 6519   1.088   0.720   4.213 -0.8654  0.0293  0.0111
 1786SOL     OW 6520   0.578   1.474   0.036  0.3555  0.2518  0.0984
 1786SOL    HW1 6521   0.503   1.427   0.073  1.0608 -0.4750  0.6256
 1786SOL    HW2 6522   0.606   1.420  -0.038 -0.2190  1.0139 -0.6970
 1787SOL     OW 6523   7.758   3.023   3.922  0.7105 -0.7918 -0.6048
 1787SOL    HW1 6524   7.806   3.003   4.002 -1.8661 -1.3004  0.9187
 1787SOL    HW2 6525   7.800   3.103   3.888  2.4818 -1.1182  0.6733
 1788SOL     OW 6526   2.605   3.340   2.993  0.2056  0.4447 -0.0510
 1788SOL    HW1 6527   2.603   3.426   3.035 -0.5479  0.6323 -0.4647
 1788SOL    HW2 6528   2.660   3.287   3.051  2.3884  1.7272 -0.8357
 1789SOL     OW 6529   7.009   6.459   2.539  0.1741  0.3408 -0.0491
 1789SOL    HW1 6530   7.083   6.430   2.484 -0.0630 -0.3682 -0.0068
 1789SOL    HW2 6531   6.944   6.491   2.476  0.3453  0.5774 -0.1103
 1790SOL     OW 6532   5.565   1.863   8.006  0.0468  0.0531 -0.3279
 1790SOL    HW1 6533   5.593   1.921   8.077  0.1552 -1.8848  1.3127
 1790SOL    HW2 6534   5.540   1.781   8.050  0.3186 -1.3200 -2.5496
 1791SOL     OW 6535   5.965   6.982   6.123 -0.1981  0.1961  0.1225
 1791SOL    HW1 6536   5.870   6.977   6.118 -0.1257 -1.7575 -0.1583
 1791SOL    HW2 6537   5.983   7.065   6.167 -2.0678 -0.0515  1.4621
 1792SOL     OW 6538   8.633   8.378   6.673  0.3589  0.0497  0.0674
 1792SOL    HW1 6539   8.584   8.443   6.723  0.7758  0.2117  0.2682
 1792SOL    HW2 6540   8.584   8.370   6.591 -0.4616 -0.3953  0.5859
 1793SOL     OW 6541   5.178   8.058   4.048 -0.2331  0.0743 -0.4007
 1793SOL    HW1 6542   5.229   8.066   4.128 -0.9368 -1.0157  0.1860
 1793SOL    HW2 6543   5.091   8.090   4.072  0.1247  1.8827 -1.3784
 1794SOL     OW 6544   2.092   0.054   3.729 -0.1386 -0.1073 -0.3903
 1794SOL    HW1 6545   2.186   0.042   3.718 -0.2095 -0.8783 -0.2471
 1794SOL    HW2 6546   2.068  -0.008   3.798 -0.6273  0.6313  0.1170
 1795SOL     OW 6547   1.559   2.095   7.320 -0.1026  0.3310 -0.3027
 1795SOL    HW1 6548   1.464   2.105   7.311 -0.1264  1.9281  1.2244
 1795SOL    HW2 6549   1.576   2.005   7.293 -2.0202  0.0558 -0.7627
 1796SOL     OW 6550   3.534   8.266   5.858  0.4207 -0.6899 -0.1449
 1796SOL    HW1 6551   3.504   8.206   5.925  0.8546 -1.1544 -0.3610
 1796SOL    HW2 6552   3.629   8.267   5.867  0.3531  1.4400  1.1228
 1797SOL     OW 6553   2.802   2.059   7.882 -0.0147 -0.1201  0.3433
 1797SOL    HW1 6554   2.844   2.145   7.871  0.2713 -0.1021  1.4029
 1797SOL    HW2 6555   2.743   2.071   7.957 -1.3649 -0.3612 -0.6429
 1798SOL     OW 6556   1.900   0.492   2.684 -0.0802 -0.3168 -0.3150
 1798SOL    HW1 6557   1.973   0.529   2.634  0.9056 -0.2343  1.1432
 1798SOL    HW2 6558   1.897   0.400   2.657 -1.9514  0.4536 -3.2652
 1799SOL     OW 6559   8.623   5.927   6.516 -0.1226 -0.0105  0.8110
 1799SOL    HW1 6560   8.578   5.893   6.439 -1.3694  1.4105  0.8654
 1799SOL    HW2 6561   8.667   5.851   6.554 -1.5732 -1.2392  0.1207
 1800SOL     OW 6562   2.022   1.699   4.134 -0.1498  0.0234 -0.5569
 1800SOL    HW1 6563   2.055   1.674   4.220 -1.2832  0.2139 -0.0644
 1800SOL    HW2 6564   2.030   1.619   4.081  0.4765 -0.1122 -0.2655
 1801SOL     OW 6565   1.513   5.966   0.755 -0.1759  0.2314  0.0612
 1801SOL    HW1 6566   1.439   6.025   0.742 -0.0396  0.1491 -1.2852
 1801SOL    HW2 6567   1.484   5.883   0.718  1.0207  0.5453 -1.7089
 1802SOL     OW 6568   3.426   8.386   1.843 -0.1486 -0.5103  0.6361
 1802SOL    HW1 6569   3.371   8.384   1.764 -1.1606 -2.1973  1.3485
 1802SOL    HW2 6570   3.416   8.476   1.876 -1.2133 -0.3238 -0.1260
 1803SOL     OW 6571   3.825   7.583   0.221  0.1792  0.4818  0.0786
 1803SOL    HW1 6572   3.882   7.613   0.150  0.0655 -1.8546 -1.1290
 1803SOL    HW2 6573   3.741   7.625   0.204  0.3133  0.3863 -0.8830
 1804SOL     OW 6574   5.025   5.222   1.916  0.1681  0.4800 -0.3925
 1804SOL    HW1 6575   4.935   5.250   1.901 -0.2984 -1.1179 -0.6844
 1804SOL    HW2 6576   5.057   5.195   1.830 -0.0699 -1.6960  0.1385
 1805SOL     OW 6577   3.601   6.207   0.833  0.3014 -0.3766 -0.1638
 1805SOL    HW1 6578   3.558   6.291   0.852 -0.0012 -0.3478 -0.9381
 1805SOL    HW2 6579   3.556   6.144   0.889 -0.1823 -0.1932 -0.3366
 1806SOL     OW 6580   4.556   6.479   1.040 -0.1803  0.0699 -0.1097
 1806SOL    HW1 6581   4.612   6.555   1.058  0.0728 -0.5498  2.0371
 1806SOL    HW2 6582   4.612   6.419   0.991  0.1555  0.5839 -0.3580
 1807SOL     OW 6583   7.427   7.066   3.570 -0.0118  0.0416 -0.2607
 1807SOL    HW1 6584   7.449   7.006   3.641  0.3049  0.7668  0.2643
 1807SOL    HW2 6585   7.345   7.106   3.598 -1.1768 -1.3884 -1.4118
 1808SOL     OW 6586   8.805   5.735   7.607 -0.2002  0.0895  0.1349
 1808SOL    HW1 6587   8.735   5.743   7.672 -1.3849 -0.4465 -1.0320
 1808SOL    HW2 6588   8.847   5.652   7.629 -0.5026 -0.0234  0.3095
 1809SOL     OW 6589   3.962   7.999   7.337 -0.4582  0.0172 -0.1739
 1809SOL    HW1 6590   3.873   7.975   7.364  0.1136 -0.9376  0.9587
 1809SOL    HW2 6591   3.964   7.981   7.243 -0.6125 -2.8066  0.2848
 1810SOL     OW 6592   7.429   3.991   2.840  0.4903 -0.7027  0.3864
 1810SOL    HW1 6593   7.461   4.018   2.926  1.8989 -1.0558  0.0031
 1810SOL    HW2 6594   7.504   3.949   2.799 -0.3519 -1.1292 -0.7724
 1811SOL     OW 6595   5.065   0.056   5.094  0.2388 -0.3254  0.3428
 1811SOL    HW1 6596   4.978   0.081   5.064 -0.9236  0.1142  3.6734
 1811SOL    HW2 6597   5.123   0.122   5.057 -0.8734 -0.2672 -1.4221
 1812SOL     OW 6598   1.707   7.520   6.345 -1.0524  0.0041  0.1562
 1812SOL    HW1 6599   1.690   7.457   6.415 -2.1033  0.3616  0.2449
 1812SOL    HW2 6600   1.668   7.479   6.267 -2.7042  0.9792  0.4207
 1813SOL     OW 6601   3.502   1.167   1.562  0.6237 -0.5137  0.1613
 1813SOL    HW1 6602   3.431   1.116   1.523 -0.6040 -1.2770  3.1456
 1813SOL    HW2 6603   3.563   1.101   1.596  2.1298  0.1337 -1.1277
 1814SOL     OW 6604   5.735   0.504   4.125 -0.3965 -0.3131 -0.8915
 1814SOL    HW1 6605   5.724   0.415   4.157  1.0711 -0.7944 -1.6600
 1814SOL    HW2 6606   5.646   0.541   4.126 -1.0772 -1.8897 -0.9216
 1815SOL     OW 6607   2.711   5.345   3.688  0.0306 -0.2683  0.0103
 1815SOL    HW1 6608   2.800   5.345   3.725  0.3683  0.6699 -0.7669
 1815SOL    HW2 6609   2.725   5.335   3.594 -0.6533  0.4752 -0.1788
 1816SOL     OW 6610   8.520   2.895   4.124  0.3960 -0.3171 -0.0743
 1816SOL    HW1 6611   8.601   2.867   4.166  0.6050  0.2927 -0.0583
 1816SOL    HW2 6612   8.470   2.938   4.193  0.4578  0.1147 -0.2965
 1817SOL     OW 6613   2.424   3.578   6.137 -0.0048  0.0269  0.5069
 1817SOL    HW1 6614   2.509   3.612   6.108 -0.7787  1.0200 -0.7390
 1817SOL    HW2 6615   2.419   3.602   6.229 -0.0530  2.4788 -0.0618
 1818SOL     OW 6616   2.105   3.234   7.663 -0.4102 -0.0353  0.1517
 1818SOL    HW1 6617   2.159   3.158   7.686  0.6552  0.5564 -0.3267
 1818SOL    HW2 6618   2.083   3.220   7.571 -1.5319 -0.5328  0.4813
 1819SOL     OW 6619   4.244   5.358   5.638 -0.5277  0.7132  0.1862
 1819SOL    HW1 6620   4.305   5.419   5.679  0.9845 -0.4078 -0.3283
 1819SOL    HW2 6621   4.184   5.414   5.589  0.0483  1.8471  0.7434
 1820SOL     OW 6622   4.485   4.987   6.202 -0.2227  0.0015  0.1001
 1820SOL    HW1 6623   4.401   4.957   6.167 -0.1366  1.3592 -1.4080
 1820SOL    HW2 6624   4.463   5.033   6.282 -0.8144 -0.4479  0.1982
 1821SOL     OW 6625   6.984   6.213   0.001 -0.0454 -0.3862 -0.3879
 1821SOL    HW1 6626   7.048   6.142   0.007 -0.2201 -0.4523  0.9557
 1821SOL    HW2 6627   6.902   6.170  -0.022 -0.4467 -0.8368  1.6926
 1822SOL     OW 6628   3.358   7.031   2.650 -0.2279  0.1471 -0.0423
 1822SOL    HW1 6629   3.423   7.100   2.663 -0.3046  0.4541 -1.1804
 1822SOL    HW2 6630   3.317   7.020   2.735 -2.1543  3.4602 -0.3834
 1823SOL     OW 6631   3.943   4.184   2.671  0.2499  0.4146  0.0638
 1823SOL    HW1 6632   4.014   4.141   2.720 -0.5493 -0.0018  0.8939
 1823SOL    HW2 6633   3.981   4.201   2.585  1.4760  0.5317  0.5978
 1824SOL     OW 6634   1.038   6.834   5.469 -0.1625 -0.3319 -0.3530
 1824SOL    HW1 6635   1.070   6.917   5.434  1.7823 -0.9879 -0.2213
 1824SOL    HW2 6636   0.946   6.831   5.442  0.2468  0.9609 -2.0489
 1825SOL     OW 6637   1.737   7.424   5.251  0.0216  0.1784 -0.4482
 1825SOL    HW1 6638   1.712   7.354   5.190 -2.8251 -0.5011  1.3179
 1825SOL    HW2 6639   1.786   7.380   5.320 -2.8575 -0.4690  1.3299
 1826SOL     OW 6640   7.019   8.631   8.617 -0.8177  0.7365 -0.4820
 1826SOL    HW1 6641   7.011   8.538   8.598 -1.0646  0.7483 -0.4383
 1826SOL    HW2 6642   6.952   8.673   8.563  0.2832  1.0434 -1.6429
 1827SOL     OW 6643   2.458   0.835   3.843  0.7464  0.2538  0.0811
 1827SOL    HW1 6644   2.396   0.792   3.784 -0.1787  1.5996  0.0192
 1827SOL    HW2 6645   2.540   0.789   3.830 -0.2281 -1.6032  0.1701
 1828SOL     OW 6646   0.588   6.371   7.061 -0.8911  0.5321  0.1415
 1828SOL    HW1 6647   0.620   6.312   6.993 -1.7792 -1.3664  1.2975
 1828SOL    HW2 6648   0.662   6.381   7.122 -1.1869 -0.6133  0.7112
 1829SOL     OW 6649   0.020   7.931   3.922 -0.5935  0.0538 -0.0378
 1829SOL    HW1 6650   0.024   7.867   3.993 -0.5828 -0.3156 -0.3701
 1829SOL    HW2 6651  -0.051   7.901   3.866 -1.0778  0.7417  0.1939
 1830SOL     OW 6652   6.473   7.019   4.112  0.7216 -0.6711 -0.3381
 1830SOL    HW1 6653   6.479   6.996   4.019  1.9958 -2.4072  0.1242
 1830SOL    HW2 6654   6.396   6.971   4.144  0.1112  0.1583 -0.5465
 1831SOL     OW 6655   2.173   8.607   2.107 -0.9497  0.0234  0.3973
 1831SOL    HW1 6656   2.240   8.581   2.043 -0.2578 -2.3664  1.9836
 1831SOL    HW2 6657   2.199   8.695   2.134  2.3883 -1.2734  1.8918
 1832SOL     OW 6658   8.084   5.851   7.869  0.6312  0.2841  0.3028
 1832SOL    HW1 6659   8.061   5.762   7.895  1.0200 -0.0044 -0.3385
 1832SOL    HW2 6660   8.020   5.873   7.801  1.5580 -0.1215 -0.7167
 1833SOL     OW 6661   5.959   4.595   5.943  0.3320 -0.2798 -0.2521
 1833SOL    HW1 6662   5.935   4.685   5.921 -0.2877 -0.0494  1.2632
 1833SOL    HW2 6663   6.019   4.568   5.873 -0.8805  0.6771 -1.7321
 1834SOL     OW 6664   8.512   5.268   5.106  0.2762  0.2080  0.2347
 1834SOL    HW1 6665   8.433   5.304   5.067  1.3055  0.7207 -1.4797
 1834SOL    HW2 6666   8.579   5.280   5.039  2.2393  1.4492  2.2755
 1835SOL     OW 6667   3.092   7.568   2.502  0.3755 -0.1234  0.1405
 1835SOL    HW1 6668   3.126   7.579   2.591 -1.1718  1.5251  0.6131
 1835SOL    HW2 6669   2.997   7.562   2.513  0.2664 -1.7816 -1.2902
 1836SOL     OW 6670   4.448   3.871   2.332 -0.1943  0.0088  0.1311
 1836SOL    HW1 6671   4.425   3.868   2.239 -1.0040 -1.6948  0.3556
 1836SOL    HW2 6672   4.533   3.828   2.338  0.0366  0.4588  0.1452
 1837SOL     OW 6673   3.076   5.083   8.298 -0.1940  0.2565 -0.7231
 1837SOL    HW1 6674   3.108   5.037   8.375 -1.3336 -2.1303 -1.5691
 1837SOL    HW2 6675   3.108   5.172   8.308 -0.0093 -0.0561  2.3000
 1838SOL     OW 6676   7.964   2.044   3.150  0.1106  0.3926 -0.1034
 1838SOL    HW1 6677   7.885   2.091   3.177  0.1559  0.5506 -0.2392
 1838SOL    HW2 6678   7.955   2.034   3.056 -0.3071 -0.6515  0.0447
 1839SOL     OW 6679   1.680   4.150   4.385  0.4722  0.8961 -0.2471
 1839SOL    HW1 6680   1.586   4.164   4.392  0.5159  1.1637 -0.1790
 1839SOL    HW2 6681   1.719   4.219   4.439  0.6629 -0.2084  1.0938
 1840SOL     OW 6682   0.811   6.066   2.830 -0.2597 -0.5654  0.5416
 1840SOL    HW1 6683   0.886   6.094   2.778 -0.3963 -0.5750  0.3370
 1840SOL    HW2 6684   0.740   6.124   2.802 -0.3566 -0.6302  0.6533
 1841SOL     OW 6685   7.298   4.036   0.211  0.1159  0.0885  0.2220
 1841SOL    HW1 6686   7.371   4.067   0.264 -1.0933 -0.0416  2.0430
 1841SOL    HW2 6687   7.333   3.959   0.166  1.5804  1.0025 -0.2994
 1842SOL     OW 6688   0.038   8.638   3.081 -0.3194  0.2343  0.1110
 1842SOL    HW1 6689  -0.003   8.718   3.115  0.6969  1.0032 -0.3961
 1842SOL    HW2 6690   0.084   8.601   3.156  1.0710  1.3734 -0.1383
 1843SOL     OW 6691   7.769   0.065   5.298  0.4509 -0.1564 -0.0388
 1843SOL    HW1 6692   7.770   0.123   5.222  0.7681 -0.9997 -0.6868
 1843SOL    HW2 6693   7.757  -0.022   5.262  1.1898 -0.6330  0.8397
 1844SOL     OW 6694   8.703   6.827   5.914  0.1323  0.4582 -0.3889
 1844SOL    HW1 6695   8.753   6.776   5.850  1.3828  0.3141  0.6572
 1844SOL    HW2 6696   8.747   6.912   5.916  0.5014  0.2585  0.7102
 1845SOL     OW 6697   7.907   1.991   7.153 -0.8359  0.2090 -0.5867
 1845SOL    HW1 6698   7.832   1.992   7.213  0.1004  1.1330  0.6257
 1845SOL    HW2 6699   7.982   2.013   7.209  0.0712  1.1727 -2.1274
 1846SOL     OW 6700   5.339   0.654   6.369 -0.2472 -0.5775  0.1311
 1846SOL    HW1 6701   5.271   0.644   6.303  1.9755 -1.8646 -2.1864
 1846SOL    HW2 6702   5.335   0.746   6.395 -2.7479 -0.6099  0.0484
 1847SOL     OW 6703   3.374   1.353   3.975  0.0700  0.0625 -0.1546
 1847SOL    HW1 6704   3.332   1.354   4.061  0.2421 -0.3596 -0.0614
 1847SOL    HW2 6705   3.463   1.383   3.992 -0.8133  3.3190 -0.7158
 1848SOL     OW 6706   2.862   1.281   7.366  0.4914  0.7507  0.2543
 1848SOL    HW1 6707   2.843   1.331   7.287  0.1866  1.1115  0.5495
 1848SOL    HW2 6708   2.802   1.206   7.362  1.2721  0.1522 -0.4196
 1849SOL     OW 6709   6.207   7.607   6.779 -0.4373 -0.4250  0.5533
 1849SOL    HW1 6710   6.215   7.514   6.798  1.6715 -0.2928  0.4764
 1849SOL    HW2 6711   6.294   7.634   6.749 -1.1493  1.4505  0.0012
 1850SOL     OW 6712   1.872   3.657   4.395 -0.2289  0.3248 -0.7456
 1850SOL    HW1 6713   1.803   3.592   4.409 -0.5565  0.9680  0.8690
 1850SOL    HW2 6714   1.950   3.605   4.374 -0.6491 -0.5541 -0.1948
 1851SOL     OW 6715   0.575   0.080   1.035  0.2022  0.1616 -0.2104
 1851SOL    HW1 6716   0.647   0.142   1.037  0.4839 -0.1637 -0.1648
 1851SOL    HW2 6717   0.529   0.098   0.953 -0.4139  1.2037  0.3360
 1852SOL     OW 6718   6.745   5.445   2.236 -0.2828  0.0952  0.4560
 1852SOL    HW1 6719   6.653   5.455   2.211 -0.1914  0.0503  0.0992
 1852SOL    HW2 6720   6.760   5.350   2.234 -0.1588  0.1170  0.2501
 1853SOL     OW 6721   5.076   6.167   2.885  0.0507  0.5844  0.1274
 1853SOL    HW1 6722   5.046   6.257   2.899  1.2091  0.7573  1.8172
 1853SOL    HW2 6723   5.163   6.177   2.847  0.3939  0.1976  0.7929
 1854SOL     OW 6724   6.748   1.328   4.410 -0.0574  0.2817  0.1755
 1854SOL    HW1 6725   6.661   1.315   4.447 -2.0952  1.2116 -3.7133
 1854SOL    HW2 6726   6.803   1.262   4.452 -3.4403 -2.6276  0.4667
 1855SOL     OW 6727   2.034   5.580   6.332 -0.4854 -0.0067  0.1251
 1855SOL    HW1 6728   2.049   5.662   6.379  1.5836  0.8040 -1.8105
 1855SOL    HW2 6729   2.094   5.518   6.373  0.4666  0.3957 -0.6126
 1856SOL     OW 6730   2.038   7.404   7.137  0.3457  0.0479 -0.2619
 1856SOL    HW1 6731   1.991   7.441   7.212 -0.7194  2.0371 -1.8220
 1856SOL    HW2 6732   2.128   7.393   7.168  0.1305  1.6428  1.0394
 1857SOL     OW 6733   4.964   3.851   8.257 -0.3667  0.2236  0.0773
 1857SOL    HW1 6734   4.876   3.874   8.228 -0.0209  0.4800 -0.7859
 1857SOL    HW2 6735   5.005   3.809   8.181  0.6087  1.0447  0.1204
 1858SOL     OW 6736   7.127   6.051   4.348 -0.4260  0.5161  0.1569
 1858SOL    HW1 6737   7.168   5.984   4.294 -0.8657 -0.5729  1.1372
 1858SOL    HW2 6738   7.183   6.059   4.425 -2.1193 -1.2541  1.6901
 1859SOL     OW 6739   0.744   5.391   2.535  0.0192  0.1750  0.3267
 1859SOL    HW1 6740   0.817   5.412   2.594 -0.9639  0.3232  1.5415
 1859SOL    HW2 6741   0.689   5.469   2.537 -0.2542  0.0010 -0.4566
 1860SOL     OW 6742   1.296   1.215   5.032 -0.3039 -0.3970 -0.1252
 1860SOL    HW1 6743   1.370   1.274   5.015  1.0248 -0.8326  3.3355
 1860SOL    HW2 6744   1.219   1.262   5.001  1.0490  1.7128 -0.4697
 1861SOL     OW 6745   6.758   5.455   6.502  0.0064 -0.0552 -0.0064
 1861SOL    HW1 6746   6.670   5.420   6.516  0.2614 -2.1802 -2.7936
 1861SOL    HW2 6747   6.816   5.382   6.523  0.8541  0.1741 -1.4127
 1862SOL     OW 6748   6.516   8.170   7.536  0.1511  0.1797  0.5653
 1862SOL    HW1 6749   6.534   8.256   7.500  0.8013  0.2301  1.0071
 1862SOL    HW2 6750   6.546   8.175   7.627 -1.4355  0.0494  1.1300
 1863SOL     OW 6751   5.527   0.093   6.949  0.1491  0.6113  0.4049
 1863SOL    HW1 6752   5.597   0.092   7.015 -0.1691 -1.7673  0.7726
 1863SOL    HW2 6753   5.464   0.028   6.980 -0.6362  0.3500 -1.6085
 1864SOL     OW 6754   2.426   7.839   1.544 -0.0632 -0.0142  0.2467
 1864SOL    HW1 6755   2.417   7.774   1.475 -1.9448 -0.4525  0.8643
 1864SOL    HW2 6756   2.520   7.854   1.550  0.2164 -0.7090 -1.7049
 1865SOL     OW 6757   5.367   0.962   0.194  0.2092 -0.1445 -0.1106
 1865SOL    HW1 6758   5.340   1.000   0.110 -2.6012  1.5471  1.4020
 1865SOL    HW2 6759   5.327   0.875   0.194  0.5704 -0.3199 -0.6604
 1866SOL     OW 6760   2.524   6.458   4.445 -0.3691  0.5622  0.3186
 1866SOL    HW1 6761   2.560   6.405   4.516 -0.3395 -0.3366 -0.3557
 1866SOL    HW2 6762   2.571   6.429   4.367 -0.6421  1.2976 -0.1248
 1867SOL     OW 6763   4.832   0.482   1.717 -0.1735  0.3264 -0.9405
 1867SOL    HW1 6764   4.805   0.423   1.787 -0.3110  0.5664 -0.7916
 1867SOL    HW2 6765   4.767   0.470   1.648  0.6602 -0.8492 -1.5519
 1868SOL     OW 6766   3.742   6.276   1.296 -0.5402  0.1223 -0.0442
 1868SOL    HW1 6767   3.710   6.244   1.380 -1.7915 -0.8440 -0.8617
 1868SOL    HW2 6768   3.821   6.325   1.318  0.4890 -2.0674  1.4398
 1869SOL     OW 6769   5.412   1.386   0.684  0.4932 -0.2494  0.1866
 1869SOL    HW1 6770   5.418   1.292   0.702  0.3916 -0.5425 -1.1888
 1869SOL    HW2 6771   5.416   1.393   0.588 -1.5787  0.9568  0.1087
 1870SOL     OW 6772   2.791   6.680   7.830  0.5388 -0.2611 -0.5811
 1870SOL    HW1 6773   2.837   6.762   7.849 -2.3373  1.3462 -0.0743
 1870SOL    HW2 6774   2.799   6.630   7.911  1.1014  0.1091 -0.3976
 1871SOL     OW 6775   7.787   0.784   0.780  0.1480  0.9126 -0.2375
 1871SOL    HW1 6776   7.700   0.760   0.811  0.4587  0.6217  0.4282
 1871SOL    HW2 6777   7.835   0.701   0.775  1.3399  1.3354  2.4038
 1872SOL     OW 6778   4.476   2.148   6.262  0.2985  0.0612 -0.5347
 1872SOL    HW1 6779   4.434   2.228   6.295 -0.3091 -0.3477 -0.2905
 1872SOL    HW2 6780   4.473   2.087   6.336 -1.9934 -1.2256 -1.5771
 1873SOL     OW 6781   2.613   4.432   1.890 -0.1528  0.0140  0.2139
 1873SOL    HW1 6782   2.577   4.520   1.882  1.3379  0.8992  2.3223
 1873SOL    HW2 6783   2.663   4.420   1.809 -0.0521  1.2617  0.0654
 1874SOL     OW 6784   8.335   0.762   2.710  0.2961  0.0312  0.0622
 1874SOL    HW1 6785   8.301   0.696   2.770 -0.6990  0.0313 -0.4767
 1874SOL    HW2 6786   8.335   0.719   2.624  3.1468 -0.4901  0.2437
 1875SOL     OW 6787   8.018   4.887   8.434  0.3568 -0.2601 -0.7359
 1875SOL    HW1 6788   8.015   4.851   8.523  2.0145  1.9124  0.3112
 1875SOL    HW2 6789   8.085   4.834   8.390  1.1366  0.0281  0.0559
 1876SOL     OW 6790   6.445   4.069   0.229 -0.7019 -0.4136  0.7675
 1876SOL    HW1 6791   6.428   4.103   0.317  0.3314 -0.0027  0.8221
 1876SOL    HW2 6792   6.479   3.980   0.244 -0.6354 -0.3859  0.7831
 1877SOL     OW 6793   5.944   2.798   1.172 -0.1998  0.7435  0.8501
 1877SOL    HW1 6794   5.950   2.733   1.102  0.5081 -0.1865  1.7421
 1877SOL    HW2 6795   6.010   2.771   1.236  0.9412  3.0142  0.7326
 1878SOL     OW 6796   8.164   2.974   8.049  0.2826  0.0203  0.2037
 1878SOL    HW1 6797   8.134   2.892   8.009 -3.9452  0.6032  1.6388
 1878SOL    HW2 6798   8.217   3.017   7.982 -2.4323 -1.1914 -2.9442
 1879SOL     OW 6799   7.762   6.513   6.042 -0.1887 -0.1189 -0.0242
 1879SOL    HW1 6800   7.772   6.469   6.126 -1.4291  0.3880  0.4153
 1879SOL    HW2 6801   7.823   6.468   5.984  1.0332 -0.1737  1.2472
 1880SOL     OW 6802   4.657   1.827   1.408 -0.2491  0.1147 -0.1036
 1880SOL    HW1 6803   4.564   1.807   1.419  0.1390 -1.2230  1.0266
 1880SOL    HW2 6804   4.695   1.747   1.373  0.3997  0.8582 -1.1567
 1881SOL     OW 6805   4.711   4.789   1.239 -0.4978  0.0169 -0.2392
 1881SOL    HW1 6806   4.782   4.746   1.191 -0.7999 -0.1490 -0.5349
 1881SOL    HW2 6807   4.684   4.725   1.305 -1.3720 -0.5051 -1.0818
 1882SOL     OW 6808   2.233   7.217   6.274 -0.0543 -0.3261  0.0837
 1882SOL    HW1 6809   2.140   7.198   6.285  0.0804 -0.9511  0.1467
 1882SOL    HW2 6810   2.265   7.228   6.363 -0.0208 -0.3293  0.0718
 1883SOL     OW 6811   8.294   2.222   4.453 -0.0956  0.2986  0.2651
 1883SOL    HW1 6812   8.276   2.186   4.366 -1.8587  0.1281  0.6679
 1883SOL    HW2 6813   8.211   2.215   4.499  1.4370 -2.3607  2.9769
 1884SOL     OW 6814   4.368   7.862   0.240  0.4393  0.1998  0.1656
 1884SOL    HW1 6815   4.303   7.929   0.263  0.3107 -0.3639  1.5416
 1884SOL    HW2 6816   4.451   7.910   0.238  0.3152  0.4589  0.8806
 1885SOL     OW 6817   4.418   0.063   8.724  0.1649 -0.3406 -0.5832
 1885SOL    HW1 6818   4.511   0.053   8.745 -0.4255 -0.8446  2.1786
 1885SOL    HW2 6819   4.381  -0.024   8.739 -0.5390 -0.6557 -3.4608
 1886SOL     OW 6820   0.006   3.102   3.266 -0.5233  0.6528 -0.0171
 1886SOL    HW1 6821  -0.045   3.067   3.193 -0.0189  0.7611 -0.4206
 1886SOL    HW2 6822   0.088   3.131   3.227 -0.1324  0.4417  0.6412
 1887SOL     OW 6823   3.880   3.762   8.366 -0.5596 -0.2641 -0.3166
 1887SOL    HW1 6824   3.911   3.845   8.402  0.3827 -0.4557 -0.6602
 1887SOL    HW2 6825   3.814   3.732   8.429 -3.3597  2.2977 -1.8099
 1888SOL     OW 6826   7.474   0.221   4.109 -0.3419 -0.5542  0.2394
 1888SOL    HW1 6827   7.427   0.139   4.094 -0.8874 -0.1425 -0.3907
 1888SOL    HW2 6828   7.429   0.284   4.053 -0.0224  0.2097  0.8284
 1889SOL     OW 6829   7.870   6.767   3.990  0.1071 -0.5295  0.2266
 1889SOL    HW1 6830   7.964   6.748   3.987 -0.1231 -1.6480 -1.1243
 1889SOL    HW2 6831   7.829   6.681   3.996 -0.8729 -0.2300 -1.4341
 1890SOL     OW 6832   3.608   1.325   1.842  0.1469 -0.5534  0.3368
 1890SOL    HW1 6833   3.645   1.313   1.755  1.1538  0.9822  0.5005
 1890SOL    HW2 6834   3.613   1.420   1.857  0.3494 -0.8194  2.2048
 1891SOL     OW 6835   0.870   3.909   2.563 -0.1292 -0.0030 -0.0953
 1891SOL    HW1 6836   0.898   3.835   2.509  0.0107 -0.6812  0.8694
 1891SOL    HW2 6837   0.949   3.960   2.578 -0.5787  1.5555 -2.4820
 1892SOL     OW 6838   0.106   4.094   8.523  0.1154  0.6019 -0.6090
 1892SOL    HW1 6839   0.077   4.182   8.501 -1.7399  0.1728 -0.0599
 1892SOL    HW2 6840   0.180   4.106   8.582 -0.1953  1.7832 -0.4530
 1893SOL     OW 6841   7.194   0.559   0.882 -0.6294 -0.4345 -0.2858
 1893SOL    HW1 6842   7.165   0.469   0.898  0.6630 -1.4271 -2.9236
 1893SOL    HW2 6843   7.118   0.603   0.844 -0.6280 -1.0746 -1.0378
 1894SOL     OW 6844   4.944   2.823   5.041  0.1790  0.1811 -0.4288
 1894SOL    HW1 6845   4.898   2.740   5.043  0.3742 -0.0999 -3.0900
 1894SOL    HW2 6846   5.037   2.800   5.041  0.4791  0.6940  3.5312
 1895SOL     OW 6847   0.360   4.020   5.341  0.0075 -0.7008 -0.1443
 1895SOL    HW1 6848   0.385   3.989   5.429  1.1563  0.9810  0.1641
 1895SOL    HW2 6849   0.377   3.945   5.284  1.1450 -1.1928  0.7983
 1896SOL     OW 6850   6.843   4.624   0.102 -0.1714  0.3090 -0.0211
 1896SOL    HW1 6851   6.885   4.649   0.020  0.8032  0.1696  0.4204
 1896SOL    HW2 6852   6.777   4.559   0.076  0.6890 -0.3590 -0.6157
 1897SOL     OW 6853   8.600   4.426   4.996 -0.1930  0.2846 -1.0459
 1897SOL    HW1 6854   8.663   4.405   4.927  0.2692  1.1105 -0.8974
 1897SOL    HW2 6855   8.627   4.513   5.027 -1.5437  0.7535 -1.1220
 1898SOL     OW 6856   6.168   8.794   1.688  0.0670 -0.6995 -0.0249
 1898SOL    HW1 6857   6.145   8.837   1.606  1.5962 -0.4000 -0.3231
 1898SOL    HW2 6858   6.084   8.784   1.734 -0.5707  0.8486 -0.7747
 1899SOL     OW 6859   5.493   5.109   4.948  0.4959  0.8601  0.0920
 1899SOL    HW1 6860   5.574   5.072   4.912 -1.2495 -2.1901 -1.1440
 1899SOL    HW2 6861   5.436   5.118   4.872 -1.4524 -0.4400  1.3060
 1900SOL     OW 6862   3.800   0.425   6.799  0.0537  0.2915  0.6367
 1900SOL    HW1 6863   3.822   0.479   6.723  0.2064 -0.1379  0.3715
 1900SOL    HW2 6864   3.885   0.405   6.839  0.1594 -1.1515 -0.2384
 1901SOL     OW 6865   3.362   2.526   8.826  0.4761 -0.1036 -0.6167
 1901SOL    HW1 6866   3.446   2.573   8.826  0.8705 -0.7767  0.6956
 1901SOL    HW2 6867   3.297   2.594   8.807  1.3855  0.2185 -2.9162
 1902SOL     OW 6868   5.798   4.788   5.778  0.0377 -0.0011 -0.6607
 1902SOL    HW1 6869   5.703   4.789   5.793  0.3528 -1.6103  2.0652
 1902SOL    HW2 6870   5.814   4.701   5.741  0.6341 -0.5528  0.8270
 1903SOL     OW 6871   5.514   8.362   5.227  0.4446  0.0041 -0.5221
 1903SOL    HW1 6872   5.472   8.315   5.300  0.5401 -1.0538 -1.1263
 1903SOL    HW2 6873   5.575   8.422   5.269  3.2469 -3.1102  0.2968
 1904SOL     OW 6874   1.824   0.875   3.757  0.0522 -0.3583  0.0537
 1904SOL    HW1 6875   1.790   0.963   3.740 -2.3513 -1.0069  1.1771
 1904SOL    HW2 6876   1.887   0.860   3.686  0.2024  2.0731 -0.4221
 1905SOL     OW 6877   6.500   2.139   4.622 -0.0349  0.1659 -0.0628
 1905SOL    HW1 6878   6.538   2.213   4.668  0.7313 -0.0587 -0.3128
 1905SOL    HW2 6879   6.554   2.064   4.648  0.2006 -0.0211 -1.0392
 1906SOL     OW 6880   1.390   2.273   4.706  0.3940  0.1389  0.2136
 1906SOL    HW1 6881   1.296   2.281   4.689  0.5738 -0.3930 -1.1544
 1906SOL    HW2 6882   1.424   2.362   4.691  0.4776 -0.2128 -2.0079
 1907SOL     OW 6883   7.261   6.162   2.139  0.2008  0.2238  0.1217
 1907SOL    HW1 6884   7.193   6.128   2.081  0.8507 -0.2051 -0.4049
 1907SOL    HW2 6885   7.332   6.190   2.080 -0.0959  2.0399  0.5695
 1908SOL     OW 6886   1.084   2.415   7.222  0.1393 -0.1907 -0.0644
 1908SOL    HW1 6887   1.130   2.483   7.171  0.4519 -0.6597 -0.4213
 1908SOL    HW2 6888   0.996   2.450   7.235 -0.2799 -0.4953 -1.8438
 1909SOL     OW 6889   7.163   6.738   4.462 -0.1019  0.5175  0.9647
 1909SOL    HW1 6890   7.172   6.650   4.424 -0.4326  1.2527 -0.9049
 1909SOL    HW2 6891   7.223   6.792   4.410 -1.8588  1.9062  0.2934
 1910SOL     OW 6892   4.500   7.428   7.695 -0.0976 -0.3685  0.2075
 1910SOL    HW1 6893   4.495   7.504   7.753  1.9149  1.3781 -1.7231
 1910SOL    HW2 6894   4.423   7.376   7.717 -2.3319  2.8504  0.7850
 1911SOL     OW 6895   3.564   5.350   3.391  1.0793 -0.0635  0.4670
 1911SOL    HW1 6896   3.488   5.402   3.365  0.7434 -0.5969  0.3587
 1911SOL    HW2 6897   3.541   5.316   3.477 -0.7376 -3.7749 -1.2585
 1912SOL     OW 6898   0.046   6.557   1.845  0.0100 -0.1820  0.1181
 1912SOL    HW1 6899   0.005   6.599   1.921 -0.1844  0.4872 -0.3436
 1912SOL    HW2 6900  -0.028   6.527   1.792  0.1466 -0.7990  0.2751
 1913SOL     OW 6901   3.740   4.929   7.212  0.1348 -0.6633 -0.3455
 1913SOL    HW1 6902   3.767   4.864   7.147  0.6672 -0.7904 -0.0056
 1913SOL    HW2 6903   3.816   4.938   7.270  1.3681  2.5849 -2.1745
 1914SOL     OW 6904   3.026   7.848   6.650 -0.1660 -0.0018  0.0419
 1914SOL    HW1 6905   3.000   7.914   6.586  1.0265  0.9813  0.5116
 1914SOL    HW2 6906   3.120   7.863   6.663 -0.1399 -0.9447  1.1348
 1915SOL     OW 6907   8.128   0.258   4.597 -0.4859  0.1981  0.4505
 1915SOL    HW1 6908   8.040   0.282   4.626  0.2138  1.6922  1.4855
 1915SOL    HW2 6909   8.170   0.224   4.676 -0.1821 -0.7181 -0.0893
 1916SOL     OW 6910   8.616   6.775   3.382 -0.4484  0.0078  0.1490
 1916SOL    HW1 6911   8.550   6.826   3.336 -1.0404 -3.0670 -2.8278
 1916SOL    HW2 6912   8.689   6.769   3.320 -0.4533 -2.7206  0.3090
 1917SOL     OW 6913   4.162   3.822   2.984  0.5482  0.3220 -0.2217
 1917SOL    HW1 6914   4.157   3.842   3.078 -0.3292 -0.4598 -0.0863
 1917SOL    HW2 6915   4.136   3.903   2.941 -2.0420 -0.1391  0.3012
 1918SOL     OW 6916   2.468   2.032   2.840  0.4159 -0.4820 -0.2590
 1918SOL    HW1 6917   2.509   1.966   2.896 -0.7592 -1.8666 -0.9545
 1918SOL    HW2 6918   2.512   2.024   2.756  0.4258 -0.2232 -0.2791
 1919SOL     OW 6919   1.805   1.817   5.312  0.1426  0.5041 -0.1020
 1919SOL    HW1 6920   1.762   1.879   5.253 -0.2761 -0.1316 -0.4799
 1919SOL    HW2 6921   1.783   1.731   5.276  0.8404  0.1413  0.3274
 1920SOL     OW 6922   4.121   1.425   6.544 -0.2789 -0.1142  0.0552
 1920SOL    HW1 6923   4.129   1.517   6.519 -1.4204  0.0901  0.3530
 1920SOL    HW2 6924   4.208   1.400   6.572  0.6672  0.1575 -2.3407
 1921SOL     OW 6925   6.874   1.660   3.542  0.1986  1.0381 -0.0002
 1921SOL    HW1 6926   6.828   1.611   3.610 -0.6551  1.0045 -0.5808
 1921SOL    HW2 6927   6.853   1.614   3.461  2.9145 -0.1868 -0.1202
 1922SOL     OW 6928   3.241   4.451   7.456 -0.7947 -0.0603  1.1451
 1922SOL    HW1 6929   3.322   4.482   7.416 -1.5855  1.8305  0.8912
 1922SOL    HW2 6930   3.203   4.392   7.391 -0.3368  0.1798  0.6501
 1923SOL     OW 6931   3.053   0.526   2.586  0.1828  0.0573 -0.2394
 1923SOL    HW1 6932   3.042   0.433   2.605 -0.6424  0.1073 -0.4444
 1923SOL    HW2 6933   3.026   0.570   2.667 -2.0889  0.2157 -1.0233
 1924SOL     OW 6934   0.299   5.001   6.792 -0.1408  0.1737  0.2853
 1924SOL    HW1 6935   0.245   5.078   6.775 -0.4109 -0.2917 -1.0570
 1924SOL    HW2 6936   0.252   4.929   6.750  1.2190 -0.3465 -0.3944
 1925SOL     OW 6937   4.427   1.604   5.310 -0.3187  0.1917 -0.3505
 1925SOL    HW1 6938   4.475   1.633   5.388 -1.3833 -0.5884  0.6435
 1925SOL    HW2 6939   4.335   1.610   5.335 -0.6548 -0.9029 -1.2326
 1926SOL     OW 6940   0.454   5.104   3.492 -0.8578 -0.1934 -0.0600
 1926SOL    HW1 6941   0.489   5.181   3.537 -0.4031 -1.1561  1.3140
 1926SOL    HW2 6942   0.405   5.139   3.418  0.2294  1.3619 -0.0866
 1927SOL     OW 6943   0.682   4.105   2.613  0.3121  0.0529  0.0945
 1927SOL    HW1 6944   0.602   4.053   2.624  0.8438 -0.8185 -0.1070
 1927SOL    HW2 6945   0.751   4.040   2.598  0.6684  0.8659 -2.1712
 1928SOL     OW 6946   6.299   6.926   1.230  0.1171 -0.2971  0.1083
 1928SOL    HW1 6947   6.317   7.014   1.262 -0.3031  0.4495 -1.5981
 1928SOL    HW2 6948   6.386   6.889   1.212  0.2994 -0.2858  0.9516
 1929SOL     OW 6949   4.494   5.475   7.892  0.1130  0.2102  0.2787
 1929SOL    HW1 6950   4.452   5.410   7.836  0.5657  0.6102 -0.5563
 1929SOL    HW2 6951   4.584   5.444   7.901  0.3984  0.8118 -0.3218
 1930SOL     OW 6952   1.369   7.566   2.033  0.1308 -0.0337  0.2623
 1930SOL    HW1 6953   1.421   7.627   1.981 -0.4366  0.6072  0.4349
 1930SOL    HW2 6954   1.287   7.557   1.984 -0.8204  1.3711  1.5344
 1931SOL     OW 6955   4.719   3.633   7.061 -0.3444  0.0315  0.7880
 1931SOL    HW1 6956   4.648   3.691   7.033  0.4513  0.4115 -0.5085
 1931SOL    HW2 6957   4.797   3.688   7.061  0.4231 -0.9946 -0.4314
 1932SOL     OW 6958   8.611   2.152   2.351 -0.1681  0.1827  0.4412
 1932SOL    HW1 6959   8.537   2.180   2.405 -0.5542  0.3562 -0.1629
 1932SOL    HW2 6960   8.574   2.085   2.293 -0.3800  1.7577 -1.3164
 1933SOL     OW 6961   7.743   5.261   2.814 -0.0168  0.2164  0.9491
 1933SOL    HW1 6962   7.833   5.291   2.826 -0.7626  2.0613  2.4057
 1933SOL    HW2 6963   7.697   5.336   2.776 -0.5573 -1.3644 -1.7751
 1934SOL     OW 6964   2.081   0.351   1.235  0.1958 -0.0686  0.1661
 1934SOL    HW1 6965   2.012   0.309   1.183 -0.4943  0.2610  0.7975
 1934SOL    HW2 6966   2.051   0.345   1.325 -0.2970  2.3861  0.2419
 1935SOL     OW 6967   7.017   0.554   2.265 -0.5116 -0.5024  0.3921
 1935SOL    HW1 6968   7.018   0.501   2.185 -1.3758 -0.1161  0.1183
 1935SOL    HW2 6969   7.103   0.596   2.266 -0.2536 -1.0054 -0.0011
 1936SOL     OW 6970   6.942   3.473   1.102 -0.2553 -0.9000  0.2989
 1936SOL    HW1 6971   7.011   3.416   1.068 -0.2041 -0.2374 -0.7725
 1936SOL    HW2 6972   6.973   3.562   1.084 -0.2096 -0.4992  2.1755
 1937SOL     OW 6973   3.732   7.845   7.473 -0.2957 -0.3983 -0.1188
 1937SOL    HW1 6974   3.714   7.926   7.521 -0.0656 -0.9422  0.9295
 1937SOL    HW2 6975   3.652   7.829   7.422 -0.3884  0.4170 -0.2415
 1938SOL     OW 6976   6.722   2.967   0.427 -0.1956  0.8890  0.0861
 1938SOL    HW1 6977   6.710   2.894   0.487 -1.7976 -0.1243 -1.3759
 1938SOL    HW2 6978   6.800   2.944   0.377 -0.5667  0.2641 -0.2191
 1939SOL     OW 6979   0.738   2.384   1.519  0.6809  0.3011 -0.3440
 1939SOL    HW1 6980   0.788   2.303   1.519 -3.6915 -2.7415  0.7051
 1939SOL    HW2 6981   0.709   2.394   1.428 -0.8192 -0.8754 -0.0393
 1940SOL     OW 6982   4.582   2.390   7.870 -0.3452 -0.1572  0.1571
 1940SOL    HW1 6983   4.509   2.393   7.932 -1.3207  0.9691 -0.9851
 1940SOL    HW2 6984   4.625   2.475   7.879  0.9524 -0.8611  0.9193
 1941SOL     OW 6985   6.371   3.687   0.660 -0.1781  0.2125  0.8015
 1941SOL    HW1 6986   6.382   3.670   0.567 -2.6349 -1.5192  0.7166
 1941SOL    HW2 6987   6.313   3.763   0.665  0.2762  0.5502  0.9165
 1942SOL     OW 6988   5.174   4.289   8.735  0.3596  0.4216 -0.5020
 1942SOL    HW1 6989   5.173   4.370   8.685 -1.9840  0.7100 -0.0929
 1942SOL    HW2 6990   5.085   4.256   8.730  0.7393 -1.0215  1.1394
 1943SOL     OW 6991   0.569   7.610   1.057  0.2729 -0.3100 -0.5284
 1943SOL    HW1 6992   0.584   7.704   1.060  2.1710 -0.6002  0.2498
 1943SOL    HW2 6993   0.596   7.584   0.968 -0.7161 -0.0770 -0.9112
 1944SOL     OW 6994   8.247   1.958   7.069 -0.6889  0.5451 -0.2996
 1944SOL    HW1 6995   8.333   1.970   7.028 -0.3977 -0.9347 -0.1634
 1944SOL    HW2 6996   8.194   2.030   7.034  0.5409  1.3721 -0.5311
 1945SOL     OW 6997   1.520   2.126   2.413  0.3014 -0.4900 -0.1311
 1945SOL    HW1 6998   1.444   2.076   2.444  0.0709  0.0621  0.1967
 1945SOL    HW2 6999   1.595   2.074   2.441  0.0518 -1.2674 -0.8389
 1946SOL     OW 7000   8.646   1.051   6.635  0.4392 -0.0579 -0.7310
 1946SOL    HW1 7001   8.724   1.104   6.651 -0.3952  1.2416 -0.8047
 1946SOL    HW2 7002   8.619   1.020   6.721  0.0896  0.9102 -0.4722
 1947SOL     OW 7003   8.111   4.029   2.999 -0.3492 -0.6889  0.1567
 1947SOL    HW1 7004   8.124   3.957   3.061 -0.3633 -0.6578  0.1960
 1947SOL    HW2 7005   8.190   4.082   3.008 -1.2756  0.5294  1.7642
 1948SOL     OW 7006   5.743   7.679   3.955 -0.6621  0.5732 -0.3603
 1948SOL    HW1 7007   5.672   7.623   3.925 -0.1526  0.0536 -0.5959
 1948SOL    HW2 7008   5.820   7.622   3.958 -0.8792  0.2407  3.0169
 1949SOL     OW 7009   4.063   7.057   2.038 -0.5110 -0.1961  0.5227
 1949SOL    HW1 7010   4.003   6.983   2.037 -0.5199 -0.1942 -0.8806
 1949SOL    HW2 7011   4.070   7.084   1.946  2.1811 -0.6392  0.5040
 1950SOL     OW 7012   3.625   4.751   3.040 -0.0826 -0.5514 -0.0466
 1950SOL    HW1 7013   3.699   4.711   2.996 -0.5753 -0.8012 -0.6584
 1950SOL    HW2 7014   3.656   4.839   3.063  0.0906 -0.3040 -1.1627
 1951SOL     OW 7015   7.278   6.758   3.018 -0.0130  0.0749 -0.1291
 1951SOL    HW1 7016   7.291   6.846   3.053  0.0697  0.3601 -0.8567
 1951SOL    HW2 7017   7.186   6.757   2.991 -0.1769 -0.2680  0.4372
 1952SOL     OW 7018   7.825   4.764   1.845 -0.2293 -0.0995  0.5354
 1952SOL    HW1 7019   7.788   4.847   1.814 -0.6851 -0.0292  1.2245
 1952SOL    HW2 7020   7.757   4.699   1.827  0.5962 -0.5516 -1.0747
 1953SOL     OW 7021   0.211   2.156   4.387 -0.4802  0.2078 -0.3032
 1953SOL    HW1 7022   0.239   2.229   4.331  0.7767 -0.3762 -0.4723
 1953SOL    HW2 7023   0.170   2.199   4.462  0.6442  1.1180 -0.1831
 1954SOL     OW 7024   6.488   5.667   3.896  0.0414  0.0604  0.0860
 1954SOL    HW1 7025   6.458   5.624   3.816  0.8713  0.0165 -0.2114
 1954SOL    HW2 7026   6.432   5.631   3.965 -1.4124  0.8857 -0.6005
 1955SOL     OW 7027   8.464   5.938   0.110 -0.2510 -0.0102 -0.0452
 1955SOL    HW1 7028   8.498   5.910   0.025 -2.6955 -0.5306 -0.9341
 1955SOL    HW2 7029   8.457   6.033   0.103 -0.6719 -0.0747 -0.5199
 1956SOL     OW 7030   7.835   5.202   0.708  0.2914 -0.3986  0.4235
 1956SOL    HW1 7031   7.766   5.235   0.652 -0.3244 -0.0120  1.3804
 1956SOL    HW2 7032   7.906   5.265   0.699  0.3117 -0.4950 -0.1286
 1957SOL     OW 7033   5.370   3.149   6.361 -0.2876 -0.2323 -0.2083
 1957SOL    HW1 7034   5.296   3.155   6.300 -0.1527  0.8448 -0.2949
 1957SOL    HW2 7035   5.443   3.190   6.313  0.7012 -2.3111 -0.5823
 1958SOL     OW 7036   4.907   7.990   2.341  0.5634  0.2381  0.0427
 1958SOL    HW1 7037   4.879   7.917   2.397 -0.0761  1.3091  1.1817
 1958SOL    HW2 7038   4.994   7.965   2.310  0.0744 -1.3144 -0.1853
 1959SOL     OW 7039   6.568   0.577   6.273 -0.7349 -0.6020 -0.2223
 1959SOL    HW1 7040   6.531   0.537   6.352  0.9554 -4.2680 -1.0853
 1959SOL    HW2 7041   6.519   0.537   6.201 -0.8327  1.0860 -1.1362
 1960SOL     OW 7042   7.667   4.477   0.851 -0.5880 -0.2289  0.1330
 1960SOL    HW1 7043   7.659   4.392   0.808  0.0734 -0.8266  1.1590
 1960SOL    HW2 7044   7.751   4.474   0.896  0.1400  1.5494 -1.0076
 1961SOL     OW 7045   0.627   7.655   6.792 -0.0742  0.0742  0.6379
 1961SOL    HW1 7046   0.570   7.706   6.849 -0.3050 -0.4425  0.8787
 1961SOL    HW2 7047   0.714   7.663   6.830 -0.3456 -0.8741  1.5128
 1962SOL     OW 7048   2.093   2.986   4.393  0.7085 -0.6894 -0.5786
 1962SOL    HW1 7049   2.138   3.067   4.416  1.4540 -1.4783  0.9046
 1962SOL    HW2 7050   2.015   2.985   4.448  0.4440 -0.7578 -0.9466
 1963SOL     OW 7051   0.233   8.243   7.207 -0.5829  0.1709 -0.0839
 1963SOL    HW1 7052   0.200   8.153   7.202 -2.6696  0.7960  1.0549
 1963SOL    HW2 7053   0.190   8.288   7.135 -2.7532  1.0946  1.6672
 1964SOL     OW 7054   0.927   3.336   8.377  0.2078 -1.1612 -0.8438
 1964SOL    HW1 7055   1.019   3.360   8.367  0.1686 -0.2125  0.7489
 1964SOL    HW2 7056   0.879   3.415   8.353 -0.0435 -0.5972  1.3106
 1965SOL     OW 7057   1.238   2.668   7.430 -0.0785 -0.7250  0.5447
 1965SOL    HW1 7058   1.144   2.671   7.446  0.2316 -0.7859  2.5641
 1965SOL    HW2 7059   1.266   2.584   7.465  0.7576 -0.6709  0.0364
 1966SOL     OW 7060   3.902   4.286   5.994  0.0222 -0.3469 -0.0243
 1966SOL    HW1 7061   3.869   4.236   6.069  1.1634 -0.8635  0.1656
 1966SOL    HW2 7062   3.947   4.221   5.940 -0.5364  0.0778 -1.0082
 1967SOL     OW 7063   4.541   0.795   6.133  0.1826 -1.1214 -0.0228
 1967SOL    HW1 7064   4.567   0.783   6.224 -0.0686 -1.7288 -0.0237
 1967SOL    HW2 7065   4.520   0.707   6.102 -2.6157 -0.6258  0.1965
 1968SOL     OW 7066   1.556   8.164   7.959 -0.1375  0.2828 -0.2194
 1968SOL    HW1 7067   1.469   8.189   7.926 -1.2672 -0.6489  1.8896
 1968SOL    HW2 7068   1.592   8.107   7.892 -1.2667  0.4607 -0.9995
 1969SOL     OW 7069   1.664   8.450   0.129 -0.3758 -0.4091 -0.1105
 1969SOL    HW1 7070   1.759   8.443   0.137 -0.2715  1.8640  1.3618
 1969SOL    HW2 7071   1.633   8.360   0.138  1.5176 -0.9789  1.4731
 1970SOL     OW 7072   7.532   4.675   3.464  0.7165 -0.9123  0.4578
 1970SOL    HW1 7073   7.463   4.646   3.404 -0.9773  1.7174  0.9302
 1970SOL    HW2 7074   7.597   4.606   3.462 -1.7015 -3.3573 -0.4192
 1971SOL     OW 7075   1.242   3.150   7.670  0.2448 -0.0834  0.1533
 1971SOL    HW1 7076   1.259   3.057   7.653  1.4164  0.0401  0.6020
 1971SOL    HW2 7077   1.152   3.163   7.639  1.1489 -0.5777 -3.0238
 1972SOL     OW 7078   2.832   2.971   1.086 -0.4912  0.5996 -0.1786
 1972SOL    HW1 7079   2.803   2.889   1.127 -0.4996  1.2193  1.1061
 1972SOL    HW2 7080   2.751   3.016   1.063 -0.6237  1.6859  2.1105
 1973SOL     OW 7081   1.675   3.913   7.724 -0.4142  0.7040 -0.7201
 1973SOL    HW1 7082   1.597   3.874   7.684 -1.6527  0.6858  1.5784
 1973SOL    HW2 7083   1.737   3.841   7.729 -0.5649  0.4827 -1.6863
 1974SOL     OW 7084   3.571   7.558   5.757 -0.0974  0.0023 -0.5665
 1974SOL    HW1 7085   3.639   7.592   5.699  0.7432 -1.2000 -0.3391
 1974SOL    HW2 7086   3.617   7.496   5.813 -1.2762 -0.3593  0.0375
 1975SOL     OW 7087   4.722   8.066   3.943 -0.5267 -0.6363  0.2343
 1975SOL    HW1 7088   4.649   8.030   3.892 -0.4325  1.1584 -1.2558
 1975SOL    HW2 7089   4.688   8.146   3.982  1.0080  1.1224 -1.8043
 1976SOL     OW 7090   0.464   4.561   2.210 -0.2917 -0.2330  0.2540
 1976SOL    HW1 7091   0.489   4.559   2.118  0.7994  0.1293  0.5252
 1976SOL    HW2 7092   0.466   4.470   2.237 -1.6483 -0.4626 -0.3217
 1977SOL     OW 7093   4.819   6.303   8.742  0.4700  0.6359 -0.3442
 1977SOL    HW1 7094   4.753   6.372   8.735 -0.2136  0.3336  2.1426
 1977SOL    HW2 7095   4.777   6.226   8.702 -0.0332  0.8500 -0.2410
 1978SOL     OW 7096   6.049   7.856   1.657 -0.1429  0.5579 -0.5688
 1978SOL    HW1 7097   6.092   7.811   1.730  0.8860 -0.3710 -1.7146
 1978SOL    HW2 7098   5.956   7.857   1.682  0.4277  2.4840  1.8776
 1979SOL     OW 7099   3.012   4.856   2.692 -0.2182  0.0606 -0.6189
 1979SOL    HW1 7100   2.952   4.820   2.627 -0.1215  0.7927 -1.1226
 1979SOL    HW2 7101   3.073   4.785   2.710  1.1604  0.5295 -3.0460
 1980SOL     OW 7102   6.809   0.741   2.162  0.3315  0.2673  0.0556
 1980SOL    HW1 7103   6.868   0.666   2.151 -0.9022 -0.7736  0.2334
 1980SOL    HW2 7104   6.859   0.816   2.130  1.1571 -0.8251 -1.3366
 1981SOL     OW 7105   0.390   3.956   7.390 -0.5381 -0.4780 -0.7732
 1981SOL    HW1 7106   0.473   3.921   7.357 -0.1601  1.8564 -2.5134
 1981SOL    HW2 7107   0.389   4.047   7.361 -2.3462  0.4468  1.8589
 1982SOL     OW 7108   0.044   6.041   4.743  0.0800  0.2243  0.2241
 1982SOL    HW1 7109   0.071   5.980   4.812  0.2286 -0.0263 -0.0572
 1982SOL    HW2 7110   0.121   6.095   4.728 -0.0044  0.3888  0.3659
 1983SOL     OW 7111   0.741   4.582   3.884  0.3949 -0.3185  0.0747
 1983SOL    HW1 7112   0.719   4.569   3.976 -0.2683  0.5501  0.0400
 1983SOL    HW2 7113   0.742   4.677   3.872 -0.2310 -0.4286 -0.9814
 1984SOL     OW 7114   3.598   5.011   1.490 -0.1019 -0.2970 -0.5118
 1984SOL    HW1 7115   3.627   5.016   1.581  0.9908  0.0972 -0.8604
 1984SOL    HW2 7116   3.527   4.947   1.490  1.5760 -2.2413  0.2189
 1985SOL     OW 7117   5.096   8.240   0.630 -0.1891  0.3086 -0.5066
 1985SOL    HW1 7118   5.050   8.300   0.690  0.5818 -0.1481  0.5648
 1985SOL    HW2 7119   5.183   8.278   0.621  0.3819 -0.7364  0.3596
 1986SOL     OW 7120   6.395   3.708   1.697 -0.3505  0.2993 -0.1775
 1986SOL    HW1 7121   6.307   3.743   1.682 -0.0823  2.1177  1.9481
 1986SOL    HW2 7122   6.452   3.764   1.643 -0.4477 -0.9455 -1.6374
 1987SOL     OW 7123   1.022   2.672   5.052  0.0674 -0.6435  0.1315
 1987SOL    HW1 7124   0.939   2.626   5.047  0.1699 -0.7897 -0.2537
 1987SOL    HW2 7125   1.003   2.760   5.019  0.5702 -1.3724 -2.2742
 1988SOL     OW 7126   2.564   5.607   8.577  0.0479  0.3668 -0.3944
 1988SOL    HW1 7127   2.485   5.645   8.538 -0.7861 -0.6482  0.2417
 1988SOL    HW2 7128   2.589   5.669   8.646 -0.8427  0.1808  0.1188
 1989SOL     OW 7129   2.297   6.695   7.646 -0.3675  0.2362 -0.3404
 1989SOL    HW1 7130   2.269   6.768   7.590 -4.2718 -2.4098 -2.3005
 1989SOL    HW2 7131   2.365   6.651   7.595 -1.6012 -0.2853 -1.6175
 1990SOL     OW 7132   1.503   7.057   8.462  0.0848 -0.6149 -0.0605
 1990SOL    HW1 7133   1.566   7.028   8.396 -0.6555 -1.0796 -0.5912
 1990SOL    HW2 7134   1.504   6.988   8.528  0.1866 -0.5877 -0.0339
 1991SOL     OW 7135   2.764   6.012   5.886  0.1579  0.1898  0.5268
 1991SOL    HW1 7136   2.750   5.919   5.867 -1.0038 -0.0656  2.4178
 1991SOL    HW2 7137   2.700   6.058   5.832 -1.1296 -0.3170  1.5723
 1992SOL     OW 7138   7.450   5.771   7.028  0.8859 -0.1410  0.5708
 1992SOL    HW1 7139   7.364   5.773   7.071  1.0397  0.5730  0.8642
 1992SOL    HW2 7140   7.494   5.695   7.067  0.7135  0.0073  1.0651
 1993SOL     OW 7141   2.895   4.696   7.466 -0.1461  0.1581  0.0504
 1993SOL    HW1 7142   2.906   4.637   7.540  0.0581  1.1385  0.8170
 1993SOL    HW2 7143   2.927   4.646   7.390  1.7384 -0.0737  0.9471
 1994SOL     OW 7144   7.509   0.781   7.564 -0.3881 -0.0413 -0.5395
 1994SOL    HW1 7145   7.596   0.747   7.582 -0.6857 -0.4314  0.2019
 1994SOL    HW2 7146   7.524   0.866   7.522  0.3434  0.0551 -0.0996
 1995SOL     OW 7147   6.139   1.843   2.060 -0.0943  0.2862 -0.4946
 1995SOL    HW1 7148   6.136   1.754   2.025 -0.1274 -0.2788  0.8886
 1995SOL    HW2 7149   6.211   1.841   2.123 -0.1094  1.2481 -0.4330
 1996SOL     OW 7150   0.815   4.355   0.315 -0.0312 -0.3644  0.2215
 1996SOL    HW1 7151   0.770   4.429   0.355  1.3295  0.3180  0.5355
 1996SOL    HW2 7152   0.857   4.310   0.388  2.0765  0.6226 -0.3020
 1997SOL     OW 7153   1.321   1.147   2.960  0.1980 -0.2386  0.4947
 1997SOL    HW1 7154   1.243   1.130   3.013  0.2952 -0.0829  0.6880
 1997SOL    HW2 7155   1.394   1.121   3.016  0.4134  1.6101  1.1471
 1998SOL     OW 7156   1.320   3.491   1.354 -0.2442  0.4073 -0.1233
 1998SOL    HW1 7157   1.390   3.438   1.391 -0.3089 -0.4828 -1.2090
 1998SOL    HW2 7158   1.361   3.536   1.279 -0.8894 -0.3637 -0.9580
 1999SOL     OW 7159   8.301   3.091   7.852  0.1961  0.5989  0.6127
 1999SOL    HW1 7160   8.263   3.111   7.767 -1.2239  1.1900  1.3476
 1999SOL    HW2 7161   8.369   3.157   7.864  0.5909  0.3459 -0.1616
 2000SOL     OW 7162   6.624   8.640   6.049  0.3476 -0.2907 -0.0697
 2000SOL    HW1 7163   6.614   8.733   6.025 -0.2628  0.2024  1.9363
 2000SOL    HW2 7164   6.576   8.593   5.981  0.6621  0.8440 -1.1199
 2001SOL     OW 7165   7.259   2.043   4.724 -0.0596  0.5667 -0.0626
 2001SOL    HW1 7166   7.339   2.005   4.688 -0.6352 -0.4551 -0.3090
 2001SOL    HW2 7167   7.262   2.022   4.818  0.3258  1.1948  0.0658
 2002SOL     OW 7168   1.493   1.886   1.237 -0.0437  0.4281  0.1054
 2002SOL    HW1 7169   1.499   1.982   1.241  1.2937  0.3285  1.4111
 2002SOL    HW2 7170   1.479   1.867   1.144  2.4612  1.7886 -0.6519
 2003SOL     OW 7171   8.250   6.559   2.266  0.3891 -0.1588  0.4154
 2003SOL    HW1 7172   8.198   6.565   2.185  1.6415  1.6095 -0.3261
 2003SOL    HW2 7173   8.233   6.642   2.311  1.4936 -0.1408  0.8180
 2004SOL     OW 7174   3.854   4.369   1.913  0.1232  0.0561 -0.3581
 2004SOL    HW1 7175   3.882   4.432   1.979  0.6466  0.6631 -1.1480
 2004SOL    HW2 7176   3.853   4.285   1.959  2.1374  0.1860  0.0204
 2005SOL     OW 7177   7.293   1.011   7.654  0.3955 -0.8972 -0.1220
 2005SOL    HW1 7178   7.227   0.942   7.649  1.5251 -1.9816 -0.6748
 2005SOL    HW2 7179   7.351   0.984   7.725  0.5269 -0.2013  0.0455
 2006SOL     OW 7180   5.268   3.566   7.917  0.0246 -0.1343  0.0992
 2006SOL    HW1 7181   5.173   3.559   7.911  0.0944 -2.3470  0.8953
 2006SOL    HW2 7182   5.290   3.638   7.858 -2.2635  1.5424  1.1427
 2007SOL     OW 7183   3.322   7.300   2.388  0.3173  0.6692 -0.4007
 2007SOL    HW1 7184   3.234   7.267   2.410  1.0139 -1.0852 -0.0730
 2007SOL    HW2 7185   3.306   7.387   2.351 -1.3092  1.7815  2.5979
 2008SOL     OW 7186   2.753   3.710   5.758 -0.2455  0.6494  0.1211
 2008SOL    HW1 7187   2.757   3.728   5.852  1.3203 -1.6329  0.5798
 2008SOL    HW2 7188   2.661   3.688   5.742 -0.0111 -2.0542  1.8608
 2009SOL     OW 7189   6.250   8.395   0.533 -0.8468  0.1700  0.7242
 2009SOL    HW1 7190   6.177   8.398   0.472 -0.9423 -1.3542  0.7327
 2009SOL    HW2 7191   6.329   8.402   0.478 -0.9351 -1.0406  0.4221
 2010SOL     OW 7192   5.021   5.542   1.970  0.2687  0.1066 -0.0833
 2010SOL    HW1 7193   5.072   5.469   1.936 -1.0476 -0.2625 -1.3536
 2010SOL    HW2 7194   5.013   5.524   2.064  0.4133 -1.0964 -0.2856
 2011SOL     OW 7195   1.113   0.033   5.829  0.1015 -0.3398 -0.2819
 2011SOL    HW1 7196   1.027  -0.002   5.851  0.0208 -0.4758 -0.7802
 2011SOL    HW2 7197   1.169   0.008   5.902 -0.0549 -1.1482 -0.4245
 2012SOL     OW 7198   4.058   1.306   6.304 -0.3023 -0.0385  0.0079
 2012SOL    HW1 7199   4.104   1.222   6.296 -1.1922 -0.4535 -1.0101
 2012SOL    HW2 7200   4.094   1.345   6.383  1.0175 -0.8279 -0.1676
 2013SOL     OW 7201   1.929   2.926   5.685 -0.4479  0.9403 -0.3280
 2013SOL    HW1 7202   1.854   2.976   5.654 -1.5422  0.0610  0.7779
 2013SOL    HW2 7203   1.945   2.861   5.617 -1.7043  0.1447  0.1034
 2014SOL     OW 7204   1.332   7.447   4.972 -0.1550  0.0715 -0.6113
 2014SOL    HW1 7205   1.381   7.429   5.052  0.3770  0.4920 -0.8298
 2014SOL    HW2 7206   1.356   7.376   4.912 -1.1389 -0.6647 -0.1575
 2015SOL     OW 7207   7.706   2.682   2.071 -0.7916 -0.6018 -0.3539
 2015SOL    HW1 7208   7.752   2.743   2.129  1.1126  0.0028 -2.3921
 2015SOL    HW2 7209   7.665   2.738   2.005  0.1209 -1.4158 -1.6674
 2016SOL     OW 7210   3.302   2.354   6.813  0.1923 -0.2743  0.0339
 2016SOL    HW1 7211   3.249   2.399   6.748  2.4951  0.0204 -1.7451
 2016SOL    HW2 7212   3.326   2.271   6.772  1.2030 -0.3606  0.7567
 2017SOL     OW 7213   3.925   4.524   2.131  0.3287 -0.0980  0.1413
 2017SOL    HW1 7214   3.950   4.441   2.172 -1.8532  0.2162  2.3424
 2017SOL    HW2 7215   3.956   4.591   2.191 -0.5560  0.5106 -0.0511
 2018SOL     OW 7216   5.032   6.734   8.034  0.0898 -0.3063  0.4148
 2018SOL    HW1 7217   4.954   6.766   8.077  0.5822  0.1042  1.0186
 2018SOL    HW2 7218   5.001   6.667   7.973 -1.1896  2.4835 -2.2010
 2019SOL     OW 7219   0.600   0.373   3.135  0.2491  0.0326  0.0559
 2019SOL    HW1 7220   0.683   0.391   3.092  1.1461 -1.5930  1.0167
 2019SOL    HW2 7221   0.623   0.346   3.223 -1.5357  3.0494  1.5963
 2020SOL     OW 7222   5.553   3.639   0.720 -0.3335 -0.1015  0.1217
 2020SOL    HW1 7223   5.567   3.547   0.741  0.4762 -0.2793 -1.1100
 2020SOL    HW2 7224   5.465   3.642   0.682  0.0494 -0.5653 -0.8370
 2021SOL     OW 7225   4.242   5.699   1.380 -0.0013 -0.0470  0.5693
 2021SOL    HW1 7226   4.332   5.696   1.349  0.1273  0.7376  0.8503
 2021SOL    HW2 7227   4.192   5.653   1.313  0.6730 -0.9482  0.6715
 2022SOL     OW 7228   7.347   2.442   2.499  0.5395 -0.2494 -0.0808
 2022SOL    HW1 7229   7.379   2.397   2.421  0.4020 -0.0365 -0.2615
 2022SOL    HW2 7230   7.321   2.372   2.559  0.9850 -0.4214 -0.0817
 2023SOL     OW 7231   8.270   1.122   0.229 -0.8699 -0.2364 -0.0535
 2023SOL    HW1 7232   8.288   1.212   0.258 -1.2575 -0.0850 -0.2838
 2023SOL    HW2 7233   8.317   1.067   0.292  1.2742  0.1573 -1.2212
 2024SOL     OW 7234   0.833   8.021   2.600 -0.6825  0.3202 -0.0044
 2024SOL    HW1 7235   0.856   8.071   2.522 -0.9681  1.1499  0.4280
 2024SOL    HW2 7236   0.911   7.970   2.621  0.8213  2.9653  1.3620
 2025SOL     OW 7237   5.998   8.659   0.564 -0.2238 -0.0709 -0.0085
 2025SOL    HW1 7238   5.958   8.633   0.481  0.5441 -1.2490 -0.0304
 2025SOL    HW2 7239   6.048   8.738   0.542 -1.0347  0.3581 -0.3707
 2026SOL     OW 7240   5.691   1.886   5.202 -0.2037  0.2116 -1.0085
 2026SOL    HW1 7241   5.702   1.858   5.112  0.6535 -1.6686 -0.3760
 2026SOL    HW2 7242   5.771   1.858   5.246  1.0129  4.1687 -0.2987
 2027SOL     OW 7243   4.164   2.071   5.190 -1.0440  0.0189 -0.4958
 2027SOL    HW1 7244   4.244   2.019   5.202 -0.3440  1.3327  0.8566
 2027SOL    HW2 7245   4.194   2.150   5.145 -1.9080 -0.2623 -1.5860
 2028SOL     OW 7246   2.711   3.816   1.771  0.0961 -0.0978 -0.1937
 2028SOL    HW1 7247   2.769   3.767   1.829 -0.4713 -0.0185  0.4453
 2028SOL    HW2 7248   2.746   3.906   1.773  1.3089 -0.5084 -1.5914
 2029SOL     OW 7249   2.218   4.734   1.500  0.2388 -0.1459 -0.3001
 2029SOL    HW1 7250   2.251   4.761   1.586  0.8753 -0.0540 -0.5668
 2029SOL    HW2 7251   2.282   4.769   1.438 -0.4038  0.0978 -0.8385
 2030SOL     OW 7252   2.278   4.272   0.599  0.2062 -0.4484  0.4982
 2030SOL    HW1 7253   2.271   4.231   0.513  0.0554  0.3168  0.1286
 2030SOL    HW2 7254   2.369   4.301   0.605 -0.4693  2.3098 -0.7850
 2031SOL     OW 7255   2.805   0.665   1.962 -0.1092 -0.3451 -0.0644
 2031SOL    HW1 7256   2.898   0.683   1.953  0.1968 -1.4297  0.6967
 2031SOL    HW2 7257   2.776   0.722   2.033 -0.0931  0.1579 -0.4504
 2032SOL     OW 7258   5.709   2.907   4.494 -0.5669  0.5027 -0.3485
 2032SOL    HW1 7259   5.716   2.996   4.528  0.0850  0.8343 -1.3216
 2032SOL    HW2 7260   5.714   2.916   4.399 -0.7349 -0.5485 -0.4741
 2033SOL     OW 7261   2.570   3.444   4.387  0.5482 -0.3154  0.2020
 2033SOL    HW1 7262   2.652   3.404   4.358  0.7779  0.2705  0.0295
 2033SOL    HW2 7263   2.502   3.383   4.358  0.9328 -0.9265  0.5563
 2034SOL     OW 7264   0.050   4.915   1.405 -0.0504 -0.3231 -0.3556
 2034SOL    HW1 7265  -0.031   4.910   1.354  0.2299 -2.1508 -0.6583
 2034SOL    HW2 7266   0.064   5.009   1.418 -1.0082  0.1169 -2.2197
 2035SOL     OW 7267   5.529   1.566   5.217  0.2381 -0.6385  0.3449
 2035SOL    HW1 7268   5.506   1.514   5.139 -1.6868 -0.0701  0.4833
 2035SOL    HW2 7269   5.483   1.649   5.205 -0.1877 -0.5769  2.1381
 2036SOL     OW 7270   5.449   5.136   4.194 -0.0416  0.3527 -0.0385
 2036SOL    HW1 7271   5.489   5.217   4.161  2.4548 -0.1355  1.5400
 2036SOL    HW2 7272   5.523   5.079   4.214 -1.6842 -1.7738  0.3372
 2037SOL     OW 7273   6.516   0.935   2.375 -0.4139 -1.0137  0.2213
 2037SOL    HW1 7274   6.529   0.892   2.459 -0.0650 -2.5841 -0.5883
 2037SOL    HW2 7275   6.576   1.010   2.376  0.1999 -1.5079  1.0274
 2038SOL     OW 7276   1.926   7.260   0.356  0.0859 -0.2442 -0.2923
 2038SOL    HW1 7277   1.841   7.229   0.385 -0.4218  2.3990  1.3741
 2038SOL    HW2 7278   1.937   7.345   0.400  2.4521  0.6881 -2.4342
 2039SOL     OW 7279   1.657   7.342   6.140  0.1189 -0.6834 -0.0359
 2039SOL    HW1 7280   1.662   7.264   6.194  0.8598 -1.4882 -1.2159
 2039SOL    HW2 7281   1.564   7.352   6.120  0.0360 -1.3565 -0.0093
 2040SOL     OW 7282   2.432   0.567   5.651 -0.2878 -0.3792 -0.2419
 2040SOL    HW1 7283   2.378   0.646   5.653  0.5506  0.3129 -2.3110
 2040SOL    HW2 7284   2.417   0.525   5.736 -1.8755  1.2354  0.3279
 2041SOL     OW 7285   4.230   2.735   4.824 -0.1347  0.0222 -0.2097
 2041SOL    HW1 7286   4.285   2.658   4.808  1.0243  1.0392 -1.3776
 2041SOL    HW2 7287   4.257   2.766   4.910  1.4756  0.7196 -0.9092
 2042SOL     OW 7288   1.210   7.989   1.568  0.5301 -0.8642  0.4437
 2042SOL    HW1 7289   1.268   8.022   1.637  1.4152 -2.6383  0.6264
 2042SOL    HW2 7290   1.194   8.064   1.512  1.2476  0.1945  1.5980
 2043SOL     OW 7291   5.029   3.346   6.793 -0.0968 -0.4007  0.2529
 2043SOL    HW1 7292   5.069   3.261   6.810  0.4556  0.0939  1.4852
 2043SOL    HW2 7293   4.936   3.333   6.815 -0.0233 -0.6908  0.4037
 2044SOL     OW 7294   8.569   0.014   6.265  0.9942  0.1081 -0.3212
 2044SOL    HW1 7295   8.501  -0.007   6.329 -0.1393  0.8054 -1.2632
 2044SOL    HW2 7296   8.651   0.008   6.315  0.0483  2.6733  1.8231
 2045SOL     OW 7297   0.108   3.270   8.435  0.9217  0.0206 -0.7124
 2045SOL    HW1 7298   0.019   3.270   8.399  0.6804  1.4894 -0.1861
 2045SOL    HW2 7299   0.165   3.282   8.359  0.6765 -0.8357 -1.0421
 2046SOL     OW 7300   0.876   7.684   0.634 -0.1536  0.4296  0.2418
 2046SOL    HW1 7301   0.813   7.614   0.617  2.4894 -1.8609 -0.8228
 2046SOL    HW2 7302   0.849   7.721   0.718 -3.6022  0.4914 -0.7386
 2047SOL     OW 7303   7.895   2.937   6.230 -0.2901 -0.3146 -0.7746
 2047SOL    HW1 7304   7.973   2.986   6.253 -0.5083 -0.3859  0.1910
 2047SOL    HW2 7305   7.833   3.003   6.199 -0.7686  0.1366  1.0193
 2048SOL     OW 7306   7.762   5.953   4.602 -0.1960 -0.2328 -0.7242
 2048SOL    HW1 7307   7.671   5.933   4.626  0.1283 -0.6957  0.1615
 2048SOL    HW2 7308   7.812   5.934   4.681  0.4114  2.1739 -0.4534
 2049SOL     OW 7309   4.827   0.716   5.624 -0.4254  0.5891  0.1293
 2049SOL    HW1 7310   4.869   0.671   5.698  0.5888 -0.3653 -0.9829
 2049SOL    HW2 7311   4.779   0.646   5.578  0.6952  0.7312 -1.3006
 2050SOL     OW 7312   3.270   1.750   5.126  0.4488 -0.1331 -0.7733
 2050SOL    HW1 7313   3.251   1.844   5.125  1.0744  0.0561  1.2352
 2050SOL    HW2 7314   3.222   1.717   5.202  1.8628 -1.0579 -0.2474
 2051SOL     OW 7315   7.503   4.154   0.339 -0.2028  0.0282 -0.1077
 2051SOL    HW1 7316   7.576   4.212   0.315  0.7905 -1.0063  0.2879
 2051SOL    HW2 7317   7.516   4.138   0.432  0.0922 -1.5192 -0.3780
 2052SOL     OW 7318   0.370   8.126   1.264 -0.6374  0.3600 -0.0335
 2052SOL    HW1 7319   0.333   8.212   1.245 -0.6793  1.0454  2.7531
 2052SOL    HW2 7320   0.299   8.065   1.246 -0.1716  0.6385 -3.4560
 2053SOL     OW 7321   7.572   5.621   4.481 -0.7451  0.6211 -0.3012
 2053SOL    HW1 7322   7.599   5.631   4.573  1.5737 -0.2422 -0.8313
 2053SOL    HW2 7323   7.478   5.604   4.486 -0.6713  0.5691  1.9146
 2054SOL     OW 7324   3.462   2.436   6.516 -0.4058 -0.0496  0.0071
 2054SOL    HW1 7325   3.522   2.394   6.455 -0.2675  0.8141 -0.4516
 2054SOL    HW2 7326   3.377   2.396   6.497 -0.5473  0.8906 -1.4050
 2055SOL     OW 7327   2.586   2.022   2.609 -0.1902  0.1395  0.9057
 2055SOL    HW1 7328   2.504   2.026   2.561 -0.2666  0.4099  1.0575
 2055SOL    HW2 7329   2.632   1.946   2.572  0.9101  1.8354 -1.4683
 2056SOL     OW 7330   2.291   8.795   0.880 -0.2527 -0.0310 -0.7563
 2056SOL    HW1 7331   2.242   8.835   0.952 -0.6980 -1.5150 -0.1877
 2056SOL    HW2 7332   2.289   8.701   0.899  1.6878 -0.2616 -1.4377
 2057SOL     OW 7333   8.350   3.495   0.173  0.2015  0.2213 -0.7072
 2057SOL    HW1 7334   8.444   3.494   0.154  0.7192  0.0254  1.5666
 2057SOL    HW2 7335   8.328   3.404   0.189 -0.1247  0.3888 -0.1836
 2058SOL     OW 7336   4.659   6.320   6.380 -0.1890  0.2878  0.1610
 2058SOL    HW1 7337   4.572   6.309   6.343  0.5414 -2.2217 -1.0539
 2058SOL    HW2 7338   4.670   6.245   6.439  1.4606 -0.0433 -0.4850
 2059SOL     OW 7339   8.318   3.401   1.508  0.3910 -0.8673  0.2668
 2059SOL    HW1 7340   8.234   3.360   1.527 -0.4383  0.9988  0.8301
 2059SOL    HW2 7341   8.302   3.457   1.433  0.7595  0.5212  1.1838
 2060SOL     OW 7342   7.667   5.318   4.958  0.5166 -0.0607 -0.3270
 2060SOL    HW1 7343   7.660   5.313   4.863  0.3651  0.7836 -0.3677
 2060SOL    HW2 7344   7.660   5.227   4.988 -2.9814 -0.0990 -0.8725
 2061SOL     OW 7345   3.084   7.437   8.474  0.1335  0.6186  0.5654
 2061SOL    HW1 7346   3.030   7.378   8.422  1.6690  0.0699 -0.5002
 2061SOL    HW2 7347   3.047   7.432   8.562 -0.4589 -1.1276  0.2616
 2062SOL     OW 7348   7.706   1.252   8.714 -0.3975  0.0018  0.2289
 2062SOL    HW1 7349   7.673   1.306   8.786 -0.5964  1.0984 -0.6553
 2062SOL    HW2 7350   7.633   1.245   8.653 -0.1635 -0.7398  0.0164
 2063SOL     OW 7351   5.545   6.199   2.154  0.7775 -0.1088 -0.1503
 2063SOL    HW1 7352   5.572   6.112   2.181  0.0709 -0.3690 -0.2628
 2063SOL    HW2 7353   5.614   6.257   2.185  1.6628 -0.7971 -0.7944
 2064SOL     OW 7354   0.572   4.850   6.211  0.3880  0.3538  1.0693
 2064SOL    HW1 7355   0.632   4.830   6.139  0.7107  0.9550  1.1669
 2064SOL    HW2 7356   0.523   4.768   6.224 -2.1032  1.1016 -2.0685
 2065SOL     OW 7357   6.455   7.404   6.060 -0.0474  0.0676  0.2051
 2065SOL    HW1 7358   6.369   7.362   6.066  0.2191 -0.4544  0.5930
 2065SOL    HW2 7359   6.475   7.405   5.967  0.9023 -2.7736  0.2684
 2066SOL     OW 7360   1.166   8.282   8.449  0.6769 -0.5994 -0.4244
 2066SOL    HW1 7361   1.139   8.349   8.512  1.1256  0.1222 -0.9902
 2066SOL    HW2 7362   1.092   8.275   8.389  0.5863 -0.7035 -0.3038
 2067SOL     OW 7363   6.414   7.510   4.635  0.2030  0.3841  0.3361
 2067SOL    HW1 7364   6.457   7.503   4.720  1.2810 -0.1256 -0.2248
 2067SOL    HW2 7365   6.338   7.566   4.651  0.7053  0.7712  1.5064
 2068SOL     OW 7366   1.470   7.409   1.661 -0.0645 -0.3841  0.4251
 2068SOL    HW1 7367   1.504   7.321   1.648 -1.8529 -1.0711  0.1522
 2068SOL    HW2 7368   1.511   7.461   1.592  0.8640 -1.0354  0.4681
 2069SOL     OW 7369   3.902   6.600   3.686  0.0817 -0.1142  0.1181
 2069SOL    HW1 7370   3.839   6.624   3.617 -0.0138 -1.9444 -0.5004
 2069SOL    HW2 7371   3.962   6.674   3.691  0.1852  0.0154 -2.0857
 2070SOL     OW 7372   4.694   5.274   4.657 -0.3373 -0.0910  0.5741
 2070SOL    HW1 7373   4.609   5.236   4.679 -1.3637  0.3948 -2.1640
 2070SOL    HW2 7374   4.726   5.220   4.584  1.7798 -0.2874  1.5710
 2071SOL     OW 7375   7.526   8.243   7.958  0.3480  0.1951  0.0113
 2071SOL    HW1 7376   7.579   8.252   7.879 -1.1657  1.5197 -0.9040
 2071SOL    HW2 7377   7.497   8.332   7.977  0.4709 -0.1296  1.9506
 2072SOL     OW 7378   2.223   5.506   2.822  0.5337  0.0803 -0.7928
 2072SOL    HW1 7379   2.284   5.566   2.779 -0.9188  0.8374 -1.8882
 2072SOL    HW2 7380   2.248   5.509   2.914  2.6650 -0.2888 -1.2996
 2073SOL     OW 7381   4.766   0.454   0.577  0.3103  0.1685 -0.9657
 2073SOL    HW1 7382   4.753   0.383   0.514  0.0491 -0.7525  0.0926
 2073SOL    HW2 7383   4.754   0.413   0.663  2.0078  1.0796 -0.2368
 2074SOL     OW 7384   1.538   2.559   7.716  0.5262  0.1430 -0.9265
 2074SOL    HW1 7385   1.631   2.573   7.736  1.0070 -1.1199 -2.0784
 2074SOL    HW2 7386   1.514   2.632   7.660  1.0671  0.0340 -1.3067
 2075SOL     OW 7387   4.127   3.359   7.231 -0.5093  0.0225 -0.7232
 2075SOL    HW1 7388   4.040   3.379   7.266 -0.7180 -1.1728 -0.4993
 2075SOL    HW2 7389   4.127   3.264   7.222  0.6779  0.0378 -1.0010
 2076SOL     OW 7390   3.517   0.526   5.655  0.0356 -0.4743 -0.1443
 2076SOL    HW1 7391   3.529   0.579   5.576  0.6434 -2.0926 -1.1784
 2076SOL    HW2 7392   3.606   0.512   5.687 -0.0147 -1.8118 -0.5485
 2077SOL     OW 7393   5.701   7.783   0.257 -0.3664 -0.2599  0.5411
 2077SOL    HW1 7394   5.783   7.817   0.292 -1.1078  2.0850  0.1311
 2077SOL    HW2 7395   5.715   7.780   0.162 -0.9288  0.6951  0.4205
 2078SOL     OW 7396   1.679   4.913   2.307 -0.2158  0.0820  0.1805
 2078SOL    HW1 7397   1.686   5.002   2.341  2.9559  0.4291 -0.9728
 2078SOL    HW2 7398   1.770   4.882   2.304 -1.0174 -2.3918 -1.4704
 2079SOL     OW 7399   4.808   5.558   2.798 -0.2622 -0.6469  0.5824
 2079SOL    HW1 7400   4.748   5.566   2.871  0.6089 -0.5787  1.3118
 2079SOL    HW2 7401   4.860   5.638   2.800 -0.5973 -0.3946 -0.4498
 2080SOL     OW 7402   3.488   0.706   0.218  0.3267 -0.4553  0.0070
 2080SOL    HW1 7403   3.549   0.675   0.284 -0.8322 -0.5812  1.0412
 2080SOL    HW2 7404   3.529   0.786   0.184  1.3195 -0.8335  0.2741
 2081SOL     OW 7405   1.220   7.951   4.022 -0.8442  0.2917 -0.2636
 2081SOL    HW1 7406   1.127   7.970   4.009 -1.3064  0.2222  2.3282
 2081SOL    HW2 7407   1.224   7.907   4.107  1.3949 -1.4702 -1.1728
 2082SOL     OW 7408   7.788   1.035   5.144  0.8799 -0.0412 -0.6422
 2082SOL    HW1 7409   7.734   1.001   5.073  2.0689 -0.2815 -1.4517
 2082SOL    HW2 7410   7.850   0.965   5.164  1.0142  0.2894  0.1640
 2083SOL     OW 7411   2.174   3.605   4.428 -0.0552  0.0895 -0.2341
 2083SOL    HW1 7412   2.133   3.541   4.487 -0.6544  1.5336  0.9866
 2083SOL    HW2 7413   2.267   3.599   4.449  0.1119 -1.4309 -1.2309
 2084SOL     OW 7414   7.764   0.113   6.023  0.1251  0.2430  0.2295
 2084SOL    HW1 7415   7.700   0.101   6.093 -1.7286 -2.1302 -1.6812
 2084SOL    HW2 7416   7.765   0.207   6.007 -0.7179  0.6377  2.2094
 2085SOL     OW 7417   8.178   2.364   2.426 -0.0421 -0.3421  0.2935
 2085SOL    HW1 7418   8.114   2.329   2.489 -0.8426  2.3864  1.1066
 2085SOL    HW2 7419   8.128   2.422   2.370  1.3265  0.0550 -0.5592
 2086SOL     OW 7420   2.786   7.339   2.123  0.5022 -0.6126  0.3233
 2086SOL    HW1 7421   2.872   7.350   2.164  1.0000 -1.6950 -0.3827
 2086SOL    HW2 7422   2.796   7.263   2.066 -0.6830 -0.2341 -0.4352
 2087SOL     OW 7423   5.000   7.688   5.548  0.2155  0.0181 -0.0057
 2087SOL    HW1 7424   4.946   7.696   5.626  1.8964  2.5874  1.0279
 2087SOL    HW2 7425   5.002   7.594   5.530 -0.0008 -0.7249  3.2261
 2088SOL     OW 7426   2.835   2.121   0.776  0.2869 -0.2256 -0.1036
 2088SOL    HW1 7427   2.776   2.047   0.761 -0.9229  0.7959 -0.6022
 2088SOL    HW2 7428   2.899   2.116   0.706 -1.3809  0.6808 -1.7789
 2089SOL     OW 7429   0.579   5.746   0.771  0.3594 -0.1475  0.5315
 2089SOL    HW1 7430   0.574   5.838   0.747  0.0472 -0.2096  0.3510
 2089SOL    HW2 7431   0.642   5.743   0.843  0.4465  0.1913  0.4697
 2090SOL     OW 7432   1.899   0.055   1.935  0.2907  0.1968 -0.2984
 2090SOL    HW1 7433   1.894   0.014   2.022 -1.4043 -1.8520 -1.2848
 2090SOL    HW2 7434   1.821   0.111   1.931 -0.1769 -0.4712 -0.8209
 2091SOL     OW 7435   0.297   3.937   8.350  0.0713 -0.0796  0.1701
 2091SOL    HW1 7436   0.229   3.946   8.416  0.7507  0.1361  0.8594
 2091SOL    HW2 7437   0.346   4.019   8.355 -0.3920  0.3124 -1.2193
 2092SOL     OW 7438   3.241   3.223   6.315  0.2421  0.5449 -0.7115
 2092SOL    HW1 7439   3.281   3.167   6.248  0.3839  1.3652 -1.3340
 2092SOL    HW2 7440   3.263   3.181   6.398  0.2049 -0.4028 -1.1696
 2093SOL     OW 7441   5.959   4.348   4.879  0.8342  0.1819  0.3340
 2093SOL    HW1 7442   6.015   4.426   4.884  1.2778 -0.1848  1.1900
 2093SOL    HW2 7443   6.015   4.276   4.906 -0.1746 -0.1212  1.7372
 2094SOL     OW 7444   1.851   0.506   1.559  0.0245 -0.4310  0.5907
 2094SOL    HW1 7445   1.820   0.561   1.632  0.5327  1.5285 -0.6080
 2094SOL    HW2 7446   1.945   0.496   1.574  0.3218  0.8303 -0.2891
 2095SOL     OW 7447   7.711   8.766   7.226  0.3200  0.4985  0.0811
 2095SOL    HW1 7448   7.668   8.755   7.310  0.3133 -2.5282 -0.2186
 2095SOL    HW2 7449   7.644   8.741   7.161  1.3539 -0.6549 -0.5823
 2096SOL     OW 7450   1.346   1.215   3.313  0.1227  0.6133  0.0483
 2096SOL    HW1 7451   1.407   1.198   3.242  0.5127  1.3907  0.1852
 2096SOL    HW2 7452   1.402   1.232   3.389 -0.2248  2.3498 -0.0562
 2097SOL     OW 7453   5.699   6.155   1.537  0.6123 -0.2880  0.1653
 2097SOL    HW1 7454   5.667   6.130   1.624  1.8237 -1.7067  0.2603
 2097SOL    HW2 7455   5.656   6.094   1.478 -0.6821  1.0739 -0.3404
 2098SOL     OW 7456   6.067   2.452   2.031  0.5456  0.0453 -0.2450
 2098SOL    HW1 7457   5.997   2.388   2.016  1.5565 -1.1680  0.0762
 2098SOL    HW2 7458   6.148   2.405   2.010  1.4724  0.5874  1.8894
 2099SOL     OW 7459   5.316   8.237   7.588  0.0058 -0.0021 -0.1120
 2099SOL    HW1 7460   5.324   8.261   7.680  1.0422  0.1900 -0.2345
 2099SOL    HW2 7461   5.222   8.232   7.572 -0.1846 -0.3973  1.0453
 2100SOL     OW 7462   5.264   0.691   1.799 -0.1760 -0.2076 -0.0043
 2100SOL    HW1 7463   5.303   0.731   1.877  0.1479  1.1081 -0.8042
 2100SOL    HW2 7464   5.206   0.623   1.833  0.6225 -0.2525  1.3381
 2101SOL     OW 7465   7.114   8.127   6.182 -0.0340 -0.2914 -0.8168
 2101SOL    HW1 7466   7.173   8.155   6.253  0.5527  0.0494 -1.4230
 2101SOL    HW2 7467   7.172   8.117   6.106 -0.4524 -1.8041 -0.9668
 2102SOL     OW 7468   0.573   6.230   1.547  0.5390  0.1389 -0.2619
 2102SOL    HW1 7469   0.589   6.302   1.486 -1.5153  1.0867  0.2170
 2102SOL    HW2 7470   0.567   6.272   1.632  0.7492 -0.8097  0.2306
 2103SOL     OW 7471   2.366   5.042   2.018 -0.5094  0.5125 -0.2800
 2103SOL    HW1 7472   2.400   5.013   1.934  2.0800  0.7319  0.6237
 2103SOL    HW2 7473   2.385   4.971   2.078  2.8331  2.4568  1.2357
 2104SOL     OW 7474   0.765   8.652   0.753 -0.0499 -0.1953  0.1250
 2104SOL    HW1 7475   0.817   8.573   0.738 -0.1795 -0.4142  0.8256
 2104SOL    HW2 7476   0.743   8.650   0.846 -1.0071  0.0823 -0.0769
 2105SOL     OW 7477   4.171   1.730   5.738  0.1482 -0.9599 -0.1280
 2105SOL    HW1 7478   4.256   1.729   5.781  0.5080  1.5444 -0.6547
 2105SOL    HW2 7479   4.110   1.759   5.806  0.6658  2.6739 -1.0148
 2106SOL     OW 7480   1.128   4.979   5.462 -0.6452 -0.0403  0.3630
 2106SOL    HW1 7481   1.128   4.884   5.461  0.3352 -0.0737  1.5015
 2106SOL    HW2 7482   1.086   5.002   5.544 -1.5117  0.5427 -0.2214
 2107SOL     OW 7483   4.519   0.198   7.474  0.0959 -0.7306 -0.4537
 2107SOL    HW1 7484   4.582   0.217   7.404  0.5945 -1.5911 -0.2507
 2107SOL    HW2 7485   4.490   0.108   7.456 -0.6751 -0.5289 -0.2366
 2108SOL     OW 7486   2.136   5.288   0.539 -0.4922 -0.3815  0.2370
 2108SOL    HW1 7487   2.144   5.234   0.618  4.1355  0.4788  0.6534
 2108SOL    HW2 7488   2.186   5.367   0.560 -0.8096  0.7619 -2.8999
 2109SOL     OW 7489   5.512   8.740   1.979  0.4115  0.3819 -0.1283
 2109SOL    HW1 7490   5.517   8.669   1.915 -0.8972  0.6775 -0.5898
 2109SOL    HW2 7491   5.602   8.771   1.988  0.9761 -1.1473 -0.1123
 2110SOL     OW 7492   6.260   6.261   7.000 -0.2071  0.0638 -0.5323
 2110SOL    HW1 7493   6.260   6.228   7.090 -0.9930 -0.6239 -0.7643
 2110SOL    HW2 7494   6.255   6.182   6.946 -1.8979  0.5330 -1.1231
 2111SOL     OW 7495   1.210   1.456   1.295  0.1373 -0.6480 -0.1356
 2111SOL    HW1 7496   1.230   1.472   1.203  1.6371 -0.2593  0.2320
 2111SOL    HW2 7497   1.228   1.363   1.307  1.9152 -0.2862  0.2086
 2112SOL     OW 7498   2.922   6.420   6.821 -0.3394  0.9425  0.4785
 2112SOL    HW1 7499   2.898   6.356   6.888  0.6988  1.2074  1.1356
 2112SOL    HW2 7500   2.897   6.379   6.738 -2.1436  0.8232  1.0307
 2113SOL     OW 7501   5.862   5.894   0.470 -0.3964  0.4555 -0.1324
 2113SOL    HW1 7502   5.906   5.841   0.536  2.7971  1.8532 -0.9632
 2113SOL    HW2 7503   5.811   5.959   0.520  0.8752  0.6436  0.9540
 2114SOL     OW 7504   7.728   0.753   6.128 -0.0993  0.3122  0.3202
 2114SOL    HW1 7505   7.813   0.716   6.151  0.6909  1.5965 -0.4175
 2114SOL    HW2 7506   7.668   0.718   6.195  0.4363 -2.6459 -0.5708
 2115SOL     OW 7507   1.495   5.346   2.522  0.4296  0.3832 -0.9541
 2115SOL    HW1 7508   1.492   5.407   2.448 -2.2358 -0.0241 -1.2988
 2115SOL    HW2 7509   1.511   5.402   2.599 -2.1378  1.6639 -1.2340
 2116SOL     OW 7510   2.716   6.315   4.255  0.4658  0.0030  0.6163
 2116SOL    HW1 7511   2.753   6.400   4.233 -0.2907  0.0041 -0.7850
 2116SOL    HW2 7512   2.769   6.283   4.328  0.9175  1.5496  0.9827
 2117SOL     OW 7513   4.348   7.714   8.542  0.0453  0.3692  0.6526
 2117SOL    HW1 7514   4.326   7.737   8.452 -1.3654 -0.9693  0.6180
 2117SOL    HW2 7515   4.405   7.637   8.533  0.1879  0.4504  0.8818
 2118SOL     OW 7516   8.152   0.815   5.883  0.4413  0.3201  0.0630
 2118SOL    HW1 7517   8.093   0.888   5.903 -0.7506 -0.2773 -1.1363
 2118SOL    HW2 7518   8.142   0.801   5.789  0.2151 -1.7378  0.3407
 2119SOL     OW 7519   1.208   6.119   1.190 -0.1954 -0.2425  0.3798
 2119SOL    HW1 7520   1.190   6.092   1.099 -1.6764  0.4124  0.4459
 2119SOL    HW2 7521   1.157   6.199   1.201 -2.0244 -1.5886  2.5009
 2120SOL     OW 7522   5.519   6.428   1.394 -0.2207  0.1309  0.3097
 2120SOL    HW1 7523   5.471   6.366   1.450  0.2707 -1.2368 -0.7058
 2120SOL    HW2 7524   5.471   6.510   1.402 -0.1655 -0.0007  2.7085
 2121SOL     OW 7525   3.517   5.269   2.193  0.0695  0.0199 -0.0011
 2121SOL    HW1 7526   3.552   5.258   2.281 -0.8339 -0.7022  0.2755
 2121SOL    HW2 7527   3.432   5.311   2.206  0.4854  1.1037 -0.6221
 2122SOL     OW 7528   8.288   8.172   0.676 -0.1100 -0.0518 -0.7997
 2122SOL    HW1 7529   8.260   8.218   0.755 -0.0990 -0.5466 -0.4988
 2122SOL    HW2 7530   8.236   8.209   0.606 -1.0023 -0.4530 -0.3642
 2123SOL     OW 7531   7.365   0.517   3.377  0.2523  0.2075 -0.0793
 2123SOL    HW1 7532   7.452   0.542   3.345  0.5618  0.8213  1.1475
 2123SOL    HW2 7533   7.310   0.592   3.355 -0.3493 -0.7950 -2.1929
 2124SOL     OW 7534   2.657   1.544   2.783  0.1670 -0.2691 -0.5339
 2124SOL    HW1 7535   2.745   1.568   2.811  0.8061 -0.6100 -2.1590
 2124SOL    HW2 7536   2.648   1.452   2.809  0.7908 -0.6126 -1.4692
 2125SOL     OW 7537   5.292   4.849   7.482  0.6771 -0.1749  0.3470
 2125SOL    HW1 7538   5.313   4.895   7.401  0.7604 -0.7565  0.0334
 2125SOL    HW2 7539   5.210   4.803   7.463 -0.4700  1.4024  1.2815
 2126SOL     OW 7540   7.530   3.749   0.394 -0.4397 -0.4811 -0.8723
 2126SOL    HW1 7541   7.489   3.810   0.455 -1.4238 -0.9327 -1.0539
 2126SOL    HW2 7542   7.471   3.748   0.318  0.5697 -0.2003 -1.6948
 2127SOL     OW 7543   7.493   3.498   8.636  0.5538  0.0273  0.0288
 2127SOL    HW1 7544   7.524   3.532   8.552  0.1047  0.3628 -0.0062
 2127SOL    HW2 7545   7.540   3.415   8.647  1.4985  0.5399  0.0077
 2128SOL     OW 7546   6.237   2.514   1.067 -0.4178  0.3839  0.1067
 2128SOL    HW1 7547   6.258   2.607   1.062 -0.3206  0.3347 -0.6020
 2128SOL    HW2 7548   6.199   2.502   1.154  2.1226  0.5598  1.3524
 2129SOL     OW 7549   8.625   8.650   0.263  0.1358  0.1552 -0.1387
 2129SOL    HW1 7550   8.543   8.655   0.312  1.0656  1.9556  1.3154
 2129SOL    HW2 7551   8.598   8.625   0.175 -1.7954 -0.9701  0.6954
 2130SOL     OW 7552   8.627   4.160   8.145  0.6125 -0.8054 -1.0037
 2130SOL    HW1 7553   8.621   4.256   8.152 -0.0690 -0.8899 -0.2995
 2130SOL    HW2 7554   8.721   4.142   8.146  0.7466 -0.1422 -1.1837
 2131SOL     OW 7555   0.851   3.298   2.315  0.1322 -0.0752  0.5139
 2131SOL    HW1 7556   0.857   3.367   2.381  0.3719 -0.6939  1.1505
 2131SOL    HW2 7557   0.909   3.328   2.245 -1.0029  1.1390  0.0480
 2132SOL     OW 7558   6.692   1.025   1.505  0.2192  0.1804  0.3260
 2132SOL    HW1 7559   6.636   0.948   1.509 -0.3861  0.6599  1.7570
 2132SOL    HW2 7560   6.631   1.099   1.506  0.8266  0.6887  0.5373
 2133SOL     OW 7561   0.056   2.366   5.707  0.6199  0.0569  0.0749
 2133SOL    HW1 7562  -0.020   2.308   5.708  0.1957  0.5984 -0.2330
 2133SOL    HW2 7563   0.076   2.382   5.800  0.5828 -0.3726  0.1572
 2134SOL     OW 7564   8.171   0.008   8.302  0.4857 -0.0227  0.5419
 2134SOL    HW1 7565   8.145   0.087   8.254  0.0574 -0.8237 -0.5554
 2134SOL    HW2 7566   8.236  -0.034   8.246  0.6743 -0.4893  1.1003
 2135SOL     OW 7567   0.027   1.148   6.702  0.0363  0.2167 -0.0154
 2135SOL    HW1 7568   0.083   1.216   6.665 -0.4375  0.9826  0.6440
 2135SOL    HW2 7569   0.088   1.086   6.743  0.4689  0.2324 -0.6262
 2136SOL     OW 7570   0.847   7.490   3.715 -0.4703  0.2365  0.0177
 2136SOL    HW1 7571   0.824   7.578   3.684  0.6065  0.7625  0.6443
 2136SOL    HW2 7572   0.850   7.437   3.635  1.4882  1.3911 -0.7549
 2137SOL     OW 7573   8.533   5.121   8.442  0.9452  0.0269 -0.1740
 2137SOL    HW1 7574   8.600   5.189   8.434  1.7845 -0.8499 -0.7558
 2137SOL    HW2 7575   8.574   5.052   8.495 -0.0593  0.1485  0.8192
 2138SOL     OW 7576   0.845   3.559   4.968  0.5559 -0.0181  0.9635
 2138SOL    HW1 7577   0.771   3.533   4.913  0.7970  1.9323 -0.4043
 2138SOL    HW2 7578   0.911   3.492   4.951 -0.1801 -0.6976  0.6642
 2139SOL     OW 7579   1.064   5.426   4.179 -0.1143 -0.2445  0.0203
 2139SOL    HW1 7580   1.044   5.518   4.158 -0.6344 -0.7364 -1.8608
 2139SOL    HW2 7581   1.065   5.383   4.094 -0.6980 -2.1590  0.9414
 2140SOL     OW 7582   5.458   6.036   0.983 -0.1571 -0.5247 -0.6735
 2140SOL    HW1 7583   5.499   6.076   0.907  0.7044  0.0883  0.0949
 2140SOL    HW2 7584   5.449   6.108   1.046  1.1095 -1.4248  0.6068
 2141SOL     OW 7585   1.065   0.060   7.996 -0.4661 -0.1144 -0.0652
 2141SOL    HW1 7586   0.991   0.120   7.990  1.7670  2.8570 -0.2972
 2141SOL    HW2 7587   1.094   0.066   8.087 -0.0297 -0.6517 -0.1630
 2142SOL     OW 7588   8.123   5.378   3.442 -0.9359  0.4831 -0.1089
 2142SOL    HW1 7589   8.214   5.352   3.452 -0.7786  0.4875 -1.3732
 2142SOL    HW2 7590   8.115   5.457   3.496 -0.4037  0.0443  0.6269
 2143SOL     OW 7591   4.560   0.911   5.025  0.6534 -0.0154 -0.0609
 2143SOL    HW1 7592   4.649   0.943   5.016  1.2669 -1.6874 -0.3285
 2143SOL    HW2 7593   4.505   0.986   5.003  1.9721  1.0673  0.1799
 2144SOL     OW 7594   1.117   7.299   8.240  1.3577  0.0077  0.1266
 2144SOL    HW1 7595   1.095   7.339   8.324  1.5685  0.4787 -0.0425
 2144SOL    HW2 7596   1.210   7.279   8.246  1.3275 -0.1540  0.0798
 2145SOL     OW 7597   0.557   2.566   2.426  0.0906  0.0338  0.1710
 2145SOL    HW1 7598   0.575   2.626   2.354  1.4346 -1.1634 -0.5326
 2145SOL    HW2 7599   0.511   2.492   2.386 -0.2891 -0.0632  0.7689
 2146SOL     OW 7600   7.440   7.681   2.612 -0.0355 -0.2412 -0.0546
 2146SOL    HW1 7601   7.411   7.656   2.700  1.0166 -0.7366  0.1776
 2146SOL    HW2 7602   7.486   7.764   2.624  0.0992 -0.3034 -0.1285
 2147SOL     OW 7603   8.712   5.128   7.922  0.1232 -0.0543  0.1672
 2147SOL    HW1 7604   8.657   5.062   7.964 -2.9662 -0.1130 -3.4609
 2147SOL    HW2 7605   8.723   5.096   7.833  2.0049  2.4388 -0.6001
 2148SOL     OW 7606   1.686   7.284   3.336 -0.1686 -0.2163  0.0934
 2148SOL    HW1 7607   1.727   7.199   3.351  1.4502  0.3844 -0.6611
 2148SOL    HW2 7608   1.720   7.340   3.405  1.1144  0.5231 -1.0658
 2149SOL     OW 7609   8.263   4.935   5.856  0.2156 -0.1294 -0.0878
 2149SOL    HW1 7610   8.310   4.923   5.940 -0.5996 -1.4823  0.2096
 2149SOL    HW2 7611   8.320   4.893   5.792  0.3647  0.0276 -0.0621
 2150SOL     OW 7612   8.307   2.635   6.060  0.1428  0.4051 -0.1607
 2150SOL    HW1 7613   8.373   2.581   6.105  0.0278  0.7190  0.3918
 2150SOL    HW2 7614   8.354   2.674   5.986  0.6660  0.8800  0.4140
 2151SOL     OW 7615   0.136   8.375   3.270  0.0852 -0.1201  0.1578
 2151SOL    HW1 7616   0.187   8.452   3.293  0.9169 -0.9459  1.1845
 2151SOL    HW2 7617   0.046   8.408   3.260  0.0568  0.7036  2.5201
 2152SOL     OW 7618   4.408   8.124   5.711 -0.0299 -0.4321  0.3268
 2152SOL    HW1 7619   4.410   8.035   5.676  1.0930 -0.4099  0.2895
 2152SOL    HW2 7620   4.398   8.180   5.634 -1.3704 -0.5383  0.4047
 2153SOL     OW 7621   3.881   5.596   4.939  0.3409 -0.1770  0.5381
 2153SOL    HW1 7622   3.956   5.655   4.925 -0.3059  0.9831  1.7071
 2153SOL    HW2 7623   3.919   5.508   4.935  1.4479  0.3233 -0.6398
 2154SOL     OW 7624   6.689   6.543   0.594 -0.1468 -0.0677 -0.0340
 2154SOL    HW1 7625   6.677   6.449   0.581 -1.3509  0.0172  0.3515
 2154SOL    HW2 7626   6.681   6.580   0.505 -2.2211 -0.1043  0.0810
 2155SOL     OW 7627   4.947   3.329   3.226 -0.2096  0.3278  0.4095
 2155SOL    HW1 7628   4.910   3.269   3.162  1.1500  0.8968 -0.9816
 2155SOL    HW2 7629   5.025   3.285   3.259  1.6249  1.7993 -1.6796
 2156SOL     OW 7630   4.366   1.451   1.320 -0.3466 -0.1584  0.2944
 2156SOL    HW1 7631   4.365   1.547   1.318 -0.4030 -0.1466 -1.7611
 2156SOL    HW2 7632   4.442   1.428   1.266 -0.9826 -1.2672 -0.1379
 2157SOL     OW 7633   4.364   1.029   7.949  0.0716  0.2887  0.1621
 2157SOL    HW1 7634   4.284   1.075   7.975 -1.3631 -2.2099  0.5033
 2157SOL    HW2 7635   4.387   0.976   8.025  0.1505 -1.4597 -1.0181
 2158SOL     OW 7636   3.668   6.904   7.879  0.1341 -0.0813  0.3843
 2158SOL    HW1 7637   3.621   6.887   7.798 -0.5143 -0.1236  0.7683
 2158SOL    HW2 7638   3.600   6.914   7.945  0.6915 -1.4442  1.2027
 2159SOL     OW 7639   0.671   6.658   7.730 -0.4527 -0.0165  0.3247
 2159SOL    HW1 7640   0.736   6.611   7.782  0.3769  1.4049  0.6448
 2159SOL    HW2 7641   0.597   6.670   7.789 -0.1723  0.1519  0.6457
 2160SOL     OW 7642   3.570   7.620   1.849  0.1822 -0.3441  0.2507
 2160SOL    HW1 7643   3.615   7.536   1.843 -0.5829 -0.7951  0.8287
 2160SOL    HW2 7644   3.526   7.619   1.934  0.4779  0.7980  0.4394
 2161SOL     OW 7645   3.931   8.860   4.356  0.5436  0.2054  0.5432
 2161SOL    HW1 7646   3.933   8.833   4.448  0.6728  2.0727  1.1252
 2161SOL    HW2 7647   3.949   8.954   4.358  0.1713  0.3569 -1.3718
 2162SOL     OW 7648   4.163   1.035   2.653 -0.2289  0.2551  0.0023
 2162SOL    HW1 7649   4.154   1.112   2.596 -2.0651  0.8776  1.0449
 2162SOL    HW2 7650   4.119   1.060   2.734 -0.0666 -1.5859  0.7040
 2163SOL     OW 7651   5.120   6.387   0.646 -0.1074 -0.2421  0.2329
 2163SOL    HW1 7652   5.208   6.369   0.680 -0.4412 -1.8996  0.3232
 2163SOL    HW2 7653   5.067   6.313   0.676 -1.5014  0.6174  0.0077
 2164SOL     OW 7654   6.674   8.757   7.165  0.3590  0.4576 -0.2326
 2164SOL    HW1 7655   6.656   8.776   7.257 -0.7492 -1.5067  0.0231
 2164SOL    HW2 7656   6.589   8.731   7.129  0.9474  0.3338 -1.5829
 2165SOL     OW 7657   3.877   5.921   0.466  0.4234  0.4175 -0.4324
 2165SOL    HW1 7658   3.872   6.004   0.419 -0.3075  0.3243 -0.5320
 2165SOL    HW2 7659   3.954   5.930   0.522  0.3273  1.1822 -0.4048
 2166SOL     OW 7660   1.020   4.270   2.589  0.0041 -0.0977 -0.3014
 2166SOL    HW1 7661   0.968   4.349   2.597 -0.1102 -0.2126  0.1200
 2166SOL    HW2 7662   1.028   4.256   2.495  0.9265  1.0082 -0.4135
 2167SOL     OW 7663   5.324   0.715   7.416 -0.2323 -0.2322  0.3715
 2167SOL    HW1 7664   5.327   0.664   7.497 -2.0647 -0.8299  0.1123
 2167SOL    HW2 7665   5.256   0.672   7.363  3.1781 -2.0219 -3.0220
 2168SOL     OW 7666   4.907   2.981   4.283  0.3123 -0.0855  0.5687
 2168SOL    HW1 7667   4.983   2.923   4.284  0.5724  0.2539  1.1440
 2168SOL    HW2 7668   4.935   3.057   4.232  0.1527 -0.2246  0.2704
 2169SOL     OW 7669   5.902   6.777   1.610 -0.1922 -0.2945 -0.3057
 2169SOL    HW1 7670   5.975   6.817   1.562  0.6817 -1.1780  0.2389
 2169SOL    HW2 7671   5.944   6.728   1.681 -1.2579 -1.6550 -0.5672
 2170SOL     OW 7672   3.405   3.882   3.010  0.2444 -0.2703  0.0813
 2170SOL    HW1 7673   3.478   3.897   2.950 -1.2608  0.3655 -1.6969
 2170SOL    HW2 7674   3.351   3.816   2.967 -0.2373 -0.7493  1.3610
 2171SOL     OW 7675   5.666   4.351   0.225 -0.5685  0.4448 -0.1581
 2171SOL    HW1 7676   5.697   4.329   0.313  1.7072  0.3977 -0.8946
 2171SOL    HW2 7677   5.653   4.266   0.183 -0.2605  0.4708 -0.3060
 2172SOL     OW 7678   7.595   4.976   1.052  0.1705  0.0182 -0.6108
 2172SOL    HW1 7679   7.678   5.001   1.092  0.8880  0.5008 -2.2847
 2172SOL    HW2 7680   7.588   4.882   1.066 -0.7403  0.4335  2.5351
 2173SOL     OW 7681   4.851   0.153   5.689 -0.0666 -0.0544  0.0168
 2173SOL    HW1 7682   4.873   0.070   5.731  2.5874  0.0804 -0.9066
 2173SOL    HW2 7683   4.832   0.213   5.761 -3.0882 -1.6192  0.6843
 2174SOL     OW 7684   8.283   2.830   1.587 -0.2809  0.3884  0.0517
 2174SOL    HW1 7685   8.258   2.920   1.608 -2.5019 -0.5204  1.7603
 2174SOL    HW2 7686   8.215   2.776   1.627  1.7860 -2.1565  0.4332
 2175SOL     OW 7687   4.125   5.739   3.760  0.0400 -0.1422 -0.5154
 2175SOL    HW1 7688   4.058   5.752   3.828 -0.6293 -0.1851 -1.1583
 2175SOL    HW2 7689   4.186   5.812   3.773  0.3852 -0.6230  0.6706
 2176SOL     OW 7690   8.095   4.485   8.777 -0.2117  0.2142 -0.0252
 2176SOL    HW1 7691   8.058   4.546   8.841 -0.2873 -0.4145  0.5525
 2176SOL    HW2 7692   8.173   4.529   8.743 -0.6571  0.9182 -0.1318
 2177SOL     OW 7693   1.905   3.496   4.045  0.0125 -0.4868 -0.3001
 2177SOL    HW1 7694   1.859   3.562   3.993 -0.7769  0.0163  1.0035
 2177SOL    HW2 7695   1.880   3.413   4.005 -1.9764 -0.2211  0.2880
 2178SOL     OW 7696   1.263   1.451   5.323 -0.4635  0.0951  0.0850
 2178SOL    HW1 7697   1.218   1.535   5.333 -2.4583 -1.0069  1.0335
 2178SOL    HW2 7698   1.193   1.386   5.319  1.0306 -1.6235  0.1573
 2179SOL     OW 7699   5.636   2.405   0.921 -0.5385  0.1974 -0.1345
 2179SOL    HW1 7700   5.670   2.485   0.882  0.5202 -1.0125 -1.8469
 2179SOL    HW2 7701   5.653   2.337   0.855 -1.3039 -1.4560  1.2869
 2180SOL     OW 7702   3.413   5.235   0.753 -0.3582 -0.1213  0.3895
 2180SOL    HW1 7703   3.394   5.152   0.796 -0.4662 -0.6799 -0.6924
 2180SOL    HW2 7704   3.500   5.259   0.785 -0.4676 -0.4805  0.9654
 2181SOL     OW 7705   5.221   5.021   8.243 -0.4026 -0.2689 -0.0893
 2181SOL    HW1 7706   5.269   4.943   8.216  1.0084  0.4065  0.3429
 2181SOL    HW2 7707   5.250   5.090   8.183 -0.1043  0.3729  0.7724
 2182SOL     OW 7708   0.415   0.606   3.860  0.1194 -0.3032  0.0596
 2182SOL    HW1 7709   0.334   0.658   3.854  0.2770 -0.0185  0.3285
 2182SOL    HW2 7710   0.481   0.660   3.816  0.1221 -0.6235 -0.3303
 2183SOL     OW 7711   6.288   8.471   0.954  0.2943 -0.5585 -0.0604
 2183SOL    HW1 7712   6.208   8.420   0.969 -1.2433  1.3650 -1.1483
 2183SOL    HW2 7713   6.281   8.499   0.863  0.8672  1.8406  0.5722
 2184SOL     OW 7714   5.181   1.316   0.935  0.5727  0.3792 -0.0748
 2184SOL    HW1 7715   5.128   1.345   0.861  1.8443 -0.6221 -1.4404
 2184SOL    HW2 7716   5.271   1.321   0.904  1.0100 -3.1243  0.1693
 2185SOL     OW 7717   2.249   8.762   4.462  0.6506 -0.3299  0.3851
 2185SOL    HW1 7718   2.172   8.771   4.518  0.5098  0.8856  0.0296
 2185SOL    HW2 7719   2.217   8.780   4.374  1.3542  0.3430  0.2502
 2186SOL     OW 7720   6.492   3.694   5.496 -0.2305  0.2550  0.1492
 2186SOL    HW1 7721   6.428   3.672   5.428 -0.1935 -0.3666  0.3032
 2186SOL    HW2 7722   6.574   3.706   5.448  0.3789 -2.6655  0.2610
 2187SOL     OW 7723   5.652   5.479   4.315  0.4936 -0.3858  0.0499
 2187SOL    HW1 7724   5.643   5.558   4.368 -1.9857 -1.0936  0.8339
 2187SOL    HW2 7725   5.616   5.502   4.230  0.4226 -0.4753  0.0554
 2188SOL     OW 7726   7.667   1.680   6.022 -0.2401 -0.5424 -0.8071
 2188SOL    HW1 7727   7.629   1.762   5.992 -0.8045 -0.0395  1.1671
 2188SOL    HW2 7728   7.596   1.616   6.014  0.0417 -0.7518 -1.8350
 2189SOL     OW 7729   3.178   3.662   8.421  0.3997 -0.1663  0.0861
 2189SOL    HW1 7730   3.211   3.673   8.510 -0.7353 -0.6158  0.5785
 2189SOL    HW2 7731   3.229   3.589   8.386 -1.1410 -1.9537  1.4145
 2190SOL     OW 7732   3.200   2.090   1.916  0.5583 -0.2013 -0.1182
 2190SOL    HW1 7733   3.221   2.026   1.984  0.0952 -0.2723 -0.0382
 2190SOL    HW2 7734   3.283   2.106   1.872  1.0224  0.4051  0.9455
 2191SOL     OW 7735   3.233   2.747   4.174 -0.2366 -0.1637 -0.2967
 2191SOL    HW1 7736   3.153   2.783   4.137  0.2262  0.6978 -0.4934
 2191SOL    HW2 7737   3.209   2.660   4.205 -1.0268 -0.2562 -1.1474
 2192SOL     OW 7738   8.115   6.591   2.022 -0.2313  0.0776 -0.1109
 2192SOL    HW1 7739   8.097   6.684   2.031  0.9114  0.1793  1.3499
 2192SOL    HW2 7740   8.035   6.555   1.985 -1.0997  1.4638  0.3501
 2193SOL     OW 7741   1.628   3.654   5.197 -0.5514 -0.0267  0.1432
 2193SOL    HW1 7742   1.714   3.639   5.235 -0.3633  1.4321  0.3470
 2193SOL    HW2 7743   1.569   3.597   5.248  0.3623 -1.6160 -0.4955
 2194SOL     OW 7744   5.042   0.552   0.687  0.6691  0.2321  0.3254
 2194SOL    HW1 7745   5.051   0.641   0.721 -0.4191  0.0000  1.3110
 2194SOL    HW2 7746   4.950   0.546   0.660  0.6880 -0.6322  0.4103
 2195SOL     OW 7747   3.728   3.497   4.593  0.2620  0.1239 -0.0820
 2195SOL    HW1 7748   3.685   3.516   4.676  0.2317 -0.1852 -0.0243
 2195SOL    HW2 7749   3.808   3.449   4.619  0.9429  1.2028 -0.1464
 2196SOL     OW 7750   7.211   1.580   8.028 -0.3276 -0.4107  0.3686
 2196SOL    HW1 7751   7.277   1.517   7.998 -0.9281 -1.4373  1.1236
 2196SOL    HW2 7752   7.128   1.531   8.026 -0.7673  0.2532  1.2472
 2197SOL     OW 7753   4.016   3.161   7.001 -0.3448 -0.2733 -0.1591
 2197SOL    HW1 7754   4.096   3.123   7.037  0.9808  1.9804 -0.5085
 2197SOL    HW2 7755   3.991   3.103   6.930 -0.3649 -2.2666  1.4031
 2198SOL     OW 7756   2.864   5.184   5.649  0.0224 -0.2394  0.5368
 2198SOL    HW1 7757   2.915   5.253   5.606  2.1542 -2.5216 -0.8608
 2198SOL    HW2 7758   2.774   5.201   5.624  0.7789  0.5900 -1.9272
 2199SOL     OW 7759   3.601   6.729   7.201  0.3777  0.5724  0.1555
 2199SOL    HW1 7760   3.655   6.786   7.256 -0.9404 -0.3341  2.5796
 2199SOL    HW2 7761   3.511   6.748   7.229 -0.2031 -1.3158 -0.3119
 2200SOL     OW 7762   4.483   3.086   0.613 -0.6293  0.0338  0.3973
 2200SOL    HW1 7763   4.525   3.048   0.535 -1.1896 -1.6925  0.8965
 2200SOL    HW2 7764   4.500   3.023   0.683 -1.0915  1.0131  1.4155
 2201SOL     OW 7765   0.215   5.593   4.624 -0.0543  0.0559 -0.0294
 2201SOL    HW1 7766   0.212   5.686   4.601 -1.8213  0.3663  1.2126
 2201SOL    HW2 7767   0.306   5.578   4.651  0.1672  1.5330  0.1534
 2202SOL     OW 7768   7.434   1.101   8.327  0.2752  0.3006  1.0638
 2202SOL    HW1 7769   7.524   1.135   8.332  0.6918 -0.6377  0.2394
 2202SOL    HW2 7770   7.441   1.023   8.273 -1.7016  2.5247 -2.7848
 2203SOL     OW 7771   8.737   2.016   7.719  0.5545 -0.8453  0.4733
 2203SOL    HW1 7772   8.701   1.929   7.706 -0.8571 -0.5901  2.4161
 2203SOL    HW2 7773   8.808   2.022   7.654 -0.5474 -2.6899 -0.9927
 2204SOL     OW 7774   5.903   0.571   8.547  0.7654  0.5564 -0.4486
 2204SOL    HW1 7775   5.978   0.571   8.606  0.5321 -1.4928 -0.0852
 2204SOL    HW2 7776   5.941   0.572   8.459  1.3374 -1.9241 -0.2936
 2205SOL     OW 7777   4.907   8.486   8.087 -0.5169 -0.2377 -0.4421
 2205SOL    HW1 7778   4.946   8.539   8.017  0.2429 -0.1434  0.0362
 2205SOL    HW2 7779   4.954   8.513   8.166 -1.4594 -0.2334  0.1368
 2206SOL     OW 7780   4.450   8.067   8.407  0.4043  0.2992  0.0109
 2206SOL    HW1 7781   4.486   8.090   8.321 -0.0810  2.1032  0.2604
 2206SOL    HW2 7782   4.451   7.971   8.408  2.1720  0.2464 -1.2557
 2207SOL     OW 7783   8.193   3.293   2.113 -0.4544  0.3901  0.2367
 2207SOL    HW1 7784   8.265   3.302   2.050  0.0351 -0.8258  0.5884
 2207SOL    HW2 7785   8.228   3.330   2.194  0.1904 -1.1209  0.6864
 2208SOL     OW 7786   6.152   2.520   5.912 -0.0084  0.3203  0.2503
 2208SOL    HW1 7787   6.138   2.609   5.879 -0.2491  0.3867  0.5279
 2208SOL    HW2 7788   6.245   2.503   5.896 -0.3287 -0.0569 -1.4497
 2209SOL     OW 7789   5.052   8.757   4.786  0.0479 -0.1477 -0.3798
 2209SOL    HW1 7790   5.068   8.692   4.717  1.0121 -0.7111  0.3459
 2209SOL    HW2 7791   5.098   8.722   4.863  1.5662  1.9061 -0.2561
 2210SOL     OW 7792   4.591   2.592   8.188  0.5170 -0.2317  0.1498
 2210SOL    HW1 7793   4.614   2.623   8.100  2.4837  1.6107  1.2263
 2210SOL    HW2 7794   4.603   2.497   8.184 -0.7835 -0.3803 -1.9118
 2211SOL     OW 7795   8.602   8.401   1.981  0.4447 -0.6292 -0.6011
 2211SOL    HW1 7796   8.647   8.329   1.937  0.8581 -0.5075 -0.3932
 2211SOL    HW2 7797   8.674   8.457   2.013  0.1482 -0.4971 -0.1520
 2212SOL     OW 7798   2.155   6.332   2.542  0.0718 -0.1175  0.0781
 2212SOL    HW1 7799   2.227   6.285   2.499 -0.9214 -1.0649 -0.5998
 2212SOL    HW2 7800   2.091   6.264   2.562 -1.7398  0.9783 -1.5995
 2213SOL     OW 7801   7.732   6.338   8.266 -0.4208  0.1621 -0.4821
 2213SOL    HW1 7802   7.665   6.336   8.197 -0.0388 -3.3132 -0.9559
 2213SOL    HW2 7803   7.699   6.277   8.332  0.8461  0.8109  0.7952
 2214SOL     OW 7804   0.173   5.826   3.037  0.3578 -0.2543 -0.0053
 2214SOL    HW1 7805   0.256   5.820   3.084  1.1635  1.9204 -0.9743
 2214SOL    HW2 7806   0.112   5.865   3.100  0.6872  0.1381  0.0767
 2215SOL     OW 7807   0.092   6.292   1.972  0.2762  0.1353 -0.5033
 2215SOL    HW1 7808   0.067   6.379   2.005  1.5347  0.9863 -1.6447
 2215SOL    HW2 7809   0.172   6.309   1.921  1.3448 -1.9185  0.4050
 2216SOL     OW 7810   2.623   1.771   1.207  0.2415 -0.0235 -0.7456
 2216SOL    HW1 7811   2.597   1.838   1.144 -1.6809 -0.1567 -0.1413
 2216SOL    HW2 7812   2.647   1.695   1.152 -1.4324 -0.1538 -1.3702
 2217SOL     OW 7813   0.504   2.093   3.071  0.6520  0.1991  0.2235
 2217SOL    HW1 7814   0.460   2.170   3.034 -1.7973 -0.4487  1.5717
 2217SOL    HW2 7815   0.498   2.027   3.002 -0.6721  0.1064  0.3870
 2218SOL     OW 7816   5.595   8.544   1.134  0.1949 -0.1095  0.0570
 2218SOL    HW1 7817   5.538   8.611   1.172 -2.2432 -1.8286 -0.3435
 2218SOL    HW2 7818   5.544   8.463   1.140  2.8560 -1.9001  0.1669
 2219SOL     OW 7819   3.575   8.703   7.817 -0.3411  0.2416 -0.6840
 2219SOL    HW1 7820   3.481   8.683   7.820 -0.5320  1.1883  0.5617
 2219SOL    HW2 7821   3.588   8.744   7.732 -1.1008  0.3107 -0.7762
 2220SOL     OW 7822   3.436   6.844   1.332 -0.0722 -0.1029  0.0429
 2220SOL    HW1 7823   3.433   6.884   1.419 -0.7673 -1.1938  0.5420
 2220SOL    HW2 7824   3.375   6.897   1.280 -1.0546 -0.5306  0.7200
 2221SOL     OW 7825   2.666   3.390   0.570 -0.4839 -0.2436 -0.4944
 2221SOL    HW1 7826   2.600   3.335   0.613 -0.1733 -1.6883 -1.7939
 2221SOL    HW2 7827   2.620   3.473   0.553 -1.2431 -0.3918  0.6868
 2222SOL     OW 7828   3.525   3.914   2.239  0.0767 -0.4700 -0.3189
 2222SOL    HW1 7829   3.469   3.946   2.310  0.1801 -1.7149  0.3559
 2222SOL    HW2 7830   3.614   3.918   2.275  0.2223 -0.2583 -0.7022
 2223SOL     OW 7831   3.475   7.550   3.005  0.1594 -0.9275 -0.3884
 2223SOL    HW1 7832   3.527   7.617   2.961 -0.0170 -0.5145  0.0181
 2223SOL    HW2 7833   3.449   7.490   2.935  1.2390 -1.1842 -0.5823
 2224SOL     OW 7834   0.622   4.811   6.499 -0.1174  0.4039 -0.2967
 2224SOL    HW1 7835   0.592   4.722   6.517 -0.7449  0.7246  0.2939
 2224SOL    HW2 7836   0.703   4.820   6.549 -0.0897  0.1787 -0.3032
 2225SOL     OW 7837   6.455   7.270   3.471  0.0645 -0.0062 -0.2475
 2225SOL    HW1 7838   6.479   7.178   3.482  0.1189  0.1881  1.5685
 2225SOL    HW2 7839   6.411   7.273   3.386  1.6871 -1.3523 -1.1991
 2226SOL     OW 7840   0.373   0.679   1.567 -0.0043  0.2540 -0.1961
 2226SOL    HW1 7841   0.283   0.672   1.536 -0.3979  0.8692  0.7663
 2226SOL    HW2 7842   0.426   0.683   1.487 -0.4426 -3.7339 -0.9077
 2227SOL     OW 7843   7.746   7.345   3.472 -0.5615  0.1947 -0.0141
 2227SOL    HW1 7844   7.655   7.364   3.492 -0.7409 -0.6922  0.0138
 2227SOL    HW2 7845   7.751   7.250   3.465  0.1244  0.2894 -1.1631
 2228SOL     OW 7846   5.842   0.906   4.634  0.5160  0.5670  0.2697
 2228SOL    HW1 7847   5.774   0.925   4.699 -0.0227  0.3366 -0.2257
 2228SOL    HW2 7848   5.827   0.815   4.609  1.6285  0.1898  0.8875
 2229SOL     OW 7849   7.942   0.947   3.131 -0.1793  0.0751  0.1815
 2229SOL    HW1 7850   7.991   1.020   3.093 -1.2127  1.0608  0.6640
 2229SOL    HW2 7851   8.001   0.910   3.197  0.1129  0.8978  0.3934
 2230SOL     OW 7852   3.300   6.819   4.113  0.1912  0.2942 -0.3168
 2230SOL    HW1 7853   3.266   6.833   4.025 -0.6304  0.9433  0.0797
 2230SOL    HW2 7854   3.223   6.829   4.170  0.8046  0.4279  0.5088
 2231SOL     OW 7855   2.987   2.859   4.073  0.6881 -0.3726 -0.1979
 2231SOL    HW1 7856   2.957   2.803   4.002 -1.0314 -1.0584  1.0147
 2231SOL    HW2 7857   2.916   2.858   4.137  1.5442  1.4149  0.8822
 2232SOL     OW 7858   3.178   5.587   7.625  0.4445  0.0645 -0.1605
 2232SOL    HW1 7859   3.098   5.625   7.661  0.4205 -0.0100 -0.1360
 2232SOL    HW2 7860   3.229   5.662   7.596  0.0463  0.0784 -0.8416
 2233SOL     OW 7861   1.614   6.025   1.245 -0.5664 -0.3354  0.6832
 2233SOL    HW1 7862   1.575   6.064   1.167  0.8111 -0.2370  0.0159
 2233SOL    HW2 7863   1.541   6.015   1.306 -1.0962  2.7561  0.6998
 2234SOL     OW 7864   7.033   4.555   3.021 -0.0281  0.1369  0.5445
 2234SOL    HW1 7865   7.113   4.511   2.990  0.0152  0.6568 -0.1171
 2234SOL    HW2 7866   7.062   4.607   3.096  0.3656  0.6969  0.0140
 2235SOL     OW 7867   3.282   1.341   8.439  0.4900 -0.2281  0.3363
 2235SOL    HW1 7868   3.318   1.409   8.497 -0.3840  1.1828 -0.6918
 2235SOL    HW2 7869   3.340   1.343   8.362 -0.0452 -0.0078 -0.0674
 2236SOL     OW 7870   6.180   0.776   5.213 -0.3774 -0.8304 -0.0468
 2236SOL    HW1 7871   6.206   0.865   5.239 -1.3009 -0.0363 -1.6804
 2236SOL    HW2 7872   6.090   0.786   5.181 -0.5534 -2.4014 -0.1249
 2237SOL     OW 7873   3.179   1.497   1.147  0.1585  0.0211 -0.3988
 2237SOL    HW1 7874   3.223   1.420   1.111 -0.5907  0.3785 -2.1671
 2237SOL    HW2 7875   3.119   1.462   1.213 -2.3644 -1.3568 -3.1857
 2238SOL     OW 7876   7.522   5.719   1.382 -0.0640 -0.2015  0.2613
 2238SOL    HW1 7877   7.497   5.737   1.472 -1.2664  2.3836 -0.4641
 2238SOL    HW2 7878   7.445   5.675   1.344 -0.7974  1.3585 -0.1713
 2239SOL     OW 7879   6.176   6.872   6.252  0.8487  0.1351  0.2967
 2239SOL    HW1 7880   6.089   6.908   6.240  0.3344 -0.9072  0.7066
 2239SOL    HW2 7881   6.236   6.942   6.227 -0.0768  1.5057  1.7711
 2240SOL     OW 7882   5.058   6.109   6.042 -0.1620  0.5498  0.0159
 2240SOL    HW1 7883   5.062   6.120   5.947  1.8252 -1.3233 -0.1906
 2240SOL    HW2 7884   5.016   6.024   6.054 -2.2334  1.6376  0.9483
 2241SOL     OW 7885   8.427   7.826   8.488  0.3694  0.0998 -0.0577
 2241SOL    HW1 7886   8.391   7.786   8.567  1.7200 -0.1794  0.4409
 2241SOL    HW2 7887   8.384   7.911   8.482 -0.2265 -0.1467  0.6175
 2242SOL     OW 7888   8.356   7.508   5.188  0.2101  0.1301 -0.1077
 2242SOL    HW1 7889   8.401   7.510   5.104  0.5305 -1.4218 -0.0002
 2242SOL    HW2 7890   8.263   7.503   5.165  0.3138 -0.6469 -0.3854
 2243SOL     OW 7891   4.201   2.718   1.872  0.1000  0.0201  0.5349
 2243SOL    HW1 7892   4.144   2.716   1.949 -1.7735 -0.2752 -0.7853
 2243SOL    HW2 7893   4.281   2.762   1.903 -0.3370 -0.6116  2.7679
 2244SOL     OW 7894   3.194   1.478   7.374  0.1317  0.4539  0.0341
 2244SOL    HW1 7895   3.151   1.423   7.439  0.3923  1.2127  0.8665
 2244SOL    HW2 7896   3.282   1.441   7.365 -0.2666 -0.3320 -0.7341
 2245SOL     OW 7897   8.206   5.209   6.048  0.7882  0.0330 -0.1152
 2245SOL    HW1 7898   8.222   5.115   6.051 -0.2943 -0.3203 -2.7081
 2245SOL    HW2 7899   8.156   5.222   5.967 -1.2014  2.5341  1.3588
 2246SOL     OW 7900   3.621   2.311   8.464 -0.0291 -0.0458  0.1908
 2246SOL    HW1 7901   3.711   2.331   8.437 -0.2929 -1.9856 -2.4989
 2246SOL    HW2 7902   3.622   2.322   8.559  2.7256  1.0748  0.1431
 2247SOL     OW 7903   6.806   6.698   7.168  0.5404  0.2774  0.4351
 2247SOL    HW1 7904   6.804   6.728   7.259  1.0364  1.6656  0.0186
 2247SOL    HW2 7905   6.891   6.655   7.159 -0.2945 -1.6347  1.1168
 2248SOL     OW 7906   6.753   4.637   0.773  0.2116 -0.0256 -0.0584
 2248SOL    HW1 7907   6.847   4.621   0.767  0.1072 -0.6254 -0.1454
 2248SOL    HW2 7908   6.721   4.629   0.683  0.1448  0.6154 -0.0931
 2249SOL     OW 7909   4.390   0.265   1.909 -0.6754 -0.0044 -0.0555
 2249SOL    HW1 7910   4.341   0.284   1.830  1.2777  0.5979 -1.1867
 2249SOL    HW2 7911   4.372   0.340   1.967 -2.3741 -0.6106  0.2520
 2250SOL     OW 7912   6.098   1.396   4.400 -0.0721  0.0959  0.1844
 2250SOL    HW1 7913   6.082   1.465   4.464 -0.9409 -0.2390  0.3365
 2250SOL    HW2 7914   6.013   1.354   4.387  0.1976 -0.1679 -0.8180
 2251SOL     OW 7915   0.860   1.166   7.567 -0.4225 -0.1711 -0.3120
 2251SOL    HW1 7916   0.887   1.089   7.517  1.1355 -0.0571  0.2986
 2251SOL    HW2 7917   0.941   1.198   7.608 -1.4927  0.1471  1.7058
 2252SOL     OW 7918   3.453   0.874   0.766 -0.6227  0.3040 -0.6147
 2252SOL    HW1 7919   3.482   0.915   0.684 -3.8161  1.9240 -1.0869
 2252SOL    HW2 7920   3.507   0.915   0.834  0.1001  1.1160 -1.6444
 2253SOL     OW 7921   2.355   3.801   2.465  0.0187  0.0814  0.7143
 2253SOL    HW1 7922   2.326   3.797   2.374 -0.3544 -0.0025  0.8355
 2253SOL    HW2 7923   2.376   3.710   2.487 -0.4322  0.0134  0.8827
 2254SOL     OW 7924   5.171   2.608   3.136  0.0157 -0.7387  0.3023
 2254SOL    HW1 7925   5.121   2.649   3.207  2.0907 -2.3907  2.9344
 2254SOL    HW2 7926   5.116   2.535   3.107 -0.9706  0.1108 -0.0226
 2255SOL     OW 7927   5.079   1.936   4.352 -0.3237 -0.8616  0.2100
 2255SOL    HW1 7928   5.103   1.852   4.314  0.6464  0.4035 -2.2211
 2255SOL    HW2 7929   5.095   1.926   4.445  1.3698 -2.8406 -0.2286
 2256SOL     OW 7930   5.833   3.831   8.342  0.1288  0.6594 -0.0852
 2256SOL    HW1 7931   5.745   3.794   8.349  0.6730 -0.8299 -0.8129
 2256SOL    HW2 7932   5.886   3.777   8.401  0.9994  0.0244 -1.4008
 2257SOL     OW 7933   5.375   2.215   4.905 -0.1146 -0.3933  0.1852
 2257SOL    HW1 7934   5.460   2.190   4.942  0.2826  2.4457  1.5156
 2257SOL    HW2 7935   5.324   2.245   4.981 -0.6750  2.0334 -1.0363
 2258SOL     OW 7936   4.629   4.334   4.565 -0.5759 -0.3411  0.2107
 2258SOL    HW1 7937   4.635   4.415   4.513 -1.7925 -0.4642 -0.1695
 2258SOL    HW2 7938   4.639   4.363   4.655 -1.8701  0.3953  0.1468
 2259SOL     OW 7939   5.075   1.628   3.872  0.2675 -0.4083 -0.6440
 2259SOL    HW1 7940   5.010   1.694   3.896  0.2368 -1.3625  2.1749
 2259SOL    HW2 7941   5.153   1.679   3.850 -0.8380  0.6687 -2.3951
 2260SOL     OW 7942   2.581   6.237   1.359 -0.3348 -0.3881 -0.1771
 2260SOL    HW1 7943   2.665   6.277   1.337  0.4399 -0.3146  2.5610
 2260SOL    HW2 7944   2.538   6.301   1.416 -1.0378 -1.5755  0.6777
 2261SOL     OW 7945   2.498   1.859   4.495  0.3241  0.4043 -0.2718
 2261SOL    HW1 7946   2.591   1.848   4.477 -0.1961 -1.7997 -2.1862
 2261SOL    HW2 7947   2.489   1.838   4.588  1.5333 -1.3028 -0.4899
 2262SOL     OW 7948   6.628   7.790   0.983 -0.3259 -0.1692  0.1591
 2262SOL    HW1 7949   6.658   7.869   0.938 -0.3067 -0.1279  0.2445
 2262SOL    HW2 7950   6.708   7.747   1.011 -0.3419 -0.1000  0.3157
 2263SOL     OW 7951   2.405   7.356   0.477  0.0417  0.5153  0.2929
 2263SOL    HW1 7952   2.498   7.334   0.489  0.2556  0.4461 -1.2882
 2263SOL    HW2 7953   2.386   7.418   0.547  1.2077  0.3055  0.8168
 2264SOL     OW 7954   1.813   6.749   2.710 -0.2587  0.1902  0.2356
 2264SOL    HW1 7955   1.778   6.689   2.644 -0.0092 -0.4802  0.6949
 2264SOL    HW2 7956   1.873   6.695   2.761  0.2357  0.9280  0.4475
 2265SOL     OW 7957   7.927   4.111   7.829 -0.6077  0.7867  0.1304
 2265SOL    HW1 7958   7.983   4.189   7.832 -1.1856  1.2604 -0.8204
 2265SOL    HW2 7959   7.839   4.145   7.843 -1.0155  0.4984 -1.5669
 2266SOL     OW 7960   5.813   8.030   3.142 -0.5032  0.1079  0.0383
 2266SOL    HW1 7961   5.804   8.070   3.056 -0.4381  0.6718  0.2856
 2266SOL    HW2 7962   5.863   7.950   3.127 -1.6494 -0.5004 -0.6390
 2267SOL     OW 7963   7.268   3.604   8.793  0.1260  0.0039  0.8832
 2267SOL    HW1 7964   7.260   3.528   8.851  1.9433 -0.8478  0.1098
 2267SOL    HW2 7965   7.332   3.576   8.727 -0.4062  1.6409 -0.3838
 2268SOL     OW 7966   6.288   5.789   3.130 -0.5037  0.0821  0.4337
 2268SOL    HW1 7967   6.248   5.874   3.147  2.5379  1.8586 -0.5380
 2268SOL    HW2 7968   6.306   5.789   3.036  1.3507 -0.7462  0.7435
 2269SOL     OW 7969   2.064   5.129   4.353  0.6900  0.0988 -0.7712
 2269SOL    HW1 7970   2.070   5.066   4.425  2.2572  1.3164  0.2382
 2269SOL    HW2 7971   2.075   5.077   4.274  0.9591 -1.0180 -0.0128
 2270SOL     OW 7972   5.957   4.804   3.946 -0.3097 -0.1440  0.2639
 2270SOL    HW1 7973   6.038   4.757   3.927 -1.9717 -2.8532 -0.5887
 2270SOL    HW2 7974   5.936   4.849   3.864  0.7668  1.3791  0.7808
 2271SOL     OW 7975   5.426   7.095   1.437  0.2002  0.5403 -0.3108
 2271SOL    HW1 7976   5.357   7.157   1.460 -0.8173 -0.9282  0.8497
 2271SOL    HW2 7977   5.493   7.106   1.505  0.1101  0.5032 -0.2158
 2272SOL     OW 7978   6.625   1.495   5.542 -0.6303 -0.1147  0.1853
 2272SOL    HW1 7979   6.624   1.586   5.572 -0.8683  0.0367 -0.2698
 2272SOL    HW2 7980   6.534   1.476   5.522 -1.0811 -1.3586  2.9143
 2273SOL     OW 7981   7.705   4.255   7.839  0.4389  0.4809  0.1093
 2273SOL    HW1 7982   7.640   4.189   7.863  0.8657 -0.3974 -1.0721
 2273SOL    HW2 7983   7.669   4.338   7.873 -2.0196  0.2693 -1.7419
 2274SOL     OW 7984   4.729   4.436   1.995 -0.1936  0.2199 -0.1015
 2274SOL    HW1 7985   4.784   4.444   1.917  0.3655 -0.7081  0.1741
 2274SOL    HW2 7986   4.748   4.348   2.028 -1.1195  0.2571  0.5604
 2275SOL     OW 7987   3.414   6.997   8.673 -0.3529  0.4762  0.1574
 2275SOL    HW1 7988   3.338   7.016   8.618 -1.0647 -0.8826  0.6282
 2275SOL    HW2 7989   3.400   6.907   8.702 -0.0894  1.1961  2.7038
 2276SOL     OW 7990   2.716   8.589   1.556 -0.4411  0.2783 -0.2655
 2276SOL    HW1 7991   2.646   8.527   1.575 -1.4092  0.3699 -2.9842
 2276SOL    HW2 7992   2.672   8.673   1.544  0.3339  0.6829 -0.3876
 2277SOL     OW 7993   4.179   1.375   4.774  0.3299  0.0458 -0.1127
 2277SOL    HW1 7994   4.136   1.289   4.781 -0.0230  0.2931  0.9779
 2277SOL    HW2 7995   4.206   1.395   4.863 -0.4181  1.4799 -0.1813
 2278SOL     OW 7996   0.879   8.647   2.439  0.4670  0.0021  0.6847
 2278SOL    HW1 7997   0.951   8.638   2.377 -0.1881  1.9891 -0.4476
 2278SOL    HW2 7998   0.913   8.706   2.506 -0.9105  3.3836 -1.3758
 2279SOL     OW 7999   7.409   0.239   5.920  0.1095  0.0176  0.2187
 2279SOL    HW1 8000   7.492   0.230   5.873  0.5896 -0.0819  1.0556
 2279SOL    HW2 8001   7.392   0.151   5.954 -0.0262  0.1730  0.5521
 2280SOL     OW 8002   4.285   7.665   6.376  0.0656  0.3237 -0.3002
 2280SOL    HW1 8003   4.219   7.730   6.400  0.1975  0.3013  0.1217
 2280SOL    HW2 8004   4.268   7.648   6.283 -0.8361 -0.0456 -0.0772
 2281SOL     OW 8005   1.246   1.633   8.262 -0.2062 -0.7650  0.1714
 2281SOL    HW1 8006   1.273   1.562   8.203  0.4611  1.4113 -2.3672
 2281SOL    HW2 8007   1.152   1.620   8.274 -0.2803 -1.5273 -1.0887
 2282SOL     OW 8008   4.573   7.046   2.811 -0.2769  0.0773  0.1715
 2282SOL    HW1 8009   4.520   7.014   2.884  0.0903  0.1104  0.4572
 2282SOL    HW2 8010   4.522   7.026   2.733 -0.0467 -1.2594  0.3330
 2283SOL     OW 8011   8.672   7.935   4.563 -0.1086 -0.0759 -0.1076
 2283SOL    HW1 8012   8.640   7.853   4.601 -2.0071  1.3919  1.7059
 2283SOL    HW2 8013   8.767   7.927   4.565 -0.2157 -1.5545  1.6707
 2284SOL     OW 8014   7.463   3.921   7.518 -0.0448  0.8520 -0.1873
 2284SOL    HW1 8015   7.532   3.974   7.477  0.2996  0.5327 -0.0307
 2284SOL    HW2 8016   7.508   3.841   7.547 -0.8685 -0.2969 -1.9087
 2285SOL     OW 8017   3.034   3.411   2.869 -0.2906  0.7575  0.5909
 2285SOL    HW1 8018   2.985   3.491   2.850  0.0629  1.7710  3.4075
 2285SOL    HW2 8019   2.970   3.341   2.858 -1.4255  1.7252  0.7767
 2286SOL     OW 8020   3.387   5.893   4.713 -0.4752  0.5484 -0.2200
 2286SOL    HW1 8021   3.385   5.924   4.804  1.9075  0.7051 -0.1535
 2286SOL    HW2 8022   3.298   5.862   4.696 -0.7492 -0.3676  2.4657
 2287SOL     OW 8023   2.638   7.932   5.330  0.1896  0.6822 -0.3896
 2287SOL    HW1 8024   2.710   7.925   5.393 -0.8661 -1.9859  0.6690
 2287SOL    HW2 8025   2.560   7.944   5.384 -0.9255 -2.9828 -0.8868
 2288SOL     OW 8026   7.926   1.633   6.010 -0.1450  0.3920 -0.0587
 2288SOL    HW1 8027   7.969   1.658   6.092 -1.0478 -0.1651  0.5956
 2288SOL    HW2 8028   7.835   1.660   6.021 -0.1298  0.9507 -1.1649
 2289SOL     OW 8029   4.726   1.682   8.356  0.2822 -0.8151 -0.3936
 2289SOL    HW1 8030   4.665   1.707   8.425  1.3840  0.6794  0.1076
 2289SOL    HW2 8031   4.764   1.765   8.326  1.1476 -1.5875 -1.5402
 2290SOL     OW 8032   3.167   5.905   4.158  0.2400  0.0421  0.0020
 2290SOL    HW1 8033   3.107   5.896   4.084  0.8148  2.5752 -0.8915
 2290SOL    HW2 8034   3.122   5.964   4.218  1.2882  1.0084 -0.1192
 2291SOL     OW 8035   0.572   6.714   6.326 -0.0798  0.8407 -0.0959
 2291SOL    HW1 8036   0.591   6.807   6.331  0.0937  0.7511  3.0988
 2291SOL    HW2 8037   0.614   6.677   6.404  0.7492 -2.0994 -1.7951
 2292SOL     OW 8038   6.748   8.728   8.537  1.0120  0.0447  0.0223
 2292SOL    HW1 8039   6.694   8.807   8.547  1.0354 -0.1870  2.7764
 2292SOL    HW2 8040   6.732   8.700   8.447 -0.7450  1.9358 -0.3456
 2293SOL     OW 8041   4.167   2.054   3.390  0.6039  0.5292  0.2473
 2293SOL    HW1 8042   4.072   2.044   3.384  0.5504  0.7489  0.6999
 2293SOL    HW2 8043   4.195   2.069   3.300  0.2370  0.2477  0.0782
 2294SOL     OW 8044   7.972   6.581   2.509  0.3814  0.3372  0.8913
 2294SOL    HW1 8045   7.934   6.507   2.557  0.4402  0.3585  0.9709
 2294SOL    HW2 8046   7.965   6.556   2.417  1.3575 -0.2363  0.9624
 2295SOL     OW 8047   8.480   4.399   0.803 -0.9596  0.4520  0.1839
 2295SOL    HW1 8048   8.473   4.335   0.874 -0.5015 -0.2236 -0.3670
 2295SOL    HW2 8049   8.563   4.378   0.761 -1.2812  0.7792 -0.6228
 2296SOL     OW 8050   6.631   4.513   5.203 -0.0761  0.6530  0.2232
 2296SOL    HW1 8051   6.662   4.587   5.152  0.8599 -1.2026 -2.0928
 2296SOL    HW2 8052   6.709   4.480   5.248 -0.3663  0.7129  0.7847
 2297SOL     OW 8053   4.708   6.703   3.132 -0.3322 -0.0921  0.1292
 2297SOL    HW1 8054   4.618   6.728   3.151 -0.0847 -0.3306  1.8389
 2297SOL    HW2 8055   4.760   6.782   3.148 -0.1876 -0.0597 -0.4683
 2298SOL     OW 8056   1.006   6.950   3.773 -0.0094 -0.1198 -0.6582
 2298SOL    HW1 8057   1.055   6.867   3.772  0.9341  0.3178  1.5739
 2298SOL    HW2 8058   1.059   7.009   3.721 -0.0409 -0.5927 -1.2366
 2299SOL     OW 8059   6.536   2.022   0.667 -0.1782 -0.2371  0.5390
 2299SOL    HW1 8060   6.518   1.942   0.616  1.0651 -0.0638 -0.2256
 2299SOL    HW2 8061   6.472   2.086   0.634  0.1840 -0.3201 -0.3653
 2300SOL     OW 8062   2.554   7.810   7.033 -0.0333 -0.0239 -0.1325
 2300SOL    HW1 8063   2.579   7.884   7.089  2.0634 -1.4068  0.9055
 2300SOL    HW2 8064   2.481   7.769   7.080 -1.3961  1.4653 -0.8514
 2301SOL     OW 8065   6.944   3.092   1.367  0.5223  0.2285 -0.3256
 2301SOL    HW1 8066   6.936   3.049   1.452  0.8294  0.0987 -0.3608
 2301SOL    HW2 8067   7.013   3.044   1.322 -0.6889 -0.6853 -1.2595
 2302SOL     OW 8068   1.918   1.267   3.071  0.1084 -0.2936 -0.0295
 2302SOL    HW1 8069   1.988   1.203   3.081  0.7081  0.3509 -0.0739
 2302SOL    HW2 8070   1.895   1.263   2.978  0.1877 -0.3943 -0.0442
 2303SOL     OW 8071   7.440   1.170   3.432 -0.5271  0.2317 -0.2077
 2303SOL    HW1 8072   7.459   1.249   3.380  1.3073  0.6671  1.0493
 2303SOL    HW2 8073   7.456   1.098   3.372 -0.0552  0.7542 -0.7256
 2304SOL     OW 8074   5.215   2.121   6.675 -0.3429  0.6312  0.0046
 2304SOL    HW1 8075   5.216   2.057   6.747  2.2072  1.2156  0.5892
 2304SOL    HW2 8076   5.173   2.074   6.603  0.9576 -1.5714  0.5711
 2305SOL     OW 8077   1.271   7.400   0.874 -0.0916  0.2438  0.0548
 2305SOL    HW1 8078   1.219   7.465   0.827  0.3155  0.7023  0.2207
 2305SOL    HW2 8079   1.248   7.413   0.966 -1.9187 -1.5736 -0.0899
 2306SOL     OW 8080   4.512   4.732   5.458 -0.5562  0.3709 -0.4710
 2306SOL    HW1 8081   4.448   4.800   5.477  0.2787  1.1033 -0.1902
 2306SOL    HW2 8082   4.543   4.703   5.544  0.6098  1.1410 -0.6000
 2307SOL     OW 8083   2.657   4.106   4.545 -0.0248 -0.7659  0.5267
 2307SOL    HW1 8084   2.686   4.091   4.635 -1.4256 -1.6541  0.8581
 2307SOL    HW2 8085   2.562   4.120   4.552 -0.1728 -0.9439 -0.8238
 2308SOL     OW 8086   5.746   3.969   3.068 -0.2297  0.3301 -0.4787
 2308SOL    HW1 8087   5.726   3.947   2.977 -1.5126  0.7285 -0.3017
 2308SOL    HW2 8088   5.808   3.901   3.095 -0.7672 -0.4992 -1.2742
 2309SOL     OW 8089   5.297   0.232   5.447  0.0831 -0.1167  0.0837
 2309SOL    HW1 8090   5.326   0.160   5.391  2.3209 -0.8821  2.0631
 2309SOL    HW2 8091   5.238   0.190   5.509 -0.7555  0.3258 -0.3993
 2310SOL     OW 8092   6.378   5.801   5.221 -0.3978 -0.2057 -0.3279
 2310SOL    HW1 8093   6.412   5.761   5.301 -0.0435 -0.6324 -0.6871
 2310SOL    HW2 8094   6.286   5.817   5.240 -0.6673 -1.6113 -0.3176
 2311SOL     OW 8095   8.826   1.529   6.163 -0.0906 -0.5535 -0.3428
 2311SOL    HW1 8096   8.826   1.550   6.256  0.3673  1.3021 -0.7123
 2311SOL    HW2 8097   8.743   1.565   6.130  1.1975  1.8531 -1.2003
 2312SOL     OW 8098   7.391   3.575   6.331  0.1750  0.7031 -0.3437
 2312SOL    HW1 8099   7.429   3.583   6.244  1.2332 -0.8977 -0.0758
 2312SOL    HW2 8100   7.466   3.555   6.388 -0.7706 -0.4847  0.5498
 2313SOL     OW 8101   6.712   7.522   8.438  0.6197  0.3757 -0.5454
 2313SOL    HW1 8102   6.742   7.594   8.382  0.9943  0.4976 -0.1899
 2313SOL    HW2 8103   6.767   7.528   8.516  1.1413 -0.7289 -0.8044
 2314SOL     OW 8104   8.422   0.300   1.857  0.1925  0.3773  0.3583
 2314SOL    HW1 8105   8.335   0.325   1.825 -0.0587 -0.0209  0.7218
 2314SOL    HW2 8106   8.480   0.316   1.783  0.2445  3.0891  0.8809
 2315SOL     OW 8107   3.658   1.031   4.854 -0.2498  0.3171 -0.8784
 2315SOL    HW1 8108   3.747   0.997   4.862 -0.2530  0.7076  1.4178
 2315SOL    HW2 8109   3.603   0.953   4.849  0.2014  0.0669 -2.9685
 2316SOL     OW 8110   5.817   2.968   5.745  0.1318 -0.1911  0.0298
 2316SOL    HW1 8111   5.855   3.041   5.696  1.0219  0.8167  2.0981
 2316SOL    HW2 8112   5.726   2.994   5.760  0.2046  0.0870  0.0027
 2317SOL     OW 8113   1.717   3.227   1.920  0.1009  0.0700 -0.2560
 2317SOL    HW1 8114   1.800   3.250   1.878  0.5333 -0.6884  0.1510
 2317SOL    HW2 8115   1.704   3.135   1.899 -0.4884  0.1058 -0.0645
 2318SOL     OW 8116   7.756   4.111   3.256 -0.4003  0.3940  0.2293
 2318SOL    HW1 8117   7.724   4.163   3.330 -0.5954  0.1117  0.3415
 2318SOL    HW2 8118   7.798   4.176   3.199  0.9211  0.4544  1.1978
 2319SOL     OW 8119   7.608   1.598   2.271 -0.2529 -0.3155 -0.0707
 2319SOL    HW1 8120   7.546   1.631   2.205  0.2558 -0.3238 -0.5603
 2319SOL    HW2 8121   7.585   1.646   2.350 -0.3239  0.3210 -0.4676
 2320SOL     OW 8122   1.506   6.309   4.292 -0.5491  0.2001  0.3451
 2320SOL    HW1 8123   1.545   6.226   4.319  0.4886  1.0889  1.7629
 2320SOL    HW2 8124   1.547   6.330   4.208 -0.1219 -0.2696  0.4354
 2321SOL     OW 8125   8.845   3.675   6.091 -0.3993 -0.2214 -0.1322
 2321SOL    HW1 8126   8.928   3.721   6.081 -0.1370 -0.6648 -0.0316
 2321SOL    HW2 8127   8.816   3.697   6.179 -0.5584  0.2063 -0.2896
 2322SOL     OW 8128   8.479   8.125   6.056  0.0718 -0.3156 -0.0362
 2322SOL    HW1 8129   8.451   8.110   5.966 -0.1628  1.7092 -0.3380
 2322SOL    HW2 8130   8.399   8.120   6.108 -0.0400  0.1831 -0.1643
 2323SOL     OW 8131   3.416   5.305   4.812 -1.1616  0.1838 -0.4157
 2323SOL    HW1 8132   3.336   5.252   4.816 -1.6463  0.9446  0.1477
 2323SOL    HW2 8133   3.465   5.280   4.889 -2.4703  2.1939  1.1842
 2324SOL     OW 8134   2.739   6.263   5.737 -0.5381  0.0771 -1.0813
 2324SOL    HW1 8135   2.797   6.286   5.664 -1.0962  0.0490 -1.5416
 2324SOL    HW2 8136   2.683   6.340   5.748  1.0846  1.0649  0.8983
 2325SOL     OW 8137   5.653   0.230   1.844 -0.9964 -0.3919 -0.3837
 2325SOL    HW1 8138   5.658   0.273   1.929  0.2688  0.7686 -1.0009
 2325SOL    HW2 8139   5.564   0.249   1.813 -1.6582 -1.3077  0.8905
 2326SOL     OW 8140   6.347   4.246   2.390 -0.5658  0.3300 -0.5360
 2326SOL    HW1 8141   6.301   4.326   2.417  0.8175  0.3991  1.8517
 2326SOL    HW2 8142   6.437   4.274   2.374  0.3042 -0.8592  1.7200
 2327SOL     OW 8143   3.660   3.033   7.138  0.3351  0.3614 -0.1800
 2327SOL    HW1 8144   3.727   3.006   7.075  1.9546 -0.2233  1.6830
 2327SOL    HW2 8145   3.680   3.125   7.156  0.5100  0.2447  0.2244
 2328SOL     OW 8146   0.555   7.092   7.712  0.4144  0.2275  0.2701
 2328SOL    HW1 8147   0.561   7.141   7.794 -1.0798  2.5297 -0.8770
 2328SOL    HW2 8148   0.576   7.156   7.644 -0.5496 -1.0032 -1.2740
 2329SOL     OW 8149   6.981   0.990   7.924  0.3563 -0.2100 -0.5117
 2329SOL    HW1 8150   6.894   1.020   7.898 -0.1404 -1.0346  0.1532
 2329SOL    HW2 8151   7.034   1.069   7.930 -1.0374  0.6287  1.7034
 2330SOL     OW 8152   4.034   6.812   7.503  0.4134 -0.6848  0.2347
 2330SOL    HW1 8153   4.081   6.739   7.544 -0.8095 -1.8565 -0.3366
 2330SOL    HW2 8154   3.965   6.834   7.565 -0.6234 -1.5734 -0.5736
 2331SOL     OW 8155   4.522   4.744   2.524 -0.0874 -0.3744 -0.0079
 2331SOL    HW1 8156   4.597   4.791   2.559 -0.8743  1.5745 -0.7526
 2331SOL    HW2 8157   4.461   4.737   2.598 -0.7168  1.5209 -0.2694
 2332SOL     OW 8158   0.910   8.298   4.891 -0.1269  0.2347 -0.1996
 2332SOL    HW1 8159   0.856   8.360   4.844 -1.4861 -1.7742 -1.4512
 2332SOL    HW2 8160   0.998   8.311   4.857 -0.5368  0.9366 -1.0207
 2333SOL     OW 8161   2.227   6.050   0.628  1.1751 -0.1065 -0.7744
 2333SOL    HW1 8162   2.304   6.065   0.574  1.7515 -0.5997 -0.1031
 2333SOL    HW2 8163   2.154   6.049   0.566  1.9683 -2.1665 -1.7490
 2334SOL     OW 8164   5.619   8.840   3.925 -0.3677  0.6247 -0.3162
 2334SOL    HW1 8165   5.695   8.818   3.871 -0.2014  1.4199 -0.4156
 2334SOL    HW2 8166   5.558   8.768   3.910 -0.3776  0.8973 -1.6719
 2335SOL     OW 8167   6.996   0.324   5.981  0.0641  0.3151  0.6224
 2335SOL    HW1 8168   6.934   0.377   6.030  2.3695  3.0439  0.9067
 2335SOL    HW2 8169   7.022   0.381   5.908 -0.0928 -1.9766 -1.3297
 2336SOL     OW 8170   8.105   1.022   4.103 -0.8931  0.4964  0.4969
 2336SOL    HW1 8171   8.154   1.015   4.185 -2.4492 -0.4864  1.4053
 2336SOL    HW2 8172   8.146   1.094   4.056  2.3105 -1.1508  0.5340
 2337SOL     OW 8173   3.980   6.446   8.768 -0.2801  0.0365 -0.2174
 2337SOL    HW1 8174   4.039   6.411   8.835 -0.0201  0.0512 -0.4347
 2337SOL    HW2 8175   4.010   6.536   8.755  0.8700 -0.5133 -1.6656
 2338SOL     OW 8176   2.794   8.431   3.424 -0.3725 -0.1353  0.0911
 2338SOL    HW1 8177   2.820   8.369   3.356 -1.1943  1.0383 -1.3623
 2338SOL    HW2 8178   2.876   8.453   3.469  0.6323  0.7266 -1.9891
 2339SOL     OW 8179   3.502   0.497   3.262 -0.2156 -0.3168 -0.0651
 2339SOL    HW1 8180   3.477   0.452   3.342  1.2591  0.7857  1.0881
 2339SOL    HW2 8181   3.475   0.588   3.276 -1.0074 -0.3404 -1.3367
 2340SOL     OW 8182   8.378   6.949   0.418 -0.1728 -0.0545  0.4367
 2340SOL    HW1 8183   8.303   6.959   0.476  0.7479 -0.9929  1.8575
 2340SOL    HW2 8184   8.416   6.865   0.442  0.4936 -0.2994 -1.2805
 2341SOL     OW 8185   8.451   5.561   5.002 -0.1867  0.6349  0.7939
 2341SOL    HW1 8186   8.521   5.521   4.949 -0.2971 -0.4157  1.4103
 2341SOL    HW2 8187   8.477   5.652   5.010  0.4129  0.5674 -0.1292
 2342SOL     OW 8188   7.442   2.470   6.986 -0.3452 -0.8332 -0.6876
 2342SOL    HW1 8189   7.511   2.524   6.948 -0.9199 -1.7752 -3.2545
 2342SOL    HW2 8190   7.464   2.465   7.079  0.7555  2.2036 -0.6714
 2343SOL     OW 8191   3.569   3.181   3.101 -0.1354  0.2160  0.0613
 2343SOL    HW1 8192   3.504   3.114   3.121 -1.6764  1.9011  0.9561
 2343SOL    HW2 8193   3.625   3.183   3.179 -0.3600  0.2738  0.2232
 2344SOL     OW 8194   1.903   7.309   2.526 -0.2962  0.5538 -0.2915
 2344SOL    HW1 8195   1.892   7.234   2.467 -1.3785  0.7941 -0.4291
 2344SOL    HW2 8196   1.816   7.324   2.562  0.0049  1.4491  0.1011
 2345SOL     OW 8197   7.037   1.336   8.125  0.3632 -0.4526 -0.3049
 2345SOL    HW1 8198   7.104   1.270   8.110  1.3990  0.7340 -1.0768
 2345SOL    HW2 8199   7.000   1.353   8.038 -1.1815 -1.2810  0.1346
 2346SOL     OW 8200   0.351   5.649   7.774 -0.1788  0.3189 -0.2519
 2346SOL    HW1 8201   0.378   5.722   7.830 -1.3561 -0.0292  0.8223
 2346SOL    HW2 8202   0.321   5.691   7.694  0.3571  0.9174 -0.1535
 2347SOL     OW 8203   0.049   8.655   7.158  0.5906  0.3207  0.0933
 2347SOL    HW1 8204  -0.037   8.630   7.125  0.5953 -1.5613  1.4077
 2347SOL    HW2 8205   0.035   8.675   7.250  1.5364  0.1121  0.2931
 2348SOL     OW 8206   6.339   7.503   5.012 -0.0182 -0.5418  0.3309
 2348SOL    HW1 8207   6.332   7.422   4.960 -0.9689 -0.1238 -0.2235
 2348SOL    HW2 8208   6.257   7.507   5.061  0.2403 -0.1647  0.7404
 2349SOL     OW 8209   1.029   1.517   3.743 -0.4052  0.1976  0.3323
 2349SOL    HW1 8210   0.988   1.465   3.674 -1.6844  0.0399  1.1715
 2349SOL    HW2 8211   1.014   1.467   3.823  3.0090 -0.7457  0.5129
 2350SOL     OW 8212   5.532   1.707   3.560  0.4058 -0.1090 -0.1250
 2350SOL    HW1 8213   5.531   1.798   3.588 -0.7630 -0.3592  0.7442
 2350SOL    HW2 8214   5.441   1.678   3.569  0.8839 -1.5651  0.3775
 2351SOL     OW 8215   2.558   0.268   8.683  0.7921  0.0992 -0.1083
 2351SOL    HW1 8216   2.507   0.201   8.638 -1.2651 -0.5925  2.9499
 2351SOL    HW2 8217   2.550   0.345   8.627 -1.5052 -0.7087 -1.0240
 2352SOL     OW 8218   6.365   7.359   0.511 -0.0625  0.0950  0.4319
 2352SOL    HW1 8219   6.373   7.263   0.506  1.0609  0.1016  1.4900
 2352SOL    HW2 8220   6.455   7.390   0.502 -0.6013  1.1890 -1.7252
 2353SOL     OW 8221   5.154   0.240   7.961  0.3955 -0.5119  0.3844
 2353SOL    HW1 8222   5.141   0.218   7.869  1.0482 -1.5716  0.5299
 2353SOL    HW2 8223   5.070   0.277   7.989  0.4293  0.5120 -0.8106
 2354SOL     OW 8224   0.857   5.254   8.747 -0.3093  0.2139  0.2101
 2354SOL    HW1 8225   0.881   5.316   8.678 -0.9522 -0.0609 -0.2685
 2354SOL    HW2 8226   0.938   5.209   8.768  0.0342  0.7742  0.1167
 2355SOL     OW 8227   5.541   8.636   1.501 -0.3380  0.4676  0.1129
 2355SOL    HW1 8228   5.478   8.581   1.455 -0.6089  0.1757  0.8271
 2355SOL    HW2 8229   5.626   8.600   1.476 -0.4276  0.9262 -0.9328
 2356SOL     OW 8230   7.460   3.866   3.745  0.2309 -0.2422  0.1356
 2356SOL    HW1 8231   7.402   3.794   3.719  0.3847  0.5385 -2.7093
 2356SOL    HW2 8232   7.452   3.870   3.840 -1.6466 -2.4312  0.1572
 2357SOL     OW 8233   8.483   7.294   5.357  0.2769  0.1700  0.0288
 2357SOL    HW1 8234   8.446   7.359   5.297  2.4356 -1.1352 -2.9476
 2357SOL    HW2 8235   8.540   7.344   5.415  1.6765  1.0543 -2.0183
 2358SOL     OW 8236   3.186   0.369   3.921 -0.7747  0.4466 -0.5951
 2358SOL    HW1 8237   3.140   0.313   3.859  0.2939 -0.0711 -0.9515
 2358SOL    HW2 8238   3.251   0.415   3.868  1.3467 -1.2812  0.3419
 2359SOL     OW 8239   0.937   5.628   5.676  0.3416 -0.5488 -0.0318
 2359SOL    HW1 8240   0.950   5.560   5.742  0.3453 -0.4322  0.0875
 2359SOL    HW2 8241   0.866   5.683   5.711  0.8129 -0.0822  0.2007
 2360SOL     OW 8242   1.166   6.146   1.860 -0.4428 -0.0021  0.0444
 2360SOL    HW1 8243   1.243   6.180   1.815  0.5755 -0.2108  1.5501
 2360SOL    HW2 8244   1.169   6.051   1.844 -0.1104 -0.0692  0.4637
 2361SOL     OW 8245   0.452   4.912   5.669 -0.4709 -0.0613 -0.2174
 2361SOL    HW1 8246   0.431   4.829   5.712  0.7466  0.4362  1.4095
 2361SOL    HW2 8247   0.415   4.979   5.726  0.8076  0.5951 -0.1205
 2362SOL     OW 8248   7.789   1.322   4.311  0.3527 -0.0813  0.1543
 2362SOL    HW1 8249   7.806   1.336   4.218 -0.0594 -0.0465  0.0829
 2362SOL    HW2 8250   7.716   1.261   4.313 -0.9654  1.4213  0.4228
 2363SOL     OW 8251   4.232   1.746   8.729 -0.2719 -0.3541 -0.2679
 2363SOL    HW1 8252   4.235   1.805   8.805  0.0187 -2.0131  1.0880
 2363SOL    HW2 8253   4.141   1.747   8.700 -0.5146 -0.1242  0.4863
 2364SOL     OW 8254   8.851   4.896   0.276 -0.0640 -0.3227 -0.3696
 2364SOL    HW1 8255   8.868   4.895   0.371 -0.7875 -0.9146 -0.2327
 2364SOL    HW2 8256   8.931   4.931   0.238  0.8661 -1.5567  0.3500
 2365SOL     OW 8257   4.588   2.580   3.020 -0.5229 -0.4814  0.1840
 2365SOL    HW1 8258   4.521   2.517   2.993 -1.1850  0.0074  0.6653
 2365SOL    HW2 8259   4.552   2.622   3.098  0.5081 -0.4710  0.6722
 2366SOL     OW 8260   4.682   5.654   3.039 -0.0795  0.1761  0.1355
 2366SOL    HW1 8261   4.762   5.679   3.087 -0.0012  1.0970 -0.4505
 2366SOL    HW2 8262   4.612   5.660   3.104  0.2194  0.0523  0.4755
 2367SOL     OW 8263   1.725   1.043   8.130 -0.6394  0.1625  0.2580
 2367SOL    HW1 8264   1.676   1.125   8.136  1.7440  1.8484 -1.3457
 2367SOL    HW2 8265   1.732   1.026   8.036 -1.4158 -2.1566  0.5619
 2368SOL     OW 8266   4.182   0.898   8.390 -0.2087  0.7970 -0.0509
 2368SOL    HW1 8267   4.231   0.946   8.457 -0.7324  0.5960  0.4854
 2368SOL    HW2 8268   4.116   0.960   8.359 -0.4555  0.6461  0.1657
 2369SOL     OW 8269   7.455   6.599   3.454  0.1180  0.0395  0.8241
 2369SOL    HW1 8270   7.467   6.520   3.400 -1.4665  0.3307 -0.0199
 2369SOL    HW2 8271   7.365   6.591   3.487 -0.8434  2.4581 -0.9540
 2370SOL     OW 8272   5.749   4.804   0.135 -0.0887  0.3659  0.4125
 2370SOL    HW1 8273   5.690   4.860   0.084 -1.4095 -2.3325 -1.2903
 2370SOL    HW2 8274   5.712   4.716   0.124  2.5811 -1.0327  1.8400
 2371SOL     OW 8275   6.735   7.870   5.031 -0.3565  0.0810 -0.2131
 2371SOL    HW1 8276   6.803   7.883   5.097 -1.7320  1.1552  1.0844
 2371SOL    HW2 8277   6.653   7.868   5.082 -1.3810 -0.1636 -1.7971
 2372SOL     OW 8278   0.494   1.610   7.716  0.3340  0.8355  0.5255
 2372SOL    HW1 8279   0.428   1.630   7.782 -1.0773 -2.9893  0.5383
 2372SOL    HW2 8280   0.466   1.657   7.638 -0.7547  1.5538  1.3298
 2373SOL     OW 8281   6.644   6.603   6.555  0.4066 -0.6570  0.0859
 2373SOL    HW1 8282   6.618   6.512   6.545  0.4451 -0.7164  0.5034
 2373SOL    HW2 8283   6.723   6.600   6.609  0.4244 -0.3774  0.0781
 2374SOL     OW 8284   2.163   4.741   7.867 -0.0420 -0.0721  0.2579
 2374SOL    HW1 8285   2.149   4.818   7.811  1.0963  1.4519  1.9510
 2374SOL    HW2 8286   2.249   4.708   7.840 -0.6861 -1.0267 -0.7170
 2375SOL     OW 8287   4.694   1.930   1.674 -0.7738  0.3966  0.1515
 2375SOL    HW1 8288   4.720   1.969   1.591  0.1938  0.6613  0.5594
 2375SOL    HW2 8289   4.617   1.979   1.701 -0.9160  0.5071 -0.4357
 2376SOL     OW 8290   2.551   5.173   3.070 -0.0687  0.1089 -0.3919
 2376SOL    HW1 8291   2.573   5.263   3.046 -0.3146  0.1034 -0.6455
 2376SOL    HW2 8292   2.461   5.161   3.040 -0.2814  0.0004  0.2734
 2377SOL     OW 8293   7.739   7.470   6.988 -0.0144 -0.4534  0.3905
 2377SOL    HW1 8294   7.659   7.438   6.945 -0.0319 -0.9250  0.7651
 2377SOL    HW2 8295   7.779   7.391   7.025  0.7210 -0.2465  0.0528
 2378SOL     OW 8296   7.117   3.492   4.132  0.0854 -0.7707  0.2016
 2378SOL    HW1 8297   7.118   3.396   4.133  2.3474 -0.8061  1.5945
 2378SOL    HW2 8298   7.073   3.517   4.214 -2.7837 -0.4904 -1.2874
 2379SOL     OW 8299   4.571   6.664   2.059  0.6308  0.1162 -0.1189
 2379SOL    HW1 8300   4.497   6.616   2.022 -0.6741  0.4916  1.8432
 2379SOL    HW2 8301   4.533   6.714   2.132  2.7692  0.5582  0.7602
 2380SOL     OW 8302   4.330   6.094   0.173  0.2678  0.4540 -0.2206
 2380SOL    HW1 8303   4.390   6.130   0.108  1.6180  0.8905  1.1811
 2380SOL    HW2 8304   4.364   6.127   0.257 -1.6279  0.2424  0.6768
 2381SOL     OW 8305   4.370   1.141   4.958  0.3636  0.4850 -0.1149
 2381SOL    HW1 8306   4.402   1.207   4.897 -1.3298  0.4649 -1.0922
 2381SOL    HW2 8307   4.314   1.189   5.019 -0.2366  0.0973 -0.3450
 2382SOL     OW 8308   1.642   2.867   2.862 -0.4205  0.3910 -0.2588
 2382SOL    HW1 8309   1.719   2.918   2.838  1.7501 -1.7852  1.5406
 2382SOL    HW2 8310   1.613   2.905   2.945  0.1613 -0.2042  0.2267
 2383SOL     OW 8311   8.340   6.986   8.513  0.0033  0.1559  0.1533
 2383SOL    HW1 8312   8.391   7.066   8.522 -1.9880  1.8371 -2.2448
 2383SOL    HW2 8313   8.404   6.915   8.524  1.8324  1.9870  2.3357
 2384SOL     OW 8314   5.632   8.535   3.461  0.6349 -0.4132 -0.4489
 2384SOL    HW1 8315   5.597   8.612   3.505  2.8368  0.3593  0.0563
 2384SOL    HW2 8316   5.597   8.461   3.511 -0.0031  0.3084  0.2070
 2385SOL     OW 8317   0.696   3.615   1.811 -0.4705 -0.0501 -0.3796
 2385SOL    HW1 8318   0.670   3.700   1.848  3.3350  1.1990 -0.1567
 2385SOL    HW2 8319   0.689   3.627   1.717  1.0043  0.9506 -0.3962
 2386SOL     OW 8320   8.814   8.612   4.866  0.5091  0.2694 -0.2135
 2386SOL    HW1 8321   8.733   8.660   4.846  0.7340  0.0641 -1.7651
 2386SOL    HW2 8322   8.786   8.521   4.876  0.7458 -0.2218 -3.0449
 2387SOL     OW 8323   2.691   7.000   5.123  0.1199 -0.2217 -0.3584
 2387SOL    HW1 8324   2.738   7.025   5.203 -1.1428  2.6624 -0.3973
 2387SOL    HW2 8325   2.761   6.975   5.062  1.3699  0.6114  0.6575
 2388SOL     OW 8326   5.592   3.307   5.798  0.1367  1.1221  0.5522
 2388SOL    HW1 8327   5.516   3.297   5.741  1.5360  0.4433 -1.2748
 2388SOL    HW2 8328   5.606   3.220   5.836  0.6818  0.9321 -0.0573
 2389SOL     OW 8329   0.582   8.247   3.660  0.7365  0.3811  0.0509
 2389SOL    HW1 8330   0.509   8.207   3.612 -0.9579  0.6863  2.2533
 2389SOL    HW2 8331   0.559   8.339   3.666  1.7520  0.6482  0.0516
 2390SOL     OW 8332   8.370   4.052   5.118 -0.0190 -0.0469  0.2053
 2390SOL    HW1 8333   8.371   4.141   5.154 -0.0143  0.7280 -1.6061
 2390SOL    HW2 8334   8.288   4.014   5.149 -1.4367  1.6278 -1.3105
 2391SOL     OW 8335   6.530   6.898   7.509 -0.1240 -0.2514  0.2965
 2391SOL    HW1 8336   6.579   6.821   7.537  0.9397  0.4771  0.4844
 2391SOL    HW2 8337   6.442   6.885   7.544 -0.2545 -1.8620 -0.5373
 2392SOL     OW 8338   5.621   3.046   2.429  0.5891 -0.1065 -0.1245
 2392SOL    HW1 8339   5.548   3.107   2.439  1.6415  1.2284 -0.3507
 2392SOL    HW2 8340   5.654   3.062   2.341  1.0102 -0.8586 -0.1087
 2393SOL     OW 8341   4.106   2.175   6.194 -0.5605  0.2974  0.2455
 2393SOL    HW1 8342   4.112   2.135   6.108  1.2240 -2.0415  1.3539
 2393SOL    HW2 8343   4.028   2.136   6.234 -0.4867  0.1722  0.2665
 2394SOL     OW 8344   4.900   2.591   4.204  0.2964 -0.5759  0.1259
 2394SOL    HW1 8345   4.880   2.539   4.282  2.6926 -2.4277 -0.3761
 2394SOL    HW2 8346   4.988   2.624   4.219  1.6575 -2.5941 -2.4780
 2395SOL     OW 8347   3.179   0.315   6.970  0.0068 -0.2424  0.4028
 2395SOL    HW1 8348   3.150   0.405   6.952 -0.9752 -0.4602  0.8724
 2395SOL    HW2 8349   3.196   0.314   7.064 -1.8833 -1.0711  0.7609
 2396SOL     OW 8350   4.629   6.693   8.620 -0.2163  0.3473  0.0977
 2396SOL    HW1 8351   4.550   6.681   8.567 -0.3433 -0.7491  0.5202
 2396SOL    HW2 8352   4.597   6.701   8.710  0.1794 -0.7599  0.3542
 2397SOL     OW 8353   2.098   5.750   5.045 -0.0390  0.4552 -0.2386
 2397SOL    HW1 8354   2.151   5.750   4.965  0.8153 -0.4847  0.3003
 2397SOL    HW2 8355   2.137   5.818   5.099  1.2685 -0.8779  0.5457
 2398SOL     OW 8356   8.599   2.348   8.003 -0.0097  0.3066 -0.3133
 2398SOL    HW1 8357   8.671   2.290   7.980 -0.4359 -0.4872  0.2939
 2398SOL    HW2 8358   8.550   2.360   7.921 -1.3908 -2.3096  0.0356
 2399SOL     OW 8359   7.537   5.338   1.996  0.3064  0.2782  0.3100
 2399SOL    HW1 8360   7.560   5.429   2.016 -1.6254  0.7077  0.8152
 2399SOL    HW2 8361   7.512   5.301   2.081 -1.5333  0.1104 -0.2632
 2400SOL     OW 8362   2.046   4.713   4.064 -0.2442 -0.2276  0.1919
 2400SOL    HW1 8363   1.951   4.713   4.074 -0.4175 -1.0947 -1.1712
 2400SOL    HW2 8364   2.060   4.708   3.969  1.1664  2.4463  0.1406
 2401SOL     OW 8365   4.043   3.619   5.513 -0.3039  0.0535 -0.1069
 2401SOL    HW1 8366   3.984   3.546   5.496 -0.8261  0.6007 -0.7033
 2401SOL    HW2 8367   4.127   3.577   5.534  0.1474 -0.7623 -3.0182
 2402SOL     OW 8368   1.341   2.673   0.783  0.2580  0.0542 -0.1781
 2402SOL    HW1 8369   1.292   2.633   0.711  1.0640 -1.2671 -0.0405
 2402SOL    HW2 8370   1.374   2.598   0.833 -2.3601  0.8749  3.0697
 2403SOL     OW 8371   2.106   7.700   7.655 -0.0061  0.0657  0.3588
 2403SOL    HW1 8372   2.035   7.644   7.624 -1.6233  1.2743  1.6933
 2403SOL    HW2 8373   2.164   7.642   7.703 -1.1790 -0.6271  0.9736
 2404SOL     OW 8374   8.607   7.883   8.297  0.6013 -0.1550 -0.4098
 2404SOL    HW1 8375   8.553   7.846   8.366 -0.6125 -1.4812 -1.9796
 2404SOL    HW2 8376   8.685   7.827   8.295  0.6234 -0.1318 -0.1280
 2405SOL     OW 8377   3.327   3.229   0.838  0.1058 -0.6078 -0.7662
 2405SOL    HW1 8378   3.258   3.184   0.887  0.8879 -0.7107  0.2707
 2405SOL    HW2 8379   3.292   3.317   0.823  0.5063  0.0055  1.5194
 2406SOL     OW 8380   0.922   3.202   0.368 -0.2487 -0.0885 -0.3858
 2406SOL    HW1 8381   1.010   3.220   0.402 -0.4305 -1.9600  1.2345
 2406SOL    HW2 8382   0.936   3.183   0.275  1.0728 -0.3825 -0.1436
 2407SOL     OW 8383   7.806   0.014   6.580 -0.2925  0.3901  0.0054
 2407SOL    HW1 8384   7.778   0.100   6.549 -0.5302 -0.1009 -1.1750
 2407SOL    HW2 8385   7.884  -0.006   6.529 -1.7250 -1.2312 -1.7204
 2408SOL     OW 8386   3.522   4.335   2.890 -0.1126 -0.0339 -0.2786
 2408SOL    HW1 8387   3.442   4.283   2.897 -0.3447  0.1449 -1.3913
 2408SOL    HW2 8388   3.553   4.345   2.981 -2.1247  1.1037  0.3392
 2409SOL     OW 8389   6.665   0.437   8.716  0.3358 -0.0082 -0.1389
 2409SOL    HW1 8390   6.726   0.444   8.789  0.0854 -1.8309  0.2749
 2409SOL    HW2 8391   6.644   0.528   8.694  1.5307  0.5990  1.0986
 2410SOL     OW 8392   6.401   3.374   8.331 -0.0165 -0.1667  0.0710
 2410SOL    HW1 8393   6.384   3.279   8.328 -1.3695  0.0449  0.2376
 2410SOL    HW2 8394   6.383   3.404   8.242  2.2349 -0.3067 -0.4905
 2411SOL     OW 8395   6.743   5.943   5.342 -0.4372  0.4107 -0.1688
 2411SOL    HW1 8396   6.770   5.900   5.423 -1.9892  1.2465  0.8263
 2411SOL    HW2 8397   6.786   6.028   5.344 -0.9521  0.6660  0.0709
 2412SOL     OW 8398   0.246   8.597   3.317  0.3325  0.1097 -0.7499
 2412SOL    HW1 8399   0.307   8.661   3.280 -1.2262  0.1944 -3.4370
 2412SOL    HW2 8400   0.246   8.615   3.411  2.4771  1.7619 -0.9830
 2413SOL     OW 8401   1.135   0.769   6.529 -0.2668 -0.1583 -0.1216
 2413SOL    HW1 8402   1.134   0.677   6.504 -1.5317  0.3754 -2.2016
 2413SOL    HW2 8403   1.205   0.775   6.594  1.6826 -2.0946 -1.8963
 2414SOL     OW 8404   1.947   4.901   4.986  0.4898 -0.0311 -0.4523
 2414SOL    HW1 8405   1.925   4.834   5.051  0.7198 -0.3150 -0.6672
 2414SOL    HW2 8406   1.868   4.908   4.932  0.3869  0.0295 -0.2958
 2415SOL     OW 8407   6.454   5.071   7.825  0.0916  0.1643 -0.3730
 2415SOL    HW1 8408   6.401   5.143   7.859 -0.1732  0.1302 -0.7089
 2415SOL    HW2 8409   6.544   5.102   7.833 -0.0418  0.7488 -0.9946
 2416SOL     OW 8410   0.522   5.933   1.657 -0.1302 -0.2588 -0.6478
 2416SOL    HW1 8411   0.580   5.962   1.586 -0.3925 -0.0300 -0.7695
 2416SOL    HW2 8412   0.505   5.841   1.638 -0.3360 -0.1546 -0.9802
 2417SOL     OW 8413   8.400   0.294   0.227 -0.0618 -0.1864 -0.3884
 2417SOL    HW1 8414   8.396   0.243   0.308 -0.1656  0.9044  0.3129
 2417SOL    HW2 8415   8.339   0.366   0.242  1.1969  0.9743 -0.7533
 2418SOL     OW 8416   7.933   7.638   6.527 -0.1794  0.1593 -0.3234
 2418SOL    HW1 8417   7.924   7.727   6.562  0.8201  0.3634 -0.5390
 2418SOL    HW2 8418   7.965   7.586   6.601  0.8240  0.3462 -0.6051
 2419SOL     OW 8419   1.193   8.345   2.545  0.2436  0.4920 -0.2304
 2419SOL    HW1 8420   1.209   8.321   2.636 -0.7711 -1.4415 -0.5075
 2419SOL    HW2 8421   1.261   8.299   2.496  0.2488  0.8088 -0.5234
 2420SOL     OW 8422   6.478   2.394   2.827  0.4290 -0.2482 -0.6663
 2420SOL    HW1 8423   6.522   2.433   2.903 -0.6568 -2.0269  0.9828
 2420SOL    HW2 8424   6.407   2.456   2.806 -0.0156 -0.3045  0.5839
 2421SOL     OW 8425   5.777   6.579   0.548  0.3824 -0.0461  0.9188
 2421SOL    HW1 8426   5.739   6.598   0.634 -3.7524 -0.9215 -0.4803
 2421SOL    HW2 8427   5.756   6.487   0.533  0.2505  0.2964 -1.3198
 2422SOL     OW 8428   0.128   4.950   8.466  0.2121  0.4005  0.1782
 2422SOL    HW1 8429   0.124   4.941   8.371  1.4651 -0.6441  0.1936
 2422SOL    HW2 8430   0.207   5.002   8.482  0.1887  0.2984  0.6431
 2423SOL     OW 8431   1.274   6.762   6.686  0.5835  0.2452 -0.6611
 2423SOL    HW1 8432   1.296   6.689   6.745  0.6941 -0.0069 -1.0080
 2423SOL    HW2 8433   1.329   6.834   6.715 -1.5849  1.1393  1.5794
 2424SOL     OW 8434   8.365   7.090   1.739 -0.2016  0.1381  0.1573
 2424SOL    HW1 8435   8.311   7.017   1.770  0.8520 -0.8833 -0.3692
 2424SOL    HW2 8436   8.333   7.165   1.789 -3.2170 -0.0684 -1.2355
 2425SOL     OW 8437   7.024   6.850   3.201 -0.0806 -0.1989  0.1153
 2425SOL    HW1 8438   6.993   6.937   3.177 -1.6716 -0.9714 -0.7869
 2425SOL    HW2 8439   6.956   6.790   3.170  0.7161 -1.7414  1.1646
 2426SOL     OW 8440   3.166   0.527   5.450  0.3725 -0.8955  0.1756
 2426SOL    HW1 8441   3.216   0.448   5.431  0.5688 -0.9163  0.7669
 2426SOL    HW2 8442   3.228   0.599   5.436  0.5347 -0.9147  0.7962
 2427SOL     OW 8443   5.371   5.410   6.338  0.2441 -0.1802 -0.1688
 2427SOL    HW1 8444   5.459   5.386   6.308 -0.2448 -2.2372 -0.1371
 2427SOL    HW2 8445   5.318   5.412   6.258 -0.4676 -2.9219  0.1325
 2428SOL     OW 8446   0.630   6.305   2.908  0.3947 -0.0864 -0.4431
 2428SOL    HW1 8447   0.600   6.312   2.818  0.5539  1.7318 -0.3979
 2428SOL    HW2 8448   0.550   6.303   2.960  0.2933  0.4475 -0.5649
 2429SOL     OW 8449   7.331   1.261   6.454 -0.4101  0.2192  0.2418
 2429SOL    HW1 8450   7.317   1.317   6.378 -0.5218 -0.4847 -0.2745
 2429SOL    HW2 8451   7.390   1.192   6.422 -1.5283 -0.8447  0.3848
 2430SOL     OW 8452   2.708   1.408   0.484 -0.8927 -0.2678  0.0248
 2430SOL    HW1 8453   2.661   1.382   0.564 -2.1607  0.0210 -0.6110
 2430SOL    HW2 8454   2.640   1.423   0.419 -0.1774  3.0957 -0.1312
 2431SOL     OW 8455   5.899   3.316   1.523 -1.0666 -0.0445 -0.0078
 2431SOL    HW1 8456   5.934   3.281   1.441  1.5381 -1.1750  1.4564
 2431SOL    HW2 8457   5.901   3.411   1.511  0.3070 -0.1553 -0.8963
 2432SOL     OW 8458   3.033   1.988   8.346 -0.2558 -0.0594  0.1943
 2432SOL    HW1 8459   3.075   2.060   8.393 -0.3295  0.5339 -0.6223
 2432SOL    HW2 8460   3.097   1.962   8.279 -1.0302  0.6508 -0.8651
 2433SOL     OW 8461   4.774   5.966   0.300 -0.1411 -0.1523  0.8523
 2433SOL    HW1 8462   4.774   6.043   0.244 -1.6887  0.7439  2.0296
 2433SOL    HW2 8463   4.866   5.940   0.305  0.2544  0.8715 -0.5394
 2434SOL     OW 8464   6.471   0.153   3.810 -0.6467  0.4721 -0.3662
 2434SOL    HW1 8465   6.515   0.091   3.869  0.6078  0.4124 -1.3097
 2434SOL    HW2 8466   6.411   0.099   3.759 -0.5499  0.2551 -0.2549
 2435SOL     OW 8467   0.579   8.440   3.926 -0.7870  0.2971 -0.1994
 2435SOL    HW1 8468   0.667   8.415   3.954 -1.1940 -1.8552 -0.6738
 2435SOL    HW2 8469   0.524   8.426   4.004 -0.8483  0.9710 -0.1105
 2436SOL     OW 8470   1.298   8.734   0.518 -0.7687  0.3447 -0.1098
 2436SOL    HW1 8471   1.222   8.676   0.523 -1.0770  0.8424  1.8569
 2436SOL    HW2 8472   1.261   8.822   0.512 -0.4488  0.7005  2.1763
 2437SOL     OW 8473   7.306   7.600   8.404  0.3251 -0.1524 -0.1670
 2437SOL    HW1 8474   7.293   7.618   8.311 -0.1614  0.1280 -0.0546
 2437SOL    HW2 8475   7.342   7.681   8.440  0.6704 -0.3172 -0.1441
 2438SOL     OW 8476   2.191   5.297   2.536  0.0321  0.9539  0.3754
 2438SOL    HW1 8477   2.122   5.332   2.592 -0.9795 -2.6056  1.6595
 2438SOL    HW2 8478   2.264   5.278   2.596  0.2225  0.2163 -0.0669
 2439SOL     OW 8479   3.206   4.336   0.860  0.1766  0.0206 -0.4946
 2439SOL    HW1 8480   3.114   4.309   0.865  0.2775 -0.3210 -0.4777
 2439SOL    HW2 8481   3.218   4.359   0.768 -0.3840  1.7184 -0.1797
 2440SOL     OW 8482   1.393   0.261   3.618 -0.2777 -0.0772  0.5205
 2440SOL    HW1 8483   1.464   0.218   3.571  0.8010  1.9185  0.2027
 2440SOL    HW2 8484   1.340   0.190   3.652  1.0258 -1.6190 -0.5250
 2441SOL     OW 8485   1.089   1.140   3.105 -0.1331  0.2167 -0.1483
 2441SOL    HW1 8486   1.079   1.079   3.178  1.1026 -0.3878 -0.4637
 2441SOL    HW2 8487   1.099   1.226   3.147 -3.2184  0.4981  0.2804
 2442SOL     OW 8488   8.045   0.372   7.422 -0.0173  0.3387 -0.0272
 2442SOL    HW1 8489   8.078   0.289   7.456 -0.0063  0.4208  0.1592
 2442SOL    HW2 8490   7.950   0.360   7.415 -0.0340  0.3667  0.1517
 2443SOL     OW 8491   1.783   4.704   4.138  0.1695  0.4613 -0.8731
 2443SOL    HW1 8492   1.803   4.675   4.227  0.5523  0.8660 -0.8204
 2443SOL    HW2 8493   1.699   4.749   4.146 -0.2010 -0.2231 -0.8737
 2444SOL     OW 8494   6.618   5.193   8.128 -0.2860 -0.0564  0.0716
 2444SOL    HW1 8495   6.706   5.171   8.097 -0.0751 -0.8325  1.1637
 2444SOL    HW2 8496   6.563   5.120   8.098 -0.3475 -0.1005  0.2878
 2445SOL     OW 8497   8.713   4.455   8.092 -0.0799  0.1445 -0.4576
 2445SOL    HW1 8498   8.751   4.534   8.055 -0.0072  0.7144  0.7732
 2445SOL    HW2 8499   8.786   4.411   8.136 -0.5816  0.6834  0.9760
 2446SOL     OW 8500   5.700   5.744   4.915 -0.0023 -0.1046 -0.4417
 2446SOL    HW1 8501   5.745   5.758   4.998  0.3393  0.0807 -0.6586
 2446SOL    HW2 8502   5.681   5.832   4.883  0.1369 -0.1706 -0.7068
 2447SOL     OW 8503   1.352   7.982   4.648 -0.0673  0.5461 -0.0570
 2447SOL    HW1 8504   1.290   8.035   4.697 -0.0089  1.0012 -0.4711
 2447SOL    HW2 8505   1.409   7.944   4.715 -1.0434 -0.2208  0.3654
 2448SOL     OW 8506   6.839   4.907   5.698 -0.2793  0.1449 -0.5349
 2448SOL    HW1 8507   6.861   4.998   5.719  0.1878  0.2515 -1.4081
 2448SOL    HW2 8508   6.788   4.876   5.773 -0.2661  1.0613 -0.1347
 2449SOL     OW 8509   2.952   2.982   8.135 -0.0436 -0.2518 -0.3977
 2449SOL    HW1 8510   3.015   3.051   8.114  0.8609 -0.2918  1.9290
 2449SOL    HW2 8511   2.999   2.924   8.194 -1.4023 -1.8556 -0.8047
 2450SOL     OW 8512   1.284   7.487   5.655 -0.0094  0.7431  0.0852
 2450SOL    HW1 8513   1.198   7.449   5.669 -1.0196  2.9135  0.1571
 2450SOL    HW2 8514   1.284   7.513   5.562  1.1909 -0.6343 -0.3344
 2451SOL     OW 8515   5.885   6.003   3.299 -0.1270 -0.8475  0.1219
 2451SOL    HW1 8516   5.807   6.029   3.249  0.6945  0.7497 -0.3944
 2451SOL    HW2 8517   5.871   6.040   3.386 -0.3258 -1.3063  0.2886
 2452SOL     OW 8518   6.005   8.860   8.169 -0.0439  0.6446  0.0581
 2452SOL    HW1 8519   6.024   8.941   8.122 -1.2504  2.0861  1.9000
 2452SOL    HW2 8520   5.947   8.811   8.110  0.6167  1.1403 -1.0350
 2453SOL     OW 8521   2.377   6.074   1.230 -0.8891 -0.1123 -0.1038
 2453SOL    HW1 8522   2.304   6.130   1.203 -1.6867 -1.2569 -0.3955
 2453SOL    HW2 8523   2.449   6.135   1.248 -1.5568  0.9528 -0.9501
 2454SOL     OW 8524   7.296   2.397   3.041  0.5114  0.0687  0.7763
 2454SOL    HW1 8525   7.307   2.317   3.092 -2.5673 -0.5795  0.5789
 2454SOL    HW2 8526   7.205   2.397   3.013 -0.0141  4.2459  1.7373
 2455SOL     OW 8527   5.781   6.523   5.428 -0.1385  0.1283  0.3754
 2455SOL    HW1 8528   5.738   6.606   5.408 -0.3999  0.1851  1.1201
 2455SOL    HW2 8529   5.861   6.524   5.376 -0.1633  0.8283  0.3375
 2456SOL     OW 8530   1.192   8.601   6.996 -0.3179  0.2775 -0.0452
 2456SOL    HW1 8531   1.258   8.588   6.928 -0.9168  0.5417 -0.6930
 2456SOL    HW2 8532   1.141   8.677   6.966 -0.1427  0.8653  1.0637
 2457SOL     OW 8533   4.879   4.794   6.280  0.3893  0.0298  0.0719
 2457SOL    HW1 8534   4.972   4.815   6.288  0.5042 -1.0418  2.3306
 2457SOL    HW2 8535   4.834   4.875   6.301  0.8029  0.3814 -0.3692
 2458SOL     OW 8536   4.775   1.148   3.780 -0.1119 -0.0523 -0.5022
 2458SOL    HW1 8537   4.831   1.169   3.705  1.1714  0.2628  0.4997
 2458SOL    HW2 8538   4.688   1.133   3.742  0.2001  1.3898 -1.9093
 2459SOL     OW 8539   4.097   8.148   6.688  0.4338 -0.4309 -0.8527
 2459SOL    HW1 8540   4.057   8.067   6.719  0.7842  0.0592  1.0221
 2459SOL    HW2 8541   4.167   8.120   6.628  1.9944 -1.6870  1.4116
 2460SOL     OW 8542   7.538   6.097   2.018 -0.0776 -0.1585  1.0500
 2460SOL    HW1 8543   7.592   6.167   2.054 -0.4217  0.4297  0.4419
 2460SOL    HW2 8544   7.525   6.036   2.091  1.3639 -0.2964  1.2229
 2461SOL     OW 8545   5.694   5.436   6.003  0.2192  0.1022  0.3637
 2461SOL    HW1 8546   5.692   5.482   5.919 -0.2817  0.7455  0.7209
 2461SOL    HW2 8547   5.670   5.346   5.981  0.4862  0.1687 -0.2370
 2462SOL     OW 8548   6.763   1.736   2.021 -0.6251 -0.2668 -0.4811
 2462SOL    HW1 8549   6.709   1.659   2.036 -1.6183  0.5856  0.5152
 2462SOL    HW2 8550   6.738   1.797   2.091  1.7446  0.1212  0.1387
 2463SOL     OW 8551   7.629   1.263   5.106  0.3624  0.4659  0.2140
 2463SOL    HW1 8552   7.675   1.183   5.132 -1.2572 -0.8616 -0.8130
 2463SOL    HW2 8553   7.539   1.236   5.091  0.2052  1.9824 -2.3164
 2464SOL     OW 8554   5.519   1.447   6.819  0.2298 -0.2952  0.1730
 2464SOL    HW1 8555   5.604   1.410   6.798  1.9386  1.8205  2.7755
 2464SOL    HW2 8556   5.457   1.394   6.770  3.0631 -1.3006 -2.6331
 2465SOL     OW 8557   3.178   8.173   3.691  0.1854 -0.5704 -0.3587
 2465SOL    HW1 8558   3.242   8.104   3.669 -0.6080 -0.6756 -2.5137
 2465SOL    HW2 8559   3.218   8.219   3.765  1.5641 -2.2290  0.0024
 2466SOL     OW 8560   4.854   0.271   4.133  0.0107 -0.6757 -0.0273
 2466SOL    HW1 8561   4.839   0.184   4.095 -2.2675 -0.5778  0.5462
 2466SOL    HW2 8562   4.947   0.269   4.158  0.0475 -2.9084 -0.0746
 2467SOL     OW 8563   1.934   6.882   0.384 -0.1515 -0.2494 -0.4092
 2467SOL    HW1 8564   2.013   6.920   0.345 -0.2079 -1.7885 -2.1360
 2467SOL    HW2 8565   1.941   6.903   0.477  1.9922  0.1596 -0.6139
 2468SOL     OW 8566   6.742   4.857   1.589  0.3063 -0.0971  0.0557
 2468SOL    HW1 8567   6.799   4.823   1.520 -0.6808 -0.0950 -0.7822
 2468SOL    HW2 8568   6.655   4.826   1.566 -0.0174 -0.2635  1.4212
 2469SOL     OW 8569   4.652   4.009   3.548  0.2742  0.2723  0.1047
 2469SOL    HW1 8570   4.579   4.065   3.523  0.5791  0.7648  0.2966
 2469SOL    HW2 8571   4.675   3.962   3.468  0.5463  1.0327 -0.2726
 2470SOL     OW 8572   8.306   6.515   0.407  0.3167  0.1060  0.0537
 2470SOL    HW1 8573   8.326   6.506   0.314 -1.8147 -1.8535 -0.2914
 2470SOL    HW2 8574   8.385   6.484   0.451  1.3208  0.9712 -1.0486
 2471SOL     OW 8575   4.646   8.134   0.993 -0.0062 -0.1758  0.5605
 2471SOL    HW1 8576   4.607   8.093   1.070 -0.3099 -0.7852  0.0863
 2471SOL    HW2 8577   4.686   8.214   1.027  0.8131 -0.9748  1.5406
 2472SOL     OW 8578   6.466   5.563   1.856  0.2657 -0.3252  0.5572
 2472SOL    HW1 8579   6.420   5.561   1.939  0.6942  0.5318  0.8243
 2472SOL    HW2 8580   6.448   5.650   1.820  0.9139 -0.3141  0.2395
 2473SOL     OW 8581   2.357   0.431   4.298  0.3103 -0.1486 -0.2019
 2473SOL    HW1 8582   2.307   0.480   4.232 -0.5441 -0.3745  0.2631
 2473SOL    HW2 8583   2.411   0.498   4.340 -0.2365  0.2640 -0.1346
 2474SOL     OW 8584   7.479   8.238   3.103  0.1733  0.1462 -0.0328
 2474SOL    HW1 8585   7.569   8.226   3.131 -0.0092  0.3729  0.6783
 2474SOL    HW2 8586   7.470   8.332   3.086 -0.4999  0.4929  2.0216
 2475SOL     OW 8587   6.332   3.455   3.748 -0.0532 -0.2897 -0.3974
 2475SOL    HW1 8588   6.416   3.500   3.737 -0.2139 -0.0236 -0.5616
 2475SOL    HW2 8589   6.313   3.461   3.841  0.1635 -0.4458 -0.3428
 2476SOL     OW 8590   6.290   7.290   1.092  0.5060  0.2209  0.0925
 2476SOL    HW1 8591   6.354   7.361   1.096  1.4832 -0.6821  1.9787
 2476SOL    HW2 8592   6.211   7.327   1.132  0.7391  0.4929  0.3056
 2477SOL     OW 8593   5.809   4.735   7.700 -0.5299 -0.0030  0.4441
 2477SOL    HW1 8594   5.744   4.702   7.761 -2.1517  1.6928 -0.2594
 2477SOL    HW2 8595   5.760   4.796   7.643  1.5246  0.8185 -0.5594
 2478SOL     OW 8596   3.831   6.527   5.810 -0.0326  0.3175 -0.7171
 2478SOL    HW1 8597   3.921   6.519   5.777  0.3665  1.3943  0.0674
 2478SOL    HW2 8598   3.820   6.620   5.830 -0.2671 -0.2052  2.0511
 2479SOL     OW 8599   0.696   6.445   5.823 -0.6954 -0.0823 -0.0809
 2479SOL    HW1 8600   0.672   6.507   5.892  0.6180  0.7620 -0.3411
 2479SOL    HW2 8601   0.780   6.408   5.852 -1.5109 -1.8784  0.1338
 2480SOL     OW 8602   8.266   8.682   3.288 -0.3772 -0.1811 -0.1077
 2480SOL    HW1 8603   8.246   8.682   3.382  0.7628 -2.2827  0.1926
 2480SOL    HW2 8604   8.183   8.659   3.246 -0.6287 -0.3242  0.4632
 2481SOL     OW 8605   8.318   5.732   2.820  0.3437  0.6052  0.0618
 2481SOL    HW1 8606   8.392   5.786   2.794  0.5570 -0.0194 -0.6747
 2481SOL    HW2 8607   8.346   5.642   2.802 -0.8616  0.3985 -0.9455
 2482SOL     OW 8608   8.305   1.499   1.744  0.0597 -0.7654 -0.1823
 2482SOL    HW1 8609   8.245   1.493   1.818 -2.5565  1.1254 -1.9136
 2482SOL    HW2 8610   8.273   1.433   1.682  0.5798 -0.5934 -0.6411
 2483SOL     OW 8611   4.295   6.420   2.185  0.4210  0.3369 -0.2690
 2483SOL    HW1 8612   4.285   6.488   2.252  0.8022  0.4871 -0.3598
 2483SOL    HW2 8613   4.232   6.352   2.210 -0.6514  1.1396 -0.7169
 2484SOL     OW 8614   3.059   1.786   6.001 -0.1758 -0.0126  0.0763
 2484SOL    HW1 8615   2.988   1.766   6.062 -0.9748 -0.9843 -1.1434
 2484SOL    HW2 8616   3.137   1.750   6.044 -0.7479 -0.8277  0.4463
 2485SOL     OW 8617   1.183   2.038   3.613  0.1801  0.4217  0.3385
 2485SOL    HW1 8618   1.092   2.068   3.624 -0.3056 -0.3047 -1.4073
 2485SOL    HW2 8619   1.189   1.960   3.668 -0.4117  0.2094  0.1185
 2486SOL     OW 8620   7.996   5.649   7.624 -0.4747 -0.7420  0.0796
 2486SOL    HW1 8621   8.077   5.616   7.662  0.6706  1.9530  0.2015
 2486SOL    HW2 8622   7.955   5.699   7.694 -1.3200 -0.5449 -0.5351
 2487SOL     OW 8623   7.696   2.133   7.633 -0.1421  0.1857  0.3096
 2487SOL    HW1 8624   7.629   2.146   7.699 -1.4755 -0.0391 -0.9437
 2487SOL    HW2 8625   7.677   2.199   7.566  1.1456  0.3839  0.1040
 2488SOL     OW 8626   2.255   8.860   1.929 -0.0649  0.3456  0.1714
 2488SOL    HW1 8627   2.268   8.863   1.834 -2.0600  0.8061 -0.1406
 2488SOL    HW2 8628   2.188   8.926   1.946 -0.0561 -0.0371  1.8369
 2489SOL     OW 8629   1.937   6.562   6.864  0.3641  0.2535  0.6417
 2489SOL    HW1 8630   2.028   6.533   6.854 -0.1719 -1.1893 -0.3699
 2489SOL    HW2 8631   1.888   6.482   6.876 -0.7539  1.0517  1.6047
 2490SOL     OW 8632   5.105   3.229   4.642 -0.6381  0.3452 -0.0635
 2490SOL    HW1 8633   5.138   3.178   4.716 -1.9752  0.4301  0.6086
 2490SOL    HW2 8634   5.144   3.316   4.654  1.5040 -0.3880 -1.1144
 2491SOL     OW 8635   1.045   1.294   4.830 -0.1544  0.6772 -0.1905
 2491SOL    HW1 8636   0.956   1.311   4.799 -0.4242  0.8821  0.6797
 2491SOL    HW2 8637   1.074   1.378   4.865  0.3448  0.5802 -0.3699
 2492SOL     OW 8638   1.577   3.807   3.731 -0.2574  0.4860  0.0363
 2492SOL    HW1 8639   1.616   3.895   3.733 -1.1808  0.9068  1.7980
 2492SOL    HW2 8640   1.502   3.816   3.673 -0.7525  1.0615  0.7491
 2493SOL     OW 8641   4.126   1.881   5.486  0.1900 -0.1705  0.7033
 2493SOL    HW1 8642   4.120   1.847   5.576  1.5948  1.0340  1.2952
 2493SOL    HW2 8643   4.178   1.960   5.494 -1.0612  0.8795 -0.9652
 2494SOL     OW 8644   4.176   0.260   7.230 -0.0300 -0.1602  0.0301
 2494SOL    HW1 8645   4.267   0.246   7.202  0.1090  0.0416  0.3793
 2494SOL    HW2 8646   4.151   0.342   7.188 -0.2510 -0.5152 -0.5492
 2495SOL     OW 8647   1.787   2.781   0.093  0.4851 -0.2373  0.6035
 2495SOL    HW1 8648   1.853   2.714   0.079  1.1511  0.2159  1.5080
 2495SOL    HW2 8649   1.703   2.736   0.082  0.9203 -1.2570  1.3706
 2496SOL     OW 8650   3.396   4.365   6.212  0.3768 -0.1213 -0.6268
 2496SOL    HW1 8651   3.446   4.335   6.136 -0.6491 -0.7515 -1.0844
 2496SOL    HW2 8652   3.354   4.446   6.183 -0.2754 -0.5323 -0.8631
 2497SOL     OW 8653   2.121   5.515   4.599 -0.5270  0.6242  0.0100
 2497SOL    HW1 8654   2.151   5.424   4.588  1.1221  0.6742  3.0964
 2497SOL    HW2 8655   2.048   5.523   4.538 -0.9691 -2.8911 -0.1475
 2498SOL     OW 8656   4.957   8.777   7.924  0.2727  0.0352  0.2241
 2498SOL    HW1 8657   4.888   8.796   7.988 -0.4958 -0.8366 -0.3185
 2498SOL    HW2 8658   4.930   8.822   7.845  1.1322  0.9608  0.4505
 2499SOL     OW 8659   0.346   6.600   0.314  0.1955 -0.3049 -0.0941
 2499SOL    HW1 8660   0.262   6.574   0.353  0.5215 -1.1659  0.0513
 2499SOL    HW2 8661   0.347   6.695   0.322  0.3729 -0.4381  2.2845
 2500SOL     OW 8662   1.876   7.342   3.803  0.4003 -0.6355  0.8286
 2500SOL    HW1 8663   1.957   7.298   3.832  0.3880 -2.2789 -1.3975
 2500SOL    HW2 8664   1.806   7.290   3.843  0.4115 -0.6919  0.7744
 2501SOL     OW 8665   4.671   0.470   7.238 -0.7548  0.2859 -0.0928
 2501SOL    HW1 8666   4.607   0.534   7.206  0.9793  1.8331 -0.6437
 2501SOL    HW2 8667   4.748   0.522   7.261  0.8173 -1.6023 -0.7535
 2502SOL     OW 8668   0.385   6.540   3.515 -0.4045  0.1105 -0.2996
 2502SOL    HW1 8669   0.361   6.609   3.577  1.0588  0.6925 -0.3142
 2502SOL    HW2 8670   0.335   6.464   3.542 -2.5584  1.3296 -0.6650
 2503SOL     OW 8671   2.702   3.657   6.050  0.5009 -0.3168  0.7606
 2503SOL    HW1 8672   2.734   3.608   6.126 -0.4371  1.3049  2.3045
 2503SOL    HW2 8673   2.740   3.744   6.061  0.3794 -0.0585 -0.6946
 2504SOL     OW 8674   8.231   7.148   2.617  0.2789  0.6054  0.2337
 2504SOL    HW1 8675   8.260   7.240   2.621  0.1315  0.6238  1.2528
 2504SOL    HW2 8676   8.224   7.122   2.709  2.1038 -0.9982 -0.0317
 2505SOL     OW 8677   2.308   0.096   8.580  0.2722 -0.5868  0.2846
 2505SOL    HW1 8678   2.245   0.048   8.526  2.0373 -0.5252 -1.9696
 2505SOL    HW2 8679   2.349   0.029   8.634 -0.0475 -1.0093  0.0133
 2506SOL     OW 8680   4.974   8.081   4.485 -0.0380 -0.2484 -0.8172
 2506SOL    HW1 8681   4.987   8.058   4.577  0.7432  1.1559 -0.5620
 2506SOL    HW2 8682   5.021   8.163   4.473 -0.6898 -0.0604 -2.3154
 2507SOL     OW 8683   7.016   0.579   4.105 -0.1779 -0.1682 -0.2294
 2507SOL    HW1 8684   7.069   0.658   4.117 -0.5897 -0.0344  0.7959
 2507SOL    HW2 8685   7.061   0.530   4.036 -0.0389  1.0601 -1.0261
 2508SOL     OW 8686   3.680   0.297   3.616  0.2268  0.0666  0.7529
 2508SOL    HW1 8687   3.649   0.267   3.701 -0.1152 -2.3987 -0.1546
 2508SOL    HW2 8688   3.720   0.219   3.576  0.4874  1.1706 -1.2897
 2509SOL     OW 8689   5.681   4.841   4.101  0.3205  0.1880 -0.0285
 2509SOL    HW1 8690   5.766   4.807   4.071  0.1729 -0.1226 -0.1020
 2509SOL    HW2 8691   5.617   4.782   4.061  0.1763 -1.2180  2.1632
 2510SOL     OW 8692   3.983   2.268   3.213 -0.0633  0.1597 -0.2573
 2510SOL    HW1 8693   3.925   2.331   3.255  1.3541  0.2174  1.7428
 2510SOL    HW2 8694   3.958   2.183   3.251  1.3954  0.2455  0.9870
 2511SOL     OW 8695   2.779   5.130   2.325 -0.1230  0.9063 -0.3892
 2511SOL    HW1 8696   2.685   5.116   2.334  0.1889 -1.4997 -0.1681
 2511SOL    HW2 8697   2.813   5.126   2.414  0.3866 -0.2906 -0.6152
 2512SOL     OW 8698   0.146   0.110   6.080  0.2679  0.3308  0.1555
 2512SOL    HW1 8699   0.177   0.136   6.167  0.0794  2.0584 -0.2493
 2512SOL    HW2 8700   0.129   0.016   6.087  0.8029  0.3297  1.8105
 2513SOL     OW 8701   0.055   1.330   4.250  0.3596 -0.2793 -0.2837
 2513SOL    HW1 8702   0.044   1.389   4.175  0.6948 -2.2641 -1.9786
 2513SOL    HW2 8703  -0.003   1.256   4.231 -1.0631 -0.0003  2.4244
 2514SOL     OW 8704   7.532   6.954   1.598  0.0291 -0.3256 -0.2597
 2514SOL    HW1 8705   7.563   7.036   1.562 -0.3736  0.3942  0.9606
 2514SOL    HW2 8706   7.557   6.888   1.534 -2.8385  1.1126 -3.1177
 2515SOL     OW 8707   7.010   6.549   2.010 -0.2995  0.1663  0.3662
 2515SOL    HW1 8708   6.992   6.641   1.989 -0.6765 -0.3026 -1.6180
 2515SOL    HW2 8709   7.105   6.544   2.017 -0.1703  0.4533 -0.9850
 2516SOL     OW 8710   6.111   1.795   5.461 -0.5594  0.7043  0.0888
 2516SOL    HW1 8711   6.185   1.855   5.465  1.6180 -1.8194  0.1338
 2516SOL    HW2 8712   6.055   1.821   5.535  1.1837  1.5903  1.1665
 2517SOL     OW 8713   8.067   5.994   0.229 -0.1101  0.1519  0.4083
 2517SOL    HW1 8714   8.115   6.036   0.300 -0.6640  1.6446 -0.0732
 2517SOL    HW2 8715   8.024   5.918   0.271  0.8059  0.1173  1.3152
 2518SOL     OW 8716   1.224   5.326   5.491  0.5525 -0.2341 -0.2754
 2518SOL    HW1 8717   1.273   5.289   5.564 -1.1122  0.3721  1.2351
 2518SOL    HW2 8718   1.274   5.403   5.465 -0.1369  1.1298  2.0947
 2519SOL     OW 8719   0.085   7.595   7.487  0.1778 -0.7693  0.2176
 2519SOL    HW1 8720   0.095   7.546   7.569 -0.5881  0.2988  0.9765
 2519SOL    HW2 8721   0.169   7.586   7.443  0.7639 -0.9709  1.3422
 2520SOL     OW 8722   8.815   1.280   3.788  0.0349  0.1631 -1.0680
 2520SOL    HW1 8723   8.796   1.373   3.797  0.7091  0.3227 -1.2443
 2520SOL    HW2 8724   8.771   1.254   3.707  1.0815  0.6833 -1.8395
 2521SOL     OW 8725   5.956   8.467   5.481  0.0263 -0.2975 -0.9271
 2521SOL    HW1 8726   5.864   8.441   5.488  0.3343 -0.9891  1.0549
 2521SOL    HW2 8727   5.963   8.504   5.393 -1.5254 -2.6273 -2.1277
 2522SOL     OW 8728   4.621   4.165   2.060 -0.3165 -0.0273  0.3996
 2522SOL    HW1 8729   4.657   4.105   2.125  1.2097 -0.1751 -0.5387
 2522SOL    HW2 8730   4.526   4.151   2.064 -0.3592  0.4726  3.0702
 2523SOL     OW 8731   6.439   6.250   0.511  0.2967 -0.0698 -0.0593
 2523SOL    HW1 8732   6.414   6.168   0.554  1.1103  0.4309  1.4461
 2523SOL    HW2 8733   6.367   6.310   0.531  0.4625  0.0332  0.2401
 2524SOL     OW 8734   1.574   8.036   5.459 -0.2856  0.1750 -0.1610
 2524SOL    HW1 8735   1.637   7.967   5.438  0.9509  1.2446 -0.0856
 2524SOL    HW2 8736   1.623   8.098   5.512 -1.7097  0.5291  0.8054
 2525SOL     OW 8737   3.869   7.733   8.053 -0.2624 -0.6216  0.6036
 2525SOL    HW1 8738   3.857   7.638   8.058 -0.1044 -0.5847  2.7344
 2525SOL    HW2 8739   3.783   7.767   8.029 -0.9665 -1.2115  2.1118
 2526SOL     OW 8740   0.898   0.876   0.073  0.1141 -0.9292  0.0520
 2526SOL    HW1 8741   0.860   0.858   0.158 -0.8626 -1.1025 -0.4036
 2526SOL    HW2 8742   0.837   0.937   0.032  1.1161 -0.0154 -0.1243
 2527SOL     OW 8743   2.968   3.748   1.566 -0.3510  0.2931 -0.3893
 2527SOL    HW1 8744   2.910   3.812   1.524 -0.5716  1.2532  1.3114
 2527SOL    HW2 8745   2.928   3.732   1.651  0.3677 -1.2165 -0.3123
 2528SOL     OW 8746   1.039   4.377   7.539 -0.0803  0.1500  0.5398
 2528SOL    HW1 8747   1.092   4.367   7.460 -0.6777 -0.3100  0.1901
 2528SOL    HW2 8748   1.089   4.333   7.608 -0.8142 -1.8814 -0.1537
 2529SOL     OW 8749   5.652   1.868   6.314  0.5434  0.2177 -0.2883
 2529SOL    HW1 8750   5.653   1.773   6.328 -1.0654  0.0071 -1.3386
 2529SOL    HW2 8751   5.712   1.882   6.241 -1.2719 -0.3901 -1.9869
 2530SOL     OW 8752   0.902   6.424   6.201 -0.2084 -0.3790  0.0483
 2530SOL    HW1 8753   0.932   6.401   6.113  1.4077 -0.4583  0.5712
 2530SOL    HW2 8754   0.970   6.483   6.234 -0.1811 -1.2426  1.6396
 2531SOL     OW 8755   4.239   2.493   4.150  0.0514 -0.3068 -0.1402
 2531SOL    HW1 8756   4.301   2.547   4.200  0.6457 -1.6062  0.5881
 2531SOL    HW2 8757   4.168   2.475   4.213  1.1335 -2.5253  0.5415
 2532SOL     OW 8758   6.992   4.113   5.856  0.1973 -0.7620  0.2261
 2532SOL    HW1 8759   6.935   4.126   5.780 -1.3165 -1.1675  1.2478
 2532SOL    HW2 8760   7.059   4.052   5.825 -0.1469 -0.6067 -0.8950
 2533SOL     OW 8761   1.162   1.506   3.478 -0.3215 -0.2441 -0.0108
 2533SOL    HW1 8762   1.231   1.559   3.439 -1.3175  0.6412 -0.6578
 2533SOL    HW2 8763   1.095   1.569   3.504 -0.5644 -1.0088  1.3073
 2534SOL     OW 8764   3.636   4.491   2.165  0.2681  0.2922  0.4010
 2534SOL    HW1 8765   3.614   4.549   2.238  1.3268  1.7990 -0.4133
 2534SOL    HW2 8766   3.719   4.525   2.132 -0.9789  0.7784 -2.5807
 2535SOL     OW 8767   1.990   1.971   0.087 -0.0822  0.5005 -0.0621
 2535SOL    HW1 8768   1.943   1.895   0.051  0.7982 -0.2268  0.2775
 2535SOL    HW2 8769   2.008   1.947   0.178 -1.3010  1.8523  0.5843
 2536SOL     OW 8770   5.568   6.996   3.243 -0.1744 -0.0662 -0.2301
 2536SOL    HW1 8771   5.570   7.054   3.320 -0.7233  1.0045 -0.9969
 2536SOL    HW2 8772   5.551   7.055   3.169 -0.1906 -1.1476 -1.1100
 2537SOL     OW 8773   6.852   5.019   7.544 -0.0422 -0.5184  0.3898
 2537SOL    HW1 8774   6.803   5.068   7.477 -0.9534 -2.9712 -0.8764
 2537SOL    HW2 8775   6.916   5.081   7.577  1.1353  0.6336 -3.4519
 2538SOL     OW 8776   8.252   4.055   8.307  0.1992  0.6690 -0.2767
 2538SOL    HW1 8777   8.220   4.115   8.240 -1.4060  0.0284 -0.1286
 2538SOL    HW2 8778   8.235   4.099   8.389 -2.1194 -0.4024 -0.0972
 2539SOL     OW 8779   6.952   1.629   0.626 -0.3241  0.4809 -0.4292
 2539SOL    HW1 8780   6.902   1.646   0.706  0.4776  0.0973  0.1726
 2539SOL    HW2 8781   7.017   1.563   0.652 -0.8991 -0.6615 -1.7349
 2540SOL     OW 8782   1.298   6.374   6.644 -0.1686 -0.0475  0.3463
 2540SOL    HW1 8783   1.210   6.362   6.609  0.2266 -0.1367 -0.6540
 2540SOL    HW2 8784   1.348   6.411   6.571  1.0845 -1.7421  0.2732
 2541SOL     OW 8785   8.560   7.561   8.485 -0.0357 -0.0429  0.1600
 2541SOL    HW1 8786   8.464   7.557   8.476 -0.0224 -0.0820  0.0249
 2541SOL    HW2 8787   8.585   7.635   8.430 -0.2716  1.9499  2.5569
 2542SOL     OW 8788   5.995   0.609   2.425  0.1313  0.0194  0.4183
 2542SOL    HW1 8789   6.056   0.546   2.465 -0.3473 -0.0797  0.9997
 2542SOL    HW2 8790   6.050   0.684   2.402  0.6428 -0.4547  0.0530
 2543SOL     OW 8791   4.835   0.820   6.144 -0.1409  0.1315  0.3363
 2543SOL    HW1 8792   4.872   0.864   6.067  0.2559  1.0720  1.0533
 2543SOL    HW2 8793   4.740   0.832   6.134 -0.1915 -0.9160 -0.6853
 2544SOL     OW 8794   5.580   7.611   6.228  0.8125  0.3622  0.2209
 2544SOL    HW1 8795   5.586   7.653   6.142  0.1184 -0.4447 -0.2272
 2544SOL    HW2 8796   5.512   7.545   6.218  0.1090  0.8295  1.6369
 2545SOL     OW 8797   3.145   2.549   8.487  0.7660  0.0512 -1.0572
 2545SOL    HW1 8798   3.054   2.572   8.467  0.4263 -0.4268 -0.1207
 2545SOL    HW2 8799   3.138   2.470   8.540  1.5422  1.5955  1.5431
 2546SOL     OW 8800   5.442   3.704   8.686  0.4464  0.1803 -0.1367
 2546SOL    HW1 8801   5.504   3.776   8.684  1.0610 -0.3356  0.0525
 2546SOL    HW2 8802   5.488   3.633   8.732  0.0711 -0.5214 -0.8141
 2547SOL     OW 8803   0.144   7.462   8.557 -0.0396 -0.1750 -0.0058
 2547SOL    HW1 8804   0.103   7.423   8.634  0.0143 -0.2260 -0.0030
 2547SOL    HW2 8805   0.144   7.556   8.574 -1.0776 -0.0850 -0.4454
 2548SOL     OW 8806   6.998   6.810   1.288  0.3222  0.3548 -0.2373
 2548SOL    HW1 8807   6.974   6.877   1.225  0.7240  0.1108 -0.6587
 2548SOL    HW2 8808   7.082   6.839   1.323 -0.4446  1.0899  1.0639
 2549SOL     OW 8809   5.470   2.213   6.818  0.5173 -0.5370 -0.0981
 2549SOL    HW1 8810   5.480   2.167   6.901 -0.7820  0.5961  0.7281
 2549SOL    HW2 8811   5.376   2.215   6.803  0.6885 -0.0275 -1.2111
 2550SOL     OW 8812   3.522   0.768   6.243 -0.3935 -0.4640  0.0058
 2550SOL    HW1 8813   3.501   0.803   6.330  0.3439 -0.6996  0.2900
 2550SOL    HW2 8814   3.605   0.720   6.256 -0.3395 -0.6026 -0.8003
 2551SOL     OW 8815   5.908   4.146   7.195  0.8196  0.6193 -0.5590
 2551SOL    HW1 8816   5.915   4.058   7.156  2.3553  0.9678 -1.1518
 2551SOL    HW2 8817   5.917   4.205   7.120 -1.5669  1.3268 -0.3648
 2552SOL     OW 8818   3.836   5.592   2.255  0.3203  0.2227  0.5321
 2552SOL    HW1 8819   3.834   5.683   2.226  1.7707  0.0184 -0.3501
 2552SOL    HW2 8820   3.760   5.551   2.213  0.1773  0.8211  0.2020
 2553SOL     OW 8821   0.482   1.054   0.362 -0.4569  0.1431 -0.2123
 2553SOL    HW1 8822   0.508   1.140   0.396  0.6440 -0.2972  0.0918
 2553SOL    HW2 8823   0.424   1.074   0.289 -2.0773  1.1244  1.2753
 2554SOL     OW 8824   8.487   4.402   7.951 -0.0612  0.2094 -0.4646
 2554SOL    HW1 8825   8.568   4.430   7.993 -0.9203  0.9816  0.7451
 2554SOL    HW2 8826   8.515   4.351   7.875  1.5487  1.4649 -0.7545
 2555SOL     OW 8827   1.809   5.866   2.287  0.7073  0.0783 -0.0757
 2555SOL    HW1 8828   1.861   5.883   2.365  0.3630  0.5630  0.0501
 2555SOL    HW2 8829   1.823   5.943   2.231 -1.0812  0.9710  0.6203
 2556SOL     OW 8830   7.388   5.346   7.231 -0.5242 -0.3272  0.1672
 2556SOL    HW1 8831   7.383   5.263   7.182  0.0109 -0.2163 -0.0783
 2556SOL    HW2 8832   7.303   5.388   7.214 -1.0896 -1.1409  0.8753
 2557SOL     OW 8833   6.649   0.405   5.578  0.2244  0.3548  0.1730
 2557SOL    HW1 8834   6.683   0.327   5.534 -0.2246 -1.3478  2.6037
 2557SOL    HW2 8835   6.723   0.438   5.629  0.1379  0.9231 -0.0657
 2558SOL     OW 8836   2.232   5.363   0.184 -0.3208  0.5469  0.2135
 2558SOL    HW1 8837   2.151   5.413   0.190 -0.4121  0.6340 -1.4605
 2558SOL    HW2 8838   2.246   5.349   0.091  2.2095  1.5421  0.3432
 2559SOL     OW 8839   0.541   3.526   3.428  0.0683 -0.3774 -0.0815
 2559SOL    HW1 8840   0.523   3.533   3.522 -0.7340 -1.6858 -0.1126
 2559SOL    HW2 8841   0.620   3.578   3.415  0.0909 -0.0262  1.2836
 2560SOL     OW 8842   1.220   6.020   7.239 -0.3443  0.8595  0.2457
 2560SOL    HW1 8843   1.155   6.083   7.209  0.4324  1.1112 -1.0012
 2560SOL    HW2 8844   1.284   6.072   7.288  0.2703  1.0605 -0.7408
 2561SOL     OW 8845   8.124   2.978   8.726  0.2895  0.1517  0.7261
 2561SOL    HW1 8846   8.203   3.028   8.749  1.3993 -1.5194  0.7455
 2561SOL    HW2 8847   8.084   2.957   8.811  2.7795 -3.4849  1.2311
 2562SOL     OW 8848   6.955   1.297   0.682  0.4214  0.2162  0.3381
 2562SOL    HW1 8849   6.968   1.202   0.683  0.8101  0.1448 -2.3029
 2562SOL    HW2 8850   7.039   1.332   0.650 -0.3172  1.2396 -0.5696
 2563SOL     OW 8851   7.725   1.219   4.795 -0.2489 -0.2175  0.2265
 2563SOL    HW1 8852   7.787   1.291   4.806 -0.8901  0.1675  1.5093
 2563SOL    HW2 8853   7.683   1.236   4.711 -0.6449  1.1405  0.6615
 2564SOL     OW 8854   3.200   5.920   6.267  0.4013 -0.2305  0.2570
 2564SOL    HW1 8855   3.209   5.998   6.213  0.1670 -0.5262 -0.2120
 2564SOL    HW2 8856   3.282   5.915   6.315 -0.1582  1.1831  1.4662
 2565SOL     OW 8857   0.137   8.799   2.015  0.4200  0.3941 -0.1564
 2565SOL    HW1 8858   0.194   8.768   1.945  0.0940  1.0742 -0.7350
 2565SOL    HW2 8859   0.143   8.894   2.012  0.2123  0.4438  0.5877
 2566SOL     OW 8860   2.232   7.608   5.707 -0.6949 -0.1873  0.5104
 2566SOL    HW1 8861   2.219   7.656   5.789 -0.7209 -0.2392  0.5368
 2566SOL    HW2 8862   2.145   7.575   5.684 -1.0698  1.4276 -0.5433
 2567SOL     OW 8863   6.192   8.720   5.037  0.1907 -0.5225  0.4148
 2567SOL    HW1 8864   6.150   8.806   5.031  3.7602  1.4889  0.9734
 2567SOL    HW2 8865   6.162   8.684   5.121 -2.3430 -0.4859 -0.4089
 2568SOL     OW 8866   6.888   8.414   1.369  0.5588 -0.2305  0.3052
 2568SOL    HW1 8867   6.865   8.386   1.281 -0.3235 -0.1393  0.4979
 2568SOL    HW2 8868   6.825   8.483   1.390  1.1619  0.1940  0.7677
 2569SOL     OW 8869   1.738   2.254   8.240  0.3574 -0.3412 -0.7528
 2569SOL    HW1 8870   1.733   2.270   8.146 -0.7879 -1.2570 -0.8745
 2569SOL    HW2 8871   1.831   2.250   8.259  0.6016 -0.3316 -1.8877
 2570SOL     OW 8872   5.720   4.029   0.240  0.2222 -0.3194 -0.6726
 2570SOL    HW1 8873   5.698   4.052   0.331 -1.0011  0.8259 -1.2289
 2570SOL    HW2 8874   5.707   3.934   0.236 -1.9676 -0.0933 -0.2026
 2571SOL     OW 8875   5.643   0.471   7.511  0.1353  0.5675 -0.7483
 2571SOL    HW1 8876   5.721   0.443   7.462  0.5955  1.3291 -0.4820
 2571SOL    HW2 8877   5.677   0.535   7.573 -0.6580  0.6237 -0.3693
 2572SOL     OW 8878   3.473   4.548   2.703  0.2447 -0.1274  0.3274
 2572SOL    HW1 8879   3.453   4.492   2.778 -3.8792 -0.2060 -0.5900
 2572SOL    HW2 8880   3.515   4.489   2.640  1.1348 -0.7436  1.4639
 2573SOL     OW 8881   0.194   4.230   7.980  0.1713  0.1918 -0.3973
 2573SOL    HW1 8882   0.262   4.278   8.027 -0.3439  1.5048 -0.9467
 2573SOL    HW2 8883   0.130   4.207   8.047  0.9571 -0.7676  0.0664
 2574SOL     OW 8884   6.463   3.366   2.991 -0.3099 -0.4579  0.3125
 2574SOL    HW1 8885   6.513   3.308   3.048  1.5317 -2.1685 -2.8039
 2574SOL    HW2 8886   6.389   3.313   2.961 -0.3262 -0.1647 -0.1899
 2575SOL     OW 8887   3.890   4.580   6.852  0.4663 -0.3266  0.2092
 2575SOL    HW1 8888   3.909   4.538   6.768  0.8833  2.1521 -1.0372
 2575SOL    HW2 8889   3.795   4.576   6.860  0.3417  0.2023 -0.8526
 2576SOL     OW 8890   4.315   4.257   0.785 -0.2602  0.2915 -0.0588
 2576SOL    HW1 8891   4.314   4.162   0.799  0.6795  0.4757  1.5584
 2576SOL    HW2 8892   4.262   4.292   0.857  0.2152  1.0264 -0.0538
 2577SOL     OW 8893   7.884   0.453   3.006  0.4869 -0.4875 -0.1478
 2577SOL    HW1 8894   7.853   0.535   2.966  0.2464  1.1646  3.0474
 2577SOL    HW2 8895   7.976   0.448   2.981  0.3366  0.4059 -0.9501
 2578SOL     OW 8896   6.048   2.611   6.763 -0.0071  0.4409 -0.1769
 2578SOL    HW1 8897   6.067   2.517   6.769 -1.7150 -0.0826 -1.9670
 2578SOL    HW2 8898   6.098   2.650   6.835 -0.7383 -2.0651  1.8547
 2579SOL     OW 8899   2.932   5.532   0.069 -0.1149  0.4092 -0.0777
 2579SOL    HW1 8900   2.873   5.578   0.129  0.9294  0.5886  0.8430
 2579SOL    HW2 8901   2.910   5.439   0.080  0.4241  0.3964  0.9903
 2580SOL     OW 8902   4.323   2.075   4.072  0.3195 -0.3038  0.4165
 2580SOL    HW1 8903   4.319   2.166   4.045  0.5020 -0.3368  0.2748
 2580SOL    HW2 8904   4.400   2.040   4.027 -0.6938 -0.9575 -0.8511
 2581SOL     OW 8905   7.926   5.777   0.308  0.3687 -0.1058  0.0110
 2581SOL    HW1 8906   7.921   5.693   0.263 -0.0102 -0.7471  1.2070
 2581SOL    HW2 8907   7.978   5.759   0.386 -0.5722  0.5140  0.8055
 2582SOL     OW 8908   6.957   1.356   7.881 -0.2827  0.0552  0.3889
 2582SOL    HW1 8909   7.021   1.358   7.810 -0.3113 -1.8277  0.2606
 2582SOL    HW2 8910   6.872   1.357   7.837 -0.3024 -1.4007  0.3201
 2583SOL     OW 8911   8.654   2.116   1.529  0.1023 -0.0438 -0.2570
 2583SOL    HW1 8912   8.638   2.028   1.497 -0.6031  0.5934 -1.7393
 2583SOL    HW2 8913   8.632   2.173   1.455  2.8553  1.2578 -0.1996
 2584SOL     OW 8914   2.209   5.831   2.555  0.7515 -0.0902 -0.4407
 2584SOL    HW1 8915   2.166   5.881   2.625  1.0160 -1.8508  1.0710
 2584SOL    HW2 8916   2.172   5.743   2.563  0.2519 -0.1830 -3.0478
 2585SOL     OW 8917   5.362   5.400   1.025  0.4093 -0.8694  0.4171
 2585SOL    HW1 8918   5.430   5.373   0.964  0.8319  1.0291 -0.0230
 2585SOL    HW2 8919   5.288   5.343   1.006  1.1244 -1.4651 -0.6579
 2586SOL     OW 8920   5.082   1.735   0.962  0.4006 -0.7161 -0.3638
 2586SOL    HW1 8921   5.005   1.746   0.905  0.1933  0.4802  0.1203
 2586SOL    HW2 8922   5.148   1.697   0.905  0.5354  1.4102 -1.7404
 2587SOL     OW 8923   8.652   7.775   8.722 -0.2193  0.2960 -0.2642
 2587SOL    HW1 8924   8.590   7.795   8.652 -3.0614  1.5213  2.3575
 2587SOL    HW2 8925   8.673   7.860   8.761 -1.7440 -0.5015  2.6236
 2588SOL     OW 8926   7.355   5.091   4.150 -0.3851  0.4133  0.5386
 2588SOL    HW1 8927   7.420   5.022   4.139 -0.7779  0.0371  0.5547
 2588SOL    HW2 8928   7.390   5.146   4.221 -1.9447 -2.0546  3.4512
 2589SOL     OW 8929   5.625   7.262   4.874 -0.3871 -0.2777  0.2231
 2589SOL    HW1 8930   5.714   7.232   4.856 -1.0835 -2.0664 -0.4968
 2589SOL    HW2 8931   5.592   7.202   4.941 -1.5666 -0.6715 -0.6703
 2590SOL     OW 8932   7.496   1.505   4.364  0.6179 -0.2647 -0.7239
 2590SOL    HW1 8933   7.533   1.477   4.280  1.1155 -1.1844 -0.2063
 2590SOL    HW2 8934   7.402   1.489   4.355  0.9127 -2.7166 -0.2713
 2591SOL     OW 8935   5.873   7.648   6.082 -0.0284  0.1714 -0.1439
 2591SOL    HW1 8936   5.850   7.558   6.103  1.4090 -0.0722  0.4796
 2591SOL    HW2 8937   5.790   7.697   6.092 -0.5166 -0.8283  0.9406
 2592SOL     OW 8938   2.930   3.392   0.624  0.3456  0.3893  0.2008
 2592SOL    HW1 8939   2.960   3.476   0.592 -0.4141  0.4174 -0.4675
 2592SOL    HW2 8940   2.839   3.385   0.594  0.8346 -1.3186 -1.0753
 2593SOL     OW 8941   0.762   5.231   5.672  0.3403  0.1611 -0.7854
 2593SOL    HW1 8942   0.689   5.248   5.613  0.7089  2.2269 -0.6948
 2593SOL    HW2 8943   0.835   5.210   5.613  0.3318  0.7107 -0.9921
 2594SOL     OW 8944   1.383   1.492   8.813 -0.5702 -0.3860  0.3523
 2594SOL    HW1 8945   1.305   1.441   8.795 -1.4271  0.9036  0.2980
 2594SOL    HW2 8946   1.420   1.454   8.893 -2.4995  0.3611  1.6683
 2595SOL     OW 8947   3.020   2.770   2.166  0.5930  0.2122 -0.1009
 2595SOL    HW1 8948   3.089   2.807   2.221  0.6753  0.5471 -0.4216
 2595SOL    HW2 8949   3.044   2.678   2.154  0.2582 -0.0174  0.9087
 2596SOL     OW 8950   5.828   6.576   3.539 -0.1418 -0.7690 -0.5173
 2596SOL    HW1 8951   5.778   6.555   3.618  2.6402  1.3140  2.0315
 2596SOL    HW2 8952   5.841   6.492   3.496 -1.6432 -2.0119  1.2737
 2597SOL     OW 8953   3.468   5.383   6.026 -0.0936  0.0941  0.1690
 2597SOL    HW1 8954   3.500   5.425   6.106  1.1603 -1.0280  0.2816
 2597SOL    HW2 8955   3.379   5.354   6.048  0.4519 -0.7159  1.3486
 2598SOL     OW 8956   8.833   4.933   6.690  0.0736  0.2821  0.5148
 2598SOL    HW1 8957   8.854   4.933   6.783  2.0125 -0.2564  0.1405
 2598SOL    HW2 8958   8.889   4.865   6.653 -1.7815 -0.5929 -0.8492
 2599SOL     OW 8959   5.867   0.457   3.245  0.2201  0.8185  0.0092
 2599SOL    HW1 8960   5.840   0.393   3.310  1.0983  0.9195  0.4936
 2599SOL    HW2 8961   5.825   0.429   3.164  0.8467 -0.5683  0.1389
 2600SOL     OW 8962   5.134   8.015   0.490 -0.2980  0.3707  0.1614
 2600SOL    HW1 8963   5.228   8.004   0.507 -0.0379 -0.5174 -1.5950
 2600SOL    HW2 8964   5.106   8.082   0.553  1.3041  0.0106  1.3342
 2601SOL     OW 8965   1.168   2.995   5.797  0.3224 -0.8725  0.4240
 2601SOL    HW1 8966   1.150   2.907   5.762 -0.8230 -1.1285  1.5922
 2601SOL    HW2 8967   1.084   3.025   5.832  1.3152 -0.5489  2.7222
 2602SOL     OW 8968   1.992   3.870   1.344  0.0513 -0.3794 -0.8270
 2602SOL    HW1 8969   1.900   3.895   1.335 -0.3740 -0.6357  1.8601
 2602SOL    HW2 8970   2.023   3.919   1.421  2.5774  0.6569 -2.3567
 2603SOL     OW 8971   0.675   8.241   0.745  0.0421 -0.1789  0.5986
 2603SOL    HW1 8972   0.660   8.165   0.689  1.8929 -0.5219  0.5045
 2603SOL    HW2 8973   0.629   8.221   0.826  0.0055 -1.1338  0.3522
 2604SOL     OW 8974   2.263   1.414   8.325  0.2137  0.6330  0.1336
 2604SOL    HW1 8975   2.293   1.365   8.248 -0.9948 -0.7008  0.4788
 2604SOL    HW2 8976   2.168   1.415   8.317  0.0621  0.4251  1.6339
 2605SOL     OW 8977   8.772   4.019   3.787  0.6951  0.1162  0.5890
 2605SOL    HW1 8978   8.796   4.112   3.782 -2.1879  0.9333 -0.7141
 2605SOL    HW2 8979   8.686   4.020   3.829  0.5259 -1.9651  0.3728
 2606SOL     OW 8980   5.115   7.921   1.645  0.4562  0.3241  0.0145
 2606SOL    HW1 8981   5.046   7.942   1.708 -0.7277 -0.5983 -0.8953
 2606SOL    HW2 8982   5.122   8.000   1.591 -0.0852  0.3438 -0.0383
 2607SOL     OW 8983   6.689   0.457   2.197 -0.4020 -0.2854 -0.4000
 2607SOL    HW1 8984   6.666   0.480   2.288 -0.1618 -0.4554 -0.2959
 2607SOL    HW2 8985   6.779   0.425   2.203 -0.9863 -2.0443 -0.4091
 2608SOL     OW 8986   4.050   0.826   1.235  0.3420 -0.3242  0.1450
 2608SOL    HW1 8987   4.079   0.847   1.146  0.4030 -1.7434 -0.2092
 2608SOL    HW2 8988   4.131   0.824   1.286  0.5636 -1.4266 -0.2146
 2609SOL     OW 8989   8.667   0.813   8.015 -0.9843  0.7034  0.5363
 2609SOL    HW1 8990   8.746   0.834   8.065 -1.3037  2.4707  0.3520
 2609SOL    HW2 8991   8.606   0.884   8.035 -1.7700  0.4782 -0.9342
 2610SOL     OW 8992   7.467   1.205   5.456 -0.2006 -0.0029  0.2626
 2610SOL    HW1 8993   7.439   1.198   5.365  0.3199 -0.2002  0.1122
 2610SOL    HW2 8994   7.415   1.139   5.502 -1.8433  1.3660  0.4669
 2611SOL     OW 8995   0.695   1.123   2.776  0.3923 -0.6873  0.4807
 2611SOL    HW1 8996   0.775   1.174   2.764 -0.7345  1.1874  0.5274
 2611SOL    HW2 8997   0.724   1.032   2.777  2.8162  0.0020  2.7431
 2612SOL     OW 8998   3.699   2.177   7.471 -0.7920 -0.8647  0.2414
 2612SOL    HW1 8999   3.783   2.131   7.471 -1.5104 -2.2010 -0.1612
 2612SOL    HW2 9000   3.647   2.133   7.405 -1.7426  0.1199  0.3017
 2613SOL     OW 9001   5.765   2.062   0.168 -0.7667 -0.0500  0.2826
 2613SOL    HW1 9002   5.730   2.128   0.227  1.4166  0.9709  0.5103
 2613SOL    HW2 9003   5.781   1.985   0.223 -1.6503 -0.2047  0.3510
 2614SOL     OW 9004   2.122   7.119   8.633  0.1469 -0.3141  0.7856
 2614SOL    HW1 9005   2.204   7.153   8.597 -0.5045 -1.1860 -1.7111
 2614SOL    HW2 9006   2.060   7.191   8.622  0.3295  0.0077  1.7855
 2615SOL     OW 9007   8.848   4.639   4.669  0.6078 -0.2853  0.1443
 2615SOL    HW1 9008   8.926   4.677   4.629  0.5766 -0.1527  0.2095
 2615SOL    HW2 9009   8.881   4.571   4.728  0.6576 -0.4393 -0.0560
 2616SOL     OW 9010   5.099   7.130   6.121  0.1664  0.0061 -0.3390
 2616SOL    HW1 9011   5.125   7.216   6.090  1.6038 -0.5228 -0.6918
 2616SOL    HW2 9012   5.101   7.137   6.216  1.4343  0.0720 -0.3467
 2617SOL     OW 9013   0.183   3.945   3.039  0.2776 -0.2277 -0.5447
 2617SOL    HW1 9014   0.189   3.862   3.086  0.7468  0.2377  0.2447
 2617SOL    HW2 9015   0.122   3.997   3.092  3.2611  1.4975  1.5042
 2618SOL     OW 9016   7.577   6.768   0.860  0.4185 -0.1711  0.5549
 2618SOL    HW1 9017   7.485   6.779   0.835  1.0610  3.5684 -0.8403
 2618SOL    HW2 9018   7.623   6.763   0.776  1.6271 -0.1428  1.2018
 2619SOL     OW 9019   1.672   6.221   8.631  0.3716 -0.3637 -0.5191
 2619SOL    HW1 9020   1.612   6.151   8.655 -1.8203  0.7119 -2.4908
 2619SOL    HW2 9021   1.741   6.178   8.582  0.9946 -1.5485  1.2871
 2620SOL     OW 9022   6.869   0.907   3.040 -0.1728 -0.8682  0.5484
 2620SOL    HW1 9023   6.838   0.837   2.984  0.5354 -1.8160  1.3118
 2620SOL    HW2 9024   6.790   0.943   3.081 -0.4898 -1.5757  0.5553
 2621SOL     OW 9025   5.829   1.302   8.201  0.4794  0.1216  0.5034
 2621SOL    HW1 9026   5.841   1.242   8.274 -1.4138  0.6645  1.3125
 2621SOL    HW2 9027   5.857   1.387   8.235  0.3244  0.2370  0.3440
 2622SOL     OW 9028   4.163   4.444   4.911 -0.1740 -0.2625 -0.2420
 2622SOL    HW1 9029   4.241   4.407   4.953  0.7929  2.4156  0.5133
 2622SOL    HW2 9030   4.128   4.504   4.977 -0.8273  1.2134 -1.8869
 2623SOL     OW 9031   4.214   6.577   3.855 -0.2504  0.4790  0.3148
 2623SOL    HW1 9032   4.193   6.489   3.822 -0.3447  0.4731  0.3900
 2623SOL    HW2 9033   4.130   6.622   3.859  0.0516  1.4673 -2.2305
 2624SOL     OW 9034   6.969   4.747   2.360 -0.3312  0.8028  0.2297
 2624SOL    HW1 9035   6.931   4.788   2.283  0.0831 -0.1276 -0.4923
 2624SOL    HW2 9036   7.060   4.777   2.361 -0.3046  0.7233  0.2841
 2625SOL     OW 9037   4.764   4.020   0.645 -0.1761  0.7663  0.0076
 2625SOL    HW1 9038   4.724   4.093   0.692 -1.1940 -0.8640  1.8265
 2625SOL    HW2 9039   4.705   4.003   0.572  0.0937  1.7445 -0.4586
 2626SOL     OW 9040   0.567   1.328   7.530  0.2202 -0.3171 -0.0972
 2626SOL    HW1 9041   0.583   1.417   7.499  1.6462 -0.9285 -1.2951
 2626SOL    HW2 9042   0.649   1.282   7.511 -0.5193 -1.9072  0.3944
 2627SOL     OW 9043   5.148   4.776   4.852  0.9239  0.2562 -0.4517
 2627SOL    HW1 9044   5.198   4.852   4.823  1.1507  0.6301  0.8913
 2627SOL    HW2 9045   5.097   4.750   4.774  2.1604  0.6870 -1.4343
 2628SOL     OW 9046   7.276   4.651   5.534 -0.2926  0.2711 -0.0994
 2628SOL    HW1 9047   7.236   4.633   5.448  0.8202 -3.5088 -0.0168
 2628SOL    HW2 9048   7.204   4.686   5.587 -1.5763  0.5920 -1.9445
 2629SOL     OW 9049   2.118   2.387   5.270  0.0444 -0.2787 -0.4801
 2629SOL    HW1 9050   2.097   2.308   5.320  0.8039  0.2018  0.6320
 2629SOL    HW2 9051   2.060   2.383   5.194  0.5628 -2.2514 -0.8127
 2630SOL     OW 9052   7.282   4.715   6.994  0.0566  0.3299  0.1781
 2630SOL    HW1 9053   7.202   4.764   6.971  1.0834  1.3396 -1.4769
 2630SOL    HW2 9054   7.301   4.742   7.084 -0.6030  1.3012  0.0436
 2631SOL     OW 9055   3.779   7.896   8.502 -0.0085  0.3998 -0.1493
 2631SOL    HW1 9056   3.788   7.988   8.526 -1.2396  0.2530  1.0060
 2631SOL    HW2 9057   3.693   7.871   8.535  0.7006 -1.4326  0.4684
 2632SOL     OW 9058   2.150   3.434   5.334 -0.0437  0.4469  0.3596
 2632SOL    HW1 9059   2.135   3.340   5.343 -0.7302  0.4688 -0.4218
 2632SOL    HW2 9060   2.216   3.454   5.400  0.3220 -0.6355  0.3460
 2633SOL     OW 9061   8.115   1.452   5.675  0.2540  0.1485 -0.1269
 2633SOL    HW1 9062   8.118   1.363   5.640  0.8138  0.0483  0.1723
 2633SOL    HW2 9063   8.108   1.440   5.769 -1.7325  0.4136 -0.2075
 2634SOL     OW 9064   4.401   7.577   4.785 -0.6254 -0.1302 -0.8559
 2634SOL    HW1 9065   4.418   7.492   4.825 -2.5768 -0.2987 -0.2785
 2634SOL    HW2 9066   4.387   7.557   4.692 -1.9794 -0.5975 -0.5698
 2635SOL     OW 9067   0.879   4.998   2.213  0.2421 -0.1777 -0.2781
 2635SOL    HW1 9068   0.802   5.028   2.262  1.1804  3.1086 -0.5524
 2635SOL    HW2 9069   0.937   4.960   2.280 -0.8016 -0.9400  0.2154
 2636SOL     OW 9070   4.805   6.475   3.457 -0.2118 -0.6773  0.1075
 2636SOL    HW1 9071   4.715   6.442   3.452 -0.5251  0.1647  0.1265
 2636SOL    HW2 9072   4.854   6.419   3.396 -1.0312 -0.2420 -0.9709
 2637SOL     OW 9073   7.402   5.191   3.151  0.7565 -0.2918 -0.1386
 2637SOL    HW1 9074   7.417   5.196   3.245  1.7524  2.3093 -0.3694
 2637SOL    HW2 9075   7.462   5.256   3.113 -1.8446  1.0565 -2.2718
 2638SOL     OW 9076   0.422   1.355   7.815  0.2123  0.6036 -0.0686
 2638SOL    HW1 9077   0.456   1.420   7.753 -2.6160 -0.0798 -2.5282
 2638SOL    HW2 9078   0.482   1.281   7.807 -0.0320  0.5777 -1.9475
 2639SOL     OW 9079   5.522   3.067   1.153 -0.6353 -0.4354  0.6095
 2639SOL    HW1 9080   5.481   2.980   1.162 -0.6852 -0.5363 -0.4419
 2639SOL    HW2 9081   5.606   3.058   1.197  0.6218 -1.9383 -1.8193
 2640SOL     OW 9082   7.634   1.952   4.211 -0.4040 -0.1441 -0.2781
 2640SOL    HW1 9083   7.700   1.882   4.211 -0.5694 -0.3017 -0.4609
 2640SOL    HW2 9084   7.666   2.015   4.275  1.4290  1.1780 -2.3450
 2641SOL     OW 9085   5.091   8.712   1.568 -0.0886 -0.5085  0.5331
 2641SOL    HW1 9086   5.027   8.740   1.633 -0.7444 -0.7347  0.0031
 2641SOL    HW2 9087   5.045   8.721   1.484  0.9997  0.5158  0.0280
 2642SOL     OW 9088   5.550   4.436   2.818  0.0557 -0.8065 -0.1088
 2642SOL    HW1 9089   5.488   4.493   2.772 -1.2094 -2.4990 -0.6442
 2642SOL    HW2 9090   5.534   4.349   2.780  0.9284 -1.7673  1.5971
 2643SOL     OW 9091   2.574   0.926   7.830 -0.0588  0.9290  0.1194
 2643SOL    HW1 9092   2.651   0.877   7.803 -0.8139 -0.7670  0.9232
 2643SOL    HW2 9093   2.600   0.970   7.910  0.4631  1.4497 -0.3266
 2644SOL     OW 9094   7.549   5.553   1.114 -0.4022 -0.2062  0.3515
 2644SOL    HW1 9095   7.535   5.565   1.020  1.6248  3.1231  0.3264
 2644SOL    HW2 9096   7.465   5.576   1.153 -0.3710  1.6146 -0.5498
 2645SOL     OW 9097   8.216   0.737   7.088  0.3635 -0.0665  0.7596
 2645SOL    HW1 9098   8.151   0.808   7.084  0.0886 -0.3527 -1.6080
 2645SOL    HW2 9099   8.248   0.739   7.178 -1.4487  1.4176  1.4481
 2646SOL     OW 9100   2.726   7.130   7.799 -0.0082 -0.1175 -0.2170
 2646SOL    HW1 9101   2.750   7.078   7.875 -0.5737  0.1484  0.1508
 2646SOL    HW2 9102   2.633   7.110   7.785  0.0949 -0.1738 -0.8463
 2647SOL     OW 9103   6.204   4.472   2.486  0.2768  0.0580 -0.2583
 2647SOL    HW1 9104   6.199   4.553   2.537  1.1690 -0.6449  1.0091
 2647SOL    HW2 9105   6.114   4.454   2.460  0.0526  1.3890 -0.4790
 2648SOL     OW 9106   2.351   0.395   6.171  0.1273  0.4099  0.2499
 2648SOL    HW1 9107   2.314   0.434   6.250  0.4558 -1.5262  1.4353
 2648SOL    HW2 9108   2.309   0.309   6.166  0.0057  0.5578 -1.7896
 2649SOL     OW 9109   1.324   6.181   0.630  0.1696 -0.1169 -0.4029
 2649SOL    HW1 9110   1.347   6.260   0.680  1.9174 -0.5982 -0.3802
 2649SOL    HW2 9111   1.306   6.213   0.542 -0.8420  0.4875 -0.0034
 2650SOL     OW 9112   5.325   2.004   5.913  0.7106 -0.6473 -0.2969
 2650SOL    HW1 9113   5.377   1.974   5.839 -0.0483 -0.3655 -0.9548
 2650SOL    HW2 9114   5.311   2.097   5.897 -3.5906 -1.4299 -2.4610
 2651SOL     OW 9115   2.571   7.394   6.135 -0.6329  0.5403  0.1134
 2651SOL    HW1 9116   2.631   7.434   6.073 -0.4259 -1.2963 -0.9441
 2651SOL    HW2 9117   2.510   7.464   6.158 -0.8868  1.2243 -2.3864
 2652SOL     OW 9118   6.375   8.769   7.521  0.1951  0.1022 -0.4227
 2652SOL    HW1 9119   6.463   8.787   7.486 -0.0678  1.9230 -0.2461
 2652SOL    HW2 9120   6.326   8.734   7.446  1.4688 -2.5818 -0.1266
 2653SOL     OW 9121   2.717   3.091   2.272  0.2109  0.0279 -0.2952
 2653SOL    HW1 9122   2.759   3.034   2.336  0.6918  0.5683 -0.1181
 2653SOL    HW2 9123   2.750   3.179   2.292 -0.8812  0.4491 -0.2610
 2654SOL     OW 9124   6.904   2.547   2.559 -0.4827 -0.7970  0.1684
 2654SOL    HW1 9125   6.990   2.552   2.518 -0.1838  2.6996  0.9442
 2654SOL    HW2 9126   6.922   2.551   2.653 -1.4692  0.2436  0.3327
 2655SOL     OW 9127   4.422   7.151   8.717  0.2920 -0.3501 -0.3393
 2655SOL    HW1 9128   4.330   7.175   8.732 -0.0307 -1.6334 -0.1839
 2655SOL    HW2 9129   4.472   7.221   8.760 -0.6098 -0.0665  0.2777
 2656SOL     OW 9130   6.358   3.861   3.618  0.1598  0.2890  0.0755
 2656SOL    HW1 9131   6.435   3.897   3.662 -0.3120 -0.2306  1.3721
 2656SOL    HW2 9132   6.362   3.897   3.529  1.5588  0.7505  0.3048
 2657SOL     OW 9133   8.466   1.375   6.171 -0.6285  0.2642 -0.1680
 2657SOL    HW1 9134   8.520   1.304   6.206  2.1692  2.4063  0.1888
 2657SOL    HW2 9135   8.384   1.368   6.220  0.1519 -1.7450  0.9898
 2658SOL     OW 9136   3.037   3.703   5.789  0.0417 -0.5282 -0.5266
 2658SOL    HW1 9137   2.943   3.683   5.782  0.1746 -0.8268 -1.7477
 2658SOL    HW2 9138   3.051   3.775   5.727  0.7744 -1.1182 -1.0714
 2659SOL     OW 9139   5.470   2.209   8.410  0.1479  0.3681  0.0255
 2659SOL    HW1 9140   5.444   2.213   8.318 -0.8736 -2.3713  0.1245
 2659SOL    HW2 9141   5.566   2.215   8.409  0.0700  2.1459 -1.0145
 2660SOL     OW 9142   1.900   6.585   7.422  0.2294 -0.3170 -0.1300
 2660SOL    HW1 9143   1.909   6.678   7.444  3.7877 -0.7770  0.8726
 2660SOL    HW2 9144   1.899   6.584   7.326  0.3897  0.7414 -0.1612
 2661SOL     OW 9145   4.265   5.170   3.736 -0.2082 -0.3063 -0.2208
 2661SOL    HW1 9146   4.230   5.240   3.682  1.0833  1.4491  1.0851
 2661SOL    HW2 9147   4.237   5.192   3.825  1.0271 -0.9001  0.3452
 2662SOL     OW 9148   2.282   7.920   3.813  0.5561 -0.2964  0.3736
 2662SOL    HW1 9149   2.291   7.933   3.718 -0.8985 -0.2075  0.2289
 2662SOL    HW2 9150   2.322   7.998   3.851 -0.3372  0.4978 -0.2420
 2663SOL     OW 9151   8.292   5.178   4.258 -0.0899 -0.1637 -0.0262
 2663SOL    HW1 9152   8.367   5.235   4.273  0.0475 -0.2595 -0.3470
 2663SOL    HW2 9153   8.230   5.231   4.208 -0.3837  0.0277  0.5310
 2664SOL     OW 9154   3.595   7.918   2.327  0.2331 -0.1287 -0.3299
 2664SOL    HW1 9155   3.569   8.010   2.319 -0.7771 -0.4600 -1.0220
 2664SOL    HW2 9156   3.651   7.902   2.252  1.3243  0.1985  0.3878
 2665SOL     OW 9157   3.355   8.468   0.824 -0.6381  0.0832  0.0304
 2665SOL    HW1 9158   3.390   8.380   0.842  1.3863  1.0593  1.2987
 2665SOL    HW2 9159   3.413   8.503   0.756 -0.7634  0.8074  0.2900
 2666SOL     OW 9160   3.968   6.737   0.449 -0.4060 -0.6093  0.1080
 2666SOL    HW1 9161   4.023   6.763   0.375  1.3573 -3.3823  0.2867
 2666SOL    HW2 9162   4.017   6.766   0.527 -0.2795 -1.1064  0.2210
 2667SOL     OW 9163   6.833   4.352   2.717 -0.5932 -0.7800  0.4430
 2667SOL    HW1 9164   6.778   4.424   2.745  0.2558 -0.1976  0.6694
 2667SOL    HW2 9165   6.902   4.393   2.665  0.8931 -1.1508  2.0007
 2668SOL     OW 9166   3.432   8.438   4.792  0.0728 -0.0732  0.1724
 2668SOL    HW1 9167   3.395   8.361   4.748  2.1430 -0.8846 -0.2514
 2668SOL    HW2 9168   3.497   8.472   4.732 -0.1931  1.5323  0.7394
 2669SOL     OW 9169   3.704   1.091   3.588  0.0276 -0.3122  0.2479
 2669SOL    HW1 9170   3.638   1.106   3.656 -1.0278 -2.3542 -0.2348
 2669SOL    HW2 9171   3.787   1.089   3.635 -0.6256 -1.0997  1.4266
 2670SOL     OW 9172   2.857   5.976   4.020 -0.3127  0.3888  0.0149
 2670SOL    HW1 9173   2.872   6.049   3.960 -0.6164  0.1499 -0.3562
 2670SOL    HW2 9174   2.764   5.979   4.040 -0.0318  1.0714  1.2788
 2671SOL     OW 9175   2.559   6.998   2.726 -0.0663  0.1974 -0.4512
 2671SOL    HW1 9176   2.633   7.056   2.743 -0.4762  0.7009 -0.3549
 2671SOL    HW2 9177   2.482   7.053   2.741 -0.4709  0.4340 -2.9910
 2672SOL     OW 9178   7.332   7.204   1.993 -0.3343  0.3733 -0.3369
 2672SOL    HW1 9179   7.395   7.152   1.945  0.4179  0.2442  0.7618
 2672SOL    HW2 9180   7.348   7.294   1.964 -0.5017  0.2056 -0.9768
 2673SOL     OW 9181   6.172   0.146   6.969 -0.1102 -0.3969  0.3356
 2673SOL    HW1 9182   6.257   0.112   6.994 -0.5666 -2.3720 -0.6172
 2673SOL    HW2 9183   6.112   0.072   6.980 -1.9551  1.2088  2.0061
 2674SOL     OW 9184   8.794   1.289   5.264  0.1331  0.4256 -0.0203
 2674SOL    HW1 9185   8.757   1.361   5.313 -0.4310  0.0419  0.1308
 2674SOL    HW2 9186   8.771   1.211   5.314  0.1861  0.0895 -0.5076
 2675SOL     OW 9187   7.017   8.803   2.465 -0.4514 -0.3008  0.3274
 2675SOL    HW1 9188   6.951   8.847   2.413 -1.3683 -1.7541  0.2084
 2675SOL    HW2 9189   6.997   8.827   2.556  0.3276  1.1497  0.1357
 2676SOL     OW 9190   5.372   3.953   1.951 -0.5460  0.2561  0.1474
 2676SOL    HW1 9191   5.330   3.906   2.023 -1.1197 -0.9964 -0.9469
 2676SOL    HW2 9192   5.310   3.945   1.878  0.6930  0.1134 -0.9307
 2677SOL     OW 9193   5.067   7.622   0.872 -0.2377  0.4841 -0.0564
 2677SOL    HW1 9194   5.132   7.552   0.865 -1.4924 -0.8058  0.8649
 2677SOL    HW2 9195   5.044   7.625   0.965 -1.5019  0.9261 -0.3653
 2678SOL     OW 9196   8.330   3.531   3.643  0.1523 -0.1715  0.4381
 2678SOL    HW1 9197   8.404   3.578   3.605 -0.3962  0.9536  0.7024
 2678SOL    HW2 9198   8.369   3.470   3.705  0.8752  0.1171  0.2741
 2679SOL     OW 9199   0.852   2.299   1.171  0.5293 -0.5250 -0.6923
 2679SOL    HW1 9200   0.810   2.230   1.221  1.3064 -1.2340 -0.9773
 2679SOL    HW2 9201   0.841   2.272   1.079  1.7660 -0.8570 -0.7678
 2680SOL     OW 9202   2.496   1.192   3.680  0.6209  0.3238 -0.4780
 2680SOL    HW1 9203   2.480   1.160   3.768  1.1606  1.7713  0.1757
 2680SOL    HW2 9204   2.525   1.115   3.631  1.6032 -0.2413  0.9378
 2681SOL     OW 9205   5.079   3.989   1.290  0.1947  0.3186  0.4475
 2681SOL    HW1 9206   5.156   4.036   1.256  0.3987  0.1762  0.7046
 2681SOL    HW2 9207   5.110   3.900   1.305  0.5605  0.7463  2.4768
 2682SOL     OW 9208   3.119   6.739   2.334 -0.1591 -0.5388 -0.3423
 2682SOL    HW1 9209   3.166   6.658   2.314 -0.4497 -0.1778 -2.7484
 2682SOL    HW2 9210   3.184   6.808   2.328 -0.5841 -0.2397 -1.8480
 2683SOL     OW 9211   1.456   3.069   7.425 -0.2866  0.5742 -0.0803
 2683SOL    HW1 9212   1.481   3.092   7.336 -1.7374 -0.7667 -0.8726
 2683SOL    HW2 9213   1.445   3.154   7.469  0.4862  1.2475 -1.1385
 2684SOL     OW 9214   6.477   0.939   8.692  0.5936 -0.3551 -0.0451
 2684SOL    HW1 9215   6.462   0.883   8.768 -0.8334  1.4356  1.0938
 2684SOL    HW2 9216   6.480   1.028   8.728  0.9117  0.4694 -1.9706
 2685SOL     OW 9217   2.590   0.291   7.129  0.2997 -0.2644 -0.3622
 2685SOL    HW1 9218   2.567   0.288   7.222 -0.0688 -0.3331 -0.4533
 2685SOL    HW2 9219   2.608   0.383   7.112  0.3920 -0.2553 -0.2158
 2686SOL     OW 9220   0.267   0.682   0.650  0.0640  0.5406 -0.3947
 2686SOL    HW1 9221   0.261   0.610   0.713 -0.3210  0.6701 -0.2809
 2686SOL    HW2 9222   0.322   0.747   0.693 -0.8741  0.9811  0.1562
 2687SOL     OW 9223   5.525   3.019   3.214 -0.4757  0.1126  0.4563
 2687SOL    HW1 9224   5.570   3.099   3.240  2.6635 -1.4797  0.4032
 2687SOL    HW2 9225   5.569   2.991   3.134  1.7003 -3.7977  2.6703
 2688SOL     OW 9226   5.783   7.258   7.243 -0.4361  0.4766 -0.0938
 2688SOL    HW1 9227   5.733   7.227   7.319 -0.1197  0.3137  0.0504
 2688SOL    HW2 9228   5.733   7.229   7.167 -0.4014  0.0516  0.0474
 2689SOL     OW 9229   1.229   0.532   0.872 -0.2464  0.1682 -0.1276
 2689SOL    HW1 9230   1.165   0.596   0.839 -1.3113 -0.5364  0.5303
 2689SOL    HW2 9231   1.176   0.464   0.914  0.9400 -0.4368  0.4352
 2690SOL     OW 9232   4.761   8.131   6.525 -0.1286 -0.2442 -0.1576
 2690SOL    HW1 9233   4.714   8.190   6.584 -0.7707 -0.8639 -0.0391
 2690SOL    HW2 9234   4.738   8.163   6.437 -0.5817 -0.3864 -0.0960
 2691SOL     OW 9235   4.285   0.497   4.711  0.3274 -0.1071  0.5591
 2691SOL    HW1 9236   4.228   0.491   4.634  0.3329  0.1399  0.5356
 2691SOL    HW2 9237   4.266   0.583   4.748  1.1277  0.2251  0.2045
 2692SOL     OW 9238   0.039   4.340   6.832 -0.3981 -0.4910  0.0974
 2692SOL    HW1 9239   0.104   4.409   6.821  2.4273 -2.9065  0.3108
 2692SOL    HW2 9240  -0.013   4.343   6.752  1.4191  0.1839 -1.1340
 2693SOL     OW 9241   6.433   6.145   1.032 -0.0861  0.4027 -0.5692
 2693SOL    HW1 9242   6.456   6.133   1.124  2.5204 -0.4181 -1.2613
 2693SOL    HW2 9243   6.482   6.222   1.004  0.9004 -0.6310 -1.7883
 2694SOL     OW 9244   3.941   6.713   8.209  0.1286  0.2574  0.2491
 2694SOL    HW1 9245   3.864   6.689   8.261 -1.2779 -0.7874 -2.1057
 2694SOL    HW2 9246   3.910   6.706   8.118  2.4524  1.8593 -0.7443
 2695SOL     OW 9247   2.644   1.492   1.182  0.2327 -0.0693  0.2910
 2695SOL    HW1 9248   2.686   1.445   1.253  0.7437 -0.9929 -0.6003
 2695SOL    HW2 9249   2.658   1.437   1.105 -1.7980  0.0386 -0.2134
 2696SOL     OW 9250   1.062   6.943   1.026  0.2449 -0.4297  0.0840
 2696SOL    HW1 9251   1.134   6.966   0.967  1.0529 -1.5612  0.5881
 2696SOL    HW2 9252   1.039   7.025   1.070  3.3562 -0.5406  2.2016
 2697SOL     OW 9253   8.025   6.135   3.131  0.1010  0.1324 -0.2555
 2697SOL    HW1 9254   8.075   6.207   3.092 -0.4700  0.6821  0.0101
 2697SOL    HW2 9255   8.078   6.109   3.207  0.2734  0.3342 -0.3034
 2698SOL     OW 9256   8.787   8.730   6.636  0.1932  0.2753 -0.0045
 2698SOL    HW1 9257   8.844   8.715   6.711  0.3012 -1.8250 -0.4612
 2698SOL    HW2 9258   8.798   8.653   6.581 -0.8444  1.1881 -1.5777
 2699SOL     OW 9259   4.222   6.147   8.727 -0.2179  0.3981 -0.4605
 2699SOL    HW1 9260   4.311   6.167   8.757 -0.9655  2.5615  0.5671
 2699SOL    HW2 9261   4.204   6.059   8.761  2.6065 -1.5524 -3.4665
 2700SOL     OW 9262   4.209   3.775   4.478  0.5097  0.5536  0.3709
 2700SOL    HW1 9263   4.121   3.785   4.514  0.8895  0.4114  1.3444
 2700SOL    HW2 9264   4.235   3.686   4.500  1.2553  0.8883  0.9108
 2701SOL     OW 9265   6.901   6.486   2.781 -0.6762  0.5982 -0.6640
 2701SOL    HW1 9266   6.939   6.478   2.693 -0.1322 -0.1346 -0.3791
 2701SOL    HW2 9267   6.898   6.396   2.813  1.9809  1.0506  1.2213
 2702SOL     OW 9268   7.726   6.679   3.469 -0.3914  0.6950 -0.0892
 2702SOL    HW1 9269   7.723   6.759   3.520 -1.4554  1.1561 -0.8479
 2702SOL    HW2 9270   7.635   6.652   3.459 -0.1158 -0.1113 -0.6192
 2703SOL     OW 9271   5.136   5.417   5.796 -0.5290 -0.3791 -0.1959
 2703SOL    HW1 9272   5.132   5.466   5.714  0.7290 -0.8077 -0.5309
 2703SOL    HW2 9273   5.044   5.397   5.816 -0.8148 -1.1218 -2.0365
 2704SOL     OW 9274   6.470   1.737   1.124  0.6307  0.0998  0.0195
 2704SOL    HW1 9275   6.505   1.796   1.058 -0.7426  0.2809 -0.5863
 2704SOL    HW2 9276   6.468   1.789   1.204 -1.4510  1.2532 -0.7108
 2705SOL     OW 9277   2.820   1.786   7.461 -0.2088 -0.2892 -1.1222
 2705SOL    HW1 9278   2.869   1.783   7.379  2.6423 -0.3817  0.4490
 2705SOL    HW2 9279   2.881   1.823   7.524 -0.9511 -3.4443  1.7759
 2706SOL     OW 9280   0.013   5.782   1.137 -0.1412 -0.9082  0.7725
 2706SOL    HW1 9281  -0.053   5.775   1.067 -1.0461  1.3869  1.2889
 2706SOL    HW2 9282   0.077   5.714   1.116  0.1045  0.1944 -2.8279
 2707SOL     OW 9283   7.648   7.020   3.088 -0.2021 -0.1267  0.0309
 2707SOL    HW1 9284   7.596   6.977   3.155  0.2739 -0.0149  0.4841
 2707SOL    HW2 9285   7.719   7.062   3.137 -0.5414  0.9995 -0.4112
 2708SOL     OW 9286   2.694   4.407   2.204 -0.1009 -0.1350  0.4081
 2708SOL    HW1 9287   2.684   4.316   2.234 -0.8538 -0.1233  0.2203
 2708SOL    HW2 9288   2.677   4.403   2.110  0.8815  0.0437  0.2195
 2709SOL     OW 9289   0.097   0.508   1.193  0.0527  0.2005  0.7857
 2709SOL    HW1 9290   0.169   0.451   1.220 -1.2870 -1.5455  0.8318
 2709SOL    HW2 9291   0.098   0.504   1.098  0.2085  0.4677  0.7725
 2710SOL     OW 9292   1.161   7.093   3.590  0.1584 -0.3907 -0.4555
 2710SOL    HW1 9293   1.121   7.121   3.507 -1.1945 -2.2043 -0.4652
 2710SOL    HW2 9294   1.255   7.094   3.572  0.3324  3.8933 -0.4615
 2711SOL     OW 9295   7.536   6.569   3.035 -0.3296  0.8734 -0.8590
 2711SOL    HW1 9296   7.472   6.499   3.046 -0.6313  1.1849 -0.6236
 2711SOL    HW2 9297   7.483   6.647   3.017  0.0422  0.8328 -2.2397
 2712SOL     OW 9298   5.969   8.619   8.562  0.4940 -0.1338  0.4552
 2712SOL    HW1 9299   5.994   8.529   8.582 -0.0850 -0.3071  0.4266
 2712SOL    HW2 9300   5.912   8.612   8.485  1.9448  0.4340 -0.7304
 2713SOL     OW 9301   7.269   6.701   7.530  0.6232  0.1532  0.2143
 2713SOL    HW1 9302   7.301   6.613   7.509  0.7586 -0.4475  2.5888
 2713SOL    HW2 9303   7.200   6.685   7.595 -1.2631  1.6931 -1.2908
 2714SOL     OW 9304   6.474   4.847   3.198  0.1747  0.7636  0.0342
 2714SOL    HW1 9305   6.418   4.801   3.135  0.0496  2.3069 -1.0498
 2714SOL    HW2 9306   6.530   4.903   3.143  1.5931  0.5312  1.1970
 2715SOL     OW 9307   1.150   8.579   3.844 -0.2478 -0.7825 -0.4607
 2715SOL    HW1 9308   1.185   8.604   3.759  0.3527 -0.2873 -0.0716
 2715SOL    HW2 9309   1.201   8.630   3.907 -1.7864  0.1225  0.1149
 2716SOL     OW 9310   1.487   3.066   4.554  0.0587 -0.3225  0.1795
 2716SOL    HW1 9311   1.559   3.003   4.547 -0.1523 -0.5733  0.2436
 2716SOL    HW2 9312   1.491   3.116   4.472  1.9426  1.4533  1.2679
 2717SOL     OW 9313   3.238   3.386   8.771 -0.1842 -0.1582  0.2512
 2717SOL    HW1 9314   3.237   3.324   8.699  0.2851  0.2292 -0.1001
 2717SOL    HW2 9315   3.243   3.472   8.729  1.8432  0.0207  0.7342
 2718SOL     OW 9316   2.721   6.865   0.778 -0.1570  0.7316  0.2615
 2718SOL    HW1 9317   2.771   6.931   0.827 -0.4236  1.1612 -0.0321
 2718SOL    HW2 9318   2.664   6.917   0.721  0.2368  0.2303 -0.5884
 2719SOL     OW 9319   3.720   2.170   1.247 -0.0160 -0.2055  0.0277
 2719SOL    HW1 9320   3.794   2.133   1.199  0.1763 -0.5899  0.6007
 2719SOL    HW2 9321   3.750   2.257   1.274  0.6809 -0.7885  1.2308
 2720SOL     OW 9322   5.316   1.108   2.705 -0.4261 -0.6874 -0.5384
 2720SOL    HW1 9323   5.243   1.168   2.720 -0.2622  0.1156 -2.5081
 2720SOL    HW2 9324   5.367   1.112   2.785  0.0710  2.6179 -0.8479
 2721SOL     OW 9325   2.506   1.503   5.568  0.3056  0.0168 -0.0315
 2721SOL    HW1 9326   2.509   1.506   5.472 -1.0234 -0.2917 -0.1028
 2721SOL    HW2 9327   2.536   1.589   5.596  1.3384 -0.1009 -0.6856
 2722SOL     OW 9328   1.562   8.141   1.072 -0.3541  0.4303 -0.0660
 2722SOL    HW1 9329   1.560   8.236   1.071 -0.4015  0.4327  0.1999
 2722SOL    HW2 9330   1.656   8.119   1.076 -0.3675  0.4728  0.4778
 2723SOL     OW 9331   2.416   7.103   5.161 -0.0118 -0.3595  0.0744
 2723SOL    HW1 9332   2.494   7.074   5.114 -1.3096 -1.9617 -1.2193
 2723SOL    HW2 9333   2.403   7.038   5.230 -0.7929 -0.7093 -0.3974
 2724SOL     OW 9334   3.297   2.375   3.679 -0.2164  0.0436 -0.3608
 2724SOL    HW1 9335   3.280   2.451   3.624 -1.6776 -0.0677 -0.1054
 2724SOL    HW2 9336   3.227   2.376   3.744 -0.2547 -1.4810 -0.3227
 2725SOL     OW 9337   4.967   4.246   3.886  0.1587  0.6333 -0.5312
 2725SOL    HW1 9338   5.036   4.241   3.821  1.0501 -1.6877  0.4701
 2725SOL    HW2 9339   4.941   4.338   3.888  3.8859  1.8148 -0.2721
 2726SOL     OW 9340   1.394   8.096   4.404 -0.0280 -0.6735 -0.2019
 2726SOL    HW1 9341   1.327   8.045   4.359 -1.0456  0.2424  0.2292
 2726SOL    HW2 9342   1.382   8.075   4.497 -0.6934  0.5879  0.0188
 2727SOL     OW 9343   2.793   4.135   3.067  0.6311  0.0939  0.8366
 2727SOL    HW1 9344   2.887   4.121   3.072  0.7036  0.1847 -0.1246
 2727SOL    HW2 9345   2.783   4.224   3.035  0.2370 -0.1387  0.2859
 2728SOL     OW 9346   6.017   3.049   6.341 -0.2773 -0.3378  0.4110
 2728SOL    HW1 9347   5.946   3.022   6.282 -1.4871  0.8281  1.2853
 2728SOL    HW2 9348   5.995   3.008   6.425  1.0142 -1.3482  0.2879
 2729SOL     OW 9349   2.295   2.793   0.734  0.1037 -0.6259 -0.0514
 2729SOL    HW1 9350   2.273   2.720   0.677  1.2083 -1.5052  0.5992
 2729SOL    HW2 9351   2.218   2.850   0.732  0.0820 -0.6530 -2.3357
 2730SOL     OW 9352   8.734   2.770   6.677  0.0798  0.6276 -0.1751
 2730SOL    HW1 9353   8.641   2.747   6.679  0.1260  0.4945  1.4363
 2730SOL    HW2 9354   8.740   2.837   6.609 -0.9760 -0.2209 -1.1636
 2731SOL     OW 9355   3.936   6.293   6.756 -0.2921  0.1723 -0.3178
 2731SOL    HW1 9356   3.841   6.294   6.748 -0.7983  2.2981  3.5064
 2731SOL    HW2 9357   3.965   6.370   6.708 -1.0380  1.6792  1.5012
 2732SOL     OW 9358   3.925   1.792   5.886  0.0249  0.1860 -0.3149
 2732SOL    HW1 9359   3.859   1.799   5.817  1.0262  0.4143 -1.2866
 2732SOL    HW2 9360   3.895   1.721   5.942 -2.0116  1.4995  0.3731
 2733SOL     OW 9361   7.273   1.623   6.490 -0.1242  0.2564  0.3391
 2733SOL    HW1 9362   7.208   1.592   6.553  2.7873 -0.8284  3.0210
 2733SOL    HW2 9363   7.300   1.708   6.523 -0.2385  0.7781 -0.8517
 2734SOL     OW 9364   1.625   6.062   6.941  0.2980  0.1056  0.4271
 2734SOL    HW1 9365   1.575   6.010   7.003 -1.7401  2.3161  0.7740
 2734SOL    HW2 9366   1.591   6.037   6.855  1.2322 -1.0075  0.3533
 2735SOL     OW 9367   7.215   5.697   8.364  0.1801  0.0659 -0.3478
 2735SOL    HW1 9368   7.300   5.730   8.392 -0.0320  1.3883 -1.2011
 2735SOL    HW2 9369   7.152   5.753   8.408 -0.2059  0.1750 -1.0244
 2736SOL     OW 9370   5.787   4.251   1.308 -0.1249 -0.1079 -0.1268
 2736SOL    HW1 9371   5.753   4.297   1.231  0.4853 -0.2481 -0.4835
 2736SOL    HW2 9372   5.711   4.244   1.367 -0.5314  0.2310 -0.5998
 2737SOL     OW 9373   2.217   5.211   5.012  0.1449  0.1227 -0.2893
 2737SOL    HW1 9374   2.218   5.162   4.930 -0.2765  0.1297 -0.3028
 2737SOL    HW2 9375   2.298   5.262   5.010  0.2890 -0.1091 -0.5570
 2738SOL     OW 9376   8.725   5.924   3.840 -0.0522  0.2554  0.0250
 2738SOL    HW1 9377   8.711   5.985   3.912  1.0521 -1.2897  1.6373
 2738SOL    HW2 9378   8.683   5.965   3.765  0.8822  3.1052  0.9488
 2739SOL     OW 9379   8.670   7.339   0.710 -0.3378 -0.1723  0.2834
 2739SOL    HW1 9380   8.631   7.268   0.659 -2.0698 -0.1109  1.4496
 2739SOL    HW2 9381   8.691   7.406   0.644 -2.0351 -0.3089 -0.4731
 2740SOL     OW 9382   1.869   1.614   3.753 -0.1468  0.3902  0.4611
 2740SOL    HW1 9383   1.788   1.654   3.785 -0.4636  0.1184  0.0230
 2740SOL    HW2 9384   1.863   1.621   3.658 -0.7702 -1.7091  0.2861
 2741SOL     OW 9385   3.968   8.493   7.039 -0.3003  0.6444 -0.0831
 2741SOL    HW1 9386   3.986   8.535   7.123 -2.7481  1.9358 -0.1187
 2741SOL    HW2 9387   3.986   8.400   7.055  0.4191  1.0151  1.4942
 2742SOL     OW 9388   3.878   8.794   7.596  0.0070 -0.6940  0.1007
 2742SOL    HW1 9389   3.847   8.874   7.639 -0.8906 -0.4310 -0.9654
 2742SOL    HW2 9390   3.973   8.805   7.591  0.3459 -1.3228  3.0944
 2743SOL     OW 9391   3.612   5.483   5.105 -0.1195 -0.2688  0.4702
 2743SOL    HW1 9392   3.614   5.513   5.014 -0.1768 -0.2670  0.4695
 2743SOL    HW2 9393   3.525   5.507   5.136  0.0338  0.0639  0.6391
 2744SOL     OW 9394   4.598   0.322   4.280 -0.0732 -0.1192  0.6907
 2744SOL    HW1 9395   4.672   0.277   4.240  0.3540  0.0778  1.2496
 2744SOL    HW2 9396   4.536   0.335   4.208 -0.5903 -2.3413  0.6604
 2745SOL     OW 9397   4.407   6.128   4.564 -0.5763  0.1695 -0.2484
 2745SOL    HW1 9398   4.369   6.053   4.609  0.7209  0.4442  1.3855
 2745SOL    HW2 9399   4.365   6.204   4.604  0.5487  0.4139  0.5136
 2746SOL     OW 9400   5.298   1.324   2.281  0.3904  0.6782  0.1716
 2746SOL    HW1 9401   5.336   1.287   2.361  1.0271  0.0571 -0.4049
 2746SOL    HW2 9402   5.302   1.418   2.294 -1.9628  0.6148  2.0143
 2747SOL     OW 9403   2.562   5.403   4.620 -0.0624 -0.6704 -0.4071
 2747SOL    HW1 9404   2.481   5.443   4.652  1.0298  0.6621  0.8315
 2747SOL    HW2 9405   2.560   5.418   4.526 -0.1245  1.6230 -0.1084
 2748SOL     OW 9406   3.714   1.836   8.717  0.0260  0.5288 -0.5583
 2748SOL    HW1 9407   3.684   1.750   8.744 -2.4871  1.4159 -0.2357
 2748SOL    HW2 9408   3.765   1.868   8.791  0.4753 -0.4159 -0.4421
 2749SOL     OW 9409   6.276   1.363   3.248  0.5604  0.3636 -0.6100
 2749SOL    HW1 9410   6.323   1.418   3.310  1.2830  1.8814 -2.4086
 2749SOL    HW2 9411   6.184   1.371   3.273  0.9694 -0.3913  1.2337
 2750SOL     OW 9412   2.354   0.105   5.644 -0.0014 -0.3668 -0.0219
 2750SOL    HW1 9413   2.401   0.170   5.592 -1.0297  1.8494  1.6689
 2750SOL    HW2 9414   2.261   0.128   5.633 -0.3630 -1.3062  0.9430
 2751SOL     OW 9415   0.048   5.403   0.969  0.5881 -0.1490  0.3569
 2751SOL    HW1 9416  -0.041   5.368   0.974  0.1328  0.9666  0.4343
 2751SOL    HW2 9417   0.068   5.403   0.875 -0.1805  1.1944  0.1689
 2752SOL     OW 9418   1.891   7.778   3.489 -0.1123 -0.1974 -0.6608
 2752SOL    HW1 9419   1.842   7.834   3.549  0.2856  0.7519 -1.2146
 2752SOL    HW2 9420   1.976   7.821   3.480  0.5713 -1.4138 -0.3182
 2753SOL     OW 9421   4.145   5.391   3.123 -0.6993 -0.3520 -0.5155
 2753SOL    HW1 9422   4.232   5.377   3.161 -1.3905  0.4330  1.5118
 2753SOL    HW2 9423   4.121   5.306   3.085  0.4273 -0.9364  0.0421
 2754SOL     OW 9424   5.721   1.252   5.127  0.7495 -0.0252  0.0785
 2754SOL    HW1 9425   5.650   1.283   5.071  2.6722 -1.0210 -3.1748
 2754SOL    HW2 9426   5.707   1.297   5.210 -2.6623  1.1023 -0.9159
 2755SOL     OW 9427   3.434   5.868   4.084 -0.1224  0.1808 -0.0003
 2755SOL    HW1 9428   3.339   5.879   4.096  0.0071  0.8354  0.4530
 2755SOL    HW2 9429   3.446   5.869   3.989 -0.6003 -0.1591 -0.0666
 2756SOL     OW 9430   4.879   2.425   8.110  0.6650 -0.1077  0.2451
 2756SOL    HW1 9431   4.918   2.380   8.035  2.0025  0.8134  0.3600
 2756SOL    HW2 9432   4.895   2.518   8.093  1.2443  0.0998  1.8025
 2757SOL     OW 9433   5.322   8.516   0.801 -0.3461  0.5099 -0.5310
 2757SOL    HW1 9434   5.295   8.489   0.714  0.4607  0.3560 -0.7463
 2757SOL    HW2 9435   5.402   8.567   0.786  0.3070 -0.2763  0.1819
 2758SOL     OW 9436   0.120   6.428   8.645 -0.1617 -0.1301  0.4969
 2758SOL    HW1 9437   0.212   6.406   8.633 -0.3241 -0.7885  0.4129
 2758SOL    HW2 9438   0.089   6.456   8.559  0.0645  0.4932  0.6188
 2759SOL     OW 9439   3.245   7.091   4.435  0.8550 -0.3212  0.3013
 2759SOL    HW1 9440   3.319   7.033   4.451  1.9021  1.5855  3.1257
 2759SOL    HW2 9441   3.281   7.164   4.384  0.7572  0.2133  0.9833
 2760SOL     OW 9442   1.654   7.692   8.711  0.0956  0.2134  0.4219
 2760SOL    HW1 9443   1.661   7.615   8.768  1.3846  0.1624  0.2223
 2760SOL    HW2 9444   1.742   7.701   8.672 -0.8755 -0.1216 -2.0458
 2761SOL     OW 9445   0.361   6.563   4.626  0.3953 -0.0112  0.3779
 2761SOL    HW1 9446   0.394   6.509   4.555  0.0565 -0.0500  0.2470
 2761SOL    HW2 9447   0.439   6.603   4.665  0.6486 -0.6024  0.4875
 2762SOL     OW 9448   0.121   0.568   6.041 -0.5118 -0.2835 -0.1709
 2762SOL    HW1 9449   0.077   0.639   6.088  1.2281  0.9183 -0.3062
 2762SOL    HW2 9450   0.069   0.490   6.064 -0.8875  0.5605  2.1575
 2763SOL     OW 9451   7.934   8.108   7.304  0.0200  0.1090 -0.2635
 2763SOL    HW1 9452   7.883   8.179   7.342  0.0126 -0.7992  1.4893
 2763SOL    HW2 9453   8.024   8.139   7.305  0.0103  0.1204  0.4566
 2764SOL     OW 9454   6.715   1.211   5.531 -0.3691 -0.4361 -0.3928
 2764SOL    HW1 9455   6.677   1.299   5.531 -0.6004 -0.5178 -1.3728
 2764SOL    HW2 9456   6.733   1.193   5.438  0.3680 -1.1291 -0.1309
 2765SOL     OW 9457   0.610   7.272   7.109  0.0348 -0.4356 -0.0199
 2765SOL    HW1 9458   0.562   7.342   7.066 -0.5369 -0.5895  0.3583
 2765SOL    HW2 9459   0.671   7.317   7.167  0.8632 -0.2245 -1.0179
 2766SOL     OW 9460   2.674   1.384   4.158  0.4081  0.7395  0.3223
 2766SOL    HW1 9461   2.698   1.292   4.146 -0.1848  0.2969  2.3038
 2766SOL    HW2 9462   2.757   1.431   4.152  0.6153  0.2148 -1.5659
 2767SOL     OW 9463   2.853   8.476   6.912 -0.5160 -0.2142  0.1779
 2767SOL    HW1 9464   2.931   8.523   6.883 -0.8047 -0.0306 -0.3291
 2767SOL    HW2 9465   2.853   8.396   6.859 -0.8355 -0.0628 -0.0630
 2768SOL     OW 9466   3.267   8.644   1.021  0.1227  0.5477 -0.4477
 2768SOL    HW1 9467   3.277   8.610   0.932  1.4727  1.5036 -0.7031
 2768SOL    HW2 9468   3.251   8.567   1.075 -1.7508  0.0295 -1.6196
 2769SOL     OW 9469   8.315   5.124   1.585 -0.1730  0.8571 -0.5070
 2769SOL    HW1 9470   8.392   5.176   1.604  0.6543 -0.4724 -0.1016
 2769SOL    HW2 9471   8.266   5.123   1.667  1.3099 -1.4100  0.4488
 2770SOL     OW 9472   7.046   5.899   5.747 -0.7017  0.3192  0.3001
 2770SOL    HW1 9473   7.102   5.882   5.671 -0.5328 -1.7171  0.8182
 2770SOL    HW2 9474   7.101   5.948   5.807  0.0398 -0.3023  0.1484
 2771SOL     OW 9475   6.826   3.636   2.939 -0.2260 -0.1447  0.0227
 2771SOL    HW1 9476   6.761   3.667   3.002  0.1691  1.4666 -0.3159
 2771SOL    HW2 9477   6.889   3.708   2.932  2.7734 -2.3689  1.8438
 2772SOL     OW 9478   6.101   4.246   0.509  0.2698  0.4069 -0.1071
 2772SOL    HW1 9479   6.062   4.294   0.436 -0.3462 -0.2540 -0.2307
 2772SOL    HW2 9480   6.119   4.159   0.473  1.9966  0.7153 -0.0886
 2773SOL     OW 9481   4.290   1.184   7.502  0.2438 -0.8491 -0.1475
 2773SOL    HW1 9482   4.302   1.273   7.470 -0.3447  0.2475  2.4287
 2773SOL    HW2 9483   4.251   1.137   7.429  0.9310  0.8794 -1.7036
 2774SOL     OW 9484   7.377   1.295   0.534 -0.3716 -0.0762  0.6075
 2774SOL    HW1 9485   7.470   1.315   0.534 -0.3081 -0.3135 -0.4796
 2774SOL    HW2 9486   7.372   1.202   0.513 -0.9146  0.6202 -3.0623
 2775SOL     OW 9487   2.125   0.721   0.447 -0.1902  0.0895  0.2845
 2775SOL    HW1 9488   2.095   0.812   0.450  3.1142  1.3059  0.4786
 2775SOL    HW2 9489   2.088   0.681   0.526 -1.8131  1.1806  0.1130
 2776SOL     OW 9490   6.140   2.053   1.223 -0.2357 -0.5349 -0.4864
 2776SOL    HW1 9491   6.210   2.100   1.178  0.1971 -1.6961 -1.0719
 2776SOL    HW2 9492   6.161   1.960   1.210 -1.0958 -0.9031  0.5657
 2777SOL     OW 9493   1.429   4.794   1.012  0.0544  0.2626 -0.2774
 2777SOL    HW1 9494   1.464   4.836   0.933  2.0842 -0.7085  0.0267
 2777SOL    HW2 9495   1.375   4.722   0.978  0.6905  0.0163 -0.8121
 2778SOL     OW 9496   3.762   1.027   8.437  0.0216 -0.6983  0.1672
 2778SOL    HW1 9497   3.700   1.009   8.366  0.1517 -1.0837  0.1524
 2778SOL    HW2 9498   3.731   1.109   8.475 -1.5350 -1.7312  1.2595
 2779SOL     OW 9499   7.170   1.312   2.375  0.3424 -0.5195 -0.2659
 2779SOL    HW1 9500   7.174   1.268   2.460  0.8198  0.5815  0.3018
 2779SOL    HW2 9501   7.240   1.378   2.379 -2.5484  2.7551  0.3374
 2780SOL     OW 9502   7.729   2.653   4.556 -0.2390  0.4342 -0.3424
 2780SOL    HW1 9503   7.665   2.712   4.517 -0.3155  1.2004  0.9173
 2780SOL    HW2 9504   7.682   2.570   4.568 -0.3912  0.3738 -1.2783
 2781SOL     OW 9505   3.527   6.122   0.407 -0.4399  0.1888 -0.3546
 2781SOL    HW1 9506   3.549   6.189   0.471 -0.5622  0.5850 -0.7227
 2781SOL    HW2 9507   3.532   6.167   0.323 -1.3427 -0.0629 -0.5458
 2782SOL     OW 9508   6.451   1.198   5.302  0.4728 -0.4230 -0.2128
 2782SOL    HW1 9509   6.537   1.210   5.343 -0.0479  1.7311  0.3874
 2782SOL    HW2 9510   6.426   1.286   5.273 -2.5145 -0.4721  1.7134
 2783SOL     OW 9511   5.052   0.555   4.217  0.3835 -0.2004  0.3603
 2783SOL    HW1 9512   5.058   0.501   4.138  0.4445 -1.1018  0.9726
 2783SOL    HW2 9513   5.105   0.632   4.197 -1.8820  0.9816 -1.5718
 2784SOL     OW 9514   4.136   7.435   1.834 -0.2658  0.1207  0.0904
 2784SOL    HW1 9515   4.101   7.436   1.744 -2.1183  1.1728  0.7712
 2784SOL    HW2 9516   4.193   7.357   1.836 -1.5967 -0.9786 -1.4807
 2785SOL     OW 9517   3.024   3.907   0.778 -0.1001  0.4737 -0.0962
 2785SOL    HW1 9518   2.975   3.857   0.712  0.6621 -1.1611  0.5236
 2785SOL    HW2 9519   3.114   3.878   0.768  0.2261  1.1296  0.8369
 2786SOL     OW 9520   6.520   7.573   3.510 -0.2266  0.0851 -0.4781
 2786SOL    HW1 9521   6.442   7.593   3.458 -1.2637 -2.8409 -0.2752
 2786SOL    HW2 9522   6.577   7.525   3.450  1.5470  2.2369 -0.6380
 2787SOL     OW 9523   6.521   2.192   1.027  0.0596  0.0880  0.7835
 2787SOL    HW1 9524   6.527   2.287   1.032 -1.2670  0.3696 -1.5767
 2787SOL    HW2 9525   6.596   2.166   0.973 -1.1870  0.1811 -1.0961
 2788SOL     OW 9526   2.686   0.099   2.722  0.4057 -0.4113 -0.2073
 2788SOL    HW1 9527   2.698   0.189   2.753  1.8213 -1.4979  2.7900
 2788SOL    HW2 9528   2.592   0.093   2.706  0.4632  1.9822 -2.0609
 2789SOL     OW 9529   0.287   7.887   7.605 -0.1782 -0.2296  0.2423
 2789SOL    HW1 9530   0.313   7.799   7.632  1.0020 -0.2343 -0.8402
 2789SOL    HW2 9531   0.347   7.945   7.650 -0.5132 -0.0128  0.4153
 2790SOL     OW 9532   7.544   6.446   0.491 -0.1840 -0.6300  0.3820
 2790SOL    HW1 9533   7.639   6.451   0.497 -0.2408  1.9863  0.4287
 2790SOL    HW2 9534   7.522   6.494   0.411 -1.4964 -0.1528  0.9857
 2791SOL     OW 9535   7.402   0.278   1.617  0.2035 -0.0031  0.2183
 2791SOL    HW1 9536   7.403   0.209   1.683 -0.3518  0.7315  1.0224
 2791SOL    HW2 9537   7.461   0.247   1.548  0.3389 -1.0458  0.7894
 2792SOL     OW 9538   2.923   3.804   0.028  0.0016  0.5657 -0.0012
 2792SOL    HW1 9539   2.986   3.815  -0.043 -1.9452  0.9492 -1.7793
 2792SOL    HW2 9540   2.945   3.873   0.091  0.3086  1.7660 -1.3843
 2793SOL     OW 9541   5.815   1.199   7.758 -0.0625 -0.0513  0.0380
 2793SOL    HW1 9542   5.877   1.184   7.829  0.4501 -0.5747 -0.5136
 2793SOL    HW2 9543   5.859   1.259   7.699  0.6625 -1.7692 -1.2475
 2794SOL     OW 9544   3.465   4.360   3.639 -0.4842  0.0040 -0.0737
 2794SOL    HW1 9545   3.536   4.424   3.631  1.0465 -1.7635 -1.5001
 2794SOL    HW2 9546   3.424   4.359   3.553  0.0467 -1.4593 -0.3370
 2795SOL     OW 9547   7.419   4.293   3.902  0.1274  0.7961 -0.4103
 2795SOL    HW1 9548   7.414   4.207   3.944 -0.4166  1.2234  0.4286
 2795SOL    HW2 9549   7.401   4.276   3.809 -0.2459  0.0415 -0.2033
 2796SOL     OW 9550   3.964   8.824   8.608  0.1117 -0.1277 -0.2053
 2796SOL    HW1 9551   3.983   8.917   8.622 -1.7508  0.3198 -0.3634
 2796SOL    HW2 9552   4.005   8.780   8.682  1.8226  0.6763 -0.6067
 2797SOL     OW 9553   8.168   5.384   0.482  0.5063 -0.1681 -0.3646
 2797SOL    HW1 9554   8.113   5.364   0.557 -0.8669 -3.0987 -2.0050
 2797SOL    HW2 9555   8.256   5.395   0.519 -0.2766 -0.5981  1.7417
 2798SOL     OW 9556   7.515   1.053   1.310 -0.3668 -0.0232  0.8880
 2798SOL    HW1 9557   7.572   0.978   1.295  0.9794  1.3015 -1.1347
 2798SOL    HW2 9558   7.444   1.041   1.246 -1.1165 -0.4529  1.7819
 2799SOL     OW 9559   0.023   3.437   4.043 -0.0528 -0.1738 -0.8449
 2799SOL    HW1 9560  -0.021   3.396   3.969  0.1056  2.1609 -2.3528
 2799SOL    HW2 9561   0.116   3.440   4.017  0.3937 -1.4116  0.5085
 2800SOL     OW 9562   3.846   2.123   4.694  0.9307  0.1265 -0.0103
 2800SOL    HW1 9563   3.881   2.035   4.681  1.6751  0.5066 -0.6882
 2800SOL    HW2 9564   3.815   2.149   4.607  0.3326  0.3744  0.2754
 2801SOL     OW 9565   8.198   3.516   1.940  0.5356  0.3995 -0.2889
 2801SOL    HW1 9566   8.152   3.462   2.004 -0.7073  1.5133 -0.2117
 2801SOL    HW2 9567   8.276   3.464   1.916 -1.0986 -1.8926 -0.9727
 2802SOL     OW 9568   1.776   7.879   4.660 -0.0297  0.0949 -0.2223
 2802SOL    HW1 9569   1.850   7.824   4.633 -0.5942 -0.2929 -1.0265
 2802SOL    HW2 9570   1.727   7.894   4.579 -1.6040 -0.8238  0.5156
 2803SOL     OW 9571   8.335   6.677   0.896  0.3266 -0.5574  0.0505
 2803SOL    HW1 9572   8.274   6.751   0.903  0.7794 -0.0798 -0.8888
 2803SOL    HW2 9573   8.415   6.715   0.860  0.9414 -1.3142  0.5875
 2804SOL     OW 9574   2.436   8.857   2.636  0.7856  0.1754 -0.7372
 2804SOL    HW1 9575   2.484   8.842   2.554  1.8544 -1.0651  0.0756
 2804SOL    HW2 9576   2.384   8.778   2.648  1.9142 -0.4256  0.5874
 2805SOL     OW 9577   0.231   8.297   5.539  0.0443 -0.1457 -0.4358
 2805SOL    HW1 9578   0.237   8.273   5.631 -0.7461  2.6711  0.4359
 2805SOL    HW2 9579   0.174   8.231   5.500 -3.2274  0.9322  2.1058
 2806SOL     OW 9580   0.584   0.958   4.765  0.1919  0.6270  0.4345
 2806SOL    HW1 9581   0.639   0.959   4.844 -0.3935  3.8984  0.9716
 2806SOL    HW2 9582   0.495   0.945   4.799  0.1506 -0.1762  0.0401
 2807SOL     OW 9583   3.248   0.977   1.659  0.3726 -0.0019  0.9464
 2807SOL    HW1 9584   3.282   0.956   1.573 -0.0382  2.0253  0.2198
 2807SOL    HW2 9585   3.160   0.938   1.661  0.6902 -0.7351  0.7783
 2808SOL     OW 9586   5.425   0.404   6.430  0.4062 -0.1586 -0.6788
 2808SOL    HW1 9587   5.482   0.447   6.494 -1.2906 -0.5297  1.1921
 2808SOL    HW2 9588   5.379   0.476   6.386 -0.3795  0.0838  0.4736
 2809SOL     OW 9589   7.629   7.222   4.285  0.5714 -0.1339 -0.3591
 2809SOL    HW1 9590   7.710   7.253   4.244  0.8522  0.7351  0.8001
 2809SOL    HW2 9591   7.589   7.301   4.321  0.2009 -0.8243  0.7913
 2810SOL     OW 9592   3.611   4.294   2.639 -0.3409  0.3074 -0.1271
 2810SOL    HW1 9593   3.703   4.313   2.621 -0.5397  2.1754  0.6359
 2810SOL    HW2 9594   3.605   4.292   2.735 -0.9587 -0.6313 -0.1684
 2811SOL     OW 9595   8.576   5.341   0.357  0.0163  0.1432  0.0325
 2811SOL    HW1 9596   8.647   5.389   0.399 -0.9751  0.6163  1.2442
 2811SOL    HW2 9597   8.595   5.346   0.263  1.8395 -0.2062  0.3421
 2812SOL     OW 9598   2.246   7.826   0.673 -0.3152  0.9948  0.2071
 2812SOL    HW1 9599   2.187   7.817   0.748 -0.9354 -1.9084 -0.5003
 2812SOL    HW2 9600   2.188   7.828   0.597  0.3800 -1.6789 -0.4919
 2813SOL     OW 9601   0.983   0.399   3.432 -0.4099  0.0523 -0.2029
 2813SOL    HW1 9602   1.011   0.358   3.514 -1.8603 -1.2307 -0.2887
 2813SOL    HW2 9603   1.064   0.425   3.388  0.5221 -1.5904  0.4688
 2814SOL     OW 9604   3.017   2.064   5.923 -0.0523  0.0060 -0.6233
 2814SOL    HW1 9605   3.105   2.069   5.888 -0.6194 -0.3809 -2.1687
 2814SOL    HW2 9606   3.014   1.982   5.972  0.6802  0.4336  0.1519
 2815SOL     OW 9607   2.754   3.424   5.908  0.0882  0.1022  0.1032
 2815SOL    HW1 9608   2.756   3.506   5.957  1.9411 -0.9438  1.9047
 2815SOL    HW2 9609   2.666   3.389   5.925 -0.0569  0.8059  0.8838
 2816SOL     OW 9610   7.652   3.114   1.590  0.4693 -0.2585 -0.3229
 2816SOL    HW1 9611   7.659   3.126   1.685 -0.8084  1.2516 -0.3725
 2816SOL    HW2 9612   7.729   3.062   1.566  0.1891 -1.7261  1.6966
 2817SOL     OW 9613   6.794   7.561   8.798  0.8254 -0.6509 -0.0008
 2817SOL    HW1 9614   6.863   7.540   8.735  0.5334  0.9873 -0.9153
 2817SOL    HW2 9615   6.817   7.648   8.830 -0.6507 -0.1994 -0.1026
 2818SOL     OW 9616   1.911   1.979   8.229 -0.1659  0.2919  0.2231
 2818SOL    HW1 9617   1.825   2.010   8.256  0.2097  1.5029  0.0839
 2818SOL    HW2 9618   1.924   2.017   8.143  1.1398  1.3918  0.8750
 2819SOL     OW 9619   1.052   6.925   6.897  0.1644 -0.2460 -0.3154
 2819SOL    HW1 9620   1.143   6.903   6.916  0.3297  0.5762 -0.1162
 2819SOL    HW2 9621   1.052   6.949   6.804  0.1683 -0.1390 -0.2873
 2820SOL     OW 9622   7.431   2.124   0.691  0.3604 -0.0299  0.4085
 2820SOL    HW1 9623   7.506   2.111   0.632 -0.3652  1.7704 -0.9886
 2820SOL    HW2 9624   7.432   2.046   0.748  2.0307 -1.0604 -0.9232
 2821SOL     OW 9625   2.626   8.070   2.230  0.5873  0.1408  0.2735
 2821SOL    HW1 9626   2.534   8.044   2.234  1.2066 -2.2932  3.5876
 2821SOL    HW2 9627   2.630   8.153   2.277  0.0889  0.1329  0.3322
 2822SOL     OW 9628   2.765   8.715   2.858  0.8302  0.2958 -0.1955
 2822SOL    HW1 9629   2.767   8.647   2.791 -0.2760  0.5491 -0.4999
 2822SOL    HW2 9630   2.749   8.796   2.809 -1.7993  0.2770  0.4912
 2823SOL     OW 9631   1.691   8.810   5.330  0.2090 -0.0549 -0.1417
 2823SOL    HW1 9632   1.625   8.800   5.399 -0.1729  2.1587 -0.1122
 2823SOL    HW2 9633   1.643   8.794   5.249  0.1568 -0.5209 -0.0273
 2824SOL     OW 9634   5.621   4.366   6.539  0.3776  0.2195  0.1234
 2824SOL    HW1 9635   5.660   4.424   6.606 -0.6928  1.2510 -0.1173
 2824SOL    HW2 9636   5.643   4.408   6.456  2.2937 -1.4190 -0.2762
 2825SOL     OW 9637   7.346   7.069   4.232  0.9521  0.2030 -0.0396
 2825SOL    HW1 9638   7.368   7.152   4.274 -2.3588  1.0046  0.3795
 2825SOL    HW2 9639   7.274   7.090   4.172  0.0857 -2.3011 -0.0047
 2826SOL     OW 9640   7.186   6.014   8.848 -0.2081  0.2570 -0.3823
 2826SOL    HW1 9641   7.189   6.014   8.753 -0.1371  2.2137 -0.4265
 2826SOL    HW2 9642   7.153   5.928   8.872 -2.2140  0.4518 -2.2390
 2827SOL     OW 9643   0.356   1.329   1.690 -0.3085 -0.0628  0.2986
 2827SOL    HW1 9644   0.398   1.375   1.763 -0.0476 -1.6174  1.1756
 2827SOL    HW2 9645   0.321   1.249   1.729 -2.8852  0.4783 -0.6820
 2828SOL     OW 9646   0.217   5.614   3.374 -0.1548  0.1485  0.0404
 2828SOL    HW1 9647   0.205   5.708   3.359  0.6909  0.0534 -1.4170
 2828SOL    HW2 9648   0.285   5.609   3.440  0.2254  0.5609 -0.3146
 2829SOL     OW 9649   3.099   3.790   3.462  0.0502  0.0145  0.7909
 2829SOL    HW1 9650   3.021   3.843   3.446  0.5830  1.1417  1.8403
 2829SOL    HW2 9651   3.140   3.830   3.538  1.2698 -1.0138  0.6946
 2830SOL     OW 9652   2.135   0.819   6.629 -0.6189 -0.4577  0.7976
 2830SOL    HW1 9653   2.226   0.808   6.602 -0.3751  2.0906  0.3333
 2830SOL    HW2 9654   2.090   0.744   6.589  0.7969 -0.2080 -1.4756
 2831SOL     OW 9655   7.818   1.975   5.753 -0.0524  0.5141  0.4126
 2831SOL    HW1 9656   7.891   2.034   5.769  0.0708  0.9047 -1.3443
 2831SOL    HW2 9657   7.857   1.900   5.708 -0.7643  0.9890 -1.0746
 2832SOL     OW 9658   8.803   0.014   8.250  0.5331 -0.5431  0.3796
 2832SOL    HW1 9659   8.800  -0.081   8.256  0.5459 -0.6076 -0.4637
 2832SOL    HW2 9660   8.712   0.040   8.234  0.4816 -0.3850  0.9045
 2833SOL     OW 9661   8.167   2.401   1.643  1.0600 -0.0114  0.3543
 2833SOL    HW1 9662   8.201   2.314   1.661 -1.0733 -1.1217 -0.6755
 2833SOL    HW2 9663   8.072   2.393   1.654  0.6979  1.8653 -0.9117
 2834SOL     OW 9664   5.578   0.797   1.334 -0.1368  0.1632  0.0273
 2834SOL    HW1 9665   5.551   0.748   1.256  1.1206  0.1653 -0.4271
 2834SOL    HW2 9666   5.613   0.730   1.393  3.1438  0.5938 -1.2525
 2835SOL     OW 9667   5.286   3.816   2.173 -0.0246  0.2244  0.4059
 2835SOL    HW1 9668   5.330   3.736   2.200 -0.4129  0.3048  1.3235
 2835SOL    HW2 9669   5.193   3.798   2.187 -0.2385  0.3453 -0.7248
 2836SOL     OW 9670   4.936   4.759   6.772 -0.1331  0.4933 -0.2328
 2836SOL    HW1 9671   4.951   4.690   6.707  1.1327  1.8740 -1.4971
 2836SOL    HW2 9672   4.910   4.836   6.720 -1.2545  1.0711  1.1049
 2837SOL     OW 9673   0.088   4.802   1.086  0.0912  0.1972 -0.9553
 2837SOL    HW1 9674   0.117   4.762   1.004 -0.9819 -1.4263 -0.5886
 2837SOL    HW2 9675   0.052   4.887   1.059  1.3419  0.4657 -1.9069
 2838SOL     OW 9676   8.033   4.982   6.095  0.1822  0.4979 -0.2214
 2838SOL    HW1 9677   7.997   4.980   6.006 -1.4089 -1.0223  0.3906
 2838SOL    HW2 9678   7.967   5.030   6.146 -0.4616 -1.2324  0.6743
 2839SOL     OW 9679   3.220   1.216   5.174 -0.6732  0.1521  0.5291
 2839SOL    HW1 9680   3.139   1.264   5.194 -0.5015  0.3833  0.6750
 2839SOL    HW2 9681   3.208   1.131   5.216 -1.1619 -0.0984 -0.0895
 2840SOL     OW 9682   6.559   1.627   4.101  0.7329  0.3695  0.0678
 2840SOL    HW1 9683   6.503   1.557   4.066  0.1908  1.6131 -1.6766
 2840SOL    HW2 9684   6.568   1.606   4.194  1.0948 -2.3332 -0.4927
 2841SOL     OW 9685   0.403   0.829   6.649 -0.5988 -0.4497  0.9510
 2841SOL    HW1 9686   0.352   0.775   6.588 -0.3418 -1.7825  1.8572
 2841SOL    HW2 9687   0.405   0.777   6.730  1.7603 -0.2107  1.1046
 2842SOL     OW 9688   1.996   5.424   2.701  0.4311 -0.1726  0.5432
 2842SOL    HW1 9689   2.066   5.453   2.759  0.2665  0.5929  0.3636
 2842SOL    HW2 9690   1.937   5.374   2.758  0.9840 -0.6095  0.7427
 2843SOL     OW 9691   1.442   3.968   8.593  0.3939 -0.3092  0.3687
 2843SOL    HW1 9692   1.360   3.952   8.547  0.6284  0.3999 -0.3160
 2843SOL    HW2 9693   1.497   3.893   8.571  1.1170  0.7994 -1.9539
 2844SOL     OW 9694   4.576   2.562   1.895 -0.0149  0.0288 -0.2857
 2844SOL    HW1 9695   4.641   2.604   1.951 -1.8549  1.8337  0.6314
 2844SOL    HW2 9696   4.544   2.632   1.839 -0.9754 -0.8726 -0.9101
 2845SOL     OW 9697   4.668   0.563   4.376  0.2713  0.3224  0.8703
 2845SOL    HW1 9698   4.639   0.556   4.467 -0.2309  0.6324  0.7360
 2845SOL    HW2 9699   4.669   0.473   4.345 -0.6396  0.3081  0.8517
 2846SOL     OW 9700   2.859   5.501   8.659 -0.5187 -0.3185  0.1292
 2846SOL    HW1 9701   2.902   5.509   8.744  1.4996  0.9592 -0.9285
 2846SOL    HW2 9702   2.766   5.503   8.679 -0.1120  0.8663  2.2331
 2847SOL     OW 9703   1.959   7.335   1.735  0.2642  0.2993  0.2055
 2847SOL    HW1 9704   1.917   7.338   1.648 -1.5707  0.1984  1.0335
 2847SOL    HW2 9705   2.051   7.315   1.717 -0.3150 -0.9280 -1.6610
 2848SOL     OW 9706   6.252   6.856   3.123  0.2079  0.0605  0.3877
 2848SOL    HW1 9707   6.335   6.904   3.122  1.3310 -1.7435  0.2855
 2848SOL    HW2 9708   6.263   6.789   3.055 -1.2813 -0.3252  0.4906
 2849SOL     OW 9709   0.319   5.110   8.245  0.0824  0.4910  0.5461
 2849SOL    HW1 9710   0.339   5.146   8.331  2.8273  0.7693 -0.1132
 2849SOL    HW2 9711   0.372   5.162   8.184  0.4084 -1.5117 -0.9830
 2850SOL     OW 9712   0.896   3.053   5.805 -0.5042  0.0330 -0.0106
 2850SOL    HW1 9713   0.858   3.121   5.749 -0.6264  0.1102  0.1647
 2850SOL    HW2 9714   0.835   3.045   5.878 -0.1983  0.1429  0.2623
 2851SOL     OW 9715   8.111   1.145   6.944  0.5227  0.1215  0.0749
 2851SOL    HW1 9716   8.192   1.095   6.935 -0.0128 -0.7634  0.0966
 2851SOL    HW2 9717   8.122   1.220   6.886  2.0570  0.9540  1.3656
 2852SOL     OW 9718   5.755   1.029   2.785  0.3012  0.2432  0.3439
 2852SOL    HW1 9719   5.837   1.017   2.833  1.5357  0.7979 -1.5132
 2852SOL    HW2 9720   5.761   0.968   2.711 -1.2718 -0.1730  0.5127
 2853SOL     OW 9721   6.353   6.128   3.807  0.1984 -0.2037 -0.0140
 2853SOL    HW1 9722   6.279   6.114   3.749  0.4423 -0.2779 -0.3101
 2853SOL    HW2 9723   6.402   6.045   3.804  0.4252 -0.0708 -0.0130
 2854SOL     OW 9724   4.010   6.315   1.749  0.3339 -0.4961 -0.3496
 2854SOL    HW1 9725   4.020   6.250   1.819 -0.1131  1.0689  1.2382
 2854SOL    HW2 9726   4.081   6.377   1.764 -1.5288  1.5160  0.6575
 2855SOL     OW 9727   7.155   4.100   3.994  0.2263 -0.0338  0.0106
 2855SOL    HW1 9728   7.229   4.142   4.038 -1.5852  0.4552  2.8740
 2855SOL    HW2 9729   7.172   4.006   4.002  0.7193  0.0761  0.2694
 2856SOL     OW 9730   1.656   8.759   6.393  0.2112 -0.1763  0.0041
 2856SOL    HW1 9731   1.710   8.763   6.314  0.3613  1.7720  0.1432
 2856SOL    HW2 9732   1.576   8.805   6.369 -1.1583 -2.4394  0.0186
 2857SOL     OW 9733   0.415   4.448   6.147 -0.2275 -0.5194  0.1726
 2857SOL    HW1 9734   0.395   4.524   6.201 -1.5827 -0.5569 -0.2377
 2857SOL    HW2 9735   0.331   4.423   6.109  0.6328 -0.6217 -1.7908
 2858SOL     OW 9736   7.553   7.360   0.410  0.3128 -0.8538 -0.2545
 2858SOL    HW1 9737   7.608   7.417   0.356 -0.9366  0.1724 -0.4941
 2858SOL    HW2 9738   7.491   7.321   0.348 -2.2969  1.6950  0.5661
 2859SOL     OW 9739   0.463   3.755   1.318  0.0854  0.5012 -0.6410
 2859SOL    HW1 9740   0.545   3.804   1.320  1.4123 -1.3834  3.4876
 2859SOL    HW2 9741   0.488   3.667   1.292 -0.7598  0.1206 -0.2204
 2860SOL     OW 9742   0.734   3.492   1.283 -0.0395  0.0250  0.3568
 2860SOL    HW1 9743   0.685   3.533   1.212  1.8866 -0.7926 -1.5489
 2860SOL    HW2 9744   0.676   3.423   1.316  0.1985 -1.8269 -2.7302
 2861SOL     OW 9745   5.188   5.228   0.092 -0.3055  0.0534  0.1636
 2861SOL    HW1 9746   5.159   5.140   0.067 -0.0312 -0.0002  0.0284
 2861SOL    HW2 9747   5.108   5.272   0.122 -0.1271 -0.9072  2.2121
 2862SOL     OW 9748   8.545   8.018   0.071  0.5548 -0.1731  0.5096
 2862SOL    HW1 9749   8.474   7.985   0.016  1.3716  0.7363 -1.1365
 2862SOL    HW2 9750   8.501   8.073   0.136 -0.2342  0.7211 -0.7436
 2863SOL     OW 9751   4.257   6.644   7.669  0.3509 -0.1649  0.1451
 2863SOL    HW1 9752   4.260   6.720   7.728  2.3587  0.3539 -0.5178
 2863SOL    HW2 9753   4.336   6.653   7.616  0.4752 -2.5631 -0.1769
 2864SOL     OW 9754   1.987   3.390   8.494  0.4492  0.3008 -0.9736
 2864SOL    HW1 9755   1.970   3.297   8.479 -0.6831  0.7099 -2.4904
 2864SOL    HW2 9756   1.969   3.403   8.587  0.6351 -0.9835 -0.7396
 2865SOL     OW 9757   0.207   7.842   1.020  0.5040  0.2600  0.1442
 2865SOL    HW1 9758   0.150   7.877   0.952  1.2296  0.7656 -0.2155
 2865SOL    HW2 9759   0.216   7.749   0.999 -1.5751 -0.2564  1.2025
 2866SOL     OW 9760   3.057   2.675   7.811  0.9252 -0.3160 -0.7550
 2866SOL    HW1 9761   3.119   2.657   7.881  1.6846  0.1375 -1.2920
 2866SOL    HW2 9762   2.971   2.673   7.854  1.4111  0.5685  0.3263
 2867SOL     OW 9763   2.015   2.919   6.237 -0.0801  0.8788  0.5203
 2867SOL    HW1 9764   1.982   2.903   6.148 -1.3246 -1.5669  1.3388
 2867SOL    HW2 9765   2.098   2.965   6.223 -0.3345  0.7479 -1.8951
 2868SOL     OW 9766   6.081   0.304   8.763 -0.0777 -0.6285  0.1664
 2868SOL    HW1 9767   6.091   0.258   8.846 -1.6283  1.1362  1.4345
 2868SOL    HW2 9768   6.118   0.391   8.780  0.2987 -0.4855 -1.2678
 2869SOL     OW 9769   6.764   7.131   4.334 -0.2937  0.4662 -0.0461
 2869SOL    HW1 9770   6.707   7.202   4.363  0.0968  0.1705  1.5586
 2869SOL    HW2 9771   6.705   7.062   4.306 -0.7064  0.7359  0.1462
 2870SOL     OW 9772   3.300   4.051   6.031  0.1875 -0.2804  0.0821
 2870SOL    HW1 9773   3.259   3.966   6.017  1.8408 -1.2094  0.5826
 2870SOL    HW2 9774   3.246   4.092   6.099  0.0416 -1.4436  0.7084
 2871SOL     OW 9775   1.864   2.212   4.559  0.1689 -0.3396  0.1435
 2871SOL    HW1 9776   1.851   2.190   4.467 -0.9567 -1.6741  0.5858
 2871SOL    HW2 9777   1.843   2.305   4.565 -1.5518 -0.6430 -0.6351
 2872SOL     OW 9778   4.178   8.634   2.610 -0.8537 -0.2376 -0.2332
 2872SOL    HW1 9779   4.130   8.698   2.558  0.2004  0.1663 -0.7478
 2872SOL    HW2 9780   4.266   8.633   2.571 -0.7247 -1.6896  0.0304
 2873SOL     OW 9781   8.308   4.679   1.138  0.0463  0.0287  0.5779
 2873SOL    HW1 9782   8.342   4.768   1.142  1.9850 -0.6270 -0.2401
 2873SOL    HW2 9783   8.334   4.639   1.221 -2.8087  0.7910  1.9937
 2874SOL     OW 9784   8.800   5.947   8.366  0.3264  0.3472  0.6301
 2874SOL    HW1 9785   8.887   5.913   8.384  0.2166  0.7206  1.9867
 2874SOL    HW2 9786   8.797   6.032   8.411 -1.0471 -0.0931  1.4604
 2875SOL     OW 9787   1.553   8.410   1.045  0.5933 -0.1548 -0.6029
 2875SOL    HW1 9788   1.470   8.420   1.092  1.1994  0.6530  0.3433
 2875SOL    HW2 9789   1.534   8.438   0.956  0.2785  1.8600  0.0565
 2876SOL     OW 9790   0.909   4.894   4.803  0.2387 -0.1103 -0.0017
 2876SOL    HW1 9791   0.846   4.840   4.851 -0.3609 -1.6287 -2.3028
 2876SOL    HW2 9792   0.860   4.972   4.777  0.0660 -0.0933  0.3717
 2877SOL     OW 9793   0.604   6.301   4.612  0.1233  0.4316 -0.5255
 2877SOL    HW1 9794   0.673   6.239   4.589  0.3209  0.3064  0.3961
 2877SOL    HW2 9795   0.592   6.353   4.533 -0.8029 -1.4555 -1.7242
 2878SOL     OW 9796   2.276   2.368   8.624  0.1897  0.1447 -0.3256
 2878SOL    HW1 9797   2.209   2.347   8.559  0.0109 -0.9879  0.1836
 2878SOL    HW2 9798   2.307   2.282   8.654 -1.1445  0.5395  2.5167
 2879SOL     OW 9799   6.614   1.755   0.058  0.3401  0.2012  0.0292
 2879SOL    HW1 9800   6.591   1.827   0.115  0.2454 -1.0172  1.5878
 2879SOL    HW2 9801   6.680   1.706   0.107  1.3438 -0.0839 -1.5305
 2880SOL     OW 9802   0.203   2.584   3.914  0.4087  0.6402  0.1555
 2880SOL    HW1 9803   0.119   2.601   3.956 -0.3092 -2.0623  0.0195
 2880SOL    HW2 9804   0.203   2.490   3.899  3.7800  0.4281  0.7756
 2881SOL     OW 9805   6.757   2.971   4.123  0.2946  0.4716  0.4211
 2881SOL    HW1 9806   6.677   2.994   4.077 -0.9386 -2.8368  0.6000
 2881SOL    HW2 9807   6.827   3.013   4.073 -1.3393  1.1171 -1.4404
 2882SOL     OW 9808   8.764   0.796   0.269 -0.5678 -0.3108  0.3008
 2882SOL    HW1 9809   8.713   0.720   0.298 -1.9001  0.6394  0.5835
 2882SOL    HW2 9810   8.716   0.829   0.193  0.9108 -0.6803 -0.8384
 2883SOL     OW 9811   7.150   4.875   3.920 -0.0462  0.1250 -0.5204
 2883SOL    HW1 9812   7.116   4.814   3.986 -1.1729  1.6722  0.3939
 2883SOL    HW2 9813   7.214   4.823   3.871 -2.1041 -2.2825 -0.8799
 2884SOL     OW 9814   3.695   4.171   8.324 -0.0846 -0.0388  0.0247
 2884SOL    HW1 9815   3.668   4.248   8.275 -1.1022 -0.0259  0.5571
 2884SOL    HW2 9816   3.747   4.119   8.263 -0.8126  0.2613 -0.8672
 2885SOL     OW 9817   4.571   4.719   6.228 -0.1323 -0.0051 -0.4348
 2885SOL    HW1 9818   4.549   4.808   6.200 -0.3959 -0.7750 -2.9316
 2885SOL    HW2 9819   4.637   4.690   6.165  2.2337 -0.6129  2.0903
 2886SOL     OW 9820   6.029   8.803   2.482 -0.2447 -0.3248 -0.1912
 2886SOL    HW1 9821   6.010   8.802   2.388  1.5644  1.0177 -0.6347
 2886SOL    HW2 9822   6.103   8.743   2.491 -0.3174 -0.3338  0.3654
 2887SOL     OW 9823   8.200   1.903   1.344  0.1740 -0.4148  0.1231
 2887SOL    HW1 9824   8.208   1.925   1.251 -0.7406 -0.6099 -0.0166
 2887SOL    HW2 9825   8.117   1.943   1.370  0.8251  0.3443  1.0690
 2888SOL     OW 9826   4.530   3.346   0.739  0.1370  0.1059  0.0499
 2888SOL    HW1 9827   4.523   3.335   0.834  2.8989  0.3569  0.3654
 2888SOL    HW2 9828   4.517   3.258   0.703 -0.3086 -0.0974  0.6882
 2889SOL     OW 9829   6.459   6.312   0.243 -0.1372  0.2289  0.4500
 2889SOL    HW1 9830   6.474   6.303   0.337 -0.0487  0.9000  0.5055
 2889SOL    HW2 9831   6.374   6.272   0.228  0.9444 -2.2464  0.3792
 2890SOL     OW 9832   6.394   1.196   8.826  0.4997 -0.1741 -0.4637
 2890SOL    HW1 9833   6.403   1.257   8.900 -0.2419 -0.5564 -0.0456
 2890SOL    HW2 9834   6.317   1.143   8.848 -1.1470  1.1610 -2.5351
 2891SOL     OW 9835   3.882   7.142   3.493  0.2862 -0.2964  0.1443
 2891SOL    HW1 9836   3.953   7.101   3.543  2.4285  1.8161 -0.9483
 2891SOL    HW2 9837   3.804   7.129   3.547  1.5717 -2.2399  1.6853
 2892SOL     OW 9838   6.237   5.502   0.456  0.0690 -0.1980  0.4743
 2892SOL    HW1 9839   6.234   5.466   0.544  0.7244 -1.4528 -0.0016
 2892SOL    HW2 9840   6.330   5.505   0.435 -0.1427 -1.3371 -0.7336
 2893SOL     OW 9841   4.756   8.318   7.771 -0.4110  0.4572 -0.5359
 2893SOL    HW1 9842   4.738   8.412   7.776 -0.2314  0.4989 -0.6794
 2893SOL    HW2 9843   4.675   8.280   7.739 -0.2717  0.6394 -1.1261
 2894SOL     OW 9844   6.802   5.183   5.231  0.1167  0.0664  0.1019
 2894SOL    HW1 9845   6.783   5.210   5.141 -0.3206  1.6787  0.6348
 2894SOL    HW2 9846   6.868   5.245   5.260  1.3995 -1.3983  0.4285
 2895SOL     OW 9847   3.216   4.753   8.309 -0.1217  0.4907  0.1238
 2895SOL    HW1 9848   3.120   4.757   8.312 -0.0819  1.9363  0.4780
 2895SOL    HW2 9849   3.235   4.691   8.239 -1.3287  0.4825 -0.2294
 2896SOL     OW 9850   1.995   7.279   7.915  0.8363  0.1394  0.0963
 2896SOL    HW1 9851   1.948   7.273   7.998 -1.4195  0.0401 -1.0988
 2896SOL    HW2 9852   2.046   7.198   7.910  0.4894 -0.1522  1.1052
 2897SOL     OW 9853   3.869   7.703   6.196 -0.4145 -0.1502 -0.1109
 2897SOL    HW1 9854   3.807   7.630   6.185  0.5203 -0.9405 -0.2398
 2897SOL    HW2 9855   3.820   7.780   6.167 -1.4529 -0.7026  0.1088
 2898SOL     OW 9856   6.267   0.330   5.029  0.5625  0.3150 -0.0050
 2898SOL    HW1 9857   6.346   0.286   5.058  0.7010  0.9914  0.6849
 2898SOL    HW2 9858   6.258   0.406   5.087 -0.7065  0.1382  0.0729
 2899SOL     OW 9859   5.241   2.957   8.807  0.0514 -0.5605 -0.5681
 2899SOL    HW1 9860   5.283   2.908   8.878 -0.0008 -0.3654 -0.4012
 2899SOL    HW2 9861   5.152   2.974   8.840 -0.1825 -1.0316 -0.9454
 2900SOL     OW 9862   8.666   7.909   3.748  0.0896 -0.2069 -0.4223
 2900SOL    HW1 9863   8.601   7.977   3.765 -0.5125 -0.5973 -1.1440
 2900SOL    HW2 9864   8.651   7.882   3.658  1.6795  0.1387 -0.8200
 2901SOL     OW 9865   5.820   5.024   0.766  0.2403  0.3206  0.1656
 2901SOL    HW1 9866   5.880   5.094   0.740 -0.6015  0.8213 -0.4513
 2901SOL    HW2 9867   5.865   4.981   0.840  1.1808  0.9155 -0.0386
 2902SOL     OW 9868   7.748   8.659   3.011  0.0206  0.3215  0.1473
 2902SOL    HW1 9869   7.780   8.724   3.074 -0.8864 -0.5051  1.5055
 2902SOL    HW2 9870   7.752   8.576   3.058 -0.9591 -0.2799 -0.7876
 2903SOL     OW 9871   7.832   6.979   8.851 -0.5618  0.5535 -0.1881
 2903SOL    HW1 9872   7.852   6.965   8.759  0.4329 -0.5436  0.1624
 2903SOL    HW2 9873   7.736   6.972   8.856 -0.6810  1.2290 -1.2075
 2904SOL     OW 9874   6.773   3.328   6.729  0.3871 -0.3471 -0.1353
 2904SOL    HW1 9875   6.699   3.387   6.745  0.5451 -0.3844  0.7793
 2904SOL    HW2 9876   6.746   3.276   6.654  0.3190  1.0083 -1.0943
 2905SOL     OW 9877   6.586   7.849   7.477  0.6313  0.6992  0.2434
 2905SOL    HW1 9878   6.672   7.864   7.440  0.4930  1.8120  0.3520
 2905SOL    HW2 9879   6.577   7.754   7.478  3.0976  0.3365  2.9994
 2906SOL     OW 9880   7.387   6.531   0.960  0.1617  0.1631 -0.2887
 2906SOL    HW1 9881   7.364   6.521   0.868  0.2488 -1.4804 -0.1581
 2906SOL    HW2 9882   7.432   6.450   0.983  0.1388  0.5347  1.2097
 2907SOL     OW 9883   7.879   8.442   6.436  0.1959  0.5720 -0.0403
 2907SOL    HW1 9884   7.906   8.360   6.395 -1.6293  1.1460 -2.6358
 2907SOL    HW2 9885   7.935   8.508   6.397 -0.7759  0.9730 -0.8163
 2908SOL     OW 9886   3.599   6.140   1.847  0.2103  0.3421 -0.3894
 2908SOL    HW1 9887   3.669   6.195   1.883  0.3147 -0.0417 -0.0090
 2908SOL    HW2 9888   3.617   6.052   1.880 -0.8589  0.3637  0.3027
 2909SOL     OW 9889   7.583   4.497   3.742 -0.4484 -0.3244 -0.1737
 2909SOL    HW1 9890   7.561   4.446   3.821 -0.9934 -0.7153 -0.5649
 2909SOL    HW2 9891   7.503   4.493   3.689 -1.2797  2.6587  0.6507
 2910SOL     OW 9892   1.754   2.153   2.690  0.6437 -0.4259  0.0547
 2910SOL    HW1 9893   1.696   2.085   2.724 -1.5936  0.5688 -1.4734
 2910SOL    HW2 9894   1.769   2.212   2.764  0.1539 -1.0156  0.6332
 2911SOL     OW 9895   7.585   5.865   6.361 -0.2684  0.5126 -0.5870
 2911SOL    HW1 9896   7.625   5.838   6.278  0.8322 -1.1846  0.4413
 2911SOL    HW2 9897   7.513   5.804   6.374  0.1915  0.1171  0.1749
 2912SOL     OW 9898   1.029   7.695   0.347 -0.7891 -0.0534  0.3901
 2912SOL    HW1 9899   1.077   7.679   0.266  1.1876 -0.9058  1.6414
 2912SOL    HW2 9900   0.937   7.682   0.324 -0.1570 -1.9469 -1.3473
 2913SOL     OW 9901   0.758   7.633   5.890 -0.4930  0.7744 -0.6600
 2913SOL    HW1 9902   0.736   7.703   5.950  0.0533  1.4872 -1.2635
 2913SOL    HW2 9903   0.788   7.678   5.811 -0.3206 -0.1384 -1.1316
 2914SOL     OW 9904   0.247   3.554   4.928 -0.0989  0.3398  0.4248
 2914SOL    HW1 9905   0.281   3.474   4.888  3.2354  0.8208  1.9723
 2914SOL    HW2 9906   0.199   3.524   5.005  1.9187 -0.2535  1.5363
 2915SOL     OW 9907   2.654   5.803   8.763  0.2997  0.4890  0.2307
 2915SOL    HW1 9908   2.587   5.863   8.796 -1.7447 -0.5151 -1.8663
 2915SOL    HW2 9909   2.705   5.856   8.701 -0.4181  0.5112 -0.3492
 2916SOL     OW 9910   0.776   7.430   4.129  0.1410 -0.3463  0.2872
 2916SOL    HW1 9911   0.812   7.518   4.116  0.2501 -0.3154  0.7754
 2916SOL    HW2 9912   0.777   7.418   4.224  2.2274 -1.7429  0.1409
 2917SOL     OW 9913   4.097   2.940   7.346 -0.0960 -0.1386 -0.2793
 2917SOL    HW1 9914   4.007   2.923   7.320  0.1415 -2.9308  0.4070
 2917SOL    HW2 9915   4.141   2.970   7.266 -1.0955 -1.1015 -1.2167
 2918SOL     OW 9916   7.234   2.769   4.809  0.0199  0.0349  0.2548
 2918SOL    HW1 9917   7.161   2.831   4.812 -0.1948 -0.1907 -0.1807
 2918SOL    HW2 9918   7.304   2.813   4.857  0.1077  0.9390 -0.6551
 2919SOL     OW 9919   7.648   5.892   0.993 -0.2998  0.3850  0.0268
 2919SOL    HW1 9920   7.559   5.924   0.979 -0.5249 -0.7782 -1.4945
 2919SOL    HW2 9921   7.675   5.858   0.908  1.1086 -0.5097  0.7834
 2920SOL     OW 9922   0.249   0.070   5.068 -0.3625  0.1079  0.0282
 2920SOL    HW1 9923   0.271   0.138   5.005 -1.0405 -0.9521 -1.4359
 2920SOL    HW2 9924   0.154   0.077   5.080 -0.2098  0.4531  1.1449
 2921SOL     OW 9925   5.515   2.448   5.590  0.0495  0.1398 -0.2860
 2921SOL    HW1 9926   5.604   2.476   5.612 -0.0300  0.4339 -0.3311
 2921SOL    HW2 9927   5.459   2.499   5.648 -0.2165  1.6453 -1.7981
 2922SOL     OW 9928   7.589   7.665   1.641 -0.0367 -0.1299  0.4254
 2922SOL    HW1 9929   7.556   7.679   1.730  0.2380 -0.3499  0.5642
 2922SOL    HW2 9930   7.603   7.570   1.636 -0.4734 -0.1757 -0.0035
 2923SOL     OW 9931   8.210   8.132   4.927  0.0196 -0.2447 -0.1521
 2923SOL    HW1 9932   8.162   8.073   4.868  0.3901 -0.4961 -0.2089
 2923SOL    HW2 9933   8.149   8.203   4.945 -1.0118 -1.4038  1.1339
 2924SOL     OW 9934   7.692   1.075   6.209  0.1730 -0.1672 -0.0362
 2924SOL    HW1 9935   7.703   1.167   6.186 -0.8154  0.4884  1.9361
 2924SOL    HW2 9936   7.629   1.042   6.144 -1.6807  1.3241  0.9184
 2925SOL     OW 9937   1.931   5.307   8.548  0.9782  0.4432 -0.6028
 2925SOL    HW1 9938   1.914   5.344   8.634  1.0198  0.0108 -0.4044
 2925SOL    HW2 9939   1.871   5.353   8.489 -2.1250 -2.0388  0.2930
 2926SOL     OW 9940   7.135   2.860   4.115 -0.0515  0.5503  0.4066
 2926SOL    HW1 9941   7.217   2.816   4.091  0.0127  0.3377  0.9993
 2926SOL    HW2 9942   7.156   2.905   4.198 -0.7349 -0.0882  0.9356
 2927SOL     OW 9943   6.802   7.905   2.189 -0.0180  0.1211 -0.4202
 2927SOL    HW1 9944   6.876   7.937   2.137  0.8791 -1.5335 -0.2095
 2927SOL    HW2 9945   6.835   7.827   2.233 -2.2874 -1.5398 -1.4669
 2928SOL     OW 9946   4.897   3.851   7.078 -0.1138 -0.0008  0.3566
 2928SOL    HW1 9947   4.986   3.828   7.050  0.0458  0.1556  0.7410
 2928SOL    HW2 9948   4.854   3.881   6.997 -0.2599 -1.4127 -0.1266
 2929SOL     OW 9949   4.757   0.394   1.988 -0.2322  0.5146 -0.3679
 2929SOL    HW1 9950   4.762   0.322   2.050 -0.5187 -1.0089 -2.0368
 2929SOL    HW2 9951   4.713   0.464   2.036  0.2421 -0.3394  1.3634
 2930SOL     OW 9952   6.379   0.901   8.444 -0.0420  0.0487  0.7124
 2930SOL    HW1 9953   6.420   0.897   8.531  0.0125  1.6126  0.7965
 2930SOL    HW2 9954   6.448   0.937   8.388  0.3960 -2.2625 -0.3276
 2931SOL     OW 9955   0.424   4.498   0.211  0.0979  0.3640 -0.1182
 2931SOL    HW1 9956   0.372   4.544   0.277  1.3420  0.1823  1.0156
 2931SOL    HW2 9957   0.396   4.537   0.128 -4.0924 -1.8118  0.0293
 2932SOL     OW 9958   5.991   0.531   4.009 -0.6300 -0.3584  0.8030
 2932SOL    HW1 9959   5.996   0.621   3.978 -1.6622 -0.9092 -1.1172
 2932SOL    HW2 9960   5.906   0.525   4.054 -0.4298 -0.3185  1.1960
 2933SOL     OW 9961   2.743   1.719   5.571 -0.7188  0.0482 -0.0068
 2933SOL    HW1 9962   2.714   1.765   5.492 -2.2036 -0.9938 -0.1120
 2933SOL    HW2 9963   2.713   1.773   5.643 -0.2770  0.4759 -0.1370
 2934SOL     OW 9964   1.448   0.501   2.747  0.6584  0.6030 -0.1049
 2934SOL    HW1 9965   1.516   0.514   2.681  0.8927  1.7286  0.3299
 2934SOL    HW2 9966   1.469   0.564   2.816 -0.0975  0.0758  0.6355
 2935SOL     OW 9967   4.888   4.977   3.569  0.2623 -0.4097 -0.2201
 2935SOL    HW1 9968   4.943   5.054   3.583 -0.9150  0.3455  0.4752
 2935SOL    HW2 9969   4.826   4.979   3.641  0.3031 -2.1297 -0.0952
 2936SOL     OW 9970   2.335   6.165   8.644 -0.0696  0.2251 -0.2941
 2936SOL    HW1 9971   2.245   6.193   8.630  0.2597  0.4500 -2.1359
 2936SOL    HW2 9972   2.362   6.212   8.723 -1.1924  1.0440 -0.3765
 2937SOL     OW 9973   4.355   4.061   3.824  0.3383 -0.4508 -0.0810
 2937SOL    HW1 9974   4.286   4.005   3.860  0.8722 -0.7637  0.4793
 2937SOL    HW2 9975   4.424   4.059   3.890 -0.0490  1.7320  0.4682
 2938SOL     OW 9976   3.139   5.284   0.749 -0.0005 -0.0841  0.1380
 2938SOL    HW1 9977   3.093   5.223   0.808  1.4269 -1.3366 -0.0124
 2938SOL    HW2 9978   3.230   5.255   0.750  0.9847  2.7131  0.9111
 2939SOL     OW 9979   0.755   0.145   2.663 -0.4629  1.1219  0.7578
 2939SOL    HW1 9980   0.740   0.112   2.575 -2.5001  0.8336  1.1661
 2939SOL    HW2 9981   0.835   0.101   2.692 -1.5495 -1.3398  0.2488
 2940SOL     OW 9982   0.469   4.940   3.747  0.1027  0.3195  0.1758
 2940SOL    HW1 9983   0.400   4.964   3.809 -0.3546 -1.9426  0.6408
 2940SOL    HW2 9984   0.423   4.932   3.663  0.9402  4.6894 -0.9466
 2941SOL     OW 9985   8.032   0.985   6.635 -0.1968 -0.3473  0.3736
 2941SOL    HW1 9986   7.966   0.972   6.567  0.2299 -0.3002 -0.0545
 2941SOL    HW2 9987   7.984   0.975   6.717 -0.7636 -0.1746  0.0671
 2942SOL     OW 9988   7.115   2.311   7.808 -0.5076  0.3613 -0.1574
 2942SOL    HW1 9989   7.186   2.307   7.872 -1.4791 -0.3100  0.9149
 2942SOL    HW2 9990   7.138   2.243   7.744  0.5181  1.1000 -0.6088
 2943SOL     OW 9991   2.357   4.058   4.301  0.1063  0.3407 -0.2798
 2943SOL    HW1 9992   2.291   3.990   4.312  0.1721  0.1900 -0.7616
 2943SOL    HW2 9993   2.308   4.140   4.301  0.0292  0.2941  0.3302
 2944SOL     OW 9994   7.694   7.345   2.229  0.2727 -0.4868  0.3802
 2944SOL    HW1 9995   7.754   7.421   2.226  0.3085 -0.4936  0.9040
 2944SOL    HW2 9996   7.621   7.374   2.284 -0.0956 -0.5634 -0.0643
 2945SOL     OW 9997   3.567   2.522   4.354  0.3454  0.0241  0.5275
 2945SOL    HW1 9998   3.494   2.527   4.416  0.4430 -0.1660  0.6592
 2945SOL    HW2 9999   3.645   2.526   4.408  0.4306 -0.4555  0.4466
 2946SOL     OW10000   4.631   1.659   1.641  0.0115 -0.3296  0.5644
 2946SOL    HW110001   4.591   1.642   1.556  0.2048  0.8907  0.2240
 2946SOL    HW210002   4.631   1.754   1.650  1.6494 -0.3593  1.1371
 2947SOL     OW10003   2.628   3.850   7.616  0.1198  0.2604  0.0089
 2947SOL    HW110004   2.553   3.794   7.596  0.4725  0.1332 -1.0036
 2947SOL    HW210005   2.612   3.879   7.706 -0.7295 -0.4116  0.0967
 2948SOL     OW10006   8.811   3.227   2.808 -0.0168 -0.0099 -0.0868
 2948SOL    HW110007   8.896   3.199   2.843  0.1615  0.6920  0.0431
 2948SOL    HW210008   8.769   3.145   2.782  0.1215 -0.5000  1.1348
 2949SOL     OW10009   7.014   3.714   5.626 -0.2828  0.1404  0.0744
 2949SOL    HW110010   6.957   3.734   5.700  0.8309  1.5127  0.6027
 2949SOL    HW210011   6.998   3.785   5.564  0.8231  0.5229  0.2175
 2950SOL     OW10012   8.136   2.428   2.801  0.0157 -0.3937 -0.0708
 2950SOL    HW110013   8.230   2.444   2.811 -0.2756  1.3606  0.2106
 2950SOL    HW210014   8.130   2.369   2.726  1.3068 -0.0326 -0.4959
 2951SOL     OW10015   4.966   8.615   1.322  0.4882  0.2248 -0.2905
 2951SOL    HW110016   4.953   8.690   1.264 -0.9023  0.2433  0.0213
 2951SOL    HW210017   5.047   8.574   1.289  0.5803  1.1278 -1.2504
 2952SOL     OW10018   5.696   6.447   2.234 -0.3630  0.0323  0.0962
 2952SOL    HW110019   5.601   6.465   2.239 -0.9068 -1.8768 -2.0520
 2952SOL    HW210020   5.733   6.530   2.203 -1.4232  0.5569  0.1460
 2953SOL     OW10021   4.899   4.362   4.989  0.4548  0.0536  0.6205
 2953SOL    HW110022   4.826   4.418   4.965  0.4729 -0.5854 -1.0716
 2953SOL    HW210023   4.974   4.422   4.996  0.3500  0.3352 -0.5350
 2954SOL     OW10024   2.379   5.370   7.441 -0.0069  0.1167 -0.2521
 2954SOL    HW110025   2.320   5.430   7.487 -0.2394 -0.3641  0.0822
 2954SOL    HW210026   2.380   5.291   7.495  0.4114 -0.1278 -0.6137
 2955SOL     OW10027   6.263   6.011   5.518  0.0248 -0.9104  0.0892
 2955SOL    HW110028   6.347   6.033   5.560 -0.3344 -1.5961  1.2124
 2955SOL    HW210029   6.202   6.000   5.591 -1.1174 -0.1679 -0.7331
 2956SOL     OW10030   0.682   4.304   1.398  0.5293  0.2176 -0.1001
 2956SOL    HW110031   0.596   4.340   1.377  1.2250  1.2357 -1.3460
 2956SOL    HW210032   0.684   4.219   1.353 -0.0112 -0.0354  0.3554
 2957SOL     OW10033   2.805   2.936   8.434  0.5193 -0.0975  0.2488
 2957SOL    HW110034   2.719   2.905   8.462  1.6896 -2.4499  1.5103
 2957SOL    HW210035   2.798   3.032   8.438 -1.7620 -0.2364  1.1481
 2958SOL     OW10036   3.726   3.778   6.889  0.6369 -0.5421 -0.4924
 2958SOL    HW110037   3.806   3.792   6.838  0.7135  0.5258 -0.0912
 2958SOL    HW210038   3.664   3.844   6.857  1.3587  1.6080  2.1737
 2959SOL     OW10039   3.347   5.448   5.229 -0.0586  0.0496 -0.1216
 2959SOL    HW110040   3.401   5.432   5.307  0.8403 -0.8533 -0.9071
 2959SOL    HW210041   3.273   5.388   5.239 -0.0355  0.0622  0.1285
 2960SOL     OW10042   3.986   5.388   0.418  0.2370 -0.0255  0.9426
 2960SOL    HW110043   3.912   5.337   0.384 -0.5585  0.6367  1.6504
 2960SOL    HW210044   4.016   5.339   0.494  0.7538 -0.4620  0.4736
 2961SOL     OW10045   7.270   3.012   7.842  0.5711  0.2117  0.1978
 2961SOL    HW110046   7.244   3.044   7.929  5.5510  0.0173  2.0949
 2961SOL    HW210047   7.234   2.923   7.839 -0.7270  0.6380  1.4518
 2962SOL     OW10048   4.885   0.458   3.429  0.3429  0.1824  0.2333
 2962SOL    HW110049   4.944   0.396   3.473 -0.4298  0.1101  1.2158
 2962SOL    HW210050   4.916   0.544   3.458 -1.0649  0.1001  2.2153
 2963SOL     OW10051   0.548   4.159   0.838  0.4451  0.1015  0.2514
 2963SOL    HW110052   0.561   4.098   0.766  0.8030  0.1010  0.3155
 2963SOL    HW210053   0.632   4.162   0.883  0.2875  0.2681  0.5398
 2964SOL     OW10054   7.205   8.563   2.681 -0.2460 -0.8038  0.3920
 2964SOL    HW110055   7.173   8.484   2.724 -3.7125  0.3280  0.1912
 2964SOL    HW210056   7.163   8.563   2.595  2.0703 -0.1819 -0.8275
 2965SOL     OW10057   3.240   1.693   2.571  0.0634  0.2583  0.1313
 2965SOL    HW110058   3.236   1.666   2.662 -1.7342  1.1295  0.3741
 2965SOL    HW210059   3.314   1.645   2.534  1.9319  1.1697  2.4332
 2966SOL     OW10060   3.009   1.595   2.405  0.4168  0.1660 -0.3481
 2966SOL    HW110061   2.956   1.536   2.458  1.4587 -0.6288 -0.1552
 2966SOL    HW210062   3.087   1.613   2.459  0.1845  1.6404 -0.4480
 2967SOL     OW10063   3.785   6.486   7.331  0.2321 -0.2845 -0.2215
 2967SOL    HW110064   3.826   6.419   7.276 -0.8336 -0.2459 -1.1004
 2967SOL    HW210065   3.811   6.569   7.291  2.2849 -0.0648  1.3768
 2968SOL     OW10066   4.527   8.510   1.548  0.0950  0.1818  0.0786
 2968SOL    HW110067   4.539   8.564   1.626  0.8358 -0.4929  0.4479
 2968SOL    HW210068   4.609   8.461   1.540  0.2505  0.6739 -1.4713
 2969SOL     OW10069   8.161   3.127   4.825  0.7471  0.5567  0.1771
 2969SOL    HW110070   8.227   3.076   4.777  0.2223  0.7221 -0.7407
 2969SOL    HW210071   8.085   3.130   4.766  0.0198  0.6131  1.1010
 2970SOL     OW10072   1.059   5.126   6.218 -0.7068  0.0207 -0.1524
 2970SOL    HW110073   0.992   5.194   6.207  0.5078  1.1097 -1.0046
 2970SOL    HW210074   1.037   5.085   6.302 -1.1597  1.8253  0.6572
 2971SOL     OW10075   0.560   1.588   5.919  0.3232 -0.0597  0.2814
 2971SOL    HW110076   0.526   1.534   5.990 -0.9819 -0.0089 -0.2906
 2971SOL    HW210077   0.655   1.573   5.921  0.1872 -0.8464  1.3732
 2972SOL     OW10078   3.811   6.876   7.637 -0.4924 -0.6246 -0.2938
 2972SOL    HW110079   3.725   6.889   7.596 -0.9773  0.2638  0.9459
 2972SOL    HW210080   3.811   6.784   7.664 -0.4231 -1.0479 -1.6401
 2973SOL     OW10081   6.782   3.731   4.170  0.6405  0.1004  0.2827
 2973SOL    HW110082   6.774   3.638   4.152 -0.0406  0.3803 -1.0025
 2973SOL    HW210083   6.716   3.749   4.237 -0.2579 -0.0991 -0.5187
 2974SOL     OW10084   8.384   7.947   2.056  0.2247 -0.5947 -0.2169
 2974SOL    HW110085   8.387   7.930   2.150 -0.1912 -1.5121 -0.3581
 2974SOL    HW210086   8.470   7.985   2.035 -0.0334  0.5295  0.6869
 2975SOL     OW10087   1.052   4.677   5.878  0.1031  0.3478  0.0526
 2975SOL    HW110088   1.113   4.604   5.885  0.8825  0.9320 -0.4441
 2975SOL    HW210089   0.966   4.638   5.894  0.6375 -0.3965  1.3447
 2976SOL     OW10090   1.281   1.577   4.629 -0.1432  0.3854  0.5147
 2976SOL    HW110091   1.234   1.571   4.546  0.5934  1.9888 -0.0669
 2976SOL    HW210092   1.358   1.520   4.617  0.3082  1.1154 -0.1765
 2977SOL     OW10093   7.728   6.472   6.701  0.2616 -0.4553 -0.4461
 2977SOL    HW110094   7.692   6.537   6.641 -0.0715 -0.8107 -0.6363
 2977SOL    HW210095   7.798   6.518   6.746  1.2590 -0.4960 -1.8867
 2978SOL     OW10096   0.021   4.528   8.760 -0.3608  0.6958  0.0586
 2978SOL    HW110097  -0.056   4.470   8.763  0.4539 -0.5997 -1.6730
 2978SOL    HW210098   0.093   4.473   8.790  0.3205  1.0317 -0.9262
 2979SOL     OW10099   7.379   2.080   2.873  0.2626 -0.0508  0.0967
 2979SOL    HW110100   7.330   2.006   2.838  0.0292  0.1863 -0.0784
 2979SOL    HW210101   7.427   2.044   2.948 -0.2507 -0.2677  0.3280
 2980SOL     OW10102   4.409   6.347   5.415 -0.4319  0.4132 -0.1070
 2980SOL    HW110103   4.346   6.410   5.450 -0.3056  0.6807 -0.3501
 2980SOL    HW210104   4.394   6.348   5.321  0.0684  0.6292 -0.1887
 2981SOL     OW10105   7.631   5.977   1.272 -0.2999  0.0547 -0.2245
 2981SOL    HW110106   7.603   5.889   1.297 -1.2571  0.3535 -0.1786
 2981SOL    HW210107   7.639   5.974   1.177  1.0094 -0.4380 -0.1204
 2982SOL     OW10108   5.290   5.321   6.597 -0.3699  0.3493  0.3661
 2982SOL    HW110109   5.221   5.254   6.601 -1.1098  0.9958 -0.7950
 2982SOL    HW210110   5.307   5.331   6.503  0.8536  0.6738  0.6087
 2983SOL     OW10111   1.595   5.761   3.963  0.5203 -0.0431 -0.0627
 2983SOL    HW110112   1.522   5.706   3.991  0.5594 -0.5327 -0.9087
 2983SOL    HW210113   1.662   5.747   4.030  0.3936 -0.7302 -0.0770
 2984SOL     OW10114   3.604   7.794   8.025  1.0296  0.2623 -0.6007
 2984SOL    HW110115   3.544   7.844   7.970  0.2784 -1.1346 -1.0706
 2984SOL    HW210116   3.584   7.824   8.114 -0.5730 -0.3677 -0.7174
 2985SOL     OW10117   7.602   2.947   2.444  0.1467 -0.0459  0.2126
 2985SOL    HW110118   7.514   2.914   2.424 -0.1756 -0.0458  1.5339
 2985SOL    HW210119   7.658   2.907   2.377 -0.6187 -1.2864  0.2640
 2986SOL     OW10120   2.227   5.864   3.045 -0.1510 -0.0061  0.4039
 2986SOL    HW110121   2.300   5.851   3.106 -0.8345 -0.3954  1.1716
 2986SOL    HW210122   2.150   5.831   3.093 -0.7777  0.0888 -0.5080
 2987SOL     OW10123   0.288   2.859   2.907 -0.2093 -0.4070 -0.0634
 2987SOL    HW110124   0.325   2.773   2.925  0.5139 -0.0749  0.0739
 2987SOL    HW210125   0.197   2.842   2.883 -0.7653 -1.0108  2.2605
 2988SOL     OW10126   0.799   3.813   4.072  0.3429  0.3971 -0.7614
 2988SOL    HW110127   0.735   3.799   4.142  2.5098  0.3069  1.3374
 2988SOL    HW210128   0.784   3.741   4.011 -0.9421 -0.1240  0.1180
 2989SOL     OW10129   7.297   7.939   7.725  0.4643 -0.2351 -0.0616
 2989SOL    HW110130   7.253   7.915   7.643  1.2003  1.0795 -0.8675
 2989SOL    HW210131   7.362   8.004   7.699  0.3489  0.6106  1.6528
 2990SOL     OW10132   4.533   0.709   7.531  0.6117 -0.2237  0.4264
 2990SOL    HW110133   4.456   0.759   7.559  1.4802  1.2733  0.2752
 2990SOL    HW210134   4.524   0.624   7.573 -1.2450 -0.1680  0.1997
 2991SOL     OW10135   1.567   6.815   1.291 -0.5956 -0.5288 -0.4631
 2991SOL    HW110136   1.487   6.762   1.299 -0.3360 -0.8075  0.4664
 2991SOL    HW210137   1.535   6.904   1.275 -1.1783 -0.3388  1.4773
 2992SOL     OW10138   0.442   5.844   2.332 -0.0616 -0.0051 -0.5401
 2992SOL    HW110139   0.537   5.854   2.343 -0.1391  0.5181 -0.3028
 2992SOL    HW210140   0.427   5.860   2.239  0.7129 -5.3255 -1.9189
 2993SOL     OW10141   5.025   4.122   5.686  0.0433  0.2326 -0.3399
 2993SOL    HW110142   5.055   4.103   5.775  0.3645  0.0347 -0.4912
 2993SOL    HW210143   5.091   4.181   5.650  0.0390  0.1215 -0.5307
 2994SOL     OW10144   8.378   0.975   7.052 -0.7686  0.0680 -0.4144
 2994SOL    HW110145   8.415   0.985   7.140 -0.6496 -0.5735 -0.3888
 2994SOL    HW210146   8.333   0.891   7.054 -1.2001  0.2847 -0.8178
 2995SOL     OW10147   0.998   0.320   0.879 -0.1758 -0.3555 -0.1152
 2995SOL    HW110148   1.014   0.349   0.790  0.4217 -0.8657 -0.1750
 2995SOL    HW210149   0.952   0.236   0.870 -2.6502  0.8740  0.0473
 2996SOL     OW10150   8.544   8.338   1.680 -0.3040 -0.4007  0.4379
 2996SOL    HW110151   8.607   8.272   1.710  0.2437  0.1035  0.4302
 2996SOL    HW210152   8.459   8.295   1.686  0.0667 -1.1931  0.1880
 2997SOL     OW10153   3.929   2.189   4.960  0.5318  0.9656 -0.1342
 2997SOL    HW110154   3.914   2.178   4.867  0.5988  0.1192 -0.0607
 2997SOL    HW210155   4.015   2.149   4.975 -0.5382 -1.1927  0.6685
 2998SOL     OW10156   0.195   2.352   7.217  0.2029 -0.1943 -0.0076
 2998SOL    HW110157   0.236   2.271   7.187  1.1705  0.1333  0.3968
 2998SOL    HW210158   0.103   2.329   7.230  0.6601 -1.5276  1.1573
 2999SOL     OW10159   4.071   2.453   0.375  0.8995  0.0526 -0.3151
 2999SOL    HW110160   4.055   2.447   0.469 -0.2209 -0.5582 -0.5247
 2999SOL    HW210161   4.164   2.436   0.365  1.1821  0.8606  0.7415
 3000SOL     OW10162   6.086   3.899   6.635 -0.4571  0.1016 -0.4540
 3000SOL    HW110163   6.007   3.908   6.688 -0.6595 -2.1169 -0.2885
 3000SOL    HW210164   6.147   3.850   6.691 -0.0138 -0.6823 -1.5819
 3001SOL     OW10165   0.056   7.169   1.110 -0.0814  0.3221 -0.7221
 3001SOL    HW110166   0.005   7.135   1.184  0.2877  1.9676  0.3177
 3001SOL    HW210167   0.024   7.258   1.097 -0.6445 -0.1516 -3.0425
 3002SOL     OW10168   2.090   5.690   3.230 -0.1680 -0.1207  0.4031
 3002SOL    HW110169   2.106   5.598   3.248  2.7114  0.3686  0.7580
 3002SOL    HW210170   2.105   5.734   3.314  1.7574  0.9532 -0.4320
 3003SOL     OW10171   2.382   8.262   7.972  0.6409 -0.0719 -0.2991
 3003SOL    HW110172   2.308   8.318   7.996  0.2969  0.0620 -1.6166
 3003SOL    HW210173   2.342   8.186   7.930  1.2702  0.9815 -3.0193
 3004SOL     OW10174   8.064   1.536   3.354  0.0185 -0.0555  0.0506
 3004SOL    HW110175   8.118   1.608   3.387  2.1115 -2.1110  1.4312
 3004SOL    HW210176   8.078   1.536   3.260  1.9009 -0.0563  0.2951
 3005SOL     OW10177   5.086   6.743   6.848 -0.5618  0.4942 -0.2951
 3005SOL    HW110178   5.038   6.802   6.907  0.9870  2.1828 -0.6345
 3005SOL    HW210179   5.020   6.681   6.818 -2.1143  1.5930  0.6771
 3006SOL     OW10180   3.747   2.465   4.563 -0.1535  0.1653 -0.0202
 3006SOL    HW110181   3.842   2.461   4.575 -0.1669 -0.8960 -0.1420
 3006SOL    HW210182   3.717   2.529   4.626  0.7591  1.2950 -0.7021
 3007SOL     OW10183   4.392   4.079   1.163  0.5096 -0.1166 -0.8104
 3007SOL    HW110184   4.361   4.130   1.088 -2.4678 -2.4769 -1.4046
 3007SOL    HW210185   4.429   3.999   1.124 -1.6799 -1.6769  0.1233
 3008SOL     OW10186   7.082   0.345   5.291 -0.4126  0.0548 -0.7783
 3008SOL    HW110187   7.003   0.383   5.327 -0.6248  0.8587 -2.0197
 3008SOL    HW210188   7.115   0.286   5.359 -2.4265 -0.8030 -0.4860
 3009SOL     OW10189   0.023   8.431   4.594 -0.2788 -0.1424 -0.0307
 3009SOL    HW110190  -0.002   8.338   4.598 -1.0774 -0.0176 -1.5002
 3009SOL    HW210191   0.018   8.453   4.501 -1.4739  1.7213  0.4198
 3010SOL     OW10192   0.214   8.286   0.387  0.0766 -0.1400 -0.4276
 3010SOL    HW110193   0.139   8.272   0.445 -0.2590 -1.2964 -1.1183
 3010SOL    HW210194   0.188   8.248   0.304  1.1752  0.0540 -0.8815
 3011SOL     OW10195   3.045   0.032   3.110 -0.1571  0.0057  0.1503
 3011SOL    HW110196   3.067  -0.058   3.087  1.4663  0.6266 -0.9512
 3011SOL    HW210197   3.129   0.075   3.122 -0.8323  1.6903 -0.6853
 3012SOL     OW10198   2.001   7.528   5.605  0.2207  0.0976 -0.4025
 3012SOL    HW110199   1.938   7.461   5.632  1.9445 -2.1051 -1.4663
 3012SOL    HW210200   2.051   7.486   5.535  1.3657  2.5718 -1.1738
 3013SOL     OW10201   7.504   5.330   8.228 -0.4206 -0.1634  1.0133
 3013SOL    HW110202   7.490   5.254   8.284  0.1289 -2.9066 -2.2309
 3013SOL    HW210203   7.597   5.350   8.237 -0.0082 -1.5051  0.2004
 3014SOL     OW10204   1.858   5.748   4.155 -0.1571  0.0761 -0.1433
 3014SOL    HW110205   1.880   5.676   4.096 -0.0926 -0.9920  1.1474
 3014SOL    HW210206   1.883   5.827   4.106  0.7094 -0.8126 -1.1896
 3015SOL     OW10207   6.169   7.254   2.949  0.0719 -0.0411 -0.0718
 3015SOL    HW110208   6.234   7.186   2.968  0.7622  0.1208 -1.6740
 3015SOL    HW210209   6.205   7.301   2.874 -0.2064  2.3724  1.2221
 3016SOL     OW10210   6.832   4.769   6.860 -0.1175  0.0015  0.9514
 3016SOL    HW110211   6.823   4.829   6.785 -0.0719 -2.8289 -1.5147
 3016SOL    HW210212   6.742   4.754   6.889 -0.4507 -1.1550 -0.5633
 3017SOL     OW10213   4.960   1.764   5.655  0.0950 -0.2718 -0.5679
 3017SOL    HW110214   4.958   1.778   5.750  0.7329 -2.4768 -0.1827
 3017SOL    HW210215   5.039   1.810   5.626 -0.1993  0.5717 -0.0840
 3018SOL     OW10216   0.965   7.791   2.182  0.5342 -0.0521 -0.2029
 3018SOL    HW110217   0.886   7.779   2.130  0.9390  3.2218 -1.7754
 3018SOL    HW210218   1.036   7.759   2.126  0.5826 -0.7897  0.2588
 3019SOL     OW10219   6.188   0.504   3.623  0.2364  0.0312  0.1259
 3019SOL    HW110220   6.210   0.598   3.621  0.0349  0.0955  0.7101
 3019SOL    HW210221   6.245   0.468   3.691 -0.2055 -0.1309  0.4143
 3020SOL     OW10222   3.986   0.207   6.073  0.3057  0.5466  0.2848
 3020SOL    HW110223   3.927   0.157   6.130  1.1699  3.1127  3.7818
 3020SOL    HW210224   4.073   0.177   6.097  0.6940 -0.7794 -2.3871
 3021SOL     OW10225   3.834   6.293   5.353  0.0377 -0.5852 -0.6880
 3021SOL    HW110226   3.861   6.263   5.440 -0.7958  1.6938  0.4414
 3021SOL    HW210227   3.913   6.333   5.316 -0.1746  0.5727  0.0549
 3022SOL     OW10228   0.318   4.872   1.844  0.4203  0.2520  0.2636
 3022SOL    HW110229   0.396   4.862   1.790  0.4088 -1.0115  0.4333
 3022SOL    HW210230   0.341   4.938   1.909  0.5381  1.5810 -1.0719
 3023SOL     OW10231   7.870   5.561   7.399 -0.2526 -0.1331 -0.7220
 3023SOL    HW110232   7.800   5.626   7.401  0.2036  0.3807  1.3281
 3023SOL    HW210233   7.935   5.594   7.461  1.7584 -0.6792 -2.4558
 3024SOL     OW10234   0.114   6.509   2.820 -0.2204  0.0324 -0.4332
 3024SOL    HW110235   0.100   6.418   2.843  0.4511 -0.5708 -2.2335
 3024SOL    HW210236   0.210   6.518   2.817 -0.1959  1.4572  2.0423
 3025SOL     OW10237   2.185   8.598   6.982 -0.3259 -0.1146 -0.7122
 3025SOL    HW110238   2.135   8.659   6.927 -0.1558 -1.1056 -2.0173
 3025SOL    HW210239   2.170   8.513   6.942 -1.2833 -1.1054  1.5870
 3026SOL     OW10240   2.687   2.785   3.706  0.5867  0.6865 -0.4475
 3026SOL    HW110241   2.766   2.756   3.661  0.9855  0.9439  0.0823
 3026SOL    HW210242   2.696   2.751   3.795 -0.9049 -1.1458 -0.9256
 3027SOL     OW10243   1.177   0.318   8.194 -0.5940  0.5332 -0.2704
 3027SOL    HW110244   1.135   0.401   8.218 -0.1987  1.0266 -1.1981
 3027SOL    HW210245   1.176   0.318   8.098  1.0998  0.3690 -0.3189
 3028SOL     OW10246   7.721   4.205   5.601 -0.2144  0.1998 -0.0962
 3028SOL    HW110247   7.769   4.216   5.683 -1.3357  1.4455  0.4225
 3028SOL    HW210248   7.737   4.114   5.576 -0.5212 -0.4637  1.9524
 3029SOL     OW10249   2.517   8.826   1.965 -0.2772 -0.4074 -0.5795
 3029SOL    HW110250   2.513   8.921   1.949 -0.0977 -0.3368 -0.2209
 3029SOL    HW210251   2.426   8.799   1.973 -0.2896  0.0193  0.9200
 3030SOL     OW10252   0.769   5.368   1.953 -0.1655 -0.0170 -0.4514
 3030SOL    HW110253   0.702   5.308   1.985  0.0664 -0.3622 -0.6007
 3030SOL    HW210254   0.728   5.454   1.956 -0.3568 -0.1259  0.1764
 3031SOL     OW10255   7.866   4.684   8.231  0.2554  0.0928  0.1447
 3031SOL    HW110256   7.958   4.706   8.244  0.5448 -0.2451 -1.1357
 3031SOL    HW210257   7.830   4.677   8.319  1.3708  0.5583  0.6601
 3032SOL     OW10258   4.113   0.907   2.153 -0.7099  0.0232 -0.3625
 3032SOL    HW110259   4.181   0.839   2.153  1.1008  1.7324  1.0601
 3032SOL    HW210260   4.057   0.885   2.227  0.7732  0.8555  1.0643
 3033SOL     OW10261   2.922   3.243   3.717  0.1711  0.0681  0.5583
 3033SOL    HW110262   2.873   3.168   3.751  0.3325  0.5629  1.9478
 3033SOL    HW210263   2.940   3.220   3.626 -1.3599 -0.7720  0.4271
 3034SOL     OW10264   6.834   2.081   4.102  0.0327  0.4031 -0.1609
 3034SOL    HW110265   6.763   2.025   4.134  0.2958  0.0083 -0.2607
 3034SOL    HW210266   6.789   2.154   4.061 -0.3161  0.3860  0.1756
 3035SOL     OW10267   3.457   0.734   4.374  0.6933  0.1037 -0.9567
 3035SOL    HW110268   3.537   0.773   4.337  0.2468 -0.3506 -2.4886
 3035SOL    HW210269   3.427   0.797   4.439  2.8171 -0.1653  0.3910
 3036SOL     OW10270   7.444   8.508   2.812 -0.3374  0.1211  0.0948
 3036SOL    HW110271   7.490   8.452   2.750 -1.0217 -0.6241  0.2526
 3036SOL    HW210272   7.371   8.545   2.761 -1.3173 -1.0337  0.5960
 3037SOL     OW10273   0.854   2.434   4.328 -0.0739  0.2632 -0.4228
 3037SOL    HW110274   0.901   2.351   4.319  0.7385  0.8245 -1.6133
 3037SOL    HW210275   0.922   2.498   4.350 -0.9863  0.2679  2.8667
 3038SOL     OW10276   4.381   8.111   6.168  0.7412  0.0418  0.0035
 3038SOL    HW110277   4.286   8.099   6.165  0.9490 -1.5392 -1.2235
 3038SOL    HW210278   4.398   8.181   6.105  0.3703  0.5163  0.4253
 3039SOL     OW10279   5.858   3.563   3.784  0.2363  0.6855  1.1810
 3039SOL    HW110280   5.933   3.505   3.798 -0.5074  0.1607  3.2644
 3039SOL    HW210281   5.858   3.579   3.690  0.1065 -3.1740  0.3937
 3040SOL     OW10282   5.331   4.629   2.469  0.2774 -0.0332 -1.3488
 3040SOL    HW110283   5.243   4.648   2.499  0.7709 -0.4142  0.4745
 3040SOL    HW210284   5.319   4.585   2.385 -1.3065 -0.5907 -0.8651
 3041SOL     OW10285   4.375   6.296   3.165  0.6936  0.6019 -0.0535
 3041SOL    HW110286   4.328   6.367   3.208  1.5926  0.2141  1.6433
 3041SOL    HW210287   4.389   6.231   3.234 -0.2066 -1.3061 -1.5733
 3042SOL     OW10288   5.048   3.508   7.059 -0.2994  0.4367  0.1371
 3042SOL    HW110289   5.048   3.424   7.012 -0.3970  0.1401  0.6562
 3042SOL    HW210290   5.066   3.573   6.992 -0.8815  0.0633 -0.3966
 3043SOL     OW10291   8.544   3.254   5.470  0.2719  0.0631 -0.9125
 3043SOL    HW110292   8.565   3.303   5.390 -1.2000 -1.9998 -2.6939
 3043SOL    HW210293   8.450   3.236   5.463  0.4111 -1.4417  0.5329
 3044SOL     OW10294   1.679   3.465   4.452 -0.5474 -0.4132  0.0802
 3044SOL    HW110295   1.738   3.396   4.424 -0.0248 -0.3462  1.0045
 3044SOL    HW210296   1.688   3.468   4.547 -1.7271 -0.1206  0.1947
 3045SOL     OW10297   1.374   3.842   2.267 -0.2485  0.1442  0.3809
 3045SOL    HW110298   1.467   3.849   2.290 -0.0805 -0.2553 -0.1680
 3045SOL    HW210299   1.333   3.802   2.344  0.2194 -0.6967  0.2031
 3046SOL     OW10300   0.319   6.041   8.650 -0.0812  0.1222  0.1391
 3046SOL    HW110301   0.385   5.993   8.600  0.4019  2.5494 -1.7464
 3046SOL    HW210302   0.339   6.021   8.742  2.6997  0.0016 -0.3895
 3047SOL     OW10303   1.553   1.481   5.895 -0.4866 -0.7370  0.0880
 3047SOL    HW110304   1.641   1.465   5.929 -0.4933  0.1990  0.5924
 3047SOL    HW210305   1.566   1.550   5.829 -0.9093 -0.1567  0.6014
 3048SOL     OW10306   4.331   0.337   8.046 -0.2825  0.3183 -0.5174
 3048SOL    HW110307   4.362   0.263   7.993  0.5818  0.6865 -0.5444
 3048SOL    HW210308   4.383   0.411   8.016 -1.9435  1.2161 -1.3130
 3049SOL     OW10309   4.597   0.773   6.408 -0.2981 -0.0997 -0.3812
 3049SOL    HW110310   4.661   0.717   6.452 -0.7321  0.5667  1.1549
 3049SOL    HW210311   4.513   0.748   6.446 -0.9950 -0.9735 -2.3863
 3050SOL     OW10312   5.055   8.190   7.539  0.0662 -0.4701  0.2107
 3050SOL    HW110313   4.986   8.232   7.488  1.0948 -0.1936 -1.0051
 3050SOL    HW210314   5.032   8.209   7.630 -0.4619  1.2193 -0.2270
 3051SOL     OW10315   1.380   3.653   1.136 -0.2629  0.1328  0.0574
 3051SOL    HW110316   1.308   3.701   1.093 -0.3578 -1.1720 -1.3291
 3051SOL    HW210317   1.459   3.698   1.107 -0.3363 -0.6354 -1.4459
 3052SOL     OW10318   0.464   3.123   8.723  0.1774 -0.2837 -0.0867
 3052SOL    HW110319   0.406   3.053   8.753  0.6863 -1.7480 -2.2392
 3052SOL    HW210320   0.536   3.123   8.785 -1.4796  0.8127  1.9903
 3053SOL     OW10321   6.640   8.553   7.533 -0.2213 -0.3803  0.5455
 3053SOL    HW110322   6.652   8.481   7.471  0.2438  0.9256 -0.9592
 3053SOL    HW210323   6.687   8.526   7.611 -1.6594 -2.5248  0.7643
 3054SOL     OW10324   0.409   5.934   3.429  0.0095  0.1596  0.8620
 3054SOL    HW110325   0.321   5.920   3.465 -0.4410  0.7845  0.0400
 3054SOL    HW210326   0.418   6.029   3.422 -0.8969  0.1189 -2.8504
 3055SOL     OW10327   3.894   0.947   3.222 -0.4669  0.0831  0.1615
 3055SOL    HW110328   3.821   0.888   3.241 -1.1448  0.8990  0.1709
 3055SOL    HW210329   3.853   1.024   3.181  0.2950  0.8562  0.8036
 3056SOL     OW10330   5.846   6.947   7.456 -0.0080  0.2455 -0.3226
 3056SOL    HW110331   5.866   6.906   7.540  0.9230 -0.4304 -0.8545
 3056SOL    HW210332   5.932   6.970   7.420 -0.4589  2.0222 -0.3670
 3057SOL     OW10333   0.941   7.956   1.587  0.4181 -0.6181  0.0958
 3057SOL    HW110334   0.925   8.041   1.629 -2.9763 -1.7251  1.4047
 3057SOL    HW210335   1.035   7.957   1.566  1.0542  2.4382  2.2953
 3058SOL     OW10336   4.673   4.358   3.326 -0.5076 -0.0880 -0.2942
 3058SOL    HW110337   4.689   4.437   3.275 -1.8525 -0.4997 -1.4333
 3058SOL    HW210338   4.755   4.310   3.323  0.0814  0.8902 -0.2547
 3059SOL     OW10339   5.440   0.621   1.629 -0.2859  0.2412  0.1531
 3059SOL    HW110340   5.435   0.685   1.558 -1.7268 -1.1613 -1.0438
 3059SOL    HW210341   5.370   0.647   1.689 -0.7854 -0.1186 -0.2673
 3060SOL     OW10342   0.185   1.822   7.396 -0.0033 -0.3482 -0.5383
 3060SOL    HW110343   0.119   1.792   7.334 -0.5434 -1.1329  0.3779
 3060SOL    HW210344   0.141   1.891   7.446  0.3372  0.0905 -0.8379
 3061SOL     OW10345   2.431   8.301   3.584  0.4078 -0.8360  0.3090
 3061SOL    HW110346   2.517   8.261   3.601  0.1986 -1.2358  0.4455
 3061SOL    HW210347   2.423   8.368   3.651  1.4258  0.5043 -0.8528
 3062SOL     OW10348   1.754   8.032   8.153  0.3331 -0.0780 -0.0897
 3062SOL    HW110349   1.688   7.974   8.114  1.2917 -0.5802 -1.0086
 3062SOL    HW210350   1.719   8.120   8.138 -1.2978 -0.3748  1.6150
 3063SOL     OW10351   3.232   2.501   4.331  0.0622 -0.6270  0.1803
 3063SOL    HW110352   3.304   2.539   4.381  0.7013 -0.5276 -0.7880
 3063SOL    HW210353   3.260   2.411   4.314 -0.6757 -1.0177  0.9923
 3064SOL     OW10354   8.740   4.422   3.111 -0.0228 -0.6523  0.2239
 3064SOL    HW110355   8.810   4.395   3.171  1.2366  0.3340 -0.7255
 3064SOL    HW210356   8.691   4.488   3.160 -0.7046 -1.8157  1.1337
 3065SOL     OW10357   5.877   2.580   1.397  0.4519 -0.0893  0.3071
 3065SOL    HW110358   5.905   2.491   1.417 -1.8972 -0.7569  1.0306
 3065SOL    HW210359   5.798   2.568   1.343 -0.2735  1.5205  0.9499
 3066SOL     OW10360   4.079   2.758   0.027  0.0309  0.2860  0.2968
 3066SOL    HW110361   4.029   2.819   0.081  0.5209 -0.1314  1.2582
 3066SOL    HW210362   4.159   2.805   0.005  0.0482  0.2781  0.3433
 3067SOL     OW10363   5.885   2.684   6.565 -0.6697 -0.2884  0.2242
 3067SOL    HW110364   5.886   2.601   6.519  1.1000  0.3433 -0.9564
 3067SOL    HW210365   5.925   2.665   6.650 -0.3113 -0.6333 -0.0233
 3068SOL     OW10366   3.574   8.140   7.827  0.0866  0.1543 -0.0416
 3068SOL    HW110367   3.612   8.195   7.896 -0.9462 -1.0005  1.5220
 3068SOL    HW210368   3.650   8.106   7.780  1.0268 -1.2181  2.2908
 3069SOL     OW10369   7.704   0.432   4.124 -0.1170  0.5181  0.2984
 3069SOL    HW110370   7.617   0.442   4.160  0.1104 -0.7827  1.3088
 3069SOL    HW210371   7.709   0.496   4.053 -1.3708  1.5872  1.1381
 3070SOL     OW10372   1.584   7.431   7.553 -0.3121  0.1637  0.4263
 3070SOL    HW110373   1.640   7.466   7.483 -1.4446 -0.0124 -0.6172
 3070SOL    HW210374   1.644   7.409   7.624  0.7710  1.2673 -0.1180
 3071SOL     OW10375   0.820   4.318   5.614 -0.7485 -0.4699  0.1803
 3071SOL    HW110376   0.892   4.257   5.601 -0.8977 -0.5059 -0.4756
 3071SOL    HW210377   0.840   4.392   5.557 -1.3979 -0.6299 -0.2681
 3072SOL     OW10378   2.349   5.752   1.296 -0.2089 -0.5586  0.3385
 3072SOL    HW110379   2.373   5.822   1.235 -1.4119  0.3916  0.8995
 3072SOL    HW210380   2.404   5.678   1.271 -0.1380  0.0315 -1.4168
 3073SOL     OW10381   6.257   5.270   7.912 -0.4518 -0.5038  0.0669
 3073SOL    HW110382   6.171   5.232   7.892 -0.7147 -0.9648  1.9280
 3073SOL    HW210383   6.244   5.318   7.994  0.5763  1.2422 -0.7346
 3074SOL     OW10384   4.006   3.616   7.878 -0.2498 -0.0560 -0.6394
 3074SOL    HW110385   3.997   3.658   7.793  0.0831 -2.0839 -1.7314
 3074SOL    HW210386   4.100   3.617   7.896 -0.4050  1.5394  0.4039
 3075SOL     OW10387   8.836   3.354   8.075 -0.2758  0.2826  0.3204
 3075SOL    HW110388   8.835   3.273   8.024 -0.2744  0.7484 -0.4434
 3075SOL    HW210389   8.788   3.417   8.021 -0.2209  0.8124  0.8735
 3076SOL     OW10390   4.592   5.009   5.928 -0.2681 -0.0519 -0.5328
 3076SOL    HW110391   4.538   5.066   5.983  1.2777  1.1925 -0.2300
 3076SOL    HW210392   4.649   4.964   5.991  0.6132  0.3949 -1.0007
 3077SOL     OW10393   1.419   1.328   7.551 -0.3624 -0.1405  0.2810
 3077SOL    HW110394   1.476   1.276   7.608 -0.3565  0.3772  0.7682
 3077SOL    HW210395   1.475   1.355   7.478 -0.1462 -0.1452  0.4446
 3078SOL     OW10396   0.944   8.437   0.916 -0.0568 -0.2339 -0.5169
 3078SOL    HW110397   0.954   8.400   0.828  0.7289 -1.1605 -0.0565
 3078SOL    HW210398   0.872   8.388   0.954 -1.0272  0.8023 -0.9375
 3079SOL     OW10399   3.580   7.330   4.299 -0.0682 -0.7012 -0.2665
 3079SOL    HW110400   3.638   7.376   4.360 -0.9517  0.2891 -0.1369
 3079SOL    HW210401   3.492   7.356   4.326 -0.6581 -2.8538  0.1149
 3080SOL     OW10402   5.300   0.330   4.709  0.4267 -0.4675  0.1640
 3080SOL    HW110403   5.254   0.413   4.699 -0.8932 -1.2980 -1.1057
 3080SOL    HW210404   5.234   0.263   4.691  2.0308 -1.7442 -1.4450
 3081SOL     OW10405   7.437   4.059   6.584 -0.9893 -0.5484 -0.1828
 3081SOL    HW110406   7.510   4.002   6.562 -0.7208 -0.4118  0.3311
 3081SOL    HW210407   7.420   4.043   6.677 -0.6418  0.4812  0.0813
 3082SOL     OW10408   8.610   8.586   5.878  0.2945  0.3127  0.0100
 3082SOL    HW110409   8.558   8.594   5.798  1.7563  1.1539 -0.9175
 3082SOL    HW210410   8.562   8.638   5.943 -0.2583  0.6843 -0.6784
 3083SOL     OW10411   3.711   4.405   4.217 -0.0605 -0.2168 -0.4775
 3083SOL    HW110412   3.743   4.402   4.307 -0.2963  2.9150 -0.1768
 3083SOL    HW210413   3.617   4.417   4.225 -0.0312  0.5015 -1.1015
 3084SOL     OW10414   6.408   0.052   8.471 -0.1531  0.4758 -0.8913
 3084SOL    HW110415   6.390   0.140   8.505 -1.2400  0.0514 -0.3320
 3084SOL    HW210416   6.355   0.045   8.392  1.7587  1.1635 -2.3096
 3085SOL     OW10417   3.316   7.722   1.732 -0.3894  0.1259 -0.3273
 3085SOL    HW110418   3.403   7.685   1.749  0.0318  0.6886 -1.1928
 3085SOL    HW210419   3.294   7.769   1.812  0.1830  0.1157 -0.1594
 3086SOL     OW10420   6.842   1.794   1.443  0.7741 -0.2038 -0.3280
 3086SOL    HW110421   6.755   1.782   1.480 -0.8914  0.1216 -3.7301
 3086SOL    HW210422   6.844   1.886   1.416  2.0377 -0.3061 -0.6615
 3087SOL     OW10423   3.491   1.853   4.726  0.3076  0.2797  0.7008
 3087SOL    HW110424   3.495   1.946   4.748 -0.6318  0.3466  0.6118
 3087SOL    HW210425   3.552   1.843   4.653 -0.9506  1.1999 -0.5322
 3088SOL     OW10426   6.197   2.865   6.633  0.2029 -0.1030  0.5083
 3088SOL    HW110427   6.145   2.786   6.649  1.3639 -0.8540  0.6606
 3088SOL    HW210428   6.286   2.832   6.618  0.6588  1.1672  0.3666
 3089SOL     OW10429   5.621   1.037   3.137  0.0232 -0.0302 -0.2487
 3089SOL    HW110430   5.654   0.947   3.143 -0.1699 -0.1248 -0.5595
 3089SOL    HW210431   5.699   1.091   3.134  0.1434 -0.1105  0.9921
 3090SOL     OW10432   5.077   1.143   5.924  0.0644 -0.4687 -0.3062
 3090SOL    HW110433   5.161   1.139   5.879  0.6606 -0.4660  0.7735
 3090SOL    HW210434   5.047   1.233   5.914  0.6054 -0.2520  0.0398
 3091SOL     OW10435   1.750   7.150   1.143 -0.1315 -0.2997 -0.7092
 3091SOL    HW110436   1.801   7.204   1.082  0.9494 -0.4194  0.0558
 3091SOL    HW210437   1.813   7.089   1.179 -0.4823  0.4607  1.3365
 3092SOL     OW10438   3.690   8.829   1.537  0.2358  0.3145  0.2941
 3092SOL    HW110439   3.742   8.749   1.527 -0.6480 -0.1892 -0.3436
 3092SOL    HW210440   3.752   8.900   1.518  0.8835 -0.2342  0.3023
 3093SOL     OW10441   6.166   7.713   1.153 -0.4957 -0.4854  0.2133
 3093SOL    HW110442   6.146   7.744   1.241  0.1329  0.1930  0.1281
 3093SOL    HW210443   6.243   7.764   1.127  0.2192 -1.7274 -0.1568
 3094SOL     OW10444   3.267   4.500   4.847 -0.1379  0.3056 -0.1889
 3094SOL    HW110445   3.350   4.489   4.894  0.0445 -0.6241 -0.6976
 3094SOL    HW210446   3.200   4.473   4.909  0.0868 -0.7366 -0.3893
 3095SOL     OW10447   4.993   5.422   3.272  0.1094  0.2345  0.4047
 3095SOL    HW110448   5.030   5.470   3.198  1.1657  0.5605  1.1272
 3095SOL    HW210449   5.041   5.340   3.274  2.0217  1.2938  2.3030
 3096SOL     OW10450   4.902   6.168   0.627  0.0803  0.3374 -0.4934
 3096SOL    HW110451   4.989   6.133   0.645  0.1950  0.6145 -0.4984
 3096SOL    HW210452   4.842   6.106   0.669  0.3165  0.6550  0.3529
 3097SOL     OW10453   7.571   7.100   1.297  0.4477  0.0056  0.3684
 3097SOL    HW110454   7.499   7.134   1.243 -0.2972  0.2342  1.4531
 3097SOL    HW210455   7.560   7.005   1.294  0.4078  0.0171  0.1149
 3098SOL     OW10456   5.400   1.609   8.505 -0.6369 -0.0168  0.3071
 3098SOL    HW110457   5.384   1.533   8.448 -1.3290  0.2523  0.1237
 3098SOL    HW210458   5.320   1.616   8.558 -0.0414 -0.1985  1.2515
 3099SOL     OW10459   4.518   1.071   3.725  0.4022  0.2481 -0.4340
 3099SOL    HW110460   4.491   1.095   3.814 -0.9048  2.1383 -1.2508
 3099SOL    HW210461   4.517   0.976   3.724 -1.9473  0.1689  0.9436
 3100SOL     OW10462   4.491   7.392   7.006  0.3587 -0.0338 -0.1052
 3100SOL    HW110463   4.429   7.348   7.064  0.9818  0.6348  1.0919
 3100SOL    HW210464   4.572   7.397   7.056  0.7348  1.1319 -0.7898
 3101SOL     OW10465   7.703   4.357   8.175 -0.0577  0.0996 -0.3055
 3101SOL    HW110466   7.784   4.309   8.155 -0.0136 -0.0579  0.2255
 3101SOL    HW210467   7.671   4.316   8.255 -1.1999 -0.4893 -1.0507
 3102SOL     OW10468   1.181   0.563   2.870 -0.2785 -0.1543 -0.3512
 3102SOL    HW110469   1.088   0.572   2.848 -0.4586 -0.9394  0.0081
 3102SOL    HW210470   1.217   0.508   2.801 -0.3630 -0.8407  0.1341
 3103SOL     OW10471   6.031   1.065   0.769 -0.6085  0.3525  0.2286
 3103SOL    HW110472   6.049   1.156   0.792  4.1329 -0.1422 -0.5256
 3103SOL    HW210473   6.071   1.014   0.840 -2.7885 -1.2476  0.4216
 3104SOL     OW10474   7.606   7.024   0.277  0.0374  0.1507 -0.6029
 3104SOL    HW110475   7.548   7.098   0.258  0.7141  0.6071 -0.9327
 3104SOL    HW210476   7.607   6.973   0.196 -1.9892 -1.3503  0.2213
 3105SOL     OW10477   3.122   0.198   2.492  0.3849 -0.0527 -0.0746
 3105SOL    HW110478   3.125   0.225   2.584 -0.6800  1.9075 -0.5553
 3105SOL    HW210479   3.046   0.140   2.487  1.2841 -1.3310  0.5175
 3106SOL     OW10480   6.777   1.375   2.627  0.3074 -0.1158 -0.1475
 3106SOL    HW110481   6.793   1.292   2.671 -1.1770 -0.6982 -0.6587
 3106SOL    HW210482   6.704   1.415   2.675 -0.5877 -0.2419 -1.3485
 3107SOL     OW10483   8.513   8.609   3.183  0.0795 -0.4336 -0.8818
 3107SOL    HW110484   8.487   8.569   3.100  2.0253 -1.1854 -1.1628
 3107SOL    HW210485   8.436   8.661   3.209  0.4179  2.4500 -4.7304
 3108SOL     OW10486   2.046   6.440   1.031  0.8612 -0.7683  0.0184
 3108SOL    HW110487   2.051   6.532   1.005  2.1891 -0.1887  2.0438
 3108SOL    HW210488   1.974   6.404   0.980  1.1084  1.0684 -1.7431
 3109SOL     OW10489   1.099   6.239   7.109  0.1705 -0.2223 -0.3181
 3109SOL    HW110490   1.132   6.328   7.099 -3.3758  1.0506 -2.3630
 3109SOL    HW210491   1.156   6.185   7.055  0.8332  1.2495 -1.1279
 3110SOL     OW10492   1.424   7.052   1.267  0.3547 -0.3673 -0.1331
 3110SOL    HW110493   1.463   7.111   1.332  0.6140 -1.5757  0.8599
 3110SOL    HW210494   1.335   7.037   1.299  0.0399  0.0629 -0.7889
 3111SOL     OW10495   1.470   8.524   5.134 -0.3817 -0.7805 -0.1669
 3111SOL    HW110496   1.509   8.604   5.099 -1.6463 -0.4406 -0.8645
 3111SOL    HW210497   1.412   8.554   5.204 -2.5196 -0.8029 -1.8337
 3112SOL     OW10498   4.883   3.372   8.596 -0.3292  0.4218  0.5831
 3112SOL    HW110499   4.842   3.318   8.529 -2.6008  1.8592  0.7026
 3112SOL    HW210500   4.964   3.325   8.619  0.2311 -0.4276 -2.6400
 3113SOL     OW10501   7.157   6.532   1.091  0.5799  0.8490  0.1931
 3113SOL    HW110502   7.230   6.564   1.036  1.4998 -0.0014  0.8953
 3113SOL    HW210503   7.079   6.567   1.048  1.3054  0.6681 -1.3591
 3114SOL     OW10504   1.694   3.804   6.721 -0.7412  0.2918 -0.1097
 3114SOL    HW110505   1.618   3.751   6.746 -0.1908 -0.9364 -0.9598
 3114SOL    HW210506   1.711   3.781   6.630 -0.6543  2.1771 -0.6015
 3115SOL     OW10507   4.687   1.238   6.709  0.7423 -0.5027  0.3200
 3115SOL    HW110508   4.732   1.242   6.793 -0.1855  1.4780  0.7652
 3115SOL    HW210509   4.603   1.281   6.724  0.6135  0.0447 -1.6509
 3116SOL     OW10510   3.767   6.250   0.113 -0.4176  0.2948 -0.2288
 3116SOL    HW110511   3.738   6.341   0.101 -1.4331  0.0767  0.4618
 3116SOL    HW210512   3.737   6.205   0.034  0.6370  0.6686 -0.8668
 3117SOL     OW10513   6.356   6.226   2.601 -0.2375 -0.0974  0.1214
 3117SOL    HW110514   6.440   6.239   2.646 -0.8719 -0.7074  1.5654
 3117SOL    HW210515   6.380   6.199   2.513  1.0839  1.9961 -0.2470
 3118SOL     OW10516   3.847   5.685   1.575 -0.4326  0.6465 -0.2379
 3118SOL    HW110517   3.838   5.780   1.585 -2.3051  0.4971 -0.2562
 3118SOL    HW210518   3.762   5.656   1.544 -0.0980 -1.1571  0.4424
 3119SOL     OW10519   3.961   8.634   6.510  0.1906 -0.1447 -0.8484
 3119SOL    HW110520   3.953   8.630   6.605  1.1055 -0.6074 -0.7763
 3119SOL    HW210521   3.874   8.615   6.477 -0.2917  0.6664 -0.0975
 3120SOL     OW10522   7.309   2.060   1.280 -0.4695 -0.8375 -0.3557
 3120SOL    HW110523   7.218   2.068   1.250  0.4535  0.5631 -3.1114
 3120SOL    HW210524   7.346   1.990   1.226  0.3519 -0.6736 -0.0185
 3121SOL     OW10525   6.818   3.024   5.469 -0.6406 -0.1413 -0.2059
 3121SOL    HW110526   6.857   3.085   5.406 -1.1027 -1.1018 -1.4698
 3121SOL    HW210527   6.888   3.006   5.532  0.0377  0.3722 -0.7973
 3122SOL     OW10528   2.825   1.105   5.595  0.4577 -0.2871 -0.2210
 3122SOL    HW110529   2.806   1.198   5.587 -1.1612 -0.7325 -2.9137
 3122SOL    HW210530   2.749   1.069   5.640  0.4310 -0.4686 -0.4088
 3123SOL     OW10531   4.019   3.469   2.694 -0.2268 -0.5719  0.1015
 3123SOL    HW110532   4.059   3.484   2.780 -2.3167  0.4554  0.9462
 3123SOL    HW210533   3.948   3.407   2.711 -0.4043 -0.6723 -0.9563
 3124SOL     OW10534   3.327   3.614   0.376 -0.6312 -0.9391  0.1715
 3124SOL    HW110535   3.418   3.584   0.375 -0.5767 -0.7816  0.4868
 3124SOL    HW210536   3.311   3.639   0.466 -0.0210  2.0326 -0.4440
 3125SOL     OW10537   1.834   0.852   4.410 -0.1076  0.2082  0.3546
 3125SOL    HW110538   1.793   0.935   4.385 -0.4214 -0.5756 -1.8992
 3125SOL    HW210539   1.766   0.805   4.457 -1.4751 -0.5074 -2.1552
 3126SOL     OW10540   6.571   7.021   3.487 -0.3909 -0.0922  0.5594
 3126SOL    HW110541   6.626   7.050   3.560  2.4716 -1.1713 -1.0119
 3126SOL    HW210542   6.553   6.929   3.506  0.6087 -0.4582 -0.1635
 3127SOL     OW10543   6.526   5.833   1.513 -0.0565  0.1354  0.3892
 3127SOL    HW110544   6.543   5.886   1.592 -0.1438 -0.0134  0.5083
 3127SOL    HW210545   6.606   5.781   1.502  0.1736  0.5546  0.0632
 3128SOL     OW10546   7.127   5.462   2.744  0.6242  0.4813 -0.6104
 3128SOL    HW110547   7.142   5.425   2.657  2.2822 -0.5637  0.0747
 3128SOL    HW210548   7.195   5.528   2.755  2.1540 -1.2155  0.8363
 3129SOL     OW10549   6.441   4.702   0.014 -0.5737 -0.2001 -0.5597
 3129SOL    HW110550   6.448   4.682   0.107 -1.6054 -1.8885 -0.8116
 3129SOL    HW210551   6.377   4.773   0.009  1.8122  2.1873  0.2040
 3130SOL     OW10552   1.591   2.108   5.374  0.0804  0.2777  0.4812
 3130SOL    HW110553   1.604   2.041   5.307  0.3576 -0.2394  1.0405
 3130SOL    HW210554   1.577   2.058   5.455  0.2375  0.8945  0.8951
 3131SOL     OW10555   2.308   0.787   4.683 -0.2594  0.1138 -0.2337
 3131SOL    HW110556   2.271   0.701   4.661  2.0491 -0.9901 -0.1680
 3131SOL    HW210557   2.265   0.848   4.623 -0.4834 -1.4313 -1.7303
 3132SOL     OW10558   1.787   4.359   0.941  0.2542 -0.4059  0.0431
 3132SOL    HW110559   1.843   4.390   1.012 -0.0329 -0.5396  0.3375
 3132SOL    HW210560   1.722   4.428   0.929  0.2489 -0.4226 -0.0253
 3133SOL     OW10561   6.233   3.389   1.716 -0.0722  0.2446  0.4870
 3133SOL    HW110562   6.187   3.429   1.642  0.6550  0.5235  0.1814
 3133SOL    HW210563   6.324   3.383   1.688  0.1914  0.2463  1.3175
 3134SOL     OW10564   5.661   1.854   4.939 -0.2363 -0.6309  0.4060
 3134SOL    HW110565   5.706   1.887   4.861 -0.0837  1.4048  1.2844
 3134SOL    HW210566   5.638   1.764   4.917  0.7170 -0.4488 -1.5857
 3135SOL     OW10567   0.790   7.367   6.538 -0.1139  0.0718 -0.1193
 3135SOL    HW110568   0.846   7.333   6.608 -1.9480 -1.6795  0.5954
 3135SOL    HW210569   0.777   7.291   6.480 -0.9642  0.7110 -0.7795
 3136SOL     OW10570   7.151   0.312   0.296  0.1355  0.8012  0.3833
 3136SOL    HW110571   7.123   0.377   0.360  0.3060  1.8775 -0.5976
 3136SOL    HW210572   7.133   0.228   0.337  1.0166  1.4464  2.1854
 3137SOL     OW10573   6.072   2.074   3.842  0.6238 -0.5401  0.0626
 3137SOL    HW110574   6.103   2.101   3.756  3.2328  0.2730  1.1565
 3137SOL    HW210575   6.001   2.135   3.863  1.1521  0.4028 -0.8044
 3138SOL     OW10576   6.378   3.673   2.708  0.4940 -0.1309 -0.6359
 3138SOL    HW110577   6.448   3.631   2.758  0.0431 -0.2549 -0.0853
 3138SOL    HW210578   6.423   3.732   2.648  1.0375  0.6174  0.4695
 3139SOL     OW10579   0.114   5.160   1.435  0.0076 -0.5833 -0.4625
 3139SOL    HW110580   0.056   5.205   1.497  0.5929  0.2962 -0.5307
 3139SOL    HW210581   0.114   5.216   1.357  0.2225 -1.0526 -0.8033
 3140SOL     OW10582   4.304   8.554   8.522 -0.2503  0.8018  0.1732
 3140SOL    HW110583   4.253   8.499   8.462  0.2966  1.1955 -0.6647
 3140SOL    HW210584   4.390   8.562   8.480  0.1207  1.1491  0.9769
 3141SOL     OW10585   7.471   7.735   5.911 -0.2341 -0.5267  0.0765
 3141SOL    HW110586   7.562   7.746   5.939 -0.1702 -0.5535 -0.1189
 3141SOL    HW210587   7.455   7.808   5.852 -0.2535 -0.6791 -0.1054
 3142SOL     OW10588   7.400   2.227   3.518  0.3424 -0.9145  0.1883
 3142SOL    HW110589   7.424   2.148   3.567  1.5000 -1.1590 -0.7454
 3142SOL    HW210590   7.471   2.239   3.456 -0.0248  0.6509  0.0480
 3143SOL     OW10591   1.044   3.944   1.797  0.5070 -0.6911  0.1032
 3143SOL    HW110592   1.049   4.013   1.730 -2.5940  0.7557  1.2057
 3143SOL    HW210593   1.065   3.989   1.879 -0.3046 -1.3437  0.6771
 3144SOL     OW10594   3.042   3.070   2.919 -0.7075 -0.3098  0.2559
 3144SOL    HW110595   3.013   2.985   2.888 -0.8382 -0.0202 -0.4506
 3144SOL    HW210596   3.022   3.071   3.013  0.1413 -1.4002  0.4651
 3145SOL     OW10597   6.610   1.076   3.128  0.7673 -0.3025  0.0419
 3145SOL    HW110598   6.638   1.116   3.210 -0.9697  1.6180 -0.2305
 3145SOL    HW210599   6.529   1.122   3.105  0.6808 -1.4665 -2.2544
 3146SOL     OW10600   5.552   0.434   4.892 -0.0710  0.1551 -0.1249
 3146SOL    HW110601   5.503   0.498   4.841  0.2123  1.5539  1.2748
 3146SOL    HW210602   5.604   0.385   4.828 -0.0180  1.5745 -1.1942
 3147SOL     OW10603   1.103   0.061   8.266  0.3444 -0.2776  0.3089
 3147SOL    HW110604   1.117   0.154   8.283  3.4050 -0.3005 -1.4558
 3147SOL    HW210605   1.189   0.021   8.276 -0.2838 -2.4125 -1.8124
 3148SOL     OW10606   3.403   5.534   4.169  0.3003  0.0137  0.5717
 3148SOL    HW110607   3.327   5.571   4.215  0.5934  1.8127 -0.3291
 3148SOL    HW210608   3.475   5.543   4.232  0.2623  0.5418  0.5467
 3149SOL     OW10609   3.799   3.193   5.672 -0.6401  0.0696 -0.3972
 3149SOL    HW110610   3.794   3.108   5.717  1.0556 -0.8064 -1.7233
 3149SOL    HW210611   3.711   3.206   5.637 -0.9222 -1.1930 -0.2201
 3150SOL     OW10612   1.962   0.422   3.991 -0.2052 -0.2797  0.0363
 3150SOL    HW110613   1.989   0.346   4.044  1.9799 -0.6265 -1.4444
 3150SOL    HW210614   1.872   0.401   3.964 -0.5508 -1.1362  1.7127
 3151SOL     OW10615   0.509   2.090   4.926  0.1388 -0.5157  0.2418
 3151SOL    HW110616   0.603   2.104   4.928  0.2050 -0.8462 -0.2987
 3151SOL    HW210617   0.491   2.035   5.002  0.5122 -1.1729 -0.1313
 3152SOL     OW10618   0.221   3.015   6.118  0.5547  0.5218  0.0961
 3152SOL    HW110619   0.217   2.961   6.197  1.0145  1.9238  1.0988
 3152SOL    HW210620   0.217   2.951   6.046 -3.7839 -0.6746  1.0701
 3153SOL     OW10621   5.922   5.315   3.172  0.0956  0.3670  0.0082
 3153SOL    HW110622   5.910   5.220   3.166  0.8255 -0.0225  3.0551
 3153SOL    HW210623   6.014   5.326   3.198 -0.2291  1.8107  0.6553
 3154SOL     OW10624   0.101   4.766   7.514 -0.1050  0.3629 -0.4868
 3154SOL    HW110625   0.061   4.696   7.567 -0.7907  0.1874 -1.2184
 3154SOL    HW210626   0.156   4.719   7.451 -0.1440  0.5192 -0.6349
 3155SOL     OW10627   7.956   6.485   0.044 -0.1468  0.4344  0.0185
 3155SOL    HW110628   7.945   6.577   0.071  2.6916  0.7768  0.3467
 3155SOL    HW210629   7.992   6.442   0.122  0.3306 -0.4996 -0.7075
 3156SOL     OW10630   8.245   7.981   2.556  0.5889 -0.4422  0.1019
 3156SOL    HW110631   8.290   8.054   2.599  1.2224 -0.9837  0.3694
 3156SOL    HW210632   8.191   7.942   2.625 -0.4401  0.3067 -0.2576
 3157SOL     OW10633   1.359   4.685   8.754 -0.0268 -0.5649 -0.0828
 3157SOL    HW110634   1.268   4.679   8.726 -0.2151 -2.0763  0.7544
 3157SOL    HW210635   1.410   4.669   8.675 -0.4630  0.5761 -0.6155
 3158SOL     OW10636   1.767   7.293   2.137  0.2134 -0.1327  0.1142
 3158SOL    HW110637   1.849   7.271   2.093 -0.1777 -0.3279 -0.5246
 3158SOL    HW210638   1.700   7.290   2.068 -0.1319  1.3608  0.3502
 3159SOL     OW10639   6.937   2.891   0.287 -0.6707 -0.1629  0.0855
 3159SOL    HW110640   7.001   2.962   0.294  0.0348 -0.3300 -2.9100
 3159SOL    HW210641   6.987   2.818   0.249 -2.4836 -0.3739 -2.1449
 3160SOL     OW10642   0.148   7.339   3.192 -0.3549 -0.0732  0.3268
 3160SOL    HW110643   0.062   7.328   3.232 -0.4700 -0.1649  0.0565
 3160SOL    HW210644   0.164   7.256   3.147 -0.5295  0.2772 -0.3964
 3161SOL     OW10645   5.689   1.532   4.411  0.1684 -0.0373 -0.5343
 3161SOL    HW110646   5.742   1.479   4.352  1.1728  0.8083 -0.4249
 3161SOL    HW210647   5.617   1.564   4.356 -0.3605 -1.3479 -0.6361
 3162SOL     OW10648   6.787   0.763   5.488  0.3993  0.0709 -0.0060
 3162SOL    HW110649   6.715   0.827   5.484  0.2224  0.0940  2.1411
 3162SOL    HW210650   6.773   0.717   5.571  2.5506 -0.3121  0.2080
 3163SOL     OW10651   2.090   1.459   2.176  0.3836  0.1905  0.3498
 3163SOL    HW110652   2.179   1.486   2.155  0.2767  0.7018  0.5370
 3163SOL    HW210653   2.082   1.472   2.270  0.1593  0.0045  0.3566
 3164SOL     OW10654   5.147   5.910   0.925 -0.1282  0.3151  0.0858
 3164SOL    HW110655   5.080   5.869   0.869 -1.3774  1.0381  1.0065
 3164SOL    HW210656   5.221   5.849   0.922 -0.0116  0.4504 -2.5619
 3165SOL     OW10657   1.939   2.076   4.051 -0.7436  0.0165 -0.3056
 3165SOL    HW110658   1.900   2.110   3.971 -0.9494 -0.2044 -0.2997
 3165SOL    HW210659   2.031   2.061   4.028 -1.4584 -3.2441 -1.5648
 3166SOL     OW10660   8.578   6.100   0.714  0.4471 -0.1362  0.2064
 3166SOL    HW110661   8.492   6.137   0.734 -0.4437 -1.4402 -1.0824
 3166SOL    HW210662   8.620   6.090   0.799 -1.1322 -0.5770  0.9612
 3167SOL     OW10663   2.880   2.474   6.953  0.7601  0.0503  0.7663
 3167SOL    HW110664   2.803   2.417   6.960  1.2003 -0.5213  1.0166
 3167SOL    HW210665   2.954   2.416   6.972  1.3648  0.2985 -0.7244
 3168SOL     OW10666   3.714   7.965   3.148 -0.0862  0.4701  0.3257
 3168SOL    HW110667   3.666   8.037   3.106  1.0204 -0.5120 -2.9118
 3168SOL    HW210668   3.802   7.969   3.110  0.1222 -2.3007  0.2991
 3169SOL     OW10669   4.975   2.058   7.200 -0.1768  0.4796 -0.0823
 3169SOL    HW110670   4.960   2.100   7.115  1.8456  0.7603 -0.3672
 3169SOL    HW210671   5.062   2.019   7.191 -0.7138 -1.1292  1.2422
 3170SOL     OW10672   3.742   8.835   0.663 -0.1874  0.2333 -0.2544
 3170SOL    HW110673   3.758   8.781   0.740 -0.6634 -1.3254 -1.1963
 3170SOL    HW210674   3.824   8.881   0.648  0.3744 -0.5302  0.3684
 3171SOL     OW10675   4.544   2.356   5.470 -0.9241 -0.6924  0.5966
 3171SOL    HW110676   4.498   2.421   5.524  1.9903  0.1341  2.2802
 3171SOL    HW210677   4.594   2.304   5.533  1.3267 -0.7634 -1.1448
 3172SOL     OW10678   7.402   0.308   2.279  0.1550 -0.4364 -0.3188
 3172SOL    HW110679   7.464   0.296   2.351 -1.0321 -1.6344  0.5507
 3172SOL    HW210680   7.356   0.389   2.301  0.6527 -0.1326 -0.3872
 3173SOL     OW10681   7.432   7.593   2.863 -0.0502 -0.4486 -0.3003
 3173SOL    HW110682   7.450   7.510   2.907  0.0553  0.7610  2.0844
 3173SOL    HW210683   7.519   7.631   2.848 -0.1430 -0.2072 -0.2325
 3174SOL     OW10684   5.333   4.237   7.433 -0.4872 -0.5473  0.2656
 3174SOL    HW110685   5.411   4.203   7.477  0.2094  1.1560  0.3966
 3174SOL    HW210686   5.302   4.163   7.380  2.1846 -0.8391 -1.0888
 3175SOL     OW10687   1.923   1.510   7.329 -0.3345 -0.5527 -1.0306
 3175SOL    HW110688   1.866   1.563   7.384  2.2999  0.1346  1.2846
 3175SOL    HW210689   1.962   1.446   7.388  2.2432 -0.1323 -2.1162
 3176SOL     OW10690   3.024   8.507   2.754 -0.0590 -0.0201  0.6323
 3176SOL    HW110691   3.021   8.433   2.694 -1.2797 -0.3888  1.1210
 3176SOL    HW210692   3.036   8.583   2.698 -2.7088 -0.1819 -0.2913
 3177SOL     OW10693   5.326   2.644   5.993  0.1850  0.1808 -0.2732
 3177SOL    HW110694   5.394   2.701   5.956 -0.1681 -0.8086 -2.6485
 3177SOL    HW210695   5.296   2.592   5.918 -0.5932 -2.0190  1.4686
 3178SOL     OW10696   3.492   4.701   1.995 -0.1259  0.7808  0.0823
 3178SOL    HW110697   3.539   4.682   2.076  2.0497 -0.2604 -1.3299
 3178SOL    HW210698   3.481   4.616   1.953  0.7671  1.5209 -1.7300
 3179SOL     OW10699   2.630   0.622   3.781 -0.2022  0.3980 -0.2188
 3179SOL    HW110700   2.574   0.545   3.774 -0.5014  0.4822  0.9356
 3179SOL    HW210701   2.655   0.625   3.874 -0.4083  1.8172 -0.1826
 3180SOL     OW10702   2.106   5.864   0.061 -0.7249 -0.2904 -0.0138
 3180SOL    HW110703   2.114   5.836  -0.030 -0.5556 -1.7405  0.4253
 3180SOL    HW210704   2.161   5.803   0.110 -0.2444  0.9120  0.9930
 3181SOL     OW10705   7.779   4.285   7.346 -0.2265  0.3859 -0.3550
 3181SOL    HW110706   7.746   4.205   7.387 -0.9265  0.8176 -0.0684
 3181SOL    HW210707   7.784   4.348   7.418  3.9496 -0.4120  0.3106
 3182SOL     OW10708   8.514   5.650   1.475 -0.0480 -0.2566  0.2679
 3182SOL    HW110709   8.549   5.694   1.397  0.2427 -0.8137  0.0785
 3182SOL    HW210710   8.494   5.721   1.536 -0.1677  0.1801 -0.2704
 3183SOL     OW10711   6.848   5.068   8.076 -0.4950  0.8557 -0.3591
 3183SOL    HW110712   6.896   5.139   8.117  0.8763  0.6564 -1.5610
 3183SOL    HW210713   6.908   4.993   8.078 -2.4954 -0.8864  2.4881
 3184SOL     OW10714   2.451   2.509   2.793 -0.5249  0.0548  0.4190
 3184SOL    HW110715   2.512   2.453   2.841  0.2070 -0.1484 -0.7042
 3184SOL    HW210716   2.365   2.485   2.827 -0.0915 -0.6460  1.0567
 3185SOL     OW10717   1.753   8.312   5.517 -0.2925  0.1943  0.4604
 3185SOL    HW110718   1.705   8.391   5.493 -0.2093  0.0867 -0.0677
 3185SOL    HW210719   1.754   8.259   5.437  0.6601  0.1675  0.4750
 3186SOL     OW10720   7.403   0.470   3.953  0.5975  0.0957 -0.1715
 3186SOL    HW110721   7.422   0.555   3.992 -0.4850  1.3217 -2.1968
 3186SOL    HW210722   7.308   0.465   3.949  0.6551 -0.4395 -1.6418
 3187SOL     OW10723   7.494   1.963   3.070 -0.1841  0.1205  0.1736
 3187SOL    HW110724   7.578   1.974   3.115 -0.8796 -0.4326  1.6847
 3187SOL    HW210725   7.485   1.869   3.058 -0.6069  0.1724  0.0797
 3188SOL     OW10726   0.068   0.142   7.761  0.1487 -0.4242  0.0985
 3188SOL    HW110727   0.148   0.193   7.777 -0.1220 -0.2257  0.8893
 3188SOL    HW210728   0.046   0.107   7.847 -0.7434 -0.2885 -0.0723
 3189SOL     OW10729   6.929   0.956   1.637  0.6391  0.0288 -0.8706
 3189SOL    HW110730   6.854   0.966   1.578 -0.9605 -3.4365  0.3315
 3189SOL    HW210731   6.959   0.866   1.622  1.1702 -0.4357  2.3686
 3190SOL     OW10732   2.526   5.771   2.042 -0.0759  0.7015  0.5007
 3190SOL    HW110733   2.581   5.741   1.970 -2.7485  0.6510 -1.6855
 3190SOL    HW210734   2.483   5.692   2.075 -1.4558  1.1044 -0.2356
 3191SOL     OW10735   7.454   6.346   3.279 -0.5974 -0.1037 -0.6478
 3191SOL    HW110736   7.524   6.393   3.234 -0.8534  1.3568  0.4237
 3191SOL    HW210737   7.497   6.268   3.315  0.6518  1.0755  0.5284
 3192SOL     OW10738   6.343   6.095   7.553  0.1078  0.0448  0.0078
 3192SOL    HW110739   6.409   6.073   7.619  0.4058  0.2979 -0.2014
 3192SOL    HW210740   6.260   6.081   7.597  0.3009 -0.0703  0.3455
 3193SOL     OW10741   8.603   1.438   5.377 -0.3556  0.3831  0.0630
 3193SOL    HW110742   8.579   1.365   5.433  0.5046  0.1084  0.0956
 3193SOL    HW210743   8.520   1.478   5.351 -0.8546 -0.8212 -0.2441
 3194SOL     OW10744   3.868   8.372   4.397 -0.7860 -0.4930 -0.1093
 3194SOL    HW110745   3.774   8.352   4.401 -0.7080 -1.3896 -1.8581
 3194SOL    HW210746   3.903   8.341   4.481 -2.0595  0.0377  0.6539
 3195SOL     OW10747   2.705   7.966   4.961  0.1353  0.0007 -0.0982
 3195SOL    HW110748   2.667   8.038   5.012  1.5355  0.6939  0.0207
 3195SOL    HW210749   2.659   7.970   4.877 -2.4604 -1.3893  1.1595
 3196SOL     OW10750   0.924   5.650   3.407  0.4305  0.0663  0.5023
 3196SOL    HW110751   0.857   5.582   3.403 -2.0476  2.3922 -1.8412
 3196SOL    HW210752   0.992   5.622   3.346  0.0200 -0.8299  0.4522
 3197SOL     OW10753   3.012   6.647   1.391  0.7848 -0.0104  0.3949
 3197SOL    HW110754   3.086   6.656   1.331  0.6130 -0.6333  0.0879
 3197SOL    HW210755   3.046   6.679   1.475  1.0686  0.7298  0.0102
 3198SOL     OW10756   4.511   1.986   6.485 -0.2400 -0.2425 -0.9355
 3198SOL    HW110757   4.556   1.902   6.472 -0.7192 -0.6220 -0.2370
 3198SOL    HW210758   4.569   2.034   6.545 -1.1774 -1.1069  0.7308
 3199SOL     OW10759   2.399   4.144   4.053 -0.3425  0.6667 -0.3321
 3199SOL    HW110760   2.493   4.155   4.064 -0.5102  0.6698  1.2583
 3199SOL    HW210761   2.372   4.091   4.127 -1.5056  0.0970 -1.1355
 3200SOL     OW10762   8.282   4.054   7.123  0.0985 -0.5366 -0.1396
 3200SOL    HW110763   8.317   4.082   7.207 -1.4083  0.1108  0.3231
 3200SOL    HW210764   8.268   4.136   7.075 -0.0489 -0.8219 -0.5815
 3201SOL     OW10765   7.269   2.102   1.534 -0.6225  0.0898 -0.5097
 3201SOL    HW110766   7.268   2.065   1.446 -2.7388  1.4406 -1.1492
 3201SOL    HW210767   7.316   2.038   1.587 -1.7960 -2.1858 -2.0602
 3202SOL     OW10768   6.931   7.870   7.397  0.2887  0.8853 -0.8053
 3202SOL    HW110769   6.865   7.827   7.343  1.2079 -2.8017  0.6678
 3202SOL    HW210770   7.014   7.832   7.368  1.0933  0.9427  1.2237
 3203SOL     OW10771   2.608   2.092   1.332 -0.2964 -0.2373 -0.6622
 3203SOL    HW110772   2.584   2.084   1.240 -2.5346  1.1697 -0.2629
 3203SOL    HW210773   2.542   2.042   1.379 -0.7840  1.2663  0.3195
 3204SOL     OW10774   6.062   5.759   0.027 -0.0780  0.4861 -0.1156
 3204SOL    HW110775   6.082   5.749   0.121  0.3057 -1.7027 -0.3657
 3204SOL    HW210776   5.967   5.768   0.024 -0.1792 -0.2472  0.4643
 3205SOL     OW10777   3.144   3.985   8.728 -0.7522 -0.7036 -0.3312
 3205SOL    HW110778   3.131   3.974   8.634  1.3028 -0.5657 -0.6779
 3205SOL    HW210779   3.226   3.939   8.747  0.0073  1.0835  0.9945
 3206SOL     OW10780   3.606   6.919   6.073 -0.5818  0.7292  0.0224
 3206SOL    HW110781   3.532   6.912   6.134  0.7303  2.0549  1.8743
 3206SOL    HW210782   3.598   7.006   6.035 -0.2551  0.6883 -0.1401
 3207SOL     OW10783   3.847   6.629   3.044  0.3151  0.0205  0.3430
 3207SOL    HW110784   3.781   6.697   3.029  1.9898  1.3618 -1.6970
 3207SOL    HW210785   3.920   6.675   3.086  1.1218 -0.6930 -0.2316
 3208SOL     OW10786   5.311   8.526   3.289  0.2280  0.1488 -0.6665
 3208SOL    HW110787   5.303   8.450   3.347 -1.3210  1.4068  0.9045
 3208SOL    HW210788   5.342   8.490   3.206  1.1959 -1.9403  0.5140
 3209SOL     OW10789   0.195   4.191   7.020 -0.0416 -0.5931  0.3493
 3209SOL    HW110790   0.148   4.251   6.962  1.1641  0.7549  0.7243
 3209SOL    HW210791   0.220   4.118   6.963 -0.2383 -0.0481 -0.4501
 3210SOL     OW10792   4.650   2.694   3.511  0.1663  0.0479  0.0515
 3210SOL    HW110793   4.680   2.635   3.441 -1.0634 -0.9416  0.3143
 3210SOL    HW210794   4.621   2.635   3.581 -3.3301  0.7847 -0.5642
 3211SOL     OW10795   7.310   0.550   2.349  0.0321 -0.1217 -0.1627
 3211SOL    HW110796   7.365   0.543   2.428  0.8213 -2.4820 -0.8449
 3211SOL    HW210797   7.365   0.596   2.286 -0.2547  0.9474  0.3444
 3212SOL     OW10798   1.226   5.542   1.560  0.2442 -0.5417  0.0556
 3212SOL    HW110799   1.273   5.617   1.522 -1.2220  1.0086  1.1626
 3212SOL    HW210800   1.174   5.508   1.488  0.5399 -0.1753 -0.3388
 3213SOL     OW10801   2.043   2.118   5.044  0.0272 -0.0282  0.0823
 3213SOL    HW110802   1.996   2.197   5.015  1.1482  0.3946 -0.6573
 3213SOL    HW210803   2.025   2.053   4.976  0.7690  0.2408 -0.3818
 3214SOL     OW10804   4.451   1.989   7.120  0.3004 -0.2132  0.1951
 3214SOL    HW110805   4.531   1.971   7.169  0.6256  1.0484  0.1535
 3214SOL    HW210806   4.424   1.903   7.086  1.4123 -0.7149  0.5340
 3215SOL     OW10807   0.169   7.470   4.285 -0.1035  0.1320  0.2862
 3215SOL    HW110808   0.236   7.462   4.353  0.5635 -1.2756 -0.4972
 3215SOL    HW210809   0.100   7.523   4.325 -0.0934 -1.3148  2.3470
 3216SOL     OW10810   4.349   4.265   2.795  0.3030  0.0038 -0.3170
 3216SOL    HW110811   4.439   4.235   2.803 -0.2645 -1.5990  0.4787
 3216SOL    HW210812   4.354   4.343   2.740  2.0443 -0.6504 -1.1444
 3217SOL     OW10813   0.531   1.796   8.391  0.4334 -0.7924  0.8246
 3217SOL    HW110814   0.440   1.823   8.395  0.6478 -0.1759  2.1975
 3217SOL    HW210815   0.563   1.805   8.481  2.1813  0.2306  0.1635
 3218SOL     OW10816   4.798   7.471   1.443 -0.3122  0.3703 -0.3902
 3218SOL    HW110817   4.858   7.544   1.463  1.4608 -0.3828 -2.5685
 3218SOL    HW210818   4.716   7.514   1.419  0.0868  1.5541  0.2694
 3219SOL     OW10819   2.364   2.376   0.948  0.2026  0.3883  0.8755
 3219SOL    HW110820   2.369   2.364   1.043  1.1637  0.7094  0.8769
 3219SOL    HW210821   2.446   2.338   0.915  0.4806  1.4422  0.3074
 3220SOL     OW10822   5.874   0.228   5.617  0.2367  0.1062  0.0940
 3220SOL    HW110823   5.917   0.205   5.535  0.0989  0.0859  0.0275
 3220SOL    HW210824   5.912   0.312   5.642 -0.6747  0.7545 -0.6696
 3221SOL     OW10825   5.565   0.750   0.820 -0.0254 -0.5517 -0.0441
 3221SOL    HW110826   5.484   0.798   0.803 -0.0848 -0.5019  0.3666
 3221SOL    HW210827   5.620   0.767   0.743  0.5315  1.3432  0.7177
 3222SOL     OW10828   4.106   6.270   0.591 -0.1178 -0.3357 -0.4971
 3222SOL    HW110829   4.088   6.319   0.511 -0.2262  0.9520  0.2912
 3222SOL    HW210830   4.027   6.283   0.645  0.9784  1.0462  0.8814
 3223SOL     OW10831   2.971   5.376   5.059  0.0748 -0.1343  0.1584
 3223SOL    HW110832   2.891   5.347   5.103  1.1836  0.4352  2.7630
 3223SOL    HW210833   2.958   5.470   5.044 -0.3671 -0.3601 -0.9259
 3224SOL     OW10834   3.310   7.754   0.314 -0.2026 -0.1435  0.2841
 3224SOL    HW110835   3.345   7.840   0.291  0.4021 -0.5885 -0.5081
 3224SOL    HW210836   3.237   7.740   0.253 -0.8705  0.1633  0.9843
 3225SOL     OW10837   1.845   8.524   2.720  0.1427 -0.2816  0.8701
 3225SOL    HW110838   1.919   8.470   2.692  0.3349  1.2430 -1.9541
 3225SOL    HW210839   1.768   8.482   2.681  0.0882  0.4694  0.1369
 3226SOL     OW10840   1.311   8.129   5.514  0.2716  0.6089 -1.0932
 3226SOL    HW110841   1.275   8.047   5.547 -0.9404  0.5270 -2.4976
 3226SOL    HW210842   1.400   8.106   5.486  0.4875  0.1568 -0.0924
 3227SOL     OW10843   8.511   3.144   4.955 -0.1845 -0.0046  0.4524
 3227SOL    HW110844   8.472   3.145   5.042 -1.4076  1.3748 -0.0732
 3227SOL    HW210845   8.522   3.236   4.932 -0.2580 -0.3359 -1.0070
 3228SOL     OW10846   5.322   7.020   5.717  0.0542  0.2006 -0.2986
 3228SOL    HW110847   5.363   6.974   5.643  2.3665  0.6241  0.6755
 3228SOL    HW210848   5.296   7.105   5.681 -3.1994 -1.2231 -1.7999
 3229SOL     OW10849   0.263   1.068   1.846 -0.4895 -0.1026 -0.3497
 3229SOL    HW110850   0.226   0.980   1.855 -0.7022  0.1138  1.3050
 3229SOL    HW210851   0.254   1.107   1.934 -0.3539  1.5506 -1.0251
 3230SOL     OW10852   3.364   8.666   4.928  0.4431 -0.3248 -0.1354
 3230SOL    HW110853   3.381   8.731   4.859  1.6101 -0.1569  0.2900
 3230SOL    HW210854   3.394   8.584   4.890  2.1223 -0.0633  0.5354
 3231SOL     OW10855   3.670   6.888   8.718  0.1372  0.1399  0.2664
 3231SOL    HW110856   3.607   6.925   8.657  1.0075  0.7019 -0.3216
 3231SOL    HW210857   3.756   6.908   8.680  0.6920  0.0004  1.3753
 3232SOL     OW10858   7.931   1.332   6.724 -0.0450 -0.2987  0.6575
 3232SOL    HW110859   7.849   1.288   6.702 -0.3268 -0.2264  1.5272
 3232SOL    HW210860   7.924   1.350   6.817 -1.1907  4.1216 -0.0514
 3233SOL     OW10861   7.463   7.770   7.296 -0.1769  0.2770  0.7871
 3233SOL    HW110862   7.521   7.822   7.353  1.3677  0.1281 -0.5788
 3233SOL    HW210863   7.483   7.679   7.319  1.0646  0.1855 -0.4797
 3234SOL     OW10864   7.517   4.990   0.054  0.6353 -0.1411  0.3625
 3234SOL    HW110865   7.431   4.988   0.013  0.1228  0.1792  1.3845
 3234SOL    HW210866   7.516   4.917   0.116 -0.1322  1.7357  2.7081
 3235SOL     OW10867   7.874   3.677   8.277  0.2079 -0.0020  0.6132
 3235SOL    HW110868   7.963   3.647   8.299  0.1272 -0.2893  0.5432
 3235SOL    HW210869   7.873   3.683   8.182 -0.6036 -2.3697  0.4279
 3236SOL     OW10870   2.032   7.631   6.579  0.0309 -0.6250  0.6034
 3236SOL    HW110871   1.973   7.688   6.628 -1.5903  0.0249 -1.8969
 3236SOL    HW210872   2.120   7.660   6.603 -0.7327  1.8277  0.6520
 3237SOL     OW10873   6.889   2.954   7.920 -0.0054  0.0559  0.6652
 3237SOL    HW110874   6.965   2.900   7.898  0.5443  0.8714  0.4969
 3237SOL    HW210875   6.815   2.911   7.876  0.7607  0.6168 -1.2849
 3238SOL     OW10876   2.861   4.431   4.804 -0.0157 -0.7052 -0.7160
 3238SOL    HW110877   2.940   4.406   4.852  0.9564  1.2206 -1.1860
 3238SOL    HW210878   2.794   4.369   4.833  0.6373 -0.0093  2.7239
 3239SOL     OW10879   4.320   3.426   7.721 -0.7461  0.0957  0.0477
 3239SOL    HW110880   4.269   3.489   7.670  1.5859  0.7410 -1.6540
 3239SOL    HW210881   4.258   3.392   7.786 -2.4829  3.0735  0.1289
 3240SOL     OW10882   8.442   5.393   4.299  0.0683 -0.1089  0.1246
 3240SOL    HW110883   8.407   5.412   4.212 -1.8849 -1.1904  0.6271
 3240SOL    HW210884   8.535   5.416   4.293 -0.4853  1.9348 -1.5706
 3241SOL     OW10885   1.438   6.070   8.682  0.5585  0.6687  0.8288
 3241SOL    HW110886   1.420   5.991   8.630 -1.1590  2.0480 -0.7729
 3241SOL    HW210887   1.384   6.059   8.760  0.4054  0.2048  0.6658
 3242SOL     OW10888   8.807   8.213   2.548 -0.5318 -0.1015  0.7452
 3242SOL    HW110889   8.846   8.130   2.577  1.0479  0.4240  0.2229
 3242SOL    HW210890   8.732   8.186   2.495 -0.2944 -1.1904  0.9245
 3243SOL     OW10891   6.168   0.655   3.079 -0.4080  0.4377 -0.1713
 3243SOL    HW110892   6.182   0.617   3.166 -0.1989 -1.0195 -0.8024
 3243SOL    HW210893   6.108   0.728   3.094  0.8876  1.2366  1.3961
 3244SOL     OW10894   2.863   7.739   5.650  0.7402 -0.1163 -0.0314
 3244SOL    HW110895   2.840   7.827   5.621  0.1679 -0.0463  0.5742
 3244SOL    HW210896   2.939   7.714   5.598  0.5178  0.4859 -0.6537
 3245SOL     OW10897   3.434   5.630   2.663  0.5176 -0.1259  0.8786
 3245SOL    HW110898   3.528   5.619   2.646  0.1446  0.0892 -1.9609
 3245SOL    HW210899   3.392   5.565   2.606 -1.0699 -0.0381  1.8944
 3246SOL     OW10900   6.331   3.189   2.320  0.3371 -0.1365  0.3057
 3246SOL    HW110901   6.420   3.215   2.344  0.2771 -1.2057  1.8410
 3246SOL    HW210902   6.308   3.247   2.248  1.5762  1.4295  1.1047
 3247SOL     OW10903   1.778   8.698   0.462 -0.1169 -0.7426  0.0989
 3247SOL    HW110904   1.827   8.777   0.487  0.3222 -0.8477 -0.4053
 3247SOL    HW210905   1.767   8.705   0.368  0.9714 -1.8555 -0.1369
 3248SOL     OW10906   3.489   3.828   4.062  0.0475  0.1314  0.5048
 3248SOL    HW110907   3.496   3.839   4.157  0.3948 -1.1691  0.6506
 3248SOL    HW210908   3.498   3.734   4.048 -0.0317  0.3007 -0.8231
 3249SOL     OW10909   6.263   5.928   1.066  0.7336  0.0809  0.3346
 3249SOL    HW110910   6.300   6.015   1.053 -1.6687  1.0052 -0.7887
 3249SOL    HW210911   6.279   5.909   1.159 -3.9060  4.4550  2.5253
 3250SOL     OW10912   7.041   2.018   8.128  0.3108  0.1217  0.2028
 3250SOL    HW110913   7.090   2.098   8.106  0.3965 -0.2997 -1.2923
 3250SOL    HW210914   7.108   1.950   8.130  0.1125 -0.0586  0.5544
 3251SOL     OW10915   0.382   8.087   3.543 -0.3631 -0.2161 -0.0460
 3251SOL    HW110916   0.345   8.118   3.460 -2.1203 -0.4203  0.6114
 3251SOL    HW210917   0.461   8.039   3.518  0.0087  1.0452 -1.4488
 3252SOL     OW10918   1.441   7.727   5.459  0.4051 -0.0725 -0.0845
 3252SOL    HW110919   1.485   7.788   5.400 -1.3606  1.1451 -0.2168
 3252SOL    HW210920   1.395   7.783   5.521 -0.7229 -1.2831  0.2141
 3253SOL     OW10921   7.639   8.481   6.224 -0.0166 -0.1916  0.0616
 3253SOL    HW110922   7.724   8.520   6.203  0.8653 -1.1109  1.7278
 3253SOL    HW210923   7.631   8.491   6.319 -1.6126 -0.4512 -0.0233
 3254SOL     OW10924   8.389   8.549   6.531  0.1682 -0.3654  0.1410
 3254SOL    HW110925   8.337   8.478   6.569  0.1676 -0.4622 -0.0401
 3254SOL    HW210926   8.412   8.518   6.443 -0.1994  0.0369 -0.1066
 3255SOL     OW10927   4.445   4.050   8.420 -0.4011  0.4885  0.0233
 3255SOL    HW110928   4.495   4.069   8.341 -0.6969  1.3344  0.0277
 3255SOL    HW210929   4.362   4.097   8.408 -1.1847 -0.8292  0.0422
 3256SOL     OW10930   2.892   2.882   3.419 -0.0336 -0.4786  0.2524
 3256SOL    HW110931   2.846   2.891   3.335  1.5514 -2.1250 -0.8746
 3256SOL    HW210932   2.911   2.971   3.446 -3.7606  0.3103  0.7794
 3257SOL     OW10933   6.544   5.224   0.756  0.0158 -0.3383  0.0058
 3257SOL    HW110934   6.593   5.273   0.823 -0.6965  1.0753 -0.4839
 3257SOL    HW210935   6.612   5.185   0.701  0.6036  0.3850  0.2045
 3258SOL     OW10936   4.815   3.942   8.785 -0.6534  0.0128 -0.4968
 3258SOL    HW110937   4.851   3.853   8.790 -2.1898 -0.5892  0.9194
 3258SOL    HW210938   4.751   3.937   8.714  0.7753  0.6298 -1.8880
 3259SOL     OW10939   8.604   3.494   1.418  0.4848  0.8213  0.5336
 3259SOL    HW110940   8.551   3.553   1.471 -1.0746 -0.4583  0.4863
 3259SOL    HW210941   8.541   3.449   1.362  1.8675  0.6904 -1.0039
 3260SOL     OW10942   0.726   2.834   6.887  0.4152 -0.7549 -0.1624
 3260SOL    HW110943   0.793   2.902   6.879  0.3184 -0.8509 -2.6473
 3260SOL    HW210944   0.643   2.881   6.886  0.3981 -0.7765  0.3438
 3261SOL     OW10945   1.740   7.215   8.097 -0.2857 -0.0698  0.4279
 3261SOL    HW110946   1.761   7.122   8.105  1.8276 -0.0451 -2.9031
 3261SOL    HW210947   1.665   7.217   8.038  0.5893  0.3339 -0.7029
 3262SOL     OW10948   8.576   1.576   5.998  0.2677  0.2329  0.3505
 3262SOL    HW110949   8.542   1.513   6.061  0.1179 -0.7015 -0.6460
 3262SOL    HW210950   8.499   1.608   5.952  0.5436 -0.6486 -0.7690
 3263SOL     OW10951   0.012   5.599   2.938  0.2119  0.0601  0.4911
 3263SOL    HW110952   0.028   5.565   3.026  1.1281  0.1470  0.3661
 3263SOL    HW210953   0.068   5.676   2.932  2.4692 -1.5576 -1.1646
 3264SOL     OW10954   8.682   1.122   0.186 -0.2196  0.3003 -0.0803
 3264SOL    HW110955   8.609   1.088   0.134 -0.2240 -1.5261  1.0638
 3264SOL    HW210956   8.754   1.062   0.169  0.0185  0.1373  1.3587
 3265SOL     OW10957   6.644   4.338   8.456 -0.1193 -0.1708  0.4599
 3265SOL    HW110958   6.685   4.314   8.539  0.4875 -2.2033 -0.3790
 3265SOL    HW210959   6.713   4.327   8.391 -1.6228 -2.5899 -0.8423
 3266SOL     OW10960   1.419   1.086   0.462  0.1443  0.3138  0.4372
 3266SOL    HW110961   1.461   1.100   0.377  1.3716  1.2903  1.1712
 3266SOL    HW210962   1.372   1.167   0.479  0.0267  0.1777  0.7540
 3267SOL     OW10963   8.474   1.298   3.829 -0.3733 -0.1757  0.0066
 3267SOL    HW110964   8.458   1.346   3.748  0.0109  0.2289  0.1662
 3267SOL    HW210965   8.510   1.363   3.889 -1.0402 -0.3636  0.6428
 3268SOL     OW10966   6.332   4.747   3.962 -0.4060 -0.0481 -0.4713
 3268SOL    HW110967   6.399   4.813   3.979  1.2421 -1.8168  0.2492
 3268SOL    HW210968   6.310   4.711   4.048  2.7006 -4.0426 -1.0194
 3269SOL     OW10969   3.373   2.542   5.654  0.4328  0.4658  0.1444
 3269SOL    HW110970   3.309   2.604   5.619 -0.0883 -0.7851 -1.1842
 3269SOL    HW210971   3.342   2.524   5.743  0.6275  2.1033  0.5824
 3270SOL     OW10972   7.320   8.515   0.533  0.1546 -0.7094 -0.1828
 3270SOL    HW110973   7.343   8.608   0.535  1.3677 -0.9993 -0.1923
 3270SOL    HW210974   7.224   8.515   0.538 -0.1178  0.6541 -3.1559
 3271SOL     OW10975   2.829   1.582   6.791  0.2488  0.1840 -0.5871
 3271SOL    HW110976   2.848   1.672   6.764  0.1923 -0.0194 -1.3248
 3271SOL    HW210977   2.768   1.549   6.725 -1.4807  0.3083  0.8916
 3272SOL     OW10978   1.061   1.692   7.741 -0.9107  0.4130 -0.4020
 3272SOL    HW110979   1.117   1.620   7.712  0.4722  0.9673  0.7688
 3272SOL    HW210980   1.091   1.767   7.689  0.1570  0.9295  0.8866
 3273SOL     OW10981   3.380   7.796   1.279  0.1904  0.3984 -0.2668
 3273SOL    HW110982   3.423   7.721   1.238  2.7843 -0.1293  3.0194
 3273SOL    HW210983   3.451   7.844   1.321 -2.0846  0.9005  3.4226
 3274SOL     OW10984   6.927   0.021   6.129  0.4984 -0.1557  0.5785
 3274SOL    HW110985   6.977   0.079   6.072 -0.2374 -1.2238 -1.2274
 3274SOL    HW210986   6.874   0.080   6.182  1.2875  0.8778  0.2548
 3275SOL     OW10987   0.290   6.421   5.279 -0.3103  0.1562 -0.6173
 3275SOL    HW110988   0.259   6.404   5.190 -1.0129  1.5569 -0.6694
 3275SOL    HW210989   0.220   6.473   5.319 -0.2541 -0.9347  0.9459
 3276SOL     OW10990   0.743   2.071   2.300 -0.4855 -0.8828 -0.2480
 3276SOL    HW110991   0.712   2.006   2.237 -0.5695 -2.5343  1.4069
 3276SOL    HW210992   0.671   2.080   2.363 -0.1467  0.2034  0.0103
 3277SOL     OW10993   8.137   7.627   4.574 -0.3869  0.4040  0.3159
 3277SOL    HW110994   8.180   7.546   4.547 -2.3300 -0.2342 -1.0263
 3277SOL    HW210995   8.185   7.653   4.653  1.7064 -0.8271 -0.4457
 3278SOL     OW10996   5.324   1.330   8.076 -0.1263  0.0300 -0.4568
 3278SOL    HW110997   5.294   1.281   8.000  0.3220 -0.0869 -0.5610
 3278SOL    HW210998   5.419   1.315   8.078 -0.1350  0.0529  0.1097
 3279SOL     OW10999   6.623   3.797   1.990 -0.0444 -0.5766 -0.1912
 3279SOL    HW111000   6.645   3.881   1.950  0.4139 -0.3458  0.5089
 3279SOL    HW211001   6.558   3.818   2.056  1.0572 -0.5340  0.9315
 3280SOL     OW11002   5.876   4.587   5.606  0.3615 -0.1287  0.3904
 3280SOL    HW111003   5.963   4.621   5.585  0.2526  0.2515  0.5476
 3280SOL    HW211004   5.822   4.610   5.530  0.0822  0.8258  0.8599
 3281SOL     OW11005   7.523   5.886   6.623  0.4677  0.4533  0.3460
 3281SOL    HW111006   7.520   5.811   6.682 -0.1909 -1.1020 -1.5379
 3281SOL    HW211007   7.570   5.853   6.546  0.2849  2.0312 -0.4786
 3282SOL     OW11008   2.555   1.130   8.357  0.3700 -0.2847  0.0623
 3282SOL    HW111009   2.460   1.120   8.369  0.3134 -1.4320 -1.0248
 3282SOL    HW211010   2.592   1.112   8.444 -0.3739 -0.5456  0.3394
 3283SOL     OW11011   0.064   7.343   5.396 -0.2236  0.1589 -0.2187
 3283SOL    HW111012   0.149   7.386   5.405  0.3837 -1.2475  1.1363
 3283SOL    HW211013   0.075   7.287   5.319 -0.0838  0.2940 -0.2999
 3284SOL     OW11014   4.139   0.511   4.386 -0.1463 -0.2074  0.0547
 3284SOL    HW111015   4.191   0.535   4.309  0.6433 -0.3913  0.5248
 3284SOL    HW211016   4.113   0.594   4.425 -2.2400 -0.0430 -1.4887
 3285SOL     OW11017   1.230   1.009   5.886  0.4672  0.5685  0.5255
 3285SOL    HW111018   1.152   1.064   5.896 -0.7771 -0.8197 -1.1714
 3285SOL    HW211019   1.201   0.921   5.908  1.2615 -0.1541 -1.2043
 3286SOL     OW11020   8.153   7.165   4.671  0.3922 -1.0271 -0.1198
 3286SOL    HW111021   8.126   7.221   4.597 -0.3878 -0.9605  0.2054
 3286SOL    HW211022   8.195   7.090   4.630  1.4008 -0.2386 -0.5716
 3287SOL     OW11023   8.462   5.388   5.924  0.3023  0.4123  0.3400
 3287SOL    HW111024   8.472   5.445   6.000 -0.1147  1.6689 -0.4977
 3287SOL    HW211025   8.375   5.350   5.933 -0.0436  1.1257  0.1575
 3288SOL     OW11026   0.488   6.189   2.272 -0.8536 -0.2396  0.2907
 3288SOL    HW111027   0.405   6.168   2.230  0.1731 -0.5004 -1.7765
 3288SOL    HW211028   0.484   6.146   2.357 -2.3019 -1.3895 -0.3075
 3289SOL     OW11029   3.150   7.565   6.623 -0.3569  0.1887 -0.5009
 3289SOL    HW111030   3.110   7.652   6.614 -2.9424 -0.8688 -0.1327
 3289SOL    HW211031   3.137   7.523   6.538 -0.9285 -0.5186 -0.0768
 3290SOL     OW11032   5.307   3.244   7.766  0.2208 -1.0539  0.7488
 3290SOL    HW111033   5.341   3.277   7.849  0.7651 -1.4119  0.6682
 3290SOL    HW211034   5.246   3.312   7.737  1.8383  0.2594  0.2430
 3291SOL     OW11035   1.202   8.607   2.633  0.9318  0.4757 -0.4184
 3291SOL    HW111036   1.174   8.531   2.581  0.3530  1.0566 -0.9610
 3291SOL    HW211037   1.271   8.572   2.689 -0.3433 -0.8222  0.4316
 3292SOL     OW11038   1.744   4.663   5.953  0.3043  0.4810  0.1232
 3292SOL    HW111039   1.790   4.741   5.922  0.8517  0.5484  1.0577
 3292SOL    HW211040   1.813   4.599   5.969  0.0091  0.3156  0.7936
 3293SOL     OW11041   2.566   7.251   4.814 -0.4199  0.2912  0.3493
 3293SOL    HW111042   2.637   7.299   4.856 -0.9139  0.3026  1.1991
 3293SOL    HW211043   2.511   7.318   4.774 -0.4554  0.3526  0.4997
 3294SOL     OW11044   5.019   3.019   0.069  0.5868  0.3213  0.5294
 3294SOL    HW111045   4.970   3.065   0.002 -0.1328  0.0040  0.8323
 3294SOL    HW211046   4.971   2.938   0.084  1.0450  0.1316  1.0268
 3295SOL     OW11047   8.430   0.359   1.257  0.6330  0.4601  0.0929
 3295SOL    HW111048   8.469   0.317   1.181  2.4993  1.7862  0.2236
 3295SOL    HW211049   8.497   0.351   1.325 -1.0558 -0.8614  1.7147
 3296SOL     OW11050   1.789   7.446   4.803  0.2772  0.5166 -0.5778
 3296SOL    HW111051   1.836   7.521   4.838 -0.9727  0.9199  0.2997
 3296SOL    HW211052   1.759   7.397   4.880  1.6312 -1.2732 -1.1247
 3297SOL     OW11053   5.133   3.094   5.242 -0.0935  0.4924  0.4328
 3297SOL    HW111054   5.127   3.125   5.152 -0.8011 -0.0931  0.2692
 3297SOL    HW211055   5.178   3.164   5.289  1.0822  0.4433 -0.5493
 3298SOL     OW11056   4.040   5.496   1.439  0.1172  0.5789 -0.4157
 3298SOL    HW111057   3.998   5.433   1.381  1.9640 -0.5089 -0.6625
 3298SOL    HW211058   3.979   5.570   1.444 -2.8770 -1.7651  1.0824
 3299SOL     OW11059   0.147   2.857   6.345 -0.3343  0.1239  0.2688
 3299SOL    HW111060   0.166   2.765   6.360  1.1007  0.6119  1.7408
 3299SOL    HW211061   0.166   2.900   6.429  0.0975  1.9120 -0.6749
 3300SOL     OW11062   6.765   4.997   7.187 -0.1592  0.2143  0.5236
 3300SOL    HW111063   6.703   5.007   7.115  0.5695  0.7140 -0.0464
 3300SOL    HW211064   6.722   4.935   7.247 -1.9473  1.7836  0.9785
 3301SOL     OW11065   7.483   1.487   1.930 -0.5931 -0.6194 -0.3643
 3301SOL    HW111066   7.516   1.540   1.857  0.8655  0.2591  0.8687
 3301SOL    HW211067   7.506   1.397   1.907 -2.4498 -0.7037 -2.1525
 3302SOL     OW11068   7.986   4.336   4.294 -0.1746  0.4743 -0.2209
 3302SOL    HW111069   7.933   4.358   4.372  1.0636  1.5264  0.3711
 3302SOL    HW211070   8.061   4.395   4.300  1.6528 -1.7087 -0.4321
 3303SOL     OW11071   6.178   3.431   0.877  0.0213  0.0970 -0.1391
 3303SOL    HW111072   6.086   3.407   0.879  0.4034 -1.5447  2.8772
 3303SOL    HW211073   6.212   3.391   0.797 -1.2042 -2.3629  0.4793
 3304SOL     OW11074   2.983   0.573   5.266  0.2954 -0.6303  0.2480
 3304SOL    HW111075   3.034   0.597   5.189  0.0887 -0.5877  0.1226
 3304SOL    HW211076   3.043   0.583   5.339  0.2381  0.1911  0.1884
 3305SOL     OW11077   1.916   3.996   5.981 -0.4479  0.4029 -0.2256
 3305SOL    HW111078   1.982   4.020   6.047 -0.2597  0.7868 -0.5497
 3305SOL    HW211079   1.846   3.956   6.032 -0.1601  0.3975  0.1765
 3306SOL     OW11080   0.255   4.214   6.275  0.4797 -0.3322 -0.1328
 3306SOL    HW111081   0.280   4.236   6.185 -1.2103  0.1133 -0.5304
 3306SOL    HW211082   0.308   4.273   6.329  2.2043 -1.2486 -0.7431
 3307SOL     OW11083   8.155   4.289   4.533  0.4511  0.6891 -0.2211
 3307SOL    HW111084   8.206   4.219   4.493  0.6068  0.6889 -0.0239
 3307SOL    HW211085   8.118   4.250   4.613 -1.4003  0.1146 -1.2930
 3308SOL     OW11086   6.706   2.891   6.360 -0.2207 -0.1358  0.2456
 3308SOL    HW111087   6.753   2.891   6.276 -0.8209  0.3605 -0.0949
 3308SOL    HW211088   6.690   2.798   6.377  0.1258 -0.2580 -0.0600
 3309SOL     OW11089   2.051   5.085   5.180  0.8306 -0.1874 -0.3657
 3309SOL    HW111090   2.114   5.130   5.124 -0.3711  0.4414 -1.2392
 3309SOL    HW211091   1.999   5.031   5.120 -1.3560  1.5115 -0.1199
 3310SOL     OW11092   1.860   6.950   0.635  0.4304 -0.2386 -0.1323
 3310SOL    HW111093   1.820   6.902   0.708 -0.1498  2.5676  1.5479
 3310SOL    HW211094   1.787   6.969   0.576  0.2345  0.3939  0.3012
 3311SOL     OW11095   3.837   1.420   1.613  0.0734  0.3672 -0.0236
 3311SOL    HW111096   3.808   1.351   1.554  0.3550 -0.2381  0.5432
 3311SOL    HW211097   3.888   1.479   1.557  1.7490 -1.0644 -0.0759
 3312SOL     OW11098   7.775   7.281   0.686 -0.0452  0.2481 -0.2731
 3312SOL    HW111099   7.788   7.282   0.591  0.1788 -0.5874 -0.2587
 3312SOL    HW211100   7.780   7.189   0.710 -1.0772  0.3499  0.4225
 3313SOL     OW11101   7.805   3.956   1.004 -0.2823  0.3283 -0.1987
 3313SOL    HW111102   7.732   3.895   0.995 -1.1910  1.1904  1.0568
 3313SOL    HW211103   7.836   3.969   0.914  0.3622 -2.4317 -0.4808
 3314SOL     OW11104   5.343   2.463   4.759 -0.3961  0.1196 -0.4751
 3314SOL    HW111105   5.345   2.383   4.812 -0.9226  1.2310  1.3009
 3314SOL    HW211106   5.270   2.449   4.698 -1.1987 -0.3263  0.5498
 3315SOL     OW11107   7.783   2.911   8.851 -0.2425 -0.3962 -0.5013
 3315SOL    HW111108   7.844   2.918   8.925  0.7298  0.2956 -1.3281
 3315SOL    HW211109   7.724   2.840   8.875 -0.3284  0.2043  1.1943
 3316SOL     OW11110   0.177   1.855   6.984  0.3046  1.1712  0.1750
 3316SOL    HW111111   0.252   1.896   6.942 -0.0527  0.6905 -0.9590
 3316SOL    HW211112   0.121   1.928   7.009  0.2256  1.4508 -0.7725
 3317SOL     OW11113   0.191   4.278   2.584 -0.0943 -0.2671  0.4019
 3317SOL    HW111114   0.096   4.290   2.576 -0.4258 -1.8964  1.4857
 3317SOL    HW211115   0.208   4.273   2.678  0.9170 -1.0034  0.2036
 3318SOL     OW11116   0.599   4.779   4.667 -0.4352  0.9065  0.0927
 3318SOL    HW111117   0.663   4.716   4.698  0.6911  0.7834 -2.3109
 3318SOL    HW211118   0.623   4.861   4.710  0.8522  0.6820 -0.1701
 3319SOL     OW11119   2.329   0.187   2.837 -0.0505  0.2975  0.1225
 3319SOL    HW111120   2.373   0.112   2.798 -0.2870 -0.1067  0.6280
 3319SOL    HW211121   2.246   0.153   2.871 -1.1077  1.1767 -1.4218
 3320SOL     OW11122   2.804   1.699   8.779  0.2358  0.3379 -0.4537
 3320SOL    HW111123   2.820   1.739   8.693  1.5038  1.3171  0.2032
 3320SOL    HW211124   2.875   1.731   8.834 -1.3951  0.9886  1.4053
 3321SOL     OW11125   1.813   7.389   1.518 -0.3497  0.6290 -0.1310
 3321SOL    HW111126   1.759   7.459   1.555 -0.4550  1.4861 -1.8074
 3321SOL    HW211127   1.841   7.423   1.433 -0.0149 -1.1890 -0.7853
 3322SOL     OW11128   7.331   2.474   4.684  0.0687 -0.4294  0.1989
 3322SOL    HW111129   7.394   2.425   4.735  0.4753  0.2708  0.3865
 3322SOL    HW211130   7.319   2.423   4.604  1.4647 -0.1948 -0.1879
 3323SOL     OW11131   5.903   6.999   0.579  0.5961 -0.1938  0.0271
 3323SOL    HW111132   5.850   6.951   0.642 -0.3587  0.4288 -0.2685
 3323SOL    HW211133   5.966   7.048   0.632 -0.1940  0.3198  0.5083
 3324SOL     OW11134   1.825   5.528   4.858 -0.6581  0.4184 -0.3194
 3324SOL    HW111135   1.804   5.500   4.769  0.1745 -0.4437 -0.2602
 3324SOL    HW211136   1.921   5.525   4.863 -0.7107 -0.1581  0.7947
 3325SOL     OW11137   3.434   1.323   7.396  0.2599 -0.1851  0.6726
 3325SOL    HW111138   3.397   1.239   7.423  0.3132  0.1641  1.9429
 3325SOL    HW211139   3.521   1.324   7.436  0.9844 -0.2693 -0.8419
 3326SOL     OW11140   7.489   3.447   2.293 -0.3293  0.6529 -0.0413
 3326SOL    HW111141   7.496   3.358   2.328  0.7415  1.2093  1.2559
 3326SOL    HW211142   7.439   3.495   2.358  1.1748  1.5616  0.5018
 3327SOL     OW11143   3.427   1.011   7.096 -0.2956 -0.4027  0.6544
 3327SOL    HW111144   3.392   1.100   7.105 -0.8390 -0.5310 -0.0657
 3327SOL    HW211145   3.361   0.955   7.138 -0.5148 -0.5567  0.1236
 3328SOL     OW11146   0.923   5.085   2.565 -0.5653 -0.0038 -0.0924
 3328SOL    HW111147   1.004   5.105   2.518 -0.6465  1.8905  0.5114
 3328SOL    HW211148   0.887   5.010   2.517  0.8000  0.0301 -1.2646
 3329SOL     OW11149   0.578   6.661   5.400  0.2148 -0.5527 -0.5037
 3329SOL    HW111150   0.504   6.613   5.364 -1.0973  0.9830  0.0102
 3329SOL    HW211151   0.550   6.753   5.399  1.2421 -0.1378  1.6959
 3330SOL     OW11152   4.042   7.887   6.795 -0.3653  0.3779  0.1431
 3330SOL    HW111153   3.952   7.857   6.810 -0.4114  0.4057 -0.0759
 3330SOL    HW211154   4.085   7.814   6.752 -0.0784  0.0915  0.8940
 3331SOL     OW11155   6.274   0.410   0.678  0.1453 -0.3894 -0.3967
 3331SOL    HW111156   6.220   0.389   0.602 -0.3386 -0.2909 -0.0824
 3331SOL    HW211157   6.215   0.455   0.738  0.5196 -0.4855  0.0480
 3332SOL     OW11158   2.561   1.199   6.120 -0.3332 -0.1662 -0.0914
 3332SOL    HW111159   2.651   1.217   6.090  0.2738 -2.2698  0.3333
 3332SOL    HW211160   2.510   1.194   6.039 -0.0931  0.9702 -0.3424
 3333SOL     OW11161   2.730   4.855   7.172 -0.0823  0.0624 -0.2148
 3333SOL    HW111162   2.769   4.774   7.139 -0.1867  0.2233 -0.7431
 3333SOL    HW211163   2.776   4.925   7.125  0.0621  0.3150  0.2946
 3334SOL     OW11164   5.154   7.280   4.504 -0.0714 -0.3078  0.2666
 3334SOL    HW111165   5.197   7.219   4.443  0.9388 -0.5840  1.2217
 3334SOL    HW211166   5.154   7.234   4.588 -1.2777  0.1397  0.5304
 3335SOL     OW11167   5.901   7.260   1.184  0.2337 -0.0415 -0.0733
 3335SOL    HW111168   5.960   7.331   1.160 -0.4932  0.5221 -0.2581
 3335SOL    HW211169   5.886   7.213   1.102  0.1962  0.0021 -0.0920
 3336SOL     OW11170   4.365   3.736   1.729  0.2555 -0.0730 -0.2122
 3336SOL    HW111171   4.453   3.698   1.726  0.4517  0.3586  0.0119
 3336SOL    HW211172   4.307   3.661   1.736  0.5652 -0.4095 -1.0531
 3337SOL     OW11173   8.501   7.831   1.495 -0.1067  0.6397  0.1759
 3337SOL    HW111174   8.495   7.862   1.586  2.1665 -2.3048  1.4957
 3337SOL    HW211175   8.589   7.855   1.467  0.6465 -1.7728  0.2262
 3338SOL     OW11176   0.070   4.818   3.116 -0.6332 -0.3598 -0.3463
 3338SOL    HW111177   0.150   4.803   3.066 -0.9713 -1.2925 -0.6406
 3338SOL    HW211178   0.077   4.759   3.191 -1.0701 -0.5025 -0.4127
 3339SOL     OW11179   5.950   4.224   8.333  0.0047  0.5141 -0.5131
 3339SOL    HW111180   5.992   4.309   8.314 -0.5199  0.5053 -1.8042
 3339SOL    HW211181   6.007   4.160   8.291  1.5566 -0.0403  2.1941
 3340SOL     OW11182   1.644   2.561   5.037  0.8476  0.5335  0.4363
 3340SOL    HW111183   1.607   2.477   5.063 -0.1721  1.1209  0.9794
 3340SOL    HW211184   1.601   2.624   5.095  1.6617  1.4123  0.1002
 3341SOL     OW11185   5.446   7.508   7.622  0.2369  0.2995  0.2199
 3341SOL    HW111186   5.420   7.550   7.540  0.2233 -1.0053 -0.4784
 3341SOL    HW211187   5.541   7.494   7.612  0.1302 -0.4063  0.1592
 3342SOL     OW11188   7.625   8.614   8.543 -0.7886 -0.2180 -0.0885
 3342SOL    HW111189   7.711   8.647   8.517 -0.8631  0.4005  0.4139
 3342SOL    HW211190   7.588   8.577   8.463 -0.4725  0.4430 -0.5498
 3343SOL     OW11191   8.257   5.120   8.347  0.3778 -0.3999 -0.6685
 3343SOL    HW111192   8.276   5.136   8.255  0.9123 -0.6170 -0.6031
 3343SOL    HW211193   8.342   5.095   8.385  0.0091 -1.1463 -0.3011
 3344SOL     OW11194   7.226   3.893   6.294  0.1111 -0.0163 -0.7899
 3344SOL    HW111195   7.301   3.949   6.275 -1.4285  1.4377 -3.0950
 3344SOL    HW211196   7.237   3.817   6.237 -0.0334  0.0769 -0.9435
 3345SOL     OW11197   4.236   0.106   1.442  0.4011  0.8638 -0.4213
 3345SOL    HW111198   4.149   0.111   1.481 -0.1808 -0.9730 -1.3945
 3345SOL    HW211199   4.288   0.055   1.504  0.1331 -0.0147 -0.9094
 3346SOL     OW11200   7.616   8.679   4.531 -0.2314  0.2204 -0.4712
 3346SOL    HW111201   7.584   8.607   4.477 -1.4872 -0.6498  1.3400
 3346SOL    HW211202   7.544   8.743   4.531  0.5383  1.1168 -1.3792
 3347SOL     OW11203   8.761   7.333   1.654 -0.1698 -0.1706 -0.4795
 3347SOL    HW111204   8.721   7.250   1.679 -0.5886  0.7265  2.1749
 3347SOL    HW211205   8.730   7.396   1.719  3.2837  1.2007  0.0897
 3348SOL     OW11206   3.718   7.864   6.071  0.1763  0.0248 -0.2034
 3348SOL    HW111207   3.624   7.849   6.069  0.2437 -0.6442  0.9086
 3348SOL    HW211208   3.738   7.905   5.987 -0.9742 -0.6228 -0.8061
 3349SOL     OW11209   5.773   8.297   5.084  0.4095 -0.1886 -0.3332
 3349SOL    HW111210   5.777   8.280   5.178 -1.0000 -1.0437 -0.4030
 3349SOL    HW211211   5.683   8.326   5.069  0.0033 -1.9742 -1.6984
 3350SOL     OW11212   5.479   6.859   6.254 -0.3247  0.1425  0.3240
 3350SOL    HW111213   5.437   6.777   6.230 -2.3888  1.3948 -0.6339
 3350SOL    HW211214   5.469   6.915   6.177  2.4817  0.8188  0.3451
 3351SOL     OW11215   5.118   7.614   4.218  0.5823 -0.2434  0.0694
 3351SOL    HW111216   5.070   7.532   4.211 -0.6249  0.5135 -1.0226
 3351SOL    HW211217   5.209   7.588   4.232  1.0767 -1.9831 -4.4885
 3352SOL     OW11218   1.202   2.266   1.686 -0.3169 -0.1649 -0.0985
 3352SOL    HW111219   1.246   2.181   1.677  0.7094  0.5167 -1.9538
 3352SOL    HW211220   1.127   2.260   1.627 -0.4274  0.1240  0.0118
 3353SOL     OW11221   8.563   1.703   4.416 -0.7606  0.2615 -0.7535
 3353SOL    HW111222   8.481   1.736   4.380 -0.2852  1.2183 -0.9874
 3353SOL    HW211223   8.567   1.737   4.505 -1.4618 -1.2907 -0.0788
 3354SOL     OW11224   0.045   7.161   3.587 -0.0135 -0.0851 -0.0723
 3354SOL    HW111225   0.120   7.113   3.551  0.4262  0.4699  0.0971
 3354SOL    HW211226   0.019   7.220   3.517  0.3423  0.4333  0.2308
 3355SOL     OW11227   5.461   1.339   3.046 -0.3063  0.2673  0.6182
 3355SOL    HW111228   5.473   1.269   2.982 -0.3549  0.3882  0.4759
 3355SOL    HW211229   5.543   1.388   3.043 -0.3345  0.3134  0.5986
 3356SOL     OW11230   6.492   1.198   1.393  0.2250 -0.5307 -0.3667
 3356SOL    HW111231   6.419   1.174   1.336 -1.5059  1.7313  0.7303
 3356SOL    HW211232   6.532   1.274   1.351 -0.7554  0.8507  1.1024
 3357SOL     OW11233   3.590   7.753   0.458 -0.2527  0.5270 -0.2023
 3357SOL    HW111234   3.576   7.801   0.539  2.9155  1.7732 -0.2224
 3357SOL    HW211235   3.521   7.687   0.457 -0.0103 -0.0843  3.9244
 3358SOL     OW11236   4.811   8.460   7.128  0.2730 -0.1181 -0.0874
 3358SOL    HW111237   4.863   8.524   7.080 -2.1274  1.8778 -0.2021
 3358SOL    HW211238   4.747   8.427   7.064  0.4916 -1.5161  0.3717
 3359SOL     OW11239   4.456   4.589   4.192 -0.3262 -0.0962  0.2039
 3359SOL    HW111240   4.538   4.567   4.236 -1.1463 -2.6650  0.6465
 3359SOL    HW211241   4.393   4.600   4.263 -0.1628  3.4962 -0.0215
 3360SOL     OW11242   2.250   2.797   1.919 -0.3295 -0.2960  0.5033
 3360SOL    HW111243   2.194   2.797   1.841 -1.5683  0.8346  1.3481
 3360SOL    HW211244   2.222   2.875   1.969  0.3531 -1.0422  2.1222
 3361SOL     OW11245   8.085   2.531   6.892 -0.0208 -0.2444  0.2616
 3361SOL    HW111246   8.177   2.519   6.867 -0.2753 -0.5537 -0.5650
 3361SOL    HW211247   8.049   2.588   6.823 -0.4547 -0.1350  0.5739
 3362SOL     OW11248   6.581   6.791   1.796  0.4542  0.2386  0.0685
 3362SOL    HW111249   6.605   6.877   1.830  1.2621 -0.1055  0.4102
 3362SOL    HW211250   6.628   6.730   1.853  1.8901 -0.3665 -1.6678
 3363SOL     OW11251   3.135   4.456   8.667  0.9336  0.2671  0.0916
 3363SOL    HW111252   3.198   4.412   8.724 -1.0693 -1.5757  1.0213
 3363SOL    HW211253   3.053   4.457   8.718 -0.0269  1.8493 -1.3684
 3364SOL     OW11254   5.097   1.031   6.169 -0.5315  0.1550  0.0503
 3364SOL    HW111255   5.184   0.993   6.180 -0.0294  0.9315 -1.0648
 3364SOL    HW211256   5.101   1.077   6.085 -2.6010 -1.3610 -0.9575
 3365SOL     OW11257   3.352   3.635   6.058 -0.1860 -0.1703 -0.3102
 3365SOL    HW111258   3.312   3.559   6.100  0.6424 -0.4625 -0.0332
 3365SOL    HW211259   3.444   3.611   6.048  0.1276  0.8804 -0.0325
 3366SOL     OW11260   7.373   6.719   7.899  0.4965  0.1568 -0.0268
 3366SOL    HW111261   7.356   6.783   7.968  0.0200  0.0763 -0.0662
 3366SOL    HW211262   7.438   6.660   7.937  1.0336  0.7346 -0.0358
 3367SOL     OW11263   0.530   0.078   8.425 -0.2115 -0.7424  0.1669
 3367SOL    HW111264   0.624   0.081   8.406  0.4178 -2.2044  2.6421
 3367SOL    HW211265   0.502   0.169   8.418  1.9777  0.1489  1.8147
 3368SOL     OW11266   4.725   2.766   5.348  0.5022 -0.5954  0.5754
 3368SOL    HW111267   4.784   2.690   5.356 -0.8077 -1.4916  2.2926
 3368SOL    HW211268   4.679   2.770   5.431 -1.0883  0.7488 -0.3071
 3369SOL     OW11269   4.834   7.751   0.768 -0.5913  0.3375 -0.2866
 3369SOL    HW111270   4.917   7.735   0.813 -1.0308 -1.5924 -0.1188
 3369SOL    HW211271   4.858   7.754   0.675 -0.3670 -0.5541 -0.2657
 3370SOL     OW11272   2.355   6.242   0.076 -0.1026 -0.3641  0.0415
 3370SOL    HW111273   2.387   6.259   0.165 -0.7670 -2.6027  0.7720
 3370SOL    HW211274   2.433   6.217   0.027  0.4881  2.1014 -0.4303
 3371SOL     OW11275   6.963   6.363   4.222 -0.2005 -0.1602  0.1549
 3371SOL    HW111276   6.911   6.287   4.197  0.6231 -0.1948 -1.5690
 3371SOL    HW211277   6.980   6.351   4.316 -2.8697 -0.3689  0.6959
 3372SOL     OW11278   7.691   3.481   8.029 -0.0341  0.0532  0.4151
 3372SOL    HW111279   7.784   3.497   8.016  0.8020 -1.9439  3.0810
 3372SOL    HW211280   7.681   3.387   8.022 -1.6724  0.1340  1.1340
 3373SOL     OW11281   6.529   7.912   5.211  0.2827 -0.2099 -0.6074
 3373SOL    HW111282   6.456   7.855   5.235  0.0708 -0.1088 -1.0060
 3373SOL    HW211283   6.490   7.999   5.205  0.5309 -0.0829 -0.3663
 3374SOL     OW11284   7.291   7.312   0.548 -0.0182  0.2719  0.5260
 3374SOL    HW111285   7.378   7.331   0.513  0.4027 -0.3857  1.1860
 3374SOL    HW211286   7.260   7.238   0.495  0.2846 -0.1997  0.9956
 3375SOL     OW11287   6.736   1.567   1.788  0.1126  0.5003  0.0680
 3375SOL    HW111288   6.778   1.615   1.858 -0.9988  0.3294  0.8801
 3375SOL    HW211289   6.686   1.633   1.740 -0.5996  0.3387  0.5691
 3376SOL     OW11290   7.672   3.881   4.892  0.2660 -0.9724 -0.1621
 3376SOL    HW111291   7.715   3.946   4.836  0.2558 -2.5959 -2.1957
 3376SOL    HW211292   7.579   3.890   4.874  0.2318 -1.2617 -0.1469
 3377SOL     OW11293   8.107   4.113   1.848  0.4990  0.1202  0.1241
 3377SOL    HW111294   8.065   4.120   1.934  0.3934  0.1373  0.0707
 3377SOL    HW211295   8.095   4.199   1.808  0.9664  0.2658  0.2837
 3378SOL     OW11296   8.190   6.929   3.061  0.2401  0.3176 -0.4235
 3378SOL    HW111297   8.134   6.853   3.075  1.2076 -0.2073  0.7728
 3378SOL    HW211298   8.189   6.976   3.144  3.1066 -0.8011  0.3952
 3379SOL     OW11299   4.788   6.614   6.102 -0.0496  0.1458 -0.4226
 3379SOL    HW111300   4.737   6.538   6.073 -0.0351  0.0021 -0.0802
 3379SOL    HW211301   4.861   6.576   6.151 -0.9986  0.4240  1.2945
 3380SOL     OW11302   7.693   2.678   3.452 -0.4459 -0.2088  0.5199
 3380SOL    HW111303   7.627   2.699   3.386 -0.8534 -2.1177  0.2506
 3380SOL    HW211304   7.643   2.640   3.525  0.0952  0.9749  1.5452
 3381SOL     OW11305   4.770   3.574   0.539 -0.6240  0.5039  0.1946
 3381SOL    HW111306   4.789   3.570   0.445 -0.8057  1.6262  0.0947
 3381SOL    HW211307   4.677   3.595   0.544 -0.3350  1.7844  0.5883
 3382SOL     OW11308   3.759   8.729   2.532  0.0097 -0.1221 -0.3159
 3382SOL    HW111309   3.678   8.681   2.549  1.2360 -1.6170  1.6575
 3382SOL    HW211310   3.734   8.821   2.541 -1.4889 -0.5421  0.1201
 3383SOL     OW11311   1.258   0.389   0.314  0.0881 -0.5494 -0.3939
 3383SOL    HW111312   1.232   0.481   0.316 -0.5015 -0.7174  0.3641
 3383SOL    HW211313   1.337   0.385   0.368 -0.2118 -0.5753  0.0488
 3384SOL     OW11314   2.453   8.558   3.334 -0.1519 -0.3030  0.2257
 3384SOL    HW111315   2.507   8.507   3.395 -0.4995 -2.5134 -1.1719
 3384SOL    HW211316   2.488   8.646   3.338 -0.7728 -0.0552  4.2897
 3385SOL     OW11317   7.473   3.616   6.087 -0.4943  0.1053 -0.4723
 3385SOL    HW111318   7.522   3.550   6.038  0.5017 -0.2159  0.9029
 3385SOL    HW211319   7.467   3.691   6.028 -0.6352 -0.7991 -1.6266
 3386SOL     OW11320   1.961   7.000   1.865 -0.5014 -0.3786  0.4337
 3386SOL    HW111321   1.940   7.073   1.923  0.6057 -0.3252  0.7857
 3386SOL    HW211322   1.914   7.019   1.784  0.3419  1.1165  0.2558
 3387SOL     OW11323   2.787   0.398   1.995 -0.2496  0.1496 -0.3196
 3387SOL    HW111324   2.792   0.490   1.968  0.1234  0.3374  0.3665
 3387SOL    HW211325   2.877   0.367   1.993 -0.0213  0.5109  1.8050
 3388SOL     OW11326   1.311   8.526   4.715 -0.0664  0.0567 -0.5220
 3388SOL    HW111327   1.239   8.467   4.694 -0.1988 -0.0220  0.1395
 3388SOL    HW211328   1.362   8.479   4.780  0.7229  0.0113 -1.1514
 3389SOL     OW11329   0.056   2.976   8.402  0.7811 -0.1505 -0.3363
 3389SOL    HW111330  -0.022   3.000   8.351 -0.2315 -1.9625  0.2425
 3389SOL    HW211331   0.071   3.050   8.460 -1.3909 -0.2643  0.4953
 3390SOL     OW11332   1.368   3.264   6.705 -0.2952  0.3863  0.1895
 3390SOL    HW111333   1.422   3.209   6.647  0.4411  1.2163  0.0680
 3390SOL    HW211334   1.432   3.314   6.756 -0.9590  0.8840  0.5392
 3391SOL     OW11335   2.211   1.266   6.946  0.6031  0.2250  0.1199
 3391SOL    HW111336   2.126   1.246   6.984  0.1261  1.3458 -0.3147
 3391SOL    HW211337   2.251   1.181   6.930 -0.0697 -0.2973  1.1363
 3392SOL     OW11338   0.985   0.459   3.790  0.4322 -0.1774  0.6085
 3392SOL    HW111339   1.014   0.378   3.748 -1.2015 -0.3716 -0.2422
 3392SOL    HW211340   0.893   0.467   3.765  0.2908  1.4310  1.5030
 3393SOL     OW11341   4.855   1.737   7.180  0.4111 -0.0402 -0.3215
 3393SOL    HW111342   4.912   1.748   7.256 -0.1777 -0.0654  0.1326
 3393SOL    HW211343   4.796   1.812   7.184  2.4435  1.8861 -2.6426
 3394SOL     OW11344   4.240   7.757   4.617  0.2777 -0.3255  0.2746
 3394SOL    HW111345   4.275   7.672   4.589  1.2555  0.5032 -1.1166
 3394SOL    HW211346   4.147   7.753   4.596  0.4483 -0.7997 -0.4233
 3395SOL     OW11347   1.452   6.747   4.941  0.1936  0.3278 -0.4088
 3395SOL    HW111348   1.502   6.666   4.929 -0.1957 -0.5259  2.8838
 3395SOL    HW211349   1.361   6.720   4.939 -0.0024  0.9779 -0.7542
 3396SOL     OW11350   7.523   0.791   2.905 -0.1967 -0.4999  0.3086
 3396SOL    HW111351   7.581   0.866   2.894 -0.2385 -0.7495 -2.1871
 3396SOL    HW211352   7.459   0.820   2.970  0.8924  0.9066  0.8036
 3397SOL     OW11353   1.478   2.981   2.110  1.1261 -0.0447 -0.2907
 3397SOL    HW111354   1.488   2.886   2.115 -1.4027 -0.3071  0.9830
 3397SOL    HW211355   1.453   2.998   2.019 -0.7954 -0.9040  0.0463
 3398SOL     OW11356   7.025   7.411   1.748 -0.3323 -0.1111  0.0237
 3398SOL    HW111357   7.051   7.491   1.702  1.1769 -0.5087  0.1327
 3398SOL    HW211358   6.948   7.380   1.700  0.1469  0.4431 -1.1440
 3399SOL     OW11359   5.459   1.457   0.371 -0.1072 -0.0641  0.7218
 3399SOL    HW111360   5.458   1.506   0.288  0.8593 -0.4335  0.4788
 3399SOL    HW211361   5.401   1.382   0.356  2.0528 -1.5848 -0.5647
 3400SOL     OW11362   8.256   4.241   8.783 -0.0743 -0.2991 -0.0390
 3400SOL    HW111363   8.193   4.312   8.790  0.4647  0.0426  1.7641
 3400SOL    HW211364   8.337   4.276   8.819  1.6317 -0.2921 -3.4646
 3401SOL     OW11365   0.697   3.733   6.957 -0.2775 -0.1514 -0.2063
 3401SOL    HW111366   0.662   3.796   6.895 -1.6792 -0.3097  0.3937
 3401SOL    HW211367   0.688   3.648   6.913 -0.0575 -0.1315 -0.2932
 3402SOL     OW11368   8.749   8.380   8.184  0.0774 -0.1682 -0.1526
 3402SOL    HW111369   8.694   8.311   8.146 -1.8849  1.1067  0.2025
 3402SOL    HW211370   8.804   8.409   8.111  0.4391 -1.6177 -0.4779
 3403SOL     OW11371   6.803   7.461   7.657 -0.4100  0.0225  0.3328
 3403SOL    HW111372   6.821   7.554   7.663  0.7180 -0.0904 -0.7363
 3403SOL    HW211373   6.777   7.435   7.745 -0.1083  1.2237  0.7903
 3404SOL     OW11374   2.061   8.654   8.254 -0.0376 -0.3990  0.2976
 3404SOL    HW111375   2.043   8.582   8.315  0.3191 -0.6736  0.0846
 3404SOL    HW211376   2.153   8.677   8.271  0.6408 -1.6759 -1.3425
 3405SOL     OW11377   4.859   5.011   4.690 -0.1433 -0.0060 -0.1845
 3405SOL    HW111378   4.835   5.056   4.609  0.1836  0.5366  0.0096
 3405SOL    HW211379   4.919   5.072   4.734  0.0130 -0.4754  0.2647
 3406SOL     OW11380   4.711   2.984   6.305  0.3196 -0.1338 -0.2546
 3406SOL    HW111381   4.689   2.891   6.309  1.7064 -0.4670  0.2940
 3406SOL    HW211382   4.628   3.029   6.290 -0.7950 -1.2472  2.2328
 3407SOL     OW11383   0.360   7.274   6.514 -0.5451 -0.5812  0.5627
 3407SOL    HW111384   0.270   7.306   6.500 -0.3603 -0.2271  0.1323
 3407SOL    HW211385   0.394   7.327   6.585 -0.2362  0.2167 -0.1568
 3408SOL     OW11386   3.071   0.867   0.773 -0.8520 -0.6843 -0.4964
 3408SOL    HW111387   2.999   0.855   0.835 -1.2583  1.8177 -0.4082
 3408SOL    HW211388   3.029   0.869   0.687 -0.6408 -1.1730 -0.6146
 3409SOL     OW11389   6.698   2.669   4.471 -0.3351  0.2118  0.7212
 3409SOL    HW111390   6.642   2.713   4.407  1.2328  0.0174 -0.8534
 3409SOL    HW211391   6.753   2.738   4.507  0.5931 -0.0658 -0.1161
 3410SOL     OW11392   6.864   1.551   6.394  0.6204 -0.5290 -0.3953
 3410SOL    HW111393   6.893   1.513   6.311 -1.4854 -1.0148 -0.9708
 3410SOL    HW211394   6.768   1.553   6.387  0.4925  2.6677  0.5927
 3411SOL     OW11395   7.003   3.646   3.718 -0.4930  0.5053 -0.5056
 3411SOL    HW111396   6.988   3.566   3.767  0.0069  0.0234 -1.1338
 3411SOL    HW211397   6.954   3.635   3.637  1.2118 -0.0643 -1.5116
 3412SOL     OW11398   8.006   4.979   0.485  0.2530 -0.1384  0.0104
 3412SOL    HW111399   7.968   5.025   0.411  1.2891 -1.4124 -1.3744
 3412SOL    HW211400   7.951   4.902   0.498 -0.1245  0.2554  0.8007
 3413SOL     OW11401   7.129   1.009   3.623  0.0912 -0.6699  0.6632
 3413SOL    HW111402   7.103   1.076   3.687  0.8871 -0.2146  0.5244
 3413SOL    HW211403   7.122   0.926   3.670 -0.1237 -0.4119  1.0894
 3414SOL     OW11404   7.988   8.346   1.908 -0.0383 -0.5989 -0.2861
 3414SOL    HW111405   7.898   8.337   1.876 -0.3936 -0.9526  0.7404
 3414SOL    HW211406   8.038   8.377   1.833 -1.0082 -0.4652 -0.8944
 3415SOL     OW11407   8.791   2.141   3.784 -0.1215 -0.1388 -0.1452
 3415SOL    HW111408   8.759   2.092   3.860 -0.5797 -0.2623 -0.4107
 3415SOL    HW211409   8.738   2.108   3.711  0.5471 -0.2648 -0.5797
 3416SOL     OW11410   4.144   1.677   6.809  1.1622 -0.4900  0.0558
 3416SOL    HW111411   4.117   1.587   6.828  1.5064 -0.1632  2.3649
 3416SOL    HW211412   4.072   1.713   6.757 -0.4225 -1.2281  1.6291
 3417SOL     OW11413   2.057   5.452   4.969 -0.3180  0.3080 -0.3794
 3417SOL    HW111414   2.149   5.477   4.965  0.0722 -1.1334 -1.4902
 3417SOL    HW211415   2.059   5.357   4.983 -1.6383  0.2645 -0.3691
 3418SOL     OW11416   6.412   0.044   7.078 -0.2188 -0.5870  0.5108
 3418SOL    HW111417   6.418  -0.051   7.084  1.9903 -0.5155  0.2110
 3418SOL    HW211418   6.423   0.074   7.168 -0.3949 -0.5826  0.5322
 3419SOL     OW11419   1.267   5.349   6.928  0.2695  0.6012  0.4998
 3419SOL    HW111420   1.227   5.316   6.848  1.0454  1.1054 -0.1047
 3419SOL    HW211421   1.270   5.273   6.986 -0.5759  0.3052  0.1727
 3420SOL     OW11422   0.949   7.356   6.797 -0.2724  0.2363  0.0858
 3420SOL    HW111423   0.922   7.435   6.844 -0.8347 -0.9383  1.8549
 3420SOL    HW211424   1.034   7.334   6.836 -0.8797 -0.9219  0.7944
 3421SOL     OW11425   3.110   0.109   3.782  0.3372 -0.1410  0.0594
 3421SOL    HW111426   3.162   0.106   3.703  0.3716 -2.0166  0.1179
 3421SOL    HW211427   3.148   0.043   3.839 -1.0606 -0.3896  0.7575
 3422SOL     OW11428   4.990   0.624   7.750 -0.2026  0.1638  0.3558
 3422SOL    HW111429   4.954   0.572   7.822  0.4037 -0.2492  0.3737
 3422SOL    HW211430   4.969   0.714   7.773  1.0201  0.1647  1.7029
 3423SOL     OW11431   1.558   8.298   3.960  0.6257 -0.4256  0.3793
 3423SOL    HW111432   1.520   8.211   3.971 -1.0790  0.1756 -0.3931
 3423SOL    HW211433   1.631   8.301   4.021  0.4415 -2.2375  0.7214
 3424SOL     OW11434   3.769   6.963   5.059 -0.1125 -0.7402  0.0956
 3424SOL    HW111435   3.687   6.966   5.109 -0.2525  0.1500 -0.1731
 3424SOL    HW211436   3.816   6.887   5.094  0.6249  0.8681  2.8739
 3425SOL     OW11437   6.679   4.819   7.692  0.0580  0.0501  0.4685
 3425SOL    HW111438   6.730   4.885   7.646 -2.1078  1.8652  0.4783
 3425SOL    HW211439   6.739   4.746   7.704  1.7157  0.8530 -2.1270
 3426SOL     OW11440   3.341   3.062   2.968 -0.2093 -0.1960  0.4085
 3426SOL    HW111441   3.247   3.071   2.951 -0.3361 -0.2283  1.0792
 3426SOL    HW211442   3.371   3.152   2.980  0.0752 -0.0843 -0.9217
 3427SOL     OW11443   5.634   6.243   2.851  0.3463 -0.2564  0.0069
 3427SOL    HW111444   5.690   6.170   2.827 -0.4115 -0.8485  0.0064
 3427SOL    HW211445   5.609   6.226   2.941 -0.2100 -0.2442 -0.1419
 3428SOL     OW11446   7.599   8.709   3.842  0.2426 -0.0272  0.1803
 3428SOL    HW111447   7.678   8.658   3.824 -0.9281 -1.4369 -1.2370
 3428SOL    HW211448   7.631   8.798   3.856  1.9249 -0.0496 -2.7098
 3429SOL     OW11449   0.565   8.041   1.429  0.5381  0.0923 -0.5920
 3429SOL    HW111450   0.561   8.126   1.474 -1.6254 -0.2406 -0.0800
 3429SOL    HW211451   0.497   8.046   1.362  1.0063 -0.9305 -1.1757
 3430SOL     OW11452   7.539   3.297   4.767 -0.2956  0.4462  0.3398
 3430SOL    HW111453   7.569   3.383   4.738 -0.0804  0.1524 -0.3228
 3430SOL    HW211454   7.555   3.239   4.693  0.2686 -0.3241  1.0400
 3431SOL     OW11455   1.120   2.894   8.651  0.6982  0.0774  0.6268
 3431SOL    HW111456   1.094   2.985   8.666 -0.4737 -0.0747 -0.3651
 3431SOL    HW211457   1.042   2.843   8.675  0.4469 -0.4750 -1.2087
 3432SOL     OW11458   7.811   0.934   2.101  0.0106  0.2760 -0.0546
 3432SOL    HW111459   7.848   0.960   2.016 -1.4357  1.7535 -0.2941
 3432SOL    HW211460   7.791   1.017   2.144  0.6841 -0.4595  1.7419
 3433SOL     OW11461   5.923   3.608   3.519  0.0038  0.1213 -0.8433
 3433SOL    HW111462   6.017   3.597   3.528 -0.0979 -2.3364 -2.1308
 3433SOL    HW211463   5.912   3.657   3.437  0.1273  0.0658 -0.8920
 3434SOL     OW11464   6.973   3.700   7.364 -0.0291 -0.0071  0.1057
 3434SOL    HW111465   7.067   3.706   7.376 -0.1301 -2.4574  3.3810
 3434SOL    HW211466   6.952   3.607   7.375 -2.9605  0.6445  1.1553
 3435SOL     OW11467   6.239   0.868   1.352 -0.2523 -0.2833 -0.7535
 3435SOL    HW111468   6.286   0.832   1.427  0.7128  1.4439 -0.4683
 3435SOL    HW211469   6.154   0.825   1.353 -0.1467 -0.5133  1.1730
 3436SOL     OW11470   5.123   4.669   2.641 -0.0446 -0.1140  0.1916
 3436SOL    HW111471   5.207   4.672   2.688  0.0249 -1.7664  0.2358
 3436SOL    HW211472   5.078   4.749   2.668  2.0304  1.5108 -0.8702
 3437SOL     OW11473   6.780   2.685   3.446 -0.3417  0.0562 -0.1871
 3437SOL    HW111474   6.777   2.779   3.462  1.8060  0.0444  0.6623
 3437SOL    HW211475   6.700   2.666   3.397 -0.4871  2.4307 -1.0067
 3438SOL     OW11476   7.537   3.358   4.136 -0.8172  0.0106  0.0019
 3438SOL    HW111477   7.504   3.440   4.173 -2.3024  0.9396 -3.0064
 3438SOL    HW211478   7.631   3.373   4.124 -0.7225  0.5004  1.2809
 3439SOL     OW11479   4.141   0.486   0.588 -0.0674 -0.0740 -0.7791
 3439SOL    HW111480   4.117   0.570   0.628  1.1094  0.6764 -1.5668
 3439SOL    HW211481   4.125   0.499   0.494 -0.7425 -1.0576 -0.8153
 3440SOL     OW11482   7.762   1.743   7.685  0.5048  0.4027 -0.3909
 3440SOL    HW111483   7.814   1.705   7.756  0.2067 -1.1335 -0.9817
 3440SOL    HW211484   7.827   1.779   7.625  0.8644 -0.7581 -0.7084
 3441SOL     OW11485   6.639   7.857   3.357  0.3163 -0.1269 -0.0919
 3441SOL    HW111486   6.632   7.884   3.448 -1.4541  0.0198 -0.2301
 3441SOL    HW211487   6.572   7.908   3.312 -0.3089 -1.7416 -1.0810
 3442SOL     OW11488   5.350   5.888   4.062  0.2279  0.1405  0.2791
 3442SOL    HW111489   5.360   5.953   3.993  1.0383 -1.2678 -0.9888
 3442SOL    HW211490   5.433   5.840   4.063 -1.5342 -3.3938 -1.5539
 3443SOL     OW11491   8.064   0.684   4.997 -0.4083  0.3564 -0.6492
 3443SOL    HW111492   8.156   0.710   4.996 -0.7838  1.7788 -1.9402
 3443SOL    HW211493   8.047   0.649   4.910 -1.1070  0.2019 -0.4611
 3444SOL     OW11494   5.866   5.608   0.276 -0.4245  0.1893  0.4524
 3444SOL    HW111495   5.804   5.640   0.210  0.4588  0.2070 -0.3861
 3444SOL    HW211496   5.942   5.665   0.267 -0.2061  0.0481  1.3437
 3445SOL     OW11497   3.121   1.113   3.925 -0.0895  0.1743 -0.1917
 3445SOL    HW111498   3.137   1.160   4.007 -0.6484 -0.0005  0.0233
 3445SOL    HW211499   3.126   1.021   3.950 -0.1991  0.1206 -0.3706
 3446SOL     OW11500   1.425   7.634   6.036  0.4081  0.3888 -0.7539
 3446SOL    HW111501   1.492   7.697   6.063 -0.3871  1.7089 -1.7376
 3446SOL    HW211502   1.433   7.632   5.940  1.3844 -2.1414 -0.7013
 3447SOL     OW11503   7.015   7.101   7.175  0.4112  0.0937 -0.8394
 3447SOL    HW111504   7.019   7.051   7.257  1.9196  0.5233 -0.6290
 3447SOL    HW211505   6.935   7.070   7.133 -0.3536 -0.2125  0.7410
 3448SOL     OW11506   6.241   6.483   1.948  0.4148  0.1071 -0.1620
 3448SOL    HW111507   6.262   6.444   1.863 -2.0802 -0.6511 -0.5011
 3448SOL    HW211508   6.252   6.578   1.934 -0.2742  0.0258 -1.4552
 3449SOL     OW11509   6.573   2.406   4.627  0.2178 -0.1249 -0.1604
 3449SOL    HW111510   6.638   2.413   4.696  1.0252  1.3943 -1.0047
 3449SOL    HW211511   6.600   2.472   4.563 -2.3108  0.7683 -0.4125
 3450SOL     OW11512   5.838   3.210   3.627 -0.1561 -0.8275  0.2493
 3450SOL    HW111513   5.896   3.205   3.703  0.7777  0.9199 -0.3104
 3450SOL    HW211514   5.883   3.268   3.566 -1.5200 -1.1327 -1.0977
 3451SOL     OW11515   3.181   2.362   1.585  0.2085  0.0121  0.0044
 3451SOL    HW111516   3.271   2.347   1.614  0.2457  2.6231  1.5281
 3451SOL    HW211517   3.190   2.382   1.492  1.4136  1.5690  0.4117
 3452SOL     OW11518   2.430   0.217   0.233  0.1801 -0.2487  0.0179
 3452SOL    HW111519   2.385   0.135   0.257 -1.1271  0.6671  0.8403
 3452SOL    HW211520   2.360   0.274   0.202  0.8578  1.0234  0.7550
 3453SOL     OW11521   0.429   0.603   8.072 -0.2084  0.3719 -0.0722
 3453SOL    HW111522   0.504   0.563   8.116  0.3108  0.1979 -1.0652
 3453SOL    HW211523   0.356   0.589   8.131  0.3333 -0.4235  0.4304
 3454SOL     OW11524   1.313   1.695   3.367  0.6830  0.0127 -0.6257
 3454SOL    HW111525   1.225   1.694   3.329  0.7000 -0.0188 -0.6646
 3454SOL    HW211526   1.344   1.785   3.353  0.0955  0.4560  0.6849
 3455SOL     OW11527   1.867   7.075   2.406 -0.3912  0.7365  0.1743
 3455SOL    HW111528   1.808   7.019   2.356 -1.2374  1.1941  0.6532
 3455SOL    HW211529   1.954   7.057   2.369 -1.0084  1.2160 -1.6148
 3456SOL     OW11530   4.011   1.433   0.515 -0.0281 -0.1664 -0.3872
 3456SOL    HW111531   3.938   1.439   0.577 -0.9080  0.7538 -1.4544
 3456SOL    HW211532   4.087   1.464   0.564 -0.6295  0.1821  0.3499
 3457SOL     OW11533   7.441   8.188   2.101 -0.4611  0.4476 -0.1314
 3457SOL    HW111534   7.372   8.247   2.070 -0.6746 -0.7626 -2.1474
 3457SOL    HW211535   7.521   8.240   2.097 -1.0310  1.4694  0.9929
 3458SOL     OW11536   4.035   6.158   1.960  0.2484  0.0282 -0.4971
 3458SOL    HW111537   4.033   6.065   1.983 -1.2798  0.1007 -0.2443
 3458SOL    HW211538   3.966   6.197   2.012  0.1857  1.1331 -1.3780
 3459SOL     OW11539   8.322   0.062   6.940  0.0268  0.2882  0.1576
 3459SOL    HW111540   8.412   0.094   6.933 -0.1557  0.5235 -1.5656
 3459SOL    HW211541   8.268   0.137   6.916 -0.5244 -0.4908 -1.0944
 3460SOL     OW11542   8.505   1.048   8.052  0.5459  0.5050  0.3249
 3460SOL    HW111543   8.435   1.040   8.117  0.1974  0.9935  0.0164
 3460SOL    HW211544   8.576   1.092   8.099  0.5053  0.3533  0.5296
 3461SOL     OW11545   4.803   8.243   2.922  0.4523 -0.0888 -0.8682
 3461SOL    HW111546   4.776   8.151   2.926  0.1744  0.0309  0.3030
 3461SOL    HW211547   4.730   8.291   2.960  1.7909  0.3344  1.3530
 3462SOL     OW11548   4.021   6.471   4.183  0.2104  0.1115  0.3564
 3462SOL    HW111549   3.998   6.387   4.224 -1.3365  0.4299  0.1982
 3462SOL    HW211550   4.012   6.535   4.253  0.6425  0.2445  0.2909
 3463SOL     OW11551   6.722   0.235   3.720  0.2614 -0.0894 -0.2958
 3463SOL    HW111552   6.735   0.146   3.686 -0.8117 -0.2537 -0.3032
 3463SOL    HW211553   6.631   0.237   3.747  0.1714  1.1366 -0.6335
 3464SOL     OW11554   3.858   6.632   8.506 -0.0517 -0.1088 -0.1591
 3464SOL    HW111555   3.904   6.548   8.502  0.2224  0.0588 -0.6118
 3464SOL    HW211556   3.852   6.652   8.599 -1.4664 -1.3695  0.0627
 3465SOL     OW11557   7.634   4.304   2.670 -0.1957 -0.0796 -0.1609
 3465SOL    HW111558   7.549   4.314   2.712  0.1830  0.6497  0.4537
 3465SOL    HW211559   7.645   4.209   2.659 -0.7760 -0.2144  0.3942
 3466SOL     OW11560   0.540   4.856   4.975  0.3016  0.9382 -0.0157
 3466SOL    HW111561   0.453   4.896   4.977  0.3954  1.3838 -2.2533
 3466SOL    HW211562   0.601   4.930   4.968  0.4983  0.6577 -3.6829
 3467SOL     OW11563   0.120   8.370   2.686 -0.1038 -0.8441 -0.3862
 3467SOL    HW111564   0.056   8.320   2.635 -1.6231  0.6136 -0.0001
 3467SOL    HW211565   0.179   8.407   2.621 -0.1432 -1.5194 -0.8212
 3468SOL     OW11566   4.932   7.331   1.264 -0.0565 -0.1110  0.2469
 3468SOL    HW111567   4.910   7.238   1.266 -0.7113 -0.0550 -1.5768
 3468SOL    HW211568   4.872   7.372   1.327 -1.1989 -0.6983 -0.4162
 3469SOL     OW11569   5.153   8.721   5.237 -0.4584 -0.2262 -0.2393
 3469SOL    HW111570   5.145   8.751   5.327  0.0356 -1.3389  0.1868
 3469SOL    HW211571   5.140   8.800   5.184  2.5359  1.1531  0.8764
 3470SOL     OW11572   1.630   2.115   7.978 -0.4788 -0.0314 -0.5253
 3470SOL    HW111573   1.720   2.146   7.966 -0.7699  0.2577 -2.2058
 3470SOL    HW211574   1.579   2.194   7.989 -0.4844 -0.2194  0.9625
 3471SOL     OW11575   2.820   0.545   8.252  0.9678 -0.2297  0.2183
 3471SOL    HW111576   2.743   0.597   8.229 -0.0436 -1.8432 -0.2435
 3471SOL    HW211577   2.880   0.607   8.292 -0.5583  1.0987  0.5545
 3472SOL     OW11578   0.209   4.100   1.225  0.6205 -0.3224  1.1443
 3472SOL    HW111579   0.175   4.018   1.191  1.2037 -0.4207  0.7949
 3472SOL    HW211580   0.188   4.098   1.318 -1.2016  0.0579  0.7810
 3473SOL     OW11581   1.447   5.285   4.373 -0.1870 -0.4436  0.1282
 3473SOL    HW111582   1.379   5.343   4.408 -0.2460  0.2456 -1.0803
 3473SOL    HW211583   1.402   5.232   4.307  0.4093 -0.0607 -0.6054
 3474SOL     OW11584   0.305   1.242   2.521 -0.0960 -0.2446 -0.2141
 3474SOL    HW111585   0.216   1.276   2.528  0.8397  2.2393  0.7373
 3474SOL    HW211586   0.336   1.234   2.611 -0.2527 -4.0057 -0.3340
 3475SOL     OW11587   7.115   4.984   4.218  0.9654  0.3016  0.3080
 3475SOL    HW111588   7.130   4.916   4.152 -0.4620  1.0581 -0.8449
 3475SOL    HW211589   7.186   5.046   4.204 -0.2551  1.3481 -1.7738
 3476SOL     OW11590   2.913   6.168   1.219  0.0040  0.3416  0.1177
 3476SOL    HW111591   2.896   6.260   1.238  0.0729  0.3040  0.3611
 3476SOL    HW211592   2.996   6.149   1.263  0.0224  0.1794  0.0146
 3477SOL     OW11593   3.470   2.314   0.065  0.2908  0.0324 -0.9562
 3477SOL    HW111594   3.432   2.395   0.029  3.4006  2.0420 -0.0868
 3477SOL    HW211595   3.451   2.318   0.158 -0.4943 -0.8522 -1.0674
 3478SOL     OW11596   8.148   7.792   0.816  0.2402  0.0761 -0.4862
 3478SOL    HW111597   8.187   7.783   0.903  0.3486 -1.0919 -0.6368
 3478SOL    HW211598   8.136   7.886   0.804 -0.1997  0.2168  0.9762
 3479SOL     OW11599   5.803   3.300   5.140  0.0678  0.5795  0.1043
 3479SOL    HW111600   5.758   3.217   5.156  0.1472  0.5760  0.3125
 3479SOL    HW211601   5.779   3.354   5.215  2.2456 -0.1765  1.4418
 3480SOL     OW11602   3.850   6.541   2.790 -0.1025 -0.5990 -0.1775
 3480SOL    HW111603   3.854   6.621   2.738  2.4518 -0.7026 -0.2502
 3480SOL    HW211604   3.839   6.572   2.880 -0.5965 -0.2534 -0.3501
 3481SOL     OW11605   7.380   6.035   8.024 -0.4531  0.1814 -0.5645
 3481SOL    HW111606   7.312   6.085   7.979 -0.1182  1.5147  0.3403
 3481SOL    HW211607   7.334   5.961   8.063 -1.0506  0.0318 -1.5425
 3482SOL     OW11608   4.108   4.208   2.427  0.1579 -0.2067  0.0463
 3482SOL    HW111609   4.184   4.266   2.424  1.2670 -1.6250 -0.1126
 3482SOL    HW211610   4.142   4.124   2.456 -1.3740 -0.8636  0.0534
 3483SOL     OW11611   4.004   7.876   5.163  0.2592  0.1946 -0.2006
 3483SOL    HW111612   3.996   7.897   5.070 -2.1090 -1.1489 -0.3793
 3483SOL    HW211613   4.014   7.781   5.164  1.1593  0.2835  0.9215
 3484SOL     OW11614   4.090   5.558   6.955 -0.1227 -0.4190 -0.2033
 3484SOL    HW111615   4.093   5.606   6.872 -0.0953 -1.0073 -0.5485
 3484SOL    HW211616   4.179   5.566   6.990 -0.3677  0.5960  0.2202
 3485SOL     OW11617   7.148   8.015   8.136 -0.0895  0.3530  0.5059
 3485SOL    HW111618   7.168   8.101   8.100 -0.4241 -0.3715 -1.5584
 3485SOL    HW211619   7.175   8.021   8.228  2.3951  1.8176 -0.2003
 3486SOL     OW11620   4.335   4.934   5.248 -0.2213  0.8654  0.2681
 3486SOL    HW111621   4.430   4.927   5.238 -0.3687  0.4324 -1.0767
 3486SOL    HW211622   4.322   4.962   5.338  1.0464 -2.3637  1.6153
 3487SOL     OW11623   7.843   7.236   4.869 -0.0977 -0.1991  0.0683
 3487SOL    HW111624   7.883   7.305   4.816  1.1900 -0.6219  0.4500
 3487SOL    HW211625   7.805   7.281   4.944 -2.4748  0.4859 -1.4531
 3488SOL     OW11626   3.646   0.359   0.157 -0.7477  0.3248 -0.8230
 3488SOL    HW111627   3.607   0.386   0.075 -1.2810 -1.4028 -1.1842
 3488SOL    HW211628   3.573   0.327   0.210 -0.9315  4.1357  1.6200
 3489SOL     OW11629   8.757   0.778   6.608  0.7803 -0.0944  0.3179
 3489SOL    HW111630   8.833   0.808   6.559  0.0588 -0.2599 -0.9453
 3489SOL    HW211631   8.705   0.857   6.621 -0.2305 -0.4207 -1.4077
 3490SOL     OW11632   8.380   0.255   7.747 -0.0522  0.2700 -0.0641
 3490SOL    HW111633   8.419   0.199   7.680  1.5513  1.9395 -0.6326
 3490SOL    HW211634   8.372   0.200   7.824 -1.1709 -1.4790 -1.3644
 3491SOL     OW11635   6.151   7.718   3.744  0.2459 -0.1145 -0.3147
 3491SOL    HW111636   6.080   7.694   3.804  0.2571 -0.0698 -0.2826
 3491SOL    HW211637   6.189   7.635   3.718  0.2658 -0.1330 -0.2284
 3492SOL     OW11638   4.875   0.072   6.675 -0.9565  0.3923  0.3954
 3492SOL    HW111639   4.924  -0.010   6.685 -1.2998  0.4096  2.6624
 3492SOL    HW211640   4.836   0.065   6.588 -0.3049 -1.4867  0.2065
 3493SOL     OW11641   7.166   2.555   7.699 -0.2229 -0.5019  0.6326
 3493SOL    HW111642   7.229   2.520   7.636 -2.2665 -1.3957 -1.0418
 3493SOL    HW211643   7.133   2.478   7.746 -2.8113 -0.7016 -1.2442
 3494SOL     OW11644   4.466   5.300   1.508 -0.0831  0.2748 -0.4953
 3494SOL    HW111645   4.515   5.302   1.425  2.2303 -0.0423  0.7801
 3494SOL    HW211646   4.515   5.238   1.562  0.6747  3.1120  2.3522
 3495SOL     OW11647   4.254   7.244   4.664  0.7608 -0.5972  0.1062
 3495SOL    HW111648   4.206   7.163   4.645  1.5603 -1.1708  0.4690
 3495SOL    HW211649   4.240   7.259   4.757 -0.6007  0.5133 -0.2436
 3496SOL     OW11650   1.697   3.476   8.631 -0.6550 -0.4235  0.3944
 3496SOL    HW111651   1.762   3.484   8.701 -2.3233  0.6764  1.9204
 3496SOL    HW211652   1.695   3.382   8.611  1.5592 -0.4572  0.0643
 3497SOL     OW11653   1.518   0.110   8.850 -0.3535 -0.3018  0.5740
 3497SOL    HW111654   1.424   0.090   8.852 -0.5607  0.5068 -0.2633
 3497SOL    HW211655   1.551   0.063   8.773 -0.2849  0.2562  0.2572
 3498SOL     OW11656   3.962   0.883   7.566  0.2755  0.0640 -0.8377
 3498SOL    HW111657   3.993   0.818   7.629  0.6445  0.7897 -0.2609
 3498SOL    HW211658   4.035   0.893   7.505 -0.4145 -1.3151 -1.9592
 3499SOL     OW11659   3.194   1.103   0.822  0.6707 -0.6344 -0.2497
 3499SOL    HW111660   3.184   1.008   0.818  0.1573 -0.5557 -1.3849
 3499SOL    HW211661   3.231   1.127   0.737 -1.4624  0.4045 -0.9634
 3500SOL     OW11662   7.937   5.295   7.403 -0.0731 -0.5383  0.5550
 3500SOL    HW111663   7.879   5.276   7.477  0.2525  1.0882  1.2639
 3500SOL    HW211664   7.938   5.391   7.398  0.0116 -0.6138 -1.4891
 3501SOL     OW11665   0.969   2.649   3.559 -0.0736  0.7133 -0.2896
 3501SOL    HW111666   0.899   2.643   3.494  0.9390  0.9053 -1.4274
 3501SOL    HW211667   0.974   2.562   3.597  0.0756  0.2754 -1.2810
 3502SOL     OW11668   8.837   3.790   1.716  0.1072 -0.0366 -0.7624
 3502SOL    HW111669   8.841   3.858   1.783 -0.6462 -0.0025 -0.7484
 3502SOL    HW211670   8.922   3.747   1.720  0.2785  0.3529 -0.1926
 3503SOL     OW11671   5.129   0.446   5.368  0.1519 -0.5844  0.9210
 3503SOL    HW111672   5.210   0.406   5.400  0.4001 -2.0604 -1.3372
 3503SOL    HW211673   5.060   0.383   5.393 -0.0613 -0.2628  1.1587
 3504SOL     OW11674   5.566   2.005   4.632  0.1333  0.2784  0.5865
 3504SOL    HW111675   5.568   2.049   4.547  0.3488  1.2316  1.0643
 3504SOL    HW211676   5.634   2.049   4.683  0.2816 -0.5541  1.1247
 3505SOL     OW11677   4.463   6.939   5.303 -0.1393  0.1969 -0.5829
 3505SOL    HW111678   4.387   6.980   5.343 -0.5346 -0.4108 -0.7128
 3505SOL    HW211679   4.445   6.845   5.305  0.8611  0.0022 -0.0756
 3506SOL     OW11680   1.726   4.675   0.278  0.0706  0.1689 -0.3656
 3506SOL    HW111681   1.655   4.708   0.333 -0.5939 -0.0947 -1.0493
 3506SOL    HW211682   1.735   4.741   0.209  1.1983  0.7201  0.2776
 3507SOL     OW11683   7.686   1.841   8.454 -0.1346 -0.1660 -0.0578
 3507SOL    HW111684   7.594   1.816   8.466 -0.5745  0.1820 -2.3496
 3507SOL    HW211685   7.732   1.758   8.450 -0.7568 -0.4717 -1.5828
 3508SOL     OW11686   4.041   3.806   3.793 -0.0777 -0.1035  0.4928
 3508SOL    HW111687   3.972   3.755   3.836  1.8548 -3.0497  0.3934
 3508SOL    HW211688   4.100   3.829   3.865 -1.0650  2.4038  0.5792
 3509SOL     OW11689   4.175   7.271   8.785 -0.9394 -0.0138  0.4190
 3509SOL    HW111690   4.081   7.284   8.791 -1.0414 -0.4994 -0.0797
 3509SOL    HW211691   4.209   7.357   8.759 -1.2061  0.2473  0.9287
 3510SOL     OW11692   8.255   5.740   2.221  0.2646  0.2213  0.1810
 3510SOL    HW111693   8.321   5.686   2.175  0.5675 -0.7427  1.6841
 3510SOL    HW211694   8.180   5.742   2.161  1.9994  2.3708 -2.1487
 3511SOL     OW11695   3.289   3.822   4.613  0.0625 -0.2998 -0.1780
 3511SOL    HW111696   3.264   3.896   4.557 -1.1950  0.8016  1.7263
 3511SOL    HW211697   3.365   3.854   4.662 -0.1231 -0.4754  0.2266
 3512SOL     OW11698   8.021   6.843   7.990 -0.3591  0.4220  0.0249
 3512SOL    HW111699   8.083   6.916   8.002  0.5167 -0.1633 -0.7661
 3512SOL    HW211700   7.938   6.886   7.971 -0.3879  1.2441  1.7390
 3513SOL     OW11701   5.034   7.565   4.583 -0.4430 -0.0731 -0.6987
 3513SOL    HW111702   5.107   7.503   4.588 -0.1978  0.1634 -1.2240
 3513SOL    HW211703   4.979   7.531   4.512 -1.0847 -0.4978 -0.0079
 3514SOL     OW11704   4.882   4.115   4.272 -0.3257  0.0002 -0.1991
 3514SOL    HW111705   4.922   4.078   4.351 -0.6026 -0.8439 -0.4484
 3514SOL    HW211706   4.793   4.080   4.271  0.1763 -1.3288 -1.7514
 3515SOL     OW11707   3.074   7.336   2.144  0.0284 -0.1666 -0.0790
 3515SOL    HW111708   3.088   7.324   2.050  0.0904  0.2366 -0.1249
 3515SOL    HW211709   3.085   7.249   2.182 -0.5759 -0.4336 -0.5161
 3516SOL     OW11710   2.071   7.719   0.844  0.1731 -0.5677  0.1551
 3516SOL    HW111711   1.993   7.773   0.833  1.1073  0.4634 -2.0544
 3516SOL    HW211712   2.038   7.630   0.846 -1.1313 -0.1092  0.3245
 3517SOL     OW11713   7.022   1.855   4.972 -0.1822  0.3402  0.2900
 3517SOL    HW111714   6.954   1.807   5.019 -0.5751  0.8694  0.2761
 3517SOL    HW211715   6.978   1.886   4.892  0.0529  0.7421  0.3158
 3518SOL     OW11716   2.754   5.530   5.700  0.1541 -0.1016  0.4135
 3518SOL    HW111717   2.694   5.506   5.629  1.0483 -0.9799 -0.0688
 3518SOL    HW211718   2.736   5.466   5.769 -0.2455  0.3396  0.7283
 3519SOL     OW11719   3.125   1.335   0.393  0.1917 -0.2525  0.4736
 3519SOL    HW111720   3.075   1.413   0.419 -0.0089 -0.2483  0.0930
 3519SOL    HW211721   3.059   1.267   0.381 -0.0642  0.3690 -2.3848
 3520SOL     OW11722   8.347   5.104   8.674 -0.2751 -0.1664  0.4174
 3520SOL    HW111723   8.388   5.166   8.613 -2.2833  1.6374  0.7869
 3520SOL    HW211724   8.402   5.108   8.753  1.9263 -1.9791 -0.8922
 3521SOL     OW11725   0.840   0.825   1.013 -0.1645  0.0435  0.1186
 3521SOL    HW111726   0.867   0.841   0.922 -1.0590 -1.2465 -0.4071
 3521SOL    HW211727   0.842   0.911   1.054 -0.2827  0.7379 -1.2731
 3522SOL     OW11728   3.442   8.802   0.003  0.2635  0.0211 -0.0715
 3522SOL    HW111729   3.465   8.709  -0.001 -0.1403 -0.0731 -0.2626
 3522SOL    HW211730   3.419   8.817   0.094 -1.9202 -0.6239 -0.4729
 3523SOL     OW11731   4.522   4.878   7.303 -0.0378 -0.0020  0.0608
 3523SOL    HW111732   4.468   4.800   7.317  0.7859 -0.9348 -1.6709
 3523SOL    HW211733   4.597   4.865   7.362 -0.0581 -0.3531  0.0117
 3524SOL     OW11734   5.802   0.711   4.396  0.1571  0.7484 -0.4526
 3524SOL    HW111735   5.865   0.778   4.371 -0.1679  1.1091 -0.3306
 3524SOL    HW211736   5.732   0.719   4.332  1.3527 -1.3404 -2.1290
 3525SOL     OW11737   0.342   8.211   6.271 -0.5022 -0.3589 -0.1221
 3525SOL    HW111738   0.413   8.268   6.242 -0.5327 -0.0893  0.3229
 3525SOL    HW211739   0.287   8.267   6.326 -0.2393 -0.9479  0.7718
 3526SOL     OW11740   2.150   5.258   6.929  0.0304 -0.0935  0.9524
 3526SOL    HW111741   2.188   5.345   6.913 -0.4261 -0.0199  0.2366
 3526SOL    HW211742   2.144   5.218   6.842 -0.2704 -0.6267  1.2160
 3527SOL     OW11743   3.489   7.334   8.745 -0.2995 -0.2899  0.2460
 3527SOL    HW111744   3.432   7.307   8.816  0.3262 -2.1567  0.0968
 3527SOL    HW211745   3.430   7.352   8.672 -1.2773  4.4936  1.8146
 3528SOL     OW11746   6.310   5.404   5.281 -0.0360 -0.1899 -0.1838
 3528SOL    HW111747   6.240   5.371   5.224  0.6168  0.0518 -1.1617
 3528SOL    HW211748   6.301   5.355   5.362 -0.3209 -1.3332 -0.8871
 3529SOL     OW11749   7.233   1.726   0.255  0.0154 -0.0295  0.6912
 3529SOL    HW111750   7.247   1.632   0.268 -1.1853 -0.2507  0.4677
 3529SOL    HW211751   7.150   1.745   0.299  0.5302  1.0628  1.2587
 3530SOL     OW11752   0.017   0.828   5.945  0.4303  0.0239 -0.1885
 3530SOL    HW111753   0.048   0.747   5.905  0.6476  0.3681 -0.7235
 3530SOL    HW211754   0.035   0.896   5.880 -0.7077  0.3533 -0.1956
 3531SOL     OW11755   1.771   1.060   8.586  0.1876  0.3736 -0.0984
 3531SOL    HW111756   1.753   1.030   8.497  1.2345 -0.5786 -0.0084
 3531SOL    HW211757   1.687   1.048   8.632  0.3425 -1.8414 -0.2482
 3532SOL     OW11758   0.032   7.247   4.486 -0.3917 -0.1707 -0.1081
 3532SOL    HW111759   0.107   7.259   4.428 -0.4227 -1.2310 -0.3886
 3532SOL    HW211760   0.058   7.177   4.546 -0.8634 -0.0006  0.3096
 3533SOL     OW11761   4.531   1.767   7.445  0.2642  0.2420  0.3347
 3533SOL    HW111762   4.538   1.804   7.534 -2.7281 -1.5466  1.4649
 3533SOL    HW211763   4.567   1.678   7.453 -1.2167 -0.3985  0.1498
 3534SOL     OW11764   4.080   7.354   3.847 -0.0478  0.3347  0.0382
 3534SOL    HW111765   4.077   7.372   3.941  0.6537 -1.5643  0.4844
 3534SOL    HW211766   3.994   7.317   3.827  0.2165 -0.4146  0.2330
 3535SOL     OW11767   0.137   5.976   5.406  0.2737 -0.2716 -0.3691
 3535SOL    HW111768   0.121   5.948   5.496 -0.3136 -1.6539 -0.8814
 3535SOL    HW211769   0.199   6.049   5.414 -0.0356 -0.1546  1.1620
 3536SOL     OW11770   3.703   6.070   4.950 -0.5497 -0.6597  0.9888
 3536SOL    HW111771   3.715   5.984   4.911  0.1066  0.0452 -0.4601
 3536SOL    HW211772   3.708   6.055   5.044  2.2648 -1.8802  0.7634
 3537SOL     OW11773   3.705   1.442   8.260  0.2414  0.4640 -0.4656
 3537SOL    HW111774   3.699   1.397   8.344 -0.3457 -1.5178 -1.5348
 3537SOL    HW211775   3.706   1.373   8.195  0.8807  1.9512 -2.1153
 3538SOL     OW11776   1.980   2.664   2.673 -0.0029 -0.0064  0.5918
 3538SOL    HW111777   2.034   2.587   2.692 -1.1911 -1.8290 -2.6357
 3538SOL    HW211778   1.893   2.629   2.656 -0.9525  2.2344  0.4278
 3539SOL     OW11779   3.295   7.453   6.346  0.4201 -0.5713 -0.1411
 3539SOL    HW111780   3.200   7.464   6.348  0.3373 -1.1835 -0.2825
 3539SOL    HW211781   3.317   7.457   6.253  0.8133  1.6385  0.0063
 3540SOL     OW11782   7.621   4.608   7.818  0.3237  0.0307 -0.1404
 3540SOL    HW111783   7.567   4.536   7.852  0.3692  0.8585  1.8491
 3540SOL    HW211784   7.557   4.670   7.781  0.1183 -0.1597 -0.1079
 3541SOL     OW11785   0.821   6.636   3.288  0.0531  0.2867  0.1231
 3541SOL    HW111786   0.754   6.694   3.326 -0.5168 -1.1884  1.4807
 3541SOL    HW211787   0.774   6.587   3.220  0.1730  0.4158 -0.0524
 3542SOL     OW11788   3.610   4.175   5.539 -0.4538  0.0311 -0.0083
 3542SOL    HW111789   3.524   4.194   5.577 -0.3503  0.6868 -0.0845
 3542SOL    HW211790   3.603   4.205   5.448 -0.0954  0.2279  0.0271
 3543SOL     OW11791   6.903   7.140   8.663 -0.3701  0.0618 -0.6029
 3543SOL    HW111792   6.906   7.132   8.568 -0.7529 -0.5607 -0.5727
 3543SOL    HW211793   6.982   7.189   8.686 -0.3695  0.3767 -1.2521
 3544SOL     OW11794   1.415   3.518   5.281 -0.5129  0.1471 -0.1442
 3544SOL    HW111795   1.386   3.608   5.290  2.5763  1.4780 -1.8654
 3544SOL    HW211796   1.346   3.475   5.230 -2.6354  1.0562  1.7539
 3545SOL     OW11797   6.133   8.096   8.433 -0.0380 -0.0183  0.0596
 3545SOL    HW111798   6.125   8.046   8.514 -0.2599 -1.0657 -0.5901
 3545SOL    HW211799   6.070   8.167   8.442  0.2640  0.1471  0.9846
 3546SOL     OW11800   7.852   4.906   2.675 -0.0883  0.1808  0.2104
 3546SOL    HW111801   7.922   4.942   2.729  0.7746  1.4082 -1.5933
 3546SOL    HW211802   7.898   4.862   2.603 -1.1459  0.4379 -0.6604
 3547SOL     OW11803   7.514   5.826   7.867  0.6366 -0.6156 -0.6702
 3547SOL    HW111804   7.504   5.909   7.913  0.9156 -0.0764 -1.5774
 3547SOL    HW211805   7.502   5.760   7.936 -0.1686  0.1494 -0.0554
 3548SOL     OW11806   3.015   3.642   6.760  0.3531  0.2086 -0.5606
 3548SOL    HW111807   3.038   3.553   6.735 -0.0289  0.0394 -0.3116
 3548SOL    HW211808   3.097   3.681   6.791  0.7841  0.3303 -1.7983
 3549SOL     OW11809   7.042   4.844   6.580  0.1494  0.7341 -0.5268
 3549SOL    HW111810   7.055   4.775   6.645  0.1780  0.4263 -0.8538
 3549SOL    HW211811   7.118   4.902   6.591 -0.4258  1.3280  0.4898
 3550SOL     OW11812   1.868   1.452   7.724  1.0819 -0.0791  0.7239
 3550SOL    HW111813   1.785   1.498   7.707 -0.4111 -1.7086  2.9447
 3550SOL    HW211814   1.894   1.417   7.639 -0.2146  0.9280 -0.1370
 3551SOL     OW11815   1.094   2.862   1.897  0.0218  0.3641 -0.0502
 3551SOL    HW111816   1.118   2.882   1.987 -1.7569 -1.8341  1.0084
 3551SOL    HW211817   1.007   2.900   1.886  0.0931  0.3451 -0.7297
 3552SOL     OW11818   0.479   8.321   5.015 -0.0010  0.2851  0.1553
 3552SOL    HW111819   0.501   8.398   4.963 -0.0579  0.2955  0.1470
 3552SOL    HW211820   0.383   8.320   5.017 -0.0540 -0.6071 -1.0987
 3553SOL     OW11821   3.319   3.951   7.747  0.4893  0.3032 -0.3929
 3553SOL    HW111822   3.249   3.928   7.686  0.1512  0.4679 -0.0708
 3553SOL    HW211823   3.381   4.001   7.694  0.6331 -0.3043 -0.8072
 3554SOL     OW11824   0.034   2.984   2.093  0.3434  0.1784  0.3417
 3554SOL    HW111825   0.023   2.893   2.119  0.1000 -0.2118 -1.0159
 3554SOL    HW211826   0.128   3.001   2.103  0.6341 -0.6726 -0.6841
 3555SOL     OW11827   0.677   0.630   0.575  0.1762  0.2373  0.6413
 3555SOL    HW111828   0.719   0.617   0.660  3.7653  0.7730 -0.8720
 3555SOL    HW211829   0.658   0.724   0.571  0.0936  0.2273  0.7713
 3556SOL     OW11830   7.935   6.296   1.763  0.1140 -0.0343 -0.2377
 3556SOL    HW111831   7.871   6.234   1.729 -0.7203 -0.3386  1.6958
 3556SOL    HW211832   8.019   6.251   1.758 -0.5367 -1.5543  1.5121
 3557SOL     OW11833   2.152   2.808   8.607  0.5504 -0.4842  0.0886
 3557SOL    HW111834   2.193   2.750   8.671 -1.7047 -2.7739 -0.3843
 3557SOL    HW211835   2.105   2.749   8.548 -2.3002  1.8347 -0.1767
 3558SOL     OW11836   2.437   0.330   5.505 -0.0682 -0.1981 -0.8719
 3558SOL    HW111837   2.366   0.348   5.444  0.1374  1.2589 -0.7279
 3558SOL    HW211838   2.435   0.404   5.567  1.2834 -0.3454 -0.6063
 3559SOL     OW11839   2.287   1.825   4.320 -0.5164 -0.1614 -0.0588
 3559SOL    HW111840   2.212   1.877   4.350 -0.2061  0.2910 -0.0457
 3559SOL    HW211841   2.345   1.822   4.396 -1.0988 -1.6197  0.3492
 3560SOL     OW11842   3.344   5.901   1.976  0.1322 -0.5995 -0.0871
 3560SOL    HW111843   3.376   5.852   2.052 -0.3374 -0.4269  0.2243
 3560SOL    HW211844   3.326   5.989   2.009  0.3981 -0.3803 -0.5116
 3561SOL     OW11845   5.137   0.442   1.367  1.1875  0.1153  0.4554
 3561SOL    HW111846   5.062   0.500   1.357  1.8241  0.9200  0.2386
 3561SOL    HW211847   5.099   0.358   1.392  0.1572  0.2895 -0.4556
 3562SOL     OW11848   5.950   2.952   6.015  0.5412  0.4290  0.0706
 3562SOL    HW111849   5.922   3.021   5.955  1.8179  1.0034  0.1209
 3562SOL    HW211850   5.952   2.872   5.962 -1.7700  0.2038  0.2022
 3563SOL     OW11851   5.492   4.848   6.052  0.6896 -0.1398 -0.1320
 3563SOL    HW111852   5.533   4.784   6.110  0.2173 -0.9139 -0.6295
 3563SOL    HW211853   5.531   4.932   6.076  0.6056 -0.4637  1.2056
 3564SOL     OW11854   1.935   5.432   3.459  0.1536 -0.1874  0.5369
 3564SOL    HW111855   1.922   5.483   3.539 -0.6727  0.8379 -0.2158
 3564SOL    HW211856   1.871   5.362   3.465  1.1384 -1.0394  1.4726
 3565SOL     OW11857   5.245   3.382   0.089 -0.0428 -0.5241  0.1281
 3565SOL    HW111858   5.206   3.332   0.017 -4.1923 -0.8346  2.3076
 3565SOL    HW211859   5.242   3.473   0.060  1.5156 -0.8968 -1.3276
 3566SOL     OW11860   0.123   6.786   6.132 -0.6323  0.4185  0.1359
 3566SOL    HW111861   0.133   6.754   6.221  1.0257  1.6422  0.4311
 3566SOL    HW211862   0.095   6.710   6.082  1.7686 -1.1699  1.0511
 3567SOL     OW11863   6.523   6.071   0.075 -0.2438  0.7313 -0.1597
 3567SOL    HW111864   6.464   5.998   0.094  1.3227 -0.0149  2.3811
 3567SOL    HW211865   6.519   6.126   0.153  1.9280  0.9481 -0.1347
 3568SOL     OW11866   4.242   8.638   1.291  0.0695 -0.3390 -0.0982
 3568SOL    HW111867   4.291   8.715   1.318 -0.8927  0.0764  0.5336
 3568SOL    HW211868   4.298   8.595   1.227  1.3746 -0.0395  0.7963
 3569SOL     OW11869   5.766   3.161   0.740 -0.1492  0.3666 -0.0227
 3569SOL    HW111870   5.766   3.072   0.777  1.5306 -0.3409 -1.5210
 3569SOL    HW211871   5.699   3.159   0.672  0.7850 -0.2127 -0.9550
 3570SOL     OW11872   2.214   3.378   6.583  0.3705  0.5648  0.4435
 3570SOL    HW111873   2.183   3.408   6.497  2.2550  0.4746 -0.3005
 3570SOL    HW211874   2.140   3.327   6.618 -0.1644 -0.0586 -1.4720
 3571SOL     OW11875   1.036   5.299   1.438  0.4011  0.0528  0.0865
 3571SOL    HW111876   1.048   5.212   1.401  0.0406  0.0913 -0.1321
 3571SOL    HW211877   0.971   5.287   1.507  0.8881  0.0253  0.5438
 3572SOL     OW11878   7.781   1.535   2.900  0.3432  0.0453  0.0129
 3572SOL    HW111879   7.865   1.581   2.904  1.7953 -2.3700 -0.5015
 3572SOL    HW211880   7.750   1.550   2.810 -0.2719  1.6635  0.4606
 3573SOL     OW11881   6.203   7.916   0.797 -0.7129 -0.6981 -0.1119
 3573SOL    HW111882   6.292   7.949   0.811 -1.5351  0.8307  2.2131
 3573SOL    HW211883   6.165   7.976   0.733 -0.7246  0.0692  0.5862
 3574SOL     OW11884   6.096   3.349   5.813 -0.2642  0.5185  0.2923
 3574SOL    HW111885   6.114   3.425   5.758  0.5511  0.7356  0.8524
 3574SOL    HW211886   6.102   3.382   5.902  1.0916 -0.4195  0.5655
 3575SOL     OW11887   6.663   1.297   4.750  0.2701 -0.0364  0.4588
 3575SOL    HW111888   6.754   1.325   4.740 -0.0564  0.6854 -0.7046
 3575SOL    HW211889   6.667   1.226   4.813  1.8380 -0.9435 -0.5842
 3576SOL     OW11890   6.732   7.104   7.469 -0.1297 -0.0576  0.0946
 3576SOL    HW111891   6.673   7.029   7.467  2.1628 -1.9585 -0.9722
 3576SOL    HW211892   6.729   7.140   7.380 -0.0390  0.1140  0.1598
 3577SOL     OW11893   2.454   1.248   6.366  0.2505 -0.4008 -0.2868
 3577SOL    HW111894   2.367   1.287   6.352 -0.1988 -1.7699 -1.4934
 3577SOL    HW211895   2.498   1.257   6.282  1.4657  0.6352  0.4228
 3578SOL     OW11896   0.735   1.155   0.746  0.2023 -0.3188  0.2583
 3578SOL    HW111897   0.728   1.249   0.762 -1.9357 -0.5125  0.9049
 3578SOL    HW211898   0.676   1.139   0.672  1.0557 -1.0629 -0.2739
 3579SOL     OW11899   5.302   5.905   5.831  0.1939 -0.3921 -0.2927
 3579SOL    HW111900   5.286   5.966   5.760 -1.6706  0.0762  0.4872
 3579SOL    HW211901   5.382   5.858   5.805  2.8387  3.5343 -0.1082
 3580SOL     OW11902   3.240   5.119   3.356  0.5224  0.1378  0.4011
 3580SOL    HW111903   3.242   5.214   3.371 -0.0341  0.0773  0.8785
 3580SOL    HW211904   3.151   5.101   3.328  0.5772 -0.2728  0.4877
 3581SOL     OW11905   8.343   4.014   3.684 -0.2705 -0.3863  0.0363
 3581SOL    HW111906   8.275   3.953   3.652 -0.0865 -2.1164  2.6040
 3581SOL    HW211907   8.294   4.087   3.722 -0.6013 -0.3223 -0.5070
 3582SOL     OW11908   8.858   5.089   3.204 -0.2435 -0.3089 -0.5664
 3582SOL    HW111909   8.867   4.996   3.183  0.4182 -0.6577  1.1273
 3582SOL    HW211910   8.906   5.134   3.134  0.9453 -1.3369 -0.4394
 3583SOL     OW11911   0.308   5.991   0.975  0.1876  0.4625 -0.1437
 3583SOL    HW111912   0.254   6.055   0.929 -0.0183  0.7674  0.5139
 3583SOL    HW211913   0.265   5.980   1.060  0.7161  0.1169  0.0838
 3584SOL     OW11914   6.791   2.036   4.890  0.3101  0.0203 -0.6079
 3584SOL    HW111915   6.724   2.000   4.948  0.9197 -0.7411 -0.3612
 3584SOL    HW211916   6.838   2.100   4.945  0.7563 -0.5540 -0.2955
 3585SOL     OW11917   2.056   7.976   6.848 -0.0278 -0.0738  0.4569
 3585SOL    HW111918   1.984   8.000   6.906  0.2815  5.0890 -0.7935
 3585SOL    HW211919   2.132   8.025   6.881  1.5246 -1.2022 -1.2345
 3586SOL     OW11920   4.975   4.905   5.016 -0.3069 -0.2153  0.0981
 3586SOL    HW111921   5.024   4.854   4.950  2.0687  0.2642  1.3605
 3586SOL    HW211922   4.970   4.993   4.978  2.1152  0.3644  0.9579
 3587SOL     OW11923   2.605   8.224   8.149  0.6535 -0.0223 -0.8014
 3587SOL    HW111924   2.625   8.316   8.166 -0.2766 -0.3393  3.1395
 3587SOL    HW211925   2.527   8.227   8.094 -0.0964  1.6525  0.2348
 3588SOL     OW11926   3.153   7.371   7.767 -0.0842 -0.0774 -0.2396
 3588SOL    HW111927   3.093   7.438   7.798 -1.0919 -0.5289 -1.1290
 3588SOL    HW211928   3.152   7.304   7.836  0.4940  0.5518  0.3893
 3589SOL     OW11929   0.862   3.293   0.803  0.5544  0.2877  0.3608
 3589SOL    HW111930   0.802   3.334   0.741  1.4384 -0.6283 -1.1567
 3589SOL    HW211931   0.805   3.245   0.864 -0.2931  0.4567 -0.2921
 3590SOL     OW11932   0.423   1.294   5.653  0.2534 -0.3737 -0.2370
 3590SOL    HW111933   0.395   1.232   5.720 -0.3273 -0.5969 -0.6823
 3590SOL    HW211934   0.359   1.285   5.583  0.7041  0.0454 -0.7149
 3591SOL     OW11935   6.684   6.014   6.270  0.7449  0.2413  0.1289
 3591SOL    HW111936   6.711   6.106   6.270 -1.6976  1.0239  0.2310
 3591SOL    HW211937   6.589   6.016   6.256  0.6247 -2.2845  0.0114
 3592SOL     OW11938   6.612   2.579   3.965  0.1675  0.2226 -0.1849
 3592SOL    HW111939   6.645   2.608   4.050 -1.5072 -1.2351  1.0357
 3592SOL    HW211940   6.682   2.600   3.903  1.8146  0.4906  1.6864
 3593SOL     OW11941   8.138   0.530   0.900  0.1565  0.8267 -0.0180
 3593SOL    HW111942   8.086   0.516   0.821 -0.0248  1.7058 -0.0696
 3593SOL    HW211943   8.203   0.460   0.900 -1.6767 -0.9838  0.6099
 3594SOL     OW11944   7.865   0.741   7.039 -0.0830 -0.1217  0.3877
 3594SOL    HW111945   7.939   0.718   7.097 -0.6459 -0.9448  0.7989
 3594SOL    HW211946   7.810   0.799   7.093 -0.2169 -0.2673  0.4060
 3595SOL     OW11947   3.964   0.208   5.801  0.1357 -0.3009  0.1562
 3595SOL    HW111948   4.052   0.246   5.798 -0.0976  0.3082  0.6563
 3595SOL    HW211949   3.949   0.192   5.894  0.2539 -1.7199 -0.0548
 3596SOL     OW11950   7.955   3.686   6.102  0.2334  0.0406  0.0070
 3596SOL    HW111951   8.007   3.765   6.086  0.5202 -0.3325 -1.0085
 3596SOL    HW211952   7.877   3.697   6.048  0.2019 -0.2944 -0.0214
 3597SOL     OW11953   4.376   0.950   5.980  0.2875 -0.5473 -0.1658
 3597SOL    HW111954   4.419   0.892   6.042 -0.2456 -1.3005 -0.4930
 3597SOL    HW211955   4.369   0.899   5.900 -0.3614 -0.1017 -0.4025
 3598SOL     OW11956   1.869   0.955   7.156 -0.0289 -0.0217 -0.3389
 3598SOL    HW111957   1.827   0.882   7.202  0.0325  0.5962  0.7211
 3598SOL    HW211958   1.962   0.946   7.176 -0.0982  0.7231  0.3514
 3599SOL     OW11959   7.716   6.408   1.403 -0.4228 -0.4667 -0.1793
 3599SOL    HW111960   7.625   6.437   1.414 -0.3389 -0.1280 -0.3770
 3599SOL    HW211961   7.765   6.488   1.387  0.0785 -0.5279  0.9543
 3600SOL     OW11962   2.473   2.961   2.888  0.1253 -0.3694  0.2110
 3600SOL    HW111963   2.492   2.885   2.834 -2.5398 -0.8541 -0.2170
 3600SOL    HW211964   2.534   3.028   2.859 -0.2303 -1.0819 -2.4055
 3601SOL     OW11965   2.786   2.727   7.061  0.2940  0.8590 -0.5274
 3601SOL    HW111966   2.795   2.641   7.022  0.6335  1.3827 -1.6471
 3601SOL    HW211967   2.702   2.760   7.028  1.0598  1.7167 -1.6771
 3602SOL     OW11968   8.077   2.916   0.141  0.5006 -0.3923  0.2295
 3602SOL    HW111969   8.091   2.824   0.161 -2.1498 -0.4460  2.3094
 3602SOL    HW211970   8.085   2.961   0.225 -2.3381  0.6306  0.0583
 3603SOL     OW11971   0.831   6.518   7.896  0.2289  0.0936 -0.8003
 3603SOL    HW111972   0.884   6.557   7.966 -0.0051  0.4979 -0.8410
 3603SOL    HW211973   0.870   6.432   7.881 -0.2344 -0.3497  0.4132
 3604SOL     OW11974   0.658   1.760   4.086  0.3390  0.0512 -0.0082
 3604SOL    HW111975   0.719   1.698   4.126  0.2980 -1.2383 -1.8294
 3604SOL    HW211976   0.579   1.755   4.140  0.9094 -0.2326  0.8234
 3605SOL     OW11977   5.179   1.554   7.028 -0.3376 -0.1973  0.1580
 3605SOL    HW111978   5.101   1.599   6.996  0.2739  1.0869  0.3870
 3605SOL    HW211979   5.149   1.465   7.049 -1.4143 -0.1447 -1.0463
 3606SOL     OW11980   6.077   0.111   5.084  0.5533  0.2585  0.1476
 3606SOL    HW111981   6.133   0.174   5.039 -1.6297  0.9670 -1.7870
 3606SOL    HW211982   6.057   0.152   5.168  0.5062  1.3864 -0.4000
 3607SOL     OW11983   7.401   4.116   8.237  0.3027  0.1846 -0.4298
 3607SOL    HW111984   7.346   4.163   8.299  2.1611 -0.9158  2.2552
 3607SOL    HW211985   7.384   4.024   8.255 -0.0819 -0.1884 -2.5421
 3608SOL     OW11986   6.569   1.040   6.924 -0.2812  0.0452  0.5103
 3608SOL    HW111987   6.559   1.110   6.859 -0.0560 -1.0196 -0.7051
 3608SOL    HW211988   6.633   0.981   6.886 -1.4891 -1.5464  0.8529
 3609SOL     OW11989   7.147   7.299   2.549  0.1997  0.1054 -0.2504
 3609SOL    HW111990   7.179   7.285   2.639  1.5822  2.3315 -0.3268
 3609SOL    HW211991   7.054   7.277   2.554  0.4576 -0.8382  1.4630
 3610SOL     OW11992   7.365   0.614   4.607  0.4893 -0.0637  0.1789
 3610SOL    HW111993   7.282   0.616   4.653  1.5544  1.3585  2.1885
 3610SOL    HW211994   7.403   0.529   4.630 -0.1344 -0.4758 -0.2866
 3611SOL     OW11995   5.346   4.064   8.710  0.1215  0.1417 -0.0208
 3611SOL    HW111996   5.296   4.146   8.711 -1.3267 -0.7085 -0.0618
 3611SOL    HW211997   5.281   3.996   8.730  0.4778 -1.4257 -3.5744
 3612SOL     OW11998   4.743   6.854   5.263 -0.2118  0.6224  0.3997
 3612SOL    HW111999   4.824   6.905   5.267  0.5077 -0.2898 -1.2301
 3612SOL    HW212000   4.674   6.919   5.250  0.7458  1.2283 -2.2738
 3613SOL     OW12001   6.049   4.178   4.590 -0.0639 -0.7078 -0.4480
 3613SOL    HW112002   5.977   4.241   4.589  0.1353 -0.4752 -1.3487
 3613SOL    HW212003   6.046   4.138   4.503  0.1609 -1.5398 -0.0785
 3614SOL     OW12004   6.397   8.754   3.266 -0.3917  0.1296  0.1399
 3614SOL    HW112005   6.425   8.836   3.308 -0.6223  0.8075 -0.9880
 3614SOL    HW212006   6.441   8.686   3.317 -0.6760  0.9027  1.4870
 3615SOL     OW12007   4.946   5.800   3.206 -0.2196 -1.1774 -0.2693
 3615SOL    HW112008   4.907   5.870   3.153 -2.3706 -1.5765  0.6945
 3615SOL    HW212009   5.034   5.790   3.169 -1.0833 -0.4328 -2.8045
 3616SOL     OW12010   6.782   7.477   0.838 -0.2265 -0.2853 -0.4504
 3616SOL    HW112011   6.797   7.410   0.771 -0.9925 -0.4919 -0.4234
 3616SOL    HW212012   6.701   7.520   0.811 -0.2475 -0.0041  0.0483
 3617SOL     OW12013   5.992   8.189   7.402 -0.1647 -0.7419 -0.5871
 3617SOL    HW112014   5.944   8.107   7.402  0.2507 -1.1982  3.4353
 3617SOL    HW212015   5.925   8.257   7.409 -0.4335 -1.1299  1.0316
 3618SOL     OW12016   4.610   0.311   0.157 -0.4466 -0.1621  0.0812
 3618SOL    HW112017   4.696   0.272   0.142  0.3386  1.1040  1.1318
 3618SOL    HW212018   4.628   0.396   0.197 -2.1612  0.5489 -0.5509
 3619SOL     OW12019   2.525   1.466   4.407  0.2462  0.5042  0.0226
 3619SOL    HW112020   2.567   1.550   4.424  1.2902 -0.2610  1.3952
 3619SOL    HW212021   2.586   1.419   4.351 -0.3034  0.6087 -0.6827
 3620SOL     OW12022   1.990   3.857   5.317  0.1211  0.1774 -0.5402
 3620SOL    HW112023   1.960   3.941   5.352  0.5832  0.5279 -0.9702
 3620SOL    HW212024   2.058   3.829   5.378  0.2478  0.3149 -0.6160
 3621SOL     OW12025   1.002   6.619   8.108  0.5395 -0.3712 -0.2497
 3621SOL    HW112026   1.029   6.656   8.192 -0.4643  1.4543 -0.6765
 3621SOL    HW212027   1.081   6.622   8.054  0.2988  2.1953 -0.5824
 3622SOL     OW12028   2.581   1.136   4.320  0.1762  0.1494 -0.0331
 3622SOL    HW112029   2.599   1.072   4.251 -0.3518  0.0623 -0.0940
 3622SOL    HW212030   2.487   1.152   4.315  0.3580  1.2383 -0.2819
 3623SOL     OW12031   6.623   3.015   3.357 -0.7380 -0.0790 -0.0072
 3623SOL    HW112032   6.694   3.014   3.422  0.4200 -0.3980 -1.2436
 3623SOL    HW212033   6.551   2.968   3.400 -0.6012  1.1211  1.6638
 3624SOL     OW12034   5.049   1.273   4.364 -0.8542  0.5342 -0.0144
 3624SOL    HW112035   4.995   1.310   4.434 -0.1136 -0.2327  0.9956
 3624SOL    HW212036   4.993   1.275   4.287 -2.1101  0.3344  0.8578
 3625SOL     OW12037   4.620   6.517   0.205  0.8102  0.5270  0.2574
 3625SOL    HW112038   4.622   6.450   0.274  0.6292  1.3757  1.1136
 3625SOL    HW212039   4.713   6.535   0.188  0.9581 -1.7161 -1.8105
 3626SOL     OW12040   0.939   2.497   6.918 -0.4158  0.1863 -0.0365
 3626SOL    HW112041   0.973   2.563   6.979 -1.2251 -0.0145  0.6491
 3626SOL    HW212042   0.905   2.428   6.974 -1.6213  0.2201 -0.7043
 3627SOL     OW12043   2.477   1.941   4.096  0.0782  0.2031 -0.2109
 3627SOL    HW112044   2.486   1.891   4.177 -0.6412 -0.7314 -0.6868
 3627SOL    HW212045   2.537   1.899   4.035  0.3748  0.6979 -0.2673
 3628SOL     OW12046   5.899   0.787   6.292 -0.1538 -0.5102 -0.6019
 3628SOL    HW112047   5.988   0.761   6.270 -0.0759 -0.5010 -0.2971
 3628SOL    HW212048   5.857   0.802   6.207  0.5025  0.7313 -0.7370
 3629SOL     OW12049   7.288   7.796   4.490 -0.4492  0.2937  0.0921
 3629SOL    HW112050   7.227   7.728   4.518 -1.8165  0.7382 -1.6170
 3629SOL    HW212051   7.260   7.874   4.538 -2.1753  0.8240 -1.6391
 3630SOL     OW12052   0.436   7.712   8.158 -0.4763 -0.2352  0.6070
 3630SOL    HW112053   0.431   7.801   8.122 -1.7651  0.2794  1.9496
 3630SOL    HW212054   0.519   7.678   8.125 -1.1534  0.4887 -2.0661
 3631SOL     OW12055   1.386   6.092   6.770  0.0148  0.1235  0.1142
 3631SOL    HW112056   1.338   6.167   6.737  1.1916  0.4965 -0.8380
 3631SOL    HW212057   1.337   6.016   6.739 -0.6063  0.4831  0.1959
 3632SOL     OW12058   4.928   2.316   1.324 -0.0072 -0.1237  0.4529
 3632SOL    HW112059   4.901   2.353   1.241 -0.4047 -1.1212  0.1140
 3632SOL    HW212060   4.988   2.244   1.300  1.1681  0.6027  1.1012
 3633SOL     OW12061   5.576   3.028   4.027 -0.4564 -0.6499 -0.6753
 3633SOL    HW112062   5.613   3.096   3.971 -0.9568  0.8670  0.7738
 3633SOL    HW212063   5.489   3.060   4.050 -0.0903 -0.9682  1.3583
 3634SOL     OW12064   6.637   3.247   8.404 -0.5214 -0.5597  0.4387
 3634SOL    HW112065   6.634   3.274   8.312  0.8111  0.3925  0.6509
 3634SOL    HW212066   6.555   3.199   8.417 -0.8255 -0.5521 -1.1890
 3635SOL     OW12067   5.263   0.192   6.710 -0.0035  0.0040  0.0067
 3635SOL    HW112068   5.183   0.211   6.662  0.6468 -0.8922 -1.5429
 3635SOL    HW212069   5.316   0.271   6.701  0.8221 -0.7286 -2.3875
 3636SOL     OW12070   1.027   5.226   1.046  0.5202  0.5675 -0.2878
 3636SOL    HW112071   1.119   5.221   1.020  1.0568  0.4985  1.4751
 3636SOL    HW212072   0.998   5.135   1.049  0.6853  0.5299  0.1281
 3637SOL     OW12073   4.133   2.896   4.382  0.1676 -0.3379  0.3985
 3637SOL    HW112074   4.082   2.833   4.433 -0.4351  0.0723  0.3109
 3637SOL    HW212075   4.132   2.976   4.434 -2.8433  0.9945 -1.4373
 3638SOL     OW12076   2.632   2.864   5.522 -0.3992  0.4902  0.3889
 3638SOL    HW112077   2.675   2.792   5.569  1.1849 -0.1786 -1.9282
 3638SOL    HW212078   2.622   2.932   5.589 -0.5644 -1.2813  2.2963
 3639SOL     OW12079   0.831   5.328   6.477  0.1676 -0.0525 -0.1467
 3639SOL    HW112080   0.849   5.331   6.383  1.1826 -1.2432 -0.0283
 3639SOL    HW212081   0.852   5.237   6.502 -0.0667  0.2485  1.2259
 3640SOL     OW12082   4.607   6.756   2.403 -0.1386 -0.5063 -1.0285
 3640SOL    HW112083   4.616   6.831   2.462  0.0148 -1.2867 -0.0338
 3640SOL    HW212084   4.532   6.778   2.348  0.8144  1.0414 -1.7821
 3641SOL     OW12085   4.967   1.259   5.531  0.1389  0.2044 -0.3770
 3641SOL    HW112086   4.993   1.351   5.539 -0.7520  0.5355 -1.0145
 3641SOL    HW212087   4.881   1.255   5.572  0.4106 -0.4756  0.1397
 3642SOL     OW12088   2.937   8.578   7.436 -0.4932  0.2410  0.2177
 3642SOL    HW112089   2.855   8.589   7.484 -0.0665 -1.2804  1.4094
 3642SOL    HW212090   2.912   8.573   7.344 -1.7227 -0.0100  0.5549
 3643SOL     OW12091   2.274   4.110   3.632  0.0959 -0.0190 -0.5012
 3643SOL    HW112092   2.246   4.073   3.548 -0.9474  0.2223 -0.2836
 3643SOL    HW212093   2.203   4.088   3.693  1.2842 -1.0382  0.5665
 3644SOL     OW12094   4.500   2.858   5.652 -0.3536 -0.3306 -0.3503
 3644SOL    HW112095   4.453   2.854   5.569  0.0643  0.3934 -0.6224
 3644SOL    HW212096   4.484   2.772   5.691  0.3539 -1.0949 -1.6766
 3645SOL     OW12097   3.536   3.846   6.706  0.2343 -0.4564 -0.3347
 3645SOL    HW112098   3.533   3.913   6.638 -3.2747 -0.0330  0.0625
 3645SOL    HW212099   3.585   3.773   6.667 -0.6709  0.2168 -2.8924
 3646SOL     OW12100   6.896   7.181   0.260 -0.1569  0.7231  0.0045
 3646SOL    HW112101   6.968   7.127   0.292  0.0779  1.0317 -0.0005
 3646SOL    HW212102   6.822   7.156   0.315  0.8037  3.0386  2.6220
 3647SOL     OW12103   8.228   1.391   8.347  0.1880 -0.4463  0.8055
 3647SOL    HW112104   8.222   1.485   8.329  1.5965 -0.1526  1.7420
 3647SOL    HW212105   8.137   1.363   8.358 -0.2472  0.7976  0.5418
 3648SOL     OW12106   2.242   6.001   5.111 -0.1796  0.0395  0.1049
 3648SOL    HW112107   2.186   6.033   5.041  0.9526  0.9065 -0.4245
 3648SOL    HW212108   2.294   6.077   5.138 -0.2728 -0.3839  1.5839
 3649SOL     OW12109   3.354   5.318   8.555 -0.3132  0.0018 -0.0691
 3649SOL    HW112110   3.286   5.306   8.489 -0.3763 -1.7559  0.2537
 3649SOL    HW212111   3.434   5.285   8.514 -0.0641  0.2225  0.2305
 3650SOL     OW12112   1.018   7.190   1.165  0.6632 -0.0215 -0.5005
 3650SOL    HW112113   0.928   7.219   1.151 -0.4172 -1.2024  3.0973
 3650SOL    HW212114   1.071   7.268   1.149 -1.1995  1.3095 -0.4970
 3651SOL     OW12115   8.255   6.144   3.827 -0.1720 -0.3914  0.4043
 3651SOL    HW112116   8.227   6.140   3.918 -0.6459  0.2661  0.2933
 3651SOL    HW212117   8.231   6.059   3.791  1.0880 -1.0941  1.1882
 3652SOL     OW12118   6.945   1.105   2.792 -0.1378 -0.0921 -0.1731
 3652SOL    HW112119   6.923   1.045   2.863  1.8296 -1.5446 -0.7080
 3652SOL    HW212120   6.921   1.058   2.712  1.9995 -0.5137 -0.6304
 3653SOL     OW12121   3.270   4.027   4.440 -0.2413  0.2792 -0.3561
 3653SOL    HW112122   3.216   4.061   4.369 -0.7160  1.9124  0.7580
 3653SOL    HW212123   3.291   4.103   4.493  3.7812 -0.0859 -1.0920
 3654SOL     OW12124   7.480   5.196   1.767  0.1140  0.1948  0.4270
 3654SOL    HW112125   7.494   5.217   1.860  0.0569 -0.8388  0.6742
 3654SOL    HW212126   7.474   5.282   1.725  0.3386  0.6825  1.3452
 3655SOL     OW12127   4.743   5.385   8.610 -0.0181 -0.4713  0.5593
 3655SOL    HW112128   4.752   5.402   8.516  1.8019  0.7315  0.8971
 3655SOL    HW212129   4.650   5.400   8.627 -0.2921 -0.2070 -0.9494
 3656SOL     OW12130   6.862   3.441   3.954 -0.0245 -0.0351  0.1862
 3656SOL    HW112131   6.936   3.471   4.006  1.1531 -1.9100 -0.3214
 3656SOL    HW212132   6.885   3.352   3.927 -1.7330 -0.0792 -1.3753
 3657SOL     OW12133   4.643   2.304   8.215 -0.6456  0.4191  0.2071
 3657SOL    HW112134   4.730   2.336   8.192 -1.4325  2.1472 -0.5185
 3657SOL    HW212135   4.625   2.237   8.149 -0.6937  1.5533 -0.9712
 3658SOL     OW12136   0.467   2.400   8.048 -0.7790 -0.3998 -0.2438
 3658SOL    HW112137   0.484   2.367   8.136 -2.5213 -0.9357 -0.0656
 3658SOL    HW212138   0.445   2.492   8.062  0.9389  0.0628 -0.3807
 3659SOL     OW12139   2.717   0.039   7.664 -0.0107  0.8976  0.1989
 3659SOL    HW112140   2.686   0.067   7.579 -0.5586 -0.5996 -0.1304
 3659SOL    HW212141   2.689  -0.053   7.671 -0.3497  1.1005  2.1585
 3660SOL     OW12142   7.439   4.561   6.553 -0.0950  0.4812 -0.5808
 3660SOL    HW112143   7.463   4.474   6.522 -1.1963 -0.1359  0.2128
 3660SOL    HW212144   7.348   4.552   6.581  1.1631  0.4132  4.5753
 3661SOL     OW12145   5.212   6.420   5.012  0.6448 -0.2092  0.7774
 3661SOL    HW112146   5.195   6.326   5.014  0.7412 -0.2360  0.3800
 3661SOL    HW212147   5.268   6.436   5.089  1.6003 -0.6645  0.1923
 3662SOL     OW12148   7.835   4.719   5.213  0.1680  0.4866 -0.2070
 3662SOL    HW112149   7.763   4.695   5.271  1.7761 -1.0376  1.2758
 3662SOL    HW212150   7.852   4.811   5.232  0.6622  0.0295  1.8554
 3663SOL     OW12151   3.803   1.735   7.809  0.7804  0.1678  0.0182
 3663SOL    HW112152   3.728   1.784   7.775  2.0499  1.2715 -1.3436
 3663SOL    HW212153   3.772   1.699   7.892 -1.6696 -0.5296 -1.0780
 3664SOL     OW12154   7.657   2.312   5.152 -0.4071  0.3613  0.3263
 3664SOL    HW112155   7.624   2.224   5.171 -0.1565  0.1025 -0.3922
 3664SOL    HW212156   7.675   2.350   5.238 -0.7694 -0.1880  0.6542
 3665SOL     OW12157   3.268   6.649   1.287  0.3737  0.5251  0.0950
 3665SOL    HW112158   3.330   6.578   1.273 -0.1740 -0.0151  0.3854
 3665SOL    HW212159   3.320   6.729   1.274  1.3122  0.0941  1.0149
 3666SOL     OW12160   4.364   1.044   0.011 -0.3785  0.9039  0.2436
 3666SOL    HW112161   4.339   1.123  -0.036 -0.2517  0.5049 -0.4962
 3666SOL    HW212162   4.437   1.072   0.067  0.5923  1.0115 -1.0253
 3667SOL     OW12163   2.765   4.388   1.393 -0.1249 -0.2179  0.2655
 3667SOL    HW112164   2.819   4.376   1.315 -0.0178  0.4852  0.2327
 3667SOL    HW212165   2.731   4.477   1.386 -0.3638 -0.2592  0.8640
 3668SOL     OW12166   0.298   4.964   5.314 -0.3149 -0.2250 -0.4512
 3668SOL    HW112167   0.279   4.870   5.315 -1.3188 -0.0372  0.8214
 3668SOL    HW212168   0.392   4.970   5.329  0.0299 -1.0627 -2.1337
 3669SOL     OW12169   2.483   1.095   0.064  0.1540  0.1037  0.0505
 3669SOL    HW112170   2.546   1.037   0.023 -0.5229 -1.2733  0.8953
 3669SOL    HW212171   2.399   1.072   0.023 -0.2737 -0.2117  1.0806
 3670SOL     OW12172   7.814   5.832   7.771  0.1683  0.0704 -0.0229
 3670SOL    HW112173   7.732   5.793   7.802 -0.3140  1.1192  0.0736
 3670SOL    HW212174   7.813   5.816   7.676 -1.1453  1.7810 -0.3485
 3671SOL     OW12175   0.084   4.374   8.402 -0.3019  0.1608  0.6242
 3671SOL    HW112176   0.164   4.391   8.451 -0.2568  1.8123  0.0524
 3671SOL    HW212177   0.031   4.453   8.415 -1.6055 -0.6637  0.5296
 3672SOL     OW12178   4.354   2.810   8.842  0.0631 -0.1399 -0.3323
 3672SOL    HW112179   4.403   2.732   8.868 -0.3160 -0.2144  0.1714
 3672SOL    HW212180   4.385   2.829   8.753  0.3119 -0.7359 -0.3797
 3673SOL     OW12181   8.388   1.577   5.255 -0.3383 -0.0623 -0.4902
 3673SOL    HW112182   8.301   1.609   5.278 -1.0757 -0.9489 -1.8597
 3673SOL    HW212183   8.448   1.647   5.282 -1.5910  1.0997 -0.6221
 3674SOL     OW12184   7.448   7.513   8.818 -0.0340 -0.0854 -0.2330
 3674SOL    HW112185   7.470   7.433   8.864 -1.0616  0.0583  0.5556
 3674SOL    HW212186   7.491   7.505   8.733  0.9031 -0.8994  0.2955
 3675SOL     OW12187   6.546   5.932   3.805  0.0282  0.0100 -0.2821
 3675SOL    HW112188   6.638   5.917   3.827 -0.0848 -1.6154 -0.8094
 3675SOL    HW212189   6.501   5.854   3.838 -1.1584  0.7494 -0.1082
 3676SOL     OW12190   2.308   6.759   2.106 -0.2392  0.1870  0.5265
 3676SOL    HW112191   2.340   6.846   2.131  0.5170  0.2240 -0.4615
 3676SOL    HW212192   2.373   6.728   2.043 -0.1980 -1.3385  1.2769
 3677SOL     OW12193   4.355   1.032   1.173 -0.1259  0.0728  0.5013
 3677SOL    HW112194   4.352   1.081   1.255  1.6969  1.8254 -0.3900
 3677SOL    HW212195   4.343   1.098   1.105 -0.0795 -1.1148 -0.6998
 3678SOL     OW12196   1.944   2.797   7.367 -0.1684 -0.3471 -0.0686
 3678SOL    HW112197   1.972   2.740   7.295  1.2995 -1.0567  1.0018
 3678SOL    HW212198   1.901   2.870   7.324 -0.7837 -1.5386 -1.5697
 3679SOL     OW12199   0.792   7.512   7.215  0.2943  0.9250  0.3230
 3679SOL    HW112200   0.839   7.571   7.156 -0.2720  0.4773 -0.6075
 3679SOL    HW212201   0.700   7.529   7.198  0.0954 -0.8640 -0.6876
 3680SOL     OW12202   0.539   7.165   1.437  0.2280 -0.0011 -0.3791
 3680SOL    HW112203   0.561   7.139   1.348  0.9932 -0.3339 -0.1016
 3680SOL    HW212204   0.532   7.083   1.485 -1.9031  0.0586 -0.4885
 3681SOL     OW12205   2.745   5.772   6.476  0.3384 -0.1057 -0.5593
 3681SOL    HW112206   2.733   5.775   6.381  0.3752 -1.0662 -0.6044
 3681SOL    HW212207   2.840   5.774   6.489  0.3313  0.0968 -0.5403
 3682SOL     OW12208   0.767   6.770   3.776  0.1834 -0.3921 -0.2653
 3682SOL    HW112209   0.687   6.779   3.828  1.7724 -1.0980  2.5318
 3682SOL    HW212210   0.796   6.860   3.760  0.1003 -0.1453  0.8917
 3683SOL     OW12211   3.149   1.778   6.413 -0.3022  0.2773  0.1718
 3683SOL    HW112212   3.087   1.816   6.350  1.5349 -0.6967 -2.3784
 3683SOL    HW212213   3.189   1.854   6.456 -0.2578  1.0658 -1.2138
 3684SOL     OW12214   0.861   7.090   6.407  0.0168  0.5056 -0.4138
 3684SOL    HW112215   0.882   7.031   6.479  0.7282  1.2568  0.0094
 3684SOL    HW212216   0.940   7.091   6.353 -0.6542 -0.3761 -1.4517
 3685SOL     OW12217   7.227   5.402   2.031 -0.2698  0.2218  0.2141
 3685SOL    HW112218   7.301   5.355   2.070  1.1978  0.8180 -1.6549
 3685SOL    HW212219   7.158   5.337   2.023  0.1945 -0.4799  1.5758
 3686SOL     OW12220   1.166   1.893   6.710  0.2207 -0.1885 -0.0466
 3686SOL    HW112221   1.177   1.849   6.794 -0.6810 -0.4591 -0.0551
 3686SOL    HW212222   1.148   1.822   6.647  0.4143  0.0501 -0.3758
 3687SOL     OW12223   7.217   5.840   5.373  0.1813  0.5722  0.2853
 3687SOL    HW112224   7.219   5.925   5.327 -0.7304  0.8040  0.6405
 3687SOL    HW212225   7.279   5.785   5.325  0.0984  1.1629 -0.5203
 3688SOL     OW12226   0.779   8.039   5.692  0.7033 -0.7650 -0.3086
 3688SOL    HW112227   0.791   8.132   5.710  2.1596 -0.8981 -0.4542
 3688SOL    HW212228   0.711   8.011   5.754  0.6730  0.2604  0.1448
 3689SOL     OW12229   5.782   0.975   5.677 -0.3976  0.3559  0.3974
 3689SOL    HW112230   5.830   0.964   5.758 -0.0141 -0.5850  0.0611
 3689SOL    HW212231   5.849   0.991   5.611 -0.4277 -1.5754 -0.1820
 3690SOL     OW12232   1.004   2.801   0.614  0.1246 -0.0191  0.2213
 3690SOL    HW112233   0.985   2.828   0.524 -1.3813 -0.3484  0.4008
 3690SOL    HW212234   1.019   2.882   0.661  1.4965  0.1247 -0.4321
 3691SOL     OW12235   4.063   0.213   1.704  0.3139 -0.1222 -0.1964
 3691SOL    HW112236   4.034   0.144   1.763  0.1710  1.0460  1.1441
 3691SOL    HW212237   4.009   0.202   1.625 -0.8169 -0.5713  0.6160
 3692SOL     OW12238   7.134   3.029   5.244  0.3869  0.6198  0.3749
 3692SOL    HW112239   7.162   3.009   5.334 -1.9176 -0.3595  0.9442
 3692SOL    HW212240   7.144   2.946   5.197  1.0275  0.9811 -0.1391
 3693SOL     OW12241   5.123   1.298   7.096  0.1808 -0.1399  0.4693
 3693SOL    HW112242   5.197   1.257   7.140  0.0278  0.0751  0.9275
 3693SOL    HW212243   5.066   1.225   7.071  0.2429 -0.2567  0.6716
 3694SOL     OW12244   3.651   8.296   1.692  0.6285 -0.2908 -0.1406
 3694SOL    HW112245   3.726   8.347   1.723  0.1115 -0.5694  1.7025
 3694SOL    HW212246   3.575   8.339   1.730 -0.0162 -1.0236 -0.5615
 3695SOL     OW12247   1.325   0.229   6.890  0.3093  0.3449  0.6269
 3695SOL    HW112248   1.414   0.231   6.925  0.5033 -2.0104  0.4250
 3695SOL    HW212249   1.277   0.173   6.951 -0.6945  0.4893 -0.0050
 3696SOL     OW12250   3.512   1.922   0.451  0.4722 -0.6084  0.0658
 3696SOL    HW112251   3.465   1.945   0.531  3.2770  1.0900  1.3738
 3696SOL    HW212252   3.444   1.914   0.384 -1.9760 -2.0347  2.5274
 3697SOL     OW12253   4.596   3.392   8.207  0.0788  0.2551 -0.2709
 3697SOL    HW112254   4.572   3.450   8.135  0.0970  1.1529  0.4283
 3697SOL    HW212255   4.683   3.360   8.183  0.2742  0.8941 -0.4532
 3698SOL     OW12256   7.237   8.107   3.418 -0.4737  0.4036  0.0549
 3698SOL    HW112257   7.162   8.059   3.451 -1.5116  1.6847 -0.3703
 3698SOL    HW212258   7.312   8.072   3.467 -1.1269 -1.7827 -0.4114
 3699SOL     OW12259   5.234   2.622   8.096 -0.2312 -0.2519  0.6088
 3699SOL    HW112260   5.223   2.717   8.097 -1.3630 -0.3361 -0.4204
 3699SOL    HW212261   5.150   2.588   8.127 -0.1130 -0.9178  0.2257
 3700SOL     OW12262   1.784   7.664   4.101  0.5137 -0.5261  0.0953
 3700SOL    HW112263   1.879   7.670   4.108  0.4983  0.8263 -0.5897
 3700SOL    HW212264   1.755   7.754   4.083 -1.0346 -0.6236  1.8028
 3701SOL     OW12265   0.847   4.141   3.190 -0.2858 -0.4329 -0.1969
 3701SOL    HW112266   0.933   4.174   3.165 -0.2156  0.4151  1.0935
 3701SOL    HW212267   0.794   4.152   3.111  0.5411 -0.0801 -0.7220
 3702SOL     OW12268   3.025   8.710   3.667  0.5223  0.8643  0.2711
 3702SOL    HW112269   2.961   8.734   3.600  0.1334  1.4950  0.8460
 3702SOL    HW212270   3.041   8.617   3.654  0.1512  0.8942 -0.4388
 3703SOL     OW12271   2.717   8.444   2.386 -0.0514  0.4347 -0.3256
 3703SOL    HW112272   2.673   8.370   2.429  0.3541  1.3110  1.7543
 3703SOL    HW212273   2.772   8.404   2.319  0.0146 -1.1309  0.6116
 3704SOL     OW12274   7.098   1.803   3.569 -0.4412  0.7147 -0.3819
 3704SOL    HW112275   7.015   1.758   3.554 -0.0100 -0.4672  0.6636
 3704SOL    HW212276   7.127   1.828   3.481 -1.1605 -0.2071 -0.9047
 3705SOL     OW12277   3.303   4.848   6.761  0.4460 -0.0379 -0.0323
 3705SOL    HW112278   3.387   4.864   6.805  0.6072  0.9922 -0.6774
 3705SOL    HW212279   3.238   4.886   6.820  0.2599 -2.0409  1.1365
 3706SOL     OW12280   7.876   5.235   3.752 -0.9200 -0.1861  0.5962
 3706SOL    HW112281   7.923   5.282   3.821 -0.7087 -0.2754  0.5150
 3706SOL    HW212282   7.805   5.189   3.797 -1.3533  0.4959  0.6313
 3707SOL     OW12283   0.992   0.525   6.078 -0.1587  0.3226 -0.0276
 3707SOL    HW112284   0.919   0.581   6.101  0.2538  0.5142  0.8436
 3707SOL    HW212285   0.988   0.452   6.140  1.6395  1.4308  1.5283
 3708SOL     OW12286   2.465   6.171   7.450  0.7388  0.0610  0.0035
 3708SOL    HW112287   2.492   6.099   7.394  0.4924 -1.2420  1.4602
 3708SOL    HW212288   2.405   6.223   7.397  3.2443  1.0082 -2.1041
 3709SOL     OW12289   3.912   8.525   3.198  0.6393 -0.3660  0.2864
 3709SOL    HW112290   3.936   8.531   3.106 -0.6978  0.3074 -0.0432
 3709SOL    HW212291   3.903   8.431   3.215 -0.2939 -0.4478 -0.5991
 3710SOL     OW12292   3.348   6.263   0.136 -0.2439  0.4877  0.0554
 3710SOL    HW112293   3.361   6.315   0.056  0.7642  1.7576  0.9999
 3710SOL    HW212294   3.361   6.326   0.207 -0.3038 -0.8010  1.2326
 3711SOL     OW12295   7.547   6.781   2.087 -0.0611 -0.5965  0.0488
 3711SOL    HW112296   7.494   6.833   2.147  1.3792 -0.7706  1.5429
 3711SOL    HW212297   7.544   6.829   2.004 -2.8764 -0.8484 -0.0956
 3712SOL     OW12298   1.537   5.247   6.366  0.2218 -0.1358  0.1298
 3712SOL    HW112299   1.583   5.320   6.407 -1.2686  0.6708  0.4420
 3712SOL    HW212300   1.606   5.187   6.340  1.6234  1.9694 -1.3257
 3713SOL     OW12301   5.609   3.504   2.236  0.2447  0.4065 -0.7509
 3713SOL    HW112302   5.616   3.474   2.327  1.7082 -0.9665 -1.2712
 3713SOL    HW212303   5.697   3.494   2.201 -0.3682  0.6398 -2.4218
 3714SOL     OW12304   3.773   8.353   0.994 -0.1186 -0.3610  0.1251
 3714SOL    HW112305   3.836   8.338   1.064  0.0585 -0.4026 -0.0397
 3714SOL    HW212306   3.710   8.415   1.030  0.9284  0.9479 -0.2450
 3715SOL     OW12307   5.619   7.496   4.683  0.4440  0.5682  0.5321
 3715SOL    HW112308   5.604   7.590   4.692 -0.2573  0.3052  2.7120
 3715SOL    HW212309   5.628   7.464   4.773 -0.0527 -1.5529 -0.1078
 3716SOL     OW12310   3.011   8.114   0.664 -0.7125  0.2792 -0.4528
 3716SOL    HW112311   2.937   8.060   0.690 -1.4715  2.2258  1.6788
 3716SOL    HW212312   3.083   8.052   0.651 -1.3672 -1.2360  2.5113
 3717SOL     OW12313   5.186   3.099   1.136  0.2960 -0.2733 -0.2804
 3717SOL    HW112314   5.128   3.032   1.171  0.2865 -0.5397 -0.7865
 3717SOL    HW212315   5.266   3.090   1.187  0.0786 -0.2561  0.0685
 3718SOL     OW12316   5.713   6.575   7.166  0.3277 -0.2155 -0.0750
 3718SOL    HW112317   5.691   6.486   7.194  1.8766 -0.7676 -0.5289
 3718SOL    HW212318   5.658   6.591   7.090  0.4769 -1.0191 -0.3517
 3719SOL     OW12319   6.203   3.371   0.598  0.6411  1.2040  0.0674
 3719SOL    HW112320   6.110   3.389   0.585  0.8579  1.1421 -1.8590
 3719SOL    HW212321   6.212   3.277   0.579  0.7257  0.5703  2.7833
 3720SOL     OW12322   6.365   5.691   2.882  0.1342  0.2702  0.5749
 3720SOL    HW112323   6.334   5.602   2.900  0.9856 -0.3006 -0.6068
 3720SOL    HW212324   6.296   5.731   2.830 -0.0365  0.1418  0.7010
 3721SOL     OW12325   4.290   7.804   1.597  0.5154  1.3165  0.0007
 3721SOL    HW112326   4.381   7.774   1.604 -0.1803 -0.9190  0.5944
 3721SOL    HW212327   4.256   7.758   1.520 -0.1098  2.1736 -0.2434
 3722SOL     OW12328   7.125   3.213   1.067  0.0160  0.0942 -0.5341
 3722SOL    HW112329   7.082   3.218   0.981  0.9624 -2.0766 -1.1930
 3722SOL    HW212330   7.151   3.122   1.075 -0.3097  0.1857  2.2278
 3723SOL     OW12331   7.739   0.623   4.666  0.5147 -0.2315 -0.4836
 3723SOL    HW112332   7.778   0.538   4.688 -1.5995 -0.9212  0.9218
 3723SOL    HW212333   7.693   0.608   4.583 -1.4746 -1.1161  0.6895
 3724SOL     OW12334   7.935   7.222   2.726 -0.4948 -0.0920 -0.7037
 3724SOL    HW112335   7.999   7.196   2.793 -0.7881 -2.4315 -1.2545
 3724SOL    HW212336   7.855   7.175   2.748 -0.4360 -1.4235 -2.9605
 3725SOL     OW12337   0.693   6.820   4.505  0.3519 -0.2148 -0.1683
 3725SOL    HW112338   0.641   6.854   4.432  0.4956 -1.4548 -0.8698
 3725SOL    HW212339   0.745   6.749   4.467  0.5333 -0.7991  1.1158
 3726SOL     OW12340   4.018   6.907   0.228 -0.5576  0.0559 -1.0026
 3726SOL    HW112341   3.947   6.959   0.263 -0.8239  0.3606 -1.9792
 3726SOL    HW212342   4.077   6.970   0.188 -0.0621 -0.2560 -0.7858
 3727SOL     OW12343   7.247   0.701   5.672 -0.5259 -0.1961  0.2563
 3727SOL    HW112344   7.329   0.651   5.672 -0.6514 -0.4084 -0.1955
 3727SOL    HW212345   7.235   0.727   5.581  1.7661  4.4176  0.9660
 3728SOL     OW12346   4.001   2.203   6.891  0.1088 -0.5529  0.8411
 3728SOL    HW112347   4.061   2.276   6.907  0.0168  0.0165 -1.1781
 3728SOL    HW212348   4.058   2.127   6.877  0.4391  0.0038 -1.1591
 3729SOL     OW12349   7.152   5.137   6.085 -0.1371  0.1760  0.3509
 3729SOL    HW112350   7.159   5.043   6.100 -1.7119 -0.1179 -0.4773
 3729SOL    HW212351   7.192   5.152   6.000 -0.7409  0.0717  0.0379
 3730SOL     OW12352   8.765   1.400   2.044  0.7303 -0.2544  0.4266
 3730SOL    HW112353   8.781   1.405   1.950  0.1637  1.0772  0.3743
 3730SOL    HW212354   8.675   1.366   2.050  1.8185 -3.4918  0.6161
 3731SOL     OW12355   7.127   2.005   2.324 -0.4437 -0.0399 -0.9665
 3731SOL    HW112356   7.099   2.046   2.405 -3.0418 -4.3738  0.6449
 3731SOL    HW212357   7.207   1.958   2.347 -0.6806 -0.5488 -1.1717
 3732SOL     OW12358   6.336   3.463   1.275 -0.0190 -0.6012 -0.0999
 3732SOL    HW112359   6.306   3.507   1.354 -0.8558 -0.3632 -0.5396
 3732SOL    HW212360   6.268   3.399   1.256  0.0391 -0.4677 -0.7760
 3733SOL     OW12361   2.683   3.894   6.413  0.1158 -0.2343 -0.4462
 3733SOL    HW112362   2.755   3.957   6.409  0.9835 -1.1426  0.2846
 3733SOL    HW212363   2.613   3.933   6.361  1.1817  0.6196 -1.2696
 3734SOL     OW12364   7.924   3.740   7.424  0.3910 -0.2643 -0.0469
 3734SOL    HW112365   7.927   3.737   7.328  1.9164 -1.8385 -0.0173
 3734SOL    HW212366   7.994   3.801   7.448  1.0853 -1.0861  0.0632
 3735SOL     OW12367   7.680   8.194   6.179 -0.0802  0.3049 -0.0706
 3735SOL    HW112368   7.725   8.220   6.099 -1.8710 -0.2605 -1.3409
 3735SOL    HW212369   7.649   8.276   6.218  1.4794  0.6464  0.5185
 3736SOL     OW12370   7.122   4.456   1.347 -0.1235  0.2264  0.0054
 3736SOL    HW112371   7.070   4.533   1.324 -0.9848 -0.3630 -0.0285
 3736SOL    HW212372   7.184   4.446   1.275  0.5487  1.3568  0.3859
 3737SOL     OW12373   4.285   5.307   6.740  0.0141 -0.4806  0.2120
 3737SOL    HW112374   4.192   5.290   6.725 -0.3649  0.1320  1.6282
 3737SOL    HW212375   4.317   5.345   6.658 -0.0933 -3.8701 -1.5613
 3738SOL     OW12376   0.143   7.498   0.629 -0.8219 -0.2168  0.1591
 3738SOL    HW112377   0.105   7.585   0.619  0.4695  0.3418 -0.0415
 3738SOL    HW212378   0.149   7.463   0.540  0.8009  0.4540 -0.0334
 3739SOL     OW12379   1.053   8.835   0.275 -0.5284 -0.1449 -0.4803
 3739SOL    HW112380   1.024   8.876   0.193  1.1754  0.1497 -0.9661
 3739SOL    HW212381   1.104   8.903   0.319  1.1477 -1.2445 -0.6320
 3740SOL     OW12382   2.063   1.931   4.428  0.2509 -0.1939  0.0470
 3740SOL    HW112383   2.058   1.870   4.502 -1.6684 -0.5415 -0.3188
 3740SOL    HW212384   2.115   2.004   4.462 -0.5062 -0.3786  1.7553
 3741SOL     OW12385   2.720   2.362   4.479 -0.2043  0.3128  0.7830
 3741SOL    HW112386   2.814   2.364   4.460 -0.2136 -2.5163  0.0204
 3741SOL    HW212387   2.713   2.308   4.557 -1.3233 -1.5778 -0.5622
 3742SOL     OW12388   8.273   0.911   7.544 -0.2760  0.2143 -0.1928
 3742SOL    HW112389   8.284   0.874   7.632  0.0394  0.2998 -0.1958
 3742SOL    HW212390   8.187   0.953   7.547  0.6310  2.1003  0.7597
 3743SOL     OW12391   5.267   7.775   2.109  0.0825  0.2603 -0.0364
 3743SOL    HW112392   5.205   7.812   2.046 -0.6110 -0.2313  0.3361
 3743SOL    HW212393   5.297   7.850   2.160 -0.6951  0.4387  0.1870
 3744SOL     OW12394   2.905   0.426   7.273 -0.2747 -0.1450  0.7485
 3744SOL    HW112395   2.870   0.337   7.262  2.2849 -1.2153  0.5596
 3744SOL    HW212396   2.954   0.442   7.192  0.0826  1.0560  1.1875
 3745SOL     OW12397   8.721   5.056   4.740  0.0496 -0.8460  0.3289
 3745SOL    HW112398   8.694   4.964   4.748 -0.7290 -0.6415  0.1904
 3745SOL    HW212399   8.732   5.069   4.646 -0.2897 -0.6795  0.3106
 3746SOL     OW12400   2.181   4.207   4.581 -0.2100 -0.4374 -0.4939
 3746SOL    HW112401   2.200   4.241   4.493  0.9138 -2.4094 -1.0683
 3746SOL    HW212402   2.130   4.127   4.565 -1.1366 -0.1222  0.7304
 3747SOL     OW12403   8.676   8.471   6.284  0.1022 -0.3616  0.1436
 3747SOL    HW112404   8.582   8.486   6.275  0.1755  0.2004  0.2641
 3747SOL    HW212405   8.693   8.393   6.230 -0.2107  0.3247 -0.9897
 3748SOL     OW12406   4.317   5.541   3.418 -0.1774 -0.0197 -0.0549
 3748SOL    HW112407   4.376   5.571   3.488 -1.2944 -0.0018  0.9082
 3748SOL    HW212408   4.260   5.478   3.461 -0.4761 -0.4929 -1.1185
 3749SOL     OW12409   0.963   0.359   8.466  0.5107 -0.8785  0.6936
 3749SOL    HW112410   0.987   0.417   8.393  1.4564 -0.1792  1.5291
 3749SOL    HW212411   0.882   0.397   8.500  0.4543 -0.7785  0.4494
 3750SOL     OW12412   2.237   4.135   8.853  0.5957 -0.2410  0.4725
 3750SOL    HW112413   2.328   4.147   8.879  1.2962 -0.9278 -1.4844
 3750SOL    HW212414   2.217   4.045   8.877  0.2963  0.0237  1.2407
 3751SOL     OW12415   7.001   6.971   5.547  0.3483  0.4295  0.0838
 3751SOL    HW112416   6.933   6.908   5.521  1.6250 -1.6052  1.4173
 3751SOL    HW212417   7.057   6.922   5.606  1.4299  2.8775  1.1956
 3752SOL     OW12418   1.968   5.013   5.621 -0.3117 -0.1669 -0.1716
 3752SOL    HW112419   1.934   5.079   5.561 -1.7731  0.4639  1.2622
 3752SOL    HW212420   2.040   5.057   5.667  0.1878 -0.3346 -0.7900
 3753SOL     OW12421   5.990   2.763   4.656 -0.5992  0.8364 -0.7859
 3753SOL    HW112422   6.069   2.713   4.679 -1.5317 -0.6010 -0.6124
 3753SOL    HW212423   5.997   2.776   4.561 -0.3413  0.3716 -0.8330
 3754SOL     OW12424   5.661   3.761   4.694  0.6036 -0.0085 -0.3532
 3754SOL    HW112425   5.688   3.671   4.677 -3.3422 -1.2095 -1.3739
 3754SOL    HW212426   5.619   3.757   4.780 -0.6934  0.4999 -0.9322
 3755SOL     OW12427   6.780   1.162   3.745  0.3255  0.4763  0.0736
 3755SOL    HW112428   6.743   1.074   3.745 -1.3402  1.1508 -0.1343
 3755SOL    HW212429   6.742   1.204   3.668 -1.4372  2.3823  1.8892
 3756SOL     OW12430   8.647   7.427   3.620  0.2347 -0.2091 -0.4358
 3756SOL    HW112431   8.591   7.351   3.632  0.0718  0.0031  0.1875
 3756SOL    HW212432   8.721   7.412   3.679 -0.9247  1.1844  1.5225
 3757SOL     OW12433   0.884   2.450   2.125 -0.5636  0.3397  0.2155
 3757SOL    HW112434   0.920   2.474   2.040  2.1374 -0.6110  0.9944
 3757SOL    HW212435   0.884   2.532   2.175  0.5197  0.3826  0.1639
 3758SOL     OW12436   4.374   3.946   3.336  0.1887 -0.3426 -0.0960
 3758SOL    HW112437   4.433   3.935   3.261 -0.9211  0.9750 -1.2441
 3758SOL    HW212438   4.389   4.036   3.365  0.5883 -0.8353  1.2880
 3759SOL     OW12439   5.676   7.145   5.931 -0.4053  0.5485  0.4527
 3759SOL    HW112440   5.656   7.073   5.990  2.7376  0.4790  1.6175
 3759SOL    HW212441   5.647   7.114   5.845 -1.4043 -1.0405  1.3148
 3760SOL     OW12442   7.730   8.411   8.731  0.1595 -0.2459  0.3284
 3760SOL    HW112443   7.723   8.494   8.683  3.8335 -0.1445 -0.3362
 3760SOL    HW212444   7.758   8.348   8.664  0.7236 -1.2326  1.4742
 3761SOL     OW12445   3.927   1.569   0.283  0.3368 -0.8387 -0.0392
 3761SOL    HW112446   3.965   1.537   0.365  1.3364 -2.5891 -1.1310
 3761SOL    HW212447   3.986   1.640   0.256  0.1387 -0.4143  0.6267
 3762SOL     OW12448   8.711   7.367   7.555  0.0982  0.1368  0.3285
 3762SOL    HW112449   8.787   7.393   7.608 -0.2427  0.9187  0.4601
 3762SOL    HW212450   8.748   7.328   7.476  0.6241 -1.0528  1.1274
 3763SOL     OW12451   3.996   8.505   8.524 -0.4236  0.6118 -0.3028
 3763SOL    HW112452   4.033   8.593   8.530  1.1266 -0.0695  0.8958
 3763SOL    HW212453   3.949   8.504   8.441 -0.1067  2.4318 -0.5408
 3764SOL     OW12454   3.679   2.081   6.201 -0.0108 -0.1928 -0.5541
 3764SOL    HW112455   3.605   2.125   6.243  0.2512 -1.7893  1.7958
 3764SOL    HW212456   3.749   2.085   6.266  2.1913  1.5223 -2.8008
 3765SOL     OW12457   8.860   2.638   8.454  0.4737  0.6624 -0.4538
 3765SOL    HW112458   8.955   2.631   8.460  0.3937  0.6783  1.1048
 3765SOL    HW212459   8.841   2.729   8.476  0.0907  0.6559 -0.7470
 3766SOL     OW12460   4.742   7.592   4.603 -0.2426  0.3649  0.4642
 3766SOL    HW112461   4.724   7.498   4.601  1.8196 -0.0799 -1.6647
 3766SOL    HW212462   4.821   7.599   4.657 -0.3295  0.8895  0.5275
 3767SOL     OW12463   7.170   2.663   4.507  0.1915 -0.0605 -0.2557
 3767SOL    HW112464   7.205   2.730   4.449  1.6491 -1.5828 -1.2297
 3767SOL    HW212465   7.151   2.589   4.450  2.3337 -1.8816  1.2219
 3768SOL     OW12466   4.095   7.268   8.003 -0.2489 -0.0297 -0.7029
 3768SOL    HW112467   4.108   7.198   8.068  0.9064 -0.8620 -1.7820
 3768SOL    HW212468   4.128   7.347   8.046  2.7884 -0.9920 -1.0748
 3769SOL     OW12469   1.000   7.654   4.122  0.0672 -0.2530  0.3948
 3769SOL    HW112470   0.975   7.686   4.035 -0.0740 -0.4632  0.3590
 3769SOL    HW212471   0.990   7.731   4.179  1.2657  0.1993  0.0318
 3770SOL     OW12472   7.411   0.282   6.280 -0.4351 -0.1516  0.2509
 3770SOL    HW112473   7.348   0.336   6.232  0.8780  1.9769  0.7987
 3770SOL    HW212474   7.368   0.264   6.364 -1.2162 -0.6964 -0.2553
 3771SOL     OW12475   3.719   4.007   2.405 -0.4963  0.2191  0.0202
 3771SOL    HW112476   3.756   4.091   2.378 -0.8417  0.9808  1.8100
 3771SOL    HW212477   3.787   3.967   2.459 -0.7488 -0.1664  0.0566
 3772SOL     OW12478   6.131   1.171   4.782 -0.0052 -0.1182  0.1356
 3772SOL    HW112479   6.045   1.211   4.795  0.0349 -0.6299  2.4635
 3772SOL    HW212480   6.166   1.212   4.703 -1.9487  0.8437 -0.2744
 3773SOL     OW12481   8.396   6.226   8.406  0.1558  0.1735 -0.1778
 3773SOL    HW112482   8.443   6.156   8.450 -1.8307 -1.2866 -0.2478
 3773SOL    HW212483   8.364   6.187   8.325 -1.3827  0.9918 -0.0087
 3774SOL     OW12484   4.152   5.434   6.222 -0.7123  0.5463  0.0005
 3774SOL    HW112485   4.170   5.526   6.241 -0.5531 -0.0217  3.2856
 3774SOL    HW212486   4.139   5.430   6.127  1.1671  3.5885 -0.5095
 3775SOL     OW12487   4.459   8.212   2.418 -0.2624  0.0388  0.1216
 3775SOL    HW112488   4.504   8.292   2.391  0.1291 -0.2290 -0.0277
 3775SOL    HW212489   4.497   8.143   2.363 -0.9173 -0.1814 -0.0697
 3776SOL     OW12490   2.069   0.716   4.329  0.0460 -0.1635  0.2142
 3776SOL    HW112491   2.069   0.661   4.407 -0.3783 -1.1200 -0.4443
 3776SOL    HW212492   1.987   0.766   4.335 -0.8533 -1.5055 -0.4701
 3777SOL     OW12493   2.786   0.167   2.335  0.5724 -0.3400 -0.3344
 3777SOL    HW112494   2.720   0.236   2.323  0.6619  0.0425  1.1555
 3777SOL    HW212495   2.854   0.187   2.270  1.4137  2.0263  1.1239
 3778SOL     OW12496   7.666   1.965   5.104  0.4517 -0.0068 -0.1058
 3778SOL    HW112497   7.731   1.966   5.174  0.8341  1.3634 -0.4507
 3778SOL    HW212498   7.594   1.913   5.139  0.4962  0.9182  1.4511
 3779SOL     OW12499   2.862   5.284   2.923  0.0836  0.0842  0.0366
 3779SOL    HW112500   2.925   5.214   2.905 -0.2531 -0.0288 -0.7273
 3779SOL    HW212501   2.778   5.249   2.892  0.3113  1.8014 -2.8284
 3780SOL     OW12502   5.144   0.526   6.157 -0.0136  0.0320 -0.5841
 3780SOL    HW112503   5.143   0.431   6.147  0.0722 -0.0623  0.2277
 3780SOL    HW212504   5.061   0.547   6.201  1.0892  0.0347  1.5891
 3781SOL     OW12505   2.217   7.302   1.667  0.6846  0.1661  0.2306
 3781SOL    HW112506   2.253   7.364   1.604  1.0942 -1.4008 -1.1257
 3781SOL    HW212507   2.231   7.216   1.628  0.7834 -0.8634  2.3824
 3782SOL     OW12508   3.141   3.817   6.024 -0.4386  0.3039  0.2692
 3782SOL    HW112509   3.104   3.775   5.946 -0.9006  0.3378  0.4704
 3782SOL    HW212510   3.208   3.755   6.055  1.1880  1.1905 -1.3067
 3783SOL     OW12511   6.666   2.056   2.717  0.3115 -0.2932 -0.0578
 3783SOL    HW112512   6.634   2.124   2.658 -0.3700 -1.0066 -0.5337
 3783SOL    HW212513   6.591   2.037   2.774  1.3536  1.3152  1.9549
 3784SOL     OW12514   1.414   0.070   3.207  0.2196  0.0847 -0.0925
 3784SOL    HW112515   1.388   0.048   3.118  1.2252 -0.5029 -0.2625
 3784SOL    HW212516   1.464   0.151   3.198 -0.4947  0.5504  0.0716
 3785SOL     OW12517   2.713   6.016   4.687  0.2833 -0.7687  0.0990
 3785SOL    HW112518   2.685   6.107   4.691  0.9449 -0.5590  0.1844
 3785SOL    HW212519   2.804   6.018   4.719  0.2347 -1.4827  0.2935
 3786SOL     OW12520   1.230   4.877   7.341 -0.0839 -0.0243 -0.2164
 3786SOL    HW112521   1.163   4.881   7.273  0.2240 -0.9063 -0.5915
 3786SOL    HW212522   1.210   4.798   7.390 -0.1179  0.4398  0.5324
 3787SOL     OW12523   2.548   0.525   4.737  0.1743 -0.6215 -0.0886
 3787SOL    HW112524   2.547   0.557   4.827 -0.3292  0.4049 -0.4460
 3787SOL    HW212525   2.464   0.480   4.727  0.3292 -0.9381  0.0192
 3788SOL     OW12526   2.452   2.916   6.115 -0.3618 -0.0924  0.2365
 3788SOL    HW112527   2.541   2.947   6.131  0.2391 -0.3783 -2.1282
 3788SOL    HW212528   2.424   2.878   6.199  3.0740 -3.1595  0.2677
 3789SOL     OW12529   2.114   6.503   0.143  0.3689 -0.0691 -0.4189
 3789SOL    HW112530   2.116   6.412   0.173  1.2385 -0.1183 -0.5873
 3789SOL    HW212531   2.022   6.526   0.142  0.2733 -0.0595  2.2475
 3790SOL     OW12532   8.354   5.967   2.315 -0.1635 -0.1945 -0.3878
 3790SOL    HW112533   8.363   6.012   2.231  0.4003 -0.6518 -0.5750
 3790SOL    HW212534   8.315   5.882   2.292  1.7191 -1.0858 -0.4262
 3791SOL     OW12535   8.675   0.087   3.832 -0.1323 -0.0893 -0.2780
 3791SOL    HW112536   8.587   0.052   3.839 -0.0994 -0.5164 -1.6949
 3791SOL    HW212537   8.706   0.058   3.746  0.4809  2.0785 -0.8463
 3792SOL     OW12538   3.133   1.904   2.376 -0.0474 -0.3659 -0.2079
 3792SOL    HW112539   3.144   1.817   2.415  2.2279 -0.9438 -1.9202
 3792SOL    HW212540   3.208   1.914   2.318  0.0906  3.0277  0.3561
 3793SOL     OW12541   5.636   0.842   8.040 -0.2762 -0.2307 -0.0921
 3793SOL    HW112542   5.582   0.771   8.006 -2.3265  1.1600  0.1217
 3793SOL    HW212543   5.629   0.912   7.975  3.1031 -0.7027 -1.1707
 3794SOL     OW12544   1.016   1.274   7.326  0.0776  0.0757 -0.0014
 3794SOL    HW112545   0.923   1.295   7.323 -0.0277 -0.2785  0.6095
 3794SOL    HW212546   1.027   1.222   7.406  0.8034  0.1323 -0.0520
 3795SOL     OW12547   6.932   0.537   3.424  0.4705 -0.1824  0.5686
 3795SOL    HW112548   6.934   0.460   3.480  2.2842 -0.0898  0.6958
 3795SOL    HW212549   6.964   0.506   3.339  0.8188  0.3257  0.5094
 3796SOL     OW12550   7.308   1.196   0.891  0.1498  0.1150 -0.8524
 3796SOL    HW112551   7.395   1.213   0.925 -0.2917  2.7295 -0.8237
 3796SOL    HW212552   7.315   1.110   0.848  2.2960 -0.4161  0.4338
 3797SOL     OW12553   7.568   4.956   3.477  0.1443 -0.1974 -0.1738
 3797SOL    HW112554   7.567   4.866   3.444  0.0605 -0.4952  0.6360
 3797SOL    HW212555   7.603   4.949   3.565  0.8138  0.6576 -0.3565
 3798SOL     OW12556   7.817   6.313   0.959  0.4080  1.2889 -0.0926
 3798SOL    HW112557   7.836   6.273   1.044  0.3794  0.6358 -0.3871
 3798SOL    HW212558   7.863   6.397   0.962  0.8272  1.0543  0.3769
 3799SOL     OW12559   4.737   8.400   4.413 -0.2552  0.3697 -0.5416
 3799SOL    HW112560   4.718   8.322   4.465  0.2582  0.5364 -0.0955
 3799SOL    HW212561   4.725   8.372   4.322  3.2712 -1.2503 -0.6398
 3800SOL     OW12562   2.879   7.427   4.316 -0.2301 -0.6260  0.1644
 3800SOL    HW112563   2.828   7.485   4.260 -0.8171 -1.8975 -0.6542
 3800SOL    HW212564   2.815   7.366   4.352  0.6048 -1.9114 -0.4598
 3801SOL     OW12565   7.270   0.897   6.143  0.0433  0.0732 -1.4306
 3801SOL    HW112566   7.252   0.912   6.050  0.7252 -3.1684 -2.2185
 3801SOL    HW212567   7.286   0.803   6.149  2.4432  0.5115  1.5833
 3802SOL     OW12568   7.906   0.806   4.575  0.1748 -0.5317 -0.3153
 3802SOL    HW112569   7.979   0.765   4.621  0.5159 -1.4292 -1.6006
 3802SOL    HW212570   7.828   0.763   4.610  0.5467 -2.6406 -1.8976
 3803SOL     OW12571   5.315   4.217   1.718  0.2261 -0.0386 -0.0781
 3803SOL    HW112572   5.221   4.232   1.716  0.3245  0.5408 -1.7725
 3803SOL    HW212573   5.330   4.167   1.798 -1.3877  0.6499  0.6844
 3804SOL     OW12574   3.369   3.565   5.272  0.1203  0.0672  0.0030
 3804SOL    HW112575   3.325   3.556   5.357  0.8730 -0.4348  0.3470
 3804SOL    HW212576   3.391   3.475   5.247 -1.1363  0.0900 -1.2969
 3805SOL     OW12577   8.318   4.627   3.173 -0.2473  0.0648 -0.0751
 3805SOL    HW112578   8.327   4.619   3.078 -3.4943  0.4344 -0.5313
 3805SOL    HW212579   8.331   4.720   3.191 -1.0269  0.2429 -0.3922
 3806SOL     OW12580   0.848   3.570   7.395 -0.0091 -0.3849 -0.2114
 3806SOL    HW112581   0.847   3.567   7.491  1.8775 -1.4606 -0.1766
 3806SOL    HW212582   0.886   3.656   7.374 -0.0102 -0.3293  0.0102
 3807SOL     OW12583   6.314   2.881   2.283 -0.3759  0.3635 -0.3975
 3807SOL    HW112584   6.312   2.827   2.362  0.1106  0.3029 -0.4224
 3807SOL    HW212585   6.306   2.971   2.314 -0.6428  0.3103 -0.3138
 3808SOL     OW12586   6.120   6.321   4.282  0.1342 -0.1515  0.1052
 3808SOL    HW112587   6.174   6.400   4.281  0.5776 -0.4542 -0.5546
 3808SOL    HW212588   6.031   6.354   4.273  0.3651  0.2492 -0.8776
 3809SOL     OW12589   1.360   7.327   4.712  0.0431  0.1895  0.1728
 3809SOL    HW112590   1.420   7.372   4.653  1.1828  1.4982  2.2124
 3809SOL    HW212591   1.284   7.307   4.658  1.8848 -0.7037 -2.2946
 3810SOL     OW12592   0.542   3.136   2.592  0.4756  0.0733  0.2150
 3810SOL    HW112593   0.562   3.211   2.648 -1.1693 -0.7364  1.9793
 3810SOL    HW212594   0.473   3.089   2.638 -0.0352 -1.3755 -1.8899
 3811SOL     OW12595   1.567   5.555   5.796  0.2040 -0.0520 -0.4402
 3811SOL    HW112596   1.476   5.567   5.822  0.0181 -0.8580 -0.7049
 3811SOL    HW212597   1.595   5.642   5.767  0.0812  0.6299  1.3627
 3812SOL     OW12598   0.611   3.603   8.424  0.0246  0.0369 -0.0754
 3812SOL    HW112599   0.598   3.656   8.503 -0.3455 -0.0494 -0.0750
 3812SOL    HW212600   0.665   3.658   8.367  1.1631 -0.3034  0.6402
 3813SOL     OW12601   3.253   5.562   6.393  0.0072  0.8281  0.0609
 3813SOL    HW112602   3.224   5.514   6.316  2.5555  0.9256 -1.0710
 3813SOL    HW212603   3.196   5.531   6.464 -1.7626 -0.0012 -1.6329
 3814SOL     OW12604   2.976   5.761   6.214 -0.1237  0.4695  0.1588
 3814SOL    HW112605   2.986   5.706   6.291  2.5244  1.8631  0.9525
 3814SOL    HW212606   3.061   5.803   6.203 -0.7285  1.2003 -2.8973
 3815SOL     OW12607   6.118   4.509   2.148  0.0052  0.1814  0.2915
 3815SOL    HW112608   6.054   4.542   2.211 -0.0567  0.4128  0.1095
 3815SOL    HW212609   6.180   4.459   2.201 -0.6847 -0.6035  0.3853
 3816SOL     OW12610   7.707   4.676   4.795 -0.2699 -0.0253  0.3319
 3816SOL    HW112611   7.723   4.603   4.855  1.0172 -0.3608 -0.3729
 3816SOL    HW212612   7.795   4.708   4.773 -0.8125  2.0028  0.9189
 3817SOL     OW12613   5.801   4.781   7.127 -0.7713  0.4245 -0.3759
 3817SOL    HW112614   5.815   4.875   7.116  0.7452  0.1425 -1.0485
 3817SOL    HW212615   5.803   4.767   7.222  0.9116  0.8253 -0.3277
 3818SOL     OW12616   6.770   2.120   8.668 -0.4143 -0.2312 -0.2758
 3818SOL    HW112617   6.691   2.141   8.717  0.2505  0.5473  0.4901
 3818SOL    HW212618   6.842   2.142   8.727  0.3865 -0.4637 -1.1395
 3819SOL     OW12619   5.157   2.158   6.204 -0.8074 -0.2479  0.2352
 3819SOL    HW112620   5.162   2.176   6.111 -0.4027  0.6781  0.4247
 3819SOL    HW212621   5.184   2.239   6.246 -1.4535 -0.4926  1.1655
 3820SOL     OW12622   8.269   5.636   8.307 -0.4777 -0.5100 -0.1550
 3820SOL    HW112623   8.177   5.665   8.306 -0.3768 -0.1183 -1.9409
 3820SOL    HW212624   8.265   5.545   8.277 -0.2468 -0.2888 -0.8839
 3821SOL     OW12625   6.393   2.352   8.211 -0.2095 -0.2839 -0.7270
 3821SOL    HW112626   6.377   2.380   8.121 -0.5103 -0.9107 -0.8780
 3821SOL    HW212627   6.447   2.273   8.202  0.0454 -0.1593 -0.3431
 3822SOL     OW12628   4.481   5.277   1.887  0.1265  0.0327  0.2937
 3822SOL    HW112629   4.571   5.252   1.908  1.0494  1.4466 -1.6817
 3822SOL    HW212630   4.459   5.227   1.809 -1.4111 -1.4256  1.5796
 3823SOL     OW12631   6.798   3.294   6.994  0.0636 -0.0716  0.1071
 3823SOL    HW112632   6.725   3.241   7.023 -0.6392  0.3424 -0.8366
 3823SOL    HW212633   6.797   3.286   6.898 -0.9767  2.7295 -0.2054
 3824SOL     OW12634   5.575   0.467   2.140 -0.1779 -0.0710  0.0430
 3824SOL    HW112635   5.635   0.420   2.199  0.6992  2.6913  1.5834
 3824SOL    HW212636   5.632   0.502   2.071 -0.0928  1.6956  0.9410
 3825SOL     OW12637   0.484   6.066   3.750 -0.1080 -0.4863 -0.2595
 3825SOL    HW112638   0.392   6.072   3.724  0.8014  1.5035 -3.4373
 3825SOL    HW212639   0.512   6.157   3.763  1.8055 -0.9380 -0.9179
 3826SOL     OW12640   6.075   8.384   8.445  0.4401  0.2239  0.1014
 3826SOL    HW112641   6.012   8.360   8.377  0.1461  1.6672 -0.1794
 3826SOL    HW212642   6.146   8.429   8.397  0.4576  0.8335  0.6836
 3827SOL     OW12643   4.529   8.438   5.303 -0.4364 -0.2074 -0.7441
 3827SOL    HW112644   4.539   8.353   5.345  1.0884  0.3265  0.0651
 3827SOL    HW212645   4.606   8.447   5.246 -1.4582 -0.0711 -2.1522
 3828SOL     OW12646   4.312   5.092   2.724 -0.2562 -0.1021  0.3095
 3828SOL    HW112647   4.267   5.102   2.808  0.0330 -2.8780  0.8971
 3828SOL    HW212648   4.303   4.999   2.702  2.0279 -0.0346 -1.3804
 3829SOL     OW12649   3.827   2.768   3.495 -0.0760  0.6349  0.2996
 3829SOL    HW112650   3.792   2.772   3.406 -2.9821  1.9483  1.3502
 3829SOL    HW212651   3.883   2.691   3.496  0.2619  0.7224 -2.6952
 3830SOL     OW12652   3.091   4.323   3.478 -0.2067  0.3141 -0.1026
 3830SOL    HW112653   3.066   4.313   3.386 -2.3015 -0.1483  0.4746
 3830SOL    HW212654   3.175   4.370   3.475 -0.3959  0.6115 -2.2219
 3831SOL     OW12655   3.097   4.659   4.057 -0.5228  0.5553 -0.3241
 3831SOL    HW112656   3.031   4.729   4.056 -0.2530  0.8063 -0.9631
 3831SOL    HW212657   3.053   4.585   4.100 -0.7073  1.2131  0.6726
 3832SOL     OW12658   5.656   0.568   8.447  0.3233 -0.2194 -0.0449
 3832SOL    HW112659   5.743   0.564   8.487  0.4369 -2.2780 -0.3819
 3832SOL    HW212660   5.609   0.496   8.487 -2.0519  2.1670  1.8171
 3833SOL     OW12661   8.313   1.546   7.163 -0.3933 -0.0267  0.3965
 3833SOL    HW112662   8.366   1.545   7.243 -1.4100  0.6310  1.0969
 3833SOL    HW212663   8.222   1.550   7.194 -0.8303 -0.3211 -0.7882
 3834SOL     OW12664   5.859   6.265   7.428  1.2639  0.0668  0.6817
 3834SOL    HW112665   5.839   6.173   7.449  0.7733  0.1399  0.5626
 3834SOL    HW212666   5.843   6.272   7.334  0.4346  0.4827  0.8423
 3835SOL     OW12667   8.357   4.683   6.956  0.5118  0.6976  0.2168
 3835SOL    HW112668   8.354   4.596   6.995  0.3656 -0.1632 -1.6115
 3835SOL    HW212669   8.283   4.685   6.895  0.8596  1.8762 -0.2018
 3836SOL     OW12670   1.707   2.070   8.725  0.5318  0.5340  0.3828
 3836SOL    HW112671   1.789   2.100   8.685  0.8120 -0.6491  0.0299
 3836SOL    HW212672   1.697   1.980   8.694 -0.1132  0.1460  1.6684
 3837SOL     OW12673   0.735   6.134   8.088  0.2283 -1.0273  0.3068
 3837SOL    HW112674   0.735   6.143   8.184 -2.8280  2.9444  0.1942
 3837SOL    HW212675   0.791   6.206   8.058 -0.7639 -0.7209 -0.8703
 3838SOL     OW12676   7.061   3.537   4.397  0.1680 -0.2376 -0.0787
 3838SOL    HW112677   7.065   3.629   4.423 -0.2403 -0.4894  0.9380
 3838SOL    HW212678   7.144   3.501   4.427  0.2064 -0.2621 -0.2165
 3839SOL     OW12679   8.173   0.723   0.641 -0.4569 -0.4113  0.2736
 3839SOL    HW112680   8.103   0.658   0.638  0.6551 -2.0186  3.9869
 3839SOL    HW212681   8.140   0.792   0.699  0.5643 -0.6526  1.1757
 3840SOL     OW12682   7.039   4.968   1.805 -0.8168  0.0098  0.3242
 3840SOL    HW112683   7.034   5.047   1.750 -0.9789  1.3512  2.1851
 3840SOL    HW212684   7.111   4.918   1.768 -1.0881  0.7200 -1.2714
 3841SOL     OW12685   7.736   3.798   0.091  0.2872  0.1436 -0.0479
 3841SOL    HW112686   7.666   3.854   0.125  0.9324  0.3568  0.9619
 3841SOL    HW212687   7.816   3.832   0.132  0.7284 -1.3559  0.3928
 3842SOL     OW12688   8.636   6.721   2.285 -0.2568 -0.3744 -0.0762
 3842SOL    HW112689   8.551   6.754   2.316  0.4482  0.3231  1.1772
 3842SOL    HW212690   8.620   6.628   2.267 -0.7613 -0.8395  2.3776
 3843SOL     OW12691   1.301   6.267   4.815  0.0587  0.2026  0.0939
 3843SOL    HW112692   1.289   6.313   4.732  0.5357  0.5381  0.2050
 3843SOL    HW212693   1.367   6.319   4.861 -0.1848  0.0003  0.6688
 3844SOL     OW12694   1.428   6.185   7.360  0.2172  0.0079  0.3753
 3844SOL    HW112695   1.519   6.157   7.370  0.5668  1.5332  1.9062
 3844SOL    HW212696   1.383   6.151   7.438 -0.1379  0.6644  0.4651
 3845SOL     OW12697   7.236   7.848   4.212  0.0371 -0.1145  0.1937
 3845SOL    HW112698   7.274   7.812   4.293  1.6127 -1.6840 -1.1432
 3845SOL    HW212699   7.145   7.865   4.234  0.9425  1.8933  2.9994
 3846SOL     OW12700   2.014   6.433   3.464 -0.0523  0.2942 -0.3872
 3846SOL    HW112701   1.980   6.411   3.378 -0.7473  1.6236 -0.4850
 3846SOL    HW212702   1.960   6.507   3.493  0.8596  0.5578  0.7289
 3847SOL     OW12703   6.923   3.469   7.872  0.3552  0.2245  0.1525
 3847SOL    HW112704   6.847   3.506   7.916  1.4678  1.1526  1.3749
 3847SOL    HW212705   6.998   3.496   7.925  1.7068  0.7275 -1.8639
 3848SOL     OW12706   3.097   6.257   7.832  0.2843 -0.6323 -0.3826
 3848SOL    HW112707   3.049   6.204   7.768 -0.6399 -1.0112  0.6060
 3848SOL    HW212708   3.104   6.343   7.791 -1.2869 -0.5502 -0.5468
 3849SOL     OW12709   3.311   0.410   4.157  0.2093 -0.4871 -0.0723
 3849SOL    HW112710   3.303   0.333   4.214 -0.8682 -0.6822 -0.4722
 3849SOL    HW212711   3.251   0.393   4.085  1.6798 -0.3318 -1.3861
 3850SOL     OW12712   3.397   8.691   1.952  0.0575 -0.1781 -0.0330
 3850SOL    HW112713   3.320   8.723   1.905 -0.0553  0.0127  0.2797
 3850SOL    HW212714   3.469   8.702   1.889 -0.2358 -0.7431 -0.4685
 3851SOL     OW12715   4.520   7.059   4.236  0.6658 -0.1107 -0.6090
 3851SOL    HW112716   4.578   6.983   4.238  0.8132  0.0081  0.8446
 3851SOL    HW212717   4.436   7.025   4.267  1.0192  0.5102  1.1282
 3852SOL     OW12718   4.010   8.178   6.009 -0.1295  0.5633  0.4015
 3852SOL    HW112719   4.054   8.103   5.970 -0.8275  0.2974  0.1239
 3852SOL    HW212720   4.080   8.243   6.021  0.5720 -0.3057  1.1256
 3853SOL     OW12721   1.414   5.905   7.036 -0.1266 -0.1022 -0.0687
 3853SOL    HW112722   1.373   5.826   7.002  0.5275 -0.3860 -0.2107
 3853SOL    HW212723   1.342   5.968   7.044 -0.4858 -0.4005 -0.8610
 3854SOL     OW12724   2.537   0.842   1.275  0.1486 -0.1235 -0.0442
 3854SOL    HW112725   2.498   0.758   1.252  1.5048 -1.3590  1.8226
 3854SOL    HW212726   2.615   0.819   1.326  0.6201  2.2830  0.4586
 3855SOL     OW12727   2.256   6.233   7.667 -0.6887  0.2072 -0.1197
 3855SOL    HW112728   2.326   6.190   7.617  0.1382 -0.4782  1.5591
 3855SOL    HW212729   2.183   6.239   7.605  1.6790  3.7491 -3.0301
 3856SOL     OW12730   1.870   2.231   4.833  0.2813  0.0277 -0.5804
 3856SOL    HW112731   1.861   2.225   4.738  0.1229 -0.2344 -0.5474
 3856SOL    HW212732   1.792   2.280   4.860  0.4294  0.2791 -0.6068
 3857SOL     OW12733   4.408   3.416   6.738 -0.2411  0.6595 -0.0722
 3857SOL    HW112734   4.359   3.439   6.817  0.6987 -1.2969  1.1835
 3857SOL    HW212735   4.360   3.342   6.700  1.1231 -0.6491  0.6400
 3858SOL     OW12736   4.691   3.596   8.616 -0.2662  0.3301  0.1452
 3858SOL    HW112737   4.670   3.625   8.528 -2.6045 -4.1418 -1.0787
 3858SOL    HW212738   4.754   3.524   8.604 -0.3618 -0.1607  2.1223
 3859SOL     OW12739   3.958   2.560   5.145  0.6657  0.3692  0.4135
 3859SOL    HW112740   3.929   2.642   5.184 -1.2944 -0.1529  0.1628
 3859SOL    HW212741   3.906   2.493   5.188 -0.6968 -0.3373 -2.1351
 3860SOL     OW12742   2.910   8.766   5.117 -1.1510  0.5637 -0.1185
 3860SOL    HW112743   2.941   8.678   5.095  0.8723  1.3453 -0.6410
 3860SOL    HW212744   2.851   8.789   5.045  1.6003  1.1956 -2.3592
 3861SOL     OW12745   7.533   5.661   3.296  0.2848 -0.7015  0.1497
 3861SOL    HW112746   7.490   5.615   3.224  0.7387  0.4377 -0.8765
 3861SOL    HW212747   7.627   5.652   3.278  0.4006 -0.3011  0.5278
 3862SOL     OW12748   6.907   0.785   5.777  0.0125  0.4886 -0.5976
 3862SOL    HW112749   6.830   0.841   5.785  1.6256  3.0822 -1.6734
 3862SOL    HW212750   6.948   0.788   5.863 -1.4144 -1.5755  0.2266
 3863SOL     OW12751   1.162   3.106   7.990  0.1271  0.3930 -0.1198
 3863SOL    HW112752   1.193   3.144   7.908 -1.4195 -0.8087 -1.3401
 3863SOL    HW212753   1.125   3.180   8.038 -0.2877  0.8964 -1.1819
 3864SOL     OW12754   0.155   6.975   4.865 -0.1398 -1.1269 -0.3754
 3864SOL    HW112755   0.062   6.982   4.844  0.2641  0.8386 -1.7847
 3864SOL    HW212756   0.199   6.978   4.781  1.2411 -1.7262  0.2890
 3865SOL     OW12757   2.618   8.822   1.425  0.5116 -0.3629  0.0754
 3865SOL    HW112758   2.533   8.792   1.394  0.8302 -1.0728 -0.1452
 3865SOL    HW212759   2.634   8.904   1.379  0.1420 -0.4463 -0.2024
 3866SOL     OW12760   0.528   6.730   3.955  0.2696  0.2635 -0.7992
 3866SOL    HW112761   0.582   6.683   4.019  0.5441 -0.7142 -1.7143
 3866SOL    HW212762   0.549   6.822   3.969 -0.5278  0.1818  1.2670
 3867SOL     OW12763   4.945   8.569   3.724  0.5185 -0.1281  0.4560
 3867SOL    HW112764   4.860   8.605   3.698  0.6680  0.3206  0.5763
 3867SOL    HW212765   4.996   8.568   3.642 -0.3866 -2.7236 -0.1551
 3868SOL     OW12766   4.964   0.890   5.227 -0.3697 -0.6266 -0.0779
 3868SOL    HW112767   4.878   0.863   5.257 -0.3051 -2.2514 -1.2176
 3868SOL    HW212768   5.000   0.813   5.183  0.4928  0.8351 -2.1282
 3869SOL     OW12769   6.231   3.623   6.001  0.1146 -0.1352  0.3991
 3869SOL    HW112770   6.241   3.565   6.077  0.9196 -1.1720 -0.4794
 3869SOL    HW212771   6.267   3.706   6.030 -1.8936  0.2735  1.9937
 3870SOL     OW12772   0.561   4.245   5.367 -0.0678 -0.3623  0.0183
 3870SOL    HW112773   0.649   4.226   5.399  0.7809  1.7346 -0.8576
 3870SOL    HW212774   0.508   4.171   5.395  1.4659 -0.5926  2.6561
 3871SOL     OW12775   8.376   4.453   4.507  0.3815  0.1369  0.0276
 3871SOL    HW112776   8.318   4.378   4.518 -0.2880  0.5731 -0.4886
 3871SOL    HW212777   8.454   4.417   4.465 -0.1875 -0.1634 -0.7913
 3872SOL     OW12778   6.432   4.400   8.604 -0.0331  0.3211  0.2617
 3872SOL    HW112779   6.448   4.316   8.646 -0.4443  0.0926 -0.0295
 3872SOL    HW212780   6.483   4.396   8.523 -0.8557 -0.0643 -0.2500
 3873SOL     OW12781   1.863   7.591   2.972  0.1070  0.3188  0.7352
 3873SOL    HW112782   1.925   7.629   2.910 -0.5000  0.8184  0.4217
 3873SOL    HW212783   1.804   7.539   2.917  1.2793 -1.6129  1.2069
 3874SOL     OW12784   7.348   1.806   6.103  0.3466  0.1767  0.2072
 3874SOL    HW112785   7.334   1.823   6.196 -0.5703  2.1185 -0.2215
 3874SOL    HW212786   7.435   1.841   6.085  0.0161  0.9889  0.1133
 3875SOL     OW12787   8.724   8.490   6.979  0.7240 -0.2123 -0.2925
 3875SOL    HW112788   8.683   8.438   7.047  2.2835 -0.9512  0.1235
 3875SOL    HW212789   8.651   8.535   6.936 -0.4288 -0.9309  0.8419
 3876SOL     OW12790   5.641   2.741   4.862 -0.4988 -0.2147  0.5327
 3876SOL    HW112791   5.665   2.711   4.774  1.3491  0.6106  0.7042
 3876SOL    HW212792   5.650   2.663   4.917 -0.2795 -0.4059  0.2260
 3877SOL     OW12793   5.689   8.576   6.882 -0.8575 -0.4622  0.4538
 3877SOL    HW112794   5.607   8.533   6.856 -0.7273 -0.6691  0.3774
 3877SOL    HW212795   5.711   8.632   6.808 -0.0884 -1.6197 -0.2313
 3878SOL     OW12796   2.607   3.653   0.916  0.0646 -0.2908  0.4382
 3878SOL    HW112797   2.580   3.740   0.886  2.1110  1.0980  2.2628
 3878SOL    HW212798   2.691   3.638   0.873 -0.1594 -1.2873  0.3179
 3879SOL     OW12799   0.797   5.614   6.388  0.0328  0.2032 -0.0547
 3879SOL    HW112800   0.862   5.587   6.324  2.2460  1.6681  1.4334
 3879SOL    HW212801   0.786   5.537   6.444  0.2694 -0.1438 -0.4738
 3880SOL     OW12802   2.254   2.978   6.387 -0.2530 -0.5568 -0.5552
 3880SOL    HW112803   2.301   2.966   6.470 -0.6231 -0.8757 -0.3873
 3880SOL    HW212804   2.295   3.055   6.347 -1.3804  0.8157  0.8241
 3881SOL     OW12805   3.271   3.945   1.245 -0.5964  0.0045 -0.0358
 3881SOL    HW112806   3.203   3.903   1.192  0.2638  0.6827 -1.7612
 3881SOL    HW212807   3.322   3.871   1.280 -0.6436 -0.4773 -0.9292
 3882SOL     OW12808   8.130   0.174   5.055  0.2720 -0.2079  0.0439
 3882SOL    HW112809   8.050   0.222   5.074  0.1357  0.4710 -1.9618
 3882SOL    HW212810   8.126   0.098   5.112 -0.7261  0.9028  1.5281
 3883SOL     OW12811   1.768   5.134   4.264 -0.6956 -0.4424  0.0225
 3883SOL    HW112812   1.817   5.196   4.210  0.9076  0.0796  1.9658
 3883SOL    HW212813   1.707   5.188   4.313 -0.8714 -0.6863  0.0714
 3884SOL     OW12814   5.454   6.500   7.381 -0.3141  0.2941 -0.7800
 3884SOL    HW112815   5.381   6.549   7.343 -1.0361 -0.6169 -0.6032
 3884SOL    HW212816   5.452   6.415   7.337  0.6170  0.2309 -0.7307
 3885SOL     OW12817   4.551   4.801   0.005 -0.3188  0.2312  0.3472
 3885SOL    HW112818   4.629   4.747  -0.004 -0.0019  0.5593  1.0716
 3885SOL    HW212819   4.489   4.764  -0.058 -0.0324 -0.8408  0.6666
 3886SOL     OW12820   8.011   7.452   5.665  0.1798  0.4894 -0.0495
 3886SOL    HW112821   7.919   7.472   5.686  0.6960  2.7371  0.3751
 3886SOL    HW212822   8.045   7.410   5.744 -0.5962 -0.8877 -0.4181
 3887SOL     OW12823   2.043   5.154   6.083  0.0430 -0.2583 -0.1588
 3887SOL    HW112824   2.129   5.135   6.121  1.1756 -0.5004 -2.6541
 3887SOL    HW212825   2.005   5.220   6.141  1.9059 -0.1617  1.0184
 3888SOL     OW12826   5.322   4.990   8.531 -0.1714 -0.6292  0.2070
 3888SOL    HW112827   5.329   5.005   8.437 -0.1394 -2.1756 -0.0587
 3888SOL    HW212828   5.301   5.076   8.567 -0.9532 -0.1520 -1.2913
 3889SOL     OW12829   4.219   8.047   8.229 -0.0258 -0.0065 -0.0380
 3889SOL    HW112830   4.165   8.027   8.305 -0.7304  0.8749 -0.2889
 3889SOL    HW212831   4.307   8.018   8.254 -0.2358  0.2859  1.1217
 3890SOL     OW12832   0.036   4.487   5.833 -0.0563  0.4829 -0.2848
 3890SOL    HW112833   0.019   4.454   5.745 -0.4506  0.0097 -0.0320
 3890SOL    HW212834   0.019   4.581   5.827  0.9160  0.6242 -0.9655
 3891SOL     OW12835   0.831   2.583   0.630  0.3374  0.1125 -0.2823
 3891SOL    HW112836   0.775   2.628   0.566  0.0649 -0.2548 -0.3004
 3891SOL    HW212837   0.894   2.650   0.657 -0.2344  0.5830 -0.1058
 3892SOL     OW12838   1.046   2.458   5.446  0.2001 -0.0201 -0.0825
 3892SOL    HW112839   0.992   2.470   5.524  1.2449 -2.3999  1.1036
 3892SOL    HW212840   1.132   2.434   5.480  0.6527 -1.2500 -1.9700
 3893SOL     OW12841   4.016   1.107   8.320 -0.1989 -0.0360 -0.2042
 3893SOL    HW112842   3.933   1.062   8.334 -0.6646  0.7845 -0.2583
 3893SOL    HW212843   4.010   1.185   8.375  1.3887 -0.9750  1.4078
 3894SOL     OW12844   5.124   6.739   0.631  0.0041 -0.0276 -0.3372
 3894SOL    HW112845   5.121   6.823   0.586 -0.9516 -0.7654 -1.6970
 3894SOL    HW212846   5.217   6.718   0.635  0.2745  1.1755  0.2199
 3895SOL     OW12847   2.832   7.622   8.282 -0.1395  0.6970 -0.5642
 3895SOL    HW112848   2.852   7.712   8.309  0.1483  1.2937 -2.5886
 3895SOL    HW212849   2.909   7.572   8.309  0.6185  1.4728 -1.2160
 3896SOL     OW12850   5.752   3.036   2.732  0.1547  1.0144 -0.3100
 3896SOL    HW112851   5.848   3.041   2.736  0.1143  1.9104 -0.3708
 3896SOL    HW212852   5.733   3.021   2.639  0.3287 -2.0741  0.0311
 3897SOL     OW12853   4.057   3.900   5.126 -0.1527  0.1852 -0.2074
 3897SOL    HW112854   4.079   3.991   5.147 -3.3783  1.7311 -2.6965
 3897SOL    HW212855   4.018   3.866   5.206 -1.9334  2.1586 -0.1451
 3898SOL     OW12856   8.684   1.431   4.640  0.4089  0.5904  0.5078
 3898SOL    HW112857   8.709   1.474   4.558 -0.2563 -1.9218 -1.0965
 3898SOL    HW212858   8.752   1.365   4.654 -0.3133 -0.0301  1.1615
 3899SOL     OW12859   1.430   3.066   6.279  0.2394  0.1562  0.1391
 3899SOL    HW112860   1.429   2.981   6.234  0.9693  0.6427 -0.8457
 3899SOL    HW212861   1.477   3.124   6.218 -0.3875  1.2992  0.7222
 3900SOL     OW12862   0.943   7.879   4.266 -0.1707 -0.4248 -0.2833
 3900SOL    HW112863   0.884   7.937   4.217 -2.0159 -0.3143  1.9309
 3900SOL    HW212864   0.918   7.890   4.357  1.0770 -2.9159  0.4507
 3901SOL     OW12865   1.099   8.362   4.649  0.1444 -0.2572 -0.2258
 3901SOL    HW112866   1.062   8.416   4.579  0.8111 -1.3992 -1.5019
 3901SOL    HW212867   1.078   8.273   4.623  0.3670 -0.6987  1.0740
 3902SOL     OW12868   8.126   7.765   3.646  0.0651  0.9367 -0.5955
 3902SOL    HW112869   8.069   7.690   3.664 -0.2779  1.3753  0.2226
 3902SOL    HW212870   8.176   7.739   3.569  0.0850 -0.2083 -0.2205
 3903SOL     OW12871   4.079   7.590   1.118  0.3156  0.4153  0.0840
 3903SOL    HW112872   4.011   7.634   1.067  0.5598 -0.2446 -0.8293
 3903SOL    HW212873   4.133   7.545   1.053  1.2135  0.3499  0.8519
 3904SOL     OW12874   1.411   1.420   4.337 -0.1166  0.1514 -0.3957
 3904SOL    HW112875   1.330   1.378   4.365 -1.1954  2.4439  0.2138
 3904SOL    HW212876   1.398   1.438   4.244  1.2919 -2.7353 -1.2625
 3905SOL     OW12877   8.771   1.257   6.123 -0.4061  0.5124  0.4124
 3905SOL    HW112878   8.796   1.350   6.127 -0.2106  0.5525 -1.1242
 3905SOL    HW212879   8.753   1.241   6.031  1.0288 -1.3649  0.3885
 3906SOL     OW12880   5.827   5.394   2.199  0.5129  0.5415 -0.2498
 3906SOL    HW112881   5.754   5.345   2.235  0.3616  0.3616 -0.7832
 3906SOL    HW212882   5.890   5.326   2.173  0.5573  0.6592 -0.4488
 3907SOL     OW12883   8.203   3.922   3.405  0.2177  0.9446  0.2437
 3907SOL    HW112884   8.294   3.925   3.373  0.2011  2.1566  0.2883
 3907SOL    HW212885   8.211   3.888   3.494  0.7864  2.3807  0.7593
 3908SOL     OW12886   2.168   2.500   0.780 -0.0473  0.8497  0.1350
 3908SOL    HW112887   2.237   2.438   0.805 -0.2474  0.1899 -0.8827
 3908SOL    HW212888   2.165   2.563   0.852  1.5922  0.8753  0.2147
 3909SOL     OW12889   4.826   6.139   1.791 -0.0230 -0.0341 -0.0845
 3909SOL    HW112890   4.881   6.214   1.770 -0.9669  0.7473  0.1357
 3909SOL    HW212891   4.850   6.117   1.881  1.3022 -0.9566 -0.6366
 3910SOL     OW12892   8.388   0.007   0.114  0.3533 -0.4878 -0.1128
 3910SOL    HW112893   8.371  -0.073   0.063  0.2080 -2.0957  2.2803
 3910SOL    HW212894   8.301   0.046   0.126  0.3797 -0.1337 -0.9886
 3911SOL     OW12895   1.803   0.264   4.571  0.3163 -0.0589 -0.0758
 3911SOL    HW112896   1.822   0.309   4.654 -1.0773 -2.4557  1.6863
 3911SOL    HW212897   1.728   0.311   4.535 -0.4022 -0.2320  1.1389
 3912SOL     OW12898   1.674   7.522   2.784 -0.5077 -1.0459  0.2449
 3912SOL    HW112899   1.673   7.473   2.702  0.1573  1.1849 -1.1735
 3912SOL    HW212900   1.582   7.524   2.812 -0.7253 -1.8902 -0.3786
 3913SOL     OW12901   3.873   8.357   6.634  0.1078  0.1609 -0.4599
 3913SOL    HW112902   3.820   8.310   6.570 -0.4037  0.5863 -0.3577
 3913SOL    HW212903   3.942   8.295   6.659  0.0581 -0.1560 -1.0954
 3914SOL     OW12904   3.972   1.349   8.502  0.2787 -0.1673 -0.4613
 3914SOL    HW112905   3.990   1.442   8.489  1.7031 -0.0702  1.7077
 3914SOL    HW212906   4.059   1.308   8.507 -0.3176 -1.5422 -0.9190
 3915SOL     OW12907   0.732   5.054   1.848  0.0173 -0.2098 -0.1131
 3915SOL    HW112908   0.699   5.107   1.775  1.8272  1.1051 -0.0275
 3915SOL    HW212909   0.713   5.105   1.926  3.4441  1.3890 -0.1515
 3916SOL     OW12910   1.280   4.338   6.703 -0.6082 -0.2771 -0.6011
 3916SOL    HW112911   1.361   4.326   6.752 -1.6654 -1.9543  0.8702
 3916SOL    HW212912   1.306   4.332   6.611  0.8139 -2.0673 -0.1440
 3917SOL     OW12913   1.378   5.402   3.252 -0.4994  0.0690 -0.2409
 3917SOL    HW112914   1.302   5.345   3.262  0.1345 -0.8781 -0.6272
 3917SOL    HW212915   1.449   5.342   3.227  0.4755  0.8711  0.5468
 3918SOL     OW12916   8.839   6.617   6.890 -0.7912  0.8107 -0.1061
 3918SOL    HW112917   8.876   6.627   6.977 -0.6091  0.8120 -0.1831
 3918SOL    HW212918   8.753   6.577   6.905  0.4483 -2.1339 -0.0856
 3919SOL     OW12919   2.268   1.661   2.825  0.2844 -0.0183  0.0620
 3919SOL    HW112920   2.265   1.637   2.917 -1.0606 -0.4541 -0.0660
 3919SOL    HW212921   2.243   1.581   2.778 -2.2712  0.9996 -0.4847
 3920SOL     OW12922   8.435   3.955   1.904  0.3268  0.0156  0.3063
 3920SOL    HW112923   8.341   3.968   1.891  0.3602  0.5286  0.5635
 3920SOL    HW212924   8.472   3.955   1.815  0.5568  3.5445  0.2571
 3921SOL     OW12925   0.674   3.160   5.249  0.1755  0.2029 -0.0405
 3921SOL    HW112926   0.674   3.065   5.237  0.6101  0.0719  0.9124
 3921SOL    HW212927   0.604   3.176   5.313  0.2591  0.4937 -0.0181
 3922SOL     OW12928   1.684   7.569   7.939 -0.4135 -0.3550  0.3019
 3922SOL    HW112929   1.605   7.538   7.895 -0.6885  0.8208 -0.0748
 3922SOL    HW212930   1.721   7.634   7.879  1.1638 -1.2907  0.2085
 3923SOL     OW12931   1.688   8.138   6.428  0.1187 -0.5811 -0.6619
 3923SOL    HW112932   1.697   8.223   6.384 -0.2830  0.2375  0.7763
 3923SOL    HW212933   1.602   8.106   6.401  0.8228 -1.2258 -2.3049
 3924SOL     OW12934   2.799   1.390   6.559 -0.8747 -0.3305 -0.6845
 3924SOL    HW112935   2.813   1.352   6.473 -1.0188 -0.8634 -0.4790
 3924SOL    HW212936   2.887   1.397   6.597 -0.8394 -0.3886 -0.7560
 3925SOL     OW12937   5.829   4.125   3.407 -0.1162  0.0045 -0.3283
 3925SOL    HW112938   5.866   4.200   3.359  0.6650  0.2087  0.5659
 3925SOL    HW212939   5.897   4.058   3.403 -0.6620 -0.5386 -0.7952
 3926SOL     OW12940   7.905   5.166   0.271  0.6476 -0.0517 -0.1340
 3926SOL    HW112941   7.813   5.190   0.276  1.0455  1.7030 -0.5203
 3926SOL    HW212942   7.931   5.186   0.181  1.5943  0.2105  0.1809
 3927SOL     OW12943   7.778   6.231   4.546 -0.2505  0.6506 -0.3799
 3927SOL    HW112944   7.816   6.258   4.630 -1.4250 -1.2524  0.8402
 3927SOL    HW212945   7.786   6.135   4.546 -2.8791  0.3487 -1.0937
 3928SOL     OW12946   3.880   3.816   2.054 -0.6297 -0.0550 -0.3379
 3928SOL    HW112947   3.824   3.739   2.049  0.5445 -1.0176  0.8698
 3928SOL    HW212948   3.967   3.785   2.029 -0.2386  0.9931 -0.3385
 3929SOL     OW12949   8.692   3.004   0.682 -0.2234 -0.1374  0.5410
 3929SOL    HW112950   8.653   3.088   0.660 -0.3551  0.1987  1.9442
 3929SOL    HW212951   8.639   2.971   0.755  0.0732 -1.2490  0.2835
 3930SOL     OW12952   4.549   3.063   2.574  0.1299 -0.7032  0.0434
 3930SOL    HW112953   4.466   3.111   2.572  0.9099  0.7159  0.4194
 3930SOL    HW212954   4.555   3.029   2.663  0.1121 -0.5372  0.1066
 3931SOL     OW12955   6.071   8.831   5.498  0.3069 -0.1897 -0.1821
 3931SOL    HW112956   6.006   8.777   5.544  0.7049 -1.8794 -1.4766
 3931SOL    HW212957   6.152   8.780   5.504  0.6746  0.2078 -1.5599
 3932SOL     OW12958   7.123   8.448   6.395 -0.0447  0.4224  0.2343
 3932SOL    HW112959   7.031   8.456   6.419  0.5414  1.9730  2.1951
 3932SOL    HW212960   7.146   8.534   6.361  0.7272  0.0828 -0.1176
 3933SOL     OW12961   1.647   6.382   5.962  0.6760 -0.5125  0.1188
 3933SOL    HW112962   1.573   6.389   5.901  1.9478 -0.1813 -1.4756
 3933SOL    HW212963   1.618   6.427   6.041 -2.3379 -3.8117  1.1791
 3934SOL     OW12964   5.107   5.102   6.570  0.0073 -0.2278  0.3632
 3934SOL    HW112965   5.071   5.115   6.483  0.3300  1.8707  0.4836
 3934SOL    HW212966   5.030   5.095   6.627 -0.2078 -0.2234  0.0746
 3935SOL     OW12967   5.333   7.331   5.176 -0.7002  0.3941  0.3313
 3935SOL    HW112968   5.337   7.294   5.087  0.4391  3.2848 -0.9513
 3935SOL    HW212969   5.267   7.401   5.169 -0.3065  0.9185  1.6538
 3936SOL     OW12970   2.062   4.485   7.822 -0.4918  0.4813  0.0748
 3936SOL    HW112971   2.043   4.456   7.911 -1.5926 -0.3851 -0.4114
 3936SOL    HW212972   2.077   4.579   7.830 -0.7585  0.4456  1.1449
 3937SOL     OW12973   0.386   7.428   1.916 -0.2522  0.2550 -0.6317
 3937SOL    HW112974   0.411   7.481   1.841 -1.0986 -1.1513 -1.9570
 3937SOL    HW212975   0.293   7.410   1.903 -0.0309 -1.3979 -0.1346
 3938SOL     OW12976   7.279   0.583   3.653 -0.4329 -0.4199  0.7907
 3938SOL    HW112977   7.289   0.554   3.563  1.1485 -0.2203  0.8638
 3938SOL    HW212978   7.311   0.510   3.706  0.8097  0.2860  1.0761
 3939SOL     OW12979   7.163   4.651   8.428  0.4072  0.0918  0.6600
 3939SOL    HW112980   7.229   4.705   8.386  0.2819  0.2886  0.7152
 3939SOL    HW212981   7.085   4.706   8.431  0.1060 -0.3001  0.1778
 3940SOL     OW12982   8.124   7.884   7.394 -0.1229  0.1525  0.1937
 3940SOL    HW112983   8.029   7.877   7.405  0.0388 -0.6523  1.2775
 3940SOL    HW212984   8.159   7.820   7.455  1.1093  0.0549 -0.5875
 3941SOL     OW12985   5.712   3.884   7.897 -0.0875  0.4844 -0.3130
 3941SOL    HW112986   5.718   3.974   7.928  1.3187  0.6874 -1.0949
 3941SOL    HW212987   5.621   3.874   7.868 -0.7580  1.0495  1.4903
 3942SOL     OW12988   2.273   1.938   7.505  0.1139  0.2149 -0.1061
 3942SOL    HW112989   2.199   1.877   7.497  2.3483 -2.6234 -1.1809
 3942SOL    HW212990   2.299   1.932   7.597  0.5386 -0.8265 -0.2770
 3943SOL     OW12991   3.892   8.043   4.819 -0.5539 -0.0075 -0.0443
 3943SOL    HW112992   3.973   7.992   4.823  0.6768  1.1242 -4.4271
 3943SOL    HW212993   3.823   7.979   4.805  0.7064 -0.8355 -3.4833
 3944SOL     OW12994   1.978   0.912   5.587 -0.7651  0.3031 -0.2578
 3944SOL    HW112995   1.940   0.986   5.539 -0.6380  0.8691  0.4817
 3944SOL    HW212996   2.066   0.943   5.611 -0.5680 -0.2437 -0.2798
 3945SOL     OW12997   7.310   0.045   1.821  0.6372 -0.2149  0.9022
 3945SOL    HW112998   7.234   0.020   1.874 -0.1515  2.1632  0.9764
 3945SOL    HW212999   7.283   0.024   1.732 -0.6110  1.6262  0.7978
 3946SOL     OW13000   4.674   3.549   0.843  0.7396 -0.0636  0.1278
 3946SOL    HW113001   4.719   3.514   0.919 -0.4194 -1.6575  0.1366
 3946SOL    HW213002   4.644   3.471   0.795 -0.5664  0.9087 -0.7139
 3947SOL     OW13003   3.920   5.611   0.614 -0.0157 -0.1625  0.1826
 3947SOL    HW113004   4.004   5.656   0.624  0.2454 -0.2171 -1.4319
 3947SOL    HW213005   3.926   5.569   0.528 -0.4562 -2.8338  1.3595
 3948SOL     OW13006   6.704   4.721   1.122 -0.2570 -0.1770 -0.1834
 3948SOL    HW113007   6.659   4.804   1.104 -1.1023 -0.5253  0.2868
 3948SOL    HW213008   6.664   4.658   1.063  0.9927 -0.0920 -1.1753
 3949SOL     OW13009   2.150   7.127   5.256 -0.1192 -0.6320  0.1900
 3949SOL    HW113010   2.115   7.038   5.251 -0.9364 -0.2699 -1.4083
 3949SOL    HW213011   2.238   7.117   5.289  0.0699 -2.1332 -0.6648
 3950SOL     OW13012   0.343   3.789   4.966  0.5672 -0.2321  0.9497
 3950SOL    HW113013   0.274   3.834   5.015  0.7882  0.5520  0.5660
 3950SOL    HW213014   0.311   3.699   4.956  0.2635 -0.2555  2.0261
 3951SOL     OW13015   0.248   7.983   2.892 -0.7163  0.2426 -0.2938
 3951SOL    HW113016   0.307   7.914   2.862 -1.8645 -0.0938 -1.8452
 3951SOL    HW213017   0.296   8.064   2.873 -0.3154 -0.0558 -0.5762
 3952SOL     OW13018   8.137   7.389   4.170 -0.0075  0.2374 -0.0935
 3952SOL    HW113019   8.061   7.355   4.123 -1.2039 -0.2767  2.0449
 3952SOL    HW213020   8.148   7.478   4.136 -2.5476  0.8841  0.5353
 3953SOL     OW13021   0.586   4.537   5.896  0.2233 -0.5541  0.0358
 3953SOL    HW113022   0.526   4.568   5.829  0.2663 -1.4112 -0.4075
 3953SOL    HW213023   0.531   4.489   5.958  0.3533 -0.7792 -0.0204
 3954SOL     OW13024   6.491   6.869   0.967  0.1744  0.6260 -0.5465
 3954SOL    HW113025   6.436   6.941   0.935 -0.4887  0.9851  1.2225
 3954SOL    HW213026   6.433   6.793   0.970  0.0457  0.7410  0.2882
 3955SOL     OW13027   3.005   1.323   5.283 -0.5946  0.0131 -0.2199
 3955SOL    HW113028   3.007   1.339   5.378  1.5436 -1.4363  0.0814
 3955SOL    HW213029   2.921   1.280   5.268 -2.0117  2.3535  0.5688
 3956SOL     OW13030   1.709   8.530   3.176  0.5508  0.0992 -0.7168
 3956SOL    HW113031   1.697   8.471   3.102 -1.8248  1.0759 -1.2004
 3956SOL    HW213032   1.785   8.495   3.223  1.0463 -1.5501 -2.6242
 3957SOL     OW13033   0.345   7.306   3.519  0.7136 -0.2645 -0.6486
 3957SOL    HW113034   0.316   7.215   3.509 -1.3758  0.3079 -0.4135
 3957SOL    HW213035   0.319   7.330   3.608  0.8749  0.6844 -0.8479
 3958SOL     OW13036   1.636   1.700   4.694 -0.0534 -0.2185 -0.1977
 3958SOL    HW113037   1.621   1.610   4.664  1.4204 -0.4183 -0.4057
 3958SOL    HW213038   1.675   1.691   4.780 -0.8992  0.2725  0.2529
 3959SOL     OW13039   8.105   5.745   4.298 -0.1623 -0.0031  0.3378
 3959SOL    HW113040   8.058   5.737   4.215 -0.1998  1.4133  0.2069
 3959SOL    HW213041   8.062   5.818   4.343 -0.0705 -0.6691  1.5642
 3960SOL     OW13042   6.295   3.720   5.689  0.0532  0.1727  0.0398
 3960SOL    HW113043   6.338   3.707   5.773  1.0736  0.6550 -0.3867
 3960SOL    HW213044   6.363   3.702   5.624 -0.5921  0.2530 -0.6784
 3961SOL     OW13045   6.541   0.453   7.989  0.2750  0.0805 -0.2077
 3961SOL    HW113046   6.610   0.390   8.010 -1.5096 -2.4856 -1.5672
 3961SOL    HW213047   6.540   0.456   7.894  0.1565  2.0484 -0.1741
 3962SOL     OW13048   8.574   5.077   3.190  0.0185  0.5322 -0.0348
 3962SOL    HW113049   8.551   5.095   3.099 -2.2268 -0.4422  0.2690
 3962SOL    HW213050   8.662   5.041   3.186 -0.6671 -1.1302 -2.0677
 3963SOL     OW13051   8.635   4.309   6.286 -0.4683  0.0763 -0.1833
 3963SOL    HW113052   8.655   4.243   6.219 -2.0175  2.1860 -2.8973
 3963SOL    HW213053   8.721   4.336   6.318  0.5231  0.6163 -3.0371
 3964SOL     OW13054   8.092   3.498   3.498  0.0813  0.4724 -0.1538
 3964SOL    HW113055   8.116   3.530   3.412  0.2351  1.5543  0.2737
 3964SOL    HW213056   8.171   3.508   3.550  0.0444 -0.3410  0.0746
 3965SOL     OW13057   2.767   3.423   1.949 -0.1517 -0.3010 -0.1466
 3965SOL    HW113058   2.688   3.467   1.979  0.2759 -0.3556  1.1353
 3965SOL    HW213059   2.739   3.333   1.933 -0.6506  0.0098 -1.1200
 3966SOL     OW13060   1.196   3.990   3.148 -0.4485 -0.6920  0.0273
 3966SOL    HW113061   1.290   4.001   3.131 -0.4748 -1.3958 -0.6557
 3966SOL    HW213062   1.169   4.073   3.186  0.5574 -0.6481  0.6997
 3967SOL     OW13063   7.264   8.063   0.087 -0.2101  0.0161 -0.0430
 3967SOL    HW113064   7.260   8.129   0.018 -1.4872 -0.5006 -0.5004
 3967SOL    HW213065   7.228   8.107   0.165  0.1869  0.2475  0.0173
 3968SOL     OW13066   5.783   3.165   1.959  0.0785 -0.8231 -0.1810
 3968SOL    HW113067   5.835   3.084   1.956  0.2250 -0.7013 -1.0734
 3968SOL    HW213068   5.765   3.186   1.867 -1.3887 -0.7552  0.0931
 3969SOL     OW13069   1.133   7.183   7.975  0.5124 -0.0401 -0.8606
 3969SOL    HW113070   1.123   7.234   8.055  1.0251  0.3000 -1.0045
 3969SOL    HW213071   1.145   7.093   8.005 -0.8351 -0.1539 -0.6216
 3970SOL     OW13072   1.210   3.788   7.472  0.3922 -0.2126  0.0035
 3970SOL    HW113073   1.201   3.755   7.382 -0.7863  0.3532 -0.1081
 3970SOL    HW213074   1.226   3.882   7.461 -0.2954 -0.0404  0.3780
 3971SOL     OW13075   0.035   6.440   8.375  0.9147  0.1020 -0.3818
 3971SOL    HW113076   0.115   6.462   8.328  1.1837  1.0660  0.4857
 3971SOL    HW213077  -0.024   6.513   8.358  0.5612 -0.1584 -0.2758
 3972SOL     OW13078   8.362   2.425   3.042 -0.3328  0.5765  0.0932
 3972SOL    HW113079   8.412   2.356   3.085  0.0354  2.4290  2.8684
 3972SOL    HW213080   8.277   2.424   3.086 -0.6464  1.2966 -0.4785
 3973SOL     OW13081   4.483   3.137   6.247  0.4847 -0.1638  0.1266
 3973SOL    HW113082   4.468   3.215   6.300 -1.1286 -0.2219 -0.1963
 3973SOL    HW213083   4.396   3.100   6.233  1.2243 -2.0542  0.2917
 3974SOL     OW13084   6.560   7.732   7.040 -0.1793  0.4425  0.1408
 3974SOL    HW113085   6.572   7.796   6.969  2.1682 -1.2606 -1.1168
 3974SOL    HW213086   6.562   7.647   6.996  0.6968 -0.6386  2.1737
 3975SOL     OW13087   7.312   2.679   3.827 -0.0060 -0.3290 -0.4715
 3975SOL    HW113088   7.303   2.622   3.750 -0.0568  0.2734 -0.9216
 3975SOL    HW213089   7.278   2.627   3.899 -1.6475 -0.2633 -1.1519
 3976SOL     OW13090   1.720   4.633   7.630  0.2205 -0.8157 -0.1836
 3976SOL    HW113091   1.634   4.599   7.655 -0.1398  0.1495 -0.0779
 3976SOL    HW213092   1.770   4.555   7.606 -0.6494 -1.3994 -0.1534
 3977SOL     OW13093   8.491   7.573   7.842  0.1644 -0.5876 -0.0365
 3977SOL    HW113094   8.488   7.666   7.818  0.5566 -0.5693 -0.0200
 3977SOL    HW213095   8.542   7.571   7.923 -1.7725 -0.5623  1.2444
 3978SOL     OW13096   8.812   8.200   6.477  0.6921 -0.5521  0.0947
 3978SOL    HW113097   8.749   8.244   6.533  2.0804 -0.3817  1.6165
 3978SOL    HW213098   8.800   8.239   6.391 -0.6038  0.1464  0.5725
 3979SOL     OW13099   7.432   7.942   3.798 -0.1280  0.2469 -0.2653
 3979SOL    HW113100   7.381   8.023   3.806 -1.1088 -0.4768  1.4612
 3979SOL    HW213101   7.395   7.884   3.864  0.6213 -1.6007 -1.3902
 3980SOL     OW13102   6.800   0.645   3.665 -0.3238 -0.0407 -0.0131
 3980SOL    HW113103   6.868   0.650   3.597  0.7761  2.1501  1.1469
 3980SOL    HW213104   6.719   0.663   3.619  0.2300  0.0767 -0.9727
 3981SOL     OW13105   1.500   3.181   7.171  0.2595  0.1436 -0.2303
 3981SOL    HW113106   1.408   3.163   7.151 -0.0440  1.5232 -0.1281
 3981SOL    HW213107   1.548   3.151   7.094 -0.4158  0.7881 -0.9084
 3982SOL     OW13108   7.087   0.686   4.461  0.0490  0.2544  0.0753
 3982SOL    HW113109   7.120   0.682   4.551  0.9013 -0.5680 -0.2496
 3982SOL    HW213110   7.042   0.602   4.449 -0.2859  0.4691 -0.1908
 3983SOL     OW13111   5.384   6.829   2.701 -0.1793 -0.2067  0.6111
 3983SOL    HW113112   5.315   6.815   2.636  1.6751  2.3908 -2.1483
 3983SOL    HW213113   5.459   6.779   2.668  0.6873  0.8632  0.9190
 3984SOL     OW13114   0.572   5.053   1.310  0.2046  0.3395  0.7916
 3984SOL    HW113115   0.570   5.024   1.401  0.3630 -1.0835  0.3619
 3984SOL    HW213116   0.486   5.091   1.295 -1.6951 -3.7265  0.2210
 3985SOL     OW13117   8.817   6.238   3.141 -0.3914  0.2344 -0.2049
 3985SOL    HW113118   8.882   6.303   3.168 -0.7370  0.9144 -0.9897
 3985SOL    HW213119   8.821   6.238   3.045 -0.5153 -0.7885 -0.2266
 3986SOL     OW13120   6.212   4.662   4.184 -0.3041  0.3070  0.0374
 3986SOL    HW113121   6.205   4.714   4.265 -0.2496  0.4987 -0.0812
 3986SOL    HW213122   6.188   4.573   4.211 -1.7110  0.6331 -0.0187
 3987SOL     OW13123   7.254   6.553   0.346  0.7596  0.5107  0.4853
 3987SOL    HW113124   7.288   6.509   0.269 -2.7117  0.0075 -0.9604
 3987SOL    HW213125   7.293   6.505   0.420  2.5081 -0.3910 -0.9355
 3988SOL     OW13126   6.208   6.066   5.149 -0.1926  0.5351  0.2047
 3988SOL    HW113127   6.283   6.074   5.208  0.8570 -1.9960 -0.6667
 3988SOL    HW213128   6.158   5.992   5.183 -1.2798  1.0009 -0.3178
 3989SOL     OW13129   8.076   1.865   8.408 -0.2769  0.1603  0.3480
 3989SOL    HW113130   8.129   1.811   8.467  2.4365  1.2767 -0.9022
 3989SOL    HW213131   8.046   1.938   8.462  0.2400 -0.0072  0.8734
 3990SOL     OW13132   5.509   6.738   3.478  0.4261 -0.0297  0.1702
 3990SOL    HW113133   5.438   6.676   3.497 -1.5841  2.8159  3.0111
 3990SOL    HW213134   5.477   6.789   3.404  0.3990  0.0027  0.2044
 3991SOL     OW13135   6.832   7.948   0.206 -0.0206  0.1300  0.0343
 3991SOL    HW113136   6.779   7.874   0.234 -0.0074 -0.2626 -0.9539
 3991SOL    HW213137   6.921   7.926   0.234 -0.1682  0.2232  0.5935
 3992SOL     OW13138   4.058   3.665   6.434 -0.2182  0.5213  0.2868
 3992SOL    HW113139   4.024   3.681   6.346  0.4599  1.7015  0.2215
 3992SOL    HW213140   4.150   3.690   6.429  0.1972 -0.7954  0.9660
 3993SOL     OW13141   6.877   4.388   5.233  0.7425  0.7236 -0.6469
 3993SOL    HW113142   6.939   4.379   5.305  0.1378 -2.2888 -0.4041
 3993SOL    HW213143   6.930   4.426   5.162  1.7263  2.2744  0.8266
 3994SOL     OW13144   4.486   0.549   6.077  0.0731  0.4419  0.1710
 3994SOL    HW113145   4.431   0.473   6.096  0.2861 -0.6635 -3.0409
 3994SOL    HW213146   4.445   0.590   6.001  1.4812  1.9875  0.1846
 3995SOL     OW13147   0.896   0.981   3.794  0.3157 -0.4244 -0.1108
 3995SOL    HW113148   0.919   0.889   3.778 -2.5575 -1.3531  0.5839
 3995SOL    HW213149   0.943   1.003   3.874 -0.4809 -1.9797  0.8497
 3996SOL     OW13150   1.632   8.381   2.585 -0.2012 -0.4363  0.4416
 3996SOL    HW113151   1.625   8.409   2.493  1.2046 -0.9804  0.1427
 3996SOL    HW213152   1.615   8.287   2.583  1.5719 -0.7872  0.4472
 3997SOL     OW13153   4.022   5.207   1.557  0.2267 -0.3983  0.0545
 3997SOL    HW113154   3.997   5.171   1.472  0.1817  2.2809 -1.1637
 3997SOL    HW213155   4.050   5.131   1.608 -0.7981 -2.2302 -1.9513
 3998SOL     OW13156   4.784   3.286   5.319  0.2076  0.7318 -0.0416
 3998SOL    HW113157   4.829   3.202   5.306 -1.0997 -0.4862  2.5933
 3998SOL    HW213158   4.719   3.290   5.249  0.5950 -0.2134 -0.4747
 3999SOL     OW13159   2.272   5.798   0.763 -0.4389 -0.2283  0.1699
 3999SOL    HW113160   2.228   5.811   0.847  1.7314 -0.8169  1.4592
 3999SOL    HW213161   2.311   5.883   0.743  0.8453 -0.6302  0.8731
 4000SOL     OW13162   8.847   2.720   2.046 -0.0163  0.2975 -0.0745
 4000SOL    HW113163   8.819   2.702   1.956  0.5065  0.4841 -0.2801
 4000SOL    HW213164   8.937   2.686   2.051 -1.0124 -2.3885  1.2530
 4001SOL     OW13165   8.115   8.619   7.314 -0.3300 -0.4792  0.2235
 4001SOL    HW113166   8.042   8.681   7.309  1.3084  1.5076 -0.7715
 4001SOL    HW213167   8.104   8.560   7.240  0.2224  1.2324 -1.2849
 4002SOL     OW13168   6.790   1.964   8.212 -0.3352  0.2691 -0.1220
 4002SOL    HW113169   6.879   1.986   8.184 -0.0128  0.5912  1.0914
 4002SOL    HW213170   6.762   2.038   8.264 -0.1590 -1.0598  1.9845
 4003SOL     OW13171   5.459   8.698   2.791  0.3673 -0.0801 -0.1260
 4003SOL    HW113172   5.480   8.687   2.698 -2.1564  3.3901 -1.3201
 4003SOL    HW213173   5.520   8.766   2.822 -0.3919  0.5426  0.0310
 4004SOL     OW13174   7.273   8.322   3.271  0.7071  0.3424 -0.2773
 4004SOL    HW113175   7.277   8.247   3.330 -1.6828 -0.2150 -0.7260
 4004SOL    HW213176   7.307   8.289   3.188  0.8616  0.1295 -0.1301
 4005SOL     OW13177   6.801   5.193   6.769 -0.6046 -0.0980 -0.2384
 4005SOL    HW113178   6.727   5.135   6.749  0.2798 -0.9653 -1.0542
 4005SOL    HW213179   6.856   5.190   6.691 -0.6821  2.1172 -0.4422
 4006SOL     OW13180   8.177   8.255   3.849 -0.0556 -0.2795 -0.2664
 4006SOL    HW113181   8.224   8.323   3.898  1.7725 -2.0351  0.5533
 4006SOL    HW213182   8.148   8.193   3.916 -0.4668 -1.0181 -1.1191
 4007SOL     OW13183   1.459   6.070   5.438 -0.9822  0.1888  0.0008
 4007SOL    HW113184   1.542   6.073   5.389 -1.7923  1.0536 -1.3747
 4007SOL    HW213185   1.410   5.999   5.397 -2.1620  1.7169 -1.3017
 4008SOL     OW13186   7.290   2.320   8.741 -0.0737  0.4640 -0.6968
 4008SOL    HW113187   7.325   2.400   8.781 -0.9628  0.8222 -0.6166
 4008SOL    HW213188   7.283   2.258   8.813  2.3481 -0.3357 -1.0661
 4009SOL     OW13189   0.437   7.925   5.209 -0.5987  0.6388  0.5222
 4009SOL    HW113190   0.389   7.952   5.287 -0.4176  2.1651  0.1352
 4009SOL    HW213191   0.508   7.988   5.201  1.1819 -1.2236  0.7457
 4010SOL     OW13192   7.090   7.730   6.226 -0.0596 -0.4100  0.7411
 4010SOL    HW113193   7.156   7.678   6.180 -0.2028 -0.1278  0.2192
 4010SOL    HW213194   7.140   7.779   6.291  0.3480  0.3430 -0.1218
 4011SOL     OW13195   6.290   0.903   7.464 -0.7996 -0.3111  0.4039
 4011SOL    HW113196   6.357   0.864   7.520  0.9145  0.6828 -0.8407
 4011SOL    HW213197   6.232   0.830   7.441  0.8205 -1.5977  0.2105
 4012SOL     OW13198   0.016   3.612   8.265  0.7236 -0.7732  0.1169
 4012SOL    HW113199  -0.052   3.568   8.317 -0.3149  0.4541 -0.1578
 4012SOL    HW213200   0.058   3.541   8.216 -0.6465 -1.5277 -0.0220
 4013SOL     OW13201   8.740   6.490   2.117  0.6299  0.7570  0.4654
 4013SOL    HW113202   8.700   6.565   2.073  1.0847  1.4569  1.2026
 4013SOL    HW213203   8.680   6.468   2.188 -0.1788 -0.4670 -0.5626
 4014SOL     OW13204   8.211   2.736   8.657  0.1745 -0.0952  0.4899
 4014SOL    HW113205   8.207   2.831   8.674  1.4961 -0.0753  0.8851
 4014SOL    HW213206   8.187   2.697   8.741  1.0100 -0.0713  0.7548
 4015SOL     OW13207   2.754   8.696   2.039  0.3378  0.1846  0.4100
 4015SOL    HW113208   2.667   8.735   2.026  0.4836  0.7556  1.0648
 4015SOL    HW213209   2.793   8.749   2.108  0.4437 -1.3090  1.5274
 4016SOL     OW13210   5.540   5.807   6.562  0.1764  0.3429 -0.4160
 4016SOL    HW113211   5.490   5.785   6.641  1.3045 -0.6310  0.0638
 4016SOL    HW213212   5.478   5.793   6.491  0.2770 -2.9918 -0.0214
 4017SOL     OW13213   0.212   2.940   7.302  0.5676 -0.6310  0.4283
 4017SOL    HW113214   0.229   2.851   7.334 -0.5045 -0.6233  1.0628
 4017SOL    HW213215   0.299   2.978   7.289  1.0373 -1.3172  1.4238
 4018SOL     OW13216   1.321   3.219   5.307 -0.1364 -0.3183  0.0403
 4018SOL    HW113217   1.349   3.295   5.358 -1.4135 -0.8383  1.5644
 4018SOL    HW213218   1.273   3.164   5.368  0.9368 -2.5138 -0.9588
 4019SOL     OW13219   1.027   8.117   1.936  0.1083 -0.4164  0.6319
 4019SOL    HW113220   1.107   8.109   1.989 -0.3973  1.9668  1.9004
 4019SOL    HW213221   0.960   8.072   1.987 -0.2559  1.4026  1.8787
 4020SOL     OW13222   4.253   7.845   5.955 -0.4439 -0.2084 -0.4450
 4020SOL    HW113223   4.247   7.911   5.886 -4.0110 -1.5633 -1.6354
 4020SOL    HW213224   4.192   7.875   6.023  0.6618 -0.4868  0.7148
 4021SOL     OW13225   4.960   7.432   4.038 -0.1694  0.1063 -0.4466
 4021SOL    HW113226   4.919   7.440   3.952 -0.2040  0.3104 -0.4132
 4021SOL    HW213227   4.918   7.357   4.079  0.2824 -0.3689 -0.8453
 4022SOL     OW13228   0.096   3.487   3.072  0.4794  0.8347 -0.0993
 4022SOL    HW113229   0.142   3.427   3.013 -0.6694 -1.2730  1.0450
 4022SOL    HW213230   0.073   3.562   3.016 -0.9427 -1.2537 -2.5033
 4023SOL     OW13231   0.205   5.998   6.520 -0.9047  0.3812  0.0135
 4023SOL    HW113232   0.281   6.002   6.462 -0.4657 -0.6318  0.5009
 4023SOL    HW213233   0.238   6.025   6.605 -1.3846  1.1620 -0.0393
 4024SOL     OW13234   2.600   3.884   5.381  0.0797 -0.6866 -0.4061
 4024SOL    HW113235   2.513   3.915   5.355  0.8313  0.8005 -1.2613
 4024SOL    HW213236   2.643   3.859   5.300 -0.1073 -3.0802  0.1678
 4025SOL     OW13237   2.087   4.935   6.311 -0.0310  0.3888 -0.5351
 4025SOL    HW113238   2.180   4.946   6.332 -0.5143 -0.7679  2.9527
 4025SOL    HW213239   2.055   4.873   6.376 -3.9464  3.2085  0.6358
 4026SOL     OW13240   0.798   6.993   5.969 -0.3481  0.3564 -0.2590
 4026SOL    HW113241   0.786   7.070   6.024 -0.6497 -0.1822  0.4548
 4026SOL    HW213242   0.868   6.944   6.012 -0.2952  0.1335 -0.5970
 4027SOL     OW13243   1.816   7.871   7.172 -0.0205  0.3840  0.4327
 4027SOL    HW113244   1.777   7.802   7.119 -1.8135 -0.0760  2.2139
 4027SOL    HW213245   1.903   7.839   7.193 -0.2653 -0.6342 -0.0465
 4028SOL     OW13246   6.510   6.391   7.962 -0.6823 -0.3058  0.3936
 4028SOL    HW113247   6.417   6.372   7.978 -1.9217  4.2506 -0.0580
 4028SOL    HW213248   6.511   6.440   7.880  2.1697 -0.3357  0.3099
 4029SOL     OW13249   2.584   0.338   6.318 -0.0888  0.1558 -0.5082
 4029SOL    HW113250   2.666   0.296   6.294 -0.1880 -0.8332  0.7761
 4029SOL    HW213251   2.540   0.356   6.235  0.6233 -0.9468 -1.1371
 4030SOL     OW13252   3.795   0.696   2.688  0.5145  0.1157 -0.8085
 4030SOL    HW113253   3.797   0.691   2.592 -0.4132 -0.8932 -0.8058
 4030SOL    HW213254   3.864   0.635   2.716  1.4351  1.1316 -0.8253
 4031SOL     OW13255   1.574   6.506   4.838 -0.3493  0.0842  0.2406
 4031SOL    HW113256   1.660   6.538   4.865 -0.2026 -0.7694  0.8407
 4031SOL    HW213257   1.571   6.416   4.870 -1.3173 -0.0232 -0.1136
 4032SOL     OW13258   8.767   5.729   6.633  0.4425 -0.2247  0.7907
 4032SOL    HW113259   8.857   5.701   6.622  0.4571 -0.6546  1.8418
 4032SOL    HW213260   8.718   5.648   6.649 -0.0581  0.0435  0.6433
 4033SOL     OW13261   4.091   8.541   1.769 -0.5991 -0.2466  0.6453
 4033SOL    HW113262   4.135   8.535   1.684 -0.7534 -1.1090  0.6227
 4033SOL    HW213263   4.150   8.594   1.823 -1.6130  2.4966 -0.7109
 4034SOL     OW13264   6.476   4.445   1.493 -0.1546 -0.4483 -0.0904
 4034SOL    HW113265   6.510   4.496   1.565 -0.1128 -0.8069  0.1461
 4034SOL    HW213266   6.552   4.427   1.437 -0.0633 -0.7430  0.1274
 4035SOL     OW13267   1.588   5.308   5.576  0.3814 -0.1553 -0.4601
 4035SOL    HW113268   1.649   5.360   5.628 -0.2607  1.8535 -1.6194
 4035SOL    HW213269   1.508   5.305   5.630 -0.0564  1.3508 -0.9643
 4036SOL     OW13270   2.437   5.951   8.860 -0.1147  0.0541  0.0507
 4036SOL    HW113271   2.456   5.917   8.947  1.6078 -0.2904 -0.4212
 4036SOL    HW213272   2.349   5.990   8.867  0.5338  1.2652  2.2827
 4037SOL     OW13273   8.822   4.628   8.460 -0.5077  0.7393  0.8094
 4037SOL    HW113274   8.733   4.660   8.477 -1.3682 -1.1910  0.2448
 4037SOL    HW213275   8.838   4.648   8.368  0.0185  1.8417  1.1170
 4038SOL     OW13276   7.899   3.169   4.683 -0.3368 -0.0854 -0.3826
 4038SOL    HW113277   7.839   3.108   4.639 -1.4882  0.6470  0.1340
 4038SOL    HW213278   7.930   3.227   4.613  1.3377 -1.6588 -1.0212
 4039SOL     OW13279   0.334   7.716   0.751 -0.1152 -0.5774  0.2126
 4039SOL    HW113280   0.256   7.720   0.807 -0.0262 -1.2330  0.3903
 4039SOL    HW213281   0.311   7.770   0.675  0.0652  1.0060  1.2262
 4040SOL     OW13282   8.057   1.212   7.868 -0.2040  0.0510 -0.1641
 4040SOL    HW113283   8.016   1.201   7.953 -0.9717 -1.9415 -0.7402
 4040SOL    HW213284   8.144   1.248   7.887 -0.3625 -0.3712  1.4552
 4041SOL     OW13285   2.335   5.384   3.458  0.2985  0.6439  0.2879
 4041SOL    HW113286   2.408   5.362   3.400  0.7245 -1.7594  1.6256
 4041SOL    HW213287   2.377   5.414   3.539 -0.2070  0.2028  0.7179
 4042SOL     OW13288   1.713   2.952   0.343 -0.0274  0.0061  0.2203
 4042SOL    HW113289   1.770   3.028   0.325  1.4389 -1.1982 -0.4646
 4042SOL    HW213290   1.740   2.887   0.278 -1.3003 -1.0861  0.7530
 4043SOL     OW13291   6.028   8.283   0.383  0.2070 -0.5644 -0.5726
 4043SOL    HW113292   5.975   8.225   0.329 -0.5858 -0.8290  0.4521
 4043SOL    HW213293   5.991   8.274   0.471  1.2655  0.0764 -0.0396
 4044SOL     OW13294   4.124   0.610   8.022 -0.4729 -0.2327  0.2623
 4044SOL    HW113295   4.032   0.624   7.997 -0.2152  0.3309 -0.4184
 4044SOL    HW213296   4.157   0.547   7.958 -0.9664 -2.1795  1.8523
 4045SOL     OW13297   6.861   8.494   6.072  0.1041  0.1868  0.1904
 4045SOL    HW113298   6.899   8.491   5.985  0.8462 -1.6552  0.5423
 4045SOL    HW213299   6.778   8.539   6.060  1.2067  2.0494 -1.0335
 4046SOL     OW13300   7.685   6.758   6.678 -0.1541 -0.1341 -0.0283
 4046SOL    HW113301   7.637   6.833   6.712  0.2883  0.0334  0.2269
 4046SOL    HW213302   7.770   6.793   6.653 -0.2393 -0.3863 -0.6927
 4047SOL     OW13303   7.323   2.416   5.053  0.6476 -0.1169 -0.1254
 4047SOL    HW113304   7.283   2.330   5.068  1.1977 -0.3879 -0.1552
 4047SOL    HW213305   7.376   2.403   4.975 -0.9439  0.8414 -1.4245
 4048SOL     OW13306   1.850   8.346   6.908  0.2968 -0.2514  0.1368
 4048SOL    HW113307   1.846   8.398   6.989 -0.1251  0.1659 -0.1525
 4048SOL    HW213308   1.789   8.273   6.924 -1.8591  1.2509 -0.7996
 4049SOL     OW13309   2.887   0.622   4.905 -0.0651  0.3344 -0.2208
 4049SOL    HW113310   2.968   0.572   4.903 -0.7769 -0.9293  0.8276
 4049SOL    HW213311   2.845   0.602   4.821 -0.7977 -1.7290  0.5545
 4050SOL     OW13312   2.478   1.658   7.010 -0.4558  0.4540 -0.4967
 4050SOL    HW113313   2.506   1.608   7.087  1.9042  1.7231 -0.4411
 4050SOL    HW213314   2.446   1.592   6.949 -1.0325 -0.7104  0.9890
 4051SOL     OW13315   4.517   2.306   1.911 -0.6719  0.6211  0.2229
 4051SOL    HW113316   4.603   2.287   1.948 -1.1437  1.0868  1.6093
 4051SOL    HW213317   4.513   2.402   1.907 -0.6784  0.5905 -0.9726
 4052SOL     OW13318   5.252   4.244   6.406 -0.2368  0.4260  0.1835
 4052SOL    HW113319   5.289   4.271   6.322 -0.4922 -0.1574 -0.1216
 4052SOL    HW213320   5.269   4.318   6.465 -2.6341  2.1583 -1.1225
 4053SOL     OW13321   6.766   4.389   1.894 -0.5605 -0.0991  0.0947
 4053SOL    HW113322   6.672   4.397   1.907 -1.2651 -2.4452 -2.4943
 4053SOL    HW213323   6.781   4.419   1.804  1.1986  0.2790  0.4612
 4054SOL     OW13324   2.832   5.733   5.443  0.3919  0.4652  0.1321
 4054SOL    HW113325   2.828   5.647   5.401  0.3897  0.5769 -0.0996
 4054SOL    HW213326   2.843   5.714   5.536  1.0009  0.2198  0.0134
 4055SOL     OW13327   3.125   4.911   6.388  0.6244 -0.1152  0.1220
 4055SOL    HW113328   3.114   4.942   6.298 -0.7145  0.2472  0.3801
 4055SOL    HW213329   3.114   4.816   6.383  0.9783 -0.1414 -0.1512
 4056SOL     OW13330   4.431   3.443   5.232 -0.0830 -0.5142  0.3180
 4056SOL    HW113331   4.366   3.472   5.168 -0.0598 -2.1817 -0.5005
 4056SOL    HW213332   4.398   3.476   5.316 -0.3927  1.2431 -0.4384
 4057SOL     OW13333   2.605   5.496   5.490  0.5762 -0.4707  0.7862
 4057SOL    HW113334   2.574   5.414   5.451 -0.6659 -0.1106  0.9499
 4057SOL    HW213335   2.577   5.564   5.428  2.2712 -0.2144  0.2708
 4058SOL     OW13336   1.722   6.216   6.599  0.0165 -0.4395 -0.0260
 4058SOL    HW113337   1.659   6.211   6.527  0.7969 -1.4191 -0.6701
 4058SOL    HW213338   1.723   6.128   6.636  2.4562 -1.0678 -1.3405
 4059SOL     OW13339   1.200   8.544   8.184  0.1722  0.1508 -0.6130
 4059SOL    HW113340   1.223   8.606   8.253 -1.2903 -1.5773  1.5417
 4059SOL    HW213341   1.104   8.548   8.179  0.2263  0.1326 -2.5121
 4060SOL     OW13342   6.116   2.332   2.636 -0.1804  0.2859  0.5233
 4060SOL    HW113343   6.190   2.362   2.582 -0.0330  0.6819  0.9312
 4060SOL    HW213344   6.132   2.239   2.649 -1.1825 -0.2202 -1.6074
 4061SOL     OW13345   1.357   1.021   6.734 -0.1603  0.0220  0.0148
 4061SOL    HW113346   1.399   1.036   6.819 -1.2498 -0.5033  0.6682
 4061SOL    HW213347   1.430   1.020   6.672  0.5678  1.4829  0.7802
 4062SOL     OW13348   7.629   5.061   2.111  0.2873  0.3234  0.3293
 4062SOL    HW113349   7.675   5.005   2.174 -0.6468 -0.3919  0.3936
 4062SOL    HW213350   7.693   5.129   2.089  0.4353  0.9530  2.5102
 4063SOL     OW13351   8.027   3.355   5.293  0.7491  0.2132  0.0250
 4063SOL    HW113352   7.946   3.351   5.244  0.6600 -0.6684  0.2219
 4063SOL    HW213353   7.999   3.359   5.385  0.8933 -1.8226  0.2088
 4064SOL     OW13354   0.378   0.713   6.894  0.5340 -0.4867 -0.1940
 4064SOL    HW113355   0.288   0.704   6.863  0.3505  3.6094 -1.3638
 4064SOL    HW213356   0.371   0.702   6.989 -1.0969 -0.6302 -0.2905
 4065SOL     OW13357   5.497   2.531   1.704  0.1982 -0.0615 -0.3506
 4065SOL    HW113358   5.480   2.599   1.638  0.6214  1.5145  1.1058
 4065SOL    HW213359   5.424   2.538   1.765 -0.6679 -2.1221 -1.0676
 4066SOL     OW13360   3.958   8.313   1.198 -0.2076 -0.2304 -0.0765
 4066SOL    HW113361   4.011   8.250   1.246 -0.1816  0.2943  0.5953
 4066SOL    HW213362   3.894   8.345   1.262 -0.9650 -0.4267 -0.7173
 4067SOL     OW13363   8.407   2.473   0.685  0.0761 -0.2771  0.0080
 4067SOL    HW113364   8.337   2.420   0.721  0.4523 -0.5318  0.3649
 4067SOL    HW213365   8.483   2.455   0.740  0.1669  0.7613  0.2460
 4068SOL     OW13366   0.382   6.506   5.960  0.2304  0.4553  0.5087
 4068SOL    HW113367   0.301   6.555   5.951  0.4540  0.5726 -1.2489
 4068SOL    HW213368   0.388   6.455   5.879  1.5845 -0.0351  0.8919
 4069SOL     OW13369   7.435   7.138   8.490 -0.6876  0.3385  0.4536
 4069SOL    HW113370   7.484   7.159   8.411  0.8017  0.8604  1.4802
 4069SOL    HW213371   7.371   7.209   8.498  0.1694  1.1207  0.5245
 4070SOL     OW13372   0.099   7.420   7.715  0.2930 -0.1520 -0.3232
 4070SOL    HW113373   0.141   7.398   7.798  2.5315  1.1198 -1.0378
 4070SOL    HW213374   0.123   7.348   7.656 -1.0337 -0.8956  0.0066
 4071SOL     OW13375   5.610   8.285   4.362 -0.3504 -0.6529  0.2977
 4071SOL    HW113376   5.682   8.343   4.338  0.7057 -2.1731 -0.3466
 4071SOL    HW213377   5.582   8.316   4.448  0.2002  0.7768 -0.0160
 4072SOL     OW13378   7.327   0.280   6.543 -0.1517  0.2635 -0.3850
 4072SOL    HW113379   7.258   0.297   6.608 -0.1036 -0.3905 -0.1599
 4072SOL    HW213380   7.383   0.215   6.584  1.7135  2.1357  0.2489
 4073SOL     OW13381   4.954   1.369   4.121 -0.5051  0.2537 -0.3038
 4073SOL    HW113382   4.865   1.386   4.088 -0.5409  0.9933  0.1548
 4073SOL    HW213383   5.001   1.451   4.107 -0.8069  0.9781  2.3963
 4074SOL     OW13384   1.144   0.048   4.533 -0.2222  0.0454 -0.2921
 4074SOL    HW113385   1.091   0.053   4.612 -0.5821 -1.4317 -0.4154
 4074SOL    HW213386   1.084   0.071   4.462  0.1907  1.7404 -0.1511
 4075SOL     OW13387   6.717   5.903   7.902  0.3117 -0.7331  0.0972
 4075SOL    HW113388   6.714   5.850   7.822 -0.2174  1.6197 -1.5256
 4075SOL    HW213389   6.810   5.917   7.918  0.3928  0.4370 -1.2896
 4076SOL     OW13390   2.073   4.354   3.746 -0.4877 -0.2848 -0.1399
 4076SOL    HW113391   2.163   4.355   3.779  0.5373 -0.3287 -2.6567
 4076SOL    HW213392   2.047   4.446   3.743 -0.2449 -0.2130 -0.0435
 4077SOL     OW13393   7.192   6.228   6.103  0.2160  0.0566  0.0543
 4077SOL    HW113394   7.148   6.198   6.023 -2.2814 -0.9210  1.6506
 4077SOL    HW213395   7.183   6.323   6.101 -0.0021  0.0306 -0.7106
 4078SOL     OW13396   7.460   8.701   6.184 -0.0986  0.0965  0.0022
 4078SOL    HW113397   7.378   8.664   6.217  0.6551 -0.4907  1.2918
 4078SOL    HW213398   7.525   8.632   6.198  1.1391  1.4951  1.5376
 4079SOL     OW13399   2.666   2.516   2.606  0.1578  0.1747  0.2737
 4079SOL    HW113400   2.575   2.514   2.637  0.2486 -0.6060  0.5244
 4079SOL    HW213401   2.673   2.439   2.550  1.2677 -1.0851  2.0476
 4080SOL     OW13402   3.453   3.851   4.325 -0.2253 -0.1396  0.1805
 4080SOL    HW113403   3.522   3.906   4.361 -0.1511  2.2379 -3.1337
 4080SOL    HW213404   3.373   3.883   4.366  0.1453  0.3741  0.5184
 4081SOL     OW13405   6.412   2.066   2.035 -0.0374  0.1848  0.0858
 4081SOL    HW113406   6.449   2.037   1.952 -2.9702  0.1274 -1.3443
 4081SOL    HW213407   6.406   1.987   2.088 -1.4267 -0.5511 -1.0829
 4082SOL     OW13408   2.825   0.647   6.929 -1.1472 -0.1089  0.5625
 4082SOL    HW113409   2.768   0.592   6.876 -1.1052 -0.9237  1.3450
 4082SOL    HW213410   2.772   0.723   6.951 -1.4713 -0.2106  0.1465
 4083SOL     OW13411   4.162   1.534   3.293  0.7940  0.3032 -0.1011
 4083SOL    HW113412   4.226   1.560   3.226 -0.4512 -1.8243 -2.2796
 4083SOL    HW213413   4.090   1.596   3.282  0.8011  0.2584 -0.4125
 4084SOL     OW13414   5.617   7.978   1.152  0.0119  0.2071  0.3477
 4084SOL    HW113415   5.615   7.960   1.246 -1.2915 -1.0073  0.1188
 4084SOL    HW213416   5.610   8.074   1.146  2.0439  0.4867  1.4919
 4085SOL     OW13417   2.826   0.037   3.806  0.2442  0.9995  0.0428
 4085SOL    HW113418   2.867   0.121   3.828  2.7506 -0.5445  1.7157
 4085SOL    HW213419   2.899  -0.022   3.789 -1.3264 -1.4924  1.4106
 4086SOL     OW13420   7.061   4.145   7.247  0.2436 -0.0808 -0.1604
 4086SOL    HW113421   7.040   4.084   7.176  0.7315  1.7938 -2.0475
 4086SOL    HW213422   7.149   4.121   7.274 -0.0321 -0.9579  0.0107
 4087SOL     OW13423   0.364   4.454   7.683  0.0652 -0.4441  0.0192
 4087SOL    HW113424   0.436   4.426   7.625  0.5525  1.3927 -0.3331
 4087SOL    HW213425   0.408   4.480   7.764 -0.1817  0.7040 -0.2017
 4088SOL     OW13426   3.111   8.210   6.722  0.5555 -0.5586 -0.0112
 4088SOL    HW113427   3.047   8.140   6.733 -2.2006  1.5895 -1.2749
 4088SOL    HW213428   3.094   8.270   6.794  0.2560  0.6274 -1.0255
 4089SOL     OW13429   1.359   6.449   0.505 -0.4255  0.3058  0.0519
 4089SOL    HW113430   1.441   6.428   0.461 -0.0239 -0.3141  1.0479
 4089SOL    HW213431   1.382   6.449   0.598 -0.8019  3.4699  0.2251
 4090SOL     OW13432   4.635   8.566   1.099  0.8290 -0.2478  0.1955
 4090SOL    HW113433   4.619   8.589   1.007 -0.1805  0.1808  0.4606
 4090SOL    HW213434   4.720   8.523   1.099  1.8793  1.7337 -0.6186
 4091SOL     OW13435   1.307   5.208   2.901 -0.1769  0.3761  0.5012
 4091SOL    HW113436   1.390   5.220   2.947 -0.2270  0.4867  0.5635
 4091SOL    HW213437   1.283   5.296   2.873  0.8015  0.1073 -1.3919
 4092SOL     OW13438   2.340   0.989   0.710 -0.1235  0.3640  0.0345
 4092SOL    HW113439   2.394   0.928   0.760 -0.0895  1.4946  1.4604
 4092SOL    HW213440   2.403   1.042   0.661 -0.0062  0.7706  0.6153
 4093SOL     OW13441   0.133   2.546   4.443  0.4260  0.1867  0.1227
 4093SOL    HW113442   0.159   2.480   4.507  1.3135 -0.3599 -0.7624
 4093SOL    HW213443   0.170   2.628   4.476  3.0502 -0.4881 -0.8611
 4094SOL     OW13444   0.390   0.846   8.729 -0.3000  0.7178  0.0062
 4094SOL    HW113445   0.381   0.768   8.674 -0.8822  0.5988  0.2645
 4094SOL    HW213446   0.428   0.813   8.810  0.5083  0.8853 -0.2930
 4095SOL     OW13447   2.670   5.704   4.378  0.5383 -0.3107  0.2082
 4095SOL    HW113448   2.588   5.754   4.379  0.5570 -0.2743 -0.0787
 4095SOL    HW213449   2.712   5.727   4.295  0.4825 -0.9014  0.0060
 4096SOL     OW13450   1.154   7.432   5.993 -0.2662  0.6438 -0.5261
 4096SOL    HW113451   1.091   7.498   6.022 -0.2034  1.8331 -2.9408
 4096SOL    HW213452   1.121   7.403   5.908  1.0559 -0.6413 -0.6332
 4097SOL     OW13453   4.457   4.565   1.224  0.0734 -0.5257  0.2713
 4097SOL    HW113454   4.508   4.533   1.150  1.0945  1.1731  0.2030
 4097SOL    HW213455   4.519   4.567   1.297 -0.4037 -0.3103  0.6749
 4098SOL     OW13456   3.884   4.131   6.605  0.1224 -0.2050  0.3347
 4098SOL    HW113457   3.839   4.046   6.608  1.6070 -0.9824  1.5175
 4098SOL    HW213458   3.814   4.194   6.587 -1.2901 -1.4787  1.1767
 4099SOL     OW13459   7.292   8.513   8.211 -0.4159 -0.0147  0.1284
 4099SOL    HW113460   7.271   8.508   8.118  0.2758 -0.2700 -0.0166
 4099SOL    HW213461   7.316   8.424   8.235  1.8474  0.4967 -0.0492
 4100SOL     OW13462   7.317   4.717   3.757  0.0084  0.0902  0.0475
 4100SOL    HW113463   7.310   4.623   3.776  0.0798 -0.1258 -0.9637
 4100SOL    HW213464   7.268   4.729   3.675 -0.5638  1.0561  0.5056
 4101SOL     OW13465   5.387   1.937   3.335 -0.4548  0.5266  0.1537
 4101SOL    HW113466   5.370   1.941   3.429  0.6171  0.6485  0.3647
 4101SOL    HW213467   5.481   1.917   3.330 -0.1100  2.2219 -0.8787
 4102SOL     OW13468   2.554   3.079   5.293  0.3330  0.4597  0.4347
 4102SOL    HW113469   2.569   3.018   5.364 -0.8528 -0.1183  0.2110
 4102SOL    HW213470   2.641   3.113   5.271  1.0358 -1.2266  0.4915
 4103SOL     OW13471   5.034   1.442   2.228  0.9970  0.0456 -0.1021
 4103SOL    HW113472   5.091   1.402   2.294  0.2283  0.3669  0.7736
 4103SOL    HW213473   4.967   1.487   2.278  0.2887  0.1520 -1.1122
 4104SOL     OW13474   0.224   8.373   3.006 -0.1683 -0.8962 -0.1305
 4104SOL    HW113475   0.227   8.348   3.098 -0.8660  1.1590  0.5229
 4104SOL    HW213476   0.313   8.403   2.986  0.0738 -1.6798 -0.2343
 4105SOL     OW13477   1.111   4.072   2.016  0.0989  0.4094  0.2827
 4105SOL    HW113478   1.079   4.162   2.027 -1.4177 -0.1180  0.4162
 4105SOL    HW213479   1.080   4.026   2.094  0.4293 -0.3490 -0.0216
 4106SOL     OW13480   4.619   4.605   8.073  0.1137 -0.3641 -0.1627
 4106SOL    HW113481   4.593   4.529   8.125  0.2002  0.2084  0.7265
 4106SOL    HW213482   4.695   4.640   8.118  0.1361  0.2014 -0.6288
 4107SOL     OW13483   7.248   5.416   1.763 -0.7857 -0.5462 -0.4120
 4107SOL    HW113484   7.343   5.423   1.748 -0.7213 -1.3048 -0.3652
 4107SOL    HW213485   7.240   5.401   1.857 -1.0159  0.6114 -0.2296
 4108SOL     OW13486   6.417   1.670   1.945 -0.2246 -0.0426  0.2426
 4108SOL    HW113487   6.443   1.699   2.032 -0.0840 -1.2976  0.6446
 4108SOL    HW213488   6.334   1.624   1.959 -0.7912  0.7359 -0.4735
 4109SOL     OW13489   5.190   8.629   4.991 -0.4140  0.3512 -0.0659
 4109SOL    HW113490   5.116   8.573   4.968  0.9004 -0.7179 -1.9791
 4109SOL    HW213491   5.168   8.663   5.078 -3.1769  0.1868 -0.5989
 4110SOL     OW13492   4.722   7.732   3.032 -0.3141 -0.4439  0.2064
 4110SOL    HW113493   4.725   7.827   3.020 -3.0800 -0.2951 -0.0028
 4110SOL    HW213494   4.730   7.697   2.943  2.4234 -0.5724  0.4242
 4111SOL     OW13495   1.714   2.912   4.515 -0.0049  0.0311 -0.1763
 4111SOL    HW113496   1.761   2.837   4.551 -0.8680 -0.3613  0.1555
 4111SOL    HW213497   1.718   2.900   4.420 -1.8727 -1.5558 -0.1035
 4112SOL     OW13498   2.484   5.062   5.246  0.2001 -0.8353 -0.1967
 4112SOL    HW113499   2.538   4.992   5.282  0.8519 -0.4559 -0.4240
 4112SOL    HW213500   2.398   5.048   5.286 -0.1168 -2.6687 -1.3727
 4113SOL     OW13501   2.723   5.396   6.832 -0.0817 -0.6949  0.0448
 4113SOL    HW113502   2.641   5.380   6.878 -0.2111 -2.5244 -0.7421
 4113SOL    HW213503   2.712   5.481   6.790 -1.8983 -1.2644 -0.7020
 4114SOL     OW13504   8.861   5.839   1.890 -0.0198 -0.3270 -0.8462
 4114SOL    HW113505   8.873   5.769   1.825 -0.7125 -0.8388 -0.4392
 4114SOL    HW213506   8.852   5.919   1.838  0.4647 -0.5778 -1.3313
 4115SOL     OW13507   5.436   4.529   0.481  0.2296 -0.0685 -0.2915
 4115SOL    HW113508   5.414   4.622   0.486  0.0987 -0.0493 -1.1556
 4115SOL    HW213509   5.510   4.525   0.421  1.8399 -0.2773  1.5956
 4116SOL     OW13510   3.104   7.690   2.840 -0.1315  0.2983 -0.4209
 4116SOL    HW113511   3.146   7.607   2.820 -0.3789  0.6406 -2.5315
 4116SOL    HW213512   3.150   7.722   2.918  0.2100 -1.5976  0.2047
 4117SOL     OW13513   0.847   2.257   7.041 -0.2086 -0.5604 -0.4071
 4117SOL    HW113514   0.882   2.188   7.097  1.0328 -0.7143 -1.3220
 4117SOL    HW213515   0.818   2.210   6.962 -2.2956 -0.4050  0.2094
 4118SOL     OW13516   2.814   0.679   7.345  0.4973 -0.6729 -0.0320
 4118SOL    HW113517   2.872   0.730   7.287  1.6139 -0.2321  1.4105
 4118SOL    HW213518   2.835   0.588   7.325 -2.8708 -0.8699 -4.0354
 4119SOL     OW13519   8.538   5.786   6.845  0.1997  0.1670  0.0938
 4119SOL    HW113520   8.598   5.852   6.808  1.4313 -1.4210 -0.8884
 4119SOL    HW213521   8.537   5.805   6.939  0.6634  1.4751 -0.1412
 4120SOL     OW13522   7.604   4.697   0.699 -0.1773 -0.1072  0.7211
 4120SOL    HW113523   7.599   4.611   0.741 -0.4208 -0.2443  0.4197
 4120SOL    HW213524   7.514   4.730   0.702 -0.2401 -0.2143  0.1140
 4121SOL     OW13525   6.209   0.422   2.075 -0.0028 -0.0924 -0.6194
 4121SOL    HW113526   6.214   0.410   1.980 -1.3417 -0.4226 -0.6667
 4121SOL    HW213527   6.145   0.493   2.087 -0.4823 -0.6257  0.0624
 4122SOL     OW13528   5.424   2.108   5.244  0.3826  0.4909  0.4450
 4122SOL    HW113529   5.498   2.110   5.184  0.0071 -1.8491 -0.2104
 4122SOL    HW213530   5.351   2.146   5.194  0.1670 -1.0823 -0.5217
 4123SOL     OW13531   4.013   5.074   1.312 -0.0483 -0.0375  0.0964
 4123SOL    HW113532   4.043   5.092   1.223 -1.7234 -0.2285 -0.5344
 4123SOL    HW213533   3.919   5.056   1.303 -0.1463 -0.5765  1.8319
 4124SOL     OW13534   2.020   5.574   7.886  0.1438 -0.2037 -0.3363
 4124SOL    HW113535   2.017   5.479   7.897 -0.6196 -0.3526 -1.5843
 4124SOL    HW213536   2.071   5.606   7.961 -0.4989 -1.4891  0.6861
 4125SOL     OW13537   6.484   6.060   5.239 -0.3788 -0.8735  0.4746
 4125SOL    HW113538   6.553   6.027   5.297  0.4433  1.8653  1.2208
 4125SOL    HW213539   6.509   6.029   5.152  1.1780 -0.9314  0.9029
 4126SOL     OW13540   5.032   4.239   5.291  0.1067  0.4002 -0.2011
 4126SOL    HW113541   4.983   4.289   5.225 -0.7912  1.9972  1.5599
 4126SOL    HW213542   4.972   4.170   5.319  0.1639  0.2468 -0.4574
 4127SOL     OW13543   8.662   2.631   8.038  0.4283 -0.8140 -0.0103
 4127SOL    HW113544   8.579   2.637   8.085  1.5013  1.1981  1.8184
 4127SOL    HW213545   8.678   2.537   8.029 -0.6943 -1.2836  2.1849
 4128SOL     OW13546   5.895   3.795   8.091  0.0508  0.0406 -0.0132
 4128SOL    HW113547   5.821   3.826   8.038  0.9257  1.2324 -0.5816
 4128SOL    HW213548   5.871   3.817   8.181 -0.1681  0.6663 -0.2239
 4129SOL     OW13549   5.439   7.481   3.165 -0.0011 -0.1454  0.0943
 4129SOL    HW113550   5.411   7.536   3.092  0.3600 -2.1773 -1.7070
 4129SOL    HW213551   5.491   7.538   3.221  0.6354  1.2646 -1.8288
 4130SOL     OW13552   6.247   1.214   5.889 -0.0466  0.1621  0.4433
 4130SOL    HW113553   6.233   1.288   5.830 -0.8225 -0.9747 -0.8820
 4130SOL    HW213554   6.342   1.207   5.898  0.0751  0.5691 -0.4307
 4131SOL     OW13555   1.493   2.246   0.167  0.5815  0.4852  1.0759
 4131SOL    HW113556   1.562   2.312   0.159  0.6079  0.4590  1.0854
 4131SOL    HW213557   1.454   2.262   0.253  2.1403 -0.9986  2.1104
 4132SOL     OW13558   5.187   6.507   5.984 -0.6185  0.1850  0.9513
 4132SOL    HW113559   5.147   6.590   5.958  0.4618  0.5663  0.4683
 4132SOL    HW213560   5.233   6.478   5.906  0.1631 -0.1806  1.5431
 4133SOL     OW13561   3.066   0.676   1.597 -0.5278  0.1241 -0.3732
 4133SOL    HW113562   3.150   0.662   1.554  0.0710 -0.7332  0.9942
 4133SOL    HW213563   3.021   0.592   1.592 -0.0616 -0.2779  1.3918
 4134SOL     OW13564   1.781   4.030   6.416  0.0500 -0.2789  0.0466
 4134SOL    HW113565   1.702   4.043   6.468  0.9520 -1.3952  1.7757
 4134SOL    HW213566   1.777   3.938   6.389 -0.0341  0.0911 -1.2944
 4135SOL     OW13567   6.334   2.614   4.060 -0.8278 -0.2453 -0.1803
 4135SOL    HW113568   6.283   2.548   4.109  0.7364 -1.6213 -0.3281
 4135SOL    HW213569   6.407   2.565   4.023 -1.2892  0.9717 -2.9678
 4136SOL     OW13570   2.458   6.390   1.570 -0.1598  0.2317  0.7136
 4136SOL    HW113571   2.514   6.337   1.628 -0.0703 -1.4132 -0.7927
 4136SOL    HW213572   2.387   6.421   1.627  0.4363 -0.5176  1.9083
 4137SOL     OW13573   1.900   5.824   1.154 -0.5177 -0.3581 -0.1146
 4137SOL    HW113574   1.870   5.877   1.080 -1.0743  1.2480  1.2142
 4137SOL    HW213575   1.842   5.748   1.155  0.9093 -1.6174 -2.6527
 4138SOL     OW13576   3.675   7.892   1.062 -0.0034 -0.2506  0.2886
 4138SOL    HW113577   3.653   7.962   1.000 -0.2284 -1.2305 -0.7734
 4138SOL    HW213578   3.699   7.938   1.142 -1.0136  1.0183 -0.0999
 4139SOL     OW13579   8.812   3.063   1.511  0.0875  0.3522 -0.3160
 4139SOL    HW113580   8.819   3.120   1.588  0.1218 -1.6701  1.2758
 4139SOL    HW213581   8.725   3.025   1.517  1.0104 -1.8255  0.2814
 4140SOL     OW13582   0.115   4.420   1.317  0.3708  1.1410 -0.3516
 4140SOL    HW113583   0.091   4.485   1.252  0.0935  2.6087  1.1536
 4140SOL    HW213584   0.077   4.338   1.284 -1.5739  2.2313 -1.0195
 4141SOL     OW13585   2.523   2.262   4.319 -0.8267  0.4401  0.0510
 4141SOL    HW113586   2.557   2.298   4.401 -1.9163  0.7562  0.3861
 4141SOL    HW213587   2.579   2.187   4.300 -0.4323  0.4914  0.9811
 4142SOL     OW13588   5.428   5.981   8.438  0.2269  0.6456 -0.1858
 4142SOL    HW113589   5.448   5.891   8.463 -1.1696  0.1072 -0.8506
 4142SOL    HW213590   5.458   5.988   8.347  0.0897  0.7558 -0.2231
 4143SOL     OW13591   2.255   7.633   7.248 -0.5666 -0.5231  0.3309
 4143SOL    HW113592   2.291   7.565   7.191  2.5396  0.2955  1.1283
 4143SOL    HW213593   2.298   7.619   7.333 -1.7870  0.8929  1.2286
 4144SOL     OW13594   0.381   3.069   4.869 -0.4751  0.0588  0.4344
 4144SOL    HW113595   0.471   3.046   4.892  0.4172 -0.7208 -3.1777
 4144SOL    HW213596   0.332   2.988   4.881  0.3209 -0.8161 -1.5983
 4145SOL     OW13597   7.435   0.972   2.536  0.1488 -0.3641 -0.1264
 4145SOL    HW113598   7.453   0.885   2.500  0.0115 -0.1561 -0.7072
 4145SOL    HW213599   7.379   0.955   2.613  0.7325 -0.8330  0.2018
 4146SOL     OW13600   6.874   6.774   4.015 -0.1490  0.4976  0.5619
 4146SOL    HW113601   6.891   6.687   3.978  1.2368  1.3823 -1.0447
 4146SOL    HW213602   6.893   6.765   4.108  0.8846 -0.6947  0.2636
 4147SOL     OW13603   1.077   6.641   2.054  0.2763  0.6572 -0.0634
 4147SOL    HW113604   1.169   6.653   2.033  0.7971 -2.2686  0.1416
 4147SOL    HW213605   1.043   6.587   1.983 -0.6900 -0.1804  0.9922
 4148SOL     OW13606   6.851   6.825   3.646  0.1358  0.1361 -0.3037
 4148SOL    HW113607   6.876   6.917   3.636  0.8737  0.3641  2.6663
 4148SOL    HW213608   6.934   6.780   3.662 -0.4652 -0.5684  0.9412
 4149SOL     OW13609   4.521   3.133   8.586 -0.2083 -0.0275  0.1113
 4149SOL    HW113610   4.578   3.199   8.547 -0.3108  0.5680  0.9315
 4149SOL    HW213611   4.581   3.064   8.614 -0.1018 -0.3089 -0.7734
 4150SOL     OW13612   8.010   1.932   4.973  0.2122 -0.4833 -0.1198
 4150SOL    HW113613   7.950   2.001   5.001  1.9073  0.4719  1.3307
 4150SOL    HW213614   8.081   1.978   4.929  0.7750 -1.4190 -0.2070
 4151SOL     OW13615   3.893   1.779   4.333  0.6896 -0.4958  0.2348
 4151SOL    HW113616   3.829   1.711   4.352 -1.5932  0.7485 -2.2861
 4151SOL    HW213617   3.974   1.731   4.316  0.4441 -2.1545  3.1124
 4152SOL     OW13618   7.628   4.982   5.815  0.7290  0.4500 -0.3693
 4152SOL    HW113619   7.642   5.072   5.785  0.9698  1.0626  1.4448
 4152SOL    HW213620   7.696   4.931   5.770  0.9615  1.2729 -0.9801
 4153SOL     OW13621   8.514   7.528   0.843 -0.0775  0.6679 -0.5494
 4153SOL    HW113622   8.470   7.585   0.779 -0.4961 -0.6021 -1.4331
 4153SOL    HW213623   8.565   7.468   0.790  0.8053  0.5642  0.3940
 4154SOL     OW13624   3.864   8.487   5.468  0.1867  0.4435 -0.3003
 4154SOL    HW113625   3.799   8.535   5.519  0.4256 -0.5407  1.0196
 4154SOL    HW213626   3.813   8.430   5.411 -0.2627 -1.6389  1.9736
 4155SOL     OW13627   2.520   1.939   1.008  0.0137  0.0532  0.0539
 4155SOL    HW113628   2.572   1.949   0.928  1.0205 -0.1049  0.6732
 4155SOL    HW213629   2.493   2.028   1.031 -0.2360  0.1046 -0.4270
 4156SOL     OW13630   0.484   4.857   0.067  0.3806 -0.5065  0.4094
 4156SOL    HW113631   0.566   4.809   0.074  1.1506  0.5049 -0.9399
 4156SOL    HW213632   0.485   4.918   0.140  0.6132 -0.8216  0.6692
 4157SOL     OW13633   3.693   5.001   3.101 -0.7442 -0.1239  0.4421
 4157SOL    HW113634   3.637   5.023   3.175  0.9037  1.1006  1.3738
 4157SOL    HW213635   3.782   4.998   3.137 -0.0567 -1.0020 -1.1833
 4158SOL     OW13636   1.703   2.418   4.054  0.4800 -0.1476  0.5596
 4158SOL    HW113637   1.675   2.479   3.986  0.2212 -0.4422  0.3977
 4158SOL    HW213638   1.636   2.350   4.053  0.2066  0.1018  1.4509
 4159SOL     OW13639   2.120   6.978   4.958 -0.0578 -0.2139  0.2574
 4159SOL    HW113640   2.136   6.927   5.037  0.8724  0.6349  0.6405
 4159SOL    HW213641   2.207   6.995   4.921 -0.1920  2.1996  0.8838
 4160SOL     OW13642   5.836   2.706   7.914 -0.0151  0.2138  0.0828
 4160SOL    HW113643   5.918   2.738   7.879 -0.6661  0.4937 -1.2519
 4160SOL    HW213644   5.861   2.641   7.980  1.2800  1.8247  1.2396
 4161SOL     OW13645   2.453   7.490   4.735  0.6787 -0.2698 -0.2632
 4161SOL    HW113646   2.421   7.577   4.761 -0.4540 -0.5867 -0.5289
 4161SOL    HW213647   2.510   7.508   4.660  1.4829  0.3551  0.4804
 4162SOL     OW13648   0.366   6.476   2.364 -0.6388  0.4790 -0.5574
 4162SOL    HW113649   0.335   6.391   2.332  0.3782 -0.2539  0.3120
 4162SOL    HW213650   0.293   6.510   2.415 -0.8513 -0.1573 -0.4243
 4163SOL     OW13651   6.255   0.545   6.896 -0.0654 -0.4549  0.4723
 4163SOL    HW113652   6.319   0.615   6.905 -0.8843  0.5074 -0.8181
 4163SOL    HW213653   6.291   0.488   6.829 -1.1635  0.8978 -1.3771
 4164SOL     OW13654   0.177   6.291   1.243  0.2762  0.3544 -0.1176
 4164SOL    HW113655   0.269   6.289   1.219  0.3975 -1.3833  0.3483
 4164SOL    HW213656   0.147   6.200   1.235 -1.0357  0.6328  1.0380
 4165SOL     OW13657   1.541   8.210   0.070 -0.3001  0.3434 -0.0472
 4165SOL    HW113658   1.587   8.200  -0.013  0.7393 -0.7893  0.6348
 4165SOL    HW213659   1.481   8.136   0.074  1.3755 -1.0390  1.2380
 4166SOL     OW13660   4.578   4.689   5.764 -0.2533  0.5179 -0.2039
 4166SOL    HW113661   4.659   4.737   5.748 -0.3293  1.5125  2.0812
 4166SOL    HW213662   4.532   4.739   5.831 -0.7144 -2.2871  1.7741
 4167SOL     OW13663   2.208   1.378   6.394 -0.0904 -0.1849 -0.3203
 4167SOL    HW113664   2.181   1.420   6.312 -0.9784 -2.5262 -1.3089
 4167SOL    HW213665   2.127   1.344   6.431  0.4640 -0.1398  0.9766
 4168SOL     OW13666   4.258   6.009   0.551  0.0446  0.3699 -0.4484
 4168SOL    HW113667   4.239   5.933   0.606 -0.2190 -0.6347 -1.8732
 4168SOL    HW213668   4.204   6.079   0.587  0.0384 -0.1946  0.6784
 4169SOL     OW13669   6.738   6.828   5.491  0.6992 -0.2061  0.1167
 4169SOL    HW113670   6.726   6.905   5.436  1.8150 -0.6806 -0.8303
 4169SOL    HW213671   6.676   6.840   5.563 -0.5392  0.6114 -1.0324
 4170SOL     OW13672   0.575   1.088   0.090  0.4163 -0.2991  0.8594
 4170SOL    HW113673   0.621   1.016   0.133  1.3722  0.3894  1.0333
 4170SOL    HW213674   0.620   1.099   0.006  0.8038  0.5877  1.1639
 4171SOL     OW13675   2.243   6.997   4.074  0.3879  0.1998  0.6454
 4171SOL    HW113676   2.234   7.024   4.166 -0.8953 -0.0485  0.6109
 4171SOL    HW213677   2.268   6.905   4.079  1.9806  0.6187  0.7436
 4172SOL     OW13678   2.069   3.086   5.000  0.2223  0.2167  0.0115
 4172SOL    HW113679   2.032   3.016   5.055 -0.5643  2.4558  2.5705
 4172SOL    HW213680   2.156   3.102   5.037  1.1444 -0.5738 -1.7336
 4173SOL     OW13681   8.133   4.105   8.559  0.0843  0.2581 -0.9883
 4173SOL    HW113682   8.198   4.118   8.628 -0.9356  1.3420 -0.1905
 4173SOL    HW213683   8.138   4.012   8.538 -1.2144 -0.6697  2.2650
 4174SOL     OW13684   3.714   2.929   7.892  0.1872 -0.0359 -0.4330
 4174SOL    HW113685   3.784   2.937   7.958  1.5805  0.7462 -1.9438
 4174SOL    HW213686   3.635   2.957   7.938  0.9987 -0.1370  1.0880
 4175SOL     OW13687   0.031   1.378   2.547  0.2845 -0.2649 -0.0798
 4175SOL    HW113688   0.004   1.294   2.584 -0.8005  0.7927  1.6536
 4175SOL    HW213689   0.010   1.371   2.454  0.5632 -2.0296 -0.0470
 4176SOL     OW13690   4.880   6.268   3.189 -0.1098 -0.1866 -1.1421
 4176SOL    HW113691   4.960   6.306   3.228 -2.4928  1.5382  2.6847
 4176SOL    HW213692   4.837   6.343   3.147 -1.9865  0.2190  1.2676
 4177SOL     OW13693   8.238   0.098   0.611 -0.0576  0.4439  0.0141
 4177SOL    HW113694   8.301   0.096   0.539 -0.1622  0.0617 -0.0663
 4177SOL    HW213695   8.282   0.050   0.682  0.4162  1.5668  0.5136
 4178SOL     OW13696   6.987   7.712   3.413  0.3857 -0.2457  0.2078
 4178SOL    HW113697   7.022   7.693   3.326 -0.2112  0.9985 -0.3347
 4178SOL    HW213698   6.917   7.647   3.425  0.8732 -0.8094  0.0187
 4179SOL     OW13699   7.817   6.544   2.833 -0.2806 -0.4671  0.0702
 4179SOL    HW113700   7.807   6.454   2.865 -1.0091  0.0020  1.1918
 4179SOL    HW213701   7.792   6.599   2.907  0.9108  0.6823 -0.3511
 4180SOL     OW13702   4.281   3.353   4.895  0.6848  0.5935 -0.1508
 4180SOL    HW113703   4.230   3.273   4.882  2.4938 -0.7894  0.7587
 4180SOL    HW213704   4.235   3.401   4.964  1.1103 -1.1375  1.4180
 4181SOL     OW13705   4.250   6.338   4.732  0.4724 -0.2580  0.0882
 4181SOL    HW113706   4.241   6.319   4.825  0.8082 -0.3054  0.1143
 4181SOL    HW213707   4.226   6.430   4.723 -3.2994 -1.1356 -0.3604
 4182SOL     OW13708   8.283   3.217   0.190 -0.1400  0.4133  0.0823
 4182SOL    HW113709   8.333   3.137   0.172  0.8418  0.8567  0.7401
 4182SOL    HW213710   8.247   3.203   0.278 -2.1832 -0.3843 -0.8253
 4183SOL     OW13711   3.480   7.169   6.485  0.5430  0.7563 -0.2620
 4183SOL    HW113712   3.564   7.172   6.531  0.6163  1.9450 -0.4424
 4183SOL    HW213713   3.486   7.239   6.419  0.0036 -0.1626 -1.3195
 4184SOL     OW13714   1.086   2.005   1.311 -0.2567  0.4679 -0.1599
 4184SOL    HW113715   1.129   1.920   1.301  1.5203  1.4625 -1.6780
 4184SOL    HW213716   1.034   2.015   1.231 -3.3729 -0.6462  1.5822
 4185SOL     OW13717   2.613   1.511   6.210 -0.8435  0.2683 -0.4212
 4185SOL    HW113718   2.657   1.596   6.219 -0.2182 -0.0854 -0.0338
 4185SOL    HW213719   2.638   1.463   6.290  0.1563 -0.8751 -1.3735
 4186SOL     OW13720   0.701   6.781   7.329  0.0117  0.9815  0.2220
 4186SOL    HW113721   0.778   6.778   7.272 -0.6871 -0.3082 -0.7096
 4186SOL    HW213722   0.644   6.847   7.289  0.1235  1.0925  0.2436
 4187SOL     OW13723   4.614   1.667   4.718  0.6119  0.3976 -0.2955
 4187SOL    HW113724   4.554   1.593   4.729  0.8980  0.1836 -0.1664
 4187SOL    HW213725   4.661   1.672   4.801  1.0038  0.3579 -0.5135
 4188SOL     OW13726   5.664   1.494   0.692 -0.1807 -0.1762  0.7702
 4188SOL    HW113727   5.578   1.453   0.698  0.0703 -0.8483 -0.0837
 4188SOL    HW213728   5.680   1.529   0.779 -1.6869  0.7086  0.7287
 4189SOL     OW13729   0.648   1.459   2.139 -0.0106 -0.1913  0.4156
 4189SOL    HW113730   0.600   1.443   2.220  0.6639 -1.6965  0.5517
 4189SOL    HW213731   0.705   1.383   2.129  1.6756  1.0867 -0.2306
 4190SOL     OW13732   4.341   2.579   2.647  0.1837 -0.5460 -0.1084
 4190SOL    HW113733   4.429   2.615   2.654  0.8235 -2.1032  0.4957
 4190SOL    HW213734   4.299   2.602   2.730  0.0015  0.2244 -0.4093
 4191SOL     OW13735   8.372   8.107   8.004 -0.2927  0.2618 -0.1062
 4191SOL    HW113736   8.371   8.120   7.909 -1.3037 -1.1021 -0.3074
 4191SOL    HW213737   8.456   8.142   8.032 -0.4116  1.6556 -1.3490
 4192SOL     OW13738   4.388   1.814   4.377 -0.3432  0.1817  0.2820
 4192SOL    HW113739   4.465   1.834   4.430  0.4720 -0.3118 -0.6897
 4192SOL    HW213740   4.348   1.899   4.359 -0.5240  0.3728  1.5011
 4193SOL     OW13741   4.871   7.208   2.241 -0.4980 -0.4285  0.2408
 4193SOL    HW113742   4.896   7.255   2.162  1.9059 -0.7688  0.7193
 4193SOL    HW213743   4.948   7.215   2.298 -1.3953 -1.9428  1.7099
 4194SOL     OW13744   7.322   7.759   0.391  0.3855 -0.1789  0.1996
 4194SOL    HW113745   7.242   7.810   0.381  1.0048  0.9340  0.6414
 4194SOL    HW213746   7.295   7.668   0.379 -0.8154  0.2251 -0.2936
 4195SOL     OW13747   8.050   5.865   7.106  0.0619  0.5736 -0.0090
 4195SOL    HW113748   7.959   5.851   7.133  0.5324  0.9158  1.8780
 4195SOL    HW213749   8.100   5.800   7.155  1.1021  2.0852  1.0296
 4196SOL     OW13750   3.791   3.306   4.287  0.1001 -0.7124  0.8011
 4196SOL    HW113751   3.843   3.225   4.282 -2.2371 -2.2912 -3.5450
 4196SOL    HW213752   3.738   3.295   4.366 -0.3691 -3.7131  0.1952
 4197SOL     OW13753   6.036   8.560   3.810  0.3172 -0.6427  0.5504
 4197SOL    HW113754   6.076   8.556   3.723  2.7378 -0.5925  1.5781
 4197SOL    HW213755   6.059   8.646   3.844 -1.4723 -0.2601  0.9055
 4198SOL     OW13756   2.529   8.196   5.711 -0.1704 -0.1630  0.7620
 4198SOL    HW113757   2.614   8.217   5.673  0.8705 -1.0633  2.4600
 4198SOL    HW213758   2.491   8.281   5.733  0.5953  0.2334  0.6055
 4199SOL     OW13759   4.448   5.681   2.456 -0.3063  0.1131 -0.3612
 4199SOL    HW113760   4.510   5.646   2.520 -0.8052 -1.0189 -0.4708
 4199SOL    HW213761   4.496   5.748   2.409  0.4299  0.1445  0.4129
 4200SOL     OW13762   2.650   7.631   7.569 -0.6484 -0.1183 -0.4396
 4200SOL    HW113763   2.642   7.667   7.657  0.3953  1.0771 -0.7934
 4200SOL    HW213764   2.741   7.603   7.563 -0.4018  0.7966 -1.4570
 4201SOL     OW13765   2.766   4.607   5.440  0.1856 -0.2216 -0.0398
 4201SOL    HW113766   2.809   4.534   5.396  1.1049  0.1039  0.2902
 4201SOL    HW213767   2.803   4.685   5.399 -1.1358  0.0792 -0.7195
 4202SOL     OW13768   1.540   2.196   4.061 -0.0446 -0.2162 -0.0214
 4202SOL    HW113769   1.552   2.198   4.156  4.0172  0.7525 -0.3488
 4202SOL    HW213770   1.469   2.134   4.047 -1.1203 -0.0446  3.6269
 4203SOL     OW13771   1.948   8.746   2.611 -0.9234  0.1446  0.2477
 4203SOL    HW113772   1.913   8.678   2.668 -2.0051  1.5647  1.3692
 4203SOL    HW213773   1.900   8.825   2.636  0.0004  1.2481 -1.2717
 4204SOL     OW13774   3.043   5.484   7.116  0.2701 -0.2369 -0.6669
 4204SOL    HW113775   3.030   5.397   7.153  1.2030  0.0019  0.2747
 4204SOL    HW213776   3.002   5.543   7.180  0.2925  0.0669 -0.9308
 4205SOL     OW13777   2.194   2.929   1.138  0.2486 -0.3487 -0.0661
 4205SOL    HW113778   2.227   2.855   1.189 -0.4935 -0.7727 -0.1847
 4205SOL    HW213779   2.268   2.989   1.131  0.9993 -1.3016 -0.3789
 4206SOL     OW13780   4.879   3.556   8.286  0.4165  0.0028  0.4968
 4206SOL    HW113781   4.971   3.579   8.271  0.7065 -0.9079  0.7618
 4206SOL    HW213782   4.882   3.463   8.309 -0.3561  0.4488  2.6041
 4207SOL     OW13783   3.163   3.092   8.604 -0.3144  0.6139  0.4675
 4207SOL    HW113784   3.091   3.154   8.597 -1.1845 -0.1979  1.7181
 4207SOL    HW213785   3.125   3.007   8.580  0.6429  0.4106 -0.4171
 4208SOL     OW13786   8.315   8.745   6.211  0.3894  0.2518 -0.0394
 4208SOL    HW113787   8.334   8.802   6.286 -0.8007 -0.5722  0.9299
 4208SOL    HW213788   8.262   8.799   6.153  1.7694  1.0732 -0.5869
 4209SOL     OW13789   7.681   6.908   5.582 -0.4067  0.4601 -0.9802
 4209SOL    HW113790   7.767   6.910   5.623  0.9224 -1.2024 -3.4369
 4209SOL    HW213791   7.696   6.936   5.492 -2.8222  1.9749 -1.0101
 4210SOL     OW13792   5.400   4.705   7.118  0.0517 -0.1978 -0.6753
 4210SOL    HW113793   5.332   4.699   7.051  0.2492  0.5085 -0.9453
 4210SOL    HW213794   5.437   4.617   7.122 -0.4852 -0.4407 -0.9387
 4211SOL     OW13795   3.639   5.157   7.117  0.2446  0.3185  0.2460
 4211SOL    HW113796   3.655   5.077   7.168 -1.0600  0.6858  1.2880
 4211SOL    HW213797   3.646   5.228   7.181  0.6111  0.9790 -0.5135
 4212SOL     OW13798   3.690   8.291   8.035  0.0850 -0.0457  0.5044
 4212SOL    HW113799   3.688   8.363   7.972 -0.6401 -0.8517 -0.4118
 4212SOL    HW213800   3.764   8.312   8.092 -0.6036  1.8438  0.7768
 4213SOL     OW13801   6.048   6.572   2.689 -0.3581  0.4119 -0.5569
 4213SOL    HW113802   6.053   6.575   2.784 -0.9998  0.0862 -0.5095
 4213SOL    HW213803   6.140   6.570   2.660 -0.1651  0.3093  0.0549
 4214SOL     OW13804   6.088   7.528   3.106 -0.1812 -0.0538  0.4799
 4214SOL    HW113805   6.059   7.492   3.190  0.9260  1.8619  1.7781
 4214SOL    HW213806   6.171   7.484   3.088 -0.5548 -0.6661  0.2296
 4215SOL     OW13807   0.835   2.476   5.628  0.6296 -0.1886 -0.1060
 4215SOL    HW113808   0.764   2.540   5.634  0.3635 -0.4466 -0.4327
 4215SOL    HW213809   0.846   2.443   5.717 -1.4549 -2.0642 -0.4573
 4216SOL     OW13810   7.298   5.024   8.761  0.2606  0.2573 -0.1346
 4216SOL    HW113811   7.236   5.091   8.789 -0.9706 -0.0000 -2.0211
 4216SOL    HW213812   7.242   4.953   8.728  1.4905  0.3939 -2.7958
 4217SOL     OW13813   1.199   1.515   4.890 -0.1459 -0.3723  0.1133
 4217SOL    HW113814   1.118   1.562   4.906  0.7355  0.8524  1.1723
 4217SOL    HW213815   1.225   1.542   4.802 -0.2111  0.2667  0.2865
 4218SOL     OW13816   1.269   5.957   8.437 -0.2790  0.0605  0.6071
 4218SOL    HW113817   1.221   5.912   8.507 -0.2346  0.1128  0.6715
 4218SOL    HW213818   1.251   5.905   8.359 -2.6146  1.5472  0.0564
 4219SOL     OW13819   4.680   5.136   3.071  0.0355 -0.2771  0.2223
 4219SOL    HW113820   4.639   5.051   3.084 -1.7760  0.5117  0.0436
 4219SOL    HW213821   4.774   5.118   3.068 -0.3300 -2.3383 -0.3915
 4220SOL     OW13822   5.345   5.103   5.908  0.1594 -0.3964  0.0646
 4220SOL    HW113823   5.359   5.196   5.926  0.8856 -0.5339  0.2615
 4220SOL    HW213824   5.393   5.058   5.977  0.6970 -0.9205 -0.6256
 4221SOL     OW13825   8.296   5.838   3.777  0.1262  0.3668  0.3770
 4221SOL    HW113826   8.257   5.751   3.771 -0.1175  0.3925  1.4585
 4221SOL    HW213827   8.365   5.838   3.711  1.3984 -1.3082  1.6403
 4222SOL     OW13828   1.447   2.520   2.691 -0.5206 -0.1870  0.7018
 4222SOL    HW113829   1.526   2.574   2.692 -0.8019  0.2272  2.0726
 4222SOL    HW213830   1.449   2.473   2.774 -1.7465 -0.1084  0.7935
 4223SOL     OW13831   6.332   6.752   2.302  0.5934  0.0916  0.3771
 4223SOL    HW113832   6.300   6.696   2.373 -3.2971  3.4569  1.6373
 4223SOL    HW213833   6.371   6.827   2.346  0.6093  0.9835 -1.0976
 4224SOL     OW13834   1.403   4.169   5.329 -0.1819 -0.0656 -0.1263
 4224SOL    HW113835   1.472   4.181   5.263 -0.4853  1.1878 -0.2225
 4224SOL    HW213836   1.448   4.123   5.400  0.8267  0.9280 -0.0901
 4225SOL     OW13837   7.266   6.929   0.153  0.0748 -0.5916  0.7694
 4225SOL    HW113838   7.303   7.016   0.166 -1.1566 -0.1467  1.5659
 4225SOL    HW213839   7.174   6.945   0.131 -0.1060 -1.6824  0.6659
 4226SOL     OW13840   6.494   8.481   5.583 -0.6318  0.1779  0.2678
 4226SOL    HW113841   6.520   8.466   5.492  0.8733  0.4572  0.6413
 4226SOL    HW213842   6.519   8.571   5.602 -0.5755  0.0014  1.0854
 4227SOL     OW13843   0.492   8.407   6.925  0.3405 -0.1071  0.2663
 4227SOL    HW113844   0.578   8.366   6.934  1.6530  2.3723 -0.1700
 4227SOL    HW213845   0.445   8.380   7.004  1.9905 -0.4618  1.1783
 4228SOL     OW13846   8.839   6.830   0.376 -0.2651 -0.3177 -0.0369
 4228SOL    HW113847   8.844   6.740   0.343 -1.8533 -0.4187 -0.0806
 4228SOL    HW213848   8.769   6.828   0.441 -1.2355  1.1405 -0.9671
 4229SOL     OW13849   6.429   8.174   3.478 -0.3809  0.3407 -0.0094
 4229SOL    HW113850   6.423   8.269   3.464 -1.6083  0.2769  0.0039
 4229SOL    HW213851   6.398   8.136   3.396 -0.1960 -0.0496  0.1007
 4230SOL     OW13852   4.994   6.406   6.124 -0.2695 -0.0278  0.0473
 4230SOL    HW113853   4.971   6.333   6.067  1.2210 -1.5124  1.2778
 4230SOL    HW213854   5.076   6.440   6.089  0.8092 -1.1351  1.4203
 4231SOL     OW13855   6.241   2.555   6.409  0.5865 -0.2816  0.0737
 4231SOL    HW113856   6.179   2.614   6.366 -0.4030 -2.4978 -1.7604
 4231SOL    HW213857   6.320   2.562   6.356  0.2745 -0.9864 -0.5025
 4232SOL     OW13858   2.057   1.622   1.809 -0.8653 -0.0030 -0.3990
 4232SOL    HW113859   1.971   1.579   1.806 -0.9764  0.1837  0.0345
 4232SOL    HW213860   2.038   1.715   1.800 -0.6591 -0.0081 -0.8935
 4233SOL     OW13861   4.681   5.931   4.873  0.3079  0.3514 -0.1162
 4233SOL    HW113862   4.611   5.939   4.938  1.3658 -0.6774  1.2242
 4233SOL    HW213863   4.655   5.856   4.820 -0.5399  1.1661 -0.8877
 4234SOL     OW13864   7.811   8.126   5.569  0.1593  0.0353  0.6606
 4234SOL    HW113865   7.888   8.096   5.520 -0.4403  0.6829 -0.7380
 4234SOL    HW213866   7.847   8.166   5.648  1.2366  0.0285  0.1879
 4235SOL     OW13867   6.720   3.008   4.404 -0.0823  0.0211 -0.1790
 4235SOL    HW113868   6.746   2.990   4.313  1.4209  0.0970  0.2029
 4235SOL    HW213869   6.641   3.062   4.396 -0.3822 -0.5699 -1.4238
 4236SOL     OW13870   0.642   5.218   1.659  0.0404  0.4948 -0.1346
 4236SOL    HW113871   0.561   5.175   1.631 -0.5343  0.7282  1.0819
 4236SOL    HW213872   0.632   5.308   1.630  1.8086 -0.3023 -3.8493
 4237SOL     OW13873   7.891   3.386   7.761  0.1900  0.1689  0.1926
 4237SOL    HW113874   7.933   3.471   7.751 -0.4241  0.6887  1.7833
 4237SOL    HW213875   7.823   3.385   7.693  0.0319  1.0575  0.3223
 4238SOL     OW13876   5.045   6.318   3.663 -0.5550 -0.5649  0.1311
 4238SOL    HW113877   5.053   6.400   3.711 -0.4229  0.4849 -1.5806
 4238SOL    HW213878   4.963   6.327   3.614  0.6498 -0.3348 -1.9765
 4239SOL     OW13879   6.096   8.084   7.113  0.6543 -0.0695 -0.2873
 4239SOL    HW113880   6.003   8.068   7.124  0.8433 -0.6188  0.7208
 4239SOL    HW213881   6.136   8.047   7.193  1.7720 -0.2981 -0.9264
 4240SOL     OW13882   8.743   0.214   5.403 -0.2099 -0.3925 -1.0630
 4240SOL    HW113883   8.703   0.300   5.396  0.5668  0.0947  0.1834
 4240SOL    HW213884   8.671   0.153   5.386 -1.0966  0.4773 -0.5411
 4241SOL     OW13885   1.238   5.847   8.182 -0.1625 -0.6584 -0.3117
 4241SOL    HW113886   1.167   5.784   8.181 -0.2478 -0.5578 -1.2093
 4241SOL    HW213887   1.244   5.879   8.092 -0.7442  1.3012  0.2916
 4242SOL     OW13888   8.419   7.473   0.432 -0.6866  0.4061  0.2107
 4242SOL    HW113889   8.501   7.521   0.439  0.5481 -1.4458 -0.7989
 4242SOL    HW213890   8.445   7.381   0.430 -2.7035 -0.2047 -1.1198
 4243SOL     OW13891   7.325   8.261   6.358 -0.1015  0.7892  0.2146
 4243SOL    HW113892   7.378   8.287   6.434  0.3703 -0.5708  0.3775
 4243SOL    HW213893   7.250   8.320   6.360 -0.4196  0.3867  2.1261
 4244SOL     OW13894   6.710   7.309   3.117  0.2020 -0.3161 -0.1155
 4244SOL    HW113895   6.798   7.336   3.091  0.5934  1.0268  2.2701
 4244SOL    HW213896   6.656   7.387   3.102  0.2605  0.1888  1.9356
 4245SOL     OW13897   4.558   6.264   4.354  0.0154  0.0747  0.4315
 4245SOL    HW113898   4.548   6.244   4.447  1.4411 -0.2957  0.5352
 4245SOL    HW213899   4.584   6.181   4.313 -1.8306 -0.0679 -0.5419
 4246SOL     OW13900   8.011   1.695   3.922  0.0097  0.3095 -0.4190
 4246SOL    HW113901   8.040   1.607   3.899  1.1813  1.0593 -2.0032
 4246SOL    HW213902   7.947   1.718   3.854 -1.3164  0.2300  0.7375
 4247SOL     OW13903   5.612   8.394   7.778 -0.3724 -0.0093  0.1121
 4247SOL    HW113904   5.557   8.319   7.801 -1.3311 -0.0250 -1.9618
 4247SOL    HW213905   5.663   8.363   7.702 -0.0159  1.0965 -0.1143
 4248SOL     OW13906   5.344   0.024   0.789  0.2718  0.3475  0.6446
 4248SOL    HW113907   5.340   0.022   0.693  0.4542  0.0363  0.6409
 4248SOL    HW213908   5.261  -0.014   0.817  0.2184  0.4387  0.6090
 4249SOL     OW13909   1.725   5.368   0.867 -0.5109 -0.2480 -0.6622
 4249SOL    HW113910   1.704   5.319   0.787 -0.0459 -0.3891 -0.7017
 4249SOL    HW213911   1.648   5.423   0.882 -0.2233  0.5013 -1.7475
 4250SOL     OW13912   7.558   5.465   1.701  0.2516 -0.0683  0.0265
 4250SOL    HW113913   7.545   5.517   1.779 -0.3585 -0.8708  0.4808
 4250SOL    HW213914   7.564   5.529   1.630  0.4789  0.6498  0.6797
 4251SOL     OW13915   3.031   3.559   7.259  0.6296  0.4529  0.0966
 4251SOL    HW113916   2.965   3.618   7.222  0.4690 -0.2663 -0.7758
 4251SOL    HW213917   3.098   3.553   7.191  1.0304  0.2626  0.5094
 4252SOL     OW13918   6.888   7.746   2.547 -0.2912  0.5694 -0.3461
 4252SOL    HW113919   6.915   7.836   2.564 -1.5039  0.7034  1.1160
 4252SOL    HW213920   6.957   7.693   2.587 -1.2277  0.8923  1.8131
 4253SOL     OW13921   8.335   6.592   3.356 -0.0112  0.3375  0.1606
 4253SOL    HW113922   8.266   6.551   3.305 -0.1628 -0.5562  1.0621
 4253SOL    HW213923   8.415   6.576   3.306  0.0819 -1.9155  0.9185
 4254SOL     OW13924   6.259   7.715   7.134 -0.0321  0.4367 -0.2512
 4254SOL    HW113925   6.336   7.739   7.083 -1.2246 -0.2695 -2.4898
 4254SOL    HW213926   6.277   7.625   7.163  0.3070  0.5598 -0.0712
 4255SOL     OW13927   1.530   8.110   3.391 -0.0544  0.4117  0.6794
 4255SOL    HW113928   1.468   8.149   3.328  1.2950  0.2645 -0.8000
 4255SOL    HW213929   1.544   8.021   3.358  0.2306  0.1348  1.5390
 4256SOL     OW13930   8.757   5.591   5.454 -0.2981 -0.1033 -0.2969
 4256SOL    HW113931   8.824   5.624   5.395  0.3264 -1.7265 -0.5687
 4256SOL    HW213932   8.806   5.540   5.519 -1.1246  0.1690  0.5588
 4257SOL     OW13933   1.502   2.814   1.417  0.0357  0.0472  0.2170
 4257SOL    HW113934   1.441   2.885   1.436 -0.5023  0.6562 -3.2075
 4257SOL    HW213935   1.447   2.741   1.390  0.7258 -0.2746 -0.3499
 4258SOL     OW13936   8.701   0.667   2.416  0.0216  0.2423 -0.0375
 4258SOL    HW113937   8.770   0.601   2.411 -1.5959 -1.5758  0.2828
 4258SOL    HW213938   8.675   0.682   2.324 -1.1367 -1.3542 -0.0180
 4259SOL     OW13939   5.686   2.598   0.304  0.2305  0.3193 -0.4783
 4259SOL    HW113940   5.757   2.663   0.304  1.0691 -0.5446 -1.3142
 4259SOL    HW213941   5.662   2.589   0.396  1.3962  0.4622 -0.1344
 4260SOL     OW13942   4.827   5.696   6.169 -0.1016  0.4566  0.3215
 4260SOL    HW113943   4.741   5.656   6.161  0.4680 -0.7248 -0.3058
 4260SOL    HW213944   4.863   5.659   6.250 -0.6982  2.0280  1.3393
 4261SOL     OW13945   2.381   4.761   8.743  0.2932 -0.1191  0.7714
 4261SOL    HW113946   2.322   4.790   8.673  1.1036  0.3284  0.2652
 4261SOL    HW213947   2.466   4.752   8.700  0.3600 -1.9984  1.2010
 4262SOL     OW13948   3.409   6.264   3.050 -0.3659 -0.3700  1.1860
 4262SOL    HW113949   3.441   6.336   3.105 -0.8045  1.3662 -0.6865
 4262SOL    HW213950   3.335   6.302   3.003  0.3251 -1.5405 -1.0018
 4263SOL     OW13951   4.900   8.551   5.444  0.2296  0.1388 -0.1586
 4263SOL    HW113952   4.975   8.608   5.458  1.7722 -1.8590  0.1734
 4263SOL    HW213953   4.836   8.579   5.510  0.5141  2.0666 -0.6482
 4264SOL     OW13954   6.126   7.709   1.925 -0.1272 -0.2894 -0.5166
 4264SOL    HW113955   6.043   7.676   1.961 -0.6583  0.1370 -1.3295
 4264SOL    HW213956   6.172   7.745   2.001 -0.7270 -0.4339 -0.0749
 4265SOL     OW13957   0.451   6.807   7.483 -0.6516 -0.0310 -1.1034
 4265SOL    HW113958   0.374   6.831   7.534  0.7105  1.4898  0.3755
 4265SOL    HW213959   0.473   6.887   7.434 -0.6310 -0.7901 -2.3959
 4266SOL     OW13960   0.151   1.607   5.952  0.4217  0.1420 -0.3591
 4266SOL    HW113961   0.200   1.662   6.013  0.4641  1.5287 -1.5800
 4266SOL    HW213962   0.078   1.572   6.004  0.3267  1.4722  0.4397
 4267SOL     OW13963   3.595   5.332   2.674  0.4305 -0.3974 -0.3449
 4267SOL    HW113964   3.611   5.284   2.756 -0.0597 -0.2285 -0.1460
 4267SOL    HW213965   3.656   5.406   2.679 -0.3343  0.2003  0.3718
 4268SOL     OW13966   3.886   5.563   0.887 -0.2354 -0.3356 -0.0470
 4268SOL    HW113967   3.905   5.598   0.800 -1.7968  2.0583  0.4807
 4268SOL    HW213968   3.941   5.485   0.894 -0.1001 -0.6298 -3.1680
 4269SOL     OW13969   6.828   0.216   3.303 -0.2411  0.3468 -0.2064
 4269SOL    HW113970   6.824   0.120   3.294 -0.9781  0.2995  0.4974
 4269SOL    HW213971   6.743   0.246   3.272 -0.8544  0.5781  1.5727
 4270SOL     OW13972   6.141   2.059   1.896  0.2062 -0.4167  0.3404
 4270SOL    HW113973   6.220   2.095   1.934 -0.6780 -0.0344  1.8917
 4270SOL    HW213974   6.117   1.987   1.954 -0.1618 -1.0278 -0.5489
 4271SOL     OW13975   6.205   7.934   3.502  0.0448  0.3503 -0.0681
 4271SOL    HW113976   6.143   8.007   3.509  0.6296  0.9341 -0.6960
 4271SOL    HW213977   6.200   7.889   3.586 -0.6355  0.8737  0.1773
 4272SOL     OW13978   1.936   8.627   2.988  0.1303 -0.5702  0.1678
 4272SOL    HW113979   1.881   8.651   3.062  0.2864 -2.4048  0.9295
 4272SOL    HW213980   1.874   8.608   2.917 -0.1679 -1.2752  0.6046
 4273SOL     OW13981   7.842   3.820   0.462  0.5066 -0.1747 -0.0576
 4273SOL    HW113982   7.813   3.734   0.431 -0.4380  0.1032  0.0138
 4273SOL    HW213983   7.854   3.872   0.383  1.4116 -0.4646 -0.1196
 4274SOL     OW13984   7.218   1.362   4.897  0.0837 -0.0093  0.0640
 4274SOL    HW113985   7.226   1.455   4.921  2.8665 -0.3048  0.6013
 4274SOL    HW213986   7.130   1.355   4.861  1.0851  3.8416 -4.1624
 4275SOL     OW13987   2.136   6.050   0.880  0.3839  0.1856 -0.4248
 4275SOL    HW113988   2.150   6.013   0.793  1.0682  0.1503 -0.3070
 4275SOL    HW213989   2.183   6.134   0.877  0.0673  0.3716 -0.2181
 4276SOL     OW13990   7.804   5.397   7.160  0.2504  0.4100  0.1278
 4276SOL    HW113991   7.814   5.451   7.239  0.1645 -0.9342  1.0887
 4276SOL    HW213992   7.893   5.364   7.143  0.1401  0.1577  0.0475
 4277SOL     OW13993   5.370   5.282   2.458  0.2460 -0.0151 -0.3518
 4277SOL    HW113994   5.323   5.229   2.394  1.9384 -4.3530  1.6323
 4277SOL    HW213995   5.306   5.296   2.529  0.6365 -2.5540  0.6107
 4278SOL     OW13996   0.524   2.970   2.865 -0.3269 -0.1020  0.3342
 4278SOL    HW113997   0.439   2.931   2.883  0.6301 -1.8484  1.2448
 4278SOL    HW213998   0.527   3.048   2.921 -1.6379  0.4817 -0.3635
 4279SOL     OW13999   2.926   3.259   6.250  0.3055 -0.4329 -0.7748
 4279SOL    HW114000   2.921   3.227   6.160 -1.8530 -1.4641 -0.3470
 4279SOL    HW214001   3.006   3.220   6.285  1.1553 -0.0436 -2.2020
 4280SOL     OW14002   6.297   3.179   4.167  0.0116  0.4505 -0.3328
 4280SOL    HW114003   6.323   3.092   4.139  1.5092  0.8627 -0.2650
 4280SOL    HW214004   6.211   3.166   4.207  1.0373 -1.3369  1.4685
 4281SOL     OW14005   0.062   5.329   5.241  0.1249 -0.3727  0.2242
 4281SOL    HW114006   0.044   5.420   5.264 -1.2946 -0.8076  0.9323
 4281SOL    HW214007   0.044   5.324   5.147  0.9959  0.2373  0.0053
 4282SOL     OW14008   6.052   5.749   7.117 -0.0823  0.3940  0.3966
 4282SOL    HW114009   6.066   5.724   7.208 -1.4380  0.3210  0.6034
 4282SOL    HW214010   6.051   5.845   7.119  1.9883  0.4805  0.0910
 4283SOL     OW14011   4.430   4.928   4.690  0.0129 -0.3562 -0.3371
 4283SOL    HW114012   4.384   4.865   4.745  0.1984  0.1372  0.4055
 4283SOL    HW214013   4.523   4.909   4.704  0.0724  0.1159 -0.0469
 4284SOL     OW14014   0.824   6.586   2.681  0.2698  0.3415 -0.0488
 4284SOL    HW114015   0.781   6.594   2.767 -0.3938 -3.9222  0.2618
 4284SOL    HW214016   0.915   6.561   2.702  0.1769 -0.4563 -0.5343
 4285SOL     OW14017   8.382   5.261   2.673 -0.5161 -0.0301 -0.6451
 4285SOL    HW114018   8.427   5.253   2.757 -0.1879  0.5517 -0.7631
 4285SOL    HW214019   8.326   5.184   2.668 -0.3222 -0.2101 -0.0189
 4286SOL     OW14020   6.441   6.337   3.959 -0.3376 -0.4581  0.2653
 4286SOL    HW114021   6.479   6.287   4.031  4.1159 -1.1242 -2.1916
 4286SOL    HW214022   6.406   6.270   3.900  1.0382 -0.4174 -0.6515
 4287SOL     OW14023   3.170   2.151   0.016  0.7947  0.0336  0.1592
 4287SOL    HW114024   3.084   2.109   0.017  1.5435 -1.5611  0.2475
 4287SOL    HW214025   3.225   2.095   0.070  1.7765  1.3194  0.5400
 4288SOL     OW14026   4.572   6.261   7.545  0.5864 -0.3299 -0.7332
 4288SOL    HW114027   4.653   6.215   7.524  1.4392  0.6623  0.2433
 4288SOL    HW214028   4.601   6.349   7.571 -0.8980  0.4354 -1.5438
 4289SOL     OW14029   0.162   5.177   7.025  0.2846  0.2684 -0.2996
 4289SOL    HW114030   0.107   5.245   7.065 -1.2769 -1.1744  0.1205
 4289SOL    HW214031   0.242   5.177   7.078 -0.0463  1.1867  0.2321
 4290SOL     OW14032   5.937   3.607   6.118  0.6018 -0.1936  0.3491
 4290SOL    HW114033   5.963   3.645   6.034  0.3602  0.3926  0.5328
 4290SOL    HW214034   5.909   3.518   6.097  0.6819 -0.0959 -0.1706
 4291SOL     OW14035   3.779   5.121   4.504 -0.6700 -0.3240 -0.5043
 4291SOL    HW114036   3.781   5.204   4.458 -0.8041 -0.1608 -0.2166
 4291SOL    HW214037   3.867   5.111   4.541 -0.8569  0.0281  0.0527
 4292SOL     OW14038   0.807   6.222   3.757  0.0326 -0.2530 -0.4225
 4292SOL    HW114039   0.721   6.260   3.739  0.3927  0.2245 -1.1512
 4292SOL    HW214040   0.870   6.285   3.722  0.6754 -0.7610 -0.2064
 4293SOL     OW14041   6.737   5.660   2.037  0.1642  0.2424  0.0114
 4293SOL    HW114042   6.654   5.703   2.058 -0.3964 -0.5266 -0.6098
 4293SOL    HW214043   6.756   5.605   2.114 -0.4267 -0.3614 -0.2660
 4294SOL     OW14044   6.109   7.515   2.293 -0.3676 -0.4086  0.4204
 4294SOL    HW114045   6.074   7.428   2.276  0.1192 -0.8177  1.4217
 4294SOL    HW214046   6.203   7.507   2.272 -0.6203  0.3721 -1.1802
 4295SOL     OW14047   1.018   0.851   4.868  0.2031 -0.3360 -0.0901
 4295SOL    HW114048   1.103   0.885   4.895 -0.4177 -0.6583  2.6114
 4295SOL    HW214049   1.028   0.830   4.775  2.4634  1.3686 -0.3070
 4296SOL     OW14050   4.662   5.920   6.814  0.2842 -0.0715  0.0763
 4296SOL    HW114051   4.745   5.968   6.821  1.5928 -2.0572 -0.8639
 4296SOL    HW214052   4.679   5.855   6.746 -1.2731 -2.1041  1.5586
 4297SOL     OW14053   2.512   3.070   0.166 -0.0922  0.0469 -0.4743
 4297SOL    HW114054   2.526   3.162   0.143  0.1068  0.0844 -0.2089
 4297SOL    HW214055   2.418   3.062   0.178  0.0477  0.7515  1.6727
 4298SOL     OW14056   5.997   8.342   4.017 -0.0649 -0.3098  0.1277
 4298SOL    HW114057   5.994   8.392   3.935  1.3929 -0.5942 -0.1283
 4298SOL    HW214058   5.948   8.262   3.999 -3.9053  1.6005  1.0490
 4299SOL     OW14059   2.783   3.890   3.931  0.6921 -0.2758 -0.0058
 4299SOL    HW114060   2.822   3.898   4.018  0.9918 -0.0124 -0.1635
 4299SOL    HW214061   2.692   3.917   3.943  1.2266  1.6880 -0.1602
 4300SOL     OW14062   7.166   2.979   8.829 -0.1600  0.5676 -0.5705
 4300SOL    HW114063   7.241   2.921   8.814 -2.2711 -2.1973 -1.1504
 4300SOL    HW214064   7.153   2.978   8.923 -1.8194 -2.2899 -0.7316
 4301SOL     OW14065   1.595   3.111   3.381 -0.2367  0.2818 -0.4447
 4301SOL    HW114066   1.577   3.017   3.393 -2.3269  0.4273 -1.8799
 4301SOL    HW214067   1.532   3.154   3.439  0.7771  0.8170  0.2745
 4302SOL     OW14068   3.251   6.678   0.105 -0.2915 -0.5159 -0.0598
 4302SOL    HW114069   3.337   6.715   0.125 -1.8138  2.6871  1.2406
 4302SOL    HW214070   3.242   6.603   0.164  0.7379  0.4373  1.3457
 4303SOL     OW14071   7.721   7.014   4.430 -0.3571  0.1464 -0.1198
 4303SOL    HW114072   7.780   7.041   4.501  0.1065 -1.3041  0.0783
 4303SOL    HW214073   7.705   7.095   4.381  1.6547  0.6337 -0.0798
 4304SOL     OW14074   5.968   7.818   7.653 -0.4920 -0.0820 -0.4251
 4304SOL    HW114075   6.054   7.775   7.655 -0.6733 -0.5373 -1.4509
 4304SOL    HW214076   5.914   7.767   7.713 -0.2612 -0.2879 -0.3906
 4305SOL     OW14077   4.100   8.092   4.016  0.1809  0.3520  0.0552
 4305SOL    HW114078   4.134   8.135   4.094 -1.1067 -0.1314  0.9192
 4305SOL    HW214079   4.065   8.163   3.963 -0.7246  0.5272  0.8536
 4306SOL     OW14080   3.040   8.131   4.926 -0.6864  0.3835 -0.2339
 4306SOL    HW114081   3.055   8.057   4.867 -1.1241  0.1250 -0.0280
 4306SOL    HW214082   3.024   8.091   5.011  0.0904  0.7661  0.0930
 4307SOL     OW14083   2.358   4.858   7.143  0.1387  0.4045 -0.3941
 4307SOL    HW114084   2.377   4.836   7.234  0.2386 -0.6021 -0.6499
 4307SOL    HW214085   2.264   4.872   7.141  0.0009 -0.4521 -0.3020
 4308SOL     OW14086   0.824   3.181   4.052 -0.4785 -0.4619 -0.4691
 4308SOL    HW114087   0.887   3.253   4.055 -0.1051 -0.7722 -0.7275
 4308SOL    HW214088   0.858   3.116   4.114 -1.3792  0.0248  0.5731
 4309SOL     OW14089   4.691   2.948   1.610 -0.1511  0.6952 -0.4136
 4309SOL    HW114090   4.741   2.884   1.560 -0.2007  0.4579 -0.1625
 4309SOL    HW214091   4.625   2.981   1.549 -0.1403  0.4886 -0.5363
 4310SOL     OW14092   5.809   5.940   2.274  0.0046  0.3543 -0.8091
 4310SOL    HW114093   5.772   5.858   2.306 -2.3717  0.7979 -2.2154
 4310SOL    HW214094   5.793   6.003   2.344  2.3498 -0.3917  0.5253
 4311SOL     OW14095   2.315   6.529   0.463 -0.0059  0.0170  0.1683
 4311SOL    HW114096   2.347   6.618   0.447  0.6502 -0.2086  0.1994
 4311SOL    HW214097   2.220   6.539   0.470  0.1861  1.0378  2.1412
 4312SOL     OW14098   0.784   6.497   5.551  0.0621  0.2367 -0.8643
 4312SOL    HW114099   0.802   6.562   5.620  0.0092 -1.0165  0.3823
 4312SOL    HW214100   0.707   6.532   5.505 -0.1790  0.8935  0.0012
 4313SOL     OW14101   0.838   1.977   0.397  0.3904 -0.0015  0.1503
 4313SOL    HW114102   0.855   2.064   0.361 -0.5338  0.5874  1.0772
 4313SOL    HW214103   0.749   1.956   0.370  0.6890 -0.7796 -0.2691
 4314SOL     OW14104   7.960   5.297   0.043 -0.6005 -0.2832  0.0908
 4314SOL    HW114105   8.053   5.316   0.052 -0.9399  1.7921 -0.1131
 4314SOL    HW214106   7.946   5.287  -0.051 -0.5995 -0.4376  0.1079
 4315SOL     OW14107   1.321   0.808   3.460 -0.0286 -0.1649  0.3628
 4315SOL    HW114108   1.384   0.836   3.527  1.6673 -2.2997 -0.2203
 4315SOL    HW214109   1.290   0.723   3.491 -1.1337 -0.0390 -0.3624
 4316SOL     OW14110   3.523   8.592   0.631 -0.0984  0.4357 -0.0196
 4316SOL    HW114111   3.494   8.581   0.540 -1.0710 -0.5813  0.4005
 4316SOL    HW214112   3.618   8.595   0.625 -0.1658  1.6639 -1.1950
 4317SOL     OW14113   2.195   0.610   3.172 -0.4016 -0.1604 -0.1809
 4317SOL    HW114114   2.238   0.696   3.171 -0.0761 -0.3136  0.3372
 4317SOL    HW214115   2.190   0.585   3.080 -0.5231  0.4272 -0.3397
 4318SOL     OW14116   1.449   3.149   2.924 -0.0817 -0.1326  0.4522
 4318SOL    HW114117   1.504   3.093   2.979  0.8389  2.1227  1.9775
 4318SOL    HW214118   1.373   3.095   2.904  0.4266 -1.6942  2.3991
 4319SOL     OW14119   5.023   1.693   4.250  0.3105 -0.1359  0.0074
 4319SOL    HW114120   4.933   1.720   4.233  0.7840  0.2007 -2.1735
 4319SOL    HW214121   5.017   1.641   4.330 -1.9159 -0.7239 -0.4755
 4320SOL     OW14122   5.185   7.345   0.762 -0.7481 -0.5339  0.2530
 4320SOL    HW114123   5.113   7.401   0.736 -1.4453 -1.1247  0.8435
 4320SOL    HW214124   5.252   7.358   0.696 -0.9431  0.8876  0.3152
 4321SOL     OW14125   3.749   0.923   8.150  0.3576 -0.2012  0.1018
 4321SOL    HW114126   3.662   0.931   8.191 -0.4840  0.3378 -1.6686
 4321SOL    HW214127   3.732   0.934   8.056  2.3828  0.1315 -0.2730
 4322SOL     OW14128   6.881   8.795   7.868 -0.2780  0.2396  0.2092
 4322SOL    HW114129   6.816   8.725   7.874  0.4965 -0.5764 -0.5142
 4322SOL    HW214130   6.834   8.869   7.831 -0.9346 -0.1456  0.2629
 4323SOL     OW14131   6.385   3.474   6.777  0.2429  0.2277 -0.1650
 4323SOL    HW114132   6.410   3.405   6.838  0.0873 -0.0057 -0.3661
 4323SOL    HW214133   6.461   3.534   6.777  0.1971  0.2903  0.3368
 4324SOL     OW14134   0.005   0.626   4.648  0.0663 -0.0486 -0.4266
 4324SOL    HW114135   0.075   0.635   4.712 -0.1693  0.9677 -0.3091
 4324SOL    HW214136  -0.035   0.541   4.668  0.4557 -0.0663  0.3007
 4325SOL     OW14137   0.759   6.948   1.041  0.0635  0.3159 -0.0617
 4325SOL    HW114138   0.756   6.984   1.129 -0.8524 -0.1767  0.1242
 4325SOL    HW214139   0.799   6.861   1.052 -0.4482  0.0799 -0.0673
 4326SOL     OW14140   7.813   5.662   5.807  0.1394 -0.4701  0.3007
 4326SOL    HW114141   7.768   5.723   5.748  0.9824 -0.3658 -0.2489
 4326SOL    HW214142   7.754   5.654   5.882 -0.0613  0.9056  0.3182
 4327SOL     OW14143   8.157   2.810   6.194 -0.4274 -0.1761 -0.2768
 4327SOL    HW114144   8.190   2.734   6.146 -0.2924  1.4918 -3.0369
 4327SOL    HW214145   8.196   2.885   6.150 -0.3753  1.5687  2.4715
 4328SOL     OW14146   0.630   2.386   1.767  0.5279 -0.4043 -0.1297
 4328SOL    HW114147   0.642   2.409   1.675  1.7108  0.8087  0.3067
 4328SOL    HW214148   0.593   2.465   1.807 -1.8550 -1.5337  0.1071
 4329SOL     OW14149   5.230   6.958   4.986  0.2312  0.0795  0.0117
 4329SOL    HW114150   5.219   6.863   4.978 -1.0907  0.2292 -0.0300
 4329SOL    HW214151   5.143   6.991   5.005  0.3803  1.4495 -1.4512
 4330SOL     OW14152   0.706   4.959   2.851 -0.7311  0.2843  0.3673
 4330SOL    HW114153   0.739   4.962   2.941 -0.7503  0.4237  0.3696
 4330SOL    HW214154   0.776   4.997   2.798 -1.0681  1.0039  0.4258
 4331SOL     OW14155   8.793   4.438   4.441 -0.4545  0.0727 -0.5070
 4331SOL    HW114156   8.791   4.509   4.505  1.4655 -0.3798  0.1080
 4331SOL    HW214157   8.781   4.358   4.494  1.8449 -0.3605 -0.5644
 4332SOL     OW14158   2.510   1.245   3.286  0.6188  0.0222  0.7905
 4332SOL    HW114159   2.477   1.327   3.325 -1.5988 -1.0010  1.2198
 4332SOL    HW214160   2.591   1.271   3.241 -0.1209  2.4916  0.7178
 4333SOL     OW14161   4.768   4.613   8.824  0.5743 -0.9152 -0.4358
 4333SOL    HW114162   4.832   4.680   8.799  1.2611 -0.8549  1.3430
 4333SOL    HW214163   4.813   4.530   8.808  0.9650 -0.8785  0.4193
 4334SOL     OW14164   7.103   0.083   0.438  0.1705 -0.3868 -0.9183
 4334SOL    HW114165   7.103  -0.004   0.478 -1.9814 -0.0954 -0.1668
 4334SOL    HW214166   7.089   0.143   0.512 -0.1387  0.4592 -1.6507
 4335SOL     OW14167   7.755   0.106   0.997 -0.3091 -0.4813  0.2166
 4335SOL    HW114168   7.840   0.071   1.024  0.2622  0.8718  0.2816
 4335SOL    HW214169   7.773   0.198   0.976 -2.0599  0.2969  1.7947
 4336SOL     OW14170   0.899   6.687   1.014 -0.4581 -0.0740 -0.0325
 4336SOL    HW114171   0.963   6.758   1.022 -0.1087 -0.6066  3.4956
 4336SOL    HW214172   0.940   6.624   0.954 -0.0399  1.8309 -1.8827
 4337SOL     OW14173   7.228   1.512   1.415  0.1054 -0.2325  0.1130
 4337SOL    HW114174   7.258   1.448   1.351 -0.0409 -0.5915  0.3985
 4337SOL    HW214175   7.215   1.462   1.495 -2.2911 -0.3126 -0.2639
 4338SOL     OW14176   1.228   7.249   2.174  0.7066  0.3162 -0.0510
 4338SOL    HW114177   1.312   7.209   2.147  0.4533 -0.6762  0.6014
 4338SOL    HW214178   1.183   7.266   2.091  1.6306  1.0713 -0.4267
 4339SOL     OW14179   4.271   6.292   6.366 -0.5144  0.0403 -0.4483
 4339SOL    HW114180   4.290   6.378   6.403 -0.0095 -0.0251 -0.5509
 4339SOL    HW214181   4.238   6.240   6.439  0.5360 -0.1096 -0.0771
 4340SOL     OW14182   5.695   1.293   4.585 -0.0024 -0.2499 -0.4764
 4340SOL    HW114183   5.750   1.240   4.527 -2.3835 -3.6381  0.0479
 4340SOL    HW214184   5.669   1.368   4.532 -0.7665 -2.3709 -3.3409
 4341SOL     OW14185   6.123   3.757   7.192 -0.2064 -0.2182  0.2649
 4341SOL    HW114186   6.040   3.802   7.174 -0.2287 -0.0020  0.8865
 4341SOL    HW214187   6.097   3.667   7.215 -0.1494 -0.6323 -1.1695
 4342SOL     OW14188   5.745   5.735   3.443  0.4829 -0.8934  0.1120
 4342SOL    HW114189   5.742   5.640   3.456  0.2957 -1.0703 -1.0554
 4342SOL    HW214190   5.837   5.758   3.454  0.5503 -1.2266  0.2733
 4343SOL     OW14191   4.921   5.618   3.438 -0.3397  0.0110 -0.7678
 4343SOL    HW114192   4.955   5.681   3.376 -1.4312  0.5063 -0.8999
 4343SOL    HW214193   4.942   5.532   3.401  0.1584  0.3003 -1.1549
 4344SOL     OW14194   6.080   7.443   8.032 -0.0678  0.0955 -0.1637
 4344SOL    HW114195   6.140   7.518   8.033 -2.1158  1.8330 -1.2253
 4344SOL    HW214196   5.993   7.481   8.023 -1.3607 -2.3591  0.8363
 4345SOL     OW14197   5.673   8.564   5.332 -0.3948  0.3664 -0.4138
 4345SOL    HW114198   5.759   8.577   5.291 -0.5023  0.4893 -0.6002
 4345SOL    HW214199   5.664   8.638   5.391  1.0110 -1.2494  2.0180
 4346SOL     OW14200   8.468   2.443   5.002 -0.2382 -0.3397 -0.3713
 4346SOL    HW114201   8.445   2.449   4.909  0.2202 -2.4426 -0.6754
 4346SOL    HW214202   8.562   2.421   5.002 -0.1842 -0.1461  0.5997
 4347SOL     OW14203   1.249   4.694   1.230 -0.4791 -0.1956 -0.2456
 4347SOL    HW114204   1.215   4.729   1.147 -1.3322 -0.6912 -0.1152
 4347SOL    HW214205   1.338   4.667   1.209 -0.8004 -0.6449 -1.1022
 4348SOL     OW14206   2.183   0.568   1.959  0.5349 -0.1822  0.3834
 4348SOL    HW114207   2.261   0.522   1.988 -0.4068 -1.3297  1.2128
 4348SOL    HW214208   2.176   0.547   1.866  0.8141 -0.6914  0.4754
 4349SOL     OW14209   8.344   6.190   3.577 -0.1988  0.1835 -0.1550
 4349SOL    HW114210   8.321   6.202   3.669  1.6706  0.3058  0.3353
 4349SOL    HW214211   8.378   6.275   3.549  2.1998 -0.6628 -0.0078
 4350SOL     OW14212   8.270   1.561   0.870  0.3936  0.6285  0.3564
 4350SOL    HW114213   8.267   1.639   0.815  2.7305 -1.4010 -3.0379
 4350SOL    HW214214   8.192   1.511   0.844 -0.1763  1.0201  1.2644
 4351SOL     OW14215   7.327   3.071   0.242  0.1402  0.0440 -0.0385
 4351SOL    HW114216   7.410   3.071   0.195 -0.1332  1.2280 -0.5303
 4351SOL    HW214217   7.300   2.979   0.241  0.9186 -0.1930 -0.7874
 4352SOL     OW14218   2.407   7.985   4.092 -0.5695  0.1816 -0.0004
 4352SOL    HW114219   2.400   7.989   4.187  3.4623 -0.1733  0.5039
 4352SOL    HW214220   2.387   8.073   4.062 -1.6563  0.3543  1.1858
 4353SOL     OW14221   5.306   4.501   6.508  0.5781  0.0628 -0.2432
 4353SOL    HW114222   5.367   4.565   6.470  0.1042 -0.1064 -1.3243
 4353SOL    HW214223   5.238   4.554   6.549  0.1563  0.2726 -1.1874
 4354SOL     OW14224   4.531   3.379   4.834 -0.2343  0.7815 -0.0579
 4354SOL    HW114225   4.560   3.335   4.754  2.0983 -0.3375  1.2735
 4354SOL    HW214226   4.438   3.358   4.841 -0.6220  1.3478 -2.6876
 4355SOL     OW14227   5.980   1.362   5.694 -0.1176  0.1057 -0.1835
 4355SOL    HW114228   5.915   1.432   5.693  0.2703  0.5429  1.6096
 4355SOL    HW214229   6.010   1.358   5.785  1.1668 -1.1956 -0.6182
 4356SOL     OW14230   4.860   1.845   0.508  0.6343  0.1613  0.5560
 4356SOL    HW114231   4.875   1.931   0.548 -0.1063  0.3956  0.3540
 4356SOL    HW214232   4.892   1.854   0.418  2.9325 -0.5730  1.2449
 4357SOL     OW14233   4.731   5.030   0.259  0.2754  0.2198 -0.3481
 4357SOL    HW114234   4.684   5.060   0.337  2.0944  0.0991  0.8635
 4357SOL    HW214235   4.786   5.105   0.234  1.3433 -0.4708 -0.1523
 4358SOL     OW14236   3.603   2.765   1.622  0.0910 -0.6566  0.0802
 4358SOL    HW114237   3.696   2.768   1.642 -0.1835  0.8001  1.3250
 4358SOL    HW214238   3.580   2.856   1.600 -0.8868 -1.1342 -1.0263
 4359SOL     OW14239   4.580   8.008   1.255 -0.1550 -0.5180  0.3057
 4359SOL    HW114240   4.531   8.049   1.326  0.9426  0.0586  0.7589
 4359SOL    HW214241   4.648   7.957   1.300 -1.1392 -2.4355 -0.2584
 4360SOL     OW14242   6.796   7.757   8.235 -0.1965 -0.2003 -0.4359
 4360SOL    HW114243   6.801   7.789   8.145  1.9144  0.0219 -0.2898
 4360SOL    HW214244   6.825   7.832   8.289 -3.4709  0.4246  0.6887
 4361SOL     OW14245   1.048   7.013   2.991  0.4216 -0.2628 -0.5664
 4361SOL    HW114246   0.978   6.977   2.937 -0.4014 -0.1216  0.3763
 4361SOL    HW214247   1.027   7.106   2.998  0.3400 -0.3403  0.2532
 4362SOL     OW14248   6.584   4.616   3.868 -0.1994 -0.5756  0.1546
 4362SOL    HW114249   6.508   4.664   3.901  0.1205 -0.6403  1.0140
 4362SOL    HW214250   6.554   4.526   3.858 -0.6063 -0.3431 -0.7953
 4363SOL     OW14251   0.537   6.897   4.277 -0.1316 -0.3770  0.0384
 4363SOL    HW114252   0.553   6.958   4.205 -0.8218  1.0269  1.0346
 4363SOL    HW214253   0.442   6.884   4.277 -0.1548 -0.2520  0.7807
 4364SOL     OW14254   5.203   5.767   7.129 -0.2295  0.0816 -0.1815
 4364SOL    HW114255   5.216   5.848   7.080  0.5168  1.5366  2.2798
 4364SOL    HW214256   5.135   5.788   7.192  0.8463 -0.8080  1.3326
 4365SOL     OW14257   7.073   8.140   7.115  0.1340 -0.7386  0.4148
 4365SOL    HW114258   7.161   8.122   7.081 -0.0931  0.5954 -1.0064
 4365SOL    HW214259   7.019   8.070   7.079  0.3601 -0.7494  0.0890
 4366SOL     OW14260   4.601   3.374   5.853  0.6727  0.3606  0.0609
 4366SOL    HW114261   4.626   3.374   5.761  0.7614  1.4988  0.0776
 4366SOL    HW214262   4.582   3.465   5.874  1.0900  0.1967  1.2844
 4367SOL     OW14263   2.244   0.715   3.715  0.4154  0.1313  0.0947
 4367SOL    HW114264   2.261   0.638   3.661 -2.3186 -1.0469  0.7152
 4367SOL    HW214265   2.181   0.685   3.781  0.6886  2.4602  1.5581
 4368SOL     OW14266   4.414   8.814   0.237  0.1873  0.4829 -0.1446
 4368SOL    HW114267   4.399   8.721   0.222  0.5934  0.1900  1.1517
 4368SOL    HW214268   4.327   8.849   0.258  0.3027  0.0195  1.1777
 4369SOL     OW14269   8.213   1.163   1.193 -0.3024 -0.2047  0.2422
 4369SOL    HW114270   8.260   1.183   1.274  0.2749  0.9666 -0.3644
 4369SOL    HW214271   8.226   1.069   1.181  0.2502 -0.2530  1.1052
 4370SOL     OW14272   0.064   7.105   0.012 -0.6631 -0.3448 -0.0625
 4370SOL    HW114273   0.152   7.116  -0.023 -0.3781  0.9098  0.9554
 4370SOL    HW214274   0.045   7.012   0.003  0.8530 -0.6666 -0.0971
 4371SOL     OW14275   3.798   1.822   7.413  0.1371 -0.2225 -0.4977
 4371SOL    HW114276   3.769   1.732   7.428 -2.8022  0.6289 -0.4114
 4371SOL    HW214277   3.816   1.857   7.500 -1.9749  0.1845 -0.1653
 4372SOL     OW14278   0.303   1.065   4.104  0.1579 -0.2909 -0.4562
 4372SOL    HW114279   0.269   1.143   4.060 -1.3050 -0.3561  0.4547
 4372SOL    HW214280   0.245   0.994   4.076  1.7577 -1.1738 -1.6377
 4373SOL     OW14281   5.695   7.706   5.125 -0.0694  0.3479 -0.2318
 4373SOL    HW114282   5.662   7.692   5.214  0.7558  0.3152  0.0781
 4373SOL    HW214283   5.618   7.734   5.075 -0.7988 -0.8311  0.1936
 4374SOL     OW14284   5.366   4.993   1.009  0.3072  0.0447 -0.0187
 4374SOL    HW114285   5.271   4.999   0.996  0.4089  0.9395 -0.3782
 4374SOL    HW214286   5.402   4.980   0.922  0.5488  0.0834  0.0744
 4375SOL     OW14287   0.066   4.280   2.071  0.1677 -0.0107  0.0427
 4375SOL    HW114288   0.154   4.287   2.035  0.5329  0.4290  0.9693
 4375SOL    HW214289   0.080   4.251   2.162 -0.4451  2.4583  1.0194
 4376SOL     OW14290   5.055   7.183   1.848  0.1379 -0.5877  0.0671
 4376SOL    HW114291   5.051   7.226   1.763  2.2890 -1.2974 -0.4569
 4376SOL    HW214292   5.109   7.105   1.833  0.7414 -0.6300  2.1139
 4377SOL     OW14293   6.831   5.608   8.030  0.5220  0.1393  0.2569
 4377SOL    HW114294   6.772   5.682   8.042  2.6058  2.0321 -0.4865
 4377SOL    HW214295   6.781   5.546   7.978 -0.6936  1.8651 -0.7342
 4378SOL     OW14296   7.230   1.189   8.007  0.4902  0.1720 -0.0690
 4378SOL    HW114297   7.268   1.104   7.982  0.8370  0.7905 -1.8203
 4378SOL    HW214298   7.274   1.252   7.950 -1.5112  1.2102 -0.5407
 4379SOL     OW14299   1.226   3.607   3.072  0.2001 -0.2274  0.5395
 4379SOL    HW114300   1.215   3.513   3.055  0.5432  0.0713 -1.6119
 4379SOL    HW214301   1.142   3.646   3.046  0.2901  0.1343  0.7904
 4380SOL     OW14302   2.133   1.477   4.696 -0.3014 -0.6945 -0.3076
 4380SOL    HW114303   2.111   1.391   4.661  0.5919 -1.2496  0.4645
 4380SOL    HW214304   2.180   1.459   4.777  0.1129  0.5205 -0.2571
 4381SOL     OW14305   4.595   5.829   3.349 -0.2066  0.0832 -0.3945
 4381SOL    HW114306   4.618   5.875   3.269  1.6548 -0.0719  0.0093
 4381SOL    HW214307   4.568   5.742   3.319  0.1528  0.1320 -0.8728
 4382SOL     OW14308   1.083   5.331   0.108  0.4065  0.0518 -0.4783
 4382SOL    HW114309   1.012   5.301   0.165  1.9160  1.6753  2.4857
 4382SOL    HW214310   1.101   5.256   0.051 -1.6406 -1.4799  0.7524
 4383SOL     OW14311   3.146   2.101   4.372  0.5157 -0.6668  0.3822
 4383SOL    HW114312   3.137   2.153   4.452 -1.8977 -0.3223 -0.0441
 4383SOL    HW214313   3.239   2.076   4.371  1.1327  1.1818  2.1005
 4384SOL     OW14314   8.717   4.861   4.098  0.2312  0.2248 -0.2772
 4384SOL    HW114315   8.623   4.879   4.105  0.3594  0.9890 -0.3699
 4384SOL    HW214316   8.738   4.877   4.006  0.4983  0.3046 -0.2028
 4385SOL     OW14317   4.353   2.987   7.951  0.4161  0.4374  0.5402
 4385SOL    HW114318   4.397   3.025   7.875  0.2754 -0.8382 -0.2066
 4385SOL    HW214319   4.346   2.893   7.931 -1.5941  0.4007  1.1219
 4386SOL     OW14320   2.538   5.034   1.514  0.4362 -0.2639  0.1971
 4386SOL    HW114321   2.520   4.974   1.586  0.9100 -0.6929 -0.0329
 4386SOL    HW214322   2.527   4.980   1.435  0.6713  0.0058 -0.0208
 4387SOL     OW14323   8.560   7.912   6.318 -0.1154 -0.0540  0.0037
 4387SOL    HW114324   8.516   7.828   6.305 -0.9789  0.2611  0.8000
 4387SOL    HW214325   8.654   7.890   6.316 -0.3021 -0.8200 -1.0892
 4388SOL     OW14326   7.215   1.864   2.798 -0.3168  0.5443 -0.2701
 4388SOL    HW114327   7.121   1.855   2.778 -0.2572  0.8721 -0.7168
 4388SOL    HW214328   7.257   1.793   2.749 -0.1949  1.2137 -1.1821
 4389SOL     OW14329   6.000   7.183   0.931 -0.1102 -0.3169 -0.2702
 4389SOL    HW114330   5.997   7.098   0.975  0.9776 -0.0019  0.4485
 4389SOL    HW214331   6.028   7.163   0.842  1.4014 -0.6340  0.2360
 4390SOL     OW14332   0.387   1.473   1.049 -0.2523 -0.2421 -0.3279
 4390SOL    HW114333   0.322   1.403   1.043  0.3011 -0.9726  1.3754
 4390SOL    HW214334   0.365   1.520   1.129  0.8102  0.0129 -0.1669
 4391SOL     OW14335   0.869   2.117   4.312  0.2951  0.1951 -0.5823
 4391SOL    HW114336   0.870   2.032   4.357 -0.3106 -0.4026 -1.6530
 4391SOL    HW214337   0.776   2.132   4.291  0.6022  0.2392 -2.0033
 4392SOL     OW14338   6.717   7.926   1.438 -0.0154  0.0984  0.0412
 4392SOL    HW114339   6.721   7.909   1.532 -0.6536 -0.7172 -0.0756
 4392SOL    HW214340   6.764   7.853   1.398  2.8186  1.8667 -0.1793
 4393SOL     OW14341   0.168   8.811   8.050 -0.6988 -0.3697 -0.0727
 4393SOL    HW114342   0.257   8.839   8.070 -0.0845 -1.6275 -0.8983
 4393SOL    HW214343   0.118   8.831   8.129  0.2695  0.5108  0.3350
 4394SOL     OW14344   5.457   7.505   5.556  0.0820 -0.7727  0.2025
 4394SOL    HW114345   5.404   7.584   5.557  0.5615 -0.4398 -0.4466
 4394SOL    HW214346   5.540   7.531   5.515  1.0202 -1.1094  1.7921
 4395SOL     OW14347   1.298   3.988   4.496 -0.0028  0.7408 -0.4066
 4395SOL    HW114348   1.246   3.924   4.546 -1.6186  1.3751 -1.1834
 4395SOL    HW214349   1.367   4.015   4.556 -0.1279 -0.6825  0.4306
 4396SOL     OW14350   4.781   3.316   7.149 -0.4860 -0.2176 -0.1200
 4396SOL    HW114351   4.821   3.253   7.090  0.5150  0.4390 -0.1603
 4396SOL    HW214352   4.825   3.398   7.130 -0.1223  0.0072  1.5323
 4397SOL     OW14353   5.597   8.722   0.472  0.5365 -0.3411 -0.6905
 4397SOL    HW114354   5.667   8.786   0.461 -0.0011  0.4498  0.3541
 4397SOL    HW214355   5.633   8.641   0.437  0.7014  0.8188 -3.5123
 4398SOL     OW14356   7.594   4.760   2.480 -0.1096  0.6163  0.0757
 4398SOL    HW114357   7.556   4.734   2.564 -1.4610 -0.1676 -0.7393
 4398SOL    HW214358   7.639   4.681   2.449  0.0937  0.7987 -0.0952
 4399SOL     OW14359   0.250   2.402   4.625 -0.3342 -0.0013  0.5128
 4399SOL    HW114360   0.319   2.443   4.573 -1.3745  1.1259 -0.0328
 4399SOL    HW214361   0.296   2.360   4.697  0.9422  0.5056  0.0184
 4400SOL     OW14362   0.141   1.698   2.619  0.0176  0.1994  0.2949
 4400SOL    HW114363   0.152   1.616   2.666 -2.4881 -0.1999  0.3254
 4400SOL    HW214364   0.099   1.756   2.683  1.4052  1.4120  0.1514
 4401SOL     OW14365   2.236   1.414   3.829 -0.1988  0.6689  0.5164
 4401SOL    HW114366   2.242   1.408   3.733 -0.8385  2.2269  0.3430
 4401SOL    HW214367   2.327   1.417   3.858  0.2835 -4.3265  0.4339
 4402SOL     OW14368   2.778   2.926   4.491  0.0560  0.6385 -0.5211
 4402SOL    HW114369   2.839   2.902   4.560 -0.8690  0.9587  0.4291
 4402SOL    HW214370   2.692   2.926   4.533 -0.4577  1.4412 -1.5133
 4403SOL     OW14371   5.225   3.961   7.160 -0.1814  0.2530 -0.3449
 4403SOL    HW114372   5.290   4.016   7.116 -0.1125  1.2434  0.9298
 4403SOL    HW214373   5.275   3.912   7.225 -0.5210  0.0920 -0.2043
 4404SOL     OW14374   5.614   2.452   4.881  0.0750 -0.5244  0.0359
 4404SOL    HW114375   5.603   2.359   4.903 -0.8899 -0.3846  0.1906
 4404SOL    HW214376   5.540   2.471   4.823 -1.2763  0.7769  2.0595
 4405SOL     OW14377   8.760   1.013   6.220  0.2400  0.1768  0.2177
 4405SOL    HW114378   8.753   1.107   6.204 -0.0338 -0.0609 -1.1155
 4405SOL    HW214379   8.674   0.977   6.196  1.0585 -0.7123 -1.5162
 4406SOL     OW14380   0.121   5.201   8.022  0.1415  0.0770  0.1279
 4406SOL    HW114381   0.186   5.246   7.969 -0.3218  1.3302  0.5808
 4406SOL    HW214382   0.170   5.135   8.070  1.3506  1.8502  1.4521
 4407SOL     OW14383   4.011   2.832   4.711  0.4611 -0.1789  0.5075
 4407SOL    HW114384   4.095   2.784   4.715  0.5566 -0.1442 -0.6130
 4407SOL    HW214385   4.018   2.898   4.780  0.1032 -2.0996  2.4722
 4408SOL     OW14386   7.612   6.620   7.997 -0.2932 -0.1680 -0.0613
 4408SOL    HW114387   7.615   6.544   7.939 -1.2408  0.7927 -1.4482
 4408SOL    HW214388   7.699   6.660   7.989 -0.3684 -0.1303 -0.7103
 4409SOL     OW14389   3.988   2.191   6.625 -0.0391 -1.0105 -0.6993
 4409SOL    HW114390   3.971   2.175   6.718 -0.0065  2.3315  0.0078
 4409SOL    HW214391   4.079   2.222   6.623 -0.4701  0.2697 -1.6054
 4410SOL     OW14392   1.041   5.822   2.414  1.1125  0.1180 -0.4283
 4410SOL    HW114393   1.092   5.741   2.414  0.8717 -0.0362 -0.3863
 4410SOL    HW214394   1.022   5.838   2.507 -2.3446 -2.0320 -0.5777
 4411SOL     OW14395   0.038   7.648   0.365 -0.3011  0.4389 -0.1848
 4411SOL    HW114396  -0.007   7.650   0.280  2.0973  0.3093 -1.5651
 4411SOL    HW214397   0.095   7.726   0.363  0.9055 -0.3960  0.6254
 4412SOL     OW14398   0.691   2.583   6.786  0.0155 -0.1155  0.6625
 4412SOL    HW114399   0.718   2.673   6.804 -0.4282 -0.1631  1.6430
 4412SOL    HW214400   0.771   2.531   6.798  0.2726  0.1415  0.0930
 4413SOL     OW14401   4.545   4.554   2.322 -0.0354  0.2143  0.0924
 4413SOL    HW114402   4.538   4.632   2.377  0.0693 -0.2735  0.8131
 4413SOL    HW214403   4.473   4.498   2.349  1.3724 -1.0585  1.4423
 4414SOL     OW14404   5.938   5.633   1.124  0.6036 -0.2253 -0.3539
 4414SOL    HW114405   5.847   5.623   1.095 -0.2442  1.3588  1.5241
 4414SOL    HW214406   5.968   5.713   1.080  1.5689 -1.4026 -1.9457
 4415SOL     OW14407   3.065   8.365   0.550 -0.3095  0.3215 -0.1080
 4415SOL    HW114408   3.047   8.278   0.585  5.1249 -1.3458 -0.4368
 4415SOL    HW214409   3.074   8.422   0.626 -0.5470 -0.2501  0.3464
 4416SOL     OW14410   3.991   6.444   3.913 -0.2254  0.3921  0.0902
 4416SOL    HW114411   3.951   6.519   3.869  1.3921  1.2482  0.0005
 4416SOL    HW214412   3.983   6.463   4.006  0.6234  0.9506  0.0622
 4417SOL     OW14413   7.967   3.198   0.941 -0.0073 -0.0113  0.3483
 4417SOL    HW114414   7.970   3.265   0.873  0.2315  0.2488  0.6136
 4417SOL    HW214415   7.874   3.182   0.955 -0.0655  0.2950  0.3154
 4418SOL     OW14416   3.670   7.489   7.152 -0.2785  0.0161 -0.2069
 4418SOL    HW114417   3.580   7.501   7.123 -0.5138  0.3046  0.6147
 4418SOL    HW214418   3.667   7.504   7.246  0.5402 -0.4658 -0.0941
 4419SOL     OW14419   1.500   4.200   6.400  0.5712  0.6143  0.7089
 4419SOL    HW114420   1.503   4.120   6.454 -4.2377 -1.2101 -1.1035
 4419SOL    HW214421   1.536   4.174   6.316  0.0830  0.6756  0.4748
 4420SOL     OW14422   3.810   4.390   3.930 -0.3914  0.2289  0.2078
 4420SOL    HW114423   3.801   4.412   4.023 -1.9075 -0.7856  0.3229
 4420SOL    HW214424   3.743   4.442   3.886  0.4682  0.8795 -0.3798
 4421SOL     OW14425   2.519   2.985   1.751 -0.0539  0.2685 -0.3583
 4421SOL    HW114426   2.536   2.893   1.774 -1.7035  0.3405  1.2897
 4421SOL    HW214427   2.530   2.987   1.656  1.3038 -1.3272 -0.2961
 4422SOL     OW14428   6.407   2.832   4.752  0.6285 -0.3998  0.1472
 4422SOL    HW114429   6.377   2.868   4.668 -1.8170 -0.5370  0.8783
 4422SOL    HW214430   6.502   2.837   4.748  0.5291  2.5398 -1.3637
 4423SOL     OW14431   5.663   8.548   8.683  0.2972 -0.2589  0.5156
 4423SOL    HW114432   5.573   8.540   8.715 -0.3922  0.0693 -1.2177
 4423SOL    HW214433   5.663   8.628   8.631  2.4594  1.5325  3.0505
 4424SOL     OW14434   3.733   6.394   1.839 -0.0370  0.1141 -0.0993
 4424SOL    HW114435   3.749   6.391   1.934  1.0815  0.7350 -0.2442
 4424SOL    HW214436   3.821   6.394   1.801 -0.4570  1.1542 -1.0970
 4425SOL     OW14437   1.700   6.823   7.348  0.1293  0.1388  0.0523
 4425SOL    HW114438   1.677   6.837   7.256  2.0175  1.5700 -0.2684
 4425SOL    HW214439   1.793   6.802   7.347 -0.2108 -1.7109  1.5433
 4426SOL     OW14440   6.398   2.918   0.170 -0.3416  0.0028  0.8305
 4426SOL    HW114441   6.461   2.846   0.167 -1.2372 -0.7832  0.0805
 4426SOL    HW214442   6.319   2.878   0.207 -1.2888  0.2332 -0.8665
 4427SOL     OW14443   4.805   8.050   7.874  0.1108 -0.4747  0.3362
 4427SOL    HW114444   4.880   8.067   7.932 -0.4084  1.6765  0.4469
 4427SOL    HW214445   4.775   8.136   7.848 -1.1091 -1.3523 -1.3340
 4428SOL     OW14446   3.470   5.871   2.244 -0.3218 -0.5971  0.0103
 4428SOL    HW114447   3.482   5.946   2.185 -0.2244 -1.0163 -0.5122
 4428SOL    HW214448   3.386   5.888   2.288 -0.8508 -0.7228 -0.9254
 4429SOL     OW14449   7.697   4.973   7.153  0.4114  0.4280 -0.1177
 4429SOL    HW114450   7.782   4.998   7.189  0.8604 -0.0152 -0.8323
 4429SOL    HW214451   7.644   4.950   7.230  1.5948 -1.2915  0.2638
 4430SOL     OW14452   5.347   8.768   2.485  0.0479  0.2983 -0.0742
 4430SOL    HW114453   5.344   8.757   2.390 -0.3997 -1.1037  0.0695
 4430SOL    HW214454   5.440   8.766   2.507  0.1513  0.6619 -0.4922
 4431SOL     OW14455   7.709   1.618   0.195  0.4278 -0.0724  0.1833
 4431SOL    HW114456   7.686   1.646   0.106 -1.3601  2.8429  1.4194
 4431SOL    HW214457   7.796   1.579   0.186  0.7308  1.0144 -2.6704
 4432SOL     OW14458   4.634   6.694   5.053  0.1614 -0.2802  0.5964
 4432SOL    HW114459   4.680   6.706   5.136  2.4118 -0.8397 -0.4679
 4432SOL    HW214460   4.618   6.782   5.021  2.8505  0.0656 -0.1146
 4433SOL     OW14461   5.143   8.338   4.478  0.3774  0.3535  0.4422
 4433SOL    HW114462   5.096   8.408   4.523  1.1521  0.1208  1.6464
 4433SOL    HW214463   5.145   8.366   4.386 -0.0059  1.5251  0.7790
 4434SOL     OW14464   2.106   2.229   1.292 -0.1719 -0.0819  0.1511
 4434SOL    HW114465   2.076   2.139   1.278 -2.6549  0.5426  0.9775
 4434SOL    HW214466   2.102   2.241   1.387  2.1603  0.3073  0.2606
 4435SOL     OW14467   6.124   2.890   3.428  0.6975 -0.0173 -1.2554
 4435SOL    HW114468   6.143   2.886   3.334  0.5652  1.3928 -1.3621
 4435SOL    HW214469   6.048   2.833   3.440  0.9742 -0.5416 -1.9240
 4436SOL     OW14470   3.802   0.210   2.070 -0.6404 -0.1393  0.4030
 4436SOL    HW114471   3.720   0.161   2.059 -0.4576 -0.9113  2.1257
 4436SOL    HW214472   3.776   0.302   2.070 -1.4529 -0.3644  0.4664
 4437SOL     OW14473   6.708   1.433   8.747 -0.5532 -0.0652  0.1706
 4437SOL    HW114474   6.635   1.489   8.723 -0.5679 -0.1187  0.0892
 4437SOL    HW214475   6.705   1.429   8.843  0.3542  1.2835  0.2739
 4438SOL     OW14476   6.259   4.509   5.409 -0.2941 -0.6211  0.2107
 4438SOL    HW114477   6.319   4.492   5.482 -0.1244  0.9604  0.4675
 4438SOL    HW214478   6.268   4.432   5.352  0.4751 -1.3224  1.2420
 4439SOL     OW14479   1.113   0.978   1.267  0.3686 -0.5793 -0.0315
 4439SOL    HW114480   1.119   0.961   1.173  1.2989  0.3818 -0.1710
 4439SOL    HW214481   1.058   0.908   1.301  0.5124 -1.2865 -1.2042
 4440SOL     OW14482   7.339   6.076   4.544 -0.4491 -0.0198  0.9088
 4440SOL    HW114483   7.390   6.134   4.487 -1.3150  0.1331  0.2825
 4440SOL    HW214484   7.384   6.081   4.629 -1.1629  2.4830  1.2050
 4441SOL     OW14485   0.206   1.313   5.207  0.0039 -0.4571 -0.1810
 4441SOL    HW114486   0.198   1.385   5.145 -0.7528 -1.0182 -0.7546
 4441SOL    HW214487   0.116   1.296   5.237  0.2930 -0.5417  0.6658
 4442SOL     OW14488   6.583   2.421   7.060  0.2793 -0.0959  0.2296
 4442SOL    HW114489   6.490   2.406   7.046  0.0833  2.4487 -2.0216
 4442SOL    HW214490   6.588   2.471   7.142  0.0164 -2.6563  1.8945
 4443SOL     OW14491   4.745   7.673   2.303 -0.4233  0.1908 -0.0335
 4443SOL    HW114492   4.691   7.638   2.232 -1.2565  0.2954  0.5259
 4443SOL    HW214493   4.834   7.669   2.270 -0.8376  0.7635 -1.3176
 4444SOL     OW14494   7.365   2.876   6.548 -0.1360 -0.8405  0.1409
 4444SOL    HW114495   7.284   2.919   6.577 -0.8593 -0.2588 -2.3851
 4444SOL    HW214496   7.422   2.877   6.624 -2.0639 -0.1435  1.6692
 4445SOL     OW14497   5.407   6.971   0.822 -0.5322  0.1343 -0.0371
 4445SOL    HW114498   5.420   7.000   0.732 -0.2541 -1.3594 -0.5129
 4445SOL    HW214499   5.317   6.998   0.844 -1.6338 -1.8477 -1.7597
 4446SOL     OW14500   5.661   2.598   6.285 -0.7396  0.1926 -0.0760
 4446SOL    HW114501   5.653   2.650   6.365 -0.5071  1.0635 -0.6064
 4446SOL    HW214502   5.690   2.512   6.316  1.7020  1.1650  0.6447
 4447SOL     OW14503   7.854   7.429   3.139  0.5396 -0.8410 -0.4560
 4447SOL    HW114504   7.779   7.420   3.080  1.1802 -1.2532 -1.2295
 4447SOL    HW214505   7.856   7.347   3.188  1.2803 -1.4071 -1.4057
 4448SOL     OW14506   0.517   1.465   1.881  0.1388 -0.2514 -0.1068
 4448SOL    HW114507   0.536   1.478   1.974  0.7616 -0.9892 -0.1275
 4448SOL    HW214508   0.603   1.462   1.839 -0.1451  0.4358 -0.7647
 4449SOL     OW14509   0.966   1.765   0.236 -0.0384  0.2698  0.4938
 4449SOL    HW114510   1.033   1.833   0.221  1.5925 -0.8795  2.1627
 4449SOL    HW214511   0.935   1.780   0.325 -0.6758 -0.3374  0.3839
 4450SOL     OW14512   4.515   6.163   8.854 -0.5337  0.0826 -0.2202
 4450SOL    HW114513   4.537   6.118   8.773  1.9507  0.2919  0.2518
 4450SOL    HW214514   4.559   6.248   8.846 -0.5807  0.2553  1.1624
 4451SOL     OW14515   3.292   5.437   2.219 -0.1558 -0.1926  0.2729
 4451SOL    HW114516   3.216   5.450   2.162 -0.1857  0.7900  0.5264
 4451SOL    HW214517   3.355   5.504   2.193  1.5266 -2.2503 -1.3479
 4452SOL     OW14518   6.088   0.046   5.926 -0.3103 -0.1592  0.3415
 4452SOL    HW114519   6.091   0.126   5.979  0.8616  0.3791 -0.4900
 4452SOL    HW214520   6.007   0.002   5.953 -0.1105  0.4505  2.0464
 4453SOL     OW14521   1.566   0.833   1.550 -0.0390 -0.3033  0.1584
 4453SOL    HW114522   1.578   0.742   1.577  0.5756  0.3884  2.3997
 4453SOL    HW214523   1.520   0.875   1.623 -1.6211  0.9036 -1.4235
 4454SOL     OW14524   7.141   2.400   0.467  0.0077 -0.4240  0.3561
 4454SOL    HW114525   7.161   2.325   0.524 -0.7176 -1.1900 -0.3828
 4454SOL    HW214526   7.046   2.399   0.458  0.0294  0.3361 -0.0224
 4455SOL     OW14527   5.434   7.393   1.660  0.1933  0.3317 -0.0704
 4455SOL    HW114528   5.366   7.386   1.594  0.5488  1.5099 -0.5956
 4455SOL    HW214529   5.453   7.487   1.665 -0.1018  0.3490  1.9830
 4456SOL     OW14530   4.488   2.581   5.703  0.1752 -0.0794  1.0868
 4456SOL    HW114531   4.394   2.595   5.691  0.2951  0.1887  0.3685
 4456SOL    HW214532   4.495   2.493   5.739 -0.2855 -0.7670 -0.4117
 4457SOL     OW14533   8.847   2.681   4.965  0.4032 -0.4248 -0.3817
 4457SOL    HW114534   8.856   2.655   5.056  0.3853 -1.4590 -0.6628
 4457SOL    HW214535   8.754   2.669   4.945  0.5775 -1.1662 -0.8010
 4458SOL     OW14536   4.771   7.575   2.567  0.5540 -0.0125 -0.0290
 4458SOL    HW114537   4.771   7.581   2.472  1.8658 -0.9748 -0.1211
 4458SOL    HW214538   4.692   7.525   2.588  1.8324 -2.5974 -0.8924
 4459SOL     OW14539   0.111   0.634   0.423 -0.1246 -0.0827  0.3864
 4459SOL    HW114540   0.059   0.712   0.403 -0.5939 -0.6155 -0.4899
 4459SOL    HW214541   0.166   0.661   0.497 -1.4393  0.5833  1.1695
 4460SOL     OW14542   6.762   7.065   3.968 -0.5465  0.3109 -0.2902
 4460SOL    HW114543   6.819   6.996   4.002 -0.6681 -0.0137 -0.7241
 4460SOL    HW214544   6.716   7.099   4.044  0.6257  0.9582  0.1570
 4461SOL     OW14545   8.142   7.186   8.491  0.1157 -0.4018 -0.1999
 4461SOL    HW114546   8.197   7.108   8.496 -0.0048 -0.5556 -1.0068
 4461SOL    HW214547   8.059   7.155   8.453 -0.2591 -0.0407  0.3027
 4462SOL     OW14548   7.236   1.790   3.157  0.2878  0.5426 -0.2473
 4462SOL    HW114549   7.141   1.795   3.170 -0.1325 -1.1716 -2.1480
 4462SOL    HW214550   7.251   1.836   3.075  1.1409  0.9323  0.1152
 4463SOL     OW14551   0.661   5.451   8.365  0.0929  0.2529  0.0539
 4463SOL    HW114552   0.708   5.530   8.394 -0.7910  0.6795  0.3446
 4463SOL    HW214553   0.689   5.439   8.274  2.2355 -0.6135  0.7600
 4464SOL     OW14554   8.839   4.446   5.212 -0.4923 -0.1594 -0.0332
 4464SOL    HW114555   8.795   4.527   5.186  2.2963  1.6698  0.5176
 4464SOL    HW214556   8.840   4.392   5.133 -0.3466  1.3390 -1.0921
 4465SOL     OW14557   2.823   5.542   0.468  0.0133 -0.1304 -0.2119
 4465SOL    HW114558   2.884   5.519   0.538 -0.9701 -1.6887  0.1929
 4465SOL    HW214559   2.777   5.460   0.448 -2.0099  0.9839 -0.4331
 4466SOL     OW14560   1.797   7.275   7.692 -0.2552  0.2733  0.1560
 4466SOL    HW114561   1.757   7.195   7.659  0.0768  0.3070 -0.3291
 4466SOL    HW214562   1.850   7.247   7.767 -0.3514  0.0788  0.1502
 4467SOL     OW14563   3.837   8.330   0.093 -0.0039 -0.3011  0.2689
 4467SOL    HW114564   3.812   8.351   0.183 -0.2520  1.5299 -0.1906
 4467SOL    HW214565   3.832   8.413   0.046  2.1399 -0.8025 -0.9830
 4468SOL     OW14566   7.857   4.793   3.903 -0.3213  0.2733  0.5325
 4468SOL    HW114567   7.767   4.764   3.893 -0.0209 -0.7171  0.6277
 4468SOL    HW214568   7.902   4.719   3.944  0.4660  0.8667  0.7662
 4469SOL     OW14569   6.921   1.310   4.195  0.2056  0.3319  0.2906
 4469SOL    HW114570   6.860   1.326   4.268 -0.4441 -1.3414  0.1499
 4469SOL    HW214571   6.923   1.393   4.148  1.8359  2.0183  3.0232
 4470SOL     OW14572   4.329   3.751   8.118 -0.4480 -0.0939  0.1426
 4470SOL    HW114573   4.391   3.678   8.109 -1.7406 -1.5062  2.0752
 4470SOL    HW214574   4.301   3.769   8.028  0.6830 -1.2826 -0.4830
 4471SOL     OW14575   8.449   0.245   4.580 -0.7297  0.3390 -0.0578
 4471SOL    HW114576   8.363   0.212   4.554 -0.0151 -3.9101  2.0419
 4471SOL    HW214577   8.435   0.281   4.668 -0.5288  0.2553  0.0101
 4472SOL     OW14578   4.909   7.602   1.884  0.0118  0.3158 -0.0139
 4472SOL    HW114579   4.865   7.533   1.833 -0.4582  1.5995 -1.4299
 4472SOL    HW214580   4.998   7.570   1.895 -0.8748 -1.7916  1.8614
 4473SOL     OW14581   5.908   8.205   4.340 -0.1485  0.1810  0.3683
 4473SOL    HW114582   5.875   8.292   4.321 -1.4259 -0.4023 -0.2292
 4473SOL    HW214583   5.838   8.163   4.391  1.1144  0.0248  2.0613
 4474SOL     OW14584   7.609   2.503   3.652  0.7056  0.1187  0.1361
 4474SOL    HW114585   7.646   2.453   3.726 -0.4336  0.6862  1.1251
 4474SOL    HW214586   7.534   2.549   3.690 -0.1728  0.0822 -1.5006
 4475SOL     OW14587   2.557   5.414   6.544 -0.2483  0.2621 -0.4449
 4475SOL    HW114588   2.523   5.490   6.593  3.4923  2.4535 -0.8497
 4475SOL    HW214589   2.530   5.338   6.595 -2.9757  1.8918  0.7639
 4476SOL     OW14590   2.071   5.211   7.764  0.6214 -0.1408 -0.0358
 4476SOL    HW114591   2.049   5.283   7.704  3.0003 -0.4881 -1.4296
 4476SOL    HW214592   2.158   5.233   7.797  1.0330 -1.9533  0.1687
 4477SOL     OW14593   2.547   2.684   4.786 -0.1609 -0.3898 -0.5132
 4477SOL    HW114594   2.616   2.660   4.725 -0.8392 -0.8049 -1.1377
 4477SOL    HW214595   2.542   2.779   4.781  2.6980  0.0789  2.1389
 4478SOL     OW14596   7.847   8.205   8.540 -0.0674 -0.2679 -0.2163
 4478SOL    HW114597   7.827   8.229   8.450  1.3595  0.8741 -0.2786
 4478SOL    HW214598   7.810   8.118   8.551  0.4699 -0.7834 -2.1868
 4479SOL     OW14599   4.498   0.128   3.960 -0.4357  0.0905  0.5750
 4479SOL    HW114600   4.577   0.100   4.007 -0.5091  0.4333  0.9081
 4479SOL    HW214601   4.532   0.170   3.881 -0.2774  0.4067  0.8100
 4480SOL     OW14602   0.033   2.620   5.977  0.5393  0.1466  0.0354
 4480SOL    HW114603   0.123   2.639   5.951  0.5465  2.9281  1.6807
 4480SOL    HW214604   0.033   2.527   5.999  2.2517 -0.5896 -2.6210
 4481SOL     OW14605   4.727   0.204   7.284  0.3040  0.4452 -0.1849
 4481SOL    HW114606   4.718   0.294   7.252  1.3486  0.8841  0.6716
 4481SOL    HW214607   4.716   0.149   7.207  2.3754  1.4364 -1.2820
 4482SOL     OW14608   1.403   2.024   8.629 -0.1033  0.9773 -0.6506
 4482SOL    HW114609   1.461   2.057   8.560 -0.0335 -0.4220 -1.3087
 4482SOL    HW214610   1.357   1.951   8.587 -0.1153  0.1422  0.7793
 4483SOL     OW14611   8.137   1.874   3.767 -0.1686 -0.3663  0.0679
 4483SOL    HW114612   8.085   1.954   3.768 -1.2756 -1.0697 -0.1242
 4483SOL    HW214613   8.084   1.810   3.813  0.3601 -1.2067 -0.4620
 4484SOL     OW14614   8.529   3.750   8.513 -0.2272 -0.3940 -0.1178
 4484SOL    HW114615   8.490   3.791   8.436 -2.0856 -1.1109  0.3748
 4484SOL    HW214616   8.609   3.709   8.480  0.0856  1.0269 -1.2193
 4485SOL     OW14617   1.154   0.498   6.527  0.2805  0.5986  0.6850
 4485SOL    HW114618   1.207   0.494   6.606  2.7230  0.7465 -0.8685
 4485SOL    HW214619   1.182   0.422   6.476 -1.1725  0.5695 -0.1202
 4486SOL     OW14620   0.526   4.669   1.284  0.9286 -0.4416  0.0188
 4486SOL    HW114621   0.464   4.730   1.245  1.1337  0.9789  1.7632
 4486SOL    HW214622   0.474   4.591   1.305  0.1562 -0.0047 -0.2445
 4487SOL     OW14623   4.872   6.971   1.892  0.1447  0.1929  0.0354
 4487SOL    HW114624   4.915   6.915   1.957  0.5725 -0.8573 -1.0969
 4487SOL    HW214625   4.934   7.041   1.875 -0.1303  0.6832  1.0184
 4488SOL     OW14626   3.363   3.594   8.002 -0.2486 -0.4305 -0.4235
 4488SOL    HW114627   3.278   3.632   8.024 -0.3167  0.1350 -1.5568
 4488SOL    HW214628   3.423   3.668   8.003 -0.3682 -0.2189 -2.6035
 4489SOL     OW14629   8.109   6.069   2.459 -0.1032  0.1012  0.1468
 4489SOL    HW114630   8.204   6.059   2.468 -0.2485 -3.3876 -0.5849
 4489SOL    HW214631   8.097   6.153   2.416  2.4582  1.7482  2.3343
 4490SOL     OW14632   6.259   2.930   1.450 -0.5064 -0.0955  0.1012
 4490SOL    HW114633   6.302   2.845   1.437  2.2296  1.3647 -1.1613
 4490SOL    HW214634   6.235   2.959   1.362 -2.9512 -0.1893  0.6561
 4491SOL     OW14635   6.121   2.379   0.873  0.0063 -0.2240  0.0287
 4491SOL    HW114636   6.170   2.433   0.934  0.1184 -1.7052  1.2925
 4491SOL    HW214637   6.175   2.301   0.860 -1.4957 -1.4184  0.6358
 4492SOL     OW14638   7.027   5.634   5.930  0.5004  0.6539  0.4300
 4492SOL    HW114639   6.983   5.549   5.926 -0.1489  0.8284  2.5865
 4492SOL    HW214640   6.993   5.682   5.855 -0.2287 -0.4873 -0.0021
 4493SOL     OW14641   6.423   6.207   4.202 -0.7376 -0.1604  0.6599
 4493SOL    HW114642   6.372   6.173   4.276 -0.0148 -1.4438  0.5922
 4493SOL    HW214643   6.462   6.287   4.236  0.0697 -1.0350  1.9046
 4494SOL     OW14644   1.944   7.383   6.518 -0.4943  0.5722  0.1341
 4494SOL    HW114645   1.930   7.351   6.428  1.9812  0.2142 -0.1960
 4494SOL    HW214646   1.973   7.473   6.506  1.9812 -0.1324  0.3527
 4495SOL     OW14647   8.490   0.523   8.119  0.3220  0.1887 -0.2198
 4495SOL    HW114648   8.521   0.614   8.119 -0.8186  0.5938 -0.2070
 4495SOL    HW214649   8.565   0.472   8.089  0.8056  1.1980 -0.7855
 4496SOL     OW14650   1.162   8.589   5.705 -0.6566 -0.0068 -0.0595
 4496SOL    HW114651   1.207   8.673   5.695  0.9835 -0.7982  0.3702
 4496SOL    HW214652   1.072   8.607   5.677 -0.5691  2.0845  0.7800
 4497SOL     OW14653   8.128   1.221   6.557 -0.3724  0.3172  0.2443
 4497SOL    HW114654   8.117   1.127   6.573  0.6627  0.3659  1.4103
 4497SOL    HW214655   8.056   1.262   6.604  0.3585  0.2100  1.4905
 4498SOL     OW14656   7.661   0.960   7.800 -0.0788  0.3502  0.2247
 4498SOL    HW114657   7.658   1.039   7.746  1.7702 -0.0472 -0.5683
 4498SOL    HW214658   7.687   0.891   7.739  0.1381 -0.4897  1.2460
 4499SOL     OW14659   5.403   5.487   8.011 -0.1760  0.1368 -0.0491
 4499SOL    HW114660   5.382   5.460   7.921  0.7343 -1.0434  0.0737
 4499SOL    HW214661   5.437   5.576   8.001 -1.1435  0.4615 -0.7237
 4500SOL     OW14662   4.965   1.679   6.948 -0.2768 -0.1188  0.0429
 4500SOL    HW114663   4.887   1.640   6.909 -0.8541  1.2339 -0.1781
 4500SOL    HW214664   4.935   1.720   7.029  0.4631 -0.7490  0.6614
 4501SOL     OW14665   7.571   2.497   0.771  0.3742  0.1390 -0.2223
 4501SOL    HW114666   7.510   2.502   0.844  0.4405 -0.1545 -0.1447
 4501SOL    HW214667   7.592   2.588   0.751 -0.5290  0.2643 -0.6251
 4502SOL     OW14668   3.080   7.290   5.466  0.1199 -0.4034 -0.3599
 4502SOL    HW114669   3.073   7.369   5.412  1.0881  1.1652  1.6276
 4502SOL    HW214670   2.990   7.270   5.492 -0.1481  0.0272 -0.9383
 4503SOL     OW14671   1.877   6.784   5.753 -0.4246 -0.1625 -0.1777
 4503SOL    HW114672   1.883   6.829   5.668  2.0147 -0.6794 -0.3584
 4503SOL    HW214673   1.917   6.844   5.815 -0.7390 -0.4621  0.3200
 4504SOL     OW14674   5.582   8.598   0.741 -0.3819  0.4739 -0.3762
 4504SOL    HW114675   5.654   8.645   0.782 -1.0157  1.6960 -0.5949
 4504SOL    HW214676   5.572   8.639   0.656 -0.0661 -1.0171 -1.1576
 4505SOL     OW14677   8.629   4.370   5.375 -0.7614 -0.1278 -0.4516
 4505SOL    HW114678   8.684   4.356   5.453 -2.3534 -0.3966  0.6743
 4505SOL    HW214679   8.688   4.411   5.312  1.0307 -1.4113  0.2884
 4506SOL     OW14680   3.014   6.763   0.233  0.7774 -0.1866 -0.0905
 4506SOL    HW114681   3.097   6.754   0.186 -0.0256  0.5225 -1.7097
 4506SOL    HW214682   3.002   6.858   0.241 -1.4508 -0.1077 -2.9170
 4507SOL     OW14683   6.850   4.731   2.940  0.0732  0.3290  0.6370
 4507SOL    HW114684   6.911   4.792   2.899  0.1383  0.0910  0.3764
 4507SOL    HW214685   6.907   4.672   2.991  0.0030  0.5503  0.9737
 4508SOL     OW14686   4.822   2.408   4.393 -0.3989  0.1847  0.5055
 4508SOL    HW114687   4.854   2.319   4.377 -2.5988 -0.3876 -1.1614
 4508SOL    HW214688   4.852   2.428   4.482  2.4395 -1.1359 -0.0363
 4509SOL     OW14689   8.069   0.628   4.695  0.2847 -0.4031 -0.4919
 4509SOL    HW114690   8.162   0.603   4.691  0.1224 -0.8084 -2.9746
 4509SOL    HW214691   8.022   0.547   4.678 -0.6536 -0.5090  2.1298
 4510SOL     OW14692   4.995   4.712   1.384 -0.1654  0.0917 -0.4342
 4510SOL    HW114693   4.985   4.679   1.295 -2.7952  0.3832 -0.3252
 4510SOL    HW214694   5.032   4.800   1.373  1.8359 -0.7696 -1.0297
 4511SOL     OW14695   7.600   0.444   5.013 -0.7874 -0.2235  0.7420
 4511SOL    HW114696   7.667   0.377   5.024  0.8494  1.3567  0.7227
 4511SOL    HW214697   7.526   0.412   5.066  0.0027 -1.9288  0.8778
 4512SOL     OW14698   7.547   8.471   0.721  0.3295  0.1973 -0.5430
 4512SOL    HW114699   7.552   8.433   0.809  2.0309 -2.3923 -1.6143
 4512SOL    HW214700   7.455   8.461   0.696  0.1180 -0.3898  0.4175
 4513SOL     OW14701   6.638   3.612   6.771 -0.4753  0.0366  0.1938
 4513SOL    HW114702   6.711   3.611   6.710 -1.5055 -1.4974 -1.0973
 4513SOL    HW214703   6.640   3.699   6.810  1.4468  0.3451 -0.4958
 4514SOL     OW14704   3.254   0.677   0.716  0.1829  0.0431  0.4430
 4514SOL    HW114705   3.334   0.715   0.750  1.2802 -1.1287 -0.6907
 4514SOL    HW214706   3.189   0.747   0.721  1.7514  1.6157 -0.3352
 4515SOL     OW14707   8.222   0.099   1.948  0.8752  0.0005 -0.1708
 4515SOL    HW114708   8.157   0.136   1.889  0.8678  0.6240  0.2238
 4515SOL    HW214709   8.228   0.007   1.922  1.4198  0.4252 -1.6388
 4516SOL     OW14710   6.172   6.002   0.489  0.4143  0.1838 -0.0893
 4516SOL    HW114711   6.193   5.992   0.582 -0.3791 -1.7948 -0.0624
 4516SOL    HW214712   6.121   6.083   0.484 -0.2518 -0.1087  1.3469
 4517SOL     OW14713   6.167   3.692   8.011 -0.0337  0.0353  0.1763
 4517SOL    HW114714   6.081   3.731   8.029  0.7792  0.9453  2.4749
 4517SOL    HW214715   6.225   3.766   8.001  0.8481 -0.5696  0.6998
 4518SOL     OW14716   5.369   8.006   6.961 -0.5860 -0.0222  0.2913
 4518SOL    HW114717   5.283   8.049   6.966  0.3971  1.9538  2.1303
 4518SOL    HW214718   5.431   8.077   6.977  1.5781 -0.9948 -2.9585
 4519SOL     OW14719   4.768   3.188   7.406  0.2401  0.4860  0.1475
 4519SOL    HW114720   4.846   3.137   7.386  0.1395  0.0035  0.9732
 4519SOL    HW214721   4.751   3.237   7.325  2.9426  2.6939  0.7318
 4520SOL     OW14722   2.930   2.213   3.666 -0.0573  0.2955 -0.5402
 4520SOL    HW114723   2.938   2.152   3.740 -3.4112  1.2883  0.8231
 4520SOL    HW214724   2.964   2.296   3.700  1.9368 -0.0940 -1.4716
 4521SOL     OW14725   4.066   3.821   0.052  0.5161 -0.2848  0.0783
 4521SOL    HW114726   4.096   3.866   0.130  0.7921 -0.3257 -0.0020
 4521SOL    HW214727   4.147   3.795   0.007  0.4032 -2.4405  1.0180
 4522SOL     OW14728   2.281   0.883   1.097  0.4291 -0.3091 -0.3647
 4522SOL    HW114729   2.335   0.841   1.030  0.0098 -2.8390  0.7573
 4522SOL    HW214730   2.329   0.872   1.178 -0.6437 -0.4040  0.2776
 4523SOL     OW14731   8.573   5.798   4.918 -0.6458 -0.3085 -0.3522
 4523SOL    HW114732   8.647   5.745   4.887 -0.1631 -0.2507  0.6656
 4523SOL    HW214733   8.543   5.845   4.840  0.0217 -0.7731 -0.8997
 4524SOL     OW14734   8.518   6.012   8.527 -0.2989 -0.3392 -0.3572
 4524SOL    HW114735   8.566   5.969   8.598 -0.5881  1.2170  0.8415
 4524SOL    HW214736   8.435   5.964   8.522  0.7953 -2.2212 -1.5776
 4525SOL     OW14737   2.463   5.437   0.323 -0.0977  0.2129  0.3365
 4525SOL    HW114738   2.527   5.368   0.308  1.2600  1.1206  1.6179
 4525SOL    HW214739   2.380   5.400   0.295  0.9824 -0.9950 -1.4161
 4526SOL     OW14740   5.311   0.189   6.294 -0.4312  0.7995 -0.6513
 4526SOL    HW114741   5.365   0.110   6.299 -0.6244  0.6922 -0.1840
 4526SOL    HW214742   5.348   0.247   6.361 -0.4297  1.0182 -0.8417
 4527SOL     OW14743   3.812   5.471   6.292 -0.1722 -0.1820  0.0866
 4527SOL    HW114744   3.800   5.377   6.274  2.4164 -0.3990 -0.9762
 4527SOL    HW214745   3.842   5.474   6.383 -3.6735  0.0333  1.3822
 4528SOL     OW14746   7.922   8.126   3.365  0.4121 -0.1737  0.0897
 4528SOL    HW114747   7.978   8.066   3.414  1.5595 -0.5152 -1.5671
 4528SOL    HW214748   7.879   8.071   3.300 -1.1869  0.2475  0.7497
 4529SOL     OW14749   6.301   0.695   2.513 -0.3075 -0.5981 -0.0514
 4529SOL    HW114750   6.275   0.604   2.527  1.9298 -1.4851 -1.1436
 4529SOL    HW214751   6.270   0.716   2.425  1.5031 -1.2934 -0.9138
 4530SOL     OW14752   4.538   3.737   2.916  0.8503  0.4429  0.0862
 4530SOL    HW114753   4.622   3.740   2.962  0.3207 -0.4622  1.1826
 4530SOL    HW214754   4.474   3.759   2.984 -0.1586 -3.0165  0.4312
 4531SOL     OW14755   2.631   6.951   3.781  0.4441 -0.4332  0.1759
 4531SOL    HW114756   2.553   7.000   3.806  0.0758 -1.1721  0.5046
 4531SOL    HW214757   2.598   6.866   3.751  1.1297 -0.8805  0.6413
 4532SOL     OW14758   0.450   3.989   3.210 -0.3060 -0.1417  0.1451
 4532SOL    HW114759   0.408   4.029   3.286 -0.1128 -2.3950  1.5360
 4532SOL    HW214760   0.391   3.918   3.185  0.6622 -0.7343 -0.5047
 4533SOL     OW14761   0.746   7.824   1.420 -0.4024 -0.6118  0.7247
 4533SOL    HW114762   0.831   7.858   1.447  0.7673  0.5067 -3.6568
 4533SOL    HW214763   0.684   7.895   1.437 -0.0899 -0.5836  1.8283
 4534SOL     OW14764   1.259   5.462   0.282 -0.2577  0.2940 -0.2275
 4534SOL    HW114765   1.214   5.416   0.212  1.3626  0.3414 -1.3569
 4534SOL    HW214766   1.328   5.402   0.310 -1.3995 -0.1032  2.0083
 4535SOL     OW14767   3.561   3.493   0.473 -0.5255  0.3981 -0.0268
 4535SOL    HW114768   3.574   3.458   0.562  0.1472 -0.1849 -0.3437
 4535SOL    HW214769   3.587   3.585   0.480  2.2269 -0.2716 -0.1996
 4536SOL     OW14770   8.573   5.852   4.475 -0.2466  0.0484  0.0748
 4536SOL    HW114771   8.618   5.776   4.511 -1.5825 -0.3567  0.9777
 4536SOL    HW214772   8.513   5.816   4.409  0.0076  0.4541 -0.3818
 4537SOL     OW14773   2.289   0.486   7.332 -0.3229  0.0314  0.3348
 4537SOL    HW114774   2.290   0.535   7.415  0.7409  1.9409 -0.7336
 4537SOL    HW214775   2.319   0.549   7.267 -2.1478 -1.0967 -1.7207
 4538SOL     OW14776   2.310   0.090   1.242 -0.0460  0.0682  0.6321
 4538SOL    HW114777   2.321   0.002   1.279 -1.7011  0.0111  1.0573
 4538SOL    HW214778   2.384   0.140   1.277  2.2526 -1.6835 -1.4328
 4539SOL     OW14779   6.760   8.241   8.784  0.4782 -0.5833 -0.0794
 4539SOL    HW114780   6.716   8.261   8.701  0.7465 -0.0527 -0.0930
 4539SOL    HW214781   6.827   8.308   8.793  0.3478 -0.5445  0.6475
 4540SOL     OW14782   0.540   6.392   4.861  0.7410 -0.1397  0.9258
 4540SOL    HW114783   0.471   6.343   4.906 -1.5978  2.9257  0.9754
 4540SOL    HW214784   0.567   6.334   4.790  0.1066 -2.5494  2.5267
 4541SOL     OW14785   1.174   3.512   0.324 -0.3383  0.1563 -0.1737
 4541SOL    HW114786   1.186   3.464   0.406 -0.5978 -0.3310 -0.4192
 4541SOL    HW214787   1.238   3.475   0.264  0.0114  0.6727 -0.1281
 4542SOL     OW14788   1.475   6.336   3.599  0.3483  0.1174  0.1226
 4542SOL    HW114789   1.481   6.319   3.693 -0.2543 -3.5988 -0.3527
 4542SOL    HW214790   1.539   6.276   3.559 -0.0857  0.8972 -1.8949
 4543SOL     OW14791   0.456   7.656   8.426 -0.1637 -0.7608  0.1817
 4543SOL    HW114792   0.444   7.709   8.504 -1.2468 -0.7329  0.0152
 4543SOL    HW214793   0.409   7.703   8.357  1.4600 -0.3550 -0.7068
 4544SOL     OW14794   4.114   0.928   8.709  0.0977 -0.2853 -1.0080
 4544SOL    HW114795   4.188   0.942   8.649  1.8848 -2.6273  0.4664
 4544SOL    HW214796   4.048   0.884   8.656 -0.7104  2.5148 -2.5526
 4545SOL     OW14797   7.088   3.205   7.396  0.2834 -0.7543 -0.0844
 4545SOL    HW114798   7.135   3.153   7.461  1.3545 -1.1947 -1.1742
 4545SOL    HW214799   6.998   3.172   7.400 -0.0309  0.1572  2.0938
 4546SOL     OW14800   4.799   8.349   1.428 -0.0497 -0.1052 -0.0951
 4546SOL    HW114801   4.878   8.396   1.404 -1.2176  2.5653  0.9361
 4546SOL    HW214802   4.757   8.327   1.344 -0.7250  3.0822 -0.6995
 4547SOL     OW14803   7.134   8.763   7.778 -0.2432  0.0197  0.5682
 4547SOL    HW114804   7.175   8.705   7.841  1.5468  1.4834  0.8368
 4547SOL    HW214805   7.055   8.794   7.823  1.2156  1.3827  2.3728
 4548SOL     OW14806   5.655   7.599   2.971 -0.4125  0.1254 -0.9229
 4548SOL    HW114807   5.646   7.669   3.035 -0.3457  0.9236 -1.7550
 4548SOL    HW214808   5.750   7.593   2.956 -0.4135 -0.1935 -0.7900
 4549SOL     OW14809   7.158   3.886   3.675  0.3243  0.2251 -0.4253
 4549SOL    HW114810   7.107   3.809   3.650 -0.8624  0.6416  0.5743
 4549SOL    HW214811   7.169   3.877   3.770  2.4110  0.0078 -0.6344
 4550SOL     OW14812   0.498   2.647   2.922 -0.1731 -0.3479 -0.2687
 4550SOL    HW114813   0.439   2.654   2.847  0.2423  1.5146 -0.4647
 4550SOL    HW214814   0.581   2.618   2.884  0.4591  1.9816 -0.8255
 4551SOL     OW14815   0.904   3.759   2.168 -0.0011  0.4622 -0.1592
 4551SOL    HW114816   0.831   3.749   2.229  0.2174  1.7180  0.3493
 4551SOL    HW214817   0.862   3.785   2.085 -0.1873  0.3961 -0.0868
 4552SOL     OW14818   3.198   8.437   6.089  0.0489  1.0130  0.2347
 4552SOL    HW114819   3.137   8.468   6.156 -2.2421 -3.1542  0.4108
 4552SOL    HW214820   3.167   8.478   6.008 -1.7697  0.5757  0.6643
 4553SOL     OW14821   0.574   5.200   7.521 -0.6880 -0.0558  0.0101
 4553SOL    HW114822   0.482   5.197   7.546 -1.0587 -0.6744 -1.3252
 4553SOL    HW214823   0.607   5.112   7.539  0.1347  0.6249  2.1088
 4554SOL     OW14824   6.537   6.109   1.282  0.2898  0.2704 -0.7888
 4554SOL    HW114825   6.536   6.014   1.292 -2.7150  0.0766 -1.7566
 4554SOL    HW214826   6.508   6.142   1.367 -3.4522 -0.0981 -1.7240
 4555SOL     OW14827   1.489   3.489   0.355 -0.2737 -0.5624  0.0705
 4555SOL    HW114828   1.452   3.420   0.411  1.3489 -1.0282  0.6177
 4555SOL    HW214829   1.477   3.457   0.266  2.6894 -2.8433  0.3448
 4556SOL     OW14830   2.131   3.044   4.044 -0.3639  0.2979  0.1009
 4556SOL    HW114831   2.153   2.978   4.109  0.9163  0.5052 -0.0937
 4556SOL    HW214832   2.194   3.031   3.974 -0.3026  1.5145 -0.0912
 4557SOL     OW14833   1.985   0.870   8.021  0.0158  0.1942 -0.5076
 4557SOL    HW114834   2.013   0.833   7.937  0.1444  0.2631 -0.4953
 4557SOL    HW214835   1.927   0.804   8.058  1.3263 -0.6413  0.1524
 4558SOL     OW14836   1.156   7.664   0.103  0.8118 -0.5298  0.3109
 4558SOL    HW114837   1.215   7.615   0.046 -0.9398 -1.3166 -0.9432
 4558SOL    HW214838   1.120   7.733   0.047  1.4263  0.7158  1.3902
 4559SOL     OW14839   2.347   5.972   6.962 -0.2995  0.2166  0.0872
 4559SOL    HW114840   2.275   6.004   7.016  0.4526 -1.5635  2.2655
 4559SOL    HW214841   2.374   5.890   7.003  2.2580  0.2486 -1.3002
 4560SOL     OW14842   0.963   3.961   6.832 -0.2149 -0.0727  0.2071
 4560SOL    HW114843   0.989   3.980   6.742 -0.5911  0.5609  0.2253
 4560SOL    HW214844   0.936   4.046   6.867 -3.1996 -0.8011 -0.0880
 4561SOL     OW14845   2.890   3.957   5.153 -0.3725 -0.8345 -0.2059
 4561SOL    HW114846   2.801   3.931   5.131 -0.2125 -0.5695 -1.2375
 4561SOL    HW214847   2.923   4.001   5.074 -1.0530  3.6692  1.6742
 4562SOL     OW14848   3.628   5.491   0.665 -0.6185  0.2675  0.0781
 4562SOL    HW114849   3.714   5.521   0.694  0.3917 -0.8752 -1.5601
 4562SOL    HW214850   3.612   5.411   0.716 -0.3453  0.0633 -0.1512
 4563SOL     OW14851   1.740   3.088   5.550  0.0046  0.4574 -0.1984
 4563SOL    HW114852   1.699   3.106   5.466 -0.7581 -0.1190  0.0328
 4563SOL    HW214853   1.823   3.134   5.547 -0.3431  1.0580 -0.9722
 4564SOL     OW14854   1.124   0.599   5.324  0.6385 -0.2273 -0.3840
 4564SOL    HW114855   1.196   0.539   5.342  0.2774 -0.6183 -0.1962
 4564SOL    HW214856   1.165   0.678   5.289  1.0760 -0.8356 -1.2849
 4565SOL     OW14857   7.101   3.806   8.819 -0.2617  0.7583 -0.9729
 4565SOL    HW114858   7.059   3.753   8.887  0.3886  1.7170  0.2069
 4565SOL    HW214859   7.155   3.744   8.770 -1.6771 -0.1660 -1.4131
 4566SOL     OW14860   5.748   6.488   8.269 -0.2598  0.5020  0.1556
 4566SOL    HW114861   5.787   6.544   8.202 -0.0354  0.7686  0.5033
 4566SOL    HW214862   5.655   6.488   8.249 -0.7879  3.7089  2.0675
 4567SOL     OW14863   0.704   1.611   3.359  0.5499 -0.4706 -0.0811
 4567SOL    HW114864   0.676   1.594   3.450  0.1643 -0.4647 -0.1954
 4567SOL    HW214865   0.756   1.534   3.335  3.9093  1.1550  1.4160
 4568SOL     OW14866   4.361   6.812   6.728  0.0056 -0.2404  0.2051
 4568SOL    HW114867   4.434   6.793   6.787  0.3244 -1.0580 -0.4419
 4568SOL    HW214868   4.401   6.860   6.655 -0.4091  0.8777  0.6926
 4569SOL     OW14869   0.612   1.870   2.182  0.4064 -0.0227 -0.0031
 4569SOL    HW114870   0.652   1.784   2.194  1.0405  0.1873 -0.5723
 4569SOL    HW214871   0.544   1.856   2.116  1.5220  0.1985 -1.2400
 4570SOL     OW14872   6.089   5.996   5.736  0.2760 -0.2539 -0.4683
 4570SOL    HW114873   6.003   6.037   5.725  0.5736  0.3128 -0.6855
 4570SOL    HW214874   6.070   5.902   5.743 -0.6291  0.0337  2.2937
 4571SOL     OW14875   3.884   3.063   4.230 -0.4456  0.2941 -0.4659
 4571SOL    HW114876   3.917   3.027   4.313 -0.6943 -0.0100 -0.4988
 4571SOL    HW214877   3.797   3.025   4.220 -0.5252  0.5432 -0.7340
 4572SOL     OW14878   0.257   8.285   5.826  0.1858  0.3424  0.0641
 4572SOL    HW114879   0.172   8.246   5.846  1.0692 -1.3121  0.7839
 4572SOL    HW214880   0.274   8.344   5.899 -0.2104  0.4633  0.0627
 4573SOL     OW14881   8.541   8.642   2.779  0.2941  0.4500  0.4437
 4573SOL    HW114882   8.491   8.634   2.860  1.5280 -0.0053  1.1851
 4573SOL    HW214883   8.475   8.659   2.712 -0.9305 -0.8503  1.2622
 4574SOL     OW14884   3.251   3.553   5.509  0.0861  0.0130 -0.9047
 4574SOL    HW114885   3.309   3.583   5.579 -1.4936 -0.2380  0.5934
 4574SOL    HW214886   3.178   3.512   5.555 -1.3437  0.4250 -2.7092
 4575SOL     OW14887   3.162   8.438   8.191 -0.6503 -0.0772  0.4202
 4575SOL    HW114888   3.091   8.492   8.225 -1.1704  0.0531 -0.7951
 4575SOL    HW214889   3.229   8.501   8.163  1.3782 -0.2270  4.2566
 4576SOL     OW14890   7.822   2.425   1.676  0.2749 -0.3318  0.3926
 4576SOL    HW114891   7.825   2.331   1.692  0.2955 -0.5595 -0.8939
 4576SOL    HW214892   7.740   2.439   1.629  2.0700 -0.3379 -3.0293
 4577SOL     OW14893   6.564   0.297   5.241  0.3233 -0.5148  0.1660
 4577SOL    HW114894   6.602   0.381   5.217  0.7736 -0.3117  1.5328
 4577SOL    HW214895   6.568   0.245   5.161 -3.1686  1.8268 -1.8161
 4578SOL     OW14896   1.140   4.916   2.744  0.0063  0.5254 -0.2106
 4578SOL    HW114897   1.157   5.010   2.739 -1.9097  1.0636  1.6633
 4578SOL    HW214898   1.198   4.884   2.813  1.1037  0.1571 -1.2634
 4579SOL     OW14899   3.774   0.466   5.684 -0.3315  0.0694 -0.0573
 4579SOL    HW114900   3.863   0.449   5.652 -1.2471 -1.0719 -2.2738
 4579SOL    HW214901   3.735   0.379   5.694 -1.7138  0.5667 -0.7979
 4580SOL     OW14902   3.482   8.839   0.919 -0.1077 -0.0758  0.1749
 4580SOL    HW114903   3.406   8.781   0.932 -0.2364  0.0831  0.1425
 4580SOL    HW214904   3.470   8.874   0.831  1.1073 -1.6398 -0.6728
 4581SOL     OW14905   8.527   6.279   7.073  0.6970  0.2849 -0.4208
 4581SOL    HW114906   8.586   6.252   7.143 -0.3302  2.2283  1.2963
 4581SOL    HW214907   8.481   6.198   7.049  0.4733 -0.3005  1.7791
 4582SOL     OW14908   3.639   5.250   2.970  0.7978  0.5272 -0.6249
 4582SOL    HW114909   3.667   5.334   3.008  2.6607  0.5188 -1.8439
 4582SOL    HW214910   3.692   5.184   3.015  0.5121  0.1666 -0.8097
 4583SOL     OW14911   7.705   8.748   0.158 -0.3491 -0.1622  0.5047
 4583SOL    HW114912   7.621   8.793   0.166  1.3407  3.1309  1.6815
 4583SOL    HW214913   7.770   8.813   0.187  2.6057 -2.6056 -0.1080
 4584SOL     OW14914   8.499   7.189   4.508 -0.2060  0.2600  0.2594
 4584SOL    HW114915   8.436   7.131   4.551 -1.5779  1.2561 -0.3451
 4584SOL    HW214916   8.584   7.148   4.525 -1.0779 -1.7288  0.1672
 4585SOL     OW14917   6.516   3.808   0.290 -0.0893 -0.1891 -0.1292
 4585SOL    HW114918   6.485   3.822   0.201 -0.5574 -0.4435 -0.0123
 4585SOL    HW214919   6.456   3.742   0.326  0.2259 -0.2470  0.3014
 4586SOL     OW14920   6.891   8.452   1.923  0.4002  0.4491  0.1770
 4586SOL    HW114921   6.825   8.512   1.955 -1.8492 -0.6075 -2.1125
 4586SOL    HW214922   6.897   8.471   1.829  2.6427 -0.1839  0.1347
 4587SOL     OW14923   6.339   1.150   7.311 -0.0195 -0.1936  0.0823
 4587SOL    HW114924   6.326   1.087   7.383  1.2924  1.5764  1.9906
 4587SOL    HW214925   6.427   1.132   7.280 -0.6264 -1.0260 -1.2290
 4588SOL     OW14926   4.614   1.233   1.899  0.4856  0.0961  0.3636
 4588SOL    HW114927   4.703   1.202   1.881  0.4925  1.3308 -2.1609
 4588SOL    HW214928   4.598   1.299   1.832 -1.2720  2.0833  2.5553
 4589SOL     OW14929   5.218   4.320   5.659 -0.1118  0.2161 -0.1614
 4589SOL    HW114930   5.232   4.390   5.596  1.5298  0.0578 -0.0134
 4589SOL    HW214931   5.237   4.359   5.744 -2.7615  0.5584  0.3528
 4590SOL     OW14932   6.115   1.122   7.746 -0.5677  0.3428  0.2021
 4590SOL    HW114933   6.174   1.197   7.741  0.2410 -0.3408 -1.3216
 4590SOL    HW214934   6.091   1.117   7.838  3.8319 -0.8681  1.5515
 4591SOL     OW14935   2.905   4.367   3.678  0.2584 -0.4702 -0.1281
 4591SOL    HW114936   2.998   4.349   3.665  0.2785 -1.1860  0.8084
 4591SOL    HW214937   2.867   4.365   3.591  1.3225  1.1268 -0.6616
 4592SOL     OW14938   8.817   0.534   0.686 -0.0966 -0.1612 -0.0704
 4592SOL    HW114939   8.834   0.625   0.660 -2.1801  0.5793  0.9204
 4592SOL    HW214940   8.755   0.502   0.621 -0.4279 -0.4123  0.3688
 4593SOL     OW14941   5.886   4.046   8.850 -0.3101  0.5870 -0.0336
 4593SOL    HW114942   5.833   4.082   8.779 -1.6594 -0.9121  0.1721
 4593SOL    HW214943   5.829   4.050   8.927 -0.5010 -1.8425  0.0190
 4594SOL     OW14944   7.991   8.806   5.589  0.4212  0.2450 -0.0191
 4594SOL    HW114945   7.957   8.733   5.538  0.6043  0.7742 -0.9154
 4594SOL    HW214946   7.946   8.800   5.673  1.0552 -1.3937  0.2337
 4595SOL     OW14947   0.692   0.905   5.809 -0.2786 -0.7000 -0.0701
 4595SOL    HW114948   0.713   0.924   5.717  0.9103  0.0140  0.3150
 4595SOL    HW214949   0.609   0.858   5.806 -0.3755 -0.4851 -1.4953
 4596SOL     OW14950   5.751   2.947   4.233 -0.9149 -0.2308  0.1853
 4596SOL    HW114951   5.694   2.955   4.157  0.1985 -3.8289 -1.2701
 4596SOL    HW214952   5.818   3.014   4.220 -1.4317  0.0190 -1.3709
 4597SOL     OW14953   6.413   1.338   0.239  0.1266 -0.3044  0.4473
 4597SOL    HW114954   6.435   1.405   0.304 -3.4220  1.6384 -0.0804
 4597SOL    HW214955   6.320   1.319   0.256  0.1136 -2.5459 -1.6799
 4598SOL     OW14956   2.491   1.534   5.293  0.5758  0.2818  0.9072
 4598SOL    HW114957   2.569   1.571   5.252 -0.7304  1.5019 -0.5862
 4598SOL    HW214958   2.469   1.458   5.239 -0.4240  1.1456  0.0735
 4599SOL     OW14959   7.978   1.783   0.345 -0.4511  0.0378  0.1026
 4599SOL    HW114960   8.036   1.828   0.284 -0.7819  0.0106 -0.2386
 4599SOL    HW214961   7.962   1.698   0.304 -2.1667  0.7068 -0.7069
 4600SOL     OW14962   1.848   8.493   8.473 -0.2510  0.2299 -0.4993
 4600SOL    HW114963   1.917   8.487   8.539 -0.9428  1.2850  0.3447
 4600SOL    HW214964   1.820   8.402   8.459  1.0079 -0.1621 -0.5408
 4601SOL     OW14965   8.043   2.907   1.344 -0.0933 -0.6308  0.6100
 4601SOL    HW114966   8.032   2.827   1.395 -0.4355 -1.6364 -0.9791
 4601SOL    HW214967   8.107   2.884   1.277 -2.2419 -0.4772 -1.6079
 4602SOL     OW14968   7.857   2.600   8.725 -0.1951  0.1312 -0.1225
 4602SOL    HW114969   7.878   2.692   8.707 -0.3429  0.0014 -1.0069
 4602SOL    HW214970   7.765   2.601   8.750  0.4982  0.5723  2.7671
 4603SOL     OW14971   8.228   5.888   6.550 -0.3395  0.1579  0.1069
 4603SOL    HW114972   8.291   5.957   6.529  1.4601 -1.4535 -0.0506
 4603SOL    HW214973   8.171   5.883   6.473 -0.2128  1.1461 -0.0641
 4604SOL     OW14974   6.418   8.123   8.648 -0.3002 -0.0562  0.0107
 4604SOL    HW114975   6.394   8.211   8.677  0.4485 -0.6635  2.7881
 4604SOL    HW214976   6.428   8.131   8.554 -0.1084  2.8705  0.1819
 4605SOL     OW14977   4.205   4.758   4.830  0.2900  0.4628 -0.1030
 4605SOL    HW114978   4.268   4.773   4.901  0.3843  0.2446 -0.1417
 4605SOL    HW214979   4.120   4.766   4.872  0.3077 -1.9538  0.5436
 4606SOL     OW14980   5.664   6.032   5.850 -0.1080 -0.4678  0.1941
 4606SOL    HW114981   5.617   5.950   5.833 -2.1960  0.8569 -0.7503
 4606SOL    HW214982   5.604   6.084   5.903  0.2301  1.3196 -1.0992
 4607SOL     OW14983   8.820   6.175   0.611 -0.3817 -0.1786 -0.1672
 4607SOL    HW114984   8.799   6.206   0.523 -0.0688 -3.2248 -1.4691
 4607SOL    HW214985   8.736   6.150   0.649 -0.6413  2.1370  0.9012
 4608SOL     OW14986   6.704   4.201   1.592  0.4229  0.5460  0.0441
 4608SOL    HW114987   6.638   4.170   1.530  0.8376 -0.0091 -0.1341
 4608SOL    HW214988   6.750   4.272   1.546 -1.0231  1.9819  0.7322
 4609SOL     OW14989   6.378   4.693   2.222 -0.1362  0.3554  0.1538
 4609SOL    HW114990   6.400   4.676   2.314 -0.6442  0.5556  0.3165
 4609SOL    HW214991   6.461   4.718   2.181 -0.0882  1.2340  0.7799
 4610SOL     OW14992   6.293   4.092   2.621 -0.6801  0.7358  0.0065
 4610SOL    HW114993   6.238   4.067   2.547  1.4247  1.6155 -1.9500
 4610SOL    HW214994   6.347   4.164   2.589  1.2783  0.2693  1.9630
 4611SOL     OW14995   5.412   3.024   6.835  0.4122 -0.1571  0.0705
 4611SOL    HW114996   5.401   2.931   6.815 -1.2470  0.2798 -1.2925
 4611SOL    HW214997   5.390   3.069   6.754  2.1073  1.4243  0.4251
 4612SOL     OW14998   1.328   5.762   0.716 -0.9647 -0.0516 -0.6628
 4612SOL    HW114999   1.318   5.759   0.621 -0.0861 -0.3863 -0.7539
 4612SOL    HW215000   1.240   5.778   0.749 -1.1982  0.5874 -1.5547
 4613SOL     OW15001   6.244   1.125   1.222  0.0314 -0.0327  0.5705
 4613SOL    HW115002   6.254   1.048   1.279 -0.6103 -1.3472 -1.0167
 4613SOL    HW215003   6.312   1.115   1.156 -1.9505 -0.9427 -1.4457
 4614SOL     OW15004   3.190   6.857   8.414  0.2105  0.5010  0.0765
 4614SOL    HW115005   3.190   6.952   8.430  1.2392  0.5819 -0.2983
 4614SOL    HW215006   3.280   6.830   8.433 -0.2016 -0.4935  0.6547
 4615SOL     OW15007   7.020   7.824   4.366  0.3974  0.0780  0.8396
 4615SOL    HW115008   6.931   7.855   4.383 -0.7605 -1.3375 -2.0520
 4615SOL    HW215009   7.038   7.762   4.437 -1.1627 -0.0654  1.1461
 4616SOL     OW15010   1.644   1.894   1.490 -0.2635 -0.0508  0.0730
 4616SOL    HW115011   1.632   1.800   1.477  2.3321 -0.4699  0.0159
 4616SOL    HW215012   1.594   1.935   1.419 -2.0526 -1.3245  0.5611
 4617SOL     OW15013   7.969   5.610   8.037  0.0346  0.5399  0.1321
 4617SOL    HW115014   7.979   5.516   8.049  1.8088  0.7294  0.3498
 4617SOL    HW215015   7.989   5.648   8.122 -2.9842  1.0620  0.7542
 4618SOL     OW15016   6.951   8.076   0.881 -0.4154 -0.1388 -0.4024
 4618SOL    HW115017   6.989   8.055   0.796 -1.0127 -0.8865 -0.4923
 4618SOL    HW215018   6.988   8.010   0.940 -0.8078 -0.2569 -0.2900
 4619SOL     OW15019   3.331   7.179   5.611 -0.2703 -0.0533 -0.1078
 4619SOL    HW115020   3.285   7.246   5.560 -1.2715  1.0425  2.1152
 4619SOL    HW215021   3.264   7.112   5.629  0.4825 -1.2401 -1.5002
 4620SOL     OW15022   6.691   6.501   0.294  0.3625  0.6557  0.4103
 4620SOL    HW115023   6.617   6.469   0.243  1.7501 -0.8242 -0.7854
 4620SOL    HW215024   6.719   6.581   0.250  0.5883  0.2230 -0.2501
 4621SOL     OW15025   4.093   5.812   5.819  0.4054  0.5596  0.0599
 4621SOL    HW115026   4.136   5.769   5.745 -0.3020 -1.1993  0.6185
 4621SOL    HW215027   4.163   5.820   5.885  0.5956  0.4386 -0.1250
 4622SOL     OW15028   0.988   1.056   5.454 -0.1027  0.2629  0.6929
 4622SOL    HW115029   0.942   0.978   5.422 -0.4302  0.9831 -0.6779
 4622SOL    HW215030   1.054   1.022   5.514  3.2726 -1.7750 -3.5390
 4623SOL     OW15031   1.576   1.516   0.416  0.0126 -0.6172 -0.8441
 4623SOL    HW115032   1.570   1.579   0.488 -0.9328 -3.0099  1.3453
 4623SOL    HW215033   1.670   1.501   0.405  0.1591 -0.5994  0.2854
 4624SOL     OW15034   6.784   1.224   6.392 -0.4625 -0.0401  0.6159
 4624SOL    HW115035   6.856   1.217   6.329  0.3062  1.3061  1.3020
 4624SOL    HW215036   6.811   1.171   6.466 -0.7472 -0.5153  0.3872
 4625SOL     OW15037   5.446   0.726   4.862 -0.1309 -0.1406  0.8450
 4625SOL    HW115038   5.363   0.679   4.877  0.9797 -1.8219  2.1268
 4625SOL    HW215039   5.473   0.700   4.774 -1.1259  0.7284  0.2619
 4626SOL     OW15040   3.312   0.380   5.775  0.3392 -0.0264  0.4315
 4626SOL    HW115041   3.345   0.291   5.761 -1.2276 -0.1959 -3.8387
 4626SOL    HW215042   3.384   0.437   5.747  0.1959 -0.1040 -0.1125
 4627SOL     OW15043   2.138   5.603   6.845 -0.1017 -0.1430 -0.4596
 4627SOL    HW115044   2.067   5.568   6.792  0.2779 -1.0436 -0.3833
 4627SOL    HW215045   2.100   5.681   6.887 -2.3458 -2.6553  2.6601
 4628SOL     OW15046   4.989   3.065   8.457 -0.2243  0.7011 -0.0857
 4628SOL    HW115047   5.085   3.058   8.463 -0.2387 -1.7717 -1.3860
 4628SOL    HW215048   4.957   2.984   8.496 -1.8285  1.6764  0.6725
 4629SOL     OW15049   6.666   2.948   8.551  0.3511  0.4586 -0.0494
 4629SOL    HW115050   6.756   2.914   8.551  0.0636 -0.3314  0.3091
 4629SOL    HW215051   6.642   2.952   8.459  0.7436  0.6394 -0.1435
 4630SOL     OW15052   6.519   1.368   1.055  0.2899 -0.2269 -0.4770
 4630SOL    HW115053   6.500   1.275   1.066 -0.1656  0.0919  1.9916
 4630SOL    HW215054   6.560   1.394   1.138 -0.4943  1.9837 -0.7157
 4631SOL     OW15055   5.489   0.408   0.827  0.0779  0.3789  0.3165
 4631SOL    HW115056   5.397   0.431   0.841 -0.6606 -2.0473 -0.1415
 4631SOL    HW215057   5.510   0.443   0.741 -1.0657 -0.7908 -0.4659
 4632SOL     OW15058   4.915   5.040   2.385 -0.5594  0.5619 -0.2494
 4632SOL    HW115059   4.927   4.951   2.419  0.0200  0.5000 -0.6004
 4632SOL    HW215060   4.875   5.028   2.299  1.6728  0.4813 -1.3623
 4633SOL     OW15061   7.419   6.922   4.824  0.2718  0.5360 -0.3098
 4633SOL    HW115062   7.430   6.918   4.729 -0.5249 -1.6417 -0.3714
 4633SOL    HW215063   7.436   7.013   4.846  0.2055  1.1600 -2.5697
 4634SOL     OW15064   0.518   1.968   3.498  0.3011  0.1465  0.2667
 4634SOL    HW115065   0.527   2.020   3.578  0.3154 -0.9210  0.9670
 4634SOL    HW215066   0.500   1.879   3.528 -2.7295  0.2393 -0.9361
 4635SOL     OW15067   4.555   4.656   1.722  0.1250 -0.1221 -0.4095
 4635SOL    HW115068   4.495   4.719   1.763 -0.5818  0.6457 -2.5022
 4635SOL    HW215069   4.641   4.697   1.730 -0.3731  1.4064 -2.1051
 4636SOL     OW15070   4.979   7.788   0.510  0.2941 -0.6013  0.4981
 4636SOL    HW115071   5.036   7.864   0.523  0.1771 -0.5012  0.4229
 4636SOL    HW215072   5.015   7.744   0.433  0.4981 -0.7492  0.6731
 4637SOL     OW15073   3.262   5.228   6.137 -0.1075  0.3646 -0.1292
 4637SOL    HW115074   3.222   5.147   6.106 -1.3888  0.9555 -0.1208
 4637SOL    HW215075   3.198   5.263   6.200  0.6183  1.1578  0.1920
 4638SOL     OW15076   8.133   6.195   8.029  0.1252 -0.2985  0.8709
 4638SOL    HW115077   8.073   6.261   8.064  0.5874  0.3027  0.5525
 4638SOL    HW215078   8.089   6.161   7.951 -0.2160 -0.5410  1.1645
 4639SOL     OW15079   7.948   6.589   7.774 -0.5347  0.0041 -0.2922
 4639SOL    HW115080   8.022   6.543   7.734 -0.0353 -0.9599  1.6082
 4639SOL    HW215081   7.870   6.549   7.736 -0.0774 -0.6243 -0.5794
 4640SOL     OW15082   1.314   4.888   4.265  0.4429 -0.1590 -0.1512
 4640SOL    HW115083   1.241   4.913   4.322 -0.7607  1.7977 -2.4253
 4640SOL    HW215084   1.295   4.797   4.240 -1.6442  0.5281 -1.2413
 4641SOL     OW15085   4.792   1.570   7.955 -0.1344 -0.2177  0.0860
 4641SOL    HW115086   4.825   1.567   7.866  0.4712  2.5355  0.1588
 4641SOL    HW215087   4.698   1.588   7.945 -0.4452 -1.6644  0.0384
 4642SOL     OW15088   5.802   4.171   1.875 -0.3626  0.1178  0.1838
 4642SOL    HW115089   5.717   4.161   1.917  0.3749 -0.4771  1.5773
 4642SOL    HW215090   5.840   4.249   1.915 -0.0206  0.0587 -0.0186
 4643SOL     OW15091   3.473   5.733   0.219 -0.5005  0.2419  0.1497
 4643SOL    HW115092   3.543   5.679   0.254 -1.0864 -0.9435 -0.4416
 4643SOL    HW215093   3.499   5.751   0.129 -1.1075 -0.5134 -0.1901
 4644SOL     OW15094   7.012   8.335   8.146  0.1652 -0.1010 -0.0365
 4644SOL    HW115095   7.097   8.319   8.106  0.9103  0.3598  1.3015
 4644SOL    HW215096   6.955   8.357   8.072  1.3278  0.0843 -0.9097
 4645SOL     OW15097   1.068   8.108   2.827 -0.2035 -0.7858  0.2661
 4645SOL    HW115098   1.050   8.041   2.762 -0.0519 -0.6661  0.1011
 4645SOL    HW215099   1.162   8.126   2.819 -0.2061 -0.6875  0.4355
 4646SOL     OW15100   2.392   3.036   7.773  0.3640  0.3207  0.3792
 4646SOL    HW115101   2.463   3.010   7.832  0.5680  1.1895  0.5165
 4646SOL    HW215102   2.344   3.104   7.820 -0.0989  0.2820 -0.0305
 4647SOL     OW15103   5.187   2.040   0.971  0.3437  0.0963 -0.3083
 4647SOL    HW115104   5.201   1.986   0.893 -0.6679 -0.4236 -0.1464
 4647SOL    HW215105   5.102   2.082   0.955  0.2856  0.2411  0.3671
 4648SOL     OW15106   0.070   3.224   8.736  0.5406 -0.2416 -0.3470
 4648SOL    HW115107   0.125   3.263   8.669 -0.7504 -1.8180 -2.4451
 4648SOL    HW215108  -0.020   3.245   8.709 -0.0244  0.9751  2.1457
 4649SOL     OW15109   6.373   3.901   7.645  0.2101  0.1289  0.3657
 4649SOL    HW115110   6.336   3.940   7.566 -0.7656  0.0680  0.7761
 4649SOL    HW215111   6.358   3.807   7.633  0.3779  0.0900  0.4673
 4650SOL     OW15112   5.538   2.368   6.619 -0.2422  0.4807 -0.3939
 4650SOL    HW115113   5.444   2.385   6.609 -0.1096  0.3852 -2.2410
 4650SOL    HW215114   5.544   2.315   6.698 -1.8062  0.1620 -0.4413
 4651SOL     OW15115   3.610   5.084   1.805  0.2068 -0.7385 -0.2338
 4651SOL    HW115116   3.526   5.095   1.850 -1.6202 -1.4532 -3.1458
 4651SOL    HW215117   3.627   4.990   1.810  1.4796 -0.4659  1.2706
 4652SOL     OW15118   8.389   2.121   6.068  0.3456 -0.2311  0.4745
 4652SOL    HW115119   8.343   2.048   6.026 -0.6891  0.0689  1.0691
 4652SOL    HW215120   8.423   2.173   5.995  1.2753 -1.4046  0.0409
 4653SOL     OW15121   2.686   0.130   4.227 -0.2237 -0.3324  0.1373
 4653SOL    HW115122   2.655   0.184   4.300  0.0135 -1.6424  1.2724
 4653SOL    HW215123   2.776   0.160   4.213 -0.6778  0.7854 -0.4885
 4654SOL     OW15124   1.052   8.617   5.234  0.2077 -0.4090  0.7448
 4654SOL    HW115125   1.047   8.522   5.232  1.0271 -0.4541 -0.4277
 4654SOL    HW215126   1.015   8.645   5.151 -2.9364  0.5278  2.2979
 4655SOL     OW15127   2.359   6.128   4.531 -0.2376  0.5352 -0.2004
 4655SOL    HW115128   2.425   6.068   4.495  0.2502  1.4537 -0.8703
 4655SOL    HW215129   2.400   6.214   4.528 -2.0084  1.4171 -2.1432
 4656SOL     OW15130   7.454   1.607   1.097 -0.2747  0.4911 -0.3464
 4656SOL    HW115131   7.396   1.532   1.110 -0.0988  0.5270  0.7489
 4656SOL    HW215132   7.532   1.585   1.149  0.6255  0.5259 -1.6413
 4657SOL     OW15133   3.309   7.393   0.772 -0.0577  0.0941  0.5931
 4657SOL    HW115134   3.388   7.341   0.756  0.0817  0.2324  0.8365
 4657SOL    HW215135   3.339   7.469   0.822  0.0303  1.3064 -1.1993
 4658SOL     OW15136   6.710   3.983   3.135 -0.2639  0.1130 -0.5834
 4658SOL    HW115137   6.803   3.976   3.158  0.3167  1.8486 -2.1478
 4658SOL    HW215138   6.695   4.077   3.126 -2.4050 -0.0867  0.3825
 4659SOL     OW15139   3.270   0.773   6.866 -0.4057 -0.0197 -0.2266
 4659SOL    HW115140   3.361   0.760   6.893 -0.5400 -0.1089  0.1859
 4659SOL    HW215141   3.273   0.768   6.770  0.5758  3.2363 -0.5156
 4660SOL     OW15142   0.962   1.586   0.039  0.1359  0.0215 -0.7832
 4660SOL    HW115143   0.897   1.652   0.018  0.5670  0.5660 -0.4325
 4660SOL    HW215144   0.974   1.591   0.133  0.4114 -0.3326 -0.7915
 4661SOL     OW15145   7.901   3.349   8.461 -0.0791  0.1170 -0.2812
 4661SOL    HW115146   7.838   3.292   8.416 -1.4148  0.8152  0.6482
 4661SOL    HW215147   7.888   3.331   8.554  2.2649 -0.8986 -0.0566
 4662SOL     OW15148   0.782   2.509   4.933 -0.3985  0.1244  0.1823
 4662SOL    HW115149   0.795   2.426   4.886  2.6970  0.2120  0.6810
 4662SOL    HW215150   0.688   2.512   4.950 -0.6290 -3.4483  0.3827
 4663SOL     OW15151   3.125   3.739   3.176  0.0906  0.2035 -0.3300
 4663SOL    HW115152   3.124   3.749   3.271 -3.1933 -2.2439  0.0894
 4663SOL    HW215153   3.188   3.669   3.160 -0.9716 -0.9741  0.3979
 4664SOL     OW15154   7.292   5.615   7.415  0.1001 -0.2529 -0.4629
 4664SOL    HW115155   7.320   5.668   7.490 -2.6986 -1.9132  1.9805
 4664SOL    HW215156   7.364   5.554   7.401  1.3682  1.1208 -0.2536
 4665SOL     OW15157   3.959   6.997   4.373  0.1352 -0.1214 -0.6442
 4665SOL    HW115158   3.932   7.068   4.316 -1.1162  0.0573  0.1259
 4665SOL    HW215159   3.894   6.928   4.359 -1.9493  0.9652  2.4896
 4666SOL     OW15160   3.105   6.913   6.775 -0.0678  0.4557  0.0129
 4666SOL    HW115161   3.170   6.937   6.710  0.0781  0.0876  0.0225
 4666SOL    HW215162   3.128   6.824   6.801 -0.9572  0.0720 -0.4594
 4667SOL     OW15163   5.103   0.300   3.499  0.2830  0.3967  0.2029
 4667SOL    HW115164   5.042   0.226   3.500 -0.9455  1.3582  2.0987
 4667SOL    HW215165   5.153   0.290   3.580  1.6890  0.4259 -0.6303
 4668SOL     OW15166   6.572   8.122   1.651 -0.0226 -0.2493 -0.4306
 4668SOL    HW115167   6.653   8.082   1.682 -0.4182 -0.2574  0.6470
 4668SOL    HW215168   6.505   8.090   1.712 -0.7551  0.1320 -1.0170
 4669SOL     OW15169   3.705   1.065   4.239 -0.4702 -0.5620  0.2462
 4669SOL    HW115170   3.703   1.068   4.144  0.0970 -1.9344  0.1629
 4669SOL    HW215171   3.720   0.972   4.260 -1.3928 -0.4175  1.6866
 4670SOL     OW15172   8.689   6.411   5.192  0.0115  0.2647  0.2004
 4670SOL    HW115173   8.688   6.486   5.133  0.8825  0.8969  0.9695
 4670SOL    HW215174   8.721   6.339   5.138  1.5632  1.0083  0.0875
 4671SOL     OW15175   5.491   8.228   7.345 -0.2291  0.1129 -0.0614
 4671SOL    HW115176   5.434   8.184   7.408 -1.2917 -0.0173 -1.0802
 4671SOL    HW215177   5.526   8.303   7.392 -0.2258 -0.5234  0.9814
 4672SOL     OW15178   6.699   3.871   6.872 -0.3347  0.2961 -0.3382
 4672SOL    HW115179   6.727   3.934   6.805  0.8961  0.9112  0.7176
 4672SOL    HW215180   6.619   3.909   6.909  1.1336  2.0184  1.2455
 4673SOL     OW15181   2.382   1.030   7.056 -0.2400  0.1027  0.1624
 4673SOL    HW115182   2.445   1.074   6.999  1.2468  1.4526  2.6736
 4673SOL    HW215183   2.430   1.012   7.136 -1.8637 -2.9091  0.6121
 4674SOL     OW15184   4.883   6.660   0.176  0.3626 -0.0384  0.0719
 4674SOL    HW115185   4.824   6.730   0.148 -0.9242 -1.1779 -0.1792
 4674SOL    HW215186   4.967   6.681   0.134 -0.5470  0.2596 -1.6596
 4675SOL     OW15187   3.624   0.183   5.345  1.3228 -0.0267  0.4372
 4675SOL    HW115188   3.632   0.277   5.364  0.4491  0.1034  0.2126
 4675SOL    HW215189   3.629   0.178   5.249 -3.5381  0.4062 -0.0644
 4676SOL     OW15190   4.981   6.416   2.335  0.0771  0.1744  0.1557
 4676SOL    HW115191   4.898   6.436   2.291  0.1810 -1.0462 -0.6323
 4676SOL    HW215192   4.980   6.322   2.348  0.4319  0.3890  2.0739
 4677SOL     OW15193   7.744   4.862   5.557 -0.0965 -0.5488  0.3682
 4677SOL    HW115194   7.793   4.780   5.554 -0.1297 -0.5545 -0.3302
 4677SOL    HW215195   7.805   4.928   5.524 -0.7525 -0.6742 -1.1876
 4678SOL     OW15196   6.709   2.162   8.378 -0.0006  0.3172 -0.0045
 4678SOL    HW115197   6.646   2.207   8.434 -0.1834  2.0681 -1.4885
 4678SOL    HW215198   6.777   2.131   8.437  0.2987  2.8936  1.1363
 4679SOL     OW15199   1.757   0.428   0.359  0.2086 -0.4001  0.5119
 4679SOL    HW115200   1.809   0.354   0.327  0.0033 -1.4375  2.4168
 4679SOL    HW215201   1.674   0.390   0.386  0.4706  0.2898  2.5020
 4680SOL     OW15202   4.386   6.706   4.536  0.3753 -0.0250 -0.3233
 4680SOL    HW115203   4.314   6.701   4.599 -0.6285  0.9706 -1.3549
 4680SOL    HW215204   4.365   6.640   4.470  0.2891  0.4036 -0.7304
 4681SOL     OW15205   5.937   0.937   3.511  0.2238  0.1364  0.1468
 4681SOL    HW115206   5.924   0.849   3.476  2.1846  0.3341 -1.2402
 4681SOL    HW215207   5.984   0.924   3.593  2.9865 -0.1290 -1.3454
 4682SOL     OW15208   4.355   6.812   4.062 -0.0903  0.4079 -0.1766
 4682SOL    HW115209   4.286   6.754   4.092 -0.6791  0.6997 -0.9371
 4682SOL    HW215210   4.423   6.806   4.130 -0.3755 -0.7251  0.0283
 4683SOL     OW15211   3.032   1.470   4.133  0.2702 -0.1505  0.0399
 4683SOL    HW115212   3.053   1.377   4.132  1.0314 -0.0037  0.6419
 4683SOL    HW215213   3.099   1.511   4.078  0.4325  0.1168  0.4235
 4684SOL     OW15214   4.915   6.794   4.177 -0.1244 -0.4051 -0.1808
 4684SOL    HW115215   4.990   6.852   4.189  1.1786 -2.2763  1.4323
 4684SOL    HW215216   4.897   6.796   4.083  1.6495  0.4466 -0.5380
 4685SOL     OW15217   7.364   8.828   5.965  0.2235  0.3469  0.2570
 4685SOL    HW115218   7.411   8.793   6.040 -0.4766  1.0926  1.0603
 4685SOL    HW215219   7.278   8.787   5.969 -0.1358  1.0922  0.4197
 4686SOL     OW15220   1.854   5.511   1.208  0.1811 -0.0391 -0.0312
 4686SOL    HW115221   1.837   5.520   1.302 -1.2357 -3.9932  0.2917
 4686SOL    HW215222   1.774   5.544   1.166  0.4595  0.9336  0.1907
 4687SOL     OW15223   4.048   2.085   4.404 -0.5151 -0.5033  0.2172
 4687SOL    HW115224   4.041   2.059   4.312 -0.8430  0.1121  0.0634
 4687SOL    HW215225   4.024   2.007   4.453 -1.3686 -0.5395 -0.2376
 4688SOL     OW15226   8.294   6.393   7.972 -0.1944 -0.2432  0.0301
 4688SOL    HW115227   8.253   6.479   7.982  0.4814 -0.0028  0.8931
 4688SOL    HW215228   8.233   6.332   8.012 -0.3815 -0.0799 -0.0051
 4689SOL     OW15229   7.947   5.020   5.854 -0.8199 -0.0677 -0.6069
 4689SOL    HW115230   8.011   5.076   5.809  0.4121 -0.8147  0.1384
 4689SOL    HW215231   7.867   5.071   5.856 -0.7876  0.2439 -3.1358
 4690SOL     OW15232   6.163   6.782   4.680  0.1054  0.2407 -0.7489
 4690SOL    HW115233   6.233   6.767   4.617 -0.2345  0.9051 -1.3043
 4690SOL    HW215234   6.096   6.717   4.657  0.5002 -0.3367 -0.2723
 4691SOL     OW15235   7.021   0.268   8.625 -0.1196 -0.0140 -0.2823
 4691SOL    HW115236   7.094   0.284   8.684  0.7882 -1.3724 -0.9882
 4691SOL    HW215237   7.037   0.181   8.589 -2.3425 -0.5818 -0.1028
 4692SOL     OW15238   6.263   8.526   5.226  0.3871 -0.2120 -0.4538
 4692SOL    HW115239   6.249   8.458   5.161 -0.1014  1.0523 -1.7351
 4692SOL    HW215240   6.347   8.504   5.266  0.3478 -1.4213 -0.9992
 4693SOL     OW15241   2.530   4.938   1.805  0.5583  0.0191  0.4652
 4693SOL    HW115242   2.620   4.938   1.838 -0.2602 -0.9854  2.9912
 4693SOL    HW215243   2.506   4.845   1.803  0.1591  0.1079 -2.1207
 4694SOL     OW15244   3.720   4.902   7.790 -0.0149 -0.1768  0.1537
 4694SOL    HW115245   3.814   4.886   7.781  0.2767  2.1973 -2.1274
 4694SOL    HW215246   3.713   4.964   7.863  0.2785  0.2036 -0.1371
 4695SOL     OW15247   2.540   0.012   2.358 -0.0592  0.2133  0.3672
 4695SOL    HW115248   2.627   0.020   2.320  0.1202 -0.8629  0.5033
 4695SOL    HW215249   2.500   0.098   2.346  0.0873  0.0110 -2.0027
 4696SOL     OW15250   3.261   0.166   2.084  0.0452  0.4563  0.2132
 4696SOL    HW115251   3.318   0.108   2.134  1.7429  1.2079 -0.7522
 4696SOL    HW215252   3.182   0.113   2.067  0.1271 -0.3742  2.1618
 4697SOL     OW15253   5.539   0.625   2.650 -0.1877  0.0744 -0.0451
 4697SOL    HW115254   5.505   0.540   2.679 -0.5627 -0.5962 -2.2229
 4697SOL    HW215255   5.497   0.639   2.566  1.2882  1.5470 -0.5818
 4698SOL     OW15256   0.791   0.556   0.015  0.0023 -0.4584  0.3676
 4698SOL    HW115257   0.832   0.629  -0.032 -1.3477 -1.5006 -2.6578
 4698SOL    HW215258   0.759   0.595   0.096 -2.7651  3.0482 -2.0764
 4699SOL     OW15259   2.696   1.702   8.122 -0.1420  0.4127  0.4057
 4699SOL    HW115260   2.771   1.760   8.111 -0.2796  0.2260 -2.2178
 4699SOL    HW215261   2.620   1.761   8.119 -0.1863  0.3772  0.7660
 4700SOL     OW15262   0.837   5.297   6.213  0.6472  0.2820  0.0223
 4700SOL    HW115263   0.786   5.254   6.144  1.3902 -1.2752  0.3980
 4700SOL    HW215264   0.874   5.374   6.170  1.7386 -1.0660 -1.5956
 4701SOL     OW15265   7.830   2.602   7.009 -0.4651  0.0279 -0.7252
 4701SOL    HW115266   7.917   2.564   6.991  0.2728  0.8070  0.9971
 4701SOL    HW215267   7.776   2.527   7.035 -0.0312 -0.3270 -0.8221
 4702SOL     OW15268   4.599   7.973   6.860 -0.3321  0.5436 -0.4171
 4702SOL    HW115269   4.605   8.068   6.868  0.4633  0.6989 -2.3533
 4702SOL    HW215270   4.509   7.953   6.886 -0.1133  1.6395  1.3361
 4703SOL     OW15271   4.850   3.290   0.486 -0.2180  0.0416  0.3634
 4703SOL    HW115272   4.830   3.382   0.502 -2.0474  0.1817 -2.0845
 4703SOL    HW215273   4.937   3.292   0.445 -0.1320  0.6693  0.5594
 4704SOL     OW15274   4.591   7.742   8.124  0.3848  0.6962 -0.2029
 4704SOL    HW115275   4.600   7.768   8.033 -2.5250 -1.5511 -1.3135
 4704SOL    HW215276   4.644   7.663   8.133  0.9632  1.1218  0.1726
 4705SOL     OW15277   4.984   3.022   3.361 -0.7184 -0.2472  0.6300
 4705SOL    HW115278   4.993   2.932   3.329  1.2347 -0.0773  0.6031
 4705SOL    HW215279   5.072   3.059   3.357 -1.6923  2.1894 -0.8039
 4706SOL     OW15280   0.123   4.065   6.581  0.1700  0.5566  0.0470
 4706SOL    HW115281   0.185   4.018   6.525 -0.7901  0.8081 -1.3028
 4706SOL    HW215282   0.145   4.158   6.569  0.1605  0.5924  0.3173
 4707SOL     OW15283   3.834   1.972   1.791 -0.5140  0.2154  0.2730
 4707SOL    HW115284   3.878   1.964   1.876  1.0756 -1.1880 -0.6256
 4707SOL    HW215285   3.741   1.967   1.812 -0.1882  0.8986  2.0198
 4708SOL     OW15286   3.209   1.617   0.853  0.5220  0.1833  0.2600
 4708SOL    HW115287   3.134   1.598   0.796  1.1900 -1.2203 -0.2132
 4708SOL    HW215288   3.201   1.554   0.925  1.4881 -0.3388 -0.0589
 4709SOL     OW15289   3.774   3.983   5.540 -0.2620  0.1840  0.0692
 4709SOL    HW115290   3.825   4.023   5.610 -0.2384 -0.6506  0.5409
 4709SOL    HW215291   3.707   4.048   5.519 -0.4737  0.3109  1.0872
 4710SOL     OW15292   3.258   7.336   0.031  0.7303  0.3684 -0.3153
 4710SOL    HW115293   3.240   7.360   0.122  0.7002  1.6011 -0.6207
 4710SOL    HW215294   3.172   7.318  -0.007  0.5340  1.6717 -0.5559
 4711SOL     OW15295   3.636   2.133   6.562 -0.1508  0.0950  0.1632
 4711SOL    HW115296   3.606   2.178   6.641 -1.1460  1.4805 -0.9618
 4711SOL    HW215297   3.599   2.044   6.570 -2.3427  0.9304  0.1435
 4712SOL     OW15298   4.198   0.132   5.062  0.7567  0.9553  0.1547
 4712SOL    HW115299   4.184   0.190   4.986  1.9715  0.5984 -0.3746
 4712SOL    HW215300   4.180   0.187   5.138  2.5661  2.2985 -0.3109
 4713SOL     OW15301   4.137   6.394   7.721 -0.2305  0.1874 -0.1892
 4713SOL    HW115302   4.174   6.482   7.710 -1.8650  0.8433 -0.7411
 4713SOL    HW215303   4.095   6.376   7.637  1.0872 -1.6568 -0.5149
 4714SOL     OW15304   5.571   4.624   1.653 -0.0986 -0.3539 -0.2830
 4714SOL    HW115305   5.611   4.557   1.598  2.0174  0.4113  0.2263
 4714SOL    HW215306   5.563   4.700   1.596 -0.9144 -0.4916 -0.3772
 4715SOL     OW15307   1.812   1.533   2.882 -0.2922  0.0777  0.2431
 4715SOL    HW115308   1.870   1.463   2.853  1.5676  0.4499  2.7447
 4715SOL    HW215309   1.775   1.501   2.965 -0.3961  1.5181  0.7871
 4716SOL     OW15310   7.317   1.472   0.300  0.5580 -0.5128 -0.2810
 4716SOL    HW115311   7.329   1.424   0.381 -0.5931  0.0833  0.2695
 4716SOL    HW215312   7.239   1.433   0.260 -0.2013  0.6558  0.0183
 4717SOL     OW15313   5.591   5.204   8.737 -0.2748 -0.4819 -0.4827
 4717SOL    HW115314   5.584   5.226   8.644 -0.9180  0.6736 -0.1773
 4717SOL    HW215315   5.540   5.271   8.782 -0.7516 -1.5565  0.6555
 4718SOL     OW15316   7.310   1.808   1.151 -0.3104 -0.0037 -0.3633
 4718SOL    HW115317   7.366   1.734   1.130 -0.7240 -1.0103  1.8310
 4718SOL    HW215318   7.221   1.778   1.130 -0.5876 -0.5567  1.4739
 4719SOL     OW15319   1.931   6.459   4.266  0.2363  0.0527  0.0176
 4719SOL    HW115320   1.914   6.505   4.348 -0.5283  0.8112 -0.5519
 4719SOL    HW215321   1.855   6.478   4.211  1.1207  0.2654 -1.1815
 4720SOL     OW15322   8.555   0.799   2.929 -0.1741  0.0367 -0.1334
 4720SOL    HW115323   8.540   0.833   2.841 -3.0497 -0.3047  0.1132
 4720SOL    HW215324   8.589   0.711   2.916  0.1131  0.2554 -0.8847
 4721SOL     OW15325   8.250   0.473   2.221 -0.5291 -0.1498 -0.0750
 4721SOL    HW115326   8.312   0.503   2.288 -0.3857 -1.1201  0.2395
 4721SOL    HW215327   8.240   0.548   2.162 -0.3248  0.5708  0.7919
 4722SOL     OW15328   4.669   1.978   3.066 -0.1795  0.0094 -0.1946
 4722SOL    HW115329   4.618   1.905   3.100 -2.5741  1.1482 -1.0701
 4722SOL    HW215330   4.717   1.941   2.992 -0.7109 -0.8548 -0.1213
 4723SOL     OW15331   8.454   8.624   4.963 -0.4599  0.2029  0.4994
 4723SOL    HW115332   8.490   8.663   4.883  0.2387 -0.4046  0.5021
 4723SOL    HW215333   8.481   8.532   4.958 -0.1629  0.2252  1.5787
 4724SOL     OW15334   0.930   1.175   8.042 -0.1325 -0.2318 -0.2159
 4724SOL    HW115335   0.866   1.184   7.971  0.0677  0.2988 -0.3295
 4724SOL    HW215336   1.015   1.183   7.998 -0.0001 -0.2922  0.0305
 4725SOL     OW15337   5.449   3.103   8.692  0.2415 -0.6698  0.0107
 4725SOL    HW115338   5.371   3.072   8.738  0.1142  0.6945  0.7619
 4725SOL    HW215339   5.496   3.023   8.667  0.8531 -1.5210  3.4082
 4726SOL     OW15340   7.592   3.218   2.464 -1.0319 -0.9396  0.8507
 4726SOL    HW115341   7.521   3.201   2.526 -0.1263 -1.5679  1.7547
 4726SOL    HW215342   7.636   3.134   2.453 -1.7348 -1.0789 -1.4286
 4727SOL     OW15343   1.123   4.712   8.239 -0.1587 -0.1714 -0.3530
 4727SOL    HW115344   1.152   4.677   8.154  0.0643 -0.1301 -0.2959
 4727SOL    HW215345   1.039   4.752   8.221 -0.8611 -1.5352 -0.2370
 4728SOL     OW15346   4.089   4.322   1.004 -0.2766 -0.0734  0.0233
 4728SOL    HW115347   4.075   4.333   1.098  0.7301 -1.0110  0.3031
 4728SOL    HW215348   4.071   4.229   0.987 -1.3823  0.2843 -0.8966
 4729SOL     OW15349   8.002   7.040   7.422  0.0024 -0.5328 -0.0448
 4729SOL    HW115350   8.022   6.947   7.410 -1.6968 -0.8717 -0.4736
 4729SOL    HW215351   8.046   7.084   7.349  0.4890 -1.0391 -0.0642
 4730SOL     OW15352   7.854   8.855   3.640 -0.0584  0.5106 -0.2853
 4730SOL    HW115353   7.906   8.906   3.578  0.5479 -0.2706 -0.4373
 4730SOL    HW215354   7.808   8.791   3.585  0.4747 -0.1801  0.0570
 4731SOL     OW15355   5.383   6.794   7.083  0.7162  0.4240 -0.0653
 4731SOL    HW115356   5.328   6.851   7.028  0.4945 -0.0048 -0.2943
 4731SOL    HW215357   5.471   6.831   7.075  0.8378 -0.0603 -1.3345
 4732SOL     OW15358   1.629   0.144   0.605 -0.0915 -0.4668  0.3326
 4732SOL    HW115359   1.719   0.113   0.598 -0.1015 -0.3773 -0.2575
 4732SOL    HW215360   1.622   0.180   0.693  0.4745 -0.3929  0.3483
 4733SOL     OW15361   6.514   0.441   2.763 -0.3415 -0.6114  0.2348
 4733SOL    HW115362   6.601   0.478   2.772 -0.2673 -0.8651  0.6336
 4733SOL    HW215363   6.467   0.472   2.841 -0.9850  0.5140 -0.5835
 4734SOL     OW15364   4.943   4.735   7.880 -0.1505  0.4991  0.2172
 4734SOL    HW115365   4.909   4.788   7.808 -2.9602 -0.2206  0.8866
 4734SOL    HW215366   4.923   4.645   7.855  0.6384  0.0818  1.0280
 4735SOL     OW15367   0.894   8.491   8.496  0.1618 -0.7385  0.5171
 4735SOL    HW115368   0.971   8.498   8.552  1.4724 -0.3684 -1.2320
 4735SOL    HW215369   0.851   8.577   8.503  1.1504 -0.1662 -0.1440
 4736SOL     OW15370   5.550   3.699   8.397 -0.5203  0.2225  0.1129
 4736SOL    HW115371   5.540   3.608   8.424  1.2822  0.4009  1.5643
 4736SOL    HW215372   5.519   3.750   8.471 -1.2258  0.8244 -0.5734
 4737SOL     OW15373   7.592   4.125   1.051  0.2570  0.2273 -0.6219
 4737SOL    HW115374   7.673   4.076   1.039 -0.8781 -1.4459 -2.1094
 4737SOL    HW215375   7.618   4.204   1.098  2.2303 -1.6601  1.7045
 4738SOL     OW15376   6.615   7.390   4.492 -0.3341  0.4278 -0.4816
 4738SOL    HW115377   6.555   7.427   4.556 -0.7076 -1.0437  0.0647
 4738SOL    HW215378   6.560   7.370   4.416 -0.4139 -0.2722 -0.2459
 4739SOL     OW15379   1.434   0.839   3.203 -0.0852  0.1426  0.1388
 4739SOL    HW115380   1.364   0.903   3.186  0.5799  0.7736 -0.2838
 4739SOL    HW215381   1.428   0.821   3.297 -2.1290 -1.3848 -0.2008
 4740SOL     OW15382   1.314   6.038   3.639  0.0374  0.7209  0.5011
 4740SOL    HW115383   1.404   6.034   3.606 -0.6565  0.8084 -1.5523
 4740SOL    HW215384   1.307   5.964   3.699  0.8414 -0.6723 -1.0517
 4741SOL     OW15385   1.398   5.086   6.561 -0.0747  0.2188  0.3819
 4741SOL    HW115386   1.458   5.046   6.624 -0.1595 -1.3594 -0.4898
 4741SOL    HW215387   1.453   5.148   6.512  0.5984 -0.4093  0.3168
 4742SOL     OW15388   5.444   8.000   5.906  0.4736  0.3142  0.3062
 4742SOL    HW115389   5.517   8.017   5.846 -1.1028  0.1225 -1.7596
 4742SOL    HW215390   5.404   8.086   5.920 -0.8242 -0.0028 -1.2138
 4743SOL     OW15391   6.388   4.154   3.110  0.2247  0.2902  0.5126
 4743SOL    HW115392   6.411   4.247   3.113  0.9359  0.1384  0.0099
 4743SOL    HW215393   6.411   4.127   3.021 -0.3742 -0.2704  0.5193
 4744SOL     OW15394   0.556   5.267   5.493  0.4678  0.2726 -0.1501
 4744SOL    HW115395   0.521   5.178   5.489  3.4782 -0.9885 -2.5715
 4744SOL    HW215396   0.496   5.318   5.439 -1.2779 -0.2298  1.2299
 4745SOL     OW15397   1.147   1.272   4.184 -0.1208  0.1656 -0.0906
 4745SOL    HW115398   1.122   1.205   4.121  0.7509  0.8872 -1.2477
 4745SOL    HW215399   1.154   1.226   4.267 -0.6967 -0.9306 -0.6357
 4746SOL     OW15400   6.946   4.556   2.561 -0.0777 -0.5453 -0.2303
 4746SOL    HW115401   6.870   4.590   2.608  0.7986  0.1286  0.7645
 4746SOL    HW215402   6.942   4.599   2.476 -0.5510 -0.1436 -0.0145
 4747SOL     OW15403   7.891   2.861   4.592 -0.3719  0.2470 -0.0782
 4747SOL    HW115404   7.910   2.878   4.685  1.4587 -2.2736  0.1086
 4747SOL    HW215405   7.837   2.783   4.592  0.2966 -0.2348 -1.1431
 4748SOL     OW15406   8.762   2.166   5.797 -0.3769  0.5854  0.0367
 4748SOL    HW115407   8.796   2.114   5.724 -1.6023  1.6731 -1.3680
 4748SOL    HW215408   8.680   2.122   5.822 -0.4127  0.7185  0.1555
 4749SOL     OW15409   0.953   1.178   8.587  0.0842 -0.7930  0.2750
 4749SOL    HW115410   1.045   1.184   8.614 -0.2282 -1.1432  1.4955
 4749SOL    HW215411   0.956   1.135   8.502  0.9651 -2.5273  1.1299
 4750SOL     OW15412   7.291   1.846   7.067  0.6301  0.5922 -0.6123
 4750SOL    HW115413   7.314   1.825   6.976  0.1654 -0.9127 -0.4100
 4750SOL    HW215414   7.205   1.886   7.061  0.7458  0.8063 -0.8637
 4751SOL     OW15415   8.184   8.167   4.341  0.1860 -0.0844  0.1353
 4751SOL    HW115416   8.254   8.204   4.395 -0.2013  0.3599  0.3425
 4751SOL    HW215417   8.114   8.231   4.346 -0.3667 -0.6826  0.2027
 4752SOL     OW15418   5.125   1.584   3.263  0.1624  0.1005  0.0656
 4752SOL    HW115419   5.084   1.498   3.258 -1.2668  0.5154  2.6408
 4752SOL    HW215420   5.062   1.643   3.222  0.6231  0.0807 -0.6822
 4753SOL     OW15421   6.759   0.549   0.085  0.0258 -0.5699 -0.0132
 4753SOL    HW115422   6.785   0.482   0.149  1.4169  1.0206  1.1785
 4753SOL    HW215423   6.841   0.577   0.045 -0.5104  0.4828 -0.4089
 4754SOL     OW15424   0.895   8.042   5.000 -0.1163  0.4695 -0.5111
 4754SOL    HW115425   0.809   8.006   4.981 -2.5176  2.9452  4.1226
 4754SOL    HW215426   0.892   8.131   4.965 -1.0715  1.8283  2.6598
 4755SOL     OW15427   8.804   7.479   4.630  0.3808 -0.8921 -0.1430
 4755SOL    HW115428   8.860   7.419   4.580  2.0147 -0.2539  0.8077
 4755SOL    HW215429   8.767   7.425   4.699  1.0861 -1.0211  0.1452
 4756SOL     OW15430   0.852   3.436   2.007  0.3399  0.6137  0.4811
 4756SOL    HW115431   0.809   3.503   1.954  0.0478  0.3817  0.4238
 4756SOL    HW215432   0.795   3.359   2.001  0.1970  0.6417  1.2833
 4757SOL     OW15433   5.070   8.693   6.446 -0.0991 -0.1387  0.2920
 4757SOL    HW115434   5.041   8.779   6.415 -1.8339  0.2276  2.6278
 4757SOL    HW215435   5.049   8.634   6.374 -0.6606  1.1177 -0.6261
 4758SOL     OW15436   4.544   7.480   1.843 -0.3576  0.2002 -0.2728
 4758SOL    HW115437   4.512   7.543   1.907  0.2921 -0.4020  0.6741
 4758SOL    HW215438   4.494   7.400   1.860  0.0302 -0.0542 -0.3041
 4759SOL     OW15439   2.194   3.771   5.485  0.0774 -0.1532  0.1985
 4759SOL    HW115440   2.254   3.696   5.491 -0.3830 -0.5307  0.1915
 4759SOL    HW215441   2.130   3.755   5.554 -0.6496 -0.3363 -0.5080
 4760SOL     OW15442   0.525   2.547   4.989  0.5286  0.0200  0.3968
 4760SOL    HW115443   0.504   2.616   4.926  0.7616  0.4933  0.8345
 4760SOL    HW215444   0.441   2.504   5.006  0.4270  0.0278 -0.0685
 4761SOL     OW15445   8.201   1.324   2.814 -0.2091  0.6209 -0.3402
 4761SOL    HW115446   8.273   1.261   2.807  0.5531  1.3934  0.3344
 4761SOL    HW215447   8.180   1.346   2.723  0.5349  0.5295 -0.5404
 4762SOL     OW15448   7.133   1.129   1.744  0.4188  0.3747 -0.3902
 4762SOL    HW115449   7.047   1.090   1.732  0.2191  1.0043 -1.0937
 4762SOL    HW215450   7.193   1.055   1.748 -0.0391 -0.0297 -0.9405
 4763SOL     OW15451   3.689   0.798   3.756 -0.0797 -0.2325  0.4728
 4763SOL    HW115452   3.609   0.851   3.760 -0.0199 -0.1320  0.3578
 4763SOL    HW215453   3.666   0.723   3.702  0.7456  1.2890 -2.1631
 4764SOL     OW15454   2.839   0.639   4.596 -0.4442 -0.3068 -0.6414
 4764SOL    HW115455   2.758   0.689   4.606 -0.0586  0.5392 -1.5647
 4764SOL    HW215456   2.844   0.621   4.502  1.3089  1.1900 -0.8806
 4765SOL     OW15457   0.212   0.837   3.031  0.1329 -0.2297  0.3649
 4765SOL    HW115458   0.181   0.878   2.950 -0.2189  1.5415  1.3541
 4765SOL    HW215459   0.306   0.825   3.017 -0.0140 -0.4444 -0.5090
 4766SOL     OW15460   4.733   8.610   3.469 -0.0333  0.0478  0.4800
 4766SOL    HW115461   4.678   8.672   3.518  1.7799  1.2379  1.1287
 4766SOL    HW215462   4.722   8.527   3.516  0.0640  0.6786  1.6609
 4767SOL     OW15463   7.521   8.566   8.289 -0.1639  0.3332  0.1156
 4767SOL    HW115464   7.432   8.550   8.260 -0.1927 -0.4085  0.5912
 4767SOL    HW215465   7.573   8.494   8.253  0.2715  0.8082 -0.2398
 4768SOL     OW15466   0.135   8.101   0.711 -0.3628 -0.3444 -0.7431
 4768SOL    HW115467   0.111   8.173   0.654 -0.6526 -1.1054 -1.6111
 4768SOL    HW215468   0.159   8.142   0.794 -0.6483  0.7256 -1.1817
 4769SOL     OW15469   3.289   1.085   7.459  0.2680  0.0698  0.0273
 4769SOL    HW115470   3.243   1.118   7.536  2.2770  0.4921  1.1180
 4769SOL    HW215471   3.315   0.996   7.482 -0.8010 -0.5370 -0.9716
 4770SOL     OW15472   7.188   8.813   2.246 -0.1528  0.2850 -0.7394
 4770SOL    HW115473   7.155   8.895   2.209 -3.1987 -0.5877 -0.2501
 4770SOL    HW215474   7.177   8.824   2.341 -0.0881 -0.4796 -0.6426
 4771SOL     OW15475   8.836   0.719   4.382  0.1597 -0.2163  0.0373
 4771SOL    HW115476   8.925   0.755   4.380  0.7866 -1.6886 -0.2386
 4771SOL    HW215477   8.825   0.687   4.472  0.1040 -0.4586 -0.0541
 4772SOL     OW15478   6.635   5.573   0.865  0.2412 -0.5307  0.2366
 4772SOL    HW115479   6.585   5.619   0.797 -1.6809 -1.4238  0.9602
 4772SOL    HW215480   6.726   5.582   0.838 -0.3868 -0.0834 -1.9862
 4773SOL     OW15481   4.882   3.130   1.500  0.6044  0.6312 -0.1146
 4773SOL    HW115482   4.840   3.147   1.415 -0.4316  1.1275  0.4765
 4773SOL    HW215483   4.825   3.064   1.541  1.4899 -0.1318 -0.0831
 4774SOL     OW15484   7.810   6.676   7.033  0.3874 -0.0013 -0.2597
 4774SOL    HW115485   7.812   6.735   6.958 -0.7950  0.3620 -0.0207
 4774SOL    HW215486   7.854   6.596   7.002  2.9577  1.3130 -0.2699
 4775SOL     OW15487   3.328   3.915   8.222 -0.0409  0.0874  0.4395
 4775SOL    HW115488   3.265   3.919   8.294  0.6076 -0.0200  1.0324
 4775SOL    HW215489   3.277   3.892   8.145 -0.5742 -1.0384  1.1069
 4776SOL     OW15490   4.879   5.745   0.868 -0.3414  0.1771 -0.1343
 4776SOL    HW115491   4.934   5.753   0.790 -1.1570 -0.6920 -0.8334
 4776SOL    HW215492   4.862   5.651   0.875  1.2855 -0.0526  2.2321
 4777SOL     OW15493   3.815   3.073   3.551 -0.5387 -0.3082 -0.0415
 4777SOL    HW115494   3.894   3.084   3.604 -1.0292 -0.4968  0.7499
 4777SOL    HW215495   3.816   2.980   3.526 -2.0018 -1.1146  2.4859
 4778SOL     OW15496   7.980   0.200   1.794 -0.4230  0.5695  0.0729
 4778SOL    HW115497   7.917   0.175   1.861 -0.3281  0.7311  0.2214
 4778SOL    HW215498   7.926   0.211   1.715 -0.7115  1.5045  0.3812
 4779SOL     OW15499   6.504   2.820   1.815  0.3871 -0.0286 -0.2694
 4779SOL    HW115500   6.447   2.896   1.822 -0.1931 -0.2480 -2.0243
 4779SOL    HW215501   6.550   2.832   1.732  1.9471 -0.5201  0.4819
 4780SOL     OW15502   7.002   2.823   3.723  0.0530 -0.5353 -0.2757
 4780SOL    HW115503   7.077   2.814   3.663  0.2984 -0.5226  0.0251
 4780SOL    HW215504   7.039   2.865   3.800 -0.0118 -1.5807  0.3377
 4781SOL     OW15505   2.958   5.400   3.529 -0.6599  0.3217 -0.1474
 4781SOL    HW115506   3.051   5.395   3.506  0.2662  2.1046  2.6641
 4781SOL    HW215507   2.924   5.474   3.478 -0.8305 -0.8500 -1.8203
 4782SOL     OW15508   2.820   2.427   4.098 -0.3181 -0.1068 -0.4277
 4782SOL    HW115509   2.830   2.337   4.131 -0.3864  0.0893  0.1387
 4782SOL    HW215510   2.867   2.427   4.015 -0.5028 -0.7293 -0.5421
 4783SOL     OW15511   8.256   7.226   1.534 -0.8285  0.2650 -0.2574
 4783SOL    HW115512   8.316   7.300   1.531 -0.8394  0.2761 -0.2012
 4783SOL    HW215513   8.304   7.158   1.582 -1.4622  0.8112  1.1849
 4784SOL     OW15514   1.262   7.857   2.830  0.0079  0.4819 -0.3098
 4784SOL    HW115515   1.268   7.875   2.736  0.7659  1.9670 -0.0102
 4784SOL    HW215516   1.343   7.810   2.851 -1.2475 -2.0852 -0.7927
 4785SOL     OW15517   6.415   2.557   1.847  0.1500 -0.1633 -0.7130
 4785SOL    HW115518   6.463   2.640   1.841 -0.6099  0.2055 -2.2883
 4785SOL    HW215519   6.324   2.583   1.857 -0.2477 -0.7425 -2.4218
 4786SOL     OW15520   1.971   7.775   4.378 -1.2061  0.4568  0.1903
 4786SOL    HW115521   2.059   7.743   4.357 -2.2234 -2.5753  0.0801
 4786SOL    HW215522   1.913   7.702   4.355 -3.6282  1.8443  1.5368
 4787SOL     OW15523   0.831   0.201   7.919  0.3779 -0.0597  0.7521
 4787SOL    HW115524   0.761   0.170   7.862 -0.3361  0.5183  1.2907
 4787SOL    HW215525   0.860   0.283   7.879  0.8246 -0.3475  0.4755
 4788SOL     OW15526   7.246   2.317   0.740  0.5977 -0.7240 -0.9750
 4788SOL    HW115527   7.244   2.410   0.763 -0.3173 -0.7854 -0.7403
 4788SOL    HW215528   7.338   2.292   0.745  0.5423 -0.7068  2.6174
 4789SOL     OW15529   1.565   0.374   4.513 -0.5477 -0.3531  0.7050
 4789SOL    HW115530   1.548   0.431   4.438 -1.2146  1.6226  2.2529
 4789SOL    HW215531   1.488   0.317   4.518 -0.8821  0.0542  0.3264
 4790SOL     OW15532   3.607   3.728   1.768 -0.0655 -0.0996  0.6036
 4790SOL    HW115533   3.586   3.796   1.832 -0.1212  1.9776 -1.4868
 4790SOL    HW215534   3.696   3.701   1.791 -0.5833 -0.4112  2.3617
 4791SOL     OW15535   0.162   1.530   4.991  0.3682  0.0695 -0.2277
 4791SOL    HW115536   0.172   1.513   4.897 -0.9151  1.9452 -0.7725
 4791SOL    HW215537   0.068   1.523   5.007 -0.0640  3.9852 -0.1107
 4792SOL     OW15538   8.250   6.068   5.875 -0.3141  0.3112  0.0662
 4792SOL    HW115539   8.176   6.093   5.930  0.4903  1.2236  0.7664
 4792SOL    HW215540   8.266   5.976   5.896  0.7763  0.9539  2.3663
 4793SOL     OW15541   7.173   6.070   2.389 -1.3366  0.1123 -0.0275
 4793SOL    HW115542   7.229   5.999   2.420 -2.1869 -0.3642  0.4601
 4793SOL    HW215543   7.209   6.093   2.304 -0.1012  0.1565  0.4801
 4794SOL     OW15544   8.783   5.407   8.702  0.4280  0.0230  0.1236
 4794SOL    HW115545   8.768   5.498   8.676 -0.7349  0.4014  1.9297
 4794SOL    HW215546   8.863   5.410   8.754  1.5076 -0.3547 -1.4679
 4795SOL     OW15547   6.495   1.622   8.714  0.0746  0.0228 -0.0515
 4795SOL    HW115548   6.522   1.681   8.784  1.5982  0.8240 -1.2615
 4795SOL    HW215549   6.480   1.679   8.639  0.2572 -1.0031 -0.8885
 4796SOL     OW15550   6.358   3.663   6.475 -0.3236  0.1678  0.0009
 4796SOL    HW115551   6.263   3.655   6.488 -0.3049  0.1628  0.1367
 4796SOL    HW215552   6.377   3.754   6.498 -0.2342  0.0589  0.3643
 4797SOL     OW15553   6.343   6.431   8.610  0.4536  0.1039 -0.4925
 4797SOL    HW115554   6.284   6.382   8.552 -1.0599 -0.4152  1.3940
 4797SOL    HW215555   6.297   6.513   8.628 -0.5189 -0.9485  2.2362
 4798SOL     OW15556   3.180   6.982   5.712  0.1910 -0.5166 -0.7439
 4798SOL    HW115557   3.243   6.922   5.752 -0.1506 -0.4642 -0.1025
 4798SOL    HW215558   3.101   6.973   5.766  0.4280  1.1599 -0.0469
 4799SOL     OW15559   7.306   5.530   4.520 -0.1815  0.5114  0.6124
 4799SOL    HW115560   7.266   5.616   4.520  0.4284  0.8032 -0.3064
 4799SOL    HW215561   7.310   5.505   4.613 -0.9376  1.1873  0.8301
 4800SOL     OW15562   1.790   1.358   6.764  0.1938 -0.6042  0.1163
 4800SOL    HW115563   1.744   1.423   6.817 -0.5091  0.5945 -1.8510
 4800SOL    HW215564   1.825   1.407   6.690 -0.1020 -2.3986 -1.3048
 4801SOL     OW15565   6.894   4.914   2.145  0.0576 -1.0973 -0.1322
 4801SOL    HW115566   6.976   4.883   2.107 -1.1202 -1.9384 -2.2154
 4801SOL    HW215567   6.844   4.947   2.070 -0.9615  0.7364  1.2723
 4802SOL     OW15568   3.437   0.512   1.289 -0.2848 -0.2361 -0.5874
 4802SOL    HW115569   3.467   0.478   1.373 -0.1492 -0.9596 -0.9174
 4802SOL    HW215570   3.512   0.498   1.230 -1.4231 -2.6756 -1.5872
 4803SOL     OW15571   3.010   5.026   0.897  0.1294  0.2313 -0.3687
 4803SOL    HW115572   2.967   4.940   0.896  1.9414 -0.7203 -0.8912
 4803SOL    HW215573   3.104   5.006   0.899  0.5970  2.2126 -0.2617
 4804SOL     OW15574   2.412   2.787   0.993 -0.1713 -0.4736  0.6024
 4804SOL    HW115575   2.443   2.714   0.939  0.4509 -0.0004  0.2987
 4804SOL    HW215576   2.324   2.805   0.960  0.7626  0.8334 -1.3885
 4805SOL     OW15577   4.651   8.050   7.498  0.3559 -0.6275 -0.1494
 4805SOL    HW115578   4.630   8.095   7.580  1.8765 -1.8045  0.9539
 4805SOL    HW215579   4.687   8.119   7.442  1.3154 -0.1741  0.9804
 4806SOL     OW15580   7.637   5.310   1.254 -0.2866  0.0647  0.3305
 4806SOL    HW115581   7.594   5.374   1.198 -1.9923 -1.4805 -0.2337
 4806SOL    HW215582   7.705   5.271   1.198 -1.5304 -0.9889 -0.5179
 4807SOL     OW15583   5.652   4.898   6.414 -0.3189 -0.5101  0.6054
 4807SOL    HW115584   5.734   4.900   6.364  0.3920 -1.9598  1.6166
 4807SOL    HW215585   5.649   4.983   6.457 -0.0693  0.0962 -0.5265
 4808SOL     OW15586   5.861   4.814   2.554  0.4017 -0.2795  0.1174
 4808SOL    HW115587   5.827   4.829   2.466 -2.3672 -0.7040  0.9980
 4808SOL    HW215588   5.802   4.864   2.611  1.1142 -1.3204  1.8432
 4809SOL     OW15589   4.593   7.328   2.777 -0.8036 -0.0925  0.4100
 4809SOL    HW115590   4.646   7.328   2.697  1.9840 -0.1478  2.1124
 4809SOL    HW215591   4.595   7.237   2.808 -1.8043 -0.0654  0.5751
 4810SOL     OW15592   1.315   5.406   0.941 -0.1608  0.0832  0.0873
 4810SOL    HW115593   1.349   5.318   0.927 -0.6052  0.2229 -2.2877
 4810SOL    HW215594   1.391   5.458   0.967  0.6318 -0.4564 -1.1036
 4811SOL     OW15595   6.494   0.811   4.867 -0.5688 -0.4499  0.1992
 4811SOL    HW115596   6.494   0.905   4.849  0.5959 -0.8094 -2.0217
 4811SOL    HW215597   6.407   0.782   4.841  0.0977 -0.4497 -2.2183
 4812SOL     OW15598   2.052   2.670   8.013 -0.4299  0.5513 -0.0916
 4812SOL    HW115599   2.105   2.697   7.938  0.1609 -0.8794 -0.2296
 4812SOL    HW215600   2.117   2.656   8.083 -0.5360 -1.5478 -0.3553
 4813SOL     OW15601   0.391   8.614   6.502  0.2138 -0.0181  0.2116
 4813SOL    HW115602   0.475   8.605   6.456  0.0124 -0.0425 -0.1589
 4813SOL    HW215603   0.385   8.536   6.557  0.8459  0.4304  0.9202
 4814SOL     OW15604   4.508   8.613   8.335  0.1721 -0.5287 -0.6542
 4814SOL    HW115605   4.553   8.599   8.252  0.2527 -0.6104 -0.5971
 4814SOL    HW215606   4.531   8.702   8.360  0.3809 -0.6035 -0.5781
 4815SOL     OW15607   4.252   7.946   6.383  0.2548 -0.1229  0.0605
 4815SOL    HW115608   4.323   7.933   6.321  0.2926 -1.2071  0.2989
 4815SOL    HW215609   4.290   7.997   6.454  0.1863  1.2121 -0.8271
 4816SOL     OW15610   6.170   3.751   2.539 -0.0881  0.1510 -0.7771
 4816SOL    HW115611   6.230   3.721   2.608 -0.1908  0.4762 -0.5414
 4816SOL    HW215612   6.219   3.820   2.494 -0.6618  1.1180  0.0607
 4817SOL     OW15613   2.997   7.482   5.284 -0.8575  0.4346  0.6399
 4817SOL    HW115614   3.028   7.457   5.197 -1.4727 -1.3028  0.8780
 4817SOL    HW215615   2.903   7.495   5.272 -0.6850  1.8597  0.7160
 4818SOL     OW15616   8.811   6.346   4.693 -0.4169 -0.8062  0.1074
 4818SOL    HW115617   8.836   6.255   4.675  0.7931 -0.7627  1.3612
 4818SOL    HW215618   8.886   6.381   4.742 -0.8554  0.8766 -0.3755
 4819SOL     OW15619   8.831   3.863   8.628 -0.3892 -0.3384 -0.2511
 4819SOL    HW115620   8.890   3.787   8.621 -0.0782  0.0378 -2.3413
 4819SOL    HW215621   8.884   3.937   8.598 -0.4165  0.9234  2.5491
 4820SOL     OW15622   8.696   3.127   4.103  0.3948 -0.5056  0.0555
 4820SOL    HW115623   8.677   3.043   4.146  0.6263 -1.6453 -1.9615
 4820SOL    HW215624   8.616   3.178   4.115 -0.1731 -1.4233  0.3557
 4821SOL     OW15625   8.226   0.519   3.949  0.4586 -0.4357 -0.3067
 4821SOL    HW115626   8.251   0.432   3.978 -1.3062 -0.6487  0.7464
 4821SOL    HW215627   8.308   0.560   3.921  1.8231 -1.2952  2.1765
 4822SOL     OW15628   8.035   1.936   3.390  0.6719 -0.0671  0.4629
 4822SOL    HW115629   7.966   1.936   3.456 -2.7732 -3.4721 -2.6426
 4822SOL    HW215630   7.999   1.986   3.317  2.9238  0.7323 -0.2036
 4823SOL     OW15631   8.182   7.523   0.017 -0.3268 -0.2068 -0.7310
 4823SOL    HW115632   8.105   7.471  -0.008 -1.4693  1.1663 -0.1917
 4823SOL    HW215633   8.205   7.491   0.104 -1.6307  0.7922  0.0228
 4824SOL     OW15634   0.636   3.670   7.866 -0.8676 -0.1799 -0.2233
 4824SOL    HW115635   0.541   3.675   7.871 -0.8340  1.6319 -0.7653
 4824SOL    HW215636   0.667   3.756   7.893  0.4533  0.3353 -3.0069
 4825SOL     OW15637   0.510   0.485   2.905  0.8678  0.0849 -0.1517
 4825SOL    HW115638   0.570   0.462   2.833  1.5735  0.5388  0.2768
 4825SOL    HW215639   0.539   0.430   2.978 -0.9777 -1.7026 -0.6816
 4826SOL     OW15640   2.785   4.336   5.104 -0.5594 -1.2155  0.5713
 4826SOL    HW115641   2.817   4.260   5.055 -2.2076 -1.8318  0.3757
 4826SOL    HW215642   2.698   4.352   5.068 -0.6419  0.1428  1.3215
 4827SOL     OW15643   7.306   7.998   7.422 -0.3353  0.1398  0.1156
 4827SOL    HW115644   7.366   8.048   7.366  0.2749  0.7242  1.2622
 4827SOL    HW215645   7.285   7.921   7.370  0.1029  0.7235 -0.9785
 4828SOL     OW15646   2.616   3.050   0.449 -0.2532  0.0011 -0.0794
 4828SOL    HW115647   2.593   2.989   0.379  1.9596 -1.6138  0.4975
 4828SOL    HW215648   2.592   3.004   0.529  0.7763  0.1786  0.3397
 4829SOL     OW15649   2.069   0.264   0.506  0.3945 -0.3005  0.2003
 4829SOL    HW115650   2.069   0.249   0.412  1.0245 -0.5496  0.2353
 4829SOL    HW215651   2.040   0.354   0.516 -0.0571 -0.4007 -0.2111
 4830SOL     OW15652   0.188   6.293   3.590 -0.3833  0.8197  0.7479
 4830SOL    HW115653   0.216   6.206   3.619 -0.3924  0.6378  0.2186
 4830SOL    HW215654   0.094   6.282   3.571 -0.4531  1.0223  0.9797
 4831SOL     OW15655   4.083   6.872   0.661  0.4600 -0.0191 -0.1632
 4831SOL    HW115656   4.050   6.954   0.625  0.1656 -0.8073 -1.7606
 4831SOL    HW215657   4.178   6.877   0.651  0.5472  0.6108  0.8534
 4832SOL     OW15658   4.808   3.826   1.684 -0.1928 -0.6173  0.3403
 4832SOL    HW115659   4.797   3.823   1.589 -1.2198 -1.6645  0.4847
 4832SOL    HW215660   4.890   3.779   1.700  0.5797  0.5126 -0.0845
 4833SOL     OW15661   0.768   5.542   6.025 -0.3557  0.2032 -0.6861
 4833SOL    HW115662   0.834   5.497   5.971  1.2582  1.2066  0.3460
 4833SOL    HW215663   0.688   5.493   6.011  1.0690 -2.3989 -0.3616
 4834SOL     OW15664   3.528   4.030   7.572  0.3354 -0.4898 -0.5808
 4834SOL    HW115665   3.525   4.111   7.520  0.6319 -0.3490 -0.3827
 4834SOL    HW215666   3.522   3.960   7.508  0.6070 -0.3156 -0.8026
 4835SOL     OW15667   0.938   4.734   6.160  0.3457  0.0003 -0.0846
 4835SOL    HW115668   0.861   4.768   6.114 -0.1390 -0.9045  0.0539
 4835SOL    HW215669   0.999   4.711   6.090  0.3630  0.3898 -0.2040
 4836SOL     OW15670   4.753   0.297   8.719  0.0754 -0.7464 -0.0460
 4836SOL    HW115671   4.804   0.340   8.650  0.8096 -1.2225  0.1873
 4836SOL    HW215672   4.682   0.358   8.738  0.6263 -0.0163 -0.2939
 4837SOL     OW15673   0.073   1.804   1.389 -0.5859 -0.0968 -0.0098
 4837SOL    HW115674   0.134   1.857   1.441 -1.0714  0.5511 -0.0971
 4837SOL    HW215675   0.067   1.849   1.306 -1.1450 -0.1981 -0.0243
 4838SOL     OW15676   8.702   3.477   8.435 -0.3496  0.0151  0.0195
 4838SOL    HW115677   8.620   3.429   8.437 -0.8222  0.8256  0.6629
 4838SOL    HW215678   8.752   3.444   8.510 -0.4794  0.1866  0.1828
 4839SOL     OW15679   0.988   0.200   1.825  0.2438  0.4798 -0.0765
 4839SOL    HW115680   0.933   0.128   1.796  0.9231  0.9442 -2.7863
 4839SOL    HW215681   0.962   0.274   1.769  1.4548  1.5729  0.7437
 4840SOL     OW15682   5.682   0.759   5.545  0.5726  0.0349  0.5629
 4840SOL    HW115683   5.694   0.831   5.607 -0.1737  0.0232  0.7287
 4840SOL    HW215684   5.752   0.697   5.566  0.8127  0.4099  0.8611
 4841SOL     OW15685   2.860   0.208   5.036  0.0191  0.6440  0.1089
 4841SOL    HW115686   2.918   0.137   5.007 -0.4944  0.5373 -0.6908
 4841SOL    HW215687   2.900   0.288   5.000  0.8077  0.8240  1.3313
 4842SOL     OW15688   3.320   8.516   3.079  0.5363  0.0433 -0.0363
 4842SOL    HW115689   3.362   8.460   3.014  0.6553 -0.8536  0.7857
 4842SOL    HW215690   3.238   8.544   3.037  0.8896 -0.0221 -0.7882
 4843SOL     OW15691   6.224   0.512   1.300 -0.1131  0.3894  0.4319
 4843SOL    HW115692   6.311   0.483   1.271 -0.4798 -0.9945  0.6297
 4843SOL    HW215693   6.191   0.564   1.228 -0.2685 -1.4876 -0.9265
 4844SOL     OW15694   8.411   8.437   0.767 -0.3668 -0.0065  0.3450
 4844SOL    HW115695   8.347   8.482   0.712 -0.4830  1.8598  1.8681
 4844SOL    HW215696   8.496   8.463   0.731 -0.2790 -3.4115 -2.4039
 4845SOL     OW15697   0.633   5.390   4.929 -0.8127  0.1003  0.2982
 4845SOL    HW115698   0.554   5.385   4.983 -0.2041  0.9450  1.3120
 4845SOL    HW215699   0.628   5.313   4.872 -1.6113 -0.6957  1.3884
 4846SOL     OW15700   3.406   4.821   7.963 -0.0173  0.3000  0.0976
 4846SOL    HW115701   3.353   4.847   7.887  0.5388  0.9206 -0.0953
 4846SOL    HW215702   3.473   4.889   7.968 -0.7812  0.9784  1.9090
 4847SOL     OW15703   7.925   7.856   2.118  0.3003 -0.5549  0.3221
 4847SOL    HW115704   7.839   7.853   2.161 -0.3282  2.0559 -0.5513
 4847SOL    HW215705   7.980   7.906   2.177  0.5845 -0.3648 -0.0966
 4848SOL     OW15706   7.722   4.585   7.514  0.5113 -0.2689  0.1208
 4848SOL    HW115707   7.778   4.517   7.553  0.9479  0.8718  1.5990
 4848SOL    HW215708   7.757   4.667   7.548 -0.2138  0.6961 -1.3574
 4849SOL     OW15709   5.584   2.110   5.043 -0.5700 -0.1012  0.1826
 4849SOL    HW115710   5.586   2.017   5.022  0.3090 -0.2914  1.0634
 4849SOL    HW215711   5.676   2.137   5.044 -0.8861  1.4200 -2.7197
 4850SOL     OW15712   6.216   1.808   3.511 -0.1830 -0.1483 -0.6397
 4850SOL    HW115713   6.306   1.791   3.483  0.1001 -1.3594  0.8823
 4850SOL    HW215714   6.169   1.828   3.430  1.4298  0.4203 -1.4664
 4851SOL     OW15715   3.378   7.729   0.647  0.3520 -0.2158  0.6127
 4851SOL    HW115716   3.322   7.674   0.594 -2.6208  0.8983  2.3555
 4851SOL    HW215717   3.401   7.674   0.722  0.6220 -0.2889  0.4787
 4852SOL     OW15718   7.795   2.119   3.842  0.3122 -0.3422 -0.2674
 4852SOL    HW115719   7.777   2.205   3.804  1.0325 -0.1594 -0.2132
 4852SOL    HW215720   7.891   2.114   3.844  0.2772 -1.2782 -0.5792
 4853SOL     OW15721   4.946   7.357   4.825  0.5980  0.2910 -0.1547
 4853SOL    HW115722   4.964   7.388   4.736 -1.2819  0.7742 -0.4008
 4853SOL    HW215723   4.915   7.435   4.871  0.5356 -0.1889  0.6299
 4854SOL     OW15724   8.117   5.382   3.158  0.7006  0.1013  0.3089
 4854SOL    HW115725   8.109   5.477   3.150 -1.6403 -0.0555  0.0639
 4854SOL    HW215726   8.094   5.364   3.249  0.0162 -0.3169  0.0527
 4855SOL     OW15727   0.664   2.500   5.293  0.4381 -0.7589  0.2755
 4855SOL    HW115728   0.574   2.506   5.324  0.4399 -0.4549  0.2267
 4855SOL    HW215729   0.657   2.464   5.204  0.3776 -0.8896  0.3326
 4856SOL     OW15730   0.995   2.755   6.762  0.0849  0.6465  0.3133
 4856SOL    HW115731   1.080   2.747   6.806  0.0919 -0.6382  0.1296
 4856SOL    HW215732   1.018   2.762   6.669  0.0125 -0.9862  0.1264
 4857SOL     OW15733   5.276   5.146   2.760 -0.3873  0.5860  0.3512
 4857SOL    HW115734   5.336   5.080   2.725 -1.1092  0.6895 -1.1240
 4857SOL    HW215735   5.194   5.132   2.713 -1.9701 -0.3261  3.1304
 4858SOL     OW15736   3.832   3.084   6.177 -0.0146  0.5366 -0.2631
 4858SOL    HW115737   3.878   3.005   6.151  2.2418  1.6266  0.1363
 4858SOL    HW215738   3.880   3.116   6.253 -2.0687  1.2573  0.8079
 4859SOL     OW15739   7.073   2.355   3.492  0.0385 -0.3577  0.2791
 4859SOL    HW115740   7.060   2.371   3.585 -0.5745 -1.4807  0.3915
 4859SOL    HW215741   7.147   2.412   3.469  1.1447 -1.1141  1.7693
 4860SOL     OW15742   7.273   0.139   2.516 -0.1563  0.3761  0.1609
 4860SOL    HW115743   7.295   0.214   2.572  0.7516  0.1383  0.1291
 4860SOL    HW215744   7.195   0.168   2.468 -1.2717  0.3895  1.9105
 4861SOL     OW15745   7.211   7.597   8.729 -0.3053 -0.0903 -0.1513
 4861SOL    HW115746   7.190   7.689   8.748 -0.7504 -0.5504  1.8312
 4861SOL    HW215747   7.292   7.580   8.777  0.2863 -0.5130 -1.2612
 4862SOL     OW15748   7.046   6.469   5.558 -0.9464 -0.5878  0.3838
 4862SOL    HW115749   6.951   6.484   5.554 -1.0589 -1.5290 -1.7727
 4862SOL    HW215750   7.083   6.541   5.506 -0.4234 -0.0835  1.4247
 4863SOL     OW15751   1.510   0.690   8.456 -0.4232  0.1996  0.2366
 4863SOL    HW115752   1.443   0.719   8.518  1.0117  0.8732  1.5096
 4863SOL    HW215753   1.501   0.595   8.455 -1.6434  0.2923  0.0795
 4864SOL     OW15754   6.183   4.714   5.785  0.8962 -0.4016  0.0489
 4864SOL    HW115755   6.168   4.734   5.693  1.4209 -0.8697 -0.1409
 4864SOL    HW215756   6.244   4.641   5.784  3.0966  1.3206  0.7722
 4865SOL     OW15757   8.815   5.926   5.222 -0.3384 -0.0365 -0.0781
 4865SOL    HW115758   8.863   5.941   5.303 -1.1439  0.1672  0.3812
 4865SOL    HW215759   8.763   5.847   5.240 -1.0667  0.4249 -0.1273
 4866SOL     OW15760   4.247   4.880   5.786 -0.7073 -0.1223 -0.2459
 4866SOL    HW115761   4.269   4.968   5.818 -1.6122  0.5301 -1.3247
 4866SOL    HW215762   4.157   4.866   5.816 -0.7554 -0.4571 -0.5481
 4867SOL     OW15763   0.285   0.630   7.837  0.2061 -0.1719 -0.3655
 4867SOL    HW115764   0.323   0.642   7.925 -2.2546 -1.6911  1.0179
 4867SOL    HW215765   0.328   0.697   7.784  0.8081  1.7811  2.3192
 4868SOL     OW15766   2.211   4.662   5.502 -0.3261  0.5723 -0.4615
 4868SOL    HW115767   2.244   4.593   5.559 -2.1211 -1.3685 -1.6109
 4868SOL    HW215768   2.223   4.742   5.552  1.7528 -0.5352  0.9904
 4869SOL     OW15769   6.272   1.501   8.839 -0.1527 -0.3043  0.5649
 4869SOL    HW115770   6.299   1.505   8.931  0.3464 -0.1645  0.4181
 4869SOL    HW215771   6.351   1.525   8.790 -0.9881  1.8521  0.1800
 4870SOL     OW15772   0.862   6.631   2.954 -0.3238 -0.4005 -0.4937
 4870SOL    HW115773   0.856   6.573   3.030  1.3898  1.6077  1.3334
 4870SOL    HW215774   0.954   6.626   2.928 -0.8726 -1.0103 -2.4733
 4871SOL     OW15775   3.261   1.377   2.663  0.1429 -0.6261 -0.3138
 4871SOL    HW115776   3.167   1.372   2.680  0.3557  0.5405  1.4431
 4871SOL    HW215777   3.301   1.334   2.738  1.0442  1.6663  0.6212
 4872SOL     OW15778   1.827   3.347   2.289  0.6780 -0.7986  0.5007
 4872SOL    HW115779   1.764   3.298   2.234 -1.3312  1.7346  0.3561
 4872SOL    HW215780   1.802   3.325   2.379 -0.6727  0.4198  0.4485
 4873SOL     OW15781   7.576   7.389   6.047 -0.6386  0.3772  0.3944
 4873SOL    HW115782   7.549   7.398   6.139  0.1498  1.4887  0.5274
 4873SOL    HW215783   7.624   7.469   6.028  0.1698 -0.3414 -0.6707
 4874SOL     OW15784   6.345   1.945   5.356  0.3534  0.0382 -0.0626
 4874SOL    HW115785   6.394   1.999   5.418  0.4692 -0.4016  0.2287
 4874SOL    HW215786   6.364   1.983   5.270 -0.2601  1.0068  0.2134
 4875SOL     OW15787   6.727   0.897   3.784 -0.3838 -0.4365  0.1598
 4875SOL    HW115788   6.639   0.884   3.821  0.3730 -2.5156  1.4322
 4875SOL    HW215789   6.751   0.810   3.751  1.2012  0.1086 -0.1808
 4876SOL     OW15790   1.074   5.282   8.323  0.3501  0.0499 -0.1042
 4876SOL    HW115791   1.142   5.348   8.328 -0.0618  0.6459 -1.6166
 4876SOL    HW215792   1.116   5.207   8.282 -0.1836  0.9273 -2.4159
 4877SOL     OW15793   7.568   5.525   7.106  0.5545 -0.0068  0.0332
 4877SOL    HW115794   7.648   5.472   7.105 -0.1034 -1.1416  2.0390
 4877SOL    HW215795   7.500   5.464   7.135 -1.0577  0.9633 -1.5047
 4878SOL     OW15796   3.073   5.615   5.216  0.6358  0.3293  0.3186
 4878SOL    HW115797   3.005   5.599   5.281 -0.2134 -1.2789 -0.8907
 4878SOL    HW215798   3.118   5.532   5.206  4.3500  1.8156  2.6342
 4879SOL     OW15799   2.152   5.648   8.707 -0.0890 -0.7129 -0.1692
 4879SOL    HW115800   2.180   5.733   8.742  0.9386 -1.9541  2.2122
 4879SOL    HW215801   2.229   5.592   8.717 -1.0870 -2.2192 -0.6782
 4880SOL     OW15802   2.796   4.111   5.376  0.1477 -0.1323  0.4027
 4880SOL    HW115803   2.776   4.055   5.301 -1.3096  1.2736 -0.3180
 4880SOL    HW215804   2.763   4.063   5.452 -0.6711 -0.4508 -0.1510
 4881SOL     OW15805   8.195   5.564   1.159  0.2047 -0.2270 -0.0993
 4881SOL    HW115806   8.152   5.593   1.239 -0.0732 -0.1125 -0.2893
 4881SOL    HW215807   8.209   5.644   1.108  0.9766 -0.2121  0.1161
 4882SOL     OW15808   3.925   7.001   1.024 -0.2950  0.2221  0.0592
 4882SOL    HW115809   3.830   6.992   1.031 -0.1851 -0.3018  1.0850
 4882SOL    HW215810   3.944   7.088   1.058 -0.2276 -0.5101  2.0426
 4883SOL     OW15811   1.596   8.508   5.407 -0.0748 -0.1910 -0.0218
 4883SOL    HW115812   1.559   8.582   5.455 -1.7980  0.2001 -1.7947
 4883SOL    HW215813   1.520   8.465   5.367  1.1595 -1.0337 -1.5867
 4884SOL     OW15814   7.932   3.141   2.513 -0.9341 -1.0840  0.2318
 4884SOL    HW115815   7.945   3.140   2.418  0.6950 -0.0149  0.4022
 4884SOL    HW215816   7.990   3.072   2.545 -1.6264 -1.5733  0.4581
 4885SOL     OW15817   2.401   7.101   3.874  0.4910 -0.4135  0.1872
 4885SOL    HW115818   2.336   7.127   3.809  0.3487  0.2700  0.5945
 4885SOL    HW215819   2.349   7.056   3.942  0.2762  0.9829  0.9889
 4886SOL     OW15820   0.856   6.385   7.157  0.3633  0.0068  0.2152
 4886SOL    HW115821   0.917   6.420   7.092  0.1085  0.1902  0.0725
 4886SOL    HW215822   0.904   6.313   7.199  0.3453 -0.4677 -0.5416
 4887SOL     OW15823   0.488   0.135   7.541 -0.2253 -1.0884 -0.3233
 4887SOL    HW115824   0.401   0.162   7.572 -0.7756 -3.3108  0.2498
 4887SOL    HW215825   0.475   0.047   7.508  2.2572 -2.5511  2.1550
 4888SOL     OW15826   3.187   8.426   6.487 -0.4698 -0.0082  0.8044
 4888SOL    HW115827   3.143   8.350   6.525 -0.5475 -0.0825  0.5686
 4888SOL    HW215828   3.275   8.395   6.466 -0.8277 -0.3454 -0.2753
 4889SOL     OW15829   2.594   7.102   5.904  0.0888  0.2331 -0.1243
 4889SOL    HW115830   2.530   7.111   5.975  1.4508 -0.2234  1.2239
 4889SOL    HW215831   2.588   7.009   5.879 -0.7660  0.5152 -0.9913
 4890SOL     OW15832   5.295   4.023   8.355 -0.0057 -0.1479 -0.5376
 4890SOL    HW115833   5.362   3.975   8.404  0.2418  0.6052 -0.1335
 4890SOL    HW215834   5.273   3.965   8.282  0.3531 -0.8407 -0.1044
 4891SOL     OW15835   8.586   0.377   0.505  0.4022  0.3159 -0.0961
 4891SOL    HW115836   8.627   0.293   0.524 -0.3238 -0.4578 -1.7316
 4891SOL    HW215837   8.494   0.365   0.528 -0.1690 -0.1294 -2.3247
 4892SOL     OW15838   1.459   8.040   4.006 -0.3056  0.2366 -0.0554
 4892SOL    HW115839   1.372   8.004   4.021 -0.9565  1.1460 -1.4712
 4892SOL    HW215840   1.484   8.006   3.919 -0.2217  1.7767 -0.6611
 4893SOL     OW15841   3.601   7.780   2.905 -0.2898 -0.2884 -0.2583
 4893SOL    HW115842   3.645   7.797   2.988 -0.4583 -1.4757  0.0995
 4893SOL    HW215843   3.598   7.865   2.861 -0.3161  0.3928  1.0063
 4894SOL     OW15844   4.594   2.362   4.229  0.0817 -0.4747  0.2382
 4894SOL    HW115845   4.518   2.335   4.282  0.0347  0.6255  0.7467
 4894SOL    HW215846   4.670   2.341   4.284  0.1300 -1.0734 -0.0478
 4895SOL     OW15847   6.974   1.783   7.888 -0.2012 -0.0179 -0.3943
 4895SOL    HW115848   7.026   1.804   7.965  2.2688 -1.4898 -1.5583
 4895SOL    HW215849   6.978   1.863   7.835  0.1947  0.1455 -0.1270
 4896SOL     OW15850   2.367   4.485   1.364  0.2770 -0.0665 -0.1438
 4896SOL    HW115851   2.349   4.505   1.273 -2.5978  2.5548  0.8092
 4896SOL    HW215852   2.280   4.482   1.406  1.5106  0.7465  2.7729
 4897SOL     OW15853   4.592   1.450   0.237  0.0970  0.0600  0.5873
 4897SOL    HW115854   4.511   1.440   0.289 -1.5031  0.1693 -1.7367
 4897SOL    HW215855   4.648   1.506   0.291 -2.0179  1.2961  1.6436
 4898SOL     OW15856   7.291   7.850   6.367 -0.3001  0.9368  0.2146
 4898SOL    HW115857   7.284   7.912   6.440 -0.6494  0.8106  0.2908
 4898SOL    HW215858   7.383   7.852   6.342 -0.1742  0.9667  0.6741
 4899SOL     OW15859   7.657   2.252   5.710 -0.1590  0.3705 -0.0162
 4899SOL    HW115860   7.728   2.316   5.711  0.4353 -0.2894  1.4079
 4899SOL    HW215861   7.699   2.168   5.695 -0.4028 -0.2318  2.2735
 4900SOL     OW15862   1.479   0.877   3.660 -0.4503  0.4020 -0.4469
 4900SOL    HW115863   1.574   0.880   3.659 -0.2167 -1.3208  2.4771
 4900SOL    HW215864   1.452   0.966   3.684  0.4107  0.9126 -1.3583
 4901SOL     OW15865   0.613   0.297   4.112  0.1795  0.1276  0.3498
 4901SOL    HW115866   0.541   0.353   4.083  0.9469  0.6171 -0.6732
 4901SOL    HW215867   0.581   0.208   4.098 -1.0662  0.2674  2.0209
 4902SOL     OW15868   5.448   8.603   4.509 -0.2232  0.2682 -0.1004
 4902SOL    HW115869   5.416   8.687   4.542 -1.8559 -0.4217  0.1686
 4902SOL    HW215870   5.542   8.616   4.499 -0.4817  2.2421 -0.4182
 4903SOL     OW15871   1.759   2.293   1.232 -0.0837 -0.7860  0.8788
 4903SOL    HW115872   1.844   2.286   1.275  1.0199  1.4555 -0.7390
 4903SOL    HW215873   1.747   2.210   1.187  2.0019 -0.6083 -0.0966
 4904SOL     OW15874   0.528   4.211   5.106  0.2835 -0.2478  0.2207
 4904SOL    HW115875   0.554   4.119   5.101  1.0122 -0.0190 -0.2425
 4904SOL    HW215876   0.513   4.226   5.200 -1.6825 -1.3183  0.1342
 4905SOL     OW15877   7.846   3.660   5.394  0.1061  0.7005 -0.3113
 4905SOL    HW115878   7.907   3.682   5.324  1.0037  0.8694  0.5050
 4905SOL    HW215879   7.885   3.698   5.473 -0.5685 -0.0175  0.3877
 4906SOL     OW15880   0.054   1.601   2.152  0.1160 -0.4437  0.1699
 4906SOL    HW115881   0.019   1.523   2.108  0.0021 -0.0365 -0.4641
 4906SOL    HW215882   0.135   1.620   2.105 -0.2870  0.3213 -0.2277
 4907SOL     OW15883   2.545   8.802   8.137 -0.5922 -0.1119  0.1012
 4907SOL    HW115884   2.533   8.848   8.221  1.5954  0.2047  0.2832
 4907SOL    HW215885   2.618   8.846   8.096 -1.7251 -0.1625 -2.1093
 4908SOL     OW15886   2.333   7.895   6.425  0.1737 -0.3457 -0.1449
 4908SOL    HW115887   2.376   7.955   6.365 -0.0889  1.6779  1.5833
 4908SOL    HW215888   2.271   7.949   6.474  0.3914 -1.8546  1.9392
 4909SOL     OW15889   8.721   7.573   6.332 -0.0182  0.3582 -0.0935
 4909SOL    HW115890   8.646   7.539   6.381 -0.2250  0.3556 -0.4181
 4909SOL    HW215891   8.796   7.525   6.369 -0.1791  0.3134  0.1818
 4910SOL     OW15892   6.579   5.122   1.434  0.0066 -0.2295 -0.0399
 4910SOL    HW115893   6.654   5.125   1.494 -0.2152  1.3580  0.1991
 4910SOL    HW215894   6.503   5.122   1.491 -0.2098 -1.7693 -0.2869
 4911SOL     OW15895   1.564   2.163   5.713 -0.2807 -0.6184  0.3529
 4911SOL    HW115896   1.652   2.147   5.747 -0.3040  0.2820  0.8647
 4911SOL    HW215897   1.567   2.252   5.680 -1.3506 -0.1196  1.5350
 4912SOL     OW15898   8.712   3.577   3.366  0.0925  0.1183 -0.5495
 4912SOL    HW115899   8.674   3.489   3.358  0.3471 -0.0432  0.0210
 4912SOL    HW215900   8.649   3.625   3.420  0.2384  0.1191 -0.3805
 4913SOL     OW15901   7.446   1.288   4.755 -0.1594  0.2259 -0.2052
 4913SOL    HW115902   7.374   1.323   4.808  0.9003  1.2770  0.5974
 4913SOL    HW215903   7.475   1.210   4.802  0.6585  1.0538  0.7180
 4914SOL     OW15904   5.366   2.901   2.648  0.0928 -0.1323  0.8587
 4914SOL    HW115905   5.385   2.984   2.605 -0.1257  0.3393  1.6429
 4914SOL    HW215906   5.339   2.925   2.736 -0.5632 -1.0004  0.9147
 4915SOL     OW15907   6.317   6.135   8.723  0.0689 -0.2309 -0.3907
 4915SOL    HW115908   6.394   6.142   8.780  0.6051 -0.5974 -1.0604
 4915SOL    HW215909   6.252   6.192   8.764  1.2218  1.3518 -0.6522
 4916SOL     OW15910   2.705   5.637   2.864 -0.0453  0.0394  0.1707
 4916SOL    HW115911   2.749   5.691   2.930 -0.5158  1.8067 -0.8955
 4916SOL    HW215912   2.617   5.674   2.858 -0.6039 -1.2974 -0.1380
 4917SOL     OW15913   8.208   6.366   6.080 -0.1211 -0.3477  0.6734
 4917SOL    HW115914   8.148   6.400   6.147 -0.4374 -1.6729  1.1030
 4917SOL    HW215915   8.166   6.285   6.050  0.4827 -0.2550 -0.4648
 4918SOL     OW15916   1.180   7.701   4.499 -0.1244  0.7333 -0.0571
 4918SOL    HW115917   1.276   7.701   4.506 -0.1591  0.9492  0.4109
 4918SOL    HW215918   1.161   7.622   4.449  0.1565 -0.7478  2.0324
 4919SOL     OW15919   8.247   4.504   5.813 -0.1891 -0.4403 -0.1082
 4919SOL    HW115920   8.221   4.466   5.730  1.7525  0.2145 -1.0754
 4919SOL    HW215921   8.317   4.566   5.791 -1.6349  2.0221  1.6364
 4920SOL     OW15922   7.054   4.571   4.349  0.2176 -0.0526  0.5778
 4920SOL    HW115923   7.143   4.592   4.377 -0.3861  0.8005  1.9393
 4920SOL    HW215924   6.998   4.632   4.398 -1.1945 -1.2209  0.4860
 4921SOL     OW15925   5.981   5.868   1.000  0.4969  0.7024  0.3811
 4921SOL    HW115926   5.937   5.950   0.978  1.0487  0.8515 -0.2055
 4921SOL    HW215927   6.072   5.894   1.015  0.5813  0.2623  0.6482
 4922SOL     OW15928   5.500   7.877   5.501 -0.1314  0.3676 -0.7405
 4922SOL    HW115929   5.553   7.807   5.462 -0.3403 -0.2954  0.1370
 4922SOL    HW215930   5.431   7.831   5.548 -0.3327  1.1730 -0.2285
 4923SOL     OW15931   5.271   2.051   7.983 -0.4488  0.3549  0.3094
 4923SOL    HW115932   5.286   2.004   7.901  0.1475 -1.3288  1.3395
 4923SOL    HW215933   5.336   2.122   7.982 -1.2096  1.0965 -1.1609
 4924SOL     OW15934   0.660   3.256   4.272  0.1168 -0.2220  0.0434
 4924SOL    HW115935   0.712   3.276   4.194  0.1521  0.3879  0.2192
 4924SOL    HW215936   0.696   3.174   4.305  0.9740  0.1953  0.1686
 4925SOL     OW15937   5.129   6.266   1.400  0.0751  0.5765  0.1856
 4925SOL    HW115938   5.034   6.272   1.405 -0.0010 -1.2792  1.8522
 4925SOL    HW215939   5.146   6.180   1.363  1.0530 -0.7793  3.4758
 4926SOL     OW15940   1.007   8.382   7.688 -0.0989 -0.0769 -0.5092
 4926SOL    HW115941   0.935   8.386   7.751  0.2284 -1.4153 -0.0258
 4926SOL    HW215942   0.967   8.409   7.605 -0.4020  2.3035  0.3311
 4927SOL     OW15943   5.590   4.063   8.322  0.0434 -0.0876  0.4356
 4927SOL    HW115944   5.668   4.033   8.276 -1.4654 -1.2773 -1.5456
 4927SOL    HW215945   5.567   4.146   8.279 -0.2791 -0.2061  0.3747
 4928SOL     OW15946   3.700   2.668   6.527  0.0272  0.2616  0.2324
 4928SOL    HW115947   3.770   2.615   6.565 -0.9566  1.1120  3.5204
 4928SOL    HW215948   3.627   2.607   6.518  0.1003  0.1747  0.2262
 4929SOL     OW15949   0.602   1.612   6.477  0.2601  0.8616 -0.4828
 4929SOL    HW115950   0.646   1.599   6.393 -0.4738  0.4695 -0.8218
 4929SOL    HW215951   0.654   1.562   6.539 -0.9547 -1.5868 -1.2814
 4930SOL     OW15952   1.372   2.243   6.422  0.8495  0.3454  0.1682
 4930SOL    HW115953   1.405   2.302   6.354 -0.8176  0.2462 -0.7575
 4930SOL    HW215954   1.451   2.209   6.464  1.9137  0.7013 -1.4527
 4931SOL     OW15955   6.269   1.710   2.399 -0.0798  0.1708  0.4365
 4931SOL    HW115956   6.357   1.683   2.425  0.4859  0.5099 -1.0113
 4931SOL    HW215957   6.222   1.721   2.481  0.4569 -2.5283  1.2081
 4932SOL     OW15958   2.784   7.712   4.221  0.2092  0.2433 -0.1946
 4932SOL    HW115959   2.867   7.759   4.223  1.6924 -2.2466  1.5854
 4932SOL    HW215960   2.764   7.703   4.128  1.7962  1.1208 -0.6545
 4933SOL     OW15961   8.507   3.702   3.482 -0.8607  0.0605  0.2752
 4933SOL    HW115962   8.503   3.729   3.390 -0.4626  0.7020  0.4372
 4933SOL    HW215963   8.535   3.781   3.529 -1.6018 -0.0972  1.0172
 4934SOL     OW15964   3.697   5.027   2.326 -0.0514 -0.2139  0.7164
 4934SOL    HW115965   3.731   5.086   2.394  3.1155 -0.4373 -0.4754
 4934SOL    HW215966   3.746   5.052   2.247  1.5287 -4.3168  0.1463
 4935SOL     OW15967   6.569   3.940   7.268 -0.3880  0.3502 -0.1845
 4935SOL    HW115968   6.566   4.030   7.236  0.1400  0.3814 -0.1547
 4935SOL    HW215969   6.651   3.935   7.317  0.3475 -0.5714 -1.4650
 4936SOL     OW15970   0.012   1.644   7.563  0.0679  0.2017  0.4096
 4936SOL    HW115971  -0.061   1.638   7.502  0.8189  0.4210 -0.5278
 4936SOL    HW215972   0.073   1.705   7.522  0.9703 -0.2943  0.9670
 4937SOL     OW15973   2.564   6.012   8.523  0.2473 -0.2900  0.8906
 4937SOL    HW115974   2.641   6.063   8.548 -0.3164  1.1375 -0.1160
 4937SOL    HW215975   2.491   6.055   8.569 -0.2588 -0.1014 -0.0579
 4938SOL     OW15976   6.602   2.731   0.741 -0.1110 -0.0694 -0.3881
 4938SOL    HW115977   6.685   2.684   0.745  0.2577  0.5874 -0.1227
 4938SOL    HW215978   6.556   2.706   0.821  0.3244  0.4497  0.0311
 4939SOL     OW15979   1.102   5.125   5.081  0.3758 -0.3969 -0.1890
 4939SOL    HW115980   1.157   5.203   5.093 -0.6117  0.0789  1.5357
 4939SOL    HW215981   1.040   5.150   5.013  0.1088  0.3224  0.3056
 4940SOL     OW15982   5.891   6.965   5.671 -0.1013 -0.1218 -0.1826
 4940SOL    HW115983   5.887   6.895   5.736  0.5811 -1.7429 -1.7735
 4940SOL    HW215984   5.800   6.990   5.655 -0.3401 -0.5284  0.5258
 4941SOL     OW15985   7.147   0.723   3.337  0.6975  0.2229 -0.2939
 4941SOL    HW115986   7.180   0.734   3.247  1.1620  2.7839  0.1110
 4941SOL    HW215987   7.057   0.691   3.326  1.0377 -0.3493 -1.6223
 4942SOL     OW15988   0.578   0.010   5.863  0.1946 -0.6492 -0.3244
 4942SOL    HW115989   0.517  -0.063   5.851  0.9349 -1.3006 -0.2139
 4942SOL    HW215990   0.526   0.078   5.905 -0.7557 -0.7449 -1.3012
 4943SOL     OW15991   4.111   8.341   2.597 -0.5663 -0.0175 -0.7508
 4943SOL    HW115992   4.144   8.415   2.648 -1.0196 -0.7623  0.7046
 4943SOL    HW215993   4.067   8.381   2.522 -0.6889  1.1846 -0.0704
 4944SOL     OW15994   4.487   4.203   3.417  0.6813  0.3193  0.1326
 4944SOL    HW115995   4.409   4.259   3.425 -0.1742 -0.8348  0.1037
 4944SOL    HW215996   4.558   4.264   3.396 -0.3595  1.3028 -0.6616
 4945SOL     OW15997   1.385   3.919   2.843  1.0251 -0.5370 -0.2654
 4945SOL    HW115998   1.296   3.937   2.814 -0.5430 -1.5306  3.3122
 4945SOL    HW215999   1.414   4.001   2.883  1.0422 -0.7064  0.0712
 4946SOL     OW16000   7.282   3.829   5.457  0.1972  0.6203 -0.1144
 4946SOL    HW116001   7.300   3.739   5.430 -0.8644  1.2589 -3.3748
 4946SOL    HW216002   7.189   3.829   5.481 -0.3815  1.1658 -2.1342
 4947SOL     OW16003   2.756   5.947   0.984 -0.2607  0.0872  0.1572
 4947SOL    HW116004   2.740   5.933   0.891 -0.2787 -0.2173  0.2034
 4947SOL    HW216005   2.828   6.010   0.987  0.1309 -0.3411 -0.0690
 4948SOL     OW16006   6.344   7.981   7.707 -0.2640  0.3516  0.4659
 4948SOL    HW116007   6.379   7.981   7.796  0.6615  0.3039  0.1111
 4948SOL    HW216008   6.270   8.042   7.710  0.6025  1.4023  0.9472
 4949SOL     OW16009   6.346   5.251   7.264  0.5314  0.3844 -0.2474
 4949SOL    HW116010   6.291   5.177   7.237 -0.2975  1.1417 -0.6853
 4949SOL    HW216011   6.421   5.249   7.205  1.0472 -0.7212  0.4172
 4950SOL     OW16012   8.026   0.230   2.743  0.6060 -0.0592  0.1065
 4950SOL    HW116013   8.049   0.306   2.796  2.1405 -0.4858  0.1155
 4950SOL    HW216014   8.009   0.266   2.655 -2.7491  0.7531  0.9496
 4951SOL     OW16015   8.082   8.280   7.600 -0.1618  0.3656  0.0604
 4951SOL    HW116016   8.016   8.334   7.556 -0.0787  0.9879  0.6875
 4951SOL    HW216017   8.134   8.243   7.528 -0.4702  0.7976 -0.3908
 4952SOL     OW16018   0.611   5.550   4.528 -0.2782  0.1854 -0.0813
 4952SOL    HW116019   0.565   5.555   4.612  0.5738  1.5787  0.3345
 4952SOL    HW216020   0.544   5.570   4.462 -0.5099  1.1111  0.4239
 4953SOL     OW16021   1.185   6.618   2.974  0.2453 -0.1190 -0.1771
 4953SOL    HW116022   1.217   6.566   3.047  1.0036 -0.6733 -0.8777
 4953SOL    HW216023   1.259   6.676   2.952  0.8568 -1.4407 -1.8487
 4954SOL     OW16024   5.590   7.137   7.998 -0.4084 -0.2325 -0.1696
 4954SOL    HW116025   5.634   7.055   8.021  0.3659  0.4997  1.0588
 4954SOL    HW216026   5.660   7.194   7.968 -0.3447  1.1364  2.3229
 4955SOL     OW16027   0.924   7.668   1.702  0.7320 -0.8541  0.3563
 4955SOL    HW116028   0.927   7.694   1.794 -2.1030  0.7911  0.0875
 4955SOL    HW216029   0.950   7.747   1.654  0.6383 -1.2123 -0.3009
 4956SOL     OW16030   0.075   0.075   1.550  0.2390 -0.4735 -0.0885
 4956SOL    HW116031   0.124  -0.005   1.532  2.4943 -0.2766  4.0008
 4956SOL    HW216032   0.128   0.145   1.510  0.1132 -0.7407 -0.7267
 4957SOL     OW16033   4.046   7.955   3.388  0.1495  0.2063  0.3932
 4957SOL    HW116034   3.988   7.938   3.462 -2.1392 -0.4283 -1.4297
 4957SOL    HW216035   4.038   8.049   3.373  0.1966  0.2422  0.5831
 4958SOL     OW16036   1.528   3.560   8.361 -0.2788  0.0632  0.2513
 4958SOL    HW116037   1.443   3.603   8.372  0.9782  3.5101 -1.7604
 4958SOL    HW216038   1.567   3.562   8.449 -1.8777 -0.7156  1.0084
 4959SOL     OW16039   8.670   4.645   5.644  0.1279 -0.0531  0.0231
 4959SOL    HW116040   8.705   4.702   5.713  1.2580 -1.1545  0.4058
 4959SOL    HW216041   8.629   4.705   5.582  2.0835  1.2809 -0.0746
 4960SOL     OW16042   0.679   1.305   2.994  0.2094 -0.3101 -0.3881
 4960SOL    HW116043   0.588   1.306   3.023  0.3722  0.5108  0.1322
 4960SOL    HW216044   0.687   1.226   2.941 -0.7804 -0.4362 -0.3590
 4961SOL     OW16045   2.836   7.214   6.236 -0.5316  0.1458  0.0797
 4961SOL    HW116046   2.769   7.208   6.168 -1.4550  4.0391  0.4076
 4961SOL    HW216047   2.788   7.240   6.315  1.0522  0.2531  1.0676
 4962SOL     OW16048   4.389   8.203   3.500 -0.3474 -0.4602  0.4035
 4962SOL    HW116049   4.344   8.265   3.444 -0.0156  0.2184  0.8745
 4962SOL    HW216050   4.482   8.227   3.493 -0.1736 -1.1374  0.2997
 4963SOL     OW16051   8.615   3.019   2.725 -0.7155 -0.6397 -0.2108
 4963SOL    HW116052   8.523   3.034   2.746 -0.8424 -0.8408 -0.6220
 4963SOL    HW216053   8.615   2.997   2.632 -0.2686 -0.7995 -0.1730
 4964SOL     OW16054   8.801   5.914   0.066 -0.6647  0.1580  0.2500
 4964SOL    HW116055   8.865   5.869   0.121 -0.2970 -0.6440 -0.8131
 4964SOL    HW216056   8.796   6.002   0.104  1.0274  0.2288  0.3942
 4965SOL     OW16057   8.009   7.178   1.400  0.0578  0.1646 -0.6041
 4965SOL    HW116058   8.085   7.171   1.458 -1.0474 -0.6031  0.8134
 4965SOL    HW216059   8.031   7.251   1.342  1.9447 -0.1503 -0.3675
 4966SOL     OW16060   6.094   8.130   7.734  0.0644 -0.0938  0.5400
 4966SOL    HW116061   6.036   8.059   7.704 -0.9949  1.4281 -1.2024
 4966SOL    HW216062   6.048   8.210   7.710  2.4600  1.2093  0.0144
 4967SOL     OW16063   8.821   3.658   6.875 -0.5400 -0.8772  1.0824
 4967SOL    HW116064   8.764   3.628   6.946 -0.3373  0.0329  1.6533
 4967SOL    HW216065   8.905   3.615   6.891 -0.6530 -1.1052  1.0686
 4968SOL     OW16066   4.317   7.701   3.865 -0.2943 -0.5122  0.0761
 4968SOL    HW116067   4.381   7.725   3.798 -0.0571  0.5634  0.6643
 4968SOL    HW216068   4.351   7.620   3.903 -0.6359 -1.3665 -1.3446
 4969SOL     OW16069   1.030   5.469   1.947  0.2974  0.3117  0.8297
 4969SOL    HW116070   0.958   5.509   1.996 -0.4956 -1.1296  0.8999
 4969SOL    HW216071   1.014   5.375   1.954  1.6228 -0.0033 -0.0327
 4970SOL     OW16072   8.681   2.546   1.495  0.2785  0.1878  0.0755
 4970SOL    HW116073   8.601   2.512   1.535 -0.4312 -1.6348 -2.6273
 4970SOL    HW216074   8.746   2.478   1.510  0.2982 -0.0088 -0.8285
 4971SOL     OW16075   0.731   6.730   2.482  0.3147  0.1727 -0.3471
 4971SOL    HW116076   0.755   6.673   2.555  1.2598 -0.7089 -1.3086
 4971SOL    HW216077   0.804   6.792   2.476  0.4529 -0.0305 -0.8069
 4972SOL     OW16078   3.722   2.660   2.385 -0.0580  0.1859 -0.5540
 4972SOL    HW116079   3.760   2.691   2.467 -0.5493 -0.5525 -0.0309
 4972SOL    HW216080   3.776   2.584   2.361 -1.3076 -1.0361  0.3357
 4973SOL     OW16081   1.463   4.067   3.092  0.3315 -0.2847 -0.4057
 4973SOL    HW116082   1.554   4.040   3.079  0.1366 -0.8636 -0.6109
 4973SOL    HW216083   1.468   4.141   3.152  1.0366  0.4969 -1.3933
 4974SOL     OW16084   7.925   3.602   3.897  0.0059 -0.3652 -0.5311
 4974SOL    HW116085   7.920   3.697   3.906 -0.9494 -0.6131  2.8833
 4974SOL    HW216086   7.848   3.579   3.845  0.3974  0.6937 -1.6350
 4975SOL     OW16087   4.339   6.158   0.935 -0.0220  0.3321  0.7407
 4975SOL    HW116088   4.290   6.087   0.975  0.4326  0.5885  1.7964
 4975SOL    HW216089   4.431   6.132   0.944  0.0850  0.1150 -0.7141
 4976SOL     OW16090   7.446   2.269   4.822 -0.0641 -0.6668 -0.1690
 4976SOL    HW116091   7.367   2.219   4.845 -0.7113  1.4482  2.8315
 4976SOL    HW216092   7.506   2.203   4.788 -1.1404 -3.4439  2.7850
 4977SOL     OW16093   8.041   4.743   2.887  0.1516  0.4156 -0.2140
 4977SOL    HW116094   8.064   4.835   2.873 -0.1147  0.3701 -1.0229
 4977SOL    HW216095   8.085   4.696   2.816 -0.1596 -0.0105 -0.1314
 4978SOL     OW16096   5.620   0.274   6.792 -0.6463  0.0860 -0.8036
 4978SOL    HW116097   5.580   0.203   6.843 -0.5124 -0.9813 -2.1321
 4978SOL    HW216098   5.709   0.245   6.775 -0.2438  1.0804 -0.4506
 4979SOL     OW16099   7.776   6.628   3.150 -0.5569 -0.5720 -0.4126
 4979SOL    HW116100   7.688   6.613   3.117 -0.9348  0.9588 -0.1856
 4979SOL    HW216101   7.773   6.601   3.242 -0.5310 -1.3338 -0.6264
 4980SOL     OW16102   3.071   1.299   7.524  0.0843  0.4380 -0.6302
 4980SOL    HW116103   2.995   1.261   7.480  2.4094 -2.3666 -2.6456
 4980SOL    HW216104   3.048   1.299   7.617 -2.5763  0.3644 -1.2084
 4981SOL     OW16105   7.100   3.114   0.402 -0.6708  0.7681 -0.0840
 4981SOL    HW116106   7.084   3.209   0.406  1.8051  1.2888 -0.5781
 4981SOL    HW216107   7.179   3.106   0.349 -1.1480 -1.6507 -0.5255
 4982SOL     OW16108   2.730   8.184   0.780  0.0185  0.1577 -0.5177
 4982SOL    HW116109   2.769   8.098   0.793  0.2439  0.3458  0.0948
 4982SOL    HW216110   2.740   8.228   0.865 -0.1498  0.7607 -0.8033
 4983SOL     OW16111   1.657   0.900   6.767 -0.1661  0.2083  0.5227
 4983SOL    HW116112   1.598   0.945   6.828  0.4385 -1.1572  2.1824
 4983SOL    HW216113   1.730   0.962   6.755  0.1049  0.1912  1.8675
 4984SOL     OW16114   6.937   7.712   4.076  0.2065  0.0630  0.5673
 4984SOL    HW116115   6.919   7.724   4.169 -1.0465 -0.7426  0.4584
 4984SOL    HW216116   6.853   7.686   4.039  1.4863 -3.8508 -0.0553
 4985SOL     OW16117   5.640   6.314   5.507  0.2536  0.0337  0.0830
 4985SOL    HW116118   5.669   6.399   5.474 -0.0230  0.2827  0.4564
 4985SOL    HW216119   5.674   6.250   5.445 -0.7491  0.5273 -1.0064
 4986SOL     OW16120   7.007   3.727   3.186  0.2569  0.1034  0.8333
 4986SOL    HW116121   6.913   3.716   3.173  0.1123 -0.4757  2.1691
 4986SOL    HW216122   7.018   3.821   3.201  0.0149  0.2913 -0.0657
 4987SOL     OW16123   2.824   6.415   1.346  0.0333 -0.5859  0.3618
 4987SOL    HW116124   2.788   6.494   1.307  0.6736  1.2370  3.1610
 4987SOL    HW216125   2.892   6.446   1.405 -0.2430 -3.1393  2.2097
 4988SOL     OW16126   7.976   5.454   5.715  0.0497  0.4904  0.0874
 4988SOL    HW116127   8.005   5.475   5.626 -2.1580 -0.8981 -1.0352
 4988SOL    HW216128   7.929   5.532   5.744 -1.4759  0.0392 -1.0414
 4989SOL     OW16129   4.012   8.305   3.893  0.4391  0.1188  0.0653
 4989SOL    HW116130   4.024   8.383   3.947 -1.3357  0.9512 -0.6547
 4989SOL    HW216131   4.076   8.315   3.823 -1.4532  2.3994 -1.5178
 4990SOL     OW16132   6.840   8.052   6.575  0.4336 -0.3371 -1.0836
 4990SOL    HW116133   6.920   8.103   6.560  0.3954 -0.5871 -2.2405
 4990SOL    HW216134   6.871   7.967   6.605  0.5258  0.0997  0.1022
 4991SOL     OW16135   8.831   8.709   1.265  0.0578 -0.8358 -0.1594
 4991SOL    HW116136   8.830   8.797   1.229 -0.8059 -0.1196  1.4885
 4991SOL    HW216137   8.740   8.679   1.258  0.5897 -2.1919 -1.9766
 4992SOL     OW16138   7.903   3.983   0.230 -0.4390  0.1521 -0.5621
 4992SOL    HW116139   7.991   3.989   0.193 -0.1886 -0.9137 -0.1720
 4992SOL    HW216140   7.868   4.072   0.222  1.9842  1.5619  2.5734
 4993SOL     OW16141   7.704   2.305   0.954  0.4597  0.4357  0.0289
 4993SOL    HW116142   7.687   2.360   0.878  0.1543 -1.2136 -1.1721
 4993SOL    HW216143   7.758   2.233   0.920 -1.9824 -1.8799  0.6075
 4994SOL     OW16144   8.694   6.993   4.516 -0.5335 -0.3243 -0.2702
 4994SOL    HW116145   8.777   6.971   4.473  0.0824  0.3262  0.5571
 4994SOL    HW216146   8.634   6.923   4.489 -0.2118  0.0929 -2.2466
 4995SOL     OW16147   6.325   6.633   0.335 -0.0684  0.4426 -0.2492
 4995SOL    HW116148   6.396   6.697   0.335  0.4998 -0.1758  0.0451
 4995SOL    HW216149   6.332   6.590   0.251 -0.1552  0.4481 -0.2588
 4996SOL     OW16150   5.255   5.684   6.134  0.6345  0.5574  0.0834
 4996SOL    HW116151   5.206   5.613   6.093 -0.5551 -0.4346  2.9786
 4996SOL    HW216152   5.344   5.674   6.101  0.4945 -2.3050  0.3680
 4997SOL     OW16153   1.794   4.635   5.111 -0.6824 -0.3875 -0.2044
 4997SOL    HW116154   1.756   4.647   5.198  2.1783  2.2577  0.8654
 4997SOL    HW216155   1.853   4.559   5.121  1.1794  1.0991  0.9028
 4998SOL     OW16156   2.326   1.174   1.811  0.5912 -0.1438  0.3933
 4998SOL    HW116157   2.243   1.133   1.785  1.5989 -0.0283 -3.7361
 4998SOL    HW216158   2.301   1.262   1.840 -0.8403 -0.7638  1.1614
 4999SOL     OW16159   2.706   6.735   4.010 -0.0932  0.3623  0.3167
 4999SOL    HW116160   2.723   6.829   3.996  0.1166  0.4770  1.2996
 4999SOL    HW216161   2.749   6.715   4.092  0.0312 -0.6581  0.0115
 5000SOL     OW16162   8.421   8.615   4.556 -0.6534  0.5030 -0.4067
 5000SOL    HW116163   8.332   8.614   4.590 -1.2671  0.0727 -1.9277
 5000SOL    HW216164   8.440   8.707   4.539 -0.7547  0.6067  0.0318
 5001SOL     OW16165   6.704   6.466   1.728  0.0735  0.1592  0.0160
 5001SOL    HW116166   6.672   6.536   1.670  2.3820  1.0669 -0.2933
 5001SOL    HW216167   6.796   6.455   1.703  0.6680 -0.6856  2.3036
 5002SOL     OW16168   8.610   1.706   8.553  0.5586 -0.3818 -0.5686
 5002SOL    HW116169   8.556   1.780   8.527 -0.0835 -1.1178 -1.3959
 5002SOL    HW216170   8.573   1.631   8.506  0.4834 -1.4444  1.0935
 5003SOL     OW16171   5.413   3.032   4.563  0.5236  0.0272  0.4263
 5003SOL    HW116172   5.490   2.981   4.537  0.7628  0.9009 -0.6576
 5003SOL    HW216173   5.352   3.022   4.490 -0.4982 -0.8074  1.3540
 5004SOL     OW16174   3.601   7.012   8.328 -0.0366 -0.3381 -0.2139
 5004SOL    HW116175   3.591   7.102   8.358  2.2340 -0.0279 -0.1948
 5004SOL    HW216176   3.692   7.007   8.298 -0.1144 -2.6219 -0.2212
 5005SOL     OW16177   6.356   7.939   6.064 -0.1632 -0.0424  0.0077
 5005SOL    HW116178   6.261   7.937   6.075 -0.7073 -0.4264 -3.5803
 5005SOL    HW216179   6.383   7.847   6.069 -0.6104 -0.3787 -2.5458
 5006SOL     OW16180   4.211   4.288   4.545 -0.4578  0.1683  0.3968
 5006SOL    HW116181   4.242   4.366   4.591  0.5574 -0.2972  0.5327
 5006SOL    HW216182   4.285   4.261   4.490 -1.5854  0.6484 -1.4701
 5007SOL     OW16183   7.857   3.305   8.716 -0.4370 -0.4415  0.3467
 5007SOL    HW116184   7.784   3.303   8.778 -0.1357  1.3895  0.8181
 5007SOL    HW216185   7.934   3.285   8.770 -0.3713 -0.5009  0.2293
 5008SOL     OW16186   2.290   2.332   3.233  0.5609  0.6753 -0.2532
 5008SOL    HW116187   2.226   2.265   3.259 -0.2291  1.1288 -0.9688
 5008SOL    HW216188   2.347   2.342   3.309 -0.6465  0.7620  0.6715
 5009SOL     OW16189   0.154   0.950   7.037 -0.4541 -0.3584 -0.0333
 5009SOL    HW116190   0.180   1.041   7.048 -1.1481 -0.2082  0.3771
 5009SOL    HW216191   0.156   0.936   6.942  0.2337 -0.0948 -0.0641
 5010SOL     OW16192   6.081   0.906   3.751 -0.0247  0.6762 -0.1785
 5010SOL    HW116193   6.114   0.836   3.807 -0.7484  0.3293 -0.1743
 5010SOL    HW216194   6.097   0.986   3.801  0.5015  0.4893 -0.0402
 5011SOL     OW16195   8.022   7.447   5.955 -0.6561 -0.0603  0.7981
 5011SOL    HW116196   8.030   7.362   5.999 -1.6780 -0.7367 -0.2142
 5011SOL    HW216197   7.942   7.485   5.992  0.3903  0.9912  2.0416
 5012SOL     OW16198   0.008   0.429   6.955  0.0604  0.4036 -0.1827
 5012SOL    HW116199  -0.068   0.452   6.903  0.3038  0.4086 -0.5349
 5012SOL    HW216200   0.037   0.512   6.993  1.5093  0.8952 -2.2140
 5013SOL     OW16201   1.857   6.843   4.258 -0.0574  0.1686  0.0174
 5013SOL    HW116202   1.855   6.938   4.268 -1.4089  0.1462  0.0754
 5013SOL    HW216203   1.914   6.813   4.329 -1.2824  0.7807  1.3045
 5014SOL     OW16204   5.406   0.492   2.447 -0.4311  0.0272  0.2631
 5014SOL    HW116205   5.479   0.493   2.385  0.2208  2.1791  0.9769
 5014SOL    HW216206   5.330   0.467   2.394  0.7060 -1.8499 -0.5809
 5015SOL     OW16207   0.460   7.715   2.890  0.0115  0.1345  0.0186
 5015SOL    HW116208   0.496   7.647   2.947  0.6043  0.3725 -0.0657
 5015SOL    HW216209   0.536   7.751   2.845 -0.4006  0.2604 -0.5868
 5016SOL     OW16210   7.852   7.147   3.229 -0.0853  1.0530 -0.3827
 5016SOL    HW116211   7.836   7.133   3.323  0.6195 -0.0865 -0.4095
 5016SOL    HW216212   7.946   7.130   3.219 -0.3410  0.2145 -1.4511
 5017SOL     OW16213   1.327   1.573   3.845  0.4658 -0.3157  0.0566
 5017SOL    HW116214   1.315   1.544   3.936  0.6772 -0.9202 -0.1044
 5017SOL    HW216215   1.255   1.531   3.797  1.3802 -1.4317 -0.3645
 5018SOL     OW16216   0.461   6.671   8.227  0.4712 -0.2673 -0.2849
 5018SOL    HW116217   0.492   6.650   8.315  2.0287 -0.2701 -0.7997
 5018SOL    HW216218   0.368   6.646   8.228  0.1635  0.7455  1.6601
 5019SOL     OW16219   4.729   5.146   7.249  0.3582 -0.0261 -0.2575
 5019SOL    HW116220   4.648   5.182   7.213 -1.0170 -1.7804  0.9098
 5019SOL    HW216221   4.730   5.055   7.221  0.1523 -0.9661  2.5347
 5020SOL     OW16222   3.144   4.660   6.311 -0.5128 -0.4933  0.4210
 5020SOL    HW116223   3.127   4.615   6.394  0.4836 -0.4174  0.6766
 5020SOL    HW216224   3.177   4.591   6.253  0.6213 -0.1956  0.6862
 5021SOL     OW16225   5.947   2.052   4.245  0.3153  0.3182  0.2424
 5021SOL    HW116226   6.016   2.024   4.184 -0.9920 -0.7179 -0.8051
 5021SOL    HW216227   5.892   1.975   4.257 -1.4732  1.4859 -0.0456
 5022SOL     OW16228   8.523   5.028   4.476  0.3944  0.2402 -0.2399
 5022SOL    HW116229   8.461   4.957   4.460  0.1006  0.3265  0.4838
 5022SOL    HW216230   8.542   5.064   4.390 -1.9087  1.3595 -0.3523
 5023SOL     OW16231   3.173   0.123   2.755  0.5277  0.2172 -0.4133
 5023SOL    HW116232   3.264   0.131   2.783  0.0147  1.1131  1.1371
 5023SOL    HW216233   3.124   0.180   2.814 -1.3436 -2.0787  0.4409
 5024SOL     OW16234   4.419   4.849   4.959  0.0325  0.2200 -0.6053
 5024SOL    HW116235   4.508   4.860   4.926 -0.3847  2.7381 -1.0995
 5024SOL    HW216236   4.427   4.860   5.054  0.1766  1.1296 -0.7153
 5025SOL     OW16237   4.540   7.446   2.480  0.2039 -0.6376  0.3065
 5025SOL    HW116238   4.469   7.390   2.512 -0.5583 -0.0453 -0.3121
 5025SOL    HW216239   4.542   7.432   2.386  0.0251  0.3327  0.1423
 5026SOL     OW16240   6.375   0.833   0.839  0.1169 -0.1414  0.0259
 5026SOL    HW116241   6.344   0.804   0.753 -0.0506  0.2655 -0.0528
 5026SOL    HW216242   6.302   0.885   0.875  0.8379  1.1682 -0.3359
 5027SOL     OW16243   0.599   0.140   6.355  0.6516  0.5156  0.2334
 5027SOL    HW116244   0.527   0.083   6.380  0.3572  0.5808 -0.4420
 5027SOL    HW216245   0.604   0.205   6.425  0.3288  0.2596  0.4933
 5028SOL     OW16246   8.125   2.391   3.760  0.4957 -0.0582  0.2735
 5028SOL    HW116247   8.073   2.434   3.692  0.8105  1.0656  0.7369
 5028SOL    HW216248   8.185   2.458   3.791  1.3992 -0.9945  0.6085
 5029SOL     OW16249   6.692   4.559   7.584 -0.1570 -0.0176  0.3776
 5029SOL    HW116250   6.774   4.606   7.568  0.0711 -1.3045 -3.1251
 5029SOL    HW216251   6.705   4.517   7.669  2.2629  0.8400  0.5292
 5030SOL     OW16252   2.742   4.866   2.192  0.1792 -0.2479 -1.0822
 5030SOL    HW116253   2.651   4.853   2.219  1.0333 -1.5546  1.5187
 5030SOL    HW216254   2.765   4.952   2.226  1.0046 -1.5554  2.0521
 5031SOL     OW16255   6.005   4.550   0.185 -0.2374 -0.6999 -0.3072
 5031SOL    HW116256   5.995   4.487   0.114  0.6793 -0.0107 -1.0893
 5031SOL    HW216257   5.930   4.608   0.178  0.6113  0.2937 -1.7323
 5032SOL     OW16258   2.052   4.792   7.470  0.0680 -0.6464  0.1365
 5032SOL    HW116259   2.071   4.842   7.550 -1.7015 -2.0551  1.5242
 5032SOL    HW216260   1.967   4.824   7.441 -0.3889 -1.7454  0.1944
 5033SOL     OW16261   8.068   5.065   0.826 -0.3036 -0.0405  0.1348
 5033SOL    HW116262   8.024   4.985   0.857 -0.2536 -0.7940 -1.5955
 5033SOL    HW216263   7.998   5.115   0.783 -0.2375  0.6431  0.8077
 5034SOL     OW16264   1.423   8.197   8.432 -0.1621 -0.2085 -0.0424
 5034SOL    HW116265   1.428   8.178   8.338  0.3143  2.3859 -0.6190
 5034SOL    HW216266   1.329   8.209   8.448 -0.2524 -0.7284 -0.1557
 5035SOL     OW16267   0.033   7.402   8.830 -1.1797 -0.0904  0.8454
 5035SOL    HW116268  -0.054   7.428   8.798 -1.1720  0.6125  1.3555
 5035SOL    HW216269   0.028   7.307   8.838 -0.8415 -0.4588 -2.1820
 5036SOL     OW16270   8.181   3.025   0.908  0.7598  0.0002 -0.3774
 5036SOL    HW116271   8.174   3.004   0.815 -1.2426 -0.0318 -0.2551
 5036SOL    HW216272   8.137   3.109   0.917  2.1938  0.7067  0.3407
 5037SOL     OW16273   5.288   7.582   2.608  0.3389  0.1538 -0.0275
 5037SOL    HW116274   5.195   7.605   2.611  0.4477  0.7688 -1.0351
 5037SOL    HW216275   5.289   7.490   2.580  0.0692  0.4934 -1.1641
 5038SOL     OW16276   4.314   6.562   7.324 -0.5934  0.3615 -0.3566
 5038SOL    HW116277   4.241   6.607   7.281 -0.2621  1.9828  0.6977
 5038SOL    HW216278   4.383   6.628   7.328  0.1357 -0.4426  0.7155
 5039SOL     OW16279   1.569   3.257   6.087  0.3075 -0.6134  0.0746
 5039SOL    HW116280   1.513   3.209   6.027  0.7768  0.4602 -1.2933
 5039SOL    HW216281   1.518   3.334   6.112  1.4034  0.8690 -1.9245
 5040SOL     OW16282   3.294   0.156   4.268  0.3768 -0.0765  0.2039
 5040SOL    HW116283   3.355   0.089   4.299 -1.0952 -1.4834  0.1837
 5040SOL    HW216284   3.221   0.107   4.231 -0.7731  1.5461  0.2165
 5041SOL     OW16285   0.336   2.410   6.811 -0.2630 -0.1084  0.4403
 5041SOL    HW116286   0.392   2.475   6.852 -0.1744  0.3696 -0.4227
 5041SOL    HW216287   0.252   2.419   6.856  0.1131 -0.2844  1.1933
 5042SOL     OW16288   5.421   6.384   4.405  0.1295  0.1120  0.4326
 5042SOL    HW116289   5.331   6.390   4.375  1.0393  0.1050 -2.5568
 5042SOL    HW216290   5.439   6.469   4.444 -1.3605 -0.1609  1.8372
 5043SOL     OW16291   0.877   3.588   5.893  0.2177 -0.2445  0.1527
 5043SOL    HW116292   0.893   3.516   5.954  0.3138 -0.4276 -0.0851
 5043SOL    HW216293   0.894   3.550   5.806  2.3992  0.6289  0.1403
 5044SOL     OW16294   1.836   1.712   2.691  0.8866  0.0430  0.4778
 5044SOL    HW116295   1.847   1.641   2.754  1.1949  1.5058  2.1556
 5044SOL    HW216296   1.905   1.774   2.713  0.2926  1.1296 -0.5886
 5045SOL     OW16297   3.913   6.102   4.444  0.4662 -0.2721  0.4544
 5045SOL    HW116298   3.858   6.062   4.511 -0.3510  0.5397  0.2812
 5045SOL    HW216299   3.993   6.049   4.443 -0.2793 -1.4223  0.7597
 5046SOL     OW16300   2.718   5.097   7.341 -0.0505 -0.1074  0.2202
 5046SOL    HW116301   2.765   5.052   7.411 -2.3062 -1.2631  1.0825
 5046SOL    HW216302   2.672   5.028   7.294  0.4339  0.7923 -1.6697
 5047SOL     OW16303   3.808   6.992   5.567  0.0750  0.1509  0.2536
 5047SOL    HW116304   3.721   7.026   5.591  0.1975 -0.3238  1.4537
 5047SOL    HW216305   3.804   6.899   5.591  0.0234 -0.5393 -2.1952
 5048SOL     OW16306   5.684   8.538   2.152 -0.4280 -0.9347 -0.1479
 5048SOL    HW116307   5.668   8.599   2.080  2.6093 -0.5945 -0.6488
 5048SOL    HW216308   5.659   8.452   2.117  2.6097 -1.0446 -2.3655
 5049SOL     OW16309   1.233   1.128   4.415  0.4064 -0.0256  0.2853
 5049SOL    HW116310   1.303   1.075   4.377  0.2729  0.6104 -0.9106
 5049SOL    HW216311   1.246   1.122   4.509  1.2215 -1.0514  0.1179
 5050SOL     OW16312   7.400   4.009   0.900 -0.3675 -0.2596 -0.7912
 5050SOL    HW116313   7.340   3.968   0.963 -0.0295 -0.6341 -0.7100
 5050SOL    HW216314   7.470   4.045   0.954  0.2164 -1.0762 -0.9845
 5051SOL     OW16315   2.335   0.614   7.659  0.1714  0.5554  0.0849
 5051SOL    HW116316   2.355   0.520   7.664  0.4119  0.6591  1.4875
 5051SOL    HW216317   2.408   0.656   7.705  0.2271  1.4675 -0.7993
 5052SOL     OW16318   5.897   1.623   4.114 -0.1728 -0.0371 -0.3487
 5052SOL    HW116319   5.915   1.713   4.089  0.3883 -0.7935 -3.0014
 5052SOL    HW216320   5.810   1.605   4.078 -0.3207 -0.5459  0.2363
 5053SOL     OW16321   6.424   6.946   3.855 -0.1135  0.1575 -0.3422
 5053SOL    HW116322   6.375   6.907   3.783 -2.0736 -1.2083  1.5846
 5053SOL    HW216323   6.493   6.882   3.874 -0.9554 -0.5845  0.3390
 5054SOL     OW16324   2.485   2.170   1.623 -0.0938  0.0515  0.3516
 5054SOL    HW116325   2.449   2.108   1.560 -0.7614  2.1962 -1.5127
 5054SOL    HW216326   2.426   2.167   1.698 -2.6787  1.4386 -1.4799
 5055SOL     OW16327   1.187   4.159   8.671 -0.4484  0.0351 -0.6978
 5055SOL    HW116328   1.227   4.233   8.626  2.2111  0.5312  2.1246
 5055SOL    HW216329   1.145   4.198   8.748 -0.1789 -1.2380  0.1217
 5056SOL     OW16330   7.255   1.401   6.675 -0.2424 -0.5330  0.6783
 5056SOL    HW116331   7.279   1.345   6.601 -1.3866  0.9186 -0.8804
 5056SOL    HW216332   7.161   1.418   6.663 -0.3796  0.0244  2.2882
 5057SOL     OW16333   3.352   3.344   4.175 -0.8093 -0.0483 -0.0850
 5057SOL    HW116334   3.285   3.318   4.238 -1.1238  1.7449  0.3877
 5057SOL    HW216335   3.427   3.367   4.230  0.1982 -1.8748 -0.5977
 5058SOL     OW16336   2.184   7.575   8.602 -0.1576  0.1022 -0.4166
 5058SOL    HW116337   2.273   7.542   8.605  0.0315  0.6061 -0.3855
 5058SOL    HW216338   2.129   7.497   8.599  0.3264 -0.2168 -1.5489
 5059SOL     OW16339   0.324   3.474   6.104 -0.4221 -0.2830 -0.0644
 5059SOL    HW116340   0.363   3.543   6.050  0.8254 -0.3222  0.7487
 5059SOL    HW216341   0.298   3.407   6.042 -0.0180  0.1525 -0.7184
 5060SOL     OW16342   1.888   0.105   7.120 -0.2259 -0.3328  0.3215
 5060SOL    HW116343   1.966   0.124   7.069 -0.0475  1.0408  1.0454
 5060SOL    HW216344   1.819   0.090   7.055  0.5385 -1.1629 -0.3115
 5061SOL     OW16345   3.455   8.386   2.872 -0.1285 -0.4401  0.4823
 5061SOL    HW116346   3.395   8.341   2.813  0.7139 -1.4296  0.3593
 5061SOL    HW216347   3.537   8.336   2.867  0.0369 -0.4366  2.3107
 5062SOL     OW16348   5.176   3.747   1.335  0.2821  0.2731 -0.4596
 5062SOL    HW116349   5.247   3.710   1.387  0.2694  2.4256  1.2506
 5062SOL    HW216350   5.136   3.672   1.291  0.6253 -1.6126  2.2495
 5063SOL     OW16351   3.394   4.829   5.835 -0.1186  0.2132 -0.1423
 5063SOL    HW116352   3.302   4.836   5.810 -0.3909 -1.8798  0.0927
 5063SOL    HW216353   3.418   4.739   5.813  2.3669  1.1460 -1.7524
 5064SOL     OW16354   7.071   3.206   0.812 -0.3041 -0.2437 -0.1350
 5064SOL    HW116355   7.062   3.126   0.760 -1.5114  0.7536 -1.5764
 5064SOL    HW216356   7.138   3.256   0.765  1.6331 -1.0153  1.6631
 5065SOL     OW16357   6.172   5.101   0.160  0.6686  0.2927 -0.1563
 5065SOL    HW116358   6.187   5.146   0.077  0.2746  3.4202  1.3042
 5065SOL    HW216359   6.133   5.168   0.217  0.4728 -1.8253  2.4271
 5066SOL     OW16360   8.431   5.685   8.099 -0.2066 -0.0714 -0.2147
 5066SOL    HW116361   8.381   5.688   8.181 -2.0167  3.9516 -1.2141
 5066SOL    HW216362   8.506   5.743   8.116  0.8256 -1.2170 -0.6986
 5067SOL     OW16363   8.224   8.691   1.130  0.0048  0.0958  0.2227
 5067SOL    HW116364   8.188   8.736   1.053  0.5712  1.0273  0.4942
 5067SOL    HW216365   8.249   8.605   1.096 -0.6981  0.1159 -0.3985
 5068SOL     OW16366   1.097   7.465   3.840  0.0217 -0.3693  0.5845
 5068SOL    HW116367   1.007   7.479   3.812 -0.8054  0.8517  3.4442
 5068SOL    HW216368   1.130   7.552   3.859  2.0588 -0.7469 -0.9498
 5069SOL     OW16369   0.143   3.052   4.450  0.5093 -0.5421 -0.0846
 5069SOL    HW116370   0.087   2.986   4.408 -0.6586  1.1642 -1.3613
 5069SOL    HW216371   0.146   3.124   4.387  1.4044  0.8021  1.4244
 5070SOL     OW16372   0.500   5.991   8.293 -0.0551  0.2751  0.0450
 5070SOL    HW116373   0.424   5.934   8.280  0.7379 -0.5413 -1.1928
 5070SOL    HW216374   0.517   5.985   8.387 -1.2862  0.1902  0.2917
 5071SOL     OW16375   2.052   0.299   2.474 -0.3487 -0.2535 -0.3201
 5071SOL    HW116376   2.014   0.316   2.387 -0.7457  0.0700 -0.0875
 5071SOL    HW216377   2.116   0.229   2.459 -0.7853 -0.5608 -0.7817
 5072SOL     OW16378   3.407   7.130   3.942 -0.1221  0.0564 -0.1416
 5072SOL    HW116379   3.368   7.189   3.877  0.1602 -0.2835 -0.6187
 5072SOL    HW216380   3.390   7.042   3.908 -1.0076 -0.1622  0.8308
 5073SOL     OW16381   6.330   3.313   8.829  0.3220 -0.3607  0.2553
 5073SOL    HW116382   6.409   3.360   8.857 -0.3473  1.2187 -0.3782
 5073SOL    HW216383   6.304   3.357   8.748 -1.3693 -0.6769  0.5877
 5074SOL     OW16384   7.319   1.149   7.228 -0.4790  0.1033 -0.0726
 5074SOL    HW116385   7.328   1.066   7.275 -0.9720  0.3684  0.5015
 5074SOL    HW216386   7.254   1.198   7.278  0.7670  1.3747  0.3796
 5075SOL     OW16387   6.245   5.109   4.523 -0.0735 -0.3038 -0.2561
 5075SOL    HW116388   6.335   5.094   4.493 -0.2561  0.7488 -1.4440
 5075SOL    HW216389   6.246   5.198   4.558 -0.6025 -0.3695 -0.0707
 5076SOL     OW16390   7.097   2.265   4.733 -0.5964 -0.1025 -0.2155
 5076SOL    HW116391   7.158   2.192   4.724 -1.0419 -0.3506 -1.4575
 5076SOL    HW216392   7.122   2.326   4.664  0.1696  1.2573  1.1972
 5077SOL     OW16393   1.438   2.719   2.039 -0.1140  0.1333 -0.3138
 5077SOL    HW116394   1.402   2.696   1.954 -0.0450  0.9550 -0.5721
 5077SOL    HW216395   1.371   2.692   2.102 -0.6042  0.4348 -0.7016
 5078SOL     OW16396   1.924   0.250   6.066  0.7502 -0.3776  0.3214
 5078SOL    HW116397   1.915   0.171   6.013 -0.7285 -0.2949  0.4018
 5078SOL    HW216398   1.837   0.289   6.065  1.4174  1.1882  0.3909
 5079SOL     OW16399   3.577   4.298   6.938 -0.3282  0.1688  0.2326
 5079SOL    HW116400   3.489   4.269   6.914  0.2470  0.1502 -2.0904
 5079SOL    HW216401   3.629   4.218   6.940 -0.0637  0.3367  0.1327
 5080SOL     OW16402   8.091   7.518   7.373 -0.0471 -0.4776 -0.8744
 5080SOL    HW116403   8.054   7.527   7.285 -3.0449  0.8753  0.4018
 5080SOL    HW216404   8.136   7.601   7.389  0.8928 -0.8970 -1.2375
 5081SOL     OW16405   7.696   5.196   5.688 -0.5098 -0.2897 -0.2036
 5081SOL    HW116406   7.747   5.166   5.613 -0.3317  0.8432 -0.5584
 5081SOL    HW216407   7.761   5.230   5.750 -0.7918  1.2164 -0.6846
 5082SOL     OW16408   1.401   8.449   2.211  0.0925  0.1392 -0.4459
 5082SOL    HW116409   1.424   8.359   2.234  0.5603  0.3872  0.0562
 5082SOL    HW216410   1.462   8.504   2.260 -0.6045  0.7597 -0.2403
 5083SOL     OW16411   6.510   3.809   7.881 -0.6980  0.2154  0.7219
 5083SOL    HW116412   6.486   3.853   7.799  1.8443  1.3064  0.4607
 5083SOL    HW216413   6.484   3.870   7.950 -0.1794  0.6549  0.5385
 5084SOL     OW16414   2.045   2.937   2.406  0.3615  0.0720 -0.4756
 5084SOL    HW116415   2.079   2.987   2.332  1.8460 -0.3726 -0.1164
 5084SOL    HW216416   2.110   2.948   2.476 -1.3528  1.0734  1.0455
 5085SOL     OW16417   8.430   0.242   1.579  0.8062  0.7445  0.3718
 5085SOL    HW116418   8.502   0.182   1.598  0.5815  1.0306  2.2760
 5085SOL    HW216419   8.354   0.185   1.567  0.8308  0.5689  1.0055
 5086SOL     OW16420   1.832   0.491   3.675 -0.3058 -0.3533 -0.3354
 5086SOL    HW116421   1.857   0.559   3.613  0.3178 -0.4067 -0.1448
 5086SOL    HW216422   1.901   0.425   3.668 -1.0141 -1.0783 -0.6794
 5087SOL     OW16423   8.403   4.186   2.280 -0.1070 -0.2363  0.2573
 5087SOL    HW116424   8.379   4.152   2.366  0.3019 -1.7478 -0.1999
 5087SOL    HW216425   8.394   4.111   2.221 -1.6720  1.0813 -1.2731
 5088SOL     OW16426   7.995   5.495   4.363  0.5432 -0.6847  0.0485
 5088SOL    HW116427   8.032   5.458   4.284  0.1776 -1.6945  0.3407
 5088SOL    HW216428   8.040   5.579   4.374 -0.7584  0.4194 -2.2815
 5089SOL     OW16429   3.270   4.353   1.295  0.2749  0.2168  0.4420
 5089SOL    HW116430   3.340   4.291   1.316  0.1879 -0.7874 -1.8828
 5089SOL    HW216431   3.296   4.390   1.210 -1.1878  1.1094  0.3500
 5090SOL     OW16432   0.411   2.282   2.869  0.2067 -0.1969  0.2823
 5090SOL    HW116433   0.408   2.289   2.773 -0.3927  0.8080  0.3620
 5090SOL    HW216434   0.354   2.352   2.900 -0.9695 -1.5623  1.3542
 5091SOL     OW16435   8.307   2.278   6.928 -0.3128 -0.1001  0.3581
 5091SOL    HW116436   8.259   2.297   7.009 -0.5136  0.0193  0.2116
 5091SOL    HW216437   8.260   2.204   6.890  0.5852 -1.0277  1.0264
 5092SOL     OW16438   2.776   7.269   8.856 -0.4836 -0.4304 -0.4413
 5092SOL    HW116439   2.804   7.178   8.846 -0.0407 -0.2483 -0.9018
 5092SOL    HW216440   2.769   7.282   8.951  0.1121 -0.7492 -0.3480
 5093SOL     OW16441   1.536   8.127   2.171 -0.6096 -0.2648 -0.6076
 5093SOL    HW116442   1.564   8.037   2.188  1.5513  0.5125  0.2119
 5093SOL    HW216443   1.601   8.162   2.111 -1.0408  0.9657 -0.3882
 5094SOL     OW16444   2.738   2.282   6.551  0.2002  0.2798  0.2197
 5094SOL    HW116445   2.669   2.285   6.486  0.5132 -0.9750 -0.1869
 5094SOL    HW216446   2.693   2.262   6.633  0.0985 -0.9168 -0.1075
 5095SOL     OW16447   3.150   1.741   6.941 -0.2534 -0.3607  0.2733
 5095SOL    HW116448   3.228   1.726   6.888  0.6670 -0.6863  1.6707
 5095SOL    HW216449   3.152   1.672   7.007 -1.2118  0.1944  0.9104
 5096SOL     OW16450   0.491   7.900   0.942  0.2115  0.4783  0.1435
 5096SOL    HW116451   0.497   7.879   0.849 -0.4953 -2.0944  0.5954
 5096SOL    HW216452   0.401   7.929   0.954  0.1662  0.3630  0.0867
 5097SOL     OW16453   4.197   2.109   1.093 -0.7798 -0.0936 -0.2828
 5097SOL    HW116454   4.158   2.183   1.139  1.1316  0.7870  0.0208
 5097SOL    HW216455   4.235   2.054   1.162 -0.8983 -0.5999 -0.6080
 5098SOL     OW16456   3.983   1.000   6.037 -0.4927 -0.2975 -0.4316
 5098SOL    HW116457   4.006   0.955   5.956 -1.2058  0.9632 -1.3659
 5098SOL    HW216458   3.887   0.996   6.040 -0.4433 -0.9434  0.7234
 5099SOL     OW16459   0.952   7.280   7.751 -0.9873  0.4881  0.3095
 5099SOL    HW116460   0.991   7.221   7.814 -0.8677  0.7608  0.4933
 5099SOL    HW216461   0.863   7.247   7.738 -0.8836  0.2064  0.3259
 5100SOL     OW16462   0.626   1.674   5.630 -0.3173  0.4775  0.2180
 5100SOL    HW116463   0.571   1.751   5.644  0.7131  0.9342  1.9980
 5100SOL    HW216464   0.608   1.617   5.705 -0.1914 -0.5048 -0.4661
 5101SOL     OW16465   6.444   7.244   1.816 -0.5479 -0.1990  0.5791
 5101SOL    HW116466   6.501   7.172   1.788  1.1020  0.5866  1.8096
 5101SOL    HW216467   6.407   7.277   1.734 -0.4962 -1.7423 -0.1074
 5102SOL     OW16468   7.650   1.010   1.778  0.5893 -0.4661 -0.2122
 5102SOL    HW116469   7.601   0.929   1.762  0.0279 -0.3253  0.7555
 5102SOL    HW216470   7.628   1.066   1.704 -3.7275  1.0347  1.9005
 5103SOL     OW16471   0.542   7.130   5.891  0.4377  0.0164  0.1679
 5103SOL    HW116472   0.618   7.075   5.868 -0.1967 -0.8010 -0.0266
 5103SOL    HW216473   0.549   7.140   5.986 -0.4284 -1.9810  0.5053
 5104SOL     OW16474   3.475   3.627   3.720  0.7316  0.5689  0.0489
 5104SOL    HW116475   3.453   3.634   3.627 -0.9346  0.8775  0.4233
 5104SOL    HW216476   3.533   3.551   3.726  1.7881  1.2236 -1.3717
 5105SOL     OW16477   2.837   8.439   8.782  0.1517 -0.2469 -0.1640
 5105SOL    HW116478   2.758   8.395   8.751 -0.2729 -0.0577  0.6207
 5105SOL    HW216479   2.826   8.444   8.877  0.0289  1.8620 -0.2415
 5106SOL     OW16480   4.464   7.059   1.426  0.2205  0.1791 -0.2324
 5106SOL    HW116481   4.440   6.969   1.406  0.9294  0.2668 -1.5895
 5106SOL    HW216482   4.521   7.053   1.503 -0.7305 -0.3999  0.4460
 5107SOL     OW16483   5.624   1.653   0.010  0.1810  0.8801  0.4036
 5107SOL    HW116484   5.594   1.743  -0.004  1.6992  1.3134 -0.3186
 5107SOL    HW216485   5.704   1.663   0.062  2.2377  0.2561 -2.3972
 5108SOL     OW16486   0.465   5.385   0.768 -0.9131 -0.0162 -0.4843
 5108SOL    HW116487   0.484   5.478   0.754 -1.2387  0.0419 -0.5436
 5108SOL    HW216488   0.542   5.352   0.813 -0.9981  0.3957 -0.0209
 5109SOL     OW16489   3.556   8.187   8.816  0.2205 -0.0122  0.3348
 5109SOL    HW116490   3.608   8.111   8.841  0.3518 -0.3187 -0.8013
 5109SOL    HW216491   3.561   8.246   8.891 -0.4569 -1.4065  1.5152
 5110SOL     OW16492   6.411   8.627   3.680  0.4309  0.3200  0.1148
 5110SOL    HW116493   6.348   8.610   3.610 -0.3392 -0.4870  0.9696
 5110SOL    HW216494   6.359   8.665   3.750  1.1744  1.0142  0.3006
 5111SOL     OW16495   1.912   6.106   8.484  0.1913  0.3006 -0.2003
 5111SOL    HW116496   1.972   6.033   8.468 -0.2656 -0.0393 -0.3928
 5111SOL    HW216497   1.885   6.134   8.397  0.3164  0.6625 -0.1242
 5112SOL     OW16498   6.535   0.739   7.494  0.0187  0.6939  0.1298
 5112SOL    HW116499   6.495   0.652   7.496  1.7602 -0.1446  1.5593
 5112SOL    HW216500   6.529   0.770   7.584 -0.3940  2.0000 -0.3199
 5113SOL     OW16501   1.840   3.682   0.918  0.7100  0.3615  0.2135
 5113SOL    HW116502   1.826   3.712   0.829 -1.2857  0.3449  0.4718
 5113SOL    HW216503   1.807   3.592   0.920 -0.0410  0.6368  1.1450
 5114SOL     OW16504   4.560   0.567   2.740  0.5056 -0.3460  0.1325
 5114SOL    HW116505   4.613   0.609   2.672  0.5600  1.3799  1.1691
 5114SOL    HW216506   4.609   0.488   2.763  2.2223  0.7403  0.4276
 5115SOL     OW16507   2.512   3.822   3.851  0.1865 -0.3575  0.0420
 5115SOL    HW116508   2.432   3.772   3.868  1.3998 -2.4487 -0.1286
 5115SOL    HW216509   2.504   3.850   3.760  0.0313 -1.3331 -0.2562
 5116SOL     OW16510   0.206   1.452   7.340  0.1738  0.0734 -0.1951
 5116SOL    HW116511   0.148   1.475   7.412  1.0680  0.6059  0.3753
 5116SOL    HW216512   0.157   1.475   7.261 -0.3470  0.6011  0.2752
 5117SOL     OW16513   4.802   4.798   1.717  0.1620  0.5259 -0.4041
 5117SOL    HW116514   4.880   4.824   1.669 -0.3251  0.6379 -1.1596
 5117SOL    HW216515   4.738   4.866   1.697  0.5042  1.6348  1.9465
 5118SOL     OW16516   5.479   8.553   0.188  0.1307 -0.7309  0.0749
 5118SOL    HW116517   5.528   8.634   0.177 -1.4703  0.3451  0.5094
 5118SOL    HW216518   5.511   8.516   0.270  1.1100 -0.7369 -0.2962
 5119SOL     OW16519   8.297   2.359   0.310  0.7725  0.4855  0.1627
 5119SOL    HW116520   8.286   2.356   0.215 -0.9887  0.0756  0.3511
 5119SOL    HW216521   8.211   2.337   0.345  1.0546  1.8513  1.8616
 5120SOL     OW16522   4.963   7.990   6.332  0.2827 -0.0250 -0.3693
 5120SOL    HW116523   4.953   8.023   6.422  0.8967  0.6820 -0.5469
 5120SOL    HW216524   5.012   8.059   6.287  3.5643 -2.0961 -0.2383
 5121SOL     OW16525   2.548   6.232   0.822 -0.1075 -0.1018 -0.2820
 5121SOL    HW116526   2.550   6.268   0.911  1.8539  0.9709 -0.6955
 5121SOL    HW216527   2.526   6.139   0.834  0.8684 -0.1595  1.4214
 5122SOL     OW16528   6.065   2.365   4.958  0.1479  0.3443 -0.5878
 5122SOL    HW116529   6.029   2.450   4.982  1.3202  0.3598  1.3145
 5122SOL    HW216530   6.031   2.348   4.870 -1.8473  1.7683 -0.1561
 5123SOL     OW16531   6.002   7.828   3.092 -0.0096  0.0530  0.4552
 5123SOL    HW116532   5.955   7.748   3.066  0.3735 -0.1643  0.4339
 5123SOL    HW216533   6.072   7.797   3.150  0.2263  0.3575  0.3310
 5124SOL     OW16534   5.078   5.770   8.798  0.2016  0.3124 -0.0076
 5124SOL    HW116535   5.019   5.844   8.806 -0.4241  0.0206 -1.5392
 5124SOL    HW216536   5.032   5.708   8.742  1.4684 -0.4451 -0.2686
 5125SOL     OW16537   2.216   2.435   6.917 -0.3108  0.1839 -0.1501
 5125SOL    HW116538   2.160   2.499   6.874  0.9816  1.2194 -0.3643
 5125SOL    HW216539   2.285   2.417   6.853  0.1181 -0.3418  0.4489
 5126SOL     OW16540   0.749   8.228   0.383 -0.3245  0.3280 -0.0964
 5126SOL    HW116541   0.776   8.137   0.371 -0.5787 -0.0075  1.6178
 5126SOL    HW216542   0.656   8.229   0.359 -0.1368  0.3150 -0.8454
 5127SOL     OW16543   3.485   8.203   8.213 -0.2144 -0.4104  0.3548
 5127SOL    HW116544   3.443   8.258   8.280  0.9072 -3.1423  3.5458
 5127SOL    HW216545   3.557   8.257   8.180 -0.2260  0.7175  2.0229
 5128SOL     OW16546   4.302   3.237   2.125 -0.4746 -0.2206  0.4473
 5128SOL    HW116547   4.338   3.160   2.168  1.8825  1.7228  2.2619
 5128SOL    HW216548   4.226   3.261   2.177 -2.5938 -2.3792 -1.3851
 5129SOL     OW16549   8.007   5.281   2.915  0.4556 -0.2779  0.3871
 5129SOL    HW116550   8.014   5.358   2.859  0.6658 -1.1214 -0.7827
 5129SOL    HW216551   8.067   5.298   2.987  1.3889  0.1582 -0.4700
 5130SOL     OW16552   8.232   7.349   6.433 -0.0138  0.1958 -0.0859
 5130SOL    HW116553   8.269   7.277   6.381  1.5541 -0.4388  1.8064
 5130SOL    HW216554   8.154   7.376   6.384 -0.9752 -3.1105 -0.6249
 5131SOL     OW16555   1.502   5.529   7.387 -0.0737  0.1099 -0.1505
 5131SOL    HW116556   1.456   5.460   7.338 -0.0109 -0.2409  0.2803
 5131SOL    HW216557   1.525   5.594   7.321 -3.3172  1.4986 -0.0875
 5132SOL     OW16558   2.630   5.163   5.504  0.5511 -0.3848 -0.9671
 5132SOL    HW116559   2.553   5.133   5.552  0.8888  0.0193 -0.1473
 5132SOL    HW216560   2.669   5.083   5.468 -1.0929 -0.4437 -2.7195
 5133SOL     OW16561   0.107   0.499   6.493  0.1483 -0.2847  0.0943
 5133SOL    HW116562   0.061   0.571   6.449 -0.4097 -0.8168 -0.2246
 5133SOL    HW216563   0.038   0.452   6.540  0.3415 -1.1344 -0.4335
 5134SOL     OW16564   7.602   5.799   2.790  0.6170 -0.3117  0.1802
 5134SOL    HW116565   7.676   5.850   2.759  0.5467 -0.2455  0.1210
 5134SOL    HW216566   7.607   5.805   2.886  0.0046  0.6875  0.1677
 5135SOL     OW16567   4.133   8.360   7.933  0.2880 -0.5059  0.0513
 5135SOL    HW116568   4.112   8.448   7.902  0.6014 -0.7197 -0.8109
 5135SOL    HW216569   4.057   8.335   7.986 -0.5434 -0.3124 -0.9959
 5136SOL     OW16570   7.781   8.516   0.610  0.1104 -0.3963 -0.0180
 5136SOL    HW116571   7.693   8.495   0.642  0.2057 -1.0530 -0.1867
 5136SOL    HW216572   7.792   8.609   0.631 -1.8011  0.5542 -2.6225
 5137SOL     OW16573   5.465   8.614   4.927 -0.2724 -1.0179 -0.1065
 5137SOL    HW116574   5.478   8.636   5.020 -0.7049 -1.8555  0.1644
 5137SOL    HW216575   5.376   8.646   4.908 -0.8453 -2.3339  0.2485
 5138SOL     OW16576   8.252   0.530   7.577 -0.8891 -0.1957  0.0455
 5138SOL    HW116577   8.239   0.566   7.664 -0.8553  0.5854 -0.2595
 5138SOL    HW216578   8.171   0.483   7.558 -1.0495 -0.0430  0.3506
 5139SOL     OW16579   1.209   1.668   1.767 -0.1410 -0.1313  0.0259
 5139SOL    HW116580   1.218   1.577   1.741  1.6616  0.2204 -0.7037
 5139SOL    HW216581   1.271   1.678   1.840  0.6811  0.8196 -0.7824
 5140SOL     OW16582   3.362   5.900   0.408 -0.4445  0.3124  0.3019
 5140SOL    HW116583   3.416   5.855   0.343 -0.4072 -0.0404  0.5707
 5140SOL    HW216584   3.409   5.981   0.427 -1.2212  1.1741 -1.2388
 5141SOL     OW16585   5.278   4.021   1.515  0.3494  0.1090 -0.0438
 5141SOL    HW116586   5.205   4.070   1.477  0.2773 -1.3897 -2.0015
 5141SOL    HW216587   5.310   4.077   1.586 -0.9484  2.0466 -0.8968
 5142SOL     OW16588   4.141   1.634   2.399  0.2897  0.0862  0.1109
 5142SOL    HW116589   4.086   1.586   2.461 -0.0493  1.0213  0.5426
 5142SOL    HW216590   4.182   1.703   2.451 -1.7305  2.3366 -1.0689
 5143SOL     OW16591   3.561   4.264   2.062 -0.8203  0.4265 -0.0699
 5143SOL    HW116592   3.600   4.346   2.091 -1.4668  0.3280  1.1809
 5143SOL    HW216593   3.635   4.206   2.046 -0.3709  0.1190  2.6412
 5144SOL     OW16594   8.449   6.813   7.484 -0.5156 -0.3512 -0.3283
 5144SOL    HW116595   8.395   6.866   7.426  0.7369 -1.5863 -2.7874
 5144SOL    HW216596   8.403   6.729   7.488 -0.1819 -0.5256 -0.1554
 5145SOL     OW16597   4.117   2.383   8.194 -0.2341 -0.0164  0.5469
 5145SOL    HW116598   4.137   2.409   8.284 -1.3892 -1.6830  1.3291
 5145SOL    HW216599   4.045   2.439   8.167 -0.5952 -0.2333  1.0575
 5146SOL     OW16600   2.260   4.134   3.307 -0.1100 -0.1206 -0.0262
 5146SOL    HW116601   2.270   4.224   3.340 -0.5429  0.2632 -0.8983
 5146SOL    HW216602   2.326   4.127   3.239  0.4050 -0.7184  0.5245
 5147SOL     OW16603   8.670   4.187   2.968 -0.2939 -0.7534 -0.5123
 5147SOL    HW116604   8.653   4.124   3.038 -0.6542 -0.4838 -0.3573
 5147SOL    HW216605   8.676   4.272   3.012 -1.2698 -0.4745 -0.8844
 5148SOL     OW16606   3.677   3.630   7.657  0.0262  0.2936  0.1874
 5148SOL    HW116607   3.651   3.692   7.724  1.9915  1.6166 -0.1933
 5148SOL    HW216608   3.723   3.683   7.591  0.4710 -1.3460 -0.8909
 5149SOL     OW16609   7.063   4.386   3.487  0.0133  0.3019 -0.5612
 5149SOL    HW116610   7.055   4.295   3.515  1.7768  0.5515  0.9328
 5149SOL    HW216611   6.973   4.416   3.476 -0.7172 -0.7792  1.8544
 5150SOL     OW16612   6.374   6.310   5.823 -0.3096 -0.3158  0.2836
 5150SOL    HW116613   6.314   6.244   5.858 -0.2751 -0.0080  0.9322
 5150SOL    HW216614   6.320   6.363   5.764 -0.2682 -1.1014 -0.4869
 5151SOL     OW16615   4.735   6.879   0.105  0.0943 -0.2503  0.6165
 5151SOL    HW116616   4.677   6.954   0.106  0.8845  0.3752  1.9128
 5151SOL    HW216617   4.800   6.899   0.037 -0.1786 -0.1543  0.3828
 5152SOL     OW16618   8.079   7.284   0.823  0.0949 -0.1261  1.3272
 5152SOL    HW116619   8.172   7.274   0.801  0.0771  0.6606  0.8725
 5152SOL    HW216620   8.037   7.303   0.740 -0.4081  0.0147  1.6114
 5153SOL     OW16621   3.282   8.204   4.345 -0.2140  1.0544 -0.5777
 5153SOL    HW116622   3.279   8.273   4.280  0.2333 -0.0185 -1.7923
 5153SOL    HW216623   3.343   8.139   4.309  0.1084  0.4483  0.9399
 5154SOL     OW16624   5.276   7.172   2.762  0.2813 -0.1837 -0.3555
 5154SOL    HW116625   5.296   7.109   2.693  0.5972 -0.5661  0.0791
 5154SOL    HW216626   5.250   7.251   2.715  0.8072 -0.3367 -0.9219
 5155SOL     OW16627   3.581   1.199   5.781  0.3143  0.4020 -0.5166
 5155SOL    HW116628   3.511   1.169   5.838 -0.9518  1.2801 -1.5633
 5155SOL    HW216629   3.560   1.291   5.763  2.3346  1.0307  0.0049
 5156SOL     OW16630   2.152   1.845   6.492 -0.2658  0.0206  0.5083
 5156SOL    HW116631   2.237   1.872   6.456 -1.1195  2.2089  0.0101
 5156SOL    HW216632   2.168   1.839   6.587  0.5842 -0.2095  0.3631
 5157SOL     OW16633   5.168   0.492   3.973  0.7649 -0.3678  0.0769
 5157SOL    HW116634   5.094   0.469   3.917  1.3152  1.1196 -1.3235
 5157SOL    HW216635   5.241   0.506   3.913  1.4587  0.9470  1.1589
 5158SOL     OW16636   6.959   5.791   3.349 -0.4763 -0.6802  0.5173
 5158SOL    HW116637   7.048   5.812   3.321 -1.5794  0.2546 -2.8682
 5158SOL    HW216638   6.949   5.698   3.332  0.1177 -1.0001  1.8488
 5159SOL     OW16639   7.676   6.795   8.233 -0.0665 -0.3714  0.5405
 5159SOL    HW116640   7.724   6.721   8.270 -0.7306 -0.8292  0.5069
 5159SOL    HW216641   7.618   6.823   8.304 -2.1806 -1.9804 -0.4500
 5160SOL     OW16642   4.591   1.354   1.200 -0.1274 -0.4684 -0.1058
 5160SOL    HW116643   4.573   1.268   1.238 -0.8915 -1.3754 -2.3339
 5160SOL    HW216644   4.681   1.349   1.169 -0.5526 -0.9961 -1.3653
 5161SOL     OW16645   7.537   2.120   7.124 -0.4676 -0.1940  0.9195
 5161SOL    HW116646   7.488   2.080   7.195 -1.8868  0.4220  0.3352
 5161SOL    HW216647   7.555   2.048   7.063  1.2486 -0.8337  2.1278
 5162SOL     OW16648   1.693   4.302   8.567  0.0790  0.0089 -0.1295
 5162SOL    HW116649   1.747   4.288   8.489 -1.8467  0.2656 -1.5698
 5162SOL    HW216650   1.755   4.294   8.640  1.9935 -0.0032 -1.6616
 5163SOL     OW16651   0.452   7.311   5.110 -0.2961 -0.6526 -0.4956
 5163SOL    HW116652   0.451   7.235   5.051  0.2627 -1.5170  0.5533
 5163SOL    HW216653   0.513   7.285   5.180 -0.5010  0.5655  0.1530
 5164SOL     OW16654   3.960   4.983   7.382 -0.0932 -0.7154  0.6037
 5164SOL    HW116655   4.051   4.966   7.360 -0.2925 -0.4759 -0.4349
 5164SOL    HW216656   3.962   5.013   7.473  1.1236  1.6914 -0.1575
 5165SOL     OW16657   4.883   0.960   5.903  0.1585 -0.3441  0.1659
 5165SOL    HW116658   4.940   1.033   5.927  1.4418 -1.5779  0.9742
 5165SOL    HW216659   4.797   0.985   5.936  0.2307  1.4257 -0.8329
 5166SOL     OW16660   8.564   5.501   7.661 -0.1189  0.1359  0.4169
 5166SOL    HW116661   8.554   5.430   7.597 -0.6063  0.8210 -0.2819
 5166SOL    HW216662   8.587   5.456   7.743 -0.7778 -0.8662  0.0776
 5167SOL     OW16663   8.419   0.656   0.130 -0.3047  0.2226 -0.1360
 5167SOL    HW116664   8.340   0.695   0.167 -0.0108  1.5714 -0.8576
 5167SOL    HW216665   8.480   0.729   0.121  0.8062 -0.6814 -0.1821
 5168SOL     OW16666   6.848   7.090   3.328 -0.8080 -0.7554  0.0229
 5168SOL    HW116667   6.754   7.081   3.342 -0.8861 -0.3731 -0.2308
 5168SOL    HW216668   6.857   7.099   3.233 -0.5592 -0.3267  0.0856
 5169SOL     OW16669   4.382   7.234   4.081 -0.5528 -0.3176  0.2589
 5169SOL    HW116670   4.440   7.182   4.136  1.9169  1.6309 -0.3367
 5169SOL    HW216671   4.317   7.269   4.142  0.2083 -0.7778  1.3764
 5170SOL     OW16672   3.073   1.179   2.396  0.4895  0.4869 -0.5571
 5170SOL    HW116673   3.130   1.106   2.419  1.0985  0.7951 -1.0449
 5170SOL    HW216674   3.056   1.224   2.479 -1.3469 -1.2037  0.0472
 5171SOL     OW16675   8.241   7.904   5.937  0.4137 -0.0412  0.3202
 5171SOL    HW116676   8.251   7.811   5.957  0.4098  0.2024  1.5236
 5171SOL    HW216677   8.273   7.913   5.848  1.2186 -1.0607  0.4911
 5172SOL     OW16678   3.728   1.433   2.430 -0.0151  0.2382 -0.1147
 5172SOL    HW116679   3.717   1.387   2.347  1.1598 -0.8663  0.3020
 5172SOL    HW216680   3.822   1.429   2.448 -0.0557  1.6997  0.5843
 5173SOL     OW16681   6.073   8.019   8.700 -0.1030 -0.2791  0.1077
 5173SOL    HW116682   5.984   8.048   8.680  0.0476  0.2097  0.1223
 5173SOL    HW216683   6.064   7.963   8.777 -0.1835  1.3858  1.3585
 5174SOL     OW16684   3.608   5.984   6.238 -0.1013  0.2792 -0.0085
 5174SOL    HW116685   3.681   6.045   6.238 -0.0929  0.2688 -0.0356
 5174SOL    HW216686   3.572   5.989   6.149  0.1457 -0.0517 -0.1316
 5175SOL     OW16687   2.367   3.243   4.367  0.3320 -0.5793 -0.0922
 5175SOL    HW116688   2.336   3.194   4.443  1.5645 -1.0328  0.1417
 5175SOL    HW216689   2.439   3.190   4.333 -0.1879 -0.3673 -1.5688
 5176SOL     OW16690   0.616   7.800   5.036 -0.4068  0.0938 -0.1051
 5176SOL    HW116691   0.547   7.836   5.091  0.4847 -0.6085  1.5592
 5176SOL    HW216692   0.636   7.870   4.974 -1.2302  1.0589  0.6733
 5177SOL     OW16693   8.431   6.110   6.534 -0.0992  0.5286 -0.0726
 5177SOL    HW116694   8.444   6.130   6.627  0.3371  0.2475 -0.0673
 5177SOL    HW216695   8.477   6.027   6.521 -0.3485  0.4537 -0.4899
 5178SOL     OW16696   7.038   3.247   3.078 -0.1632 -0.1146  0.0198
 5178SOL    HW116697   7.124   3.289   3.080 -1.1057  1.9613  1.9167
 5178SOL    HW216698   7.052   3.161   3.118  1.3791 -0.7095 -1.6883
 5179SOL     OW16699   2.379   1.704   0.940 -0.1567  0.7617 -0.3789
 5179SOL    HW116700   2.416   1.790   0.960 -2.1417  1.7083 -0.5929
 5179SOL    HW216701   2.445   1.662   0.884  1.5127  1.5016  0.9333
 5180SOL     OW16702   5.749   5.222   0.426  0.1278  0.4062 -0.5408
 5180SOL    HW116703   5.770   5.308   0.464 -1.4814  0.0493  1.3250
 5180SOL    HW216704   5.822   5.166   0.452  1.0769  1.1037 -1.5774
 5181SOL     OW16705   5.634   8.032   4.532  0.2151  0.6562 -0.5522
 5181SOL    HW116706   5.608   8.111   4.485  0.2594  1.0746  0.1103
 5181SOL    HW216707   5.694   8.063   4.600  1.4456 -0.1286 -1.2206
 5182SOL     OW16708   3.484   3.803   0.841 -0.4775  0.1421 -0.0976
 5182SOL    HW116709   3.482   3.897   0.861 -0.2489  0.1159  0.0550
 5182SOL    HW216710   3.407   3.789   0.786 -0.5348  0.4124 -0.0913
 5183SOL     OW16711   4.970   5.665   1.331 -0.2185  0.3645 -0.2762
 5183SOL    HW116712   5.016   5.730   1.385  1.7806  0.5618 -2.0745
 5183SOL    HW216713   4.920   5.717   1.269  1.8835  0.3104 -2.1335
 5184SOL     OW16714   6.906   1.994   2.589  0.4451  0.2791 -0.1502
 5184SOL    HW116715   6.916   2.070   2.531 -0.0270  1.3394  1.0810
 5184SOL    HW216716   6.836   2.020   2.649 -0.2063 -1.4325 -0.1135
 5185SOL     OW16717   1.679   7.550   6.719  0.5975  0.0170  0.5408
 5185SOL    HW116718   1.671   7.638   6.681  2.0145 -0.9117 -2.1088
 5185SOL    HW216719   1.765   7.550   6.761  0.7550 -0.1960  0.2229
 5186SOL     OW16720   5.788   1.834   4.268 -0.1288 -0.8873  0.3299
 5186SOL    HW116721   5.833   1.751   4.284 -1.1089 -1.3115  0.9030
 5186SOL    HW216722   5.696   1.810   4.257 -0.1740 -0.0871 -1.3310
 5187SOL     OW16723   5.853   8.126   8.556 -0.1507 -0.3786 -0.0843
 5187SOL    HW116724   5.797   8.097   8.483 -0.4340  1.8167 -0.8084
 5187SOL    HW216725   5.833   8.219   8.566 -0.5695 -0.7027  3.2292
 5188SOL     OW16726   4.486   2.141   7.766  0.0513 -0.4725  0.0115
 5188SOL    HW116727   4.533   2.145   7.682 -1.0823 -1.2130 -0.6900
 5188SOL    HW216728   4.481   2.232   7.795  1.5812 -0.3289 -0.0597
 5189SOL     OW16729   4.233   8.290   4.974  0.1824  0.4620 -0.2896
 5189SOL    HW116730   4.272   8.217   5.021 -1.7075 -0.5848 -0.2348
 5189SOL    HW216731   4.300   8.358   4.975  1.2268 -0.5231  1.4911
 5190SOL     OW16732   4.552   1.812   7.725 -0.5356  0.1146  0.6707
 5190SOL    HW116733   4.628   1.839   7.776 -0.9535  0.8540  0.9087
 5190SOL    HW216734   4.479   1.862   7.761 -1.3278 -1.2978  1.0989
 5191SOL     OW16735   6.921   2.777   4.616 -0.6422  0.2844  0.3992
 5191SOL    HW116736   6.963   2.844   4.561  0.2308  0.5379  1.3297
 5191SOL    HW216737   6.989   2.710   4.628 -1.5726 -0.8984 -0.6921
 5192SOL     OW16738   7.053   3.002   0.649  0.0832 -0.1224  0.0233
 5192SOL    HW116739   7.041   2.907   0.642  1.3993 -0.2275 -1.2029
 5192SOL    HW216740   7.059   3.033   0.559  3.5403  0.5342  0.3431
 5193SOL     OW16741   1.689   1.428   3.100 -0.2006 -0.0079 -0.0580
 5193SOL    HW116742   1.603   1.459   3.130 -1.0599 -0.4726 -1.8959
 5193SOL    HW216743   1.723   1.378   3.174 -2.2073 -1.1036  0.2124
 5194SOL     OW16744   8.041   1.683   1.589  0.4083  0.1874  0.1781
 5194SOL    HW116745   8.051   1.602   1.638  0.8464 -0.9769 -1.7170
 5194SOL    HW216746   8.125   1.695   1.543 -0.2167  0.7896 -0.8675
 5195SOL     OW16747   7.939   3.647   8.008  0.3459  0.0973  0.2196
 5195SOL    HW116748   7.984   3.563   7.996  3.2229  1.8437 -2.5945
 5195SOL    HW216749   8.008   3.709   8.028 -1.4538  2.1793  0.3802
 5196SOL     OW16750   8.045   1.282   5.214  0.5350 -0.2148 -0.0118
 5196SOL    HW116751   8.014   1.211   5.270 -0.8600  1.0619  0.9225
 5196SOL    HW216752   7.969   1.305   5.160  0.4745  1.5027  0.7351
 5197SOL     OW16753   5.739   7.292   0.183  0.2287 -0.4068 -0.0040
 5197SOL    HW116754   5.808   7.247   0.233 -0.0627  0.0674  0.8576
 5197SOL    HW216755   5.774   7.380   0.169  0.1789 -0.4452 -0.3751
 5198SOL     OW16756   0.061   6.475   3.218  1.0354  0.3611  0.1594
 5198SOL    HW116757   0.119   6.549   3.200 -0.5166  1.2643 -1.4277
 5198SOL    HW216758  -0.004   6.478   3.148 -0.3174 -1.2373  1.2765
 5199SOL     OW16759   5.202   5.490   7.456  0.5095  0.1939  0.9242
 5199SOL    HW116760   5.189   5.478   7.362  0.5610 -2.0991  1.1394
 5199SOL    HW216761   5.113   5.497   7.492  0.1960 -2.9870  1.0584
 5200SOL     OW16762   2.293   8.287   8.742  0.1207 -0.1726 -0.9812
 5200SOL    HW116763   2.288   8.257   8.832  0.2648  1.1431 -0.5176
 5200SOL    HW216764   2.289   8.206   8.690  1.9803 -1.1095  0.2293
 5201SOL     OW16765   2.195   7.344   3.006  0.0659 -0.5752  0.0162
 5201SOL    HW116766   2.257   7.278   2.975 -0.1518 -1.2394  0.9658
 5201SOL    HW216767   2.109   7.310   2.982  0.0532  0.5750 -1.7346
 5202SOL     OW16768   8.165   0.265   3.096 -0.6636 -0.0985 -0.2493
 5202SOL    HW116769   8.100   0.314   3.147  0.3065  0.4624  0.4957
 5202SOL    HW216770   8.167   0.308   3.011 -0.4094  0.6481  0.1288
 5203SOL     OW16771   2.698   2.938   3.187  0.4031  0.0971  0.0742
 5203SOL    HW116772   2.627   2.892   3.232  1.2597 -1.0472  0.2742
 5203SOL    HW216773   2.733   2.874   3.125  0.8512  0.8651 -0.4875
 5204SOL     OW16774   6.265   6.193   7.255  0.4867 -0.2596 -0.3019
 5204SOL    HW116775   6.234   6.180   7.345 -0.6765 -0.6423 -0.7407
 5204SOL    HW216776   6.347   6.145   7.251  0.2575 -0.7220  0.3926
 5205SOL     OW16777   3.109   8.853   1.122 -0.0792  0.1149  1.0134
 5205SOL    HW116778   3.175   8.785   1.111 -0.3531 -0.2869  1.7818
 5205SOL    HW216779   3.079   8.871   1.033  0.2278 -0.5373  0.7664
 5206SOL     OW16780   7.359   7.480   4.923 -0.0026 -0.2432 -0.5920
 5206SOL    HW116781   7.298   7.543   4.963  0.8458  0.4939 -0.4141
 5206SOL    HW216782   7.390   7.524   4.844  1.4612  0.0651  0.1268
 5207SOL     OW16783   3.407   6.595   7.799 -0.2385 -0.6893  0.0925
 5207SOL    HW116784   3.480   6.575   7.740 -0.5439  0.1686 -0.5963
 5207SOL    HW216785   3.443   6.583   7.887  0.5746 -0.8045 -0.2470
 5208SOL     OW16786   6.342   8.167   3.215  0.3076 -0.3927 -0.2382
 5208SOL    HW116787   6.250   8.147   3.199  0.2939 -0.0393 -0.6149
 5208SOL    HW216788   6.340   8.249   3.265  0.4130 -0.5021 -0.0529
 5209SOL     OW16789   2.515   0.523   6.507  0.6110  0.7406  0.4853
 5209SOL    HW116790   2.544   0.476   6.585  3.1934 -1.0148 -1.3710
 5209SOL    HW216791   2.538   0.465   6.434 -2.4082  1.9163 -1.6120
 5210SOL     OW16792   7.201   7.268   1.437  0.2624 -0.1577 -0.1791
 5210SOL    HW116793   7.239   7.183   1.413  1.2547  0.2043  0.0754
 5210SOL    HW216794   7.106   7.254   1.433  0.4022 -1.4827  0.5349
 5211SOL     OW16795   6.950   5.281   1.960 -0.7274 -0.0067  0.0171
 5211SOL    HW116796   6.870   5.228   1.948 -1.0955  0.9259 -2.1084
 5211SOL    HW216797   7.017   5.218   1.983 -1.7156 -1.0423  0.1680
 5212SOL     OW16798   3.837   0.170   7.371  0.7092  0.1395 -0.2326
 5212SOL    HW116799   3.832   0.075   7.367 -0.4752  0.0267  1.9497
 5212SOL    HW216800   3.910   0.193   7.314  1.1677 -2.0769 -0.6392
 5213SOL     OW16801   5.768   5.658   3.779 -0.0161  0.1824  0.8077
 5213SOL    HW116802   5.822   5.611   3.843 -1.3869  1.7219  3.2553
 5213SOL    HW216803   5.699   5.596   3.756  0.6876 -0.5105  0.5305
 5214SOL     OW16804   5.890   5.002   3.636  0.3599 -0.1170  0.1695
 5214SOL    HW116805   5.870   5.093   3.661  0.8009  0.1837 -0.5521
 5214SOL    HW216806   5.884   5.002   3.541  0.5942 -0.7968  0.1554
 5215SOL     OW16807   3.478   1.128   5.023 -0.5895 -0.5660  0.2097
 5215SOL    HW116808   3.514   1.062   5.081 -1.5356 -1.2920 -0.0038
 5215SOL    HW216809   3.540   1.133   4.950 -0.2806 -0.8977  0.4492
 5216SOL     OW16810   4.654   6.348   1.758  0.5601 -0.0044  0.2538
 5216SOL    HW116811   4.568   6.334   1.718  0.5128  1.3847 -0.1546
 5216SOL    HW216812   4.690   6.259   1.768 -1.1311 -0.6660  0.9448
 5217SOL     OW16813   0.964   1.368   0.806 -0.0733  0.0138  0.4602
 5217SOL    HW116814   0.969   1.463   0.817 -3.2069  0.5638 -1.5055
 5217SOL    HW216815   0.887   1.342   0.856 -0.7854 -1.0250 -1.0996
 5218SOL     OW16816   4.977   6.628   1.641  0.2813  0.1447  0.4453
 5218SOL    HW116817   4.971   6.703   1.582 -0.7628 -0.3614 -0.1190
 5218SOL    HW216818   4.904   6.572   1.617 -0.1429 -0.1217  2.1940
 5219SOL     OW16819   8.681   1.134   7.278 -0.3975  0.6115 -0.1752
 5219SOL    HW116820   8.735   1.140   7.199 -0.1849  0.0004 -0.0739
 5219SOL    HW216821   8.593   1.114   7.245 -0.1798 -0.3006 -0.2224
 5220SOL     OW16822   1.557   5.024   5.481  0.2437  0.1376 -0.1841
 5220SOL    HW116823   1.535   5.111   5.516 -0.7467 -0.3903  0.5469
 5220SOL    HW216824   1.538   4.964   5.553  0.0554 -0.7838 -0.9846
 5221SOL     OW16825   6.772   3.267   1.509 -0.0210 -0.1839  0.1542
 5221SOL    HW116826   6.833   3.220   1.452 -1.8584 -0.5803 -1.5980
 5221SOL    HW216827   6.688   3.261   1.465 -1.3264  0.5527  2.3526
 5222SOL     OW16828   7.866   8.474   6.051  0.2136  0.3798  0.3018
 5222SOL    HW116829   7.793   8.426   6.011 -0.7522  2.0172 -0.0190
 5222SOL    HW216830   7.942   8.450   5.998 -0.7636  1.3210 -1.6514
 5223SOL     OW16831   5.500   6.178   8.662 -0.6114 -0.8608  0.2152
 5223SOL    HW116832   5.533   6.185   8.572 -1.6090 -0.3261 -0.1324
 5223SOL    HW216833   5.545   6.102   8.699  0.6194 -0.4502 -0.3757
 5224SOL     OW16834   1.706   6.852   4.927  0.4906  0.6168  0.3333
 5224SOL    HW116835   1.617   6.821   4.911  0.5747  0.9264 -0.8624
 5224SOL    HW216836   1.704   6.945   4.903  1.0524  0.7028  0.6038
 5225SOL     OW16837   2.411   5.776   3.234  0.0410  0.0766 -0.8875
 5225SOL    HW116838   2.369   5.754   3.317  0.4386  0.7059 -0.5089
 5225SOL    HW216839   2.505   5.767   3.252  0.1360 -3.6032 -2.3409
 5226SOL     OW16840   7.728   3.470   5.720 -0.4250 -0.2531  0.2454
 5226SOL    HW116841   7.782   3.454   5.643 -0.1661  2.0428 -0.0985
 5226SOL    HW216842   7.656   3.524   5.688 -0.5049  0.4415  1.5457
 5227SOL     OW16843   5.311   7.624   2.946  0.2527 -0.3857  0.4168
 5227SOL    HW116844   5.372   7.695   2.924 -2.1610  1.1789 -1.7828
 5227SOL    HW216845   5.306   7.571   2.866 -0.9275 -0.7025  0.6773
 5228SOL     OW16846   1.194   0.008   1.736  0.2509  0.2697 -0.6311
 5228SOL    HW116847   1.137   0.008   1.660 -0.9424 -0.1169  0.2227
 5228SOL    HW216848   1.202   0.100   1.761 -1.3513  0.2211  0.1826
 5229SOL     OW16849   4.813   4.607   3.232 -0.3280 -0.3256 -0.6822
 5229SOL    HW116850   4.898   4.627   3.271  0.2511 -3.5912  0.0293
 5229SOL    HW216851   4.834   4.575   3.145 -1.0402  0.6246 -1.2186
 5230SOL     OW16852   4.934   5.844   1.127 -0.1298  0.2545 -0.1903
 5230SOL    HW116853   5.025   5.872   1.119  0.4382 -1.0889  1.0973
 5230SOL    HW216854   4.905   5.829   1.037  1.0909  0.2003 -0.5894
 5231SOL     OW16855   6.792   6.842   0.344  0.3867 -0.2973 -0.2250
 5231SOL    HW116856   6.868   6.796   0.309 -0.2013 -0.6857 -1.0446
 5231SOL    HW216857   6.786   6.922   0.292  0.8656  0.2703  0.5760
 5232SOL     OW16858   8.314   0.301   4.072 -0.2894 -0.4781  0.0770
 5232SOL    HW116859   8.279   0.271   4.156  0.1732 -1.5198 -0.0820
 5232SOL    HW216860   8.407   0.282   4.076 -0.2279 -0.3617 -0.5956
 5233SOL     OW16861   5.684   7.740   4.746 -0.1052 -0.5913  0.4034
 5233SOL    HW116862   5.777   7.762   4.749 -0.2257 -0.1334  2.5017
 5233SOL    HW216863   5.639   7.824   4.752 -0.6466 -0.8781  0.4792
 5234SOL     OW16864   4.082   1.758   3.045  0.0896  0.1926  0.3857
 5234SOL    HW116865   4.178   1.748   3.044  0.2350  1.3841  0.6357
 5234SOL    HW216866   4.067   1.835   3.099 -0.9014  1.2233 -1.2732
 5235SOL     OW16867   6.366   5.380   1.693  0.9416 -0.2283  0.0574
 5235SOL    HW116868   6.412   5.449   1.742  0.0473  0.3919  0.0710
 5235SOL    HW216869   6.369   5.304   1.751  0.6270  0.2518  0.7281
 5236SOL     OW16870   4.688   7.198   0.854  0.0441  0.0988  0.2074
 5236SOL    HW116871   4.661   7.240   0.935 -0.6342  0.7330 -0.3309
 5236SOL    HW216872   4.695   7.269   0.791 -2.9872 -0.7114 -1.2268
 5237SOL     OW16873   3.188   7.530   6.094  0.0179  0.2188  0.1925
 5237SOL    HW116874   3.201   7.524   5.999 -1.6814 -0.2835 -0.0394
 5237SOL    HW216875   3.093   7.535   6.105  0.2321  3.3992  1.7102
 5238SOL     OW16876   6.992   8.859   8.122 -0.6127  0.3036  0.4179
 5238SOL    HW116877   6.951   8.832   8.039  1.3818  0.2024 -0.6020
 5238SOL    HW216878   6.999   8.778   8.172 -0.0543 -0.0068 -0.1465
 5239SOL     OW16879   2.800   4.564   3.292  0.2909  0.2865  0.4340
 5239SOL    HW116880   2.854   4.635   3.326  0.6146  1.1108 -1.6281
 5239SOL    HW216881   2.740   4.607   3.231  0.0879 -1.1377 -0.4259
 5240SOL     OW16882   4.568   2.286   3.273 -0.3340 -0.6647 -0.2632
 5240SOL    HW116883   4.630   2.223   3.235  0.9863  0.1993  0.3863
 5240SOL    HW216884   4.509   2.307   3.200  0.9049 -0.5657 -1.2837
 5241SOL     OW16885   3.508   8.429   1.268 -0.6600  0.0155 -0.1541
 5241SOL    HW116886   3.588   8.381   1.292 -1.0394 -0.4790  0.1539
 5241SOL    HW216887   3.507   8.504   1.327  0.8342  1.3899 -1.7841
 5242SOL     OW16888   3.895   4.838   8.821 -0.1329 -0.2691  0.1301
 5242SOL    HW116889   3.910   4.930   8.843  1.5115 -0.4109 -0.2991
 5242SOL    HW216890   3.954   4.789   8.878  0.7652 -0.8960 -1.2910
 5243SOL     OW16891   7.232   6.409   7.001  0.3829  0.2329  0.6040
 5243SOL    HW116892   7.240   6.374   7.090  0.6220  0.4992  0.6887
 5243SOL    HW216893   7.321   6.409   6.966  0.4456  1.0704  0.7320
 5244SOL     OW16894   4.441   4.472   6.246  0.5172  0.3757 -0.4473
 5244SOL    HW116895   4.435   4.566   6.234 -2.2321  0.4111  0.5619
 5244SOL    HW216896   4.404   4.435   6.166 -0.2471  0.2267 -0.0374
 5245SOL     OW16897   5.622   0.715   3.472 -0.0806  0.4502  0.2327
 5245SOL    HW116898   5.716   0.735   3.471  0.1913 -0.7039  0.7570
 5245SOL    HW216899   5.614   0.635   3.419 -0.9404  1.1775 -0.7666
 5246SOL     OW16900   3.533   7.094   0.363 -0.2343 -0.1818 -0.2299
 5246SOL    HW116901   3.469   7.145   0.314 -0.2044  1.3473  1.2087
 5246SOL    HW216902   3.608   7.086   0.303 -1.7934 -2.3039 -2.0612
 5247SOL     OW16903   2.827   8.446   5.295  0.9741 -0.0231 -0.5888
 5247SOL    HW116904   2.854   8.422   5.383  2.3254 -0.0127 -0.9834
 5247SOL    HW216905   2.909   8.461   5.248  0.2686  2.9641 -1.0519
 5248SOL     OW16906   2.270   4.623   7.504  0.4698  0.7216  0.3229
 5248SOL    HW116907   2.182   4.659   7.506  0.0980 -0.1232 -0.3671
 5248SOL    HW216908   2.313   4.670   7.432  0.6952  1.3477  0.8504
 5249SOL     OW16909   1.454   0.338   6.199 -0.3389  0.1007  0.1347
 5249SOL    HW116910   1.421   0.389   6.125 -0.8075  0.3725  0.5268
 5249SOL    HW216911   1.377   0.290   6.231  0.0700 -0.7511 -0.1498
 5250SOL     OW16912   1.295   4.565   0.981  0.2722 -0.0822 -0.5599
 5250SOL    HW116913   1.244   4.604   0.911 -1.7309  2.1259  1.9479
 5250SOL    HW216914   1.268   4.473   0.983  0.0714 -0.0909 -2.3382
 5251SOL     OW16915   8.744   4.472   2.290  0.1401  0.1706 -0.1069
 5251SOL    HW116916   8.676   4.527   2.329 -0.1215  0.5529 -1.0791
 5251SOL    HW216917   8.707   4.444   2.206  0.2464 -1.5513  0.3922
 5252SOL     OW16918   3.141   7.899   7.050 -0.0092  0.1481  0.3191
 5252SOL    HW116919   3.053   7.883   7.014  0.0126  1.6554 -0.4664
 5252SOL    HW216920   3.127   7.963   7.120  0.5390  1.0996 -0.4131
 5253SOL     OW16921   5.937   5.364   6.714  0.2106 -0.1035 -0.2538
 5253SOL    HW116922   5.929   5.393   6.623  1.4436  0.7985 -0.1110
 5253SOL    HW216923   5.901   5.436   6.766  0.0049 -0.3792 -0.0084
 5254SOL     OW16924   0.773   6.551   4.980 -0.1159 -0.1774 -0.1110
 5254SOL    HW116925   0.789   6.544   4.886 -0.1638 -0.4144 -0.1024
 5254SOL    HW216926   0.679   6.566   4.988 -0.1321 -0.2838 -0.0963
 5255SOL     OW16927   8.492   7.338   2.391 -0.0217  0.1493 -0.0650
 5255SOL    HW116928   8.447   7.379   2.465  0.9192  0.4606  0.3616
 5255SOL    HW216929   8.584   7.335   2.418  0.3981  0.5998 -1.3680
 5256SOL     OW16930   4.861   1.555   7.665  0.0954 -0.0794  0.0220
 5256SOL    HW116931   4.909   1.633   7.637  0.8332 -0.6193 -0.2476
 5256SOL    HW216932   4.893   1.486   7.607 -0.3537 -0.6412  0.4415
 5257SOL     OW16933   8.290   1.279   7.334 -0.2285  0.3161 -0.8893
 5257SOL    HW116934   8.219   1.292   7.271 -0.5589 -0.3343 -0.6597
 5257SOL    HW216935   8.369   1.273   7.279 -0.6029 -0.9851 -1.3097
 5258SOL     OW16936   1.152   0.642   3.987 -0.0435  0.0475  0.8458
 5258SOL    HW116937   1.121   0.720   3.940  0.1854 -0.8178 -0.8160
 5258SOL    HW216938   1.248   0.650   3.985 -0.0418  0.4921  2.0619
 5259SOL     OW16939   7.923   2.616   3.208 -0.1480  0.2368  0.0123
 5259SOL    HW116940   7.966   2.620   3.294  3.0853  2.7390 -1.5099
 5259SOL    HW216941   7.862   2.690   3.210 -1.0560 -0.5019  0.5467
 5260SOL     OW16942   6.729   0.109   8.805  0.2828 -0.2141 -0.3378
 5260SOL    HW116943   6.720   0.166   8.729 -0.1657 -0.0508 -0.1666
 5260SOL    HW216944   6.816   0.128   8.840  1.1986 -1.4950 -1.7826
 5261SOL     OW16945   6.310   4.154   1.353  0.2229  0.4650  0.2299
 5261SOL    HW116946   6.253   4.098   1.300  1.2253  0.6312 -1.0693
 5261SOL    HW216947   6.399   4.133   1.324  0.6217  2.8545 -0.4652
 5262SOL     OW16948   0.268   2.946   7.608 -0.4713  0.8659 -0.0818
 5262SOL    HW116949   0.329   2.875   7.629  1.7294  2.8209  0.5737
 5262SOL    HW216950   0.193   2.930   7.665 -0.0193 -0.8715  0.1064
 5263SOL     OW16951   2.777   7.306   1.731  0.1450  0.1673 -0.1578
 5263SOL    HW116952   2.787   7.336   1.822 -0.8753  1.2577 -0.3742
 5263SOL    HW216953   2.712   7.236   1.736 -0.3899  0.6554 -0.1050
 5264SOL     OW16954   7.682   3.770   2.811  0.2871  0.1913  0.5659
 5264SOL    HW116955   7.686   3.840   2.745  1.8272 -0.8390 -0.5320
 5264SOL    HW216956   7.758   3.714   2.790 -0.1018 -1.0420  2.2583
 5265SOL     OW16957   4.275   1.955   0.052  0.2016 -0.2243 -0.0925
 5265SOL    HW116958   4.209   2.024   0.041 -0.6565 -1.0801 -0.4744
 5265SOL    HW216959   4.350   2.000   0.091 -0.2673  0.9628 -0.4959
 5266SOL     OW16960   1.205   7.346   6.546 -0.0728  0.5152 -0.1813
 5266SOL    HW116961   1.262   7.273   6.521 -2.1371 -1.5451  0.6982
 5266SOL    HW216962   1.185   7.330   6.638 -0.1913  2.5421  0.1834
 5267SOL     OW16963   5.609   6.366   5.786 -0.3631 -0.1571 -0.5919
 5267SOL    HW116964   5.525   6.404   5.810  0.2298  0.9320 -0.1612
 5267SOL    HW216965   5.610   6.368   5.691 -0.7875 -0.0783 -0.5972
 5268SOL     OW16966   2.052   6.496   5.066 -0.1872  0.2038  0.1295
 5268SOL    HW116967   2.135   6.540   5.053 -0.1267  0.2805  0.7483
 5268SOL    HW216968   2.064   6.443   5.145  0.4334 -2.5936 -1.7108
 5269SOL     OW16969   8.150   8.720   2.538 -0.4574  0.3541 -0.3224
 5269SOL    HW116970   8.117   8.668   2.465 -2.3953  1.2468 -0.1653
 5269SOL    HW216971   8.138   8.665   2.615  3.3138 -1.3368 -0.7420
 5270SOL     OW16972   1.796   2.589   7.778 -0.1227 -0.6511  0.6100
 5270SOL    HW116973   1.802   2.684   7.780 -1.1002 -0.5684  0.2339
 5270SOL    HW216974   1.887   2.559   7.778  0.1989  0.2890  0.2925
 5271SOL     OW16975   8.352   2.845   2.137  0.1794 -0.0379 -0.4495
 5271SOL    HW116976   8.352   2.899   2.216 -0.5757 -1.1377  0.3296
 5271SOL    HW216977   8.437   2.862   2.097  1.0949 -0.3397  1.2509
 5272SOL     OW16978   2.906   0.069   0.577  0.3366  0.0246  0.3173
 5272SOL    HW116979   2.973   0.015   0.536  1.2300  1.6417 -0.4805
 5272SOL    HW216980   2.888   0.138   0.513 -1.1029  0.3992  1.0793
 5273SOL     OW16981   2.154   1.090   1.483 -0.1617 -0.2980 -0.2374
 5273SOL    HW116982   2.137   1.103   1.576  1.6532  0.2296  0.0557
 5273SOL    HW216983   2.135   0.998   1.467 -0.1484 -0.4737  0.7327
 5274SOL     OW16984   0.676   1.143   3.884 -0.1304 -0.0651 -0.7000
 5274SOL    HW116985   0.629   1.111   3.808 -0.3468  1.0175 -1.0301
 5274SOL    HW216986   0.760   1.096   3.883 -0.4606 -0.6422 -1.1393
 5275SOL     OW16987   2.953   4.108   6.709 -0.5108 -0.2513  0.3777
 5275SOL    HW116988   2.862   4.129   6.732 -1.1381  1.1132 -2.8635
 5275SOL    HW216989   2.948   4.022   6.669  0.1618 -1.4177  2.6068
 5276SOL     OW16990   4.630   0.177   5.438 -0.3192  0.7186 -0.9026
 5276SOL    HW116991   4.638   0.240   5.366  1.3064  0.9604 -0.5592
 5276SOL    HW216992   4.700   0.114   5.422 -0.7258  0.0851 -0.2012
 5277SOL     OW16993   8.441   4.693   4.573 -0.1640  0.3319 -0.0788
 5277SOL    HW116994   8.415   4.602   4.560  1.5458 -0.2257  0.0638
 5277SOL    HW216995   8.490   4.716   4.494  0.4031  0.7349  0.3735
 5278SOL     OW16996   6.254   8.376   0.243 -0.0717 -0.3771 -0.4206
 5278SOL    HW116997   6.176   8.322   0.261 -0.1781 -1.0074 -2.4484
 5278SOL    HW216998   6.229   8.464   0.271 -0.8340 -0.8978  0.6292
 5279SOL     OW16999   1.438   1.377   5.543  0.2386 -0.2354 -0.0694
 5279SOL    HW117000   1.383   1.381   5.464  2.4075  0.6571 -1.6281
 5279SOL    HW217001   1.425   1.462   5.585 -1.1936 -0.8427  0.7874
 5280SOL     OW17002   8.055   1.585   7.283  0.1103 -0.2670 -0.9273
 5280SOL    HW117003   8.088   1.675   7.284  0.6825 -0.4456 -1.9115
 5280SOL    HW217004   7.963   1.593   7.308  0.2809  0.5301 -0.5085
 5281SOL     OW17005   1.888   8.240   7.865 -0.1061 -0.2548 -0.2579
 5281SOL    HW117006   1.821   8.306   7.883 -0.3733 -0.0262 -1.9415
 5281SOL    HW217007   1.839   8.162   7.839  0.2444 -0.5864  0.0640
 5282SOL     OW17008   5.116   8.333   1.488 -0.5006  0.1213 -0.4703
 5282SOL    HW117009   5.160   8.270   1.431 -0.5116 -0.6385  0.3557
 5282SOL    HW217010   5.173   8.411   1.485  0.4826 -0.5611 -0.0572
 5283SOL     OW17011   3.699   4.968   0.894  0.4007 -0.3984 -0.3013
 5283SOL    HW117012   3.676   4.877   0.878 -1.2060  0.1510 -1.4200
 5283SOL    HW217013   3.620   5.006   0.934  0.9664  0.5463 -0.0443
 5284SOL     OW17014   8.125   5.381   4.132  0.3372 -0.0669 -0.5723
 5284SOL    HW117015   8.108   5.311   4.069  2.1218 -0.2950 -0.8578
 5284SOL    HW217016   8.207   5.421   4.103  0.6263  0.5642  0.9624
 5285SOL     OW17017   6.479   4.368   3.856 -0.3502  0.0319 -0.4948
 5285SOL    HW117018   6.464   4.276   3.878  0.0920  0.3791  1.4109
 5285SOL    HW217019   6.478   4.370   3.760  3.1827 -2.6063 -0.7875
 5286SOL     OW17020   6.366   5.062   1.679  0.0596  0.2261 -0.6485
 5286SOL    HW117021   6.307   5.044   1.752  1.0808 -0.7242 -0.0217
 5286SOL    HW217022   6.328   5.138   1.635 -0.3344  1.1082  1.1330
 5287SOL     OW17023   6.604   7.528   1.417 -0.1359 -0.2859 -0.7271
 5287SOL    HW117024   6.593   7.587   1.491  1.2908 -0.3365 -0.4362
 5287SOL    HW217025   6.652   7.580   1.352  0.2978 -0.8137 -0.8405
 5288SOL     OW17026   1.469   4.991   4.800  0.1101  0.0133  0.1302
 5288SOL    HW117027   1.429   5.000   4.714 -0.1914  0.9661  0.3555
 5288SOL    HW217028   1.422   4.918   4.841  0.7516 -0.9244 -0.7625
 5289SOL     OW17029   2.175   2.519   3.072 -0.2057  0.1550 -0.0374
 5289SOL    HW117030   2.110   2.565   3.124 -0.9478  0.7395 -1.4270
 5289SOL    HW217031   2.203   2.446   3.127  0.4416  1.7758  1.9136
 5290SOL     OW17032   6.114   5.211   3.488  0.1136  0.1478 -0.0249
 5290SOL    HW117033   6.076   5.299   3.482  1.4692  0.9802  2.0941
 5290SOL    HW217034   6.132   5.200   3.582 -0.0394 -2.4267 -0.2458
 5291SOL     OW17035   5.206   8.563   2.154 -0.9675  0.2290 -0.1640
 5291SOL    HW117036   5.153   8.505   2.208  0.8132  0.1721  1.6423
 5291SOL    HW217037   5.145   8.629   2.122 -2.2074 -0.0317  1.5258
 5292SOL     OW17038   7.444   7.253   4.587  0.5030  0.5752 -0.0559
 5292SOL    HW117039   7.529   7.293   4.571 -0.3910  2.2511 -0.8798
 5292SOL    HW217040   7.454   7.208   4.671  2.6227 -0.5828 -0.8649
 5293SOL     OW17041   4.540   4.386   4.838  0.3622 -0.4095  0.6326
 5293SOL    HW117042   4.478   4.401   4.910 -0.2729 -0.5226  0.1185
 5293SOL    HW217043   4.579   4.301   4.858  0.7868 -0.0805  1.2620
 5294SOL     OW17044   2.546   5.411   6.263 -0.3105 -0.7275  0.4009
 5294SOL    HW117045   2.505   5.490   6.228  0.2151 -0.2399  0.8842
 5294SOL    HW217046   2.547   5.423   6.358 -0.8414 -1.6204  0.5396
 5295SOL     OW17047   3.102   0.021   3.493 -0.2166 -0.2309  0.6903
 5295SOL    HW117048   3.086  -0.073   3.492 -1.1492 -0.0730 -0.2344
 5295SOL    HW217049   3.194   0.030   3.470 -0.2333 -0.8989  0.3440
 5296SOL     OW17050   0.035   1.828   6.358  0.3617 -0.2592  0.2377
 5296SOL    HW117051  -0.000   1.890   6.421  0.3393 -0.3177  0.2827
 5296SOL    HW217052   0.015   1.866   6.273 -2.0664 -1.5050  0.1861
 5297SOL     OW17053   3.642   8.067   0.287  0.6873 -0.0860 -0.1266
 5297SOL    HW117054   3.711   8.056   0.222 -0.8040 -0.5727 -1.6952
 5297SOL    HW217055   3.687   8.059   0.371  2.8270  1.5112 -1.0372
 5298SOL     OW17056   4.300   1.038   0.307 -0.1735 -0.2965  0.1493
 5298SOL    HW117057   4.272   0.964   0.253  0.6575  0.6615 -1.6866
 5298SOL    HW217058   4.275   1.115   0.257  0.9335  0.6365  0.9740
 5299SOL     OW17059   1.983   6.946   4.719 -0.5955 -0.2487 -0.2995
 5299SOL    HW117060   1.896   6.984   4.710 -0.0636  1.0533 -0.1174
 5299SOL    HW217061   1.995   6.935   4.814 -0.6152 -0.5408 -0.3315
 5300SOL     OW17062   8.489   5.807   3.585  0.1249  0.4239  0.4574
 5300SOL    HW117063   8.570   5.776   3.546 -1.5230 -2.3232 -1.0915
 5300SOL    HW217064   8.452   5.866   3.519  0.0172  0.2796  0.3894
 5301SOL     OW17065   6.836   2.454   4.441  1.1970  0.4019 -0.2383
 5301SOL    HW117066   6.787   2.537   4.448 -0.3302 -0.3911 -1.0283
 5301SOL    HW217067   6.770   2.390   4.414  2.6682 -0.7716 -1.1739
 5302SOL     OW17068   5.658   0.804   4.157 -0.2089  0.2605  0.0846
 5302SOL    HW117069   5.577   0.783   4.110 -0.7054 -1.7486  1.7313
 5302SOL    HW217070   5.723   0.817   4.088 -1.4833  0.0012 -1.2112
 5303SOL     OW17071   1.760   2.055   2.280  0.7650 -0.0503 -0.4627
 5303SOL    HW117072   1.767   2.141   2.240  0.5668  0.5017  0.6611
 5303SOL    HW217073   1.850   2.023   2.285  0.8605  0.1828 -0.6671
 5304SOL     OW17074   4.770   0.146   2.185  0.4752 -0.0488  0.4780
 5304SOL    HW117075   4.779   0.142   2.280  1.4679 -3.7329  0.3663
 5304SOL    HW217076   4.686   0.103   2.167  0.9080 -0.5969 -0.3246
 5305SOL     OW17077   5.861   2.417   0.550 -0.9816 -0.3076 -0.1893
 5305SOL    HW117078   5.871   2.387   0.640 -0.4572 -0.0671 -0.1600
 5305SOL    HW217079   5.779   2.466   0.549 -0.8972 -0.1574  0.2018
 5306SOL     OW17080   6.835   2.059   0.131  0.5172  0.5851 -0.0438
 5306SOL    HW117081   6.871   2.146   0.117  2.0895  0.1391  0.9622
 5306SOL    HW217082   6.911   2.001   0.128 -0.5692 -0.8497 -1.3170
 5307SOL     OW17083   8.030   2.482   5.442 -0.6707  0.3274 -0.7020
 5307SOL    HW117084   8.035   2.489   5.347 -3.6821 -1.8854 -1.1432
 5307SOL    HW217085   7.976   2.556   5.469 -0.5622  0.4482 -0.8163
 5308SOL     OW17086   7.203   7.536   0.322  0.5826  0.4350  0.0252
 5308SOL    HW117087   7.219   7.476   0.248 -0.7659 -0.0566  0.1028
 5308SOL    HW217088   7.184   7.478   0.396  0.1411  0.9531  0.3203
 5309SOL     OW17089   2.322   1.480   4.908  0.6234 -0.4663 -0.9865
 5309SOL    HW117090   2.341   1.573   4.923 -2.1763  0.2645 -1.5283
 5309SOL    HW217091   2.381   1.435   4.969  0.9822  1.7138  0.4214
 5310SOL     OW17092   4.813   6.928   2.898  0.1191  0.1324 -0.0512
 5310SOL    HW117093   4.745   6.978   2.853 -0.9176 -1.1736 -0.0187
 5310SOL    HW217094   4.791   6.934   2.990  1.0603  1.1044  0.1341
 5311SOL     OW17095   7.472   7.512   2.327  0.2519  0.5996  0.7765
 5311SOL    HW117096   7.388   7.479   2.360  0.2712 -0.2058  0.0536
 5311SOL    HW217097   7.466   7.607   2.339 -1.7360  0.8326 -1.3350
 5312SOL     OW17098   4.622   7.055   8.151 -0.2454 -0.4641  0.2089
 5312SOL    HW117099   4.692   6.994   8.129 -0.9390 -1.5376  0.8752
 5312SOL    HW217100   4.593   7.089   8.067  0.4307 -0.7406 -0.1468
 5313SOL     OW17101   5.999   4.672   0.977 -0.6530  0.2216 -0.6363
 5313SOL    HW117102   6.052   4.613   1.031  1.9177  1.3565 -1.7086
 5313SOL    HW217103   5.955   4.615   0.915 -3.0901 -1.0484  2.0150
 5314SOL     OW17104   4.397   5.894   4.228  0.0611  0.4922 -0.3157
 5314SOL    HW117105   4.487   5.915   4.254 -0.4163  0.5558  1.4367
 5314SOL    HW217106   4.369   5.967   4.174  0.6378  1.1282  0.2329
 5315SOL     OW17107   6.674   7.869   8.845  0.3906  0.2174  0.1163
 5315SOL    HW117108   6.586   7.890   8.877  0.6847  0.8118  0.5548
 5315SOL    HW217109   6.732   7.900   8.914  0.9639  0.1089 -0.3148
 5316SOL     OW17110   2.183   4.149   5.222  0.2202 -0.1239  0.0675
 5316SOL    HW117111   2.183   4.210   5.149  0.5637 -1.2418 -0.9018
 5316SOL    HW217112   2.111   4.089   5.202 -0.4711  0.2651  1.2811
 5317SOL     OW17113   7.191   7.038   8.631 -0.3190  0.7530  0.2125
 5317SOL    HW117114   7.232   7.057   8.547  0.3102 -0.1754  0.2952
 5317SOL    HW217115   7.190   7.122   8.677 -1.1003  1.3638 -0.8912
 5318SOL     OW17116   8.725   7.924   1.352  0.2385  0.2239  0.4086
 5318SOL    HW117117   8.698   7.955   1.266 -0.3260  1.2214  0.9226
 5318SOL    HW217118   8.812   7.887   1.338 -0.3898 -0.8541 -0.8305
 5319SOL     OW17119   3.006   7.572   1.688  0.2024  0.7721 -0.8528
 5319SOL    HW117120   2.917   7.571   1.652 -0.8462  1.3514  1.5029
 5319SOL    HW217121   3.056   7.624   1.626 -0.4418 -1.4996 -3.4885
 5320SOL     OW17122   0.877   7.217   1.748  0.5679  0.1543  0.1596
 5320SOL    HW117123   0.846   7.234   1.837 -1.1396 -1.1233 -0.1363
 5320SOL    HW217124   0.858   7.298   1.700 -1.1392 -0.1048  0.3273
 5321SOL     OW17125   1.453   0.508   0.722  0.5523 -0.5659 -0.3030
 5321SOL    HW117126   1.372   0.531   0.767  1.2240 -0.5575  0.9536
 5321SOL    HW217127   1.512   0.581   0.739  0.9072 -0.6813 -0.9945
 5322SOL     OW17128   5.044   5.088   1.639  0.3976  0.5824  0.5775
 5322SOL    HW117129   5.079   5.018   1.694  1.4372  0.6918  0.0876
 5322SOL    HW217130   4.964   5.051   1.600  0.0924  0.2277  1.5250
 5323SOL     OW17131   4.473   0.806   1.054  0.4526 -0.0643 -0.5127
 5323SOL    HW117132   4.422   0.881   1.086  0.2280 -0.2733 -0.3813
 5323SOL    HW217133   4.547   0.800   1.115  0.7939  0.4209 -0.8767
 5324SOL     OW17134   0.047   7.130   5.626  0.7890  0.1270 -0.1296
 5324SOL    HW117135   0.024   7.207   5.573  0.2928 -0.6845 -1.1237
 5324SOL    HW217136  -0.036   7.084   5.638  1.5398 -2.0202 -2.4214
 5325SOL     OW17137   1.922   2.839   5.972 -0.0843  0.1405 -0.5578
 5325SOL    HW117138   1.953   2.749   5.984  0.1440  0.2579 -0.2615
 5325SOL    HW217139   1.929   2.854   5.878  1.2695  0.3457 -0.4453
 5326SOL     OW17140   7.038   8.467   0.583 -0.0696 -0.3243  0.0767
 5326SOL    HW117141   7.051   8.373   0.570  0.4078 -0.1529 -0.7600
 5326SOL    HW217142   7.018   8.476   0.676  1.1865 -1.1296  0.4554
 5327SOL     OW17143   1.961   1.325   2.455 -0.2756  0.4948  0.4533
 5327SOL    HW117144   1.937   1.418   2.459 -0.4333  0.4419  0.7749
 5327SOL    HW217145   1.895   1.281   2.509  0.2922  0.2966  1.0101
 5328SOL     OW17146   8.723   6.331   7.516 -0.0333 -0.4818  0.0654
 5328SOL    HW117147   8.705   6.424   7.534  0.2367 -0.6121  1.1130
 5328SOL    HW217148   8.797   6.310   7.573 -0.4662 -1.4957  0.2748
 5329SOL     OW17149   2.518   4.936   8.277  0.1644 -0.5219  0.6661
 5329SOL    HW117150   2.458   4.998   8.320 -0.5883  0.9465 -2.2418
 5329SOL    HW217151   2.602   4.982   8.275 -0.3280  0.4049 -1.2416
 5330SOL     OW17152   8.631   6.174   3.328 -0.5874 -0.1682  0.2791
 5330SOL    HW117153   8.689   6.200   3.257  0.1484  0.0527  0.9446
 5330SOL    HW217154   8.546   6.160   3.286 -0.7692  2.2073 -0.3163
 5331SOL     OW17155   6.327   8.407   3.361  0.1365 -0.0861  0.1173
 5331SOL    HW117156   6.252   8.466   3.360 -0.2077 -0.5131  0.3937
 5331SOL    HW217157   6.403   8.465   3.359 -0.1828  0.3216 -1.6498
 5332SOL     OW17158   1.710   4.320   5.409  0.2982 -0.1245  0.2395
 5332SOL    HW117159   1.749   4.290   5.491 -0.6812  0.4044  0.9189
 5332SOL    HW217160   1.732   4.413   5.404 -0.2201  0.0003  0.2476
 5333SOL     OW17161   5.846   7.419   5.330 -0.4884 -0.6089 -0.2847
 5333SOL    HW117162   5.862   7.405   5.423  3.2003  0.5836 -0.5611
 5333SOL    HW217163   5.900   7.353   5.286  1.5263  1.6958 -1.4905
 5334SOL     OW17164   4.852   5.011   6.625  0.3462  0.2872  0.0442
 5334SOL    HW117165   4.766   5.028   6.586  0.6479  0.0376 -0.7435
 5334SOL    HW217166   4.847   5.051   6.712 -0.5940  0.1947  0.0408
 5335SOL     OW17167   3.301   2.504   4.950 -0.3671  0.0105 -0.4587
 5335SOL    HW117168   3.216   2.461   4.949 -0.6567  0.3947  1.7710
 5335SOL    HW217169   3.312   2.534   5.041  2.7514 -1.2684 -0.2724
 5336SOL     OW17170   7.794   0.099   0.270 -0.0043 -0.5388  0.1893
 5336SOL    HW117171   7.745   0.168   0.314 -1.8373 -0.9964 -0.9891
 5336SOL    HW217172   7.850   0.061   0.338  0.0108  1.1657  1.1774
 5337SOL     OW17173   4.188   8.147   2.421  0.3897  0.1078  0.1368
 5337SOL    HW117174   4.283   8.155   2.423  0.3101  1.0705  0.6108
 5337SOL    HW217175   4.158   8.192   2.500 -0.4446 -0.4211  0.1368
 5338SOL     OW17176   7.593   7.516   8.589 -0.3144 -0.3388  0.0269
 5338SOL    HW117177   7.650   7.470   8.528 -0.5685  1.6831 -1.8822
 5338SOL    HW217178   7.515   7.537   8.538 -0.5935  1.3243  1.0623
 5339SOL     OW17179   1.313   3.735   8.343  0.5060  0.0364 -0.1366
 5339SOL    HW117180   1.319   3.768   8.253 -0.8111 -0.4651 -0.4264
 5339SOL    HW217181   1.260   3.801   8.389  1.0434  0.2122  0.2385
 5340SOL     OW17182   8.595   7.093   8.298  0.2737 -0.5236 -0.0774
 5340SOL    HW117183   8.684   7.075   8.328  0.9406 -0.8970 -2.1404
 5340SOL    HW217184   8.589   7.188   8.295  0.3938 -0.4869  0.5856
 5341SOL     OW17185   8.558   0.429   5.514 -0.4135  0.0486  0.6218
 5341SOL    HW117186   8.507   0.486   5.456 -0.3830 -1.4521 -0.9411
 5341SOL    HW217187   8.512   0.434   5.598 -0.7602  1.8539  0.3783
 5342SOL     OW17188   1.516   1.049   6.962  0.1040  0.8676 -0.4184
 5342SOL    HW117189   1.449   1.111   6.989  0.4876  1.4301 -0.7436
 5342SOL    HW217190   1.530   0.994   7.039 -2.3048 -0.7226 -1.0000
 5343SOL     OW17191   6.746   1.134   5.273 -0.2197  0.5077 -0.1319
 5343SOL    HW117192   6.765   1.176   5.190  0.8154  0.2465 -0.0420
 5343SOL    HW217193   6.728   1.043   5.251  0.7318  0.2770 -0.0268
 5344SOL     OW17194   4.375   8.494   5.102 -0.0815  0.2009  0.7363
 5344SOL    HW117195   4.282   8.517   5.094 -1.1522 -3.7492 -0.5294
 5344SOL    HW217196   4.388   8.479   5.196 -0.6094  1.0788  0.9614
 5345SOL     OW17197   5.440   1.190   4.306 -0.7865 -0.5189  0.0279
 5345SOL    HW117198   5.503   1.258   4.331 -0.1360 -1.2462  0.3856
 5345SOL    HW217199   5.464   1.114   4.358 -0.5009 -1.5377 -1.5193
 5346SOL     OW17200   8.292   5.347   2.022 -0.5150  0.5437 -0.2231
 5346SOL    HW117201   8.316   5.257   2.041 -1.2162  0.4194  0.1183
 5346SOL    HW217202   8.239   5.342   1.942  1.7466  0.9760 -1.8291
 5347SOL     OW17203   7.848   5.031   1.133  0.0902 -0.2519 -0.1591
 5347SOL    HW117204   7.845   5.113   1.083  0.0803  0.2041  0.5686
 5347SOL    HW217205   7.934   5.033   1.175 -1.0661  0.9359  2.3731
 5348SOL     OW17206   5.955   4.331   3.296 -0.1520  0.5028  0.0703
 5348SOL    HW117207   6.006   4.407   3.327  0.5154  0.3923 -0.7266
 5348SOL    HW217208   6.019   4.261   3.289 -0.3587  0.4142 -1.1467
 5349SOL     OW17209   6.622   7.430   0.519  0.0576 -0.2180 -0.0455
 5349SOL    HW117210   6.687   7.473   0.464  2.0666 -0.1415  2.2165
 5349SOL    HW217211   6.673   7.368   0.572 -1.7821 -0.4562  1.5499
 5350SOL     OW17212   3.079   4.144   1.321 -0.5939  0.2397  0.0621
 5350SOL    HW117213   3.115   4.231   1.308  0.4734 -0.1236  0.5020
 5350SOL    HW217214   3.152   4.085   1.303 -0.6018 -0.4775  2.1064
 5351SOL     OW17215   5.525   8.259   1.606 -0.1535  0.1528 -0.0470
 5351SOL    HW117216   5.457   8.268   1.673  0.4398  0.3284  0.5494
 5351SOL    HW217217   5.607   8.274   1.654  0.3568 -0.7925 -0.5937
 5352SOL     OW17218   5.923   8.612   0.298  0.2542  0.0665 -0.4770
 5352SOL    HW117219   5.832   8.592   0.319  0.9297 -0.3022  2.7813
 5352SOL    HW217220   5.950   8.542   0.239 -1.7597  0.6960 -2.2438
 5353SOL     OW17221   7.964   8.574   8.022 -0.4178 -0.3281 -0.3155
 5353SOL    HW117222   7.986   8.605   8.110 -1.1725  0.3229 -0.3502
 5353SOL    HW217223   7.982   8.649   7.965 -3.0741  0.4338 -0.2963
 5354SOL     OW17224   0.511   1.193   6.018  0.3601 -0.2134 -0.0825
 5354SOL    HW117225   0.427   1.218   5.978  0.6623  0.1161 -0.5268
 5354SOL    HW217226   0.536   1.269   6.070 -0.4673 -0.9813  1.4869
 5355SOL     OW17227   0.948   3.178   5.180  0.2269 -0.9530  0.6341
 5355SOL    HW117228   0.969   3.229   5.257  0.4107  1.5808 -0.9759
 5355SOL    HW217229   0.852   3.173   5.179  0.2241 -0.9735  0.9819
 5356SOL     OW17230   7.206   0.196   5.027 -0.0306  0.1061  0.2321
 5356SOL    HW117231   7.164   0.208   5.113  1.5508  0.6065  0.9709
 5356SOL    HW217232   7.211   0.101   5.016 -0.4795  0.0397  0.5778
 5357SOL     OW17233   6.079   2.767   7.766  0.7407 -0.2290  0.2521
 5357SOL    HW117234   6.097   2.856   7.736  1.4887 -0.0267  1.2679
 5357SOL    HW217235   6.073   2.715   7.685 -0.6866  0.8987 -0.4108
 5358SOL     OW17236   2.138   0.936   7.150 -0.3478 -0.0523 -0.1942
 5358SOL    HW117237   2.200   0.983   7.093 -1.7475  1.5527 -0.4485
 5358SOL    HW217238   2.194   0.894   7.216  1.1114  0.1790 -1.2341
 5359SOL     OW17239   6.162   4.480   8.345 -0.1659  0.2923 -0.2980
 5359SOL    HW117240   6.156   4.522   8.431  1.6951  1.5976 -0.7475
 5359SOL    HW217241   6.188   4.551   8.286  2.2208 -1.2754 -1.2660
 5360SOL     OW17242   5.563   6.611   7.974 -0.1725  0.0011  0.0871
 5360SOL    HW117243   5.509   6.553   7.920  0.5145 -1.1448  0.5751
 5360SOL    HW217244   5.514   6.623   8.055  0.4768 -1.4623  0.7423
 5361SOL     OW17245   7.605   1.242   7.281 -0.1055  0.0090 -0.1353
 5361SOL    HW117246   7.535   1.303   7.260 -1.4223 -1.2022  0.5361
 5361SOL    HW217247   7.641   1.275   7.364 -0.8029 -0.1072  0.2219
 5362SOL     OW17248   0.647   4.054   8.561 -0.0881 -0.3827  0.2679
 5362SOL    HW117249   0.653   4.004   8.643  1.5071 -0.6750  0.0122
 5362SOL    HW217250   0.701   4.131   8.577  1.0754 -0.9359 -0.8198
 5363SOL     OW17251   2.297   4.402   1.729  0.1947  0.6013  0.3607
 5363SOL    HW117252   2.323   4.375   1.641  0.3703  0.4929  0.4455
 5363SOL    HW217253   2.295   4.321   1.780 -2.6738  0.1866 -0.2125
 5364SOL     OW17254   5.979   3.332   6.217  0.4957  0.1146  0.3162
 5364SOL    HW117255   5.908   3.268   6.217  0.8521 -0.2896  0.3286
 5364SOL    HW217256   5.996   3.349   6.310  1.1545 -0.6321  0.3391
 5365SOL     OW17257   4.299   6.772   8.157  0.2659 -0.4268  0.3814
 5365SOL    HW117258   4.322   6.840   8.220 -0.6256  1.3268 -1.1051
 5365SOL    HW217259   4.256   6.704   8.210  1.8519 -0.2464  1.9995
 5366SOL     OW17260   5.535   2.521   2.783 -0.1566 -0.4858 -0.2288
 5366SOL    HW117261   5.464   2.559   2.835 -0.3769  0.8313 -1.4350
 5366SOL    HW217262   5.615   2.550   2.827 -0.3399  0.7870 -0.6915
 5367SOL     OW17263   4.132   7.236   1.158  0.1234  0.4915  0.0252
 5367SOL    HW117264   4.199   7.171   1.138 -0.7446 -0.0575 -1.2587
 5367SOL    HW217265   4.175   7.299   1.214  1.4091 -0.4166  0.0906
 5368SOL     OW17266   6.782   2.247   7.104 -0.3873  0.2654  0.2183
 5368SOL    HW117267   6.698   2.293   7.106 -0.0284  0.9737 -0.4929
 5368SOL    HW217268   6.844   2.313   7.073 -0.1350 -1.1184 -2.4526
 5369SOL     OW17269   1.472   4.386   1.534  0.9233 -0.0953 -0.0698
 5369SOL    HW117270   1.445   4.295   1.551 -2.9198  0.7277 -0.8567
 5369SOL    HW217271   1.446   4.402   1.443 -1.4010  2.5777  0.9055
 5370SOL     OW17272   1.862   8.046   3.932 -0.1494 -0.3909  0.1067
 5370SOL    HW117273   1.913   7.973   3.969 -0.2497  0.0244  1.0827
 5370SOL    HW217274   1.818   8.085   4.007  1.3371  1.8375 -0.0755
 5371SOL     OW17275   4.654   7.365   5.314  0.4046 -0.6167  0.3636
 5371SOL    HW117276   4.721   7.388   5.249 -0.7700  0.5383 -0.4828
 5371SOL    HW217277   4.574   7.354   5.263 -0.4979  0.1080  1.5882
 5372SOL     OW17278   6.317   3.289   0.248 -0.7284 -0.3870 -0.5051
 5372SOL    HW117279   6.375   3.216   0.271 -0.2191  0.1670 -0.0184
 5372SOL    HW217280   6.298   3.275   0.155 -2.4686 -2.4096  0.0683
 5373SOL     OW17281   7.510   5.556   8.047 -0.0171  0.1768 -0.4833
 5373SOL    HW117282   7.422   5.518   8.042 -0.3228  0.4058  1.8267
 5373SOL    HW217283   7.557   5.498   8.106  0.5969  1.4027  0.2730
 5374SOL     OW17284   5.907   2.771   2.295 -0.0711 -0.1675 -0.9708
 5374SOL    HW117285   5.836   2.795   2.355 -1.3152  0.8645 -2.7844
 5374SOL    HW217286   5.960   2.708   2.345 -0.6927  1.0734  1.4111
 5375SOL     OW17287   2.980   4.488   6.792  0.8004 -0.1241 -0.6922
 5375SOL    HW117288   2.999   4.534   6.710 -0.3771  2.0524  0.1773
 5375SOL    HW217289   2.885   4.490   6.799  0.6611 -2.9060 -0.6364
 5376SOL     OW17290   5.930   4.755   4.287  0.5176  0.0035 -0.5183
 5376SOL    HW117291   5.932   4.820   4.217  0.3209 -1.6205 -2.1280
 5376SOL    HW217292   6.011   4.769   4.336  0.0605  1.9905 -0.2683
 5377SOL     OW17293   7.773   2.950   1.882 -0.1081  0.0411  0.1473
 5377SOL    HW117294   7.815   2.933   1.797 -1.1117  0.7644 -0.5159
 5377SOL    HW217295   7.844   2.980   1.938  0.6653 -0.9094 -0.2770
 5378SOL     OW17296   1.532   7.587   0.161  0.3871 -0.3132  0.4109
 5378SOL    HW117297   1.515   7.595   0.255 -4.3485  0.9251 -0.3054
 5378SOL    HW217298   1.518   7.675   0.126  1.5938 -0.8370 -1.5718
 5379SOL     OW17299   6.801   0.467   6.160  0.4064  0.2361  0.1511
 5379SOL    HW117300   6.732   0.521   6.197 -0.4925  0.1840 -1.3714
 5379SOL    HW217301   6.882   0.509   6.188 -0.2683  2.1474 -0.6016
 5380SOL     OW17302   4.327   3.985   0.826 -0.1178  0.4165 -0.2297
 5380SOL    HW117303   4.300   3.937   0.905  1.0133  3.3969  2.1660
 5380SOL    HW217304   4.396   3.931   0.788 -0.0257 -0.6663  1.3581
 5381SOL     OW17305   3.521   7.655   2.129 -0.1330  0.2137 -0.0133
 5381SOL    HW117306   3.598   7.705   2.157 -0.3667  0.4180  0.2759
 5381SOL    HW217307   3.525   7.574   2.180  1.0345 -0.7325 -1.5257
 5382SOL     OW17308   6.565   5.364   7.132 -0.1113 -0.3107 -0.0458
 5382SOL    HW117309   6.548   5.381   7.039 -2.1444 -0.9650  0.1649
 5382SOL    HW217310   6.556   5.450   7.173 -1.5069 -0.3707 -0.1757
 5383SOL     OW17311   0.243   4.546   3.582  0.3138  0.0538  0.2716
 5383SOL    HW117312   0.339   4.540   3.575  0.2720 -1.3460  0.5602
 5383SOL    HW217313   0.216   4.458   3.610 -0.9581  0.7791  1.4222
 5384SOL     OW17314   2.351   5.202   8.234  0.4489  0.4870  0.2284
 5384SOL    HW117315   2.284   5.248   8.184 -0.7588 -0.7130  0.6802
 5384SOL    HW217316   2.326   5.214   8.325 -1.0388 -2.5352  0.3571
 5385SOL     OW17317   6.659   6.140   2.060  0.4167 -0.7151  0.2468
 5385SOL    HW117318   6.699   6.085   2.128 -0.2816  0.5583  1.7533
 5385SOL    HW217319   6.721   6.211   2.047 -0.1813 -0.0911  0.7466
 5386SOL     OW17320   3.795   4.431   4.482 -0.4783  0.8103 -0.5444
 5386SOL    HW117321   3.793   4.517   4.440 -1.4052  1.0370 -0.0738
 5386SOL    HW217322   3.869   4.435   4.541 -1.5931  1.9928  0.8613
 5387SOL     OW17323   4.274   1.407   6.055  0.1812  0.5037 -0.7840
 5387SOL    HW117324   4.206   1.430   6.118 -1.2260 -2.8237 -0.8892
 5387SOL    HW217325   4.351   1.387   6.109  0.6845  2.7744 -0.5670
 5388SOL     OW17326   2.854   6.583   4.237 -0.2099  0.2486 -0.2811
 5388SOL    HW117327   2.943   6.574   4.202  1.0662 -1.2666  2.9194
 5388SOL    HW217328   2.866   6.630   4.320 -2.2626 -0.5735  0.5506
 5389SOL     OW17329   3.831   6.232   8.646 -0.1710 -0.0277 -0.3404
 5389SOL    HW117330   3.851   6.307   8.702 -0.8912 -1.0394  1.3725
 5389SOL    HW217331   3.737   6.240   8.629 -0.5599 -1.2160  1.0148
 5390SOL     OW17332   4.739   5.031   6.272  0.3988  0.4718  0.1470
 5390SOL    HW117333   4.718   5.124   6.263 -1.0720  0.3059  1.5042
 5390SOL    HW217334   4.655   4.986   6.266  1.2135 -0.9449 -1.8651
 5391SOL     OW17335   0.467   0.705   6.066  0.1138  0.0649  0.4823
 5391SOL    HW117336   0.409   0.654   6.123  0.4194 -0.9889 -0.1166
 5391SOL    HW217337   0.495   0.779   6.120 -0.3218 -0.4130  1.3889
 5392SOL     OW17338   2.908   0.467   1.662  0.2334  0.1891  0.0030
 5392SOL    HW117339   2.841   0.532   1.684  0.8749  0.5555  0.9561
 5392SOL    HW217340   2.897   0.398   1.728  0.8814  0.3267  0.2649
 5393SOL     OW17341   1.295   4.379   8.503 -0.4806 -0.3832  0.5789
 5393SOL    HW117342   1.263   4.454   8.553 -0.7565  0.2282 -0.4737
 5393SOL    HW217343   1.366   4.415   8.449 -0.1707 -1.0310  0.5494
 5394SOL     OW17344   1.964   4.032   1.605 -0.1596  0.2137 -0.6284
 5394SOL    HW117345   1.937   4.122   1.619 -3.1991 -0.9278  2.0886
 5394SOL    HW217346   2.036   4.019   1.667 -1.6376  0.1304  1.1956
 5395SOL     OW17347   7.306   4.102   1.913 -0.4861 -0.3972 -0.5494
 5395SOL    HW117348   7.249   4.151   1.853  0.8589  1.0379 -0.7366
 5395SOL    HW217349   7.389   4.095   1.866 -0.2932 -1.8816 -0.0221
 5396SOL     OW17350   3.660   5.291   0.868  0.5785  0.1246  0.3721
 5396SOL    HW117351   3.654   5.280   0.963  1.8866  1.2838  0.6082
 5396SOL    HW217352   3.731   5.232   0.842 -0.0732 -0.5242  0.0373
 5397SOL     OW17353   8.799   7.294   2.949 -0.7250 -0.3154  0.3699
 5397SOL    HW117354   8.768   7.304   3.039 -0.3402 -0.9797  0.5823
 5397SOL    HW217355   8.867   7.227   2.955  0.2445  0.5982 -0.1976
 5398SOL     OW17356   5.859   5.897   3.685  0.9137 -0.0838 -0.4474
 5398SOL    HW117357   5.830   5.807   3.702  2.0817 -0.9672 -2.6847
 5398SOL    HW217358   5.955   5.891   3.681  1.1086  1.5521  0.6752
 5399SOL     OW17359   7.929   4.652   5.553  0.4723  0.0641  0.1781
 5399SOL    HW117360   8.005   4.659   5.495 -1.0740  0.1917 -1.9267
 5399SOL    HW217361   7.888   4.569   5.530  0.5538 -0.5398  2.0761
 5400SOL     OW17362   2.874   6.499   3.895 -0.1807  0.1669  0.4588
 5400SOL    HW117363   2.794   6.491   3.844 -1.1314 -0.6070  2.0061
 5400SOL    HW217364   2.850   6.554   3.970 -0.0011 -2.0326  2.2458
 5401SOL     OW17365   8.611   8.786   4.798 -0.3768  0.4144  0.1613
 5401SOL    HW117366   8.628   8.880   4.801  0.0898  0.4718 -2.1251
 5401SOL    HW217367   8.560   8.774   4.717  0.2349 -1.3791 -0.0054
 5402SOL     OW17368   6.518   3.936   5.227  0.4054 -0.4572 -0.0746
 5402SOL    HW117369   6.519   4.024   5.265  1.1564 -0.2145 -0.6332
 5402SOL    HW217370   6.554   3.880   5.296  0.4340 -0.2372  0.0908
 5403SOL     OW17371   0.646   2.853   7.636  0.7935 -0.7654  0.1118
 5403SOL    HW117372   0.690   2.848   7.551  1.6614 -0.7403  0.5472
 5403SOL    HW217373   0.717   2.865   7.699  0.0158  2.1457  0.5915
 5404SOL     OW17374   3.792   8.070   0.533  0.0794 -0.1608  0.0567
 5404SOL    HW117375   3.837   7.990   0.562 -1.8994 -0.9522  1.1352
 5404SOL    HW217376   3.794   8.128   0.610 -0.2951 -0.0059 -0.0479
 5405SOL     OW17377   4.675   5.410   5.944  0.4469  0.3659  0.2560
 5405SOL    HW117378   4.669   5.378   5.854 -0.9659  1.9617 -0.2677
 5405SOL    HW217379   4.628   5.345   5.996 -1.2914  0.8827 -0.6058
 5406SOL     OW17380   7.405   3.248   3.934  0.5073  0.1233 -0.1251
 5406SOL    HW117381   7.454   3.182   3.885  0.1719 -0.2138 -0.0160
 5406SOL    HW217382   7.467   3.283   3.997  0.7642  0.1072 -0.3685
 5407SOL     OW17383   8.856   3.268   5.227  0.7383  0.0848  0.1295
 5407SOL    HW117384   8.878   3.186   5.184  0.8058 -0.0851  0.4792
 5407SOL    HW217385   8.898   3.262   5.313 -2.5808 -1.3362  1.8483
 5408SOL     OW17386   1.461   3.392   1.035 -0.8089  0.4336  0.2798
 5408SOL    HW117387   1.430   3.479   1.059 -2.6645 -0.2791  0.6215
 5408SOL    HW217388   1.486   3.352   1.118 -0.1872  0.5498  0.1504
 5409SOL     OW17389   7.644   2.335   3.442  0.3188 -0.2599  0.1947
 5409SOL    HW117390   7.601   2.384   3.512 -2.6193 -1.9824 -0.2301
 5409SOL    HW217391   7.637   2.392   3.366  0.1785  0.1278  0.4902
 5410SOL     OW17392   7.561   0.073   8.181 -0.2825 -0.6447  0.0612
 5410SOL    HW117393   7.624   0.002   8.185 -1.6335 -1.9766 -1.0884
 5410SOL    HW217394   7.476   0.030   8.168 -1.3132  1.1177  0.5306
 5411SOL     OW17395   1.812   1.395   3.448  0.2475  0.2184  0.5032
 5411SOL    HW117396   1.869   1.339   3.500  1.0832  1.0070  0.4681
 5411SOL    HW217397   1.872   1.452   3.400 -0.5687  0.9873  0.3698
 5412SOL     OW17398   4.773   6.808   7.282 -0.1111 -0.1276 -0.5722
 5412SOL    HW117399   4.784   6.815   7.187  1.8579 -1.8897 -0.5489
 5412SOL    HW217400   4.863   6.806   7.316 -0.7145 -2.0200  1.0713
 5413SOL     OW17401   0.064   4.875   7.791 -0.5866 -0.3505 -0.3275
 5413SOL    HW117402   0.150   4.864   7.752  1.0168  1.5509  2.3736
 5413SOL    HW217403   0.018   4.933   7.730  0.9334  0.5792 -0.6448
 5414SOL     OW17404   7.086   0.826   2.438 -0.2447 -0.3293  0.2638
 5414SOL    HW117405   7.165   0.774   2.433 -1.1470 -1.8603  1.1084
 5414SOL    HW217406   7.058   0.818   2.530 -0.1585  2.0768  0.5590
 5415SOL     OW17407   0.331   2.320   6.299  0.3723 -0.6184 -0.4043
 5415SOL    HW117408   0.344   2.226   6.303  1.2822 -0.4707  0.7987
 5415SOL    HW217409   0.309   2.345   6.388 -2.0097  0.0559 -1.1219
 5416SOL     OW17410   1.960   8.759   6.837  0.1913 -0.0919  0.2926
 5416SOL    HW117411   1.947   8.723   6.750 -0.6570 -3.4710  1.6500
 5416SOL    HW217412   1.876   8.798   6.861 -0.5271 -1.7180  0.5837
 5417SOL     OW17413   7.005   2.037   7.136  0.0496 -0.1753  0.3436
 5417SOL    HW117414   6.977   2.119   7.177 -0.8246 -0.1939 -0.1934
 5417SOL    HW217415   7.008   1.974   7.207 -0.6032  0.0030  0.5338
 5418SOL     OW17416   2.115   7.258   5.861 -0.0209 -0.3383  0.0706
 5418SOL    HW117417   2.181   7.288   5.923 -0.0055 -0.6043  0.1837
 5418SOL    HW217418   2.044   7.322   5.868 -0.9910 -1.5252  1.9742
 5419SOL     OW17419   4.570   1.386   1.686 -0.5220  0.3077 -0.2390
 5419SOL    HW117420   4.611   1.473   1.691 -0.5657  0.3034  0.3746
 5419SOL    HW217421   4.625   1.336   1.627  0.6272  0.1580  0.9242
 5420SOL     OW17422   7.020   7.494   5.566  0.4850 -0.3832 -0.2997
 5420SOL    HW117423   6.965   7.426   5.605 -0.1286 -0.5773 -1.4481
 5420SOL    HW217424   7.019   7.565   5.630 -0.4200 -0.7161  0.0709
 5421SOL     OW17425   5.359   4.112   5.553  0.2072  0.1346  0.1593
 5421SOL    HW117426   5.289   4.170   5.582 -0.2537 -0.3128 -0.0347
 5421SOL    HW217427   5.339   4.027   5.593  0.6399 -0.0008  0.1044
 5422SOL     OW17428   4.665   0.173   1.366 -0.7233  0.5633  0.8268
 5422SOL    HW117429   4.629   0.152   1.452 -1.3451  1.0599  0.6961
 5422SOL    HW217430   4.676   0.088   1.323 -1.2277  0.3720  1.0751
 5423SOL     OW17431   4.555   4.901   0.841  0.0811  0.1699 -0.1154
 5423SOL    HW117432   4.579   4.845   0.767 -1.8495 -0.4874 -0.3201
 5423SOL    HW217433   4.600   4.863   0.916 -0.5682 -1.2115 -0.3944
 5424SOL     OW17434   3.071   8.845   1.949 -0.2326 -0.4316  0.5574
 5424SOL    HW117435   3.073   8.756   1.984 -1.1746  0.0628  1.9379
 5424SOL    HW217436   3.113   8.838   1.863  0.6397 -2.0040  1.0743
 5425SOL     OW17437   4.848   2.694   3.189  0.1957 -0.0806 -0.6093
 5425SOL    HW117438   4.793   2.622   3.219 -0.3845  0.7885  0.4891
 5425SOL    HW217439   4.909   2.711   3.261 -1.0523  1.8786  0.0634
 5426SOL     OW17440   6.346   1.632   7.635 -0.0062 -0.4152 -0.6263
 5426SOL    HW117441   6.318   1.720   7.657  0.5729 -0.3198 -0.2514
 5426SOL    HW217442   6.409   1.644   7.564  0.6134 -0.4624 -0.0958
 5427SOL     OW17443   6.221   6.907   4.260 -0.0598  0.5568 -0.2369
 5427SOL    HW117444   6.134   6.905   4.301  0.6819  1.4880  1.4629
 5427SOL    HW217445   6.281   6.882   4.330  1.1720  1.1614 -1.0438
 5428SOL     OW17446   4.687   1.246   4.322  0.1452 -0.2628 -0.3736
 5428SOL    HW117447   4.720   1.189   4.390 -0.0220  0.2441  0.1409
 5428SOL    HW217448   4.692   1.194   4.242  0.4654 -0.8146  0.0020
 5429SOL     OW17449   4.239   1.664   6.540 -0.3055  0.5247 -0.6945
 5429SOL    HW117450   4.266   1.648   6.631  0.8785  0.2421 -1.0744
 5429SOL    HW217451   4.257   1.757   6.526 -1.0439  0.7083 -0.4722
 5430SOL     OW17452   2.140   8.022   6.576  0.2226 -0.0772 -0.2916
 5430SOL    HW117453   2.049   8.000   6.559  0.3529 -0.3351 -0.6619
 5430SOL    HW217454   2.144   8.036   6.671 -0.4728  1.1883 -0.4267
 5431SOL     OW17455   4.993   0.104   2.436  0.2992  0.1251  0.1125
 5431SOL    HW117456   4.912   0.058   2.454 -0.4217  1.3695  0.1207
 5431SOL    HW217457   5.044   0.095   2.517 -0.6432  0.9950  0.8302
 5432SOL     OW17458   8.513   0.489   7.691  0.6147 -0.0406 -0.2554
 5432SOL    HW117459   8.440   0.528   7.642  0.3452  1.2381  1.1008
 5432SOL    HW217460   8.477   0.406   7.724  0.2391 -0.0815 -0.7535
 5433SOL     OW17461   2.470   5.559   2.563 -0.8719 -0.1175 -0.7384
 5433SOL    HW117462   2.391   5.557   2.509 -0.7014 -0.5903 -0.9744
 5433SOL    HW217463   2.535   5.511   2.513  0.0117  1.4957 -1.2075
 5434SOL     OW17464   1.695   5.563   2.940  0.2550 -0.1432  0.0153
 5434SOL    HW117465   1.766   5.611   2.896  0.6054 -0.8334 -0.1958
 5434SOL    HW217466   1.727   5.551   3.029 -0.1421  0.6295  0.2643
 5435SOL     OW17467   1.527   7.148   2.345 -0.3616 -0.3029  0.6052
 5435SOL    HW117468   1.462   7.083   2.373  1.7748 -2.0614  1.8583
 5435SOL    HW217469   1.603   7.130   2.401  1.3251  1.4183 -1.0178
 5436SOL     OW17470   5.233   5.114   2.290 -0.1036 -0.4562  0.3563
 5436SOL    HW117471   5.277   5.030   2.276 -0.1490 -0.6695  1.4060
 5436SOL    HW217472   5.141   5.092   2.299 -0.0933 -0.3142  0.8150
 5437SOL     OW17473   8.374   3.555   3.992 -0.0732 -0.1761  0.8375
 5437SOL    HW117474   8.412   3.472   3.964 -0.2346 -0.3149  1.0267
 5437SOL    HW217475   8.422   3.621   3.942  0.3352 -0.3544  0.9821
 5438SOL     OW17476   6.190   4.303   7.130 -0.2552 -0.1214  0.0902
 5438SOL    HW117477   6.116   4.258   7.171 -0.7702  0.0427 -0.6481
 5438SOL    HW217478   6.155   4.338   7.048  1.0821 -1.6251 -1.1875
 5439SOL     OW17479   3.877   5.463   6.568  0.3644  0.1061  0.1121
 5439SOL    HW117480   3.828   5.383   6.550  0.5103  0.3684 -1.5733
 5439SOL    HW217481   3.952   5.434   6.620  0.6455 -0.9176 -0.8434
 5440SOL     OW17482   5.546   2.168   4.052 -0.1481 -0.1581 -0.0011
 5440SOL    HW117483   5.454   2.188   4.037 -0.9481 -2.2492  1.5491
 5440SOL    HW217484   5.589   2.254   4.059 -2.8136  1.1470  3.6837
 5441SOL     OW17485   1.463   0.912   6.328 -0.1676  0.8031 -0.6316
 5441SOL    HW117486   1.521   0.985   6.349 -1.5785  2.1279 -1.1341
 5441SOL    HW217487   1.484   0.845   6.393 -0.0548  2.3345  0.9749
 5442SOL     OW17488   3.649   6.974   1.018  0.0867  0.4397 -0.3952
 5442SOL    HW117489   3.600   7.042   0.973  0.5232  0.3429 -1.0221
 5442SOL    HW217490   3.652   6.901   0.956 -1.3309 -0.5768  0.6786
 5443SOL     OW17491   0.684   2.567   0.177  0.1555 -0.3315 -0.1070
 5443SOL    HW117492   0.703   2.508   0.104  1.7543  0.0744 -0.0559
 5443SOL    HW217493   0.643   2.511   0.243  0.0912 -1.0263 -0.7238
 5444SOL     OW17494   2.567   8.171   0.340  0.3430 -0.4294  0.4948
 5444SOL    HW117495   2.580   8.266   0.330 -0.5321  0.0446  3.0552
 5444SOL    HW217496   2.652   8.138   0.368  0.2381 -0.0823  1.2539
 5445SOL     OW17497   6.633   2.692   7.511  0.5820 -0.2000  0.4797
 5445SOL    HW117498   6.708   2.675   7.567  0.3892  0.0285  0.8067
 5445SOL    HW217499   6.590   2.768   7.549  0.0435 -0.4747  0.4351
 5446SOL     OW17500   3.145   8.206   8.331  0.6101  0.2994 -0.0150
 5446SOL    HW117501   3.156   8.288   8.282 -1.2974 -0.4066 -1.7360
 5446SOL    HW217502   3.086   8.229   8.402  0.4354  0.5209 -0.2304
 5447SOL     OW17503   4.457   7.407   6.450 -0.0774 -0.6311 -0.0205
 5447SOL    HW117504   4.420   7.494   6.465  1.2494 -0.0109 -0.2203
 5447SOL    HW217505   4.402   7.349   6.503  0.3354  0.6201  1.8812
 5448SOL     OW17506   7.917   1.765   0.617 -0.2155  0.5341  0.3827
 5448SOL    HW117507   7.939   1.759   0.524 -0.3133  0.7239  0.3473
 5448SOL    HW217508   7.833   1.720   0.624 -0.1810  0.4705  0.3892
 5449SOL     OW17509   7.591   4.287   6.288 -0.2945 -0.2274  0.4012
 5449SOL    HW117510   7.525   4.303   6.355 -0.8188 -3.0756  0.7008
 5449SOL    HW217511   7.674   4.303   6.332 -0.6850 -0.5569  1.2751
 5450SOL     OW17512   0.883   6.571   0.641 -0.1238  0.0346 -0.1340
 5450SOL    HW117513   0.848   6.526   0.564  1.2766 -0.9937 -0.2148
 5450SOL    HW217514   0.813   6.567   0.706 -0.7691 -0.4250 -0.8409
 5451SOL     OW17515   0.802   0.648   8.306  0.3752 -0.1822  0.1612
 5451SOL    HW117516   0.870   0.696   8.352  0.4873 -0.3987  0.2262
 5451SOL    HW217517   0.722   0.664   8.355  0.5933 -0.8483  0.7503
 5452SOL     OW17518   4.949   6.583   0.864  0.4277 -1.0441  0.2189
 5452SOL    HW117519   4.916   6.673   0.875  3.2504  0.3007 -1.1885
 5452SOL    HW217520   4.961   6.551   0.954  0.2132  0.3511  0.7766
 5453SOL     OW17521   7.916   1.336   8.402  0.4267  0.1926  0.1548
 5453SOL    HW117522   7.833   1.295   8.376  0.1306  0.3090  0.9037
 5453SOL    HW217523   7.893   1.427   8.420  0.4078 -0.1017  1.7888
 5454SOL     OW17524   0.334   5.862   4.929  0.6328 -0.4577 -0.1620
 5454SOL    HW117525   0.334   5.879   4.835 -1.8240 -1.7124 -0.4589
 5454SOL    HW217526   0.249   5.894   4.960  1.3395 -0.1719  1.6437
 5455SOL     OW17527   3.465   5.364   5.463 -0.0256  0.1851 -0.1888
 5455SOL    HW117528   3.419   5.300   5.518  0.2927 -0.8654 -1.1108
 5455SOL    HW217529   3.557   5.350   5.483  0.0025  1.0836  0.3579
 5456SOL     OW17530   1.936   5.164   7.051  0.6421 -0.6083  0.2526
 5456SOL    HW117531   1.902   5.244   7.092  1.2963  0.7665 -1.7483
 5456SOL    HW217532   2.020   5.191   7.013  0.3420 -1.9416 -1.4532
 5457SOL     OW17533   4.120   8.481   1.016  0.1802  0.2125  0.0061
 5457SOL    HW117534   4.181   8.419   0.976  1.5827  1.2344  0.4572
 5457SOL    HW217535   4.108   8.449   1.105 -0.8351 -0.5948 -0.4066
 5458SOL     OW17536   6.880   8.822   5.055  0.6762  0.6169 -0.2781
 5458SOL    HW117537   6.915   8.781   5.134 -0.5891  1.2996  0.6747
 5458SOL    HW217538   6.901   8.760   4.985  0.5698 -0.6959  0.7999
 5459SOL     OW17539   4.605   7.141   7.635  0.1096 -0.0994  0.2026
 5459SOL    HW117540   4.664   7.211   7.610  0.8375 -1.0329 -0.7848
 5459SOL    HW217541   4.541   7.136   7.564  0.1462 -0.5203  0.1950
 5460SOL     OW17542   0.688   5.352   0.079  0.4285  0.0321  0.2406
 5460SOL    HW117543   0.654   5.283   0.136 -0.1776  0.7068  0.7040
 5460SOL    HW217544   0.735   5.305   0.010  0.0747 -0.8370  0.5824
 5461SOL     OW17545   2.783   6.537   3.472  0.4270  0.0493  0.2482
 5461SOL    HW117546   2.854   6.508   3.414 -0.2173 -0.2375 -0.4120
 5461SOL    HW217547   2.722   6.464   3.475  0.0804  0.3474  0.6900
 5462SOL     OW17548   0.471   2.190   5.958  0.0765 -0.2240 -0.0916
 5462SOL    HW117549   0.462   2.285   5.951 -0.4623 -0.3395 -1.2462
 5462SOL    HW217550   0.530   2.177   6.032 -0.0310  0.9964  0.2362
 5463SOL     OW17551   6.571   2.594   3.306 -0.1933  0.3542 -0.2609
 5463SOL    HW117552   6.502   2.644   3.263 -0.4863 -0.4844 -0.7771
 5463SOL    HW217553   6.526   2.537   3.367  0.2697  2.2025  1.9448
 5464SOL     OW17554   7.336   4.380   7.013 -0.2130  0.5077 -0.4211
 5464SOL    HW117555   7.387   4.370   7.093  0.2740 -0.2419 -0.8071
 5464SOL    HW217556   7.381   4.449   6.964  0.9802 -0.7280 -1.1420
 5465SOL     OW17557   6.552   3.142   2.011 -0.5414 -0.1651 -0.0246
 5465SOL    HW117558   6.472   3.111   1.968  0.5383 -1.7957 -0.9960
 5465SOL    HW217559   6.574   3.072   2.073  1.3528 -0.9383 -1.4503
 5466SOL     OW17560   1.759   7.056   0.034  0.0670 -0.3672  0.0181
 5466SOL    HW117561   1.690   7.065   0.099 -1.6448  0.8096 -1.8401
 5466SOL    HW217562   1.800   7.143   0.030  0.9472 -0.7506  0.3048
 5467SOL     OW17563   6.160   8.043   1.404 -0.0583 -0.0595  0.1789
 5467SOL    HW117564   6.236   8.101   1.403  0.6250 -0.8877 -1.7862
 5467SOL    HW217565   6.090   8.095   1.364 -0.2896  0.3995  1.1631
 5468SOL     OW17566   2.599   8.205   1.274  0.7076  0.7324 -0.6706
 5468SOL    HW117567   2.548   8.128   1.249  0.9827  0.9398 -1.9358
 5468SOL    HW217568   2.535   8.266   1.309  0.0888  0.8927 -2.0101
 5469SOL     OW17569   8.270   7.663   7.593  0.8122 -0.3884 -0.6512
 5469SOL    HW117570   8.282   7.570   7.612 -0.5084 -0.5820 -0.6330
 5469SOL    HW217571   8.300   7.708   7.673  0.0239 -0.9005 -0.0504
 5470SOL     OW17572   1.667   5.630   0.577  0.2522 -0.4515 -0.3564
 5470SOL    HW117573   1.643   5.719   0.551  0.9824  1.0159  3.4251
 5470SOL    HW217574   1.745   5.611   0.524 -1.0573  0.2362 -2.7012
 5471SOL     OW17575   4.599   4.288   0.477 -0.0329  0.0903  0.2492
 5471SOL    HW117576   4.658   4.271   0.403 -1.1811  1.7941 -1.1554
 5471SOL    HW217577   4.652   4.270   0.555  2.4896  1.8106 -0.9060
 5472SOL     OW17578   6.136   1.848   4.524 -0.6876  0.4516 -0.3795
 5472SOL    HW117579   6.077   1.923   4.516 -0.9240  0.3159  0.0642
 5472SOL    HW217580   6.208   1.880   4.579 -0.5182  0.5104 -0.6310
 5473SOL     OW17581   0.131   2.663   2.600 -0.3443  0.2201  0.4991
 5473SOL    HW117582   0.139   2.584   2.547  2.1195  1.2719 -0.8185
 5473SOL    HW217583   0.052   2.706   2.567 -1.2155 -1.2019  0.6429
 5474SOL     OW17584   5.594   1.504   7.726  0.1127  0.4038 -0.5018
 5474SOL    HW117585   5.672   1.497   7.781  0.3869  0.2641 -0.9052
 5474SOL    HW217586   5.568   1.596   7.735  0.1304  0.3722 -0.1058
 5475SOL     OW17587   8.019   6.856   4.295  0.1243  0.2651 -0.4961
 5475SOL    HW117588   7.979   6.799   4.361 -2.5579 -0.0742 -2.2548
 5475SOL    HW217589   8.054   6.795   4.230  0.1364  0.5900 -0.7967
 5476SOL     OW17590   2.181   3.085   1.522 -0.0788  0.1504 -0.8077
 5476SOL    HW117591   2.253   3.143   1.544 -1.8128  1.7442  1.0731
 5476SOL    HW217592   2.130   3.133   1.457 -1.0465  0.4229  0.1144
 5477SOL     OW17593   1.724   2.397   3.376 -0.2907 -0.4729 -0.2047
 5477SOL    HW117594   1.762   2.449   3.447  0.6035 -0.1919 -0.8796
 5477SOL    HW217595   1.749   2.307   3.396  0.2268 -0.3569 -0.3306
 5478SOL     OW17596   2.022   6.333   5.310 -0.0274 -0.0250  0.7129
 5478SOL    HW117597   2.024   6.257   5.367 -1.6816  0.3566  1.3461
 5478SOL    HW217598   1.974   6.399   5.359  1.2872  1.4227  0.1453
 5479SOL     OW17599   2.903   3.753   5.479 -0.0383  0.1338  0.0333
 5479SOL    HW117600   2.814   3.719   5.483  0.5889 -1.5481  2.3876
 5479SOL    HW217601   2.942   3.711   5.402 -1.6430  2.2153 -2.0692
 5480SOL     OW17602   7.416   6.390   5.200 -0.2061 -0.6249 -0.2871
 5480SOL    HW117603   7.426   6.485   5.206  0.5127 -0.7221  0.1744
 5480SOL    HW217604   7.500   6.355   5.231 -0.7360 -1.4281  0.2771
 5481SOL     OW17605   4.451   6.556   6.315  0.3516  0.4696  1.1266
 5481SOL    HW117606   4.498   6.514   6.243  0.2921 -0.1753  1.4634
 5481SOL    HW217607   4.520   6.580   6.377  0.4962  1.7495  0.5115
 5482SOL     OW17608   3.332   3.068   6.086 -0.0114 -0.4486 -0.1541
 5482SOL    HW117609   3.361   3.001   6.024 -1.2119 -1.0944 -0.0354
 5482SOL    HW217610   3.237   3.060   6.088 -0.1081  0.6540  0.5608
 5483SOL     OW17611   1.423   7.474   2.873  0.0388 -0.7471 -0.3688
 5483SOL    HW117612   1.358   7.544   2.879  2.6290  1.7786  0.6366
 5483SOL    HW217613   1.409   7.421   2.951 -0.0211  0.5869  0.5632
 5484SOL     OW17614   8.803   4.386   1.859 -0.2026  0.6195 -0.1864
 5484SOL    HW117615   8.864   4.348   1.922  0.4866  1.5591 -0.2683
 5484SOL    HW217616   8.722   4.336   1.871  0.3022 -0.0455  0.5557
 5485SOL     OW17617   0.635   5.763   7.004  0.6173  0.3201  0.3650
 5485SOL    HW117618   0.654   5.839   6.948 -0.3617  0.7534  0.6048
 5485SOL    HW217619   0.659   5.687   6.950  0.3928  0.7609 -0.3664
 5486SOL     OW17620   1.729   4.031   3.051 -0.2809 -0.0439  1.2035
 5486SOL    HW117621   1.809   4.074   3.083 -0.7962  2.2060 -0.2702
 5486SOL    HW217622   1.731   4.045   2.956 -0.7407 -3.0368  0.6611
 5487SOL     OW17623   8.407   8.099   5.358 -0.2412  0.5751  0.1501
 5487SOL    HW117624   8.341   8.150   5.405  0.3431  3.3350 -1.7649
 5487SOL    HW217625   8.488   8.115   5.407 -0.1750  1.0621 -0.1048
 5488SOL     OW17626   4.350   8.676   7.650  0.3426  0.8350 -0.5357
 5488SOL    HW117627   4.282   8.733   7.686  0.2698  0.1147  0.5364
 5488SOL    HW217628   4.303   8.598   7.621  0.9029 -1.1162  3.1904
 5489SOL     OW17629   2.986   6.979   7.044  0.2460  0.6306  0.3116
 5489SOL    HW117630   3.000   6.959   6.952 -0.0508  1.8872 -0.0301
 5489SOL    HW217631   3.042   6.917   7.092  1.1413  0.6050 -0.7393
 5490SOL     OW17632   1.478   8.547   0.393 -0.4717 -0.6479  0.0357
 5490SOL    HW117633   1.434   8.486   0.333 -2.0229  0.5939 -0.1405
 5490SOL    HW217634   1.432   8.629   0.382  1.6711  0.6541  0.1630
 5491SOL     OW17635   3.101   7.089   2.243 -0.5285 -0.2475 -0.2079
 5491SOL    HW117636   3.081   7.089   2.336  1.4618 -1.8101  0.3006
 5491SOL    HW217637   3.100   6.997   2.218 -0.0145  0.0696 -1.4765
 5492SOL     OW17638   8.495   0.465   2.393  0.0504 -0.0249  0.0500
 5492SOL    HW117639   8.583   0.437   2.371 -0.4007  0.4131 -2.6258
 5492SOL    HW217640   8.505   0.557   2.419  0.4326 -0.0668  0.0558
 5493SOL     OW17641   3.306   2.633   6.982 -0.3177  0.3514 -0.7187
 5493SOL    HW117642   3.243   2.672   7.043  0.3127  1.1339 -0.5482
 5493SOL    HW217643   3.372   2.593   7.039  0.2891  1.1112 -0.8751
 5494SOL     OW17644   4.792   3.740   4.128  0.1288  0.7318 -0.1489
 5494SOL    HW117645   4.759   3.817   4.175  0.9961 -0.0328  1.8041
 5494SOL    HW217646   4.882   3.729   4.161 -0.0383 -1.2239 -0.2374
 5495SOL     OW17647   0.258   5.562   7.074 -0.0924  0.0743  0.0798
 5495SOL    HW117648   0.178   5.549   7.023  0.0429  0.3055 -0.1965
 5495SOL    HW217649   0.328   5.530   7.017  0.1515  1.1446 -0.2371
 5496SOL     OW17650   4.061   6.419   5.272  0.3143  0.0083  0.1811
 5496SOL    HW117651   4.082   6.342   5.219  0.7225  0.5347 -0.4338
 5496SOL    HW217652   4.053   6.490   5.209  1.8462  0.8741  0.8907
 5497SOL     OW17653   4.011   7.417   1.456  0.3757  0.0308 -0.1185
 5497SOL    HW117654   4.047   7.332   1.432  1.7262  0.5161  0.0629
 5497SOL    HW217655   3.917   7.403   1.461  0.5990 -1.5448  0.2747
 5498SOL     OW17656   5.760   7.887   6.778 -0.4208 -0.7011  0.0156
 5498SOL    HW117657   5.768   7.914   6.869  0.0628  0.8278 -0.4508
 5498SOL    HW217658   5.846   7.851   6.756 -0.1592  0.0210 -0.1626
 5499SOL     OW17659   8.270   4.448   7.064  0.0511 -0.4893 -0.1767
 5499SOL    HW117660   8.216   4.444   7.144  0.5467 -0.9363  0.1459
 5499SOL    HW217661   8.234   4.379   7.009 -0.7454  0.2839 -0.6377
 5500SOL     OW17662   7.831   5.264   1.771  0.0400 -0.4735  0.1239
 5500SOL    HW117663   7.811   5.172   1.750 -3.9190  0.0029  1.0424
 5500SOL    HW217664   7.804   5.313   1.693  1.7728  0.0125 -0.2131
 5501SOL     OW17665   2.860   4.221   0.224  0.9393  0.2323 -0.6112
 5501SOL    HW117666   2.768   4.243   0.216  0.7728 -0.2617 -0.1626
 5501SOL    HW217667   2.892   4.215   0.134  0.4720  0.1605 -0.7721
 5502SOL     OW17668   5.610   3.196   3.786 -0.7488  0.6310 -0.7946
 5502SOL    HW117669   5.659   3.267   3.828  0.8454 -1.1476  0.5809
 5502SOL    HW217670   5.659   3.177   3.706 -0.6606  0.5162 -0.7138
 5503SOL     OW17671   7.077   7.288   8.014  0.0128  0.0053 -0.0909
 5503SOL    HW117672   7.163   7.328   8.021  0.4887 -0.7941 -1.1586
 5503SOL    HW217673   7.047   7.310   7.925 -1.3801  1.2131  0.6281
 5504SOL     OW17674   6.895   8.837   4.671  0.6644 -0.1462  0.1831
 5504SOL    HW117675   6.907   8.749   4.708 -1.2241 -0.9295 -0.9850
 5504SOL    HW217676   6.846   8.885   4.738 -3.8972 -1.9427 -1.5097
 5505SOL     OW17677   3.733   7.477   4.461  0.4721 -0.0532  0.1094
 5505SOL    HW117678   3.752   7.551   4.403  0.0348 -0.1953 -0.2185
 5505SOL    HW217679   3.671   7.513   4.525  0.8182  0.0555  0.3896
 5506SOL     OW17680   5.936   4.835   6.629 -0.2631  0.1518 -0.0984
 5506SOL    HW117681   5.958   4.847   6.537 -0.7972  0.3791 -0.2006
 5506SOL    HW217682   5.951   4.742   6.646  0.8828  0.3212 -0.1279
 5507SOL     OW17683   1.093   7.167   5.072  0.3539  0.1446  0.4975
 5507SOL    HW117684   1.024   7.103   5.055  0.0433  0.8106 -0.9068
 5507SOL    HW217685   1.051   7.252   5.060  1.7252  0.5838 -2.0441
 5508SOL     OW17686   0.671   8.135   5.375 -0.3563 -0.2943 -0.0881
 5508SOL    HW117687   0.745   8.162   5.430  0.7901  0.2247 -1.7973
 5508SOL    HW217688   0.597   8.184   5.410  0.3383  0.0674  0.9572
 5509SOL     OW17689   0.196   3.302   5.414  0.3793 -0.3895 -0.3941
 5509SOL    HW117690   0.196   3.237   5.485 -1.4013 -0.2218 -0.2053
 5509SOL    HW217691   0.166   3.383   5.456  0.0844 -0.0909 -1.1765
 5510SOL     OW17692   7.463   8.824   0.644  0.1197  0.3034  0.1307
 5510SOL    HW117693   7.383   8.869   0.672  0.6692  0.3784  1.6789
 5510SOL    HW217694   7.486   8.767   0.717  2.7484  1.9967  0.7597
 5511SOL     OW17695   1.375   6.320   2.940  0.0032 -0.1692  0.4263
 5511SOL    HW117696   1.385   6.282   2.853 -1.1193 -0.0281  0.2308
 5511SOL    HW217697   1.400   6.412   2.929  0.1701 -0.2255  0.3260
 5512SOL     OW17698   8.311   1.832   4.335  0.0021 -0.3568 -0.1742
 5512SOL    HW117699   8.270   1.918   4.325 -1.6682 -1.1156 -0.2111
 5512SOL    HW217700   8.303   1.790   4.249  1.2197 -0.4098 -0.2900
 5513SOL     OW17701   3.389   6.888   3.831 -0.3995 -0.0016 -0.4034
 5513SOL    HW117702   3.307   6.896   3.782 -1.2236 -2.6838  0.3351
 5513SOL    HW217703   3.402   6.793   3.840  1.8230  0.3670  1.1186
 5514SOL     OW17704   4.068   7.824   7.830 -1.1048 -0.4539 -1.0801
 5514SOL    HW117705   4.043   7.873   7.908 -0.7228  0.4188 -1.4804
 5514SOL    HW217706   3.985   7.795   7.792 -1.3145 -0.4933 -0.5907
 5515SOL     OW17707   1.752   1.116   3.643  0.0564 -0.4459 -0.3996
 5515SOL    HW117708   1.834   1.166   3.652 -0.3593  0.0685  0.6446
 5515SOL    HW217709   1.683   1.180   3.661 -0.4862 -1.3829  1.0522
 5516SOL     OW17710   3.680   4.907   5.361  0.1292  0.1587  0.2917
 5516SOL    HW117711   3.731   4.931   5.284  0.5995  0.9973  0.8496
 5516SOL    HW217712   3.613   4.975   5.369  1.6663  1.5680  2.0594
 5517SOL     OW17713   4.145   3.129   1.811 -0.0548  0.3328  0.4589
 5517SOL    HW117714   4.179   3.187   1.879  0.3807  0.5125  0.0929
 5517SOL    HW217715   4.103   3.187   1.748  1.6828  0.4364 -0.6818
 5518SOL     OW17716   6.409   3.589   0.934  0.3076  0.1460  1.0955
 5518SOL    HW117717   6.421   3.591   0.839 -0.6007  1.0313  0.9827
 5518SOL    HW217718   6.376   3.500   0.951  0.9936 -0.2062  0.6667
 5519SOL     OW17719   2.609   3.859   6.901 -0.5384 -0.4028  0.0155
 5519SOL    HW117720   2.671   3.898   6.963 -1.3081 -0.2972  0.7339
 5519SOL    HW217721   2.657   3.785   6.864  1.5230  1.9185 -2.4457
 5520SOL     OW17722   2.318   5.659   0.119  0.1509 -0.2679  0.4435
 5520SOL    HW117723   2.351   5.589   0.062  3.3725  0.8692  0.6806
 5520SOL    HW217724   2.326   5.623   0.208 -0.8126 -0.5225  0.4403
 5521SOL     OW17725   6.201   5.399   5.872  0.1058 -0.8038  0.0403
 5521SOL    HW117726   6.269   5.339   5.904 -0.0322 -0.8606  0.2275
 5521SOL    HW217727   6.129   5.342   5.846 -0.1347 -0.7094  0.4746
 5522SOL     OW17728   1.809   7.880   3.724 -0.1074 -0.5267  0.1596
 5522SOL    HW117729   1.849   7.796   3.746 -0.3213 -0.3412  1.2744
 5522SOL    HW217730   1.833   7.938   3.795  1.7520  0.9593 -1.5607
 5523SOL     OW17731   1.073   5.153   3.027  0.1289  0.0264 -0.8065
 5523SOL    HW117732   1.006   5.207   2.986  1.1163  1.6493 -0.3485
 5523SOL    HW217733   1.152   5.168   2.975  0.1136 -2.1791 -1.6014
 5524SOL     OW17734   0.257   1.208   3.768 -0.1358  0.4816  0.2902
 5524SOL    HW117735   0.178   1.261   3.760 -0.8751 -0.6140  0.0109
 5524SOL    HW217736   0.279   1.184   3.678  0.5770  0.8489  0.3577
 5525SOL     OW17737   3.478   5.014   6.932  0.2791  0.1096  0.2530
 5525SOL    HW117738   3.570   5.029   6.953  0.5664  0.8070 -1.3357
 5525SOL    HW217739   3.457   5.083   6.868 -1.1768 -0.3938  0.1591
 5526SOL     OW17740   0.024   5.156   1.817 -0.0190  0.8987 -0.0458
 5526SOL    HW117741  -0.020   5.159   1.732 -0.6217  1.9354  0.2890
 5526SOL    HW217742  -0.007   5.234   1.863  0.7153  0.6347  0.9254
 5527SOL     OW17743   1.415   3.194   3.593  0.8409 -0.4099 -0.4911
 5527SOL    HW117744   1.429   3.108   3.632 -0.5884  1.3589  4.7609
 5527SOL    HW217745   1.332   3.186   3.546  0.5783 -1.8472  0.1622
 5528SOL     OW17746   3.534   5.611   2.210  0.2066 -0.0988 -0.2847
 5528SOL    HW117747   3.560   5.583   2.298 -0.3358  0.5116  0.0808
 5528SOL    HW217748   3.505   5.701   2.221 -1.2024 -0.4612 -0.8279
 5529SOL     OW17749   4.185   8.540   0.445  0.3513 -0.1623 -0.0441
 5529SOL    HW117750   4.111   8.576   0.493  1.0322 -0.3339  1.1973
 5529SOL    HW217751   4.179   8.445   0.458  0.4560 -0.2263 -0.4394
 5530SOL     OW17752   3.921   5.615   8.833  0.2916 -0.2372 -0.5945
 5530SOL    HW117753   3.873   5.534   8.850  0.3826 -0.1699 -0.0165
 5530SOL    HW217754   3.939   5.651   8.919  3.2619 -1.3336 -0.6674
 5531SOL     OW17755   4.435   5.292   3.179 -0.4335 -0.1497 -0.7254
 5531SOL    HW117756   4.527   5.313   3.192 -0.7469  0.1846  1.2485
 5531SOL    HW217757   4.435   5.223   3.113  1.2306 -0.2096 -0.6895
 5532SOL     OW17758   5.697   3.986   1.688 -0.0274 -0.0540 -0.2672
 5532SOL    HW117759   5.762   4.008   1.622 -0.0037 -0.9443 -0.5566
 5532SOL    HW217760   5.722   4.036   1.765 -0.1146  1.0820 -0.9624
 5533SOL     OW17761   1.530   1.432   2.408 -0.7401 -0.1531  0.1499
 5533SOL    HW117762   1.455   1.486   2.433 -2.0419 -0.8942 -1.9332
 5533SOL    HW217763   1.494   1.344   2.400  0.8468 -0.9502  1.1456
 5534SOL     OW17764   4.394   0.890   8.190  0.4059 -0.5020  0.0227
 5534SOL    HW117765   4.328   0.923   8.250 -1.2826  0.2711 -2.1052
 5534SOL    HW217766   4.392   0.795   8.200  1.6694 -0.3279  2.5942
 5535SOL     OW17767   6.238   2.175   5.024 -0.4547 -0.3219  0.0497
 5535SOL    HW117768   6.186   2.250   4.996  0.3590  0.4147  0.4894
 5535SOL    HW217769   6.196   2.100   4.982 -2.9450  0.0089  1.7578
 5536SOL     OW17770   4.771   5.509   1.600  0.0139 -0.8179 -0.4567
 5536SOL    HW117771   4.793   5.557   1.520  0.4292  0.3728  0.3380
 5536SOL    HW217772   4.698   5.558   1.638  0.9152 -0.3509  0.7455
 5537SOL     OW17773   6.637   3.828   4.392  0.8391  0.5813  0.2085
 5537SOL    HW117774   6.605   3.756   4.447  1.4761  0.5782  0.5789
 5537SOL    HW217775   6.625   3.906   4.445  0.1220  0.7619 -0.2055
 5538SOL     OW17776   6.924   6.044   3.013 -0.1463  0.5108  0.5812
 5538SOL    HW117777   6.892   5.992   3.087  0.0398  1.2507  1.1897
 5538SOL    HW217778   7.016   6.060   3.032  0.0589  0.2136 -0.1096
 5539SOL     OW17779   1.548   8.184   0.581 -0.1660  0.3484  0.1182
 5539SOL    HW117780   1.637   8.196   0.548 -0.3410  1.1169 -0.0856
 5539SOL    HW217781   1.511   8.272   0.583 -1.3393 -0.0920 -0.9810
 5540SOL     OW17782   4.072   2.037   5.955 -0.4718 -0.3282 -0.1869
 5540SOL    HW117783   4.138   2.036   5.885 -0.6422  0.8915 -0.3957
 5540SOL    HW217784   4.017   1.962   5.936 -1.0870  0.5043 -1.9634
 5541SOL     OW17785   7.002   4.654   7.247  0.1469 -0.2401  0.1301
 5541SOL    HW117786   6.944   4.637   7.173  0.1729 -0.3352  0.1324
 5541SOL    HW217787   6.991   4.579   7.305  0.0145 -0.0964  0.2948
 5542SOL     OW17788   6.304   6.454   6.424 -0.0056  0.0877 -0.0277
 5542SOL    HW117789   6.267   6.394   6.359  2.6446  0.6515 -2.2349
 5542SOL    HW217790   6.256   6.536   6.411  1.1631  0.5145 -2.1417
 5543SOL     OW17791   5.038   0.276   6.551 -0.0175  0.4619  0.3335
 5543SOL    HW117792   4.943   0.285   6.547  0.1414  2.3041 -0.0367
 5543SOL    HW217793   5.068   0.358   6.588  1.4137 -0.3132  0.9502
 5544SOL     OW17794   3.376   0.553   2.833 -0.2107  0.1664 -0.0076
 5544SOL    HW117795   3.373   0.631   2.888  1.0113 -0.1909  0.5961
 5544SOL    HW217796   3.348   0.584   2.747 -0.0430  1.2083  0.2938
 5545SOL     OW17797   3.325   6.951   6.635 -0.0939 -0.0041 -0.1301
 5545SOL    HW117798   3.353   7.022   6.578 -1.2991  1.2179  0.7094
 5545SOL    HW217799   3.388   6.952   6.707 -0.1012  0.2167 -0.1257
 5546SOL     OW17800   5.175   3.521   5.481  0.3448  0.2937 -0.1846
 5546SOL    HW117801   5.148   3.603   5.440  0.5039  1.3275  1.6499
 5546SOL    HW217802   5.093   3.481   5.510  0.4269  1.7271  2.2869
 5547SOL     OW17803   2.272   6.398   2.778  0.5300  0.3696 -0.0638
 5547SOL    HW117804   2.209   6.368   2.843  0.8747  2.0033  1.0764
 5547SOL    HW217805   2.229   6.381   2.694 -0.9407  0.4186  0.6459
 5548SOL     OW17806   4.836   3.973   1.199  0.8696  0.0241 -0.0499
 5548SOL    HW117807   4.922   3.993   1.237  0.3843  0.4868  0.8257
 5548SOL    HW217808   4.849   3.984   1.104  1.0215  3.3040  0.2235
 5549SOL     OW17809   8.405   2.469   4.749 -0.2271 -0.0026  0.1871
 5549SOL    HW117810   8.436   2.380   4.727  0.4341  0.8327 -2.7301
 5549SOL    HW217811   8.352   2.494   4.673  1.4196  2.8833 -0.1316
 5550SOL     OW17812   4.785   0.083   2.827 -0.1710 -0.3215  0.3772
 5550SOL    HW117813   4.772  -0.011   2.819 -0.2172 -0.2051 -1.5778
 5550SOL    HW217814   4.869   0.092   2.871  0.4576 -1.3316 -0.5566
 5551SOL     OW17815   1.462   4.435   1.813 -0.1131  0.1057  0.6822
 5551SOL    HW117816   1.376   4.473   1.828 -0.5984 -0.4911 -0.4246
 5551SOL    HW217817   1.468   4.427   1.717  1.2300  0.2771  0.7287
 5552SOL     OW17818   8.279   6.970   4.530 -0.3233 -0.0329 -0.2252
 5552SOL    HW117819   8.211   6.940   4.470 -0.4340  0.0548 -0.1434
 5552SOL    HW217820   8.355   6.914   4.510 -0.2691  0.1868 -0.6450
 5553SOL     OW17821   7.984   8.236   0.965  0.0728 -1.2147 -0.1272
 5553SOL    HW117822   8.028   8.211   1.047  0.3626 -0.7461 -0.1356
 5553SOL    HW217823   7.891   8.218   0.982  0.3691 -3.2875 -0.5105
 5554SOL     OW17824   6.834   5.640   7.263 -0.1961  0.0433 -0.1727
 5554SOL    HW117825   6.893   5.638   7.188 -1.9314  0.3473 -1.6246
 5554SOL    HW217826   6.891   5.650   7.339  1.9446 -3.8769 -1.0097
 5555SOL     OW17827   8.567   8.574   3.452  0.1633  0.5384  0.4659
 5555SOL    HW117828   8.491   8.519   3.472 -0.2795  0.8855 -0.1844
 5555SOL    HW217829   8.539   8.624   3.375  1.6506 -0.4875 -0.7907
 5556SOL     OW17830   2.993   5.979   7.899  0.2270 -0.1057  0.1663
 5556SOL    HW117831   3.033   5.909   7.949  1.6199  1.3065  1.1364
 5556SOL    HW217832   3.040   5.981   7.816 -1.2052 -1.6011 -0.7358
 5557SOL     OW17833   5.965   3.272   7.463  0.4115  0.1317  0.2590
 5557SOL    HW117834   5.872   3.257   7.448  0.2459  1.5774 -0.3350
 5557SOL    HW217835   6.006   3.187   7.450 -0.5820 -0.0981 -1.7006
 5558SOL     OW17836   7.798   3.872   0.716 -0.3406 -0.2466 -0.3484
 5558SOL    HW117837   7.843   3.841   0.637  0.4391 -0.7027  0.2638
 5558SOL    HW217838   7.788   3.966   0.703 -1.9033 -0.5617 -1.8288
 5559SOL     OW17839   5.868   3.917   0.897 -0.1062 -0.3045  0.3928
 5559SOL    HW117840   5.938   3.977   0.920 -0.7893  0.4284  0.5910
 5559SOL    HW217841   5.869   3.851   0.967 -0.8945  0.8116  1.4977
 5560SOL     OW17842   3.963   5.050   8.449 -0.5194 -0.0559  0.2339
 5560SOL    HW117843   3.956   4.966   8.495  2.6331  1.2746  3.6633
 5560SOL    HW217844   4.053   5.052   8.416  0.0597  2.4621  1.6505
 5561SOL     OW17845   5.322   0.008   7.930 -0.9467  0.0090  0.1350
 5561SOL    HW117846   5.355   0.040   7.846  0.6923  1.4281  1.2462
 5561SOL    HW217847   5.295   0.087   7.977 -1.0248 -0.6646  1.2706
 5562SOL     OW17848   3.443   1.646   4.421  0.0214 -0.1545  0.2321
 5562SOL    HW117849   3.464   1.580   4.487 -2.1330 -3.2812 -1.9012
 5562SOL    HW217850   3.375   1.700   4.462  1.8674  0.9653  2.0358
 5563SOL     OW17851   5.029   7.522   0.335 -0.1037 -0.2334 -0.5463
 5563SOL    HW117852   5.094   7.454   0.319 -0.1139 -0.0949 -1.2071
 5563SOL    HW217853   5.008   7.557   0.248  0.7199  1.3646 -0.1506
 5564SOL     OW17854   6.863   4.471   7.066 -0.5816 -0.0018 -0.0765
 5564SOL    HW117855   6.839   4.395   7.013 -0.8422 -0.4619  0.6807
 5564SOL    HW217856   6.953   4.491   7.039 -0.6612 -0.3151 -0.5867
 5565SOL     OW17857   1.444   0.016   6.268  0.1031 -0.1983  0.0164
 5565SOL    HW117858   1.420   0.037   6.177 -0.1405  1.6743  0.4723
 5565SOL    HW217859   1.361   0.003   6.312  0.2331 -1.5598 -0.0892
 5566SOL     OW17860   8.634   8.393   2.645  0.2137  0.1429 -0.3135
 5566SOL    HW117861   8.711   8.436   2.683 -0.4737  0.7474  0.4354
 5566SOL    HW217862   8.666   8.308   2.616  1.6735  1.1648 -1.9645
 5567SOL     OW17863   4.305   8.255   0.422  0.7385 -0.3530 -0.3745
 5567SOL    HW117864   4.274   8.215   0.503 -2.0482  0.3866 -0.9806
 5567SOL    HW217865   4.228   8.295   0.384  2.3452  0.9077 -2.5169
 5568SOL     OW17866   1.613   4.257   2.718  0.3857  0.5416  0.2883
 5568SOL    HW117867   1.670   4.191   2.757  1.4414  1.0593 -0.3354
 5568SOL    HW217868   1.544   4.208   2.675 -0.5766 -0.0650  2.4110
 5569SOL     OW17869   4.972   4.959   3.297 -0.4917  0.1004  0.1816
 5569SOL    HW117870   4.937   4.952   3.386  0.2236  0.7503  0.5216
 5569SOL    HW217871   4.895   4.950   3.241 -0.9289 -0.4951  0.8557
 5570SOL     OW17872   7.545   7.173   8.793 -0.5042  0.2950  0.2877
 5570SOL    HW117873   7.498   7.191   8.874  0.7388 -0.7319  1.2889
 5570SOL    HW217874   7.483   7.124   8.739 -1.4356  1.2235  0.4859
 5571SOL     OW17875   2.561   1.139   1.331  0.3366 -0.0618 -1.1431
 5571SOL    HW117876   2.547   1.047   1.350  0.3436  0.4517  1.8136
 5571SOL    HW217877   2.474   1.174   1.316 -0.1644  0.0836  1.5229
 5572SOL     OW17878   8.446   6.680   7.836 -0.1447 -0.1318  0.0336
 5572SOL    HW117879   8.465   6.774   7.833 -0.0293 -0.1248  0.7542
 5572SOL    HW217880   8.527   6.638   7.809  0.4240 -0.0599  1.5423
 5573SOL     OW17881   4.332   1.729   7.002  0.1086  0.2950 -0.0724
 5573SOL    HW117882   4.266   1.722   6.933  1.2775  2.5034 -1.5434
 5573SOL    HW217883   4.290   1.690   7.079 -2.0582 -0.3525 -1.4768
 5574SOL     OW17884   6.642   6.185   2.501 -0.1129 -0.4093  0.3966
 5574SOL    HW117885   6.699   6.164   2.426 -0.8360 -2.1671  0.2721
 5574SOL    HW217886   6.695   6.165   2.578  0.5592  1.1975  0.3935
 5575SOL     OW17887   3.426   4.798   3.436  0.6535 -0.2179  0.1511
 5575SOL    HW117888   3.391   4.861   3.499  0.1360 -2.3476  2.1478
 5575SOL    HW217889   3.521   4.805   3.445  0.5872 -0.2469  0.9268
 5576SOL     OW17890   2.617   3.215   6.847 -0.1567  0.2463  0.5134
 5576SOL    HW117891   2.557   3.238   6.776 -0.3112 -1.1776  0.1465
 5576SOL    HW217892   2.705   3.227   6.810 -0.2089 -2.3303 -0.6366
 5577SOL     OW17893   1.887   2.262   4.281 -0.2204 -0.1322  0.1465
 5577SOL    HW117894   1.932   2.318   4.218 -3.4627  1.0482 -1.2995
 5577SOL    HW217895   1.847   2.193   4.228 -1.4024 -0.2431  1.1226
 5578SOL     OW17896   1.538   4.039   0.102  0.0130  0.1191  0.2212
 5578SOL    HW117897   1.507   4.094   0.029 -2.7726  0.3471  1.4451
 5578SOL    HW217898   1.529   4.094   0.179  0.8521 -0.8394  1.0395
 5579SOL     OW17899   2.818   8.641   0.964  0.3969  0.2093 -0.8061
 5579SOL    HW117900   2.885   8.709   0.958 -0.0237  0.8463  0.9825
 5579SOL    HW217901   2.846   8.587   1.038  0.6791 -1.5562 -2.1542
 5580SOL     OW17902   8.604   0.912   7.545 -0.0036 -0.5943 -0.0789
 5580SOL    HW117903   8.584   0.841   7.607 -0.8709 -0.1784  0.1317
 5580SOL    HW217904   8.694   0.935   7.565  1.1188 -3.1368 -1.6712
 5581SOL     OW17905   3.486   8.005   3.963  0.3799 -0.9612  0.2067
 5581SOL    HW117906   3.415   8.070   3.970 -0.7092 -2.1028  0.0172
 5581SOL    HW217907   3.566   8.058   3.968 -0.4310  0.2212  2.0658
 5582SOL     OW17908   0.584   0.501   1.275 -0.1622 -0.0496 -0.6748
 5582SOL    HW117909   0.543   0.588   1.274 -1.4017 -0.6177 -0.4496
 5582SOL    HW217910   0.670   0.516   1.315 -1.0365  0.7822  0.9646
 5583SOL     OW17911   5.294   4.335   2.589  0.3755 -0.3712 -0.2288
 5583SOL    HW117912   5.309   4.349   2.495 -0.7542 -0.4483 -0.4387
 5583SOL    HW217913   5.300   4.240   2.599  1.5601 -0.2871 -0.0115
 5584SOL     OW17914   1.583   7.337   6.516 -0.1467 -0.4689 -0.1165
 5584SOL    HW117915   1.614   7.378   6.597 -0.5440 -0.1031 -0.1450
 5584SOL    HW217916   1.612   7.246   6.523  1.8860  0.1038 -0.6502
 5585SOL     OW17917   3.303   2.529   5.240  0.0001  0.0671  0.2068
 5585SOL    HW117918   3.311   2.447   5.289 -0.2567 -0.0794  0.0087
 5585SOL    HW217919   3.346   2.594   5.295  1.4959 -0.4605 -0.2998
 5586SOL     OW17920   0.508   8.536   7.732 -0.4595 -0.0678 -0.2041
 5586SOL    HW117921   0.557   8.601   7.683 -1.0241  0.3385 -0.2286
 5586SOL    HW217922   0.434   8.583   7.769 -1.3591 -0.8644 -0.9294
 5587SOL     OW17923   4.451   0.754   4.348  0.0088 -0.0967 -0.3561
 5587SOL    HW117924   4.403   0.720   4.273 -1.3723 -1.5907  1.1206
 5587SOL    HW217925   4.527   0.696   4.356  0.6946  0.6585 -1.1230
 5588SOL     OW17926   2.422   2.401   7.161  0.3312  0.4701 -0.7145
 5588SOL    HW117927   2.401   2.488   7.194 -0.0711 -0.2787  1.1184
 5588SOL    HW217928   2.359   2.386   7.090 -1.9818  0.3531  1.2284
 5589SOL     OW17929   8.543   4.110   5.488 -1.1036  0.3577  0.3323
 5589SOL    HW117930   8.611   4.058   5.447  0.0890  0.2282  2.3701
 5589SOL    HW217931   8.527   4.182   5.426 -0.1035 -0.3490 -0.7755
 5590SOL     OW17932   5.460   5.798   4.686  0.4688  1.0704  0.5175
 5590SOL    HW117933   5.434   5.804   4.778 -0.8522  2.5817  0.0926
 5590SOL    HW217934   5.520   5.871   4.674  0.0407  1.3368 -0.0022
 5591SOL     OW17935   0.288   8.674   1.151  0.3303  0.6322  0.4771
 5591SOL    HW117936   0.335   8.667   1.067  0.8244  1.5506  0.6616
 5591SOL    HW217937   0.322   8.754   1.191 -0.2765  0.4802  1.3309
 5592SOL     OW17938   1.814   6.104   2.843 -0.0709  0.3868 -0.1578
 5592SOL    HW117939   1.776   6.088   2.757 -0.0899  2.5334 -0.6079
 5592SOL    HW217940   1.756   6.168   2.883  0.3191 -0.0704  1.1952
 5593SOL     OW17941   6.221   7.808   3.255 -0.2633  0.2122  0.3968
 5593SOL    HW117942   6.278   7.855   3.193 -2.4086  0.7525 -1.3016
 5593SOL    HW217943   6.227   7.859   3.336  2.8352 -0.6727  0.8458
 5594SOL     OW17944   6.180   2.681   1.930 -0.1835 -0.1294  0.0782
 5594SOL    HW117945   6.158   2.753   1.989  1.2081 -0.7936  1.4758
 5594SOL    HW217946   6.134   2.606   1.967 -0.6861 -0.2252 -0.7092
 5595SOL     OW17947   2.400   2.399   7.964 -0.1476 -0.0549  0.2240
 5595SOL    HW117948   2.425   2.344   8.038 -0.5056 -0.7425 -0.1567
 5595SOL    HW217949   2.467   2.468   7.961 -0.4708  0.3487  1.5661
 5596SOL     OW17950   4.519   1.548   8.175  0.2391 -0.3824  0.4891
 5596SOL    HW117951   4.550   1.608   8.244 -0.1604  1.0242 -0.5038
 5596SOL    HW217952   4.546   1.590   8.093 -3.6880  0.7529 -0.4710
 5597SOL     OW17953   0.444   4.731   1.637  0.0118 -0.5206  0.1712
 5597SOL    HW117954   0.383   4.787   1.588 -0.7473 -2.2084 -0.9104
 5597SOL    HW217955   0.525   4.734   1.587  0.4938  0.8078  0.9786
 5598SOL     OW17956   8.649   3.490   6.466  0.0078  0.0451  0.3873
 5598SOL    HW117957   8.559   3.471   6.439  0.5877 -1.4518 -0.6441
 5598SOL    HW217958   8.646   3.483   6.562 -1.1626  1.0337  0.4476
 5599SOL     OW17959   8.375   5.440   5.525 -0.6254 -0.3924  0.9816
 5599SOL    HW117960   8.419   5.513   5.568  1.0112 -1.2738  0.8903
 5599SOL    HW217961   8.426   5.426   5.445 -1.9780 -0.5284  0.1116
 5600SOL     OW17962   8.343   3.273   6.065 -0.5318 -0.5862 -0.2365
 5600SOL    HW117963   8.427   3.310   6.092 -0.9021 -1.7217  2.8357
 5600SOL    HW217964   8.277   3.332   6.103 -1.1481 -0.4105 -1.5336
 5601SOL     OW17965   8.107   7.878   4.870  0.1810 -0.1529  0.2355
 5601SOL    HW117966   8.169   7.816   4.831 -0.9631 -1.1939 -0.0091
 5601SOL    HW217967   8.021   7.847   4.841 -0.8333 -1.2988  3.9535
 5602SOL     OW17968   4.880   1.528   2.454 -0.0094 -0.1342 -0.3120
 5602SOL    HW117969   4.801   1.484   2.425  0.8562 -1.6439 -0.4746
 5602SOL    HW217970   4.864   1.550   2.545 -0.9354  0.3842 -0.5835
 5603SOL     OW17971   4.978   2.603   3.828 -0.6757  0.7314 -0.2032
 5603SOL    HW117972   5.046   2.540   3.801 -0.1120  0.5208  1.5421
 5603SOL    HW217973   4.932   2.558   3.899 -1.8368  1.3793 -0.5285
 5604SOL     OW17974   5.240   7.586   3.459 -0.0189 -0.2660 -0.0222
 5604SOL    HW117975   5.282   7.663   3.421 -1.3165  0.1577 -0.6532
 5604SOL    HW217976   5.243   7.602   3.554 -0.9477  0.9629 -0.1675
 5605SOL     OW17977   2.791   0.751   1.391 -0.3381 -0.2822 -0.1775
 5605SOL    HW117978   2.753   0.761   1.478 -0.0758 -0.8454  0.0078
 5605SOL    HW217979   2.808   0.657   1.382  1.0697 -0.0581 -0.2102
 5606SOL     OW17980   2.347   4.536   2.166 -0.3362 -0.3982  0.0510
 5606SOL    HW117981   2.418   4.484   2.203 -0.6386 -2.2260 -1.7568
 5606SOL    HW217982   2.373   4.627   2.181  1.0065 -1.0278  1.8837
 5607SOL     OW17983   6.306   2.046   6.369  0.1902  0.4693  0.3230
 5607SOL    HW117984   6.366   2.120   6.376  1.4088 -0.3434 -1.1647
 5607SOL    HW217985   6.327   1.992   6.445  1.5302  0.0759 -0.3020
 5608SOL     OW17986   3.920   6.796   4.789  0.1479  0.2123  0.0773
 5608SOL    HW117987   3.914   6.876   4.736 -0.3678  0.5722  0.6576
 5608SOL    HW217988   3.893   6.726   4.730  0.7959  0.4377 -0.4955
 5609SOL     OW17989   4.039   7.542   4.060  0.1036 -0.0656  0.0837
 5609SOL    HW117990   4.101   7.602   4.017 -0.0870 -0.9317 -1.4796
 5609SOL    HW217991   3.955   7.563   4.020 -0.3858  0.2053  1.2414
 5610SOL     OW17992   3.223   0.286   7.228  0.0218 -0.0301  0.0025
 5610SOL    HW117993   3.272   0.227   7.286  0.4827  2.0220  1.8683
 5610SOL    HW217994   3.217   0.368   7.278 -1.9472  1.0204 -1.8044
 5611SOL     OW17995   7.302   5.164   6.863  0.0185 -0.2061 -0.0783
 5611SOL    HW117996   7.326   5.155   6.955  1.6368 -0.2961 -0.4774
 5611SOL    HW217997   7.206   5.164   6.863 -0.0115  0.4345  1.6529
 5612SOL     OW17998   8.093   8.489   0.958  0.0462  0.0243 -0.9201
 5612SOL    HW117999   8.118   8.512   0.869  0.6370 -1.9833 -1.3219
 5612SOL    HW218000   8.047   8.405   0.949  0.4388 -0.3985  0.6695
 5613SOL     OW18001   5.835   1.793   8.219 -0.0791  0.0717  0.7537
 5613SOL    HW118002   5.896   1.787   8.145 -1.2073  0.4751 -0.2429
 5613SOL    HW218003   5.861   1.722   8.277 -0.3794 -1.5528 -0.9895
 5614SOL     OW18004   7.748   4.142   4.508 -0.3048 -0.8427  0.1333
 5614SOL    HW118005   7.669   4.195   4.496  0.6376  0.5210 -0.1648
 5614SOL    HW218006   7.764   4.143   4.602  1.7241  2.5076 -0.1093
 5615SOL     OW18007   0.224   7.248   0.722  0.0412  0.6297 -0.3737
 5615SOL    HW118008   0.247   7.201   0.642 -0.7741 -0.1837 -0.1420
 5615SOL    HW218009   0.201   7.336   0.692  0.4148  0.5377 -0.9542
 5616SOL     OW18010   3.612   2.932   6.088  0.2383  0.2465  0.4339
 5616SOL    HW118011   3.569   2.975   6.013  0.8574  0.2494  0.0718
 5616SOL    HW218012   3.671   2.999   6.123  3.8294 -1.2047 -2.2322
 5617SOL     OW18013   1.799   4.197   6.205 -0.4324 -0.0351  0.2953
 5617SOL    HW118014   1.803   4.148   6.287  0.1073 -0.8541 -0.2091
 5617SOL    HW218015   1.855   4.148   6.144 -0.2988  0.9170 -0.3755
 5618SOL     OW18016   1.686   0.011   7.373 -0.2944  0.2983 -0.0309
 5618SOL    HW118017   1.741   0.081   7.338  1.3263 -1.3582 -1.0480
 5618SOL    HW218018   1.683  -0.054   7.303 -1.2817 -0.8751  1.0437
 5619SOL     OW18019   2.891   5.644   4.579 -0.9519  0.2527 -0.1382
 5619SOL    HW118020   2.836   5.642   4.501 -0.8315 -0.9507 -0.2186
 5619SOL    HW218021   2.854   5.576   4.636  0.0247 -0.0996  0.0933
 5620SOL     OW18022   7.646   3.089   6.330  0.3854  0.2217 -0.9091
 5620SOL    HW118023   7.559   3.128   6.321 -0.1686 -0.7655 -0.1079
 5620SOL    HW218024   7.704   3.147   6.281 -0.8063  0.6133 -1.9052
 5621SOL     OW18025   8.074   2.773   2.166 -0.6409  0.2621 -0.5343
 5621SOL    HW118026   8.168   2.793   2.164 -1.0634  2.7431  0.5527
 5621SOL    HW218027   8.069   2.680   2.145  2.2593 -0.6138  1.8962
 5622SOL     OW18028   3.713   5.928   0.039  0.2512  0.2349  0.5985
 5622SOL    HW118029   3.620   5.943   0.054 -0.1678 -1.4553  0.0170
 5622SOL    HW218030   3.751   5.922   0.126 -0.5801 -1.0531  0.9066
 5623SOL     OW18031   0.863   8.782   5.861 -0.0327  0.0779 -0.2788
 5623SOL    HW118032   0.828   8.768   5.772  1.4838 -0.8949 -0.7656
 5623SOL    HW218033   0.789   8.762   5.919 -0.6185 -0.8153 -1.2931
 5624SOL     OW18034   2.104   1.118   2.572 -0.4495  0.6578  0.7402
 5624SOL    HW118035   2.056   1.163   2.502 -0.4774  0.0242  0.3439
 5624SOL    HW218036   2.193   1.111   2.540 -0.5539 -0.0059  0.5840
 5625SOL     OW18037   3.649   8.763   8.702 -0.3125 -0.2056  0.2550
 5625SOL    HW118038   3.711   8.835   8.694 -2.3670  1.7890  1.0960
 5625SOL    HW218039   3.570   8.803   8.738 -1.6113 -2.8859  0.6715
 5626SOL     OW18040   8.382   0.795   3.848 -0.5284 -0.0723  0.0603
 5626SOL    HW118041   8.473   0.801   3.818 -0.1898 -0.4279  0.9653
 5626SOL    HW218042   8.330   0.794   3.768  0.1813  1.4418 -0.4507
 5627SOL     OW18043   5.321   3.469   0.472 -0.7929  0.5189  0.3312
 5627SOL    HW118044   5.264   3.522   0.416 -1.7317  0.1647  0.9326
 5627SOL    HW218045   5.308   3.504   0.560  0.6374  1.0374  0.3677
 5628SOL     OW18046   2.885   7.022   1.526  0.0324 -0.3305 -0.2696
 5628SOL    HW118047   2.940   7.100   1.521 -1.4557  0.8549  0.8308
 5628SOL    HW218048   2.916   6.975   1.603  0.0706 -0.1317 -0.1650
 5629SOL     OW18049   7.823   4.976   5.256  0.1342  0.2168 -0.0787
 5629SOL    HW118050   7.815   5.028   5.336  1.0370 -0.1251  0.2444
 5629SOL    HW218051   7.833   5.040   5.186 -2.4190  0.6133 -0.2030
 5630SOL     OW18052   2.115   0.526   6.853  0.2349 -0.4419 -0.8942
 5630SOL    HW118053   2.129   0.596   6.789 -3.1440  2.2172  0.9355
 5630SOL    HW218054   2.176   0.546   6.924 -0.3196  0.3805 -0.6307
 5631SOL     OW18055   0.814   4.306   3.546 -0.3565 -0.2971 -0.1149
 5631SOL    HW118056   0.850   4.351   3.470  0.5921 -0.4836  0.2005
 5631SOL    HW218057   0.736   4.262   3.513 -0.0691 -0.2189 -0.9372
 5632SOL     OW18058   6.225   5.269   6.171  0.2712 -0.5017 -0.2251
 5632SOL    HW118059   6.288   5.284   6.101 -0.1261 -0.8597 -0.6620
 5632SOL    HW218060   6.149   5.322   6.147  0.5307  0.2187  0.4876
 5633SOL     OW18061   2.842   1.862   6.742  0.1086  0.5214 -0.0714
 5633SOL    HW118062   2.833   1.935   6.681  0.3733  0.6544  0.0495
 5633SOL    HW218063   2.895   1.896   6.814 -2.3559  1.1826  1.5357
 5634SOL     OW18064   7.591   2.731   4.154  0.3774 -0.5484 -0.2311
 5634SOL    HW118065   7.504   2.696   4.132 -0.2153  1.3182 -1.0370
 5634SOL    HW218066   7.578   2.777   4.236  0.7089 -0.5869 -0.1561
 5635SOL     OW18067   1.074   2.349   1.307 -0.3227  0.0881 -0.0942
 5635SOL    HW118068   0.988   2.334   1.268 -0.5236  1.5208 -0.2477
 5635SOL    HW218069   1.115   2.415   1.251 -0.1229  1.2618  1.3675
 5636SOL     OW18070   1.684   8.425   7.919  0.0202  0.0282  0.5446
 5636SOL    HW118071   1.596   8.456   7.939  0.1811  0.8411  0.0412
 5636SOL    HW218072   1.718   8.488   7.855  2.0194  1.3782  2.7879
 5637SOL     OW18073   3.946   2.892   8.142 -0.0933  0.3957  0.4480
 5637SOL    HW118074   3.948   2.919   8.234 -0.1696 -0.0584  0.5826
 5637SOL    HW218075   3.918   2.801   8.144 -0.6038  0.5394 -0.0642
 5638SOL     OW18076   6.928   2.076   1.380  0.4308  0.3353 -0.0311
 5638SOL    HW118077   6.966   2.143   1.437 -0.0170  0.6981 -0.1525
 5638SOL    HW218078   6.973   2.086   1.297  0.0930  0.7470 -0.1669
 5639SOL     OW18079   8.668   4.181   1.317  0.5153 -0.3687 -0.3552
 5639SOL    HW118080   8.659   4.127   1.395  0.0248 -1.0470 -0.8678
 5639SOL    HW218081   8.630   4.265   1.341 -1.1664 -1.0957 -0.3715
 5640SOL     OW18082   4.557   7.323   3.303  0.3775 -0.3540  0.1925
 5640SOL    HW118083   4.601   7.406   3.283  3.4714 -1.6825  0.7689
 5640SOL    HW218084   4.556   7.275   3.220 -0.2461 -0.2358  0.1288
 5641SOL     OW18085   5.468   2.996   1.972 -0.2822 -0.1087 -0.2104
 5641SOL    HW118086   5.473   3.081   2.015 -0.6335  0.2133 -0.7789
 5641SOL    HW218087   5.551   2.987   1.926 -0.5605  0.3027 -0.8100
 5642SOL     OW18088   8.254   3.568   1.286 -0.0495  0.1064 -0.0694
 5642SOL    HW118089   8.270   3.662   1.283 -1.5911  0.4434  0.9533
 5642SOL    HW218090   8.177   3.555   1.231 -0.9053 -0.2659  1.1601
 5643SOL     OW18091   1.538   3.227   3.835  0.1728  0.1990  0.1434
 5643SOL    HW118092   1.529   3.262   3.746  0.7106  0.2946  0.1238
 5643SOL    HW218093   1.448   3.209   3.862  0.0041  0.1255 -0.4363
 5644SOL     OW18094   5.141   7.772   2.395 -0.1493 -0.2948  0.3101
 5644SOL    HW118095   5.126   7.704   2.328  1.8468 -1.4241  0.9181
 5644SOL    HW218096   5.235   7.789   2.390 -0.5827  2.4497  0.2342
 5645SOL     OW18097   0.480   2.031   1.034  0.7500  0.4917 -0.0126
 5645SOL    HW118098   0.420   1.968   0.994  1.5355  0.0492 -0.5182
 5645SOL    HW218099   0.546   2.047   0.966 -0.3046  3.1149 -0.5277
 5646SOL     OW18100   4.304   5.929   4.716  0.5034  0.5920  0.3391
 5646SOL    HW118101   4.210   5.942   4.717  0.4703  0.3522  0.2538
 5646SOL    HW218102   4.333   5.958   4.803  0.2843  0.1391  0.5634
 5647SOL     OW18103   4.910   0.959   8.761  0.9813  0.1670 -0.2820
 5647SOL    HW118104   4.959   0.965   8.680  0.3736  1.6358 -0.5679
 5647SOL    HW218105   4.821   0.936   8.734  0.8285  0.4339 -0.0177
 5648SOL     OW18106   0.830   2.103   5.092  0.1566 -0.3474 -0.1377
 5648SOL    HW118107   0.782   2.044   5.150 -1.1619  1.6094  0.9260
 5648SOL    HW218108   0.860   2.174   5.150  0.2069  0.8629 -1.5776
 5649SOL     OW18109   1.440   6.611   4.596 -0.0459 -0.0086 -0.5920
 5649SOL    HW118110   1.480   6.615   4.683 -0.7197  2.0000 -0.3101
 5649SOL    HW218111   1.346   6.612   4.613 -0.2199 -1.1918 -1.3379
 5650SOL     OW18112   5.600   1.950   2.635 -0.4567 -0.1138 -0.0819
 5650SOL    HW118113   5.564   1.874   2.681 -0.6535 -0.0560 -0.1369
 5650SOL    HW218114   5.530   2.015   2.639 -0.7292 -0.3285 -1.0252
 5651SOL     OW18115   2.592   5.827   0.745  0.1611 -0.1229  0.3136
 5651SOL    HW118116   2.539   5.748   0.732 -1.4944  1.0125 -0.1900
 5651SOL    HW218117   2.530   5.891   0.781  1.1887  1.2681 -0.3371
 5652SOL     OW18118   5.361   8.221   5.035  0.0978  0.0643 -0.1624
 5652SOL    HW118119   5.422   8.251   4.967  0.6852 -0.6476  0.0403
 5652SOL    HW218120   5.394   8.260   5.116 -0.9273  1.3813 -0.3324
 5653SOL     OW18121   5.977   3.959   0.482 -0.1439 -0.0018  0.0674
 5653SOL    HW118122   5.882   3.973   0.478 -0.4715 -1.8568  0.1090
 5653SOL    HW218123   5.998   3.920   0.397  0.8823  1.7810 -0.5366
 5654SOL     OW18124   3.286   6.798   3.485 -0.2921  0.0699  0.4552
 5654SOL    HW118125   3.321   6.862   3.423  0.3405  1.0237  1.7517
 5654SOL    HW218126   3.216   6.844   3.531 -1.4253 -0.9446 -0.1861
 5655SOL     OW18127   0.312   4.893   1.467 -0.6191  0.4759  0.4301
 5655SOL    HW118128   0.216   4.894   1.469 -0.6538  0.1056 -0.3618
 5655SOL    HW218129   0.333   4.884   1.374  0.2006  1.2972  0.5217
 5656SOL     OW18130   5.741   2.793   3.265  0.3074 -0.0068 -0.2006
 5656SOL    HW118131   5.808   2.810   3.199  0.0301  0.8665 -0.2592
 5656SOL    HW218132   5.664   2.768   3.214  0.9257 -2.4450 -0.1106
 5657SOL     OW18133   3.849   4.655   0.765 -0.2472  0.0217  0.3639
 5657SOL    HW118134   3.909   4.704   0.822  0.2625 -1.0909  0.8204
 5657SOL    HW218135   3.763   4.665   0.805  0.1050 -0.7418  1.3455
 5658SOL     OW18136   6.605   7.512   2.225  0.5141 -0.1681  0.3484
 5658SOL    HW118137   6.582   7.522   2.133  1.6102 -0.1700  0.0528
 5658SOL    HW218138   6.526   7.533   2.273 -0.4342 -1.3417 -0.6324
 5659SOL     OW18139   3.655   1.621   5.504  0.3431  0.1403  0.2758
 5659SOL    HW118140   3.677   1.541   5.457  0.6205 -1.3402  2.7604
 5659SOL    HW218141   3.576   1.654   5.460  1.0243 -0.6686 -1.6601
 5660SOL     OW18142   7.074   1.056   4.197  0.1007 -0.1768  0.1489
 5660SOL    HW118143   7.016   1.133   4.199 -0.8143 -0.7108 -2.0654
 5660SOL    HW218144   7.047   1.008   4.118  1.1759 -2.3754  1.0312
 5661SOL     OW18145   0.967   6.791   7.776  0.0883  0.0918  0.1243
 5661SOL    HW118146   1.004   6.706   7.753 -0.4947 -0.3601  0.8148
 5661SOL    HW218147   0.897   6.805   7.713 -0.7981 -0.6430  0.9254
 5662SOL     OW18148   3.636   1.949   0.924  0.1281  0.2195  0.6004
 5662SOL    HW118149   3.636   1.858   0.894 -1.8572  0.6069 -0.8000
 5662SOL    HW218150   3.617   1.943   1.017 -1.7236 -0.7973  0.2096
 5663SOL     OW18151   4.279   6.598   0.762  0.0296  0.3737  0.3242
 5663SOL    HW118152   4.290   6.503   0.768 -1.1212  0.2147  0.0481
 5663SOL    HW218153   4.205   6.618   0.819  0.5571  1.1817  0.7512
 5664SOL     OW18154   4.207   3.880   4.009  0.0382 -0.1842 -0.6952
 5664SOL    HW118155   4.141   3.918   4.067  1.2121  1.4318 -0.3621
 5664SOL    HW218156   4.255   3.819   4.064  0.9651  1.1355 -0.0094
 5665SOL     OW18157   1.307   5.923   0.018 -0.1409  0.3026  0.5571
 5665SOL    HW118158   1.261   6.006   0.012  0.2590  0.6824  2.2122
 5665SOL    HW218159   1.240   5.860   0.046 -0.7845 -0.3082 -2.1092
 5666SOL     OW18160   4.860   8.099   1.535 -0.2602 -0.2871 -0.3551
 5666SOL    HW118161   4.833   8.183   1.497  1.7081  0.8420  0.6227
 5666SOL    HW218162   4.920   8.122   1.605  0.8630 -2.5603 -0.4807
 5667SOL     OW18163   0.869   0.800   6.631 -0.4931 -0.3685 -0.5140
 5667SOL    HW118164   0.959   0.771   6.620 -0.8540 -1.9804  0.5038
 5667SOL    HW218165   0.830   0.790   6.544  0.4049  0.8180 -1.0845
 5668SOL     OW18166   5.622   3.557   4.886 -0.0067 -0.1312  0.2886
 5668SOL    HW118167   5.554   3.524   4.945 -0.2984  0.1625  0.1231
 5668SOL    HW218168   5.695   3.496   4.897 -0.7504 -1.1910 -0.4736
 5669SOL     OW18169   2.258   1.870   7.752  0.4101  0.1348  0.1396
 5669SOL    HW118170   2.336   1.817   7.767 -0.0606 -0.6463 -0.1339
 5669SOL    HW218171   2.188   1.824   7.799 -0.2287 -0.0938 -1.0113
 5670SOL     OW18172   7.927   4.601   6.322 -0.3430 -0.1505 -0.2985
 5670SOL    HW118173   7.961   4.685   6.290  1.2031  0.1357  1.8376
 5670SOL    HW218174   7.893   4.621   6.409 -2.2384 -1.3235 -0.7067
 5671SOL     OW18175   6.219   7.793   0.503  0.0941  0.0132 -0.6660
 5671SOL    HW118176   6.224   7.727   0.434 -0.7542 -0.1405 -0.5946
 5671SOL    HW218177   6.298   7.779   0.555  0.6453  0.0057 -1.4862
 5672SOL     OW18178   7.768   1.379   0.959  0.2580 -0.2263 -0.0471
 5672SOL    HW118179   7.699   1.430   0.918  1.0447 -0.6187 -1.9754
 5672SOL    HW218180   7.848   1.409   0.917  0.8631 -2.1946 -0.4017
 5673SOL     OW18181   3.559   7.104   5.502  0.0826  0.6157  0.1726
 5673SOL    HW118182   3.488   7.130   5.561 -0.0547  2.0976 -0.6191
 5673SOL    HW218183   3.518   7.039   5.444 -0.4628  0.9956  0.1219
 5674SOL     OW18184   1.141   1.286   1.086 -0.2073  0.4994  0.4560
 5674SOL    HW118185   1.133   1.194   1.062  0.7438  0.3023  0.8625
 5674SOL    HW218186   1.070   1.300   1.149  0.3161 -0.2638  1.2491
 5675SOL     OW18187   3.195   2.069   8.112  0.3289  0.3715  0.5181
 5675SOL    HW118188   3.275   2.028   8.146  0.6238  0.7303  0.2583
 5675SOL    HW218189   3.222   2.157   8.086  0.0496  0.2001 -0.3864
 5676SOL     OW18190   4.963   2.047   7.906  0.0381 -0.1774 -0.0450
 5676SOL    HW118191   5.010   2.096   7.839 -0.1163  0.0943  0.0434
 5676SOL    HW218192   5.032   2.017   7.966  0.2483 -1.0414 -0.7169
 5677SOL     OW18193   1.638   1.603   1.384 -0.0652 -0.7859  0.5454
 5677SOL    HW118194   1.700   1.655   1.332 -0.3764  0.7562  1.6425
 5677SOL    HW218195   1.686   1.525   1.409  1.8562  0.8607  2.2761
 5678SOL     OW18196   6.266   3.599   7.700 -0.4036  0.8422 -0.7367
 5678SOL    HW118197   6.178   3.564   7.696 -0.0221 -0.2634  0.0074
 5678SOL    HW218198   6.319   3.528   7.738  0.9273  1.2358 -1.7485
 5679SOL     OW18199   0.998   2.391   3.572  0.0598 -0.3215  0.6054
 5679SOL    HW118200   1.080   2.368   3.528  0.5151 -1.1357  1.7954
 5679SOL    HW218201   0.929   2.351   3.519  0.3823  0.7509 -0.6510
 5680SOL     OW18202   6.558   0.224   1.256 -0.1387  0.1070 -0.0696
 5680SOL    HW118203   6.641   0.221   1.209 -0.4174 -0.0296 -0.5657
 5680SOL    HW218204   6.541   0.317   1.269 -0.9377  0.2538 -1.8563
 5681SOL     OW18205   0.299   1.642   6.724 -0.4236  0.1599 -0.1997
 5681SOL    HW118206   0.313   1.735   6.741  3.6673  0.0681 -2.0259
 5681SOL    HW218207   0.245   1.640   6.645  1.8074  1.1768 -1.8399
 5682SOL     OW18208   8.062   2.483   5.147 -0.1482  0.0218 -0.1532
 5682SOL    HW118209   7.983   2.524   5.112 -0.6478 -1.3209 -0.6702
 5682SOL    HW218210   8.070   2.401   5.097  1.1838 -0.1910  0.3738
 5683SOL     OW18211   0.516   6.576   8.477  0.1170 -0.1465 -0.3258
 5683SOL    HW118212   0.503   6.484   8.500  0.1682 -0.1252 -0.2109
 5683SOL    HW218213   0.489   6.624   8.555  1.5606 -0.1293  0.1956
 5684SOL     OW18214   5.727   4.456   3.183 -0.3027  0.0480 -0.1997
 5684SOL    HW118215   5.815   4.422   3.199  0.5364  2.2256  0.1182
 5684SOL    HW218216   5.669   4.385   3.210  1.3202 -1.1287  0.3718
 5685SOL     OW18217   0.834   3.145   8.219  0.1458  0.3323 -0.7417
 5685SOL    HW118218   0.855   3.055   8.242  0.4081  0.6211  0.2060
 5685SOL    HW218219   0.885   3.198   8.281  0.8644  1.1627 -1.9839
 5686SOL     OW18220   6.491   2.044   6.800 -0.2037 -0.1028  0.5106
 5686SOL    HW118221   6.419   2.063   6.860 -0.6888 -1.3328  0.3608
 5686SOL    HW218222   6.562   2.013   6.857 -0.8872 -1.9032  0.4387
 5687SOL     OW18223   0.228   8.840   5.521 -0.0967 -0.6263 -0.2206
 5687SOL    HW118224   0.208   8.746   5.519 -2.1235 -0.2866  0.8924
 5687SOL    HW218225   0.223   8.864   5.614 -0.9107  0.8170 -0.6016
 5688SOL     OW18226   3.010   7.096   4.611  0.7386 -0.2528  0.2857
 5688SOL    HW118227   3.076   7.084   4.543  1.4854  2.0364  0.5133
 5688SOL    HW218228   3.040   7.173   4.661 -1.4835  0.1672  1.1241
 5689SOL     OW18229   0.830   7.822   8.609 -0.1964 -0.4782  0.3603
 5689SOL    HW118230   0.790   7.747   8.654  0.5413 -1.3867 -0.4429
 5689SOL    HW218231   0.795   7.817   8.520 -0.3092  0.2798  0.3554
 5690SOL     OW18232   1.207   6.707   7.235  0.1948 -0.0268 -0.1280
 5690SOL    HW118233   1.212   6.698   7.331 -0.0094 -0.7621 -0.1763
 5690SOL    HW218234   1.256   6.787   7.216 -1.7069  1.4443  0.8092
 5691SOL     OW18235   3.287   8.070   6.396  0.0671  0.0170 -0.0578
 5691SOL    HW118236   3.290   8.049   6.489  2.1601 -0.1257 -0.0956
 5691SOL    HW218237   3.333   8.154   6.390 -0.0290  0.0123 -0.9661
 5692SOL     OW18238   8.460   2.556   5.725  0.1037  0.1727 -0.4669
 5692SOL    HW118239   8.437   2.641   5.761 -1.1238  0.2765 -1.4115
 5692SOL    HW218240   8.506   2.511   5.795  1.3233  1.8340 -0.1545
 5693SOL     OW18241   0.531   7.951   6.771  0.2459  0.3564  0.3602
 5693SOL    HW118242   0.505   7.948   6.679  2.6405 -0.5421 -0.3730
 5693SOL    HW218243   0.599   8.018   6.775  1.7837 -1.1767  0.9722
 5694SOL     OW18244   0.484   0.821   2.881  0.0000 -0.1044 -0.0586
 5694SOL    HW118245   0.573   0.810   2.847 -0.1111  1.7590 -1.0560
 5694SOL    HW218246   0.427   0.806   2.806 -0.3645  1.6492 -0.1789
 5695SOL     OW18247   1.626   8.239   6.153  0.6973  0.6132  0.1847
 5695SOL    HW118248   1.702   8.297   6.162 -0.1577  1.9425 -0.6151
 5695SOL    HW218249   1.660   8.161   6.109  1.2692  2.1326 -2.3264
 5696SOL     OW18250   7.468   3.149   7.434 -0.5845 -0.2976  0.3158
 5696SOL    HW118251   7.398   3.084   7.428 -0.2221 -0.5739 -1.5611
 5696SOL    HW218252   7.432   3.227   7.392  0.6928 -0.9225 -2.1090
 5697SOL     OW18253   2.677   3.175   8.444 -0.0508  0.9460 -0.1434
 5697SOL    HW118254   2.744   3.232   8.483 -1.6557  1.7463  1.6072
 5697SOL    HW218255   2.697   3.176   8.350  2.9057  0.3822  0.3697
 5698SOL     OW18256   5.895   8.394   6.894 -0.2108  0.3895 -0.1130
 5698SOL    HW118257   5.849   8.317   6.859 -0.4488  1.3529 -2.0873
 5698SOL    HW218258   5.833   8.466   6.882  0.7331  1.2197 -0.1233
 5699SOL     OW18259   6.705   0.659   4.440 -0.0161 -0.0564  0.1247
 5699SOL    HW118260   6.737   0.717   4.372  1.9336  0.4820  1.4210
 5699SOL    HW218261   6.671   0.717   4.508  0.2509 -0.4931  0.6434
 5700SOL     OW18262   3.100   4.236   6.911  0.3655  0.0630  0.3707
 5700SOL    HW118263   3.040   4.304   6.881  0.9281  0.7381  0.7514
 5700SOL    HW218264   3.057   4.154   6.886 -1.5042  0.4533  2.0430
 5701SOL     OW18265   4.324   7.227   1.928  0.1741 -0.2791 -0.4051
 5701SOL    HW118266   4.299   7.246   2.018  3.1184  3.1094 -0.0582
 5701SOL    HW218267   4.415   7.199   1.934 -0.2156 -2.2016 -2.2501
 5702SOL     OW18268   0.280   6.663   3.974  0.4208  0.0879 -0.0008
 5702SOL    HW118269   0.235   6.745   3.997  0.8020 -0.5056  3.4058
 5702SOL    HW218270   0.371   6.690   3.961 -0.1364  0.7496 -3.3213
 5703SOL     OW18271   3.838   2.339   6.200  0.2880  0.1297  0.3770
 5703SOL    HW118272   3.882   2.295   6.272  0.5633 -0.6027 -0.2310
 5703SOL    HW218273   3.756   2.292   6.189  0.7475 -0.4815 -0.5170
 5704SOL     OW18274   6.894   8.592   0.838  0.4183 -0.1056 -0.4209
 5704SOL    HW118275   6.903   8.502   0.868  4.5461 -0.1635 -1.2342
 5704SOL    HW218276   6.892   8.644   0.919  2.0511 -0.7671  0.0938
 5705SOL     OW18277   3.349   2.385   8.030 -0.0048  0.3039 -0.0172
 5705SOL    HW118278   3.346   2.461   7.972  0.0566  0.9171  0.7580
 5705SOL    HW218279   3.413   2.408   8.097 -0.9476  0.1415  0.9900
 5706SOL     OW18280   2.343   5.046   8.010  0.5227  0.2788  0.0185
 5706SOL    HW118281   2.350   5.103   8.087  0.2124  0.4156 -0.0538
 5706SOL    HW218282   2.263   4.995   8.025 -0.4773  1.4872 -0.9932
 5707SOL     OW18283   0.087   0.457   0.903  0.5651 -0.2099  0.1155
 5707SOL    HW118284   0.111   0.366   0.888 -1.8416 -0.6026 -1.9577
 5707SOL    HW218285   0.050   0.486   0.820 -1.4261  1.7413  1.5885
 5708SOL     OW18286   4.175   6.229   7.128 -0.0716 -0.1401  0.0728
 5708SOL    HW118287   4.195   6.305   7.072  0.6717 -0.1864  0.2632
 5708SOL    HW218288   4.260   6.205   7.166 -0.4622 -0.5095  0.7175
 5709SOL     OW18289   5.523   4.808   8.474  0.5374 -0.8643 -0.2050
 5709SOL    HW118290   5.440   4.846   8.505  0.1978 -2.0774  0.4304
 5709SOL    HW218291   5.545   4.742   8.540  1.3755 -1.4117 -1.0168
 5710SOL     OW18292   2.625   6.052   6.312  0.0587  0.4502 -0.3529
 5710SOL    HW118293   2.678   6.057   6.391  0.2428 -0.0706 -0.4373
 5710SOL    HW218294   2.686   6.070   6.240 -0.3565  2.2014 -0.3199
 5711SOL     OW18295   3.037   7.782   1.879 -0.3707  0.1069 -0.4066
 5711SOL    HW118296   3.017   7.703   1.830 -2.6139 -1.1569  2.2089
 5711SOL    HW218297   3.123   7.766   1.917 -0.7901 -1.1373  0.0790
 5712SOL     OW18298   7.836   5.623   6.545  0.4404  0.7158 -0.3723
 5712SOL    HW118299   7.771   5.583   6.487  1.1819  0.1474 -0.8200
 5712SOL    HW218300   7.817   5.717   6.541 -1.2304  0.4575  0.5760
 5713SOL     OW18301   3.020   2.230   7.486  0.1039  0.6929  0.9147
 5713SOL    HW118302   3.059   2.161   7.539  0.6293  1.1782  1.1726
 5713SOL    HW218303   3.086   2.249   7.419 -0.1910  0.6939  0.6193
 5714SOL     OW18304   4.362   5.498   5.934 -0.6458 -0.2615  0.1480
 5714SOL    HW118305   4.268   5.501   5.920 -0.4570 -0.3791 -1.3312
 5714SOL    HW218306   4.399   5.523   5.849  0.6585 -1.2514  0.3960
 5715SOL     OW18307   7.527   7.408   2.622  0.0639  0.1645  0.0211
 5715SOL    HW118308   7.620   7.428   2.616 -0.1674  1.3096  0.0359
 5715SOL    HW218309   7.484   7.481   2.578 -0.7937 -0.9449 -1.0470
 5716SOL     OW18310   2.136   4.690   6.466 -0.1562 -0.0353  0.0703
 5716SOL    HW118311   2.220   4.659   6.432  0.2676  2.0596 -0.9582
 5716SOL    HW218312   2.084   4.611   6.477  1.4015 -1.2399 -0.8178
 5717SOL     OW18313   3.862   5.703   0.274 -0.1699  0.0770  0.1169
 5717SOL    HW118314   3.849   5.777   0.332 -0.2990 -1.4691  2.1941
 5717SOL    HW218315   3.786   5.647   0.288 -0.6231  0.0262 -2.2224
 5718SOL     OW18316   5.468   1.965   3.610 -0.2897  0.2687 -0.3330
 5718SOL    HW118317   5.555   2.002   3.616  0.3871 -1.2338 -0.3328
 5718SOL    HW218318   5.412   2.025   3.659  0.3175  2.4254 -2.1514
 5719SOL     OW18319   0.088   5.258   7.367 -0.2844  0.1437 -0.3039
 5719SOL    HW118320   0.154   5.310   7.413  0.5526 -0.0507 -1.2386
 5719SOL    HW218321   0.015   5.319   7.352  0.3447  0.8292 -0.6523
 5720SOL     OW18322   7.451   6.000   5.825  0.0673  0.1096  0.8077
 5720SOL    HW118323   7.456   5.906   5.811  1.7876  0.3675 -0.6298
 5720SOL    HW218324   7.386   6.031   5.762 -0.2361 -0.0636  1.0346
 5721SOL     OW18325   6.088   6.059   2.410  0.4517 -0.3959 -0.0959
 5721SOL    HW118326   6.119   6.109   2.334  0.9243  1.1313  1.0596
 5721SOL    HW218327   6.089   5.968   2.380  0.9920  0.1247 -1.7970
 5722SOL     OW18328   8.667   0.063   2.786 -0.0989  0.6844  0.0101
 5722SOL    HW118329   8.621   0.000   2.842 -0.2551  0.5643 -0.2478
 5722SOL    HW218330   8.755   0.069   2.823 -0.4551  1.2701  0.7957
 5723SOL     OW18331   2.551   8.219   7.097 -0.2611 -0.0512  0.1492
 5723SOL    HW118332   2.580   8.292   7.151 -0.2269  1.3720 -1.7192
 5723SOL    HW218333   2.475   8.184   7.143  1.2233 -0.5451  2.4204
 5724SOL     OW18334   0.912   1.033   4.478 -0.1872 -0.1129 -0.0412
 5724SOL    HW118335   0.984   1.076   4.524 -0.1340  0.5235 -0.6878
 5724SOL    HW218336   0.833   1.072   4.516 -0.1239  1.2550 -1.2389
 5725SOL     OW18337   2.713   8.297   1.020 -0.4065 -0.1967 -0.5779
 5725SOL    HW118338   2.660   8.292   1.099 -0.6977 -0.0064 -0.7557
 5725SOL    HW218339   2.773   8.369   1.035  0.7518 -1.2706  0.1800
 5726SOL     OW18340   4.064   2.051   4.133 -0.7995  0.2066  0.2513
 5726SOL    HW118341   4.158   2.071   4.128 -0.9440  0.9645  0.4446
 5726SOL    HW218342   4.049   1.989   4.062 -0.6974  2.2966 -1.7278
 5727SOL     OW18343   1.989   0.618   6.517  0.1703  0.2244  0.2390
 5727SOL    HW118344   1.922   0.647   6.455 -0.2075  0.4969  0.7682
 5727SOL    HW218345   1.953   0.537   6.555  0.7946 -0.4319 -0.5322
 5728SOL     OW18346   1.776   8.552   3.815 -0.4222  0.4256 -0.2345
 5728SOL    HW118347   1.720   8.517   3.745  0.2757 -0.9444 -0.1294
 5728SOL    HW218348   1.717   8.607   3.867 -1.5349 -0.4699 -0.5042
 5729SOL     OW18349   1.459   6.428   1.993 -0.0692 -0.2615  0.0725
 5729SOL    HW118350   1.548   6.462   1.986  0.0402  0.0419  2.4221
 5729SOL    HW218351   1.463   6.341   1.953  1.5885 -0.7283  1.1784
 5730SOL     OW18352   5.733   5.761   3.154 -0.2025 -0.6256  0.1916
 5730SOL    HW118353   5.725   5.777   3.248  0.4133  2.2292 -0.1625
 5730SOL    HW218354   5.675   5.825   3.113 -1.1445 -2.4072 -1.3993
 5731SOL     OW18355   7.712   4.683   8.731  0.3988  0.2637  0.0253
 5731SOL    HW118356   7.684   4.592   8.732  0.6035  0.2026  1.1062
 5731SOL    HW218357   7.792   4.683   8.677  0.0713 -0.0846 -0.4674
 5732SOL     OW18358   0.867   6.710   1.345 -0.0450 -0.4674 -0.3880
 5732SOL    HW118359   0.845   6.634   1.399  0.8061  0.0467  0.7130
 5732SOL    HW218360   0.958   6.729   1.366 -0.7239  1.9066  0.6710
 5733SOL     OW18361   8.271   2.721   3.265 -0.5197 -0.1601  0.2844
 5733SOL    HW118362   8.236   2.651   3.320 -0.0609 -1.8081 -1.4066
 5733SOL    HW218363   8.314   2.781   3.326 -0.7831 -1.4335  1.7677
 5734SOL     OW18364   1.113   7.061   4.601  0.5316 -0.4839 -0.5300
 5734SOL    HW118365   1.020   7.044   4.616 -0.2448  0.5796 -3.5459
 5734SOL    HW218366   1.119   7.156   4.596  2.5384 -0.2185  3.1832
 5735SOL     OW18367   5.144   2.187   4.553 -0.2269  0.3252 -0.1017
 5735SOL    HW118368   5.179   2.274   4.571 -1.2013  0.5285  0.8679
 5735SOL    HW218369   5.050   2.196   4.563 -0.4976 -0.4785 -1.5898
 5736SOL     OW18370   1.638   2.589   8.581 -0.0908 -0.1991 -0.2304
 5736SOL    HW118371   1.580   2.658   8.548  0.3824 -0.5971 -2.0358
 5736SOL    HW218372   1.581   2.514   8.596 -0.1349 -0.5092 -1.7497
 5737SOL     OW18373   6.005   2.755   0.847 -0.4463 -0.3353 -0.3114
 5737SOL    HW118374   5.918   2.719   0.863 -1.1387  0.6960 -1.5262
 5737SOL    HW218375   5.992   2.816   0.774  0.9183  1.3302  0.7750
 5738SOL     OW18376   1.169   1.812   5.687  0.0671  0.0065  0.5186
 5738SOL    HW118377   1.112   1.770   5.752 -0.7715 -1.6721 -1.2064
 5738SOL    HW218378   1.147   1.905   5.693 -3.5318 -0.6123 -0.5702
 5739SOL     OW18379   7.066   2.371   2.904  0.1680  0.2150  0.0204
 5739SOL    HW118380   6.992   2.354   2.962  0.8646  0.5087  1.0249
 5739SOL    HW218381   7.044   2.453   2.860 -0.1890  0.1966  0.1625
 5740SOL     OW18382   2.713   6.403   2.172  0.3139 -0.2733  0.0001
 5740SOL    HW118383   2.764   6.476   2.207 -1.3376  1.3437 -0.7538
 5740SOL    HW218384   2.763   6.372   2.097  1.3078 -0.2830  0.6557
 5741SOL     OW18385   2.190   2.945   5.780 -0.6266  0.2171  0.1260
 5741SOL    HW118386   2.198   3.034   5.814 -0.0241  0.1682  0.1208
 5741SOL    HW218387   2.098   2.937   5.755 -0.9024  0.5103  1.0112
 5742SOL     OW18388   8.511   5.172   0.028 -0.7273  0.1317  0.4025
 5742SOL    HW118389   8.503   5.267   0.024 -2.4008 -0.0226 -1.2187
 5742SOL    HW218390   8.542   5.155   0.117 -0.8221  2.1615  0.8786
 5743SOL     OW18391   7.075   8.355   4.748  0.1211 -0.0909  0.1074
 5743SOL    HW118392   7.059   8.387   4.659  0.8736  0.4273  0.1462
 5743SOL    HW218393   6.994   8.374   4.795 -1.4034 -2.9023 -1.1150
 5744SOL     OW18394   4.976   8.192   6.118 -0.4761  0.5510  0.3182
 5744SOL    HW118395   4.983   8.259   6.050 -0.6091  1.1757  0.9031
 5744SOL    HW218396   5.018   8.232   6.195 -0.1419 -0.2231  0.5469
 5745SOL     OW18397   7.330   5.133   2.593  0.1008 -0.0804 -0.2515
 5745SOL    HW118398   7.390   5.129   2.667  0.6737 -2.1311 -0.7722
 5745SOL    HW218399   7.331   5.045   2.556 -0.1341  0.8746 -2.7399
 5746SOL     OW18400   7.913   4.070   5.210 -0.4686 -0.0964 -0.7139
 5746SOL    HW118401   7.821   4.067   5.184 -1.0692  1.5649  1.0049
 5746SOL    HW218402   7.957   4.115   5.137 -1.1099 -0.4432 -1.3221
 5747SOL     OW18403   6.957   6.194   0.774 -0.0001 -0.2556 -0.6267
 5747SOL    HW118404   6.971   6.279   0.733  1.3519  0.3184  0.9159
 5747SOL    HW218405   6.981   6.131   0.706  2.8769  0.6576 -0.6109
 5748SOL     OW18406   4.777   2.764   7.368  0.1749  0.2841 -0.1333
 5748SOL    HW118407   4.810   2.675   7.380 -0.7593 -0.1922 -0.9233
 5748SOL    HW218408   4.688   2.752   7.337  0.4916  1.4743 -1.6179
 5749SOL     OW18409   5.056   7.337   2.451  0.0628  0.1897  0.1531
 5749SOL    HW118410   5.129   7.288   2.488 -0.7088 -1.0836  0.0668
 5749SOL    HW218411   5.092   7.379   2.373  1.0005  0.6064  0.7956
 5750SOL     OW18412   5.416   5.350   5.091 -0.0098 -0.0982  0.0924
 5750SOL    HW118413   5.456   5.271   5.055 -0.9059 -0.6952  0.3543
 5750SOL    HW218414   5.457   5.422   5.043 -0.6534 -0.8173 -1.6103
 5751SOL     OW18415   6.960   4.697   8.726 -0.5531  0.5063 -0.4170
 5751SOL    HW118416   6.947   4.639   8.651 -2.3759  0.2951  0.0115
 5751SOL    HW218417   6.915   4.778   8.701 -0.4772  0.7176  0.1346
 5752SOL     OW18418   5.901   2.803   7.489  0.6079  0.7302  0.9988
 5752SOL    HW118419   5.833   2.849   7.538  0.0750  0.6373  0.3545
 5752SOL    HW218420   5.895   2.712   7.519 -0.8695  0.3032 -0.4386
 5753SOL     OW18421   3.896   4.561   7.331 -0.2515 -0.4555  0.5221
 5753SOL    HW118422   3.845   4.618   7.388  0.1989  1.3910 -0.8050
 5753SOL    HW218423   3.831   4.518   7.276 -0.5754 -0.8952  1.2395
 5754SOL     OW18424   5.601   5.030   4.584  0.4573 -0.2772  0.7325
 5754SOL    HW118425   5.618   4.955   4.528  2.3909 -0.7472  1.8698
 5754SOL    HW218426   5.615   5.106   4.527 -1.4840 -0.7093 -0.4132
 5755SOL     OW18427   5.258   8.718   2.954 -0.4428  0.6644 -0.0891
 5755SOL    HW118428   5.291   8.803   2.983 -1.1701  1.7715 -2.2557
 5755SOL    HW218429   5.327   8.685   2.897  0.1661 -0.5996  1.3246
 5756SOL     OW18430   8.012   8.328   0.656  0.4181  0.2948  0.1679
 5756SOL    HW118431   7.991   8.235   0.647 -0.5095  0.5155 -0.0104
 5756SOL    HW218432   7.927   8.370   0.670  0.8460  1.1044  0.3430
 5757SOL     OW18433   5.268   8.583   7.916 -0.0598 -0.5310  0.5549
 5757SOL    HW118434   5.259   8.678   7.926 -1.4479 -0.6275  0.3235
 5757SOL    HW218435   5.304   8.572   7.828 -0.7087 -0.2519  0.2517
 5758SOL     OW18436   3.521   8.148   3.145  0.0834 -0.3279  0.5339
 5758SOL    HW118437   3.540   8.230   3.190  0.6376 -0.4069  0.4466
 5758SOL    HW218438   3.515   8.172   3.052 -0.6138 -0.2425  0.5932
 5759SOL     OW18439   8.291   1.042   5.537  0.1259  0.0668  0.2756
 5759SOL    HW118440   8.296   0.949   5.516  0.7277  0.0350  0.5352
 5759SOL    HW218441   8.336   1.085   5.465  0.2834  0.1163  0.4021
 5760SOL     OW18442   4.347   1.666   3.904  1.1241  0.3512 -0.2075
 5760SOL    HW118443   4.330   1.676   3.997 -1.0945 -0.6910 -0.4243
 5760SOL    HW218444   4.432   1.622   3.899  0.0213 -2.2170  1.5025
 5761SOL     OW18445   1.523   4.896   2.953 -0.0642 -0.8369 -0.2274
 5761SOL    HW118446   1.515   4.873   3.045 -2.4381  0.0960 -0.1496
 5761SOL    HW218447   1.482   4.822   2.907  0.8508 -1.1601 -0.5536
 5762SOL     OW18448   0.101   3.919   5.050 -0.3463 -0.5322  0.6499
 5762SOL    HW118449   0.066   3.856   5.113 -0.7584  0.5498  1.5312
 5762SOL    HW218450   0.061   4.003   5.074  0.1400  0.0692 -0.5288
 5763SOL     OW18451   1.144   6.519   1.797 -0.5192 -0.5677  0.0630
 5763SOL    HW118452   1.112   6.442   1.749  1.1744 -1.3715  0.1541
 5763SOL    HW218453   1.236   6.527   1.771 -0.5406  1.1964  0.3850
 5764SOL     OW18454   5.744   2.310   0.293 -0.3385 -0.5001 -0.1495
 5764SOL    HW118455   5.737   2.364   0.214 -1.5276  1.6501  1.3249
 5764SOL    HW218456   5.789   2.366   0.356 -0.6852 -1.6356  1.1471
 5765SOL     OW18457   6.761   1.880   6.256  0.1382  0.2189  0.0788
 5765SOL    HW118458   6.713   1.941   6.312 -2.3066  1.7980 -3.3449
 5765SOL    HW218459   6.694   1.821   6.223  1.6671 -1.3648 -0.3205
 5766SOL     OW18460   5.323   0.960   7.699  0.6672 -0.6923  0.2991
 5766SOL    HW118461   5.413   0.937   7.675  0.2782 -2.5948  0.5093
 5766SOL    HW218462   5.279   0.875   7.709 -2.2202  0.0835 -3.6746
 5767SOL     OW18463   0.841   6.170   6.341 -0.1916  0.3125  0.1304
 5767SOL    HW118464   0.805   6.121   6.267  0.3443  0.3175 -0.1381
 5767SOL    HW218465   0.832   6.262   6.315  2.3892  0.2998 -1.1276
 5768SOL     OW18466   0.500   6.109   7.932 -0.0774 -0.0748 -0.1228
 5768SOL    HW118467   0.463   6.021   7.936  1.6989 -1.0524 -2.5364
 5768SOL    HW218468   0.559   6.115   8.007  0.1456 -1.1354 -0.2058
 5769SOL     OW18469   0.702   5.142   2.362  0.1110  1.1318 -0.5304
 5769SOL    HW118470   0.639   5.086   2.406  2.3500 -0.0968  1.3368
 5769SOL    HW218471   0.721   5.211   2.425  1.0015  1.1694 -0.8216
 5770SOL     OW18472   6.394   4.863   5.411 -0.1637 -0.4988  0.7142
 5770SOL    HW118473   6.439   4.946   5.394  1.0193 -1.2154  0.2283
 5770SOL    HW218474   6.428   4.834   5.496 -0.3138 -0.6521  0.7229
 5771SOL     OW18475   1.012   2.231   4.123  0.4523 -0.1154 -0.1533
 5771SOL    HW118476   0.963   2.186   4.192 -0.1755 -0.1695 -0.6317
 5771SOL    HW218477   0.946   2.258   4.060  0.9083  0.8692 -0.2188
 5772SOL     OW18478   6.266   0.397   8.373  0.8870  0.2908 -0.1220
 5772SOL    HW118479   6.243   0.329   8.437  0.9734  0.5323  0.1701
 5772SOL    HW218480   6.335   0.448   8.416  1.4148  0.0552 -0.6719
 5773SOL     OW18481   7.598   5.490   5.306 -0.0090 -0.4950 -0.1101
 5773SOL    HW118482   7.525   5.467   5.363  0.4367  1.1416  1.1872
 5773SOL    HW218483   7.676   5.456   5.350  0.1899 -0.6015 -0.5386
 5774SOL     OW18484   3.499   6.269   8.622  0.0243 -0.6868  0.3942
 5774SOL    HW118485   3.439   6.196   8.639 -2.1263  0.1529 -2.7715
 5774SOL    HW218486   3.463   6.342   8.673  0.7871 -1.1379  1.6475
 5775SOL     OW18487   6.039   4.390   3.659 -0.0828  0.2942 -0.1484
 5775SOL    HW118488   6.104   4.337   3.613 -2.0080  0.2374 -3.0387
 5775SOL    HW218489   6.091   4.447   3.716  2.3682 -1.0264 -0.9153
 5776SOL     OW18490   2.622   0.240   4.479  0.2366 -0.2145  0.0779
 5776SOL    HW118491   2.582   0.156   4.499  2.0469 -1.1151  0.1500
 5776SOL    HW218492   2.713   0.231   4.509  0.7400  1.4139 -0.8327
 5777SOL     OW18493   2.240   5.275   2.112 -0.6562  0.0793  0.0050
 5777SOL    HW118494   2.313   5.266   2.174  1.3918  2.2917 -1.8754
 5777SOL    HW218495   2.231   5.188   2.073  0.9046 -0.2910  0.3898
 5778SOL     OW18496   0.809   0.697   4.229  0.4113 -0.0707 -0.0730
 5778SOL    HW118497   0.723   0.739   4.224 -0.5869 -2.1231 -1.0392
 5778SOL    HW218498   0.815   0.646   4.148  1.0391 -2.6866  1.5350
 5779SOL     OW18499   3.885   2.770   1.629  0.7368 -0.1178  0.2530
 5779SOL    HW118500   3.964   2.823   1.617  1.4827 -0.9318  1.3318
 5779SOL    HW218501   3.908   2.684   1.593  0.7081 -0.6523  1.4731
 5780SOL     OW18502   8.820   3.724   2.968  0.5311  0.0141 -0.3338
 5780SOL    HW118503   8.733   3.759   2.947  1.3068  1.7801 -0.7166
 5780SOL    HW218504   8.840   3.760   3.055  1.8785  1.6408 -1.2734
 5781SOL     OW18505   4.003   8.607   0.619  0.0497 -0.0589  0.4547
 5781SOL    HW118506   4.027   8.687   0.665  0.5539  1.5365 -2.3103
 5781SOL    HW218507   3.927   8.633   0.565  2.5818 -0.0701 -3.5409
 5782SOL     OW18508   3.914   8.847   6.956  0.0524  0.8828  0.3468
 5782SOL    HW118509   3.971   8.852   7.032 -0.3270  2.9510  0.5590
 5782SOL    HW218510   3.930   8.929   6.908 -1.5685  0.7890 -0.4287
 5783SOL     OW18511   3.057   8.431   4.509  0.2299 -0.1439 -0.1327
 5783SOL    HW118512   2.975   8.419   4.461 -1.0461 -0.2306  1.9422
 5783SOL    HW218513   3.057   8.360   4.574  2.2730 -0.5070 -0.4540
 5784SOL     OW18514   5.131   5.831   5.463  0.1855  0.8930  0.0538
 5784SOL    HW118515   5.084   5.767   5.517  1.6314  1.1187  1.6708
 5784SOL    HW218516   5.224   5.816   5.483  0.8599  0.7217 -2.7201
 5785SOL     OW18517   1.402   5.251   6.135 -0.4906  0.2500 -0.2947
 5785SOL    HW118518   1.435   5.257   6.224 -0.9468 -1.7962  0.0744
 5785SOL    HW218519   1.361   5.336   6.118 -3.0486 -0.2329  2.5763
 5786SOL     OW18520   7.754   1.528   5.602  0.6005  0.4800  0.0808
 5786SOL    HW118521   7.837   1.533   5.555  0.1113 -0.4998 -0.9486
 5786SOL    HW218522   7.724   1.438   5.588  0.0213  0.4094  1.5861
 5787SOL     OW18523   5.626   1.851   7.527  0.1502 -0.6181 -0.5199
 5787SOL    HW118524   5.577   1.834   7.608  0.6850 -0.6462 -0.1914
 5787SOL    HW218525   5.594   1.785   7.465  2.6980 -3.5208  0.9450
 5788SOL     OW18526   5.846   6.647   8.068  0.3054 -0.1618  0.5832
 5788SOL    HW118527   5.775   6.612   8.014  1.7821 -0.7047 -1.1050
 5788SOL    HW218528   5.920   6.658   8.008  1.1758  2.0094  1.9027
 5789SOL     OW18529   0.620   1.686   5.347 -0.5868  0.0482  0.2960
 5789SOL    HW118530   0.643   1.667   5.438  2.7024 -1.2749 -0.6701
 5789SOL    HW218531   0.602   1.601   5.308  0.0810  0.3819 -0.7686
 5790SOL     OW18532   3.946   4.019   5.742 -0.1948  0.0659 -0.7817
 5790SOL    HW118533   3.986   3.959   5.805 -1.0131 -1.3335 -1.5475
 5790SOL    HW218534   4.004   4.095   5.742  0.7450 -0.6028  0.3968
 5791SOL     OW18535   6.912   0.293   1.766 -0.1192 -0.0831  0.2688
 5791SOL    HW118536   6.860   0.216   1.745 -0.1860 -0.3600  1.3977
 5791SOL    HW218537   6.973   0.302   1.693 -0.8959 -0.5038 -0.4426
 5792SOL     OW18538   7.442   0.715   7.160 -0.5393  0.4848 -0.8392
 5792SOL    HW118539   7.531   0.731   7.191 -1.1578  0.2599  1.2275
 5792SOL    HW218540   7.391   0.787   7.196 -1.3897  0.0137 -1.0830
 5793SOL     OW18541   8.780   5.477   0.479 -0.4438  0.9113  0.5821
 5793SOL    HW118542   8.760   5.560   0.521  1.0318  1.8302 -0.3951
 5793SOL    HW218543   8.859   5.495   0.427 -0.2543 -1.0227  0.1006
 5794SOL     OW18544   4.950   3.696   0.979  0.6143 -0.0960 -0.0756
 5794SOL    HW118545   4.916   3.781   1.006  0.2334 -0.7095  1.4372
 5794SOL    HW218546   4.898   3.632   1.028 -0.5880 -1.3380 -2.7655
 5795SOL     OW18547   0.896   8.549   4.533  0.6798 -0.8625  0.0341
 5795SOL    HW118548   0.849   8.531   4.615  0.4001  0.1209  0.0960
 5795SOL    HW218549   0.884   8.643   4.518  3.5488 -0.3043  0.6477
 5796SOL     OW18550   0.798   5.054   7.923  0.2641 -0.0682  0.5735
 5796SOL    HW118551   0.839   5.135   7.955 -0.9753  0.5569  0.6184
 5796SOL    HW218552   0.852   5.029   7.848  1.4119  0.0949  1.3203
 5797SOL     OW18553   7.088   2.692   0.585 -0.1958  0.0800 -0.5401
 5797SOL    HW118554   7.031   2.641   0.527  0.3648 -0.9373 -0.2022
 5797SOL    HW218555   7.174   2.688   0.544 -0.0081  0.2053 -0.1617
 5798SOL     OW18556   0.336   1.942   4.261  0.6719  0.5554  0.2992
 5798SOL    HW118557   0.404   2.002   4.230  0.7127  0.6569  0.5818
 5798SOL    HW218558   0.273   1.998   4.306  0.4203  0.4553  0.0730
 5799SOL     OW18559   6.474   1.643   3.096 -0.4577  0.4078 -0.3119
 5799SOL    HW118560   6.439   1.585   3.027 -0.3066 -0.6601  0.4812
 5799SOL    HW218561   6.539   1.697   3.051 -1.4529  0.8167 -1.3228
 5800SOL     OW18562   6.059   4.507   7.915  0.0248  0.1204 -0.0812
 5800SOL    HW118563   6.084   4.585   7.966 -1.2617  0.0486  0.6997
 5800SOL    HW218564   6.100   4.434   7.961  0.5096  0.2498 -0.3056
 5801SOL     OW18565   1.315   2.310   0.663  0.7865  0.7897 -0.2413
 5801SOL    HW118566   1.376   2.258   0.716 -0.9967 -1.4597 -0.2361
 5801SOL    HW218567   1.259   2.353   0.728 -0.6666 -1.0658 -0.1490
 5802SOL     OW18568   3.373   4.876   1.818 -0.2440 -0.1356 -0.0560
 5802SOL    HW118569   3.360   4.816   1.744 -3.4799 -1.8174  1.6366
 5802SOL    HW218570   3.420   4.823   1.883  0.6128  0.6043 -0.0550
 5803SOL     OW18571   5.156   1.644   6.586  0.5261 -0.4160  0.1108
 5803SOL    HW118572   5.077   1.695   6.606  1.4097  1.2543 -0.4221
 5803SOL    HW218573   5.198   1.631   6.671  0.4608  0.0603  0.2207
 5804SOL     OW18574   2.601   4.854   6.372  0.0684 -0.1835  0.3334
 5804SOL    HW118575   2.597   4.934   6.319 -0.4906 -0.1171  0.4703
 5804SOL    HW218576   2.695   4.840   6.387  0.1322  1.3896  1.6921
 5805SOL     OW18577   3.824   8.839   2.215  0.4251 -0.1000  0.3613
 5805SOL    HW118578   3.760   8.815   2.282 -1.2273 -2.1146 -1.7856
 5805SOL    HW218579   3.787   8.917   2.174  0.6922  0.2673  0.8118
 5806SOL     OW18580   0.604   8.625   1.723 -0.3585 -0.0826 -0.2165
 5806SOL    HW118581   0.599   8.660   1.635 -0.9182  0.2214 -0.0689
 5806SOL    HW218582   0.667   8.554   1.717  1.6676  1.6352 -0.2866
 5807SOL     OW18583   1.814   8.224   0.793 -0.7222 -0.4944  0.3398
 5807SOL    HW118584   1.784   8.237   0.703 -2.6548 -2.0035  0.6833
 5807SOL    HW218585   1.778   8.298   0.842  1.2125  0.9053 -0.2440
 5808SOL     OW18586   1.934   6.493   2.565  0.3209  0.0515 -0.0272
 5808SOL    HW118587   1.935   6.562   2.499 -0.0407  0.9078  0.8408
 5808SOL    HW218588   2.018   6.448   2.554  0.6971  0.8293 -0.4094
 5809SOL     OW18589   8.595   0.297   6.171 -0.6133 -0.4857  0.1412
 5809SOL    HW118590   8.563   0.207   6.169 -2.3952  0.0694  1.1172
 5809SOL    HW218591   8.681   0.293   6.130 -1.4545 -2.2928 -1.6187
 5810SOL     OW18592   1.486   4.916   3.874  0.3884 -0.8715 -0.3278
 5810SOL    HW118593   1.406   4.952   3.836  0.6864  0.0204 -0.1488
 5810SOL    HW218594   1.474   4.821   3.871 -0.6574 -0.7482 -0.3248
 5811SOL     OW18595   1.630   4.541   4.427 -0.0802  0.1007 -0.0081
 5811SOL    HW118596   1.706   4.528   4.370  1.9245  1.4327  2.1920
 5811SOL    HW218597   1.638   4.473   4.494 -2.6963 -1.7782 -1.4206
 5812SOL     OW18598   0.071   2.367   4.849 -0.0018  0.0863  0.5240
 5812SOL    HW118599   0.130   2.293   4.837 -2.4970 -1.8138 -1.3651
 5812SOL    HW218600   0.074   2.414   4.766  0.6422  1.4378  1.2863
 5813SOL     OW18601   1.676   8.208   1.698 -0.4560 -0.0954 -0.0250
 5813SOL    HW118602   1.763   8.243   1.716 -0.5371 -0.3798  0.9462
 5813SOL    HW218603   1.673   8.202   1.602  0.4487  0.2577 -0.0919
 5814SOL     OW18604   5.785   6.530   1.873  0.5299 -0.2496 -0.3320
 5814SOL    HW118605   5.692   6.541   1.856  0.8340  0.6561 -1.5193
 5814SOL    HW218606   5.826   6.528   1.787  1.4108 -2.8760  0.0423
 5815SOL     OW18607   3.615   5.561   1.531 -0.3601 -0.1721  0.3782
 5815SOL    HW118608   3.585   5.528   1.446  2.4363  0.2378 -0.9070
 5815SOL    HW218609   3.631   5.482   1.583  1.1371 -0.6802 -0.7591
 5816SOL     OW18610   7.226   2.444   3.952 -0.4099 -0.8119 -0.1429
 5816SOL    HW118611   7.166   2.411   3.886 -0.4057 -1.1510  0.0224
 5816SOL    HW218612   7.308   2.399   3.935 -0.7166 -1.7727  0.8020
 5817SOL     OW18613   3.939   8.362   8.147 -0.5896  0.0558  0.5299
 5817SOL    HW118614   4.016   8.348   8.202 -0.0997  3.1399  0.7710
 5817SOL    HW218615   3.893   8.435   8.187 -1.4172  0.9727 -1.9123
 5818SOL     OW18616   3.391   3.871   7.015  0.3659  0.0560  0.1882
 5818SOL    HW118617   3.423   3.890   7.103  1.3809 -0.5032 -0.0360
 5818SOL    HW218618   3.390   3.957   6.972  3.0255 -0.0230 -0.2181
 5819SOL     OW18619   4.524   5.276   0.164 -0.4091 -0.7820 -0.0675
 5819SOL    HW118620   4.439   5.296   0.124  0.4112  0.5742 -1.2882
 5819SOL    HW218621   4.572   5.230   0.095 -0.0954 -1.3825  0.5481
 5820SOL     OW18622   7.431   5.370   5.803 -0.0725  0.2777  0.6831
 5820SOL    HW118623   7.458   5.461   5.814  2.1356 -0.2558  0.2130
 5820SOL    HW218624   7.484   5.338   5.730 -1.3793 -1.1709  0.3291
 5821SOL     OW18625   1.422   7.369   7.217  0.3811  0.6130  0.1177
 5821SOL    HW118626   1.497   7.326   7.259  1.1466  0.9476 -0.8686
 5821SOL    HW218627   1.425   7.339   7.127  0.3231  1.9338 -0.3397
 5822SOL     OW18628   8.269   6.256   0.665 -0.1238 -0.5777 -0.3458
 5822SOL    HW118629   8.274   6.337   0.715  0.5863 -0.1088 -1.1565
 5822SOL    HW218630   8.227   6.194   0.725  1.8683 -0.4072  1.3371
 5823SOL     OW18631   7.325   2.100   5.757 -0.3561 -0.1611 -0.3122
 5823SOL    HW118632   7.400   2.065   5.709 -0.5747  0.1649 -0.9108
 5823SOL    HW218633   7.255   2.037   5.742  0.1016 -1.1126  1.2610
 5824SOL     OW18634   6.114   5.870   4.735  0.7355  0.3919 -0.2555
 5824SOL    HW118635   6.176   5.932   4.775  2.7785 -1.4829 -0.3588
 5824SOL    HW218636   6.033   5.921   4.725  2.1936  2.9252 -0.0166
 5825SOL     OW18637   7.400   7.442   3.732  0.9039  0.1563  0.5379
 5825SOL    HW118638   7.393   7.367   3.792 -0.8776  0.6174  0.9407
 5825SOL    HW218639   7.447   7.407   3.656 -0.6674 -1.6394  0.3252
 5826SOL     OW18640   6.265   5.691   6.691 -0.5811 -0.1790 -0.2573
 5826SOL    HW118641   6.325   5.759   6.660 -0.1079 -0.6349 -0.3644
 5826SOL    HW218642   6.203   5.737   6.748  1.5567 -0.0944  2.1918
 5827SOL     OW18643   0.394   2.529   1.584  0.0201 -0.0389  0.1119
 5827SOL    HW118644   0.473   2.572   1.552  1.4227 -2.4101  0.1293
 5827SOL    HW218645   0.389   2.448   1.533 -1.1522 -0.9944  1.6516
 5828SOL     OW18646   6.208   0.779   1.828  0.2240 -0.3894  0.2838
 5828SOL    HW118647   6.200   0.734   1.744 -1.1950 -0.5995  0.5093
 5828SOL    HW218648   6.153   0.857   1.819  1.0205  0.2329  0.6161
 5829SOL     OW18649   5.732   7.270   2.310  0.4672  0.2154  0.2080
 5829SOL    HW118650   5.733   7.292   2.403  0.3815  1.3047 -0.0295
 5829SOL    HW218651   5.791   7.334   2.270  1.1104 -0.7315 -0.3916
 5830SOL     OW18652   5.500   2.858   0.700 -0.0041 -0.1718  0.0526
 5830SOL    HW118653   5.574   2.808   0.735  0.1258  0.0145  0.0498
 5830SOL    HW218654   5.495   2.833   0.608  0.2601  0.0561 -0.0250
 5831SOL     OW18655   5.234   0.569   4.867  0.4371 -0.2355  0.0692
 5831SOL    HW118656   5.181   0.607   4.797  2.4543  1.8480 -0.4510
 5831SOL    HW218657   5.170   0.537   4.931 -1.4895  3.2119  0.0822
 5832SOL     OW18658   5.790   1.888   0.362 -0.1392 -0.4141 -0.9335
 5832SOL    HW118659   5.835   1.830   0.423  0.3425  0.2428 -0.6616
 5832SOL    HW218660   5.697   1.878   0.383  0.0461  0.1475  0.2264
 5833SOL     OW18661   0.526   7.466   0.766 -0.2994  0.0348  0.4582
 5833SOL    HW118662   0.587   7.486   0.695 -0.0938 -1.2744  0.2507
 5833SOL    HW218663   0.448   7.517   0.744  0.4310  1.1249  0.3225
 5834SOL     OW18664   2.948   7.786   7.701 -0.2745  0.6080  0.3472
 5834SOL    HW118665   2.993   7.827   7.628 -1.4212  0.0562 -0.7052
 5834SOL    HW218666   3.019   7.757   7.760  0.7361 -0.0204 -1.1220
 5835SOL     OW18667   1.276   5.665   6.410  0.6036 -0.1029  0.8858
 5835SOL    HW118668   1.245   5.577   6.388 -0.4024  0.6633 -1.0291
 5835SOL    HW218669   1.282   5.710   6.325  1.0808  1.6707  1.8151
 5836SOL     OW18670   2.837   3.710   3.071 -0.9237  0.2390  0.9233
 5836SOL    HW118671   2.802   3.792   3.108  1.2999  2.6636 -1.9054
 5836SOL    HW218672   2.915   3.692   3.123 -1.1079  0.1851  1.1882
 5837SOL     OW18673   2.370   3.463   1.004  0.0120 -0.9774 -0.2672
 5837SOL    HW118674   2.389   3.554   0.980 -1.5732 -0.6384 -0.3855
 5837SOL    HW218675   2.370   3.416   0.920 -0.6089 -0.7828 -0.3820
 5838SOL     OW18676   3.428   8.825   3.984  0.5388 -0.0696  0.2550
 5838SOL    HW118677   3.338   8.851   4.005  0.0149 -2.0808  0.7215
 5838SOL    HW218678   3.476   8.908   3.978 -1.4479  1.1112 -0.5986
 5839SOL     OW18679   8.178   1.687   2.538 -0.7943 -0.0473 -0.2686
 5839SOL    HW118680   8.205   1.672   2.447 -0.7816 -0.8092 -0.1441
 5839SOL    HW218681   8.160   1.600   2.572  1.9068 -0.0629  1.3180
 5840SOL     OW18682   0.330   6.335   1.826 -0.1888  0.0375  0.6286
 5840SOL    HW118683   0.378   6.318   1.907  0.0427 -0.8969  0.2974
 5840SOL    HW218684   0.383   6.399   1.779 -0.4206  0.7339  1.2966
 5841SOL     OW18685   4.148   5.360   3.543 -0.2630 -0.1335 -0.4355
 5841SOL    HW118686   4.091   5.296   3.500 -0.8367 -0.6691  1.0421
 5841SOL    HW218687   4.088   5.417   3.592  0.2895  1.1225 -1.1679
 5842SOL     OW18688   6.862   3.479   0.758  0.5007 -0.8905  0.1073
 5842SOL    HW118689   6.927   3.475   0.828  0.5502 -0.4557  0.0879
 5842SOL    HW218690   6.802   3.407   0.778 -1.0637  0.8541  2.1786
 5843SOL     OW18691   6.137   2.628   3.605 -0.8600  0.5622 -0.3032
 5843SOL    HW118692   6.092   2.543   3.601  0.8861 -0.6312  2.5563
 5843SOL    HW218693   6.085   2.680   3.666  0.1565  0.0922  1.0062
 5844SOL     OW18694   7.291   8.767   1.286 -0.2779 -0.6142  0.1373
 5844SOL    HW118695   7.242   8.848   1.298  0.0200 -0.1185 -1.6160
 5844SOL    HW218696   7.232   8.711   1.235  0.2093 -0.7743 -0.2605
 5845SOL     OW18697   1.344   1.648   2.491  0.2236 -0.0712  0.5710
 5845SOL    HW118698   1.414   1.676   2.550  0.7392 -0.1601  0.0157
 5845SOL    HW218699   1.360   1.696   2.410  0.9946 -1.7328 -0.3239
 5846SOL     OW18700   1.307   6.313   8.321  0.1297  0.3115  0.0651
 5846SOL    HW118701   1.255   6.268   8.387 -1.1783  0.5022 -0.7997
 5846SOL    HW218702   1.382   6.348   8.369 -0.6741  0.2446  1.4047
 5847SOL     OW18703   2.556   0.212   1.394  0.4123  0.0627 -0.5935
 5847SOL    HW118704   2.522   0.301   1.391  2.6221  0.9995  0.0247
 5847SOL    HW218705   2.553   0.188   1.486  1.5019  0.2463 -0.4890
 5848SOL     OW18706   8.021   6.195   6.595  0.4505 -0.0739 -0.6245
 5848SOL    HW118707   8.061   6.157   6.673 -0.2073  2.0417  0.8466
 5848SOL    HW218708   7.928   6.198   6.614  0.1024 -0.7392 -2.0782
 5849SOL     OW18709   3.534   1.043   8.296  0.2418  0.1920 -0.0682
 5849SOL    HW118710   3.484   1.099   8.236  0.6715  0.6972  0.0384
 5849SOL    HW218711   3.477   1.034   8.373  0.5409  1.2346  0.2886
 5850SOL     OW18712   0.385   2.776   8.790  0.4932 -0.1391 -0.1238
 5850SOL    HW118713   0.357   2.707   8.731 -0.7542 -0.9665  1.3568
 5850SOL    HW218714   0.321   2.846   8.776  0.9127  0.1562 -0.5986
 5851SOL     OW18715   2.638   7.634   7.255 -0.7045  0.1394 -0.4679
 5851SOL    HW118716   2.615   7.682   7.335 -1.0300  1.8431 -1.5279
 5851SOL    HW218717   2.615   7.543   7.274 -2.4092  0.7795  0.7652
 5852SOL     OW18718   8.427   2.989   4.715  0.1966 -0.4327 -0.1841
 5852SOL    HW118719   8.448   2.898   4.737  2.9283 -0.1889 -1.4173
 5852SOL    HW218720   8.468   3.041   4.783  0.5717 -0.0581 -0.6859
 5853SOL     OW18721   3.143   3.215   2.567 -0.1195  0.0915 -0.9990
 5853SOL    HW118722   3.198   3.243   2.494 -1.0233 -0.1178 -1.7893
 5853SOL    HW218723   3.128   3.122   2.551 -0.3241  0.0469 -0.5444
 5854SOL     OW18724   0.914   0.310   7.218  0.0660  0.6790  0.1314
 5854SOL    HW118725   0.930   0.397   7.254  0.0620  0.8754 -0.3345
 5854SOL    HW218726   0.819   0.300   7.222  0.0056  0.9583 -0.3931
 5855SOL     OW18727   2.158   6.796   2.737 -0.3422  0.0993  0.1506
 5855SOL    HW118728   2.085   6.778   2.677 -0.1820  0.1348 -0.0552
 5855SOL    HW218729   2.166   6.892   2.737 -0.8876  0.1497  0.8803
 5856SOL     OW18730   0.083   0.727   0.924 -0.2329  0.3838 -0.1591
 5856SOL    HW118731   0.094   0.633   0.906 -0.5520  0.4413 -0.6869
 5856SOL    HW218732  -0.006   0.733   0.960  1.0578 -0.0079  3.5193
 5857SOL     OW18733   4.956   0.384   3.862 -0.2846  0.3534 -0.4258
 5857SOL    HW118734   4.867   0.419   3.862 -0.5891 -0.4027 -0.0019
 5857SOL    HW218735   4.951   0.304   3.810  0.0549  0.0938 -0.0699
 5858SOL     OW18736   3.551   0.058   4.381 -0.3434 -0.2063  0.1864
 5858SOL    HW118737   3.608   0.135   4.373 -1.5633  0.7268  0.2672
 5858SOL    HW218738   3.611  -0.017   4.369  0.5349  0.7594 -2.1460
 5859SOL     OW18739   0.322   5.735   0.843  0.1926 -0.4448  0.6177
 5859SOL    HW118740   0.416   5.722   0.829  0.1137 -1.0675  0.6520
 5859SOL    HW218741   0.316   5.823   0.880  0.7024 -0.1357 -0.0055
 5860SOL     OW18742   7.923   2.717   6.412 -0.0753  0.0777  0.2207
 5860SOL    HW118743   7.943   2.638   6.362  2.3662  1.2271 -0.8009
 5860SOL    HW218744   7.902   2.783   6.347  1.4659  1.1527  0.7320
 5861SOL     OW18745   5.796   5.338   3.985 -0.4913  0.4512 -0.0077
 5861SOL    HW118746   5.840   5.400   4.044  3.2093 -0.9468 -1.0181
 5861SOL    HW218747   5.802   5.254   4.030  2.3611 -0.6346 -2.0956
 5862SOL     OW18748   1.598   5.871   0.439 -0.0481 -0.2132  0.1190
 5862SOL    HW118749   1.507   5.884   0.464  0.2328  0.9841  0.5965
 5862SOL    HW218750   1.637   5.958   0.443  1.3456 -0.8240  0.8825
 5863SOL     OW18751   7.002   7.030   7.493  0.1646  0.3270 -0.1540
 5863SOL    HW118752   6.923   7.083   7.482 -0.4531 -0.2051  1.3602
 5863SOL    HW218753   7.003   7.009   7.587  1.9634  0.0890 -0.1969
 5864SOL     OW18754   3.211   8.785   7.544  0.1810 -0.3783 -0.0533
 5864SOL    HW118755   3.135   8.783   7.601 -0.1444 -0.6025 -0.4889
 5864SOL    HW218756   3.271   8.847   7.586  0.3419 -1.2321  1.0280
 5865SOL     OW18757   6.520   0.932   3.452  0.0955  0.4270  0.2704
 5865SOL    HW118758   6.454   0.931   3.383 -1.7849  0.9771  1.9445
 5865SOL    HW218759   6.600   0.903   3.409 -1.2663 -0.5169 -1.8243
 5866SOL     OW18760   1.761   8.518   0.803 -0.1507 -0.4018 -0.6137
 5866SOL    HW118761   1.828   8.567   0.755  0.2176 -0.9189 -0.6308
 5866SOL    HW218762   1.679   8.538   0.757 -0.3438  1.7939  0.5618
 5867SOL     OW18763   2.978   8.231   3.028  0.3429 -0.0727  0.0541
 5867SOL    HW118764   3.073   8.227   3.040  0.3720 -1.0770 -0.3879
 5867SOL    HW218765   2.965   8.209   2.936 -0.3951 -1.6515  0.4969
 5868SOL     OW18766   1.041   4.620   3.819  0.2081  0.3257 -0.4372
 5868SOL    HW118767   0.946   4.621   3.830  0.1643 -0.0891 -0.7476
 5868SOL    HW218768   1.074   4.584   3.902  0.0838  0.3457 -0.3789
 5869SOL     OW18769   6.954   8.204   4.394 -0.3570  0.7548  0.6214
 5869SOL    HW118770   7.041   8.245   4.395  0.5952 -1.0175 -1.2360
 5869SOL    HW218771   6.926   8.206   4.485  1.4326  1.7697  1.2133
 5870SOL     OW18772   2.376   5.958   2.176  0.0234 -0.4638 -1.0024
 5870SOL    HW118773   2.422   5.915   2.104  1.1100 -1.0903  0.0239
 5870SOL    HW218774   2.391   5.900   2.251  0.6122  1.1765  0.1853
 5871SOL     OW18775   5.087   0.024   0.428 -0.1863 -0.2383  0.1322
 5871SOL    HW118776   5.171   0.053   0.464  0.0055 -2.6788  1.8583
 5871SOL    HW218777   5.022   0.062   0.488 -0.1878 -0.0105 -0.0139
 5872SOL     OW18778   5.879   2.915   1.942  0.4912 -0.6786  0.0033
 5872SOL    HW118779   5.964   2.918   1.986  0.1579  0.1208  0.6171
 5872SOL    HW218780   5.828   2.852   1.993  0.3111 -0.2195  0.3997
 5873SOL     OW18781   6.378   0.220   4.111 -0.0550 -0.5340 -0.1409
 5873SOL    HW118782   6.452   0.171   4.075  0.2464 -0.4352  0.3430
 5873SOL    HW218783   6.374   0.300   4.060  0.3544 -0.4053  0.0346
 5874SOL     OW18784   6.954   5.396   0.785  0.3712  0.2702  0.5543
 5874SOL    HW118785   7.047   5.399   0.763  0.7043 -0.1331  1.8041
 5874SOL    HW218786   6.952   5.388   0.881 -0.9519  0.4619  0.5698
 5875SOL     OW18787   7.006   0.552   5.494 -0.4913 -0.3011 -0.4143
 5875SOL    HW118788   6.967   0.615   5.434 -1.8508 -1.4100 -0.7457
 5875SOL    HW218789   7.100   0.565   5.484 -0.6726  2.9803  0.9514
 5876SOL     OW18790   2.571   3.632   6.406  0.3946 -0.2179 -0.2976
 5876SOL    HW118791   2.601   3.723   6.415  0.2358 -0.0999 -0.9276
 5876SOL    HW218792   2.585   3.594   6.493 -0.9386  0.8338  0.4273
 5877SOL     OW18793   2.861   3.143   5.626 -0.1768  0.1525  0.1957
 5877SOL    HW118794   2.807   3.219   5.602  0.3127  0.2637 -0.5489
 5877SOL    HW218795   2.891   3.163   5.715 -2.0714 -0.3097  0.9890
 5878SOL     OW18796   2.028   2.364   7.748 -0.2031  0.0223  0.1979
 5878SOL    HW118797   2.054   2.295   7.809 -0.5327 -0.2885 -0.0141
 5878SOL    HW218798   2.103   2.375   7.690  0.7012  1.3099  1.5169
 5879SOL     OW18799   8.167   6.310   8.584  0.5464  0.8484 -0.0974
 5879SOL    HW118800   8.244   6.278   8.536  0.6479  0.4457  0.3187
 5879SOL    HW218801   8.198   6.387   8.630  0.5092  1.1042 -0.4957
 5880SOL     OW18802   8.065   5.149   4.693 -0.6725  0.5523 -0.0016
 5880SOL    HW118803   8.085   5.161   4.785  1.5473  0.0811 -0.3781
 5880SOL    HW218804   7.974   5.180   4.684 -0.2226  2.6742  1.8930
 5881SOL     OW18805   1.467   0.389   1.777  0.5167  0.0374  0.7813
 5881SOL    HW118806   1.516   0.472   1.774 -0.6621  0.7294 -1.2984
 5881SOL    HW218807   1.379   0.414   1.805 -0.0488 -0.3836 -0.5770
 5882SOL     OW18808   5.618   3.290   2.715 -0.3508 -0.0553  0.7600
 5882SOL    HW118809   5.664   3.206   2.713 -0.4083 -0.1141  1.5524
 5882SOL    HW218810   5.540   3.276   2.661  1.1167  0.4034 -1.6174
 5883SOL     OW18811   3.617   4.350   1.776  0.7025 -0.6598  0.2198
 5883SOL    HW118812   3.705   4.385   1.790 -0.0359  0.7062  1.8801
 5883SOL    HW218813   3.594   4.309   1.859 -0.7004  0.1801  0.2796
 5884SOL     OW18814   5.467   1.194   1.264 -0.0420  0.4165  0.0359
 5884SOL    HW118815   5.395   1.223   1.320 -1.9766 -2.2857 -0.8104
 5884SOL    HW218816   5.512   1.127   1.316 -1.1115 -1.2405 -1.0449
 5885SOL     OW18817   8.177   7.042   7.991 -0.1228 -0.0584 -0.4083
 5885SOL    HW118818   8.240   7.098   7.944  0.9986  0.0239  1.1083
 5885SOL    HW218819   8.109   7.102   8.020  0.8026  0.4612  0.7554
 5886SOL     OW18820   6.998   1.531   4.074 -0.0441 -0.0776  0.7796
 5886SOL    HW118821   7.049   1.568   4.002 -0.9385 -1.4085 -0.6044
 5886SOL    HW218822   6.948   1.605   4.108  1.1382  0.7800  0.7171
 5887SOL     OW18823   7.481   0.698   7.943  1.1536  0.1179  0.0883
 5887SOL    HW118824   7.454   0.610   7.970  0.6747 -0.0663 -0.9330
 5887SOL    HW218825   7.574   0.689   7.923  1.5937  0.3219  1.8507
 5888SOL     OW18826   5.274   2.879   2.333 -0.2023 -0.7295 -0.0493
 5888SOL    HW118827   5.218   2.949   2.299 -0.4881 -0.4456  0.9717
 5888SOL    HW218828   5.309   2.914   2.415 -1.3589 -2.2516  1.1385
 5889SOL     OW18829   2.645   6.276   6.034  0.0141  0.0661 -0.0329
 5889SOL    HW118830   2.675   6.211   5.971 -0.3659  0.0545 -0.2066
 5889SOL    HW218831   2.718   6.286   6.095 -0.2308 -1.1310  0.4783
 5890SOL     OW18832   6.749   2.740   5.425  0.2976 -0.1728  0.8535
 5890SOL    HW118833   6.717   2.781   5.344 -2.7745 -2.5803  0.6541
 5890SOL    HW218834   6.690   2.773   5.493  0.2711 -1.1937  1.3508
 5891SOL     OW18835   6.036   4.892   6.867 -0.0896 -0.3929  0.0525
 5891SOL    HW118836   6.019   4.984   6.888  1.5782  0.2434 -1.1667
 5891SOL    HW218837   5.982   4.873   6.791 -0.1111 -0.2959  0.0445
 5892SOL     OW18838   2.121   4.293   0.217  0.4392  0.4878  0.7530
 5892SOL    HW118839   2.055   4.349   0.176  0.0114  0.1577  0.9881
 5892SOL    HW218840   2.163   4.248   0.143 -0.8881 -0.7270  0.7013
 5893SOL     OW18841   0.072   7.405   5.701 -0.4022 -0.3577 -0.0184
 5893SOL    HW118842   0.017   7.439   5.771  0.2871  0.1072  0.3033
 5893SOL    HW218843   0.096   7.317   5.730  1.4193  0.5000  1.2508
 5894SOL     OW18844   6.179   1.795   3.772 -0.2066 -0.0648  0.2343
 5894SOL    HW118845   6.120   1.871   3.779  0.0699  0.0265  1.8926
 5894SOL    HW218846   6.192   1.784   3.678 -1.6512  0.8596 -0.1089
 5895SOL     OW18847   7.632   5.173   0.217 -0.6176 -0.6679 -0.5106
 5895SOL    HW118848   7.609   5.100   0.160 -1.9231 -0.7391  0.0724
 5895SOL    HW218849   7.602   5.251   0.170 -4.1362 -0.8783  1.1074
 5896SOL     OW18850   3.453   0.216   8.194  0.0534  0.4059  0.0290
 5896SOL    HW118851   3.516   0.184   8.259 -1.1699 -0.1875  0.9750
 5896SOL    HW218852   3.505   0.230   8.115  1.3405 -0.2153  0.7292
 5897SOL     OW18853   1.550   6.857   5.175  0.0993  0.5701  0.7576
 5897SOL    HW118854   1.467   6.871   5.222 -0.3098 -1.5497  0.7768
 5897SOL    HW218855   1.530   6.790   5.110  2.1112 -1.1342  1.7580
 5898SOL     OW18856   5.410   3.706   5.748  0.0188 -0.2366  0.3705
 5898SOL    HW118857   5.476   3.706   5.678  0.1994  1.7878  0.4825
 5898SOL    HW218858   5.459   3.686   5.827  0.1995 -0.3488  0.2314
 5899SOL     OW18859   6.235   4.214   3.576  0.0130  0.3818 -0.1380
 5899SOL    HW118860   6.225   4.198   3.482 -0.9894 -1.3790  0.2239
 5899SOL    HW218861   6.327   4.197   3.593 -0.3162 -2.0367 -0.3893
 5900SOL     OW18862   3.074   7.320   2.744  0.0296  0.4003 -0.6053
 5900SOL    HW118863   3.066   7.293   2.836 -1.6421  0.6781 -0.6431
 5900SOL    HW218864   2.986   7.345   2.718  0.8040  2.1397 -1.7609
 5901SOL     OW18865   1.623   7.221   1.369 -0.3435 -0.0178 -0.0589
 5901SOL    HW118866   1.653   7.183   1.286 -0.0859 -1.8408  0.8351
 5901SOL    HW218867   1.645   7.314   1.361  1.2889 -0.4632 -1.3245
 5902SOL     OW18868   8.466   3.362   1.201  0.0698  0.0752 -0.2380
 5902SOL    HW118869   8.383   3.393   1.235 -0.8831 -1.6305 -0.8997
 5902SOL    HW218870   8.467   3.391   1.110 -0.7496 -1.5784 -0.8113
 5903SOL     OW18871   1.804   3.249   3.907 -0.1235 -0.5631  0.2493
 5903SOL    HW118872   1.800   3.225   3.999  0.1294 -2.1604 -0.1109
 5903SOL    HW218873   1.712   3.258   3.881 -0.2893 -1.9473  0.2552
 5904SOL     OW18874   6.008   2.217   7.119 -0.0943 -0.5282  0.0129
 5904SOL    HW118875   6.024   2.246   7.030 -0.8343  0.4163  0.1696
 5904SOL    HW218876   5.922   2.253   7.141  0.6305  0.4051  1.5507
 5905SOL     OW18877   2.149   6.180   5.891 -0.0721  0.1871  0.3508
 5905SOL    HW118878   2.202   6.201   5.814 -0.1072  0.1290  0.3106
 5905SOL    HW218879   2.090   6.254   5.900  1.3684  1.2440  1.6016
 5906SOL     OW18880   6.994   8.392   2.722  0.4259  0.0284 -0.2016
 5906SOL    HW118881   6.985   8.411   2.815  1.7280  0.6913 -0.1799
 5906SOL    HW218882   6.927   8.446   2.679 -0.2871 -0.4061  0.3470
 5907SOL     OW18883   5.618   7.799   6.025 -0.0115  0.2794 -0.4291
 5907SOL    HW118884   5.692   7.853   5.999  0.6225 -1.0056 -1.3620
 5907SOL    HW218885   5.542   7.843   5.988  0.5094  0.4601 -1.2981
 5908SOL     OW18886   2.295   1.216   1.283  0.6294 -0.2598  0.4020
 5908SOL    HW118887   2.245   1.170   1.351 -0.8694  1.7506  0.7728
 5908SOL    HW218888   2.265   1.178   1.201 -0.0308 -0.4724  0.7307
 5909SOL     OW18889   5.562   3.403   4.245  0.4877  0.5012 -0.0063
 5909SOL    HW118890   5.538   3.423   4.336  0.6610  0.6176  0.0143
 5909SOL    HW218891   5.570   3.489   4.204 -0.6266  0.4330 -0.3977
 5910SOL     OW18892   4.094   6.668   1.832 -0.3871  0.3406 -0.4894
 5910SOL    HW118893   4.178   6.702   1.864  1.3175 -2.9229 -1.1057
 5910SOL    HW218894   4.043   6.653   1.911  1.1613 -1.2278  0.2825
 5911SOL     OW18895   0.743   2.920   1.544  0.4575 -0.3802 -0.2230
 5911SOL    HW118896   0.765   2.918   1.451  0.3354  1.9141 -0.3639
 5911SOL    HW218897   0.658   2.964   1.547  0.6523 -0.0596  0.9851
 5912SOL     OW18898   7.117   7.576   2.622 -0.7134 -0.1489  0.5161
 5912SOL    HW118899   7.193   7.633   2.614 -0.4333 -0.5949 -0.1167
 5912SOL    HW218900   7.135   7.504   2.561 -0.8310 -1.1731  1.6587
 5913SOL     OW18901   6.828   1.925   1.046 -0.3695  0.1981  0.6055
 5913SOL    HW118902   6.795   1.844   1.087  0.9573 -0.6361  0.0820
 5913SOL    HW218903   6.749   1.976   1.029 -1.5162 -1.9335 -1.0582
 5914SOL     OW18904   7.855   1.325   1.847 -0.0292 -0.2642  0.6845
 5914SOL    HW118905   7.820   1.413   1.864 -0.9030 -0.2860 -0.8459
 5914SOL    HW218906   7.786   1.281   1.797  1.2940 -1.0683 -0.5110
 5915SOL     OW18907   5.105   7.176   6.411  0.9455  0.3524 -0.2054
 5915SOL    HW118908   5.111   7.257   6.461  0.3343  0.7339 -0.7411
 5915SOL    HW218909   5.164   7.116   6.456  1.3468  1.0684  0.2410
 5916SOL     OW18910   3.610   3.549   6.050  1.1667  0.1495  0.0895
 5916SOL    HW118911   3.641   3.487   6.116  2.0475 -1.0659 -1.4050
 5916SOL    HW218912   3.646   3.517   5.967 -1.0085  0.8358 -1.2089
 5917SOL     OW18913   3.344   7.980   4.807 -0.2194 -0.9321 -0.0831
 5917SOL    HW118914   3.270   7.920   4.801 -1.7069  0.8348 -0.2224
 5917SOL    HW218915   3.318   8.056   4.754  1.1056  0.3110  0.9636
 5918SOL     OW18916   5.768   8.365   8.525 -0.0518  0.7584  0.4177
 5918SOL    HW118917   5.748   8.426   8.596  0.6164  0.4292  0.8946
 5918SOL    HW218918   5.733   8.407   8.447 -0.0415  1.5204  0.8185
 5919SOL     OW18919   3.127   5.789   4.634 -0.0746  0.0234 -0.4442
 5919SOL    HW118920   3.059   5.737   4.591 -0.6927  0.2200  0.2511
 5919SOL    HW218921   3.091   5.878   4.635  0.3258  0.1835 -0.3353
 5920SOL     OW18922   2.387   1.802   7.247 -0.5827 -0.4465  0.5392
 5920SOL    HW118923   2.315   1.739   7.238 -0.2678 -0.6593 -0.7035
 5920SOL    HW218924   2.430   1.801   7.161  1.4732 -1.0049  1.5267
 5921SOL     OW18925   2.935   0.301   2.777 -0.3503  0.7884 -0.2459
 5921SOL    HW118926   2.841   0.317   2.766 -0.7562  0.3640  2.1514
 5921SOL    HW218927   2.962   0.358   2.849  1.0773  0.3593 -0.4021
 5922SOL     OW18928   0.970   8.019   6.487 -0.4422 -0.4456 -0.2882
 5922SOL    HW118929   1.016   7.959   6.428 -0.0403 -0.4101 -0.0138
 5922SOL    HW218930   0.909   8.066   6.431  1.2926  1.0187 -1.0930
 5923SOL     OW18931   3.238   1.666   3.423 -0.4559 -0.2633  0.3555
 5923SOL    HW118932   3.276   1.725   3.357  1.1980  0.0031  1.4843
 5923SOL    HW218933   3.145   1.660   3.399 -0.2338  1.1111 -1.0309
 5924SOL     OW18934   1.598   3.161   5.268 -0.2473 -0.1881  0.0171
 5924SOL    HW118935   1.510   3.181   5.299 -0.0098 -0.5847  0.9938
 5924SOL    HW218936   1.597   3.183   5.175 -1.1002  0.6969  0.2191
 5925SOL     OW18937   2.952   6.063   5.488  0.0872  0.1610 -0.2866
 5925SOL    HW118938   2.864   6.029   5.502  0.3819 -0.3158  0.4946
 5925SOL    HW218939   2.985   6.081   5.576  0.8853  0.0295 -0.5485
 5926SOL     OW18940   2.116   6.894   8.376 -0.2349 -0.2987 -0.6847
 5926SOL    HW118941   2.126   6.808   8.334  1.7145 -0.2306 -0.4321
 5926SOL    HW218942   2.040   6.883   8.434 -0.3297 -1.6866 -1.0190
 5927SOL     OW18943   2.762   3.909   8.610 -0.0890  0.1693  0.1881
 5927SOL    HW118944   2.818   3.982   8.584  0.8018 -0.1756  1.0877
 5927SOL    HW218945   2.718   3.939   8.689 -1.1966  0.4308 -0.5027
 5928SOL     OW18946   2.499   4.796   7.364  0.3540 -0.1122  0.3370
 5928SOL    HW118947   2.543   4.826   7.444 -0.9409  0.6233  0.8011
 5928SOL    HW218948   2.571   4.775   7.304  1.3410  0.3374  1.3193
 5929SOL     OW18949   4.374   5.605   0.612 -0.4999 -0.2675 -0.1162
 5929SOL    HW118950   4.397   5.515   0.634  0.9248  0.2146  0.4459
 5929SOL    HW218951   4.391   5.612   0.518  2.5923  0.2717  0.3764
 5930SOL     OW18952   3.270   7.035   1.199  0.2093  0.1201  0.3990
 5930SOL    HW118953   3.175   7.024   1.203  0.3128 -1.3984 -0.5089
 5930SOL    HW218954   3.284   7.130   1.201 -1.5872  0.6829 -3.6737
 5931SOL     OW18955   2.410   4.897   1.298  0.0639 -0.4444  0.0677
 5931SOL    HW118956   2.461   4.930   1.224 -0.3309  0.0186 -0.0017
 5931SOL    HW218957   2.322   4.886   1.263 -0.0645 -0.4780  0.4043
 5932SOL     OW18958   6.690   2.384   0.334 -0.3972  0.3873 -0.5586
 5932SOL    HW118959   6.709   2.360   0.424  0.0340  1.7193 -0.2700
 5932SOL    HW218960   6.773   2.416   0.299 -0.7123  0.5084 -1.2155
 5933SOL     OW18961   8.567   3.110   1.265 -0.7788 -0.0136 -0.3345
 5933SOL    HW118962   8.511   3.164   1.209  0.0960 -1.2358 -2.4955
 5933SOL    HW218963   8.509   3.041   1.297 -1.2434  0.5880  0.1550
 5934SOL     OW18964   2.516   2.927   4.549 -0.5296  0.0530  0.4876
 5934SOL    HW118965   2.444   2.988   4.565  0.2696  1.0220  0.4817
 5934SOL    HW218966   2.487   2.875   4.474 -0.2436  2.1195 -1.1738
 5935SOL     OW18967   7.902   5.563   0.140 -0.1069 -0.2251 -0.4047
 5935SOL    HW118968   7.923   5.618   0.065 -1.5700  0.8200 -0.0924
 5935SOL    HW218969   7.911   5.474   0.107  1.9037  0.1521 -1.0437
 5936SOL     OW18970   6.172   4.833   4.408 -0.1585  0.3174  0.6769
 5936SOL    HW118971   6.170   4.920   4.369  0.6499  0.0037 -0.0792
 5936SOL    HW218972   6.224   4.844   4.488 -0.2267  0.5686  0.6869
 5937SOL     OW18973   3.739   1.022   7.584 -0.3072 -0.8345 -0.4492
 5937SOL    HW118974   3.826   0.988   7.604  0.3191  0.8387 -0.1752
 5937SOL    HW218975   3.683   0.987   7.654  0.7745  0.5217  1.1875
 5938SOL     OW18976   2.206   1.418   2.677 -0.2111 -0.3100  0.5191
 5938SOL    HW118977   2.160   1.342   2.714  0.9134 -0.8555  0.8293
 5938SOL    HW218978   2.209   1.401   2.583 -0.8907 -0.1252  0.4573
 5939SOL     OW18979   1.387   8.521   4.219  0.4030 -0.2184  0.2001
 5939SOL    HW118980   1.478   8.522   4.250  0.9488 -1.0228 -1.2530
 5939SOL    HW218981   1.342   8.460   4.277  0.9132 -0.2086  0.6151
 5940SOL     OW18982   6.744   3.280   5.716  0.3660 -0.1647  0.0278
 5940SOL    HW118983   6.755   3.185   5.722  1.9563  0.0829  2.0567
 5940SOL    HW218984   6.668   3.298   5.771 -0.3404 -0.3045 -0.8857
 5941SOL     OW18985   1.108   7.055   6.666 -0.2493  0.0141 -0.3811
 5941SOL    HW118986   1.063   7.136   6.641 -0.6397 -0.5028 -1.3978
 5941SOL    HW218987   1.190   7.084   6.705 -1.0788  0.9561  0.7565
 5942SOL     OW18988   5.884   3.072   6.759  0.4811 -0.2839 -0.3063
 5942SOL    HW118989   5.896   3.009   6.689  1.0393  0.8926 -1.3167
 5942SOL    HW218990   5.955   3.135   6.747 -1.6458  2.1203 -1.1110
 5943SOL     OW18991   1.289   0.104   6.588 -0.2974 -0.2845  0.2860
 5943SOL    HW118992   1.253   0.036   6.532 -0.0827  0.0701 -0.2863
 5943SOL    HW218993   1.244   0.092   6.672 -0.1466 -1.2279  0.2477
 5944SOL     OW18994   3.575   8.045   4.598 -0.0852 -1.3161  0.0312
 5944SOL    HW118995   3.557   8.019   4.688  0.7514 -3.3902 -0.3600
 5944SOL    HW218996   3.605   7.965   4.555 -1.3808 -0.6028 -2.3609
 5945SOL     OW18997   6.666   6.536   4.142 -0.3078 -0.2816 -0.1009
 5945SOL    HW118998   6.701   6.593   4.210 -0.8183  1.2621 -1.0801
 5945SOL    HW218999   6.716   6.454   4.151  1.0085  0.5813  0.8162
 5946SOL     OW19000   6.085   8.495   4.218 -0.0348 -0.2942  0.3493
 5946SOL    HW119001   6.180   8.511   4.222 -0.0053  0.5418 -2.0602
 5946SOL    HW219002   6.072   8.446   4.137 -1.9609  3.0555 -1.6264
 5947SOL     OW19003   3.867   4.318   3.101  0.2921  0.7008 -0.0166
 5947SOL    HW119004   3.893   4.368   3.024  0.9822  1.3876  0.6490
 5947SOL    HW219005   3.947   4.274   3.129 -0.2144 -0.4821 -0.3621
 5948SOL     OW19006   7.490   4.281   5.819  0.7388 -0.1330  0.1628
 5948SOL    HW119007   7.518   4.332   5.896  0.2621 -0.4283  0.5419
 5948SOL    HW219008   7.439   4.343   5.767  2.4915  0.5677 -0.8077
 5949SOL     OW19009   4.142   3.963   0.574  0.2887  0.4568 -0.3024
 5949SOL    HW119010   4.078   4.027   0.606  1.3245  1.7839 -0.7628
 5949SOL    HW219011   4.212   3.965   0.639  1.5802  1.8532 -1.6545
 5950SOL     OW19012   8.726   5.360   2.224  0.2362 -0.1633  0.1762
 5950SOL    HW119013   8.796   5.303   2.258  0.9906 -0.1101 -1.2257
 5950SOL    HW219014   8.753   5.448   2.250  1.7382  0.0804 -1.9424
 5951SOL     OW19015   5.147   1.358   0.383 -0.1573 -0.5153  0.5557
 5951SOL    HW119016   5.206   1.291   0.350  1.6357  0.9112  0.6981
 5951SOL    HW219017   5.161   1.434   0.326 -0.5246  0.4377  1.6770
 5952SOL     OW19018   3.734   6.002   8.459 -0.9121  0.2462  0.0339
 5952SOL    HW119019   3.783   6.053   8.395  0.5359  0.1243  1.0012
 5952SOL    HW219020   3.794   5.991   8.533 -1.1182 -2.8099 -0.0987
 5953SOL     OW19021   2.839   5.501   5.313  0.4001  0.7216 -0.0254
 5953SOL    HW119022   2.771   5.480   5.249 -1.8466  1.9480  1.7866
 5953SOL    HW219023   2.864   5.417   5.351 -0.4654  0.2972 -0.3765
 5954SOL     OW19024   7.157   6.149   7.922  0.2005  0.2179  0.4227
 5954SOL    HW119025   7.175   6.064   7.880  0.2869 -0.7273  2.2799
 5954SOL    HW219026   7.108   6.198   7.856  1.1200 -0.8370 -1.1185
 5955SOL     OW19027   1.587   4.700   0.711 -0.2837  0.5981 -0.3043
 5955SOL    HW119028   1.654   4.633   0.727 -0.2999  0.2354 -1.6899
 5955SOL    HW219029   1.566   4.692   0.618  0.4540  3.1887 -0.7725
 5956SOL     OW19030   6.061   8.007   1.903  0.5907  0.1055 -0.0838
 5956SOL    HW119031   6.148   8.008   1.862 -0.1068  0.7799 -1.5861
 5956SOL    HW219032   6.010   7.947   1.849 -0.3599  1.0270 -0.2124
 5957SOL     OW19033   8.397   5.638   0.918 -0.0949 -0.2259  0.2758
 5957SOL    HW119034   8.357   5.697   0.982 -1.0674 -0.4901 -0.0821
 5957SOL    HW219035   8.367   5.670   0.833  0.7995 -0.1708 -0.0272
 5958SOL     OW19036   5.971   2.787   3.747 -0.2283  0.4586 -0.0946
 5958SOL    HW119037   5.917   2.710   3.730 -0.1717  0.7850 -2.1001
 5958SOL    HW219038   5.910   2.860   3.751 -0.0412  0.9413 -3.1308
 5959SOL     OW19039   2.819   7.086   1.993 -0.5020 -0.1012 -0.0670
 5959SOL    HW119040   2.899   7.098   1.943 -0.8504  0.2398 -0.5528
 5959SOL    HW219041   2.759   7.042   1.931 -0.3113 -1.4386  0.6521
 5960SOL     OW19042   5.278   6.216   3.270  0.0836  0.1674 -0.5182
 5960SOL    HW119043   5.363   6.229   3.312 -0.1851 -1.5194  0.6278
 5960SOL    HW219044   5.299   6.178   3.185  0.4789  0.1650 -0.4231
 5961SOL     OW19045   6.322   0.069   8.048  0.0849  0.2329  0.4926
 5961SOL    HW119046   6.329   0.164   8.058  1.1576  0.2814 -0.4968
 5961SOL    HW219047   6.244   0.056   7.995  0.7605  0.6825 -0.6467
 5962SOL     OW19048   8.106   7.641   1.335  0.0864 -0.0871 -0.5218
 5962SOL    HW119049   8.193   7.615   1.364  0.0661  0.4166  0.0213
 5962SOL    HW219050   8.096   7.731   1.368 -0.1780  0.2902 -1.5827
 5963SOL     OW19051   0.601   0.199   4.383 -0.2606 -0.1866  1.0316
 5963SOL    HW119052   0.636   0.184   4.295 -0.2738 -0.2728  1.0416
 5963SOL    HW219053   0.524   0.143   4.389 -1.4619  1.3187  0.3662
 5964SOL     OW19054   2.891   0.473   7.765 -0.2667  0.0830 -0.6439
 5964SOL    HW119055   2.928   0.531   7.832 -0.1958 -1.1827  0.4643
 5964SOL    HW219056   2.915   0.514   7.682  0.8973  0.9549  0.0806
 5965SOL     OW19057   2.078   4.924   0.859 -0.2946  0.0746 -0.3977
 5965SOL    HW119058   2.125   4.879   0.789  0.1264  1.8449 -1.3078
 5965SOL    HW219059   2.074   5.016   0.830 -2.7860  0.3082  0.4696
 5966SOL     OW19060   1.697   2.876   7.826 -0.6054 -0.1119  0.2694
 5966SOL    HW119061   1.734   2.962   7.806  0.3579 -0.3676  0.8863
 5966SOL    HW219062   1.683   2.877   7.920  1.9163 -1.5191  0.7565
 5967SOL     OW19063   1.080   4.884   6.764  0.1455 -0.1111 -0.1753
 5967SOL    HW119064   1.089   4.805   6.711 -0.8436 -0.5705  0.3246
 5967SOL    HW219065   0.987   4.890   6.783  0.2472  1.0423  0.0016
 5968SOL     OW19066   2.758   3.456   8.649 -0.6183 -0.2334  0.6264
 5968SOL    HW119067   2.827   3.523   8.650  0.7350 -1.5023 -1.0955
 5968SOL    HW219068   2.692   3.490   8.589  1.4520 -1.5735 -2.6918
 5969SOL     OW19069   4.309   5.772   0.946 -0.2704  0.2044 -0.0384
 5969SOL    HW119070   4.297   5.838   1.014 -0.7044 -0.6137  0.7073
 5969SOL    HW219071   4.291   5.689   0.990  0.7500 -0.4615 -0.8208
 5970SOL     OW19072   7.294   4.081   8.529 -0.6328 -0.0014  0.2068
 5970SOL    HW119073   7.325   4.100   8.617 -2.5687 -0.3506  1.0164
 5970SOL    HW219074   7.252   4.162   8.500  1.4403  0.6831 -1.1295
 5971SOL     OW19075   8.590   4.634   1.316  0.1340  0.5523 -0.4853
 5971SOL    HW119076   8.570   4.602   1.404 -0.6472  0.2320 -0.7769
 5971SOL    HW219077   8.684   4.616   1.306  0.2937  0.8294  0.3739
 5972SOL     OW19078   3.980   2.193   7.943  0.2380  0.2220  0.1966
 5972SOL    HW119079   4.010   2.112   7.901 -0.0951 -0.3462  1.0226
 5972SOL    HW219080   4.018   2.190   8.031  1.1748  1.5415 -0.1333
 5973SOL     OW19081   3.419   4.804   7.106  0.6684  0.4448 -0.6063
 5973SOL    HW119082   3.447   4.841   7.189 -0.9577 -0.4575  0.4083
 5973SOL    HW219083   3.403   4.879   7.049  1.7863  1.0671 -0.1126
 5974SOL     OW19084   5.445   2.779   3.852  0.0371 -0.2479  0.3832
 5974SOL    HW119085   5.513   2.816   3.909 -0.6278 -0.0380  1.0497
 5974SOL    HW219086   5.444   2.686   3.873  1.4086 -0.6080 -0.9823
 5975SOL     OW19087   7.568   3.703   7.660  0.3342  0.1623 -0.2169
 5975SOL    HW119088   7.560   3.619   7.705  0.7184 -0.6796 -1.6579
 5975SOL    HW219089   7.623   3.756   7.718  1.1755 -1.0268  0.1200
 5976SOL     OW19090   1.560   7.504   8.527  0.0041 -0.3158 -0.0270
 5976SOL    HW119091   1.643   7.482   8.485  0.2992 -1.6335  1.1652
 5976SOL    HW219092   1.585   7.561   8.600 -0.4106  1.1963 -1.0208
 5977SOL     OW19093   5.095   3.711   6.868  0.5823 -0.5060 -0.0489
 5977SOL    HW119094   5.188   3.729   6.858  0.0390  1.3183 -3.1597
 5977SOL    HW219095   5.078   3.639   6.807 -0.4031  0.7510 -1.3031
 5978SOL     OW19096   3.891   3.732   5.779 -0.1076 -0.3533 -0.5497
 5978SOL    HW119097   3.910   3.754   5.688 -0.4667  0.7469 -0.3770
 5978SOL    HW219098   3.828   3.799   5.806 -1.0400 -1.4716  0.1009
 5979SOL     OW19099   8.768   7.071   6.718  0.1222  0.3445 -0.2708
 5979SOL    HW119100   8.828   7.046   6.788  1.4268 -0.0700 -1.4947
 5979SOL    HW219101   8.822   7.074   6.639 -1.5836 -0.7489 -1.5678
 5980SOL     OW19102   0.707   2.174   0.930 -0.5245  0.0539  0.0940
 5980SOL    HW119103   0.696   2.252   0.875  0.0190  0.7328  0.9147
 5980SOL    HW219104   0.744   2.109   0.871 -1.2955  0.3041 -0.6888
 5981SOL     OW19105   7.504   6.636   4.139 -0.4446  0.6795  0.0628
 5981SOL    HW119106   7.533   6.607   4.052 -1.7044 -0.2342 -0.0739
 5981SOL    HW219107   7.583   6.672   4.179  1.0464 -2.0842 -0.1225
 5982SOL     OW19108   2.887   1.016   1.911 -0.4071  0.1405 -0.1032
 5982SOL    HW119109   2.965   1.040   1.962  0.2382  1.6158 -1.7003
 5982SOL    HW219110   2.921   0.965   1.838 -1.2688 -1.4474  0.5459
 5983SOL     OW19111   7.259   3.380   0.678  0.1979  0.4017  0.2825
 5983SOL    HW119112   7.241   3.461   0.630 -3.4036 -0.4673 -0.0615
 5983SOL    HW219113   7.353   3.386   0.699  0.3914  4.0031 -0.8451
 5984SOL     OW19114   0.551   2.178   6.978 -0.1108 -0.8463  0.0173
 5984SOL    HW119115   0.459   2.162   6.956 -0.6300  1.7573 -0.0313
 5984SOL    HW219116   0.599   2.111   6.929 -1.8355 -0.9727 -1.6369
 5985SOL     OW19117   5.103   8.789   4.282  0.0477  0.5502  0.5571
 5985SOL    HW119118   5.083   8.797   4.189  0.3838 -0.9454  0.3312
 5985SOL    HW219119   5.127   8.877   4.309 -0.7225  1.1497 -0.6056
 5986SOL     OW19120   0.019   8.616   5.398 -0.1651 -0.6490  0.0002
 5986SOL    HW119121  -0.032   8.660   5.467  0.8230  0.7515 -0.1239
 5986SOL    HW219122   0.102   8.594   5.440  0.8519  1.1450 -0.9703
 5987SOL     OW19123   7.648   3.020   4.276 -0.3357 -0.6864  0.0519
 5987SOL    HW119124   7.734   3.059   4.262 -0.5432 -0.4545 -0.6103
 5987SOL    HW219125   7.664   2.947   4.336  0.0727  0.3305  1.2169
 5988SOL     OW19126   6.200   2.060   5.973  0.4827 -0.0474 -0.4907
 5988SOL    HW119127   6.284   2.031   6.010  1.4642  1.9103 -1.0566
 5988SOL    HW219128   6.224   2.101   5.889 -0.4066  4.2139  1.0809
 5989SOL     OW19129   0.474   8.508   3.072  0.1957 -0.0557  0.1986
 5989SOL    HW119130   0.410   8.579   3.081  2.6494  2.6485 -1.5853
 5989SOL    HW219131   0.555   8.546   3.106  1.5983 -2.0713 -0.7352
 5990SOL     OW19132   5.217   7.336   0.323 -0.4865  0.5243 -0.4062
 5990SOL    HW119133   5.311   7.327   0.305 -0.0872  2.4970  0.3381
 5990SOL    HW219134   5.203   7.284   0.402 -0.0078  0.2116 -0.5230
 5991SOL     OW19135   6.711   3.345   1.215 -0.8111  0.0239  0.2708
 5991SOL    HW119136   6.792   3.379   1.177  0.8079 -2.2127  1.4546
 5991SOL    HW219137   6.670   3.296   1.144  0.1240 -0.7627  0.2438
 5992SOL     OW19138   0.268   4.462   0.449  0.1877 -0.3613  0.1293
 5992SOL    HW119139   0.262   4.551   0.415  0.1172 -0.0290  0.9886
 5992SOL    HW219140   0.177   4.434   0.459  0.1821 -1.1647 -1.6883
 5993SOL     OW19141   4.735   7.851   8.597 -0.5166 -0.4346  0.0729
 5993SOL    HW119142   4.770   7.934   8.562  0.4252 -0.5077  0.8172
 5993SOL    HW219143   4.664   7.828   8.536  0.1191  0.1991 -0.9369
 5994SOL     OW19144   8.344   6.614   2.739 -0.1080  0.1234 -0.6261
 5994SOL    HW119145   8.401   6.690   2.742 -1.1641  0.9448 -0.7085
 5994SOL    HW219146   8.260   6.646   2.771 -1.1254 -0.4884 -2.5279
 5995SOL     OW19147   4.449   7.257   5.490  0.2006  0.2528 -0.5303
 5995SOL    HW119148   4.378   7.210   5.445 -1.0181  2.1805 -0.7163
 5995SOL    HW219149   4.501   7.296   5.419  2.9230 -2.9220 -0.5552
 5996SOL     OW19150   2.933   4.560   7.700 -0.2807  0.2084  0.4736
 5996SOL    HW119151   3.016   4.522   7.730 -0.2102 -0.2816 -0.3332
 5996SOL    HW219152   2.870   4.490   7.711 -0.0701 -0.3179 -1.4252
 5997SOL     OW19153   0.837   7.098   6.880 -0.1664  0.1953 -0.2935
 5997SOL    HW119154   0.858   7.190   6.896 -0.6215  0.3845 -0.7334
 5997SOL    HW219155   0.920   7.052   6.893  0.0343  0.6501  0.0691
 5998SOL     OW19156   4.341   8.793   8.017 -0.1962  0.5839 -0.0466
 5998SOL    HW119157   4.430   8.785   7.982  0.4936  0.6657  1.6110
 5998SOL    HW219158   4.349   8.852   8.091 -1.4068 -0.3221  0.8532
 5999SOL     OW19159   0.224   1.458   6.907 -0.6143  0.2368 -0.0765
 5999SOL    HW119160   0.270   1.379   6.880  0.3506  0.8063 -0.1521
 5999SOL    HW219161   0.259   1.527   6.850 -1.3390  0.7408  0.0786
 6000SOL     OW19162   6.766   8.684   1.416 -0.0286  0.1079  0.0550
 6000SOL    HW119163   6.718   8.727   1.346  1.0928  0.9445 -0.2372
 6000SOL    HW219164   6.835   8.746   1.439  1.2757 -1.2616  0.0393
 6001SOL     OW19165   1.883   0.013   5.858 -0.5227 -0.7214  0.6114
 6001SOL    HW119166   1.915   0.064   5.784 -0.8949  0.7208  1.4003
 6001SOL    HW219167   1.873  -0.076   5.824 -0.6144 -0.1116 -1.0334
 6002SOL     OW19168   0.928   7.871   8.055 -0.4286  0.5209  0.1002
 6002SOL    HW119169   1.023   7.874   8.065 -0.3846 -0.2083 -0.0689
 6002SOL    HW219170   0.910   7.922   7.976 -0.1224  0.1728 -0.1943
 6003SOL     OW19171   6.286   5.997   2.879 -0.3058 -0.4756 -0.6471
 6003SOL    HW119172   6.234   5.970   2.804 -1.1352 -0.5694 -0.0495
 6003SOL    HW219173   6.359   5.935   2.881 -0.6575 -0.9071 -0.9606
 6004SOL     OW19174   0.186   2.959   3.686  0.0718 -0.4032  0.1037
 6004SOL    HW119175   0.234   2.878   3.706 -1.4368 -0.7482  2.9658
 6004SOL    HW219176   0.126   2.934   3.616 -0.2304 -1.7454  0.7962
 6005SOL     OW19177   4.855   6.417   1.964 -0.5193 -0.1760 -0.2249
 6005SOL    HW119178   4.783   6.415   1.901  0.8043 -2.0209 -1.8095
 6005SOL    HW219179   4.934   6.414   1.910  0.6999 -0.6228  1.4987
 6006SOL     OW19180   4.801   2.004   6.566  0.0204  0.1336  0.8660
 6006SOL    HW119181   4.795   2.099   6.574 -0.6573  0.1675  0.1372
 6006SOL    HW219182   4.867   1.989   6.498 -0.9996  0.1546 -0.1710
 6007SOL     OW19183   8.781   5.647   1.694 -0.0847  0.2936  0.5815
 6007SOL    HW119184   8.693   5.659   1.730 -0.2193  2.9432 -0.3839
 6007SOL    HW219185   8.779   5.562   1.652 -2.2870  0.4099  0.3401
 6008SOL     OW19186   2.961   2.143   6.808 -0.4996 -0.3860  0.0142
 6008SOL    HW119187   2.958   2.082   6.881  0.3172 -0.3748  0.0697
 6008SOL    HW219188   2.870   2.168   6.793 -0.8908 -1.8370 -0.1948
 6009SOL     OW19189   6.381   3.886   2.099  0.5843 -0.2853 -0.8343
 6009SOL    HW119190   6.325   3.921   2.029 -0.1599 -1.2344 -0.7267
 6009SOL    HW219191   6.341   3.918   2.180  2.3921  2.2322 -0.8205
 6010SOL     OW19192   6.156   4.167   3.289  0.0847  0.2681  0.1648
 6010SOL    HW119193   6.129   4.096   3.231 -1.6742 -0.6012  1.9460
 6010SOL    HW219194   6.250   4.174   3.275  0.1166 -1.6172 -0.9328
 6011SOL     OW19195   7.908   7.150   2.441  0.0721 -0.5670 -0.5715
 6011SOL    HW119196   7.973   7.201   2.393  0.0610 -0.0915 -0.0897
 6011SOL    HW219197   7.930   7.163   2.533  0.2942 -1.7347 -0.4417
 6012SOL     OW19198   5.058   0.430   5.683  0.0490 -0.1013 -0.2446
 6012SOL    HW119199   5.003   0.489   5.733  0.6829  0.3339 -0.0454
 6012SOL    HW219200   5.021   0.432   5.594  0.0802  0.6302 -0.2501
 6013SOL     OW19201   1.775   7.387   5.570 -0.1546 -0.4192  0.3776
 6013SOL    HW119202   1.811   7.310   5.526  1.1362 -0.3799  1.3135
 6013SOL    HW219203   1.688   7.359   5.599 -0.3636 -0.9659 -0.7237
 6014SOL     OW19204   5.583   3.733   6.016 -0.2881 -0.2121 -0.5419
 6014SOL    HW119205   5.586   3.802   6.083  4.7745  1.8899 -2.4441
 6014SOL    HW219206   5.599   3.653   6.065 -2.1188  0.4271  1.2676
 6015SOL     OW19207   1.872   6.425   3.016  0.2619  0.5193  0.1427
 6015SOL    HW119208   1.949   6.462   2.974 -0.8510  0.8976 -1.6627
 6015SOL    HW219209   1.811   6.408   2.945 -0.1717 -2.7593  1.1627
 6016SOL     OW19210   8.411   2.936   7.036 -0.6073 -0.1840 -0.0249
 6016SOL    HW119211   8.451   3.004   6.981  0.0703 -1.1543 -0.7576
 6016SOL    HW219212   8.354   2.985   7.096 -3.1115  0.8196 -2.9294
 6017SOL     OW19213   3.206   3.068   7.882 -0.0647  0.0086  0.4185
 6017SOL    HW119214   3.166   3.155   7.880 -0.4181 -0.1470  0.6344
 6017SOL    HW219215   3.172   3.024   7.804 -0.5419 -0.2207  0.7508
 6018SOL     OW19216   2.204   8.304   6.461  0.1450 -0.1983  0.2744
 6018SOL    HW119217   2.178   8.213   6.475  0.2350 -0.4429 -1.0131
 6018SOL    HW219218   2.277   8.299   6.399 -1.4739  0.8200 -1.8851
 6019SOL     OW19219   6.901   2.394   4.087  0.3718  0.1904  0.7459
 6019SOL    HW119220   6.870   2.484   4.080  0.1363 -0.0210 -1.7769
 6019SOL    HW219221   6.841   2.343   4.033  2.2595 -0.9750 -0.3862
 6020SOL     OW19222   6.064   3.251   8.625  0.0568 -0.6079 -0.0815
 6020SOL    HW119223   6.027   3.336   8.604 -0.2195 -0.6447  0.2455
 6020SOL    HW219224   5.989   3.195   8.644  0.2143 -1.0418 -0.7068
 6021SOL     OW19225   0.768   2.773   4.342  0.1170 -0.3631  0.3318
 6021SOL    HW119226   0.772   2.692   4.393  0.9378 -0.3454  0.3024
 6021SOL    HW219227   0.774   2.744   4.251  0.2141 -0.2814  0.3124
 6022SOL     OW19228   4.149   1.741   7.744  0.0605  0.0065 -0.7952
 6022SOL    HW119229   4.211   1.669   7.732 -0.7469 -0.7945 -0.2357
 6022SOL    HW219230   4.202   1.812   7.781  0.5620 -0.8140  0.1049
 6023SOL     OW19231   4.533   5.037   8.544 -1.0064 -0.2465 -0.5348
 6023SOL    HW119232   4.476   4.995   8.609 -0.4530 -0.6080 -0.2796
 6023SOL    HW219233   4.472   5.072   8.478 -1.5209 -0.6476 -0.2795
 6024SOL     OW19234   0.628   3.267   7.098  0.2333  0.7198  0.6310
 6024SOL    HW119235   0.673   3.294   7.178  0.8389  0.5788  0.3402
 6024SOL    HW219236   0.564   3.202   7.128 -0.8622  2.0313  1.2576
 6025SOL     OW19237   0.427   2.994   3.277 -0.6142  0.3689  0.1483
 6025SOL    HW119238   0.439   2.939   3.355 -1.7184 -1.9217 -1.1904
 6025SOL    HW219239   0.461   2.940   3.206 -0.6855  1.9439 -1.1120
 6026SOL     OW19240   0.489   6.517   1.694  0.0029 -0.2773  0.3063
 6026SOL    HW119241   0.562   6.574   1.719 -1.6820  0.7626  3.4506
 6026SOL    HW219242   0.432   6.573   1.642  0.3499 -0.4268 -0.2478
 6027SOL     OW19243   8.434   1.278   4.573  0.2889 -0.3783 -0.1070
 6027SOL    HW119244   8.494   1.320   4.634  0.9523 -0.0714 -0.9433
 6027SOL    HW219245   8.473   1.294   4.487 -0.6667 -0.7225 -0.6171
 6028SOL     OW19246   7.598   5.934   5.308  0.1780  0.2216  0.4382
 6028SOL    HW119247   7.549   5.854   5.289  1.4514 -0.1582 -1.5999
 6028SOL    HW219248   7.578   5.992   5.234 -1.1799  2.0908  2.1552
 6029SOL     OW19249   0.239   6.199   6.053  0.3902 -0.0867 -0.3885
 6029SOL    HW119250   0.152   6.169   6.079  0.2759  0.2336 -0.3871
 6029SOL    HW219251   0.225   6.239   5.967 -0.3628  3.9043  1.3453
 6030SOL     OW19252   7.137   8.848   7.145  0.1744  0.1237  0.3714
 6030SOL    HW119253   7.154   8.912   7.076  0.4165  1.6455  1.7806
 6030SOL    HW219254   7.041   8.846   7.153  0.1890  1.2125  1.0793
 6031SOL     OW19255   2.053   7.615   4.928 -0.3638  0.0575  0.7800
 6031SOL    HW119256   2.086   7.699   4.958 -0.6092  0.4442 -0.0066
 6031SOL    HW219257   2.116   7.551   4.962 -0.1725  0.5535  1.3747
 6032SOL     OW19258   2.398   0.852   8.586  0.5397 -0.4863  0.2333
 6032SOL    HW119259   2.433   0.766   8.606  0.1879 -0.3613  1.4855
 6032SOL    HW219260   2.443   0.879   8.506  0.5348 -1.8901 -0.2590
 6033SOL     OW19261   4.303   7.323   0.577 -0.0957 -0.5235  0.9913
 6033SOL    HW119262   4.338   7.393   0.522 -1.0125 -1.2412 -0.5963
 6033SOL    HW219263   4.349   7.332   0.660  0.5210  1.3295  0.5011
 6034SOL     OW19264   1.568   8.729   2.486 -0.0135 -0.0044 -0.3010
 6034SOL    HW119265   1.617   8.804   2.518 -0.3985  0.6993 -1.3064
 6034SOL    HW219266   1.479   8.743   2.520  0.0133 -0.2360 -0.1330
 6035SOL     OW19267   8.308   4.674   6.032 -0.7296  0.0674 -0.2287
 6035SOL    HW119268   8.264   4.638   5.954  1.1233  0.2832 -1.4282
 6035SOL    HW219269   8.387   4.622   6.041  0.1159  1.3937  0.2720
 6036SOL     OW19270   4.366   1.464   5.700 -0.1225 -0.4646  0.1982
 6036SOL    HW119271   4.346   1.545   5.748 -1.8165 -0.3299 -0.6480
 6036SOL    HW219272   4.342   1.394   5.762  3.2427 -0.4688  1.7247
 6037SOL     OW19273   4.783   7.582   6.620 -0.0667 -0.4454  0.2150
 6037SOL    HW119274   4.764   7.660   6.567 -0.5568  0.0917  1.1409
 6037SOL    HW219275   4.707   7.574   6.678  1.2806  0.1820  2.1932
 6038SOL     OW19276   4.557   0.305   5.197 -0.2179  0.0449 -0.2758
 6038SOL    HW119277   4.589   0.229   5.148 -0.4574 -1.4139  1.7203
 6038SOL    HW219278   4.531   0.368   5.129 -0.2216 -1.7379 -2.0068
 6039SOL     OW19279   6.695   5.879   3.170 -0.1472 -0.3275  0.1165
 6039SOL    HW119280   6.632   5.831   3.224 -0.4503 -0.3360 -0.2409
 6039SOL    HW219281   6.703   5.964   3.214  0.5442 -0.7571  0.8633
 6040SOL     OW19282   8.088   4.868   4.179  0.3599 -0.9103  0.3817
 6040SOL    HW119283   8.063   4.788   4.134 -1.0911  0.2558 -0.9676
 6040SOL    HW219284   8.014   4.888   4.236  0.7282 -0.5391  0.7384
 6041SOL     OW19285   7.917   6.118   2.170 -0.4255 -0.4228 -0.1765
 6041SOL    HW119286   8.002   6.162   2.183 -0.7254  0.9101 -2.1560
 6041SOL    HW219287   7.890   6.091   2.257  0.5182  2.0596  0.9740
 6042SOL     OW19288   8.517   5.439   0.090 -0.1329 -0.0284  0.0522
 6042SOL    HW119289   8.528   5.526   0.127  1.0685  0.2203 -0.8287
 6042SOL    HW219290   8.503   5.455  -0.004  1.9177 -0.8275 -0.4349
 6043SOL     OW19291   3.754   1.729   3.790  0.4521 -0.6241  0.2852
 6043SOL    HW119292   3.811   1.669   3.839  1.2840 -0.6776 -0.7266
 6043SOL    HW219293   3.813   1.772   3.728 -0.4326  0.0898 -0.0656
 6044SOL     OW19294   0.198   1.443   2.743 -0.4911  0.4260 -0.1992
 6044SOL    HW119295   0.136   1.417   2.674 -0.8008 -0.5050  0.4032
 6044SOL    HW219296   0.144   1.447   2.822  0.4116 -1.7469  0.6162
 6045SOL     OW19297   7.290   4.859   0.194  0.6668 -0.4248 -0.1249
 6045SOL    HW119298   7.249   4.799   0.132  0.2872  0.7354 -1.0275
 6045SOL    HW219299   7.368   4.813   0.225 -1.4726 -2.9442  2.0479
 6046SOL     OW19300   3.403   7.987   0.219 -0.4873  0.4319  0.1382
 6046SOL    HW119301   3.498   7.984   0.230 -0.5275 -1.2935  0.2806
 6046SOL    HW219302   3.374   8.057   0.277  0.4582 -0.7101  2.0823
 6047SOL     OW19303   1.942   3.443   8.756 -0.0313  0.5649 -0.2492
 6047SOL    HW119304   2.016   3.481   8.805  0.6917  0.4489 -1.2113
 6047SOL    HW219305   1.898   3.386   8.819  0.8171  0.4880  0.2945
 6048SOL     OW19306   8.331   7.520   6.969 -0.1051 -0.3677  0.2998
 6048SOL    HW119307   8.254   7.465   6.953 -1.1955  0.7121  1.5933
 6048SOL    HW219308   8.300   7.587   7.030  0.5851  2.9488 -2.6904
 6049SOL     OW19309   7.385   3.734   1.667  0.2572  0.2121  0.3946
 6049SOL    HW119310   7.316   3.671   1.686  1.5498 -0.7972  2.0134
 6049SOL    HW219311   7.440   3.734   1.746  1.2350  2.1368 -0.2197
 6050SOL     OW19312   3.305   8.348   8.641 -0.0436 -0.1290 -0.3592
 6050SOL    HW119313   3.209   8.347   8.641 -0.0538 -0.3308 -1.6642
 6050SOL    HW219314   3.330   8.280   8.703 -0.7212  0.9604  1.1917
 6051SOL     OW19315   7.476   0.293   6.923 -0.1525 -0.0680  0.0233
 6051SOL    HW119316   7.544   0.247   6.972 -0.3038  0.7573  1.0412
 6051SOL    HW219317   7.508   0.383   6.915  0.7404 -0.5289 -3.0564
 6052SOL     OW19318   7.715   7.497   7.316  0.0381 -0.1156 -0.6021
 6052SOL    HW119319   7.739   7.434   7.248 -0.0961  1.0710 -1.7938
 6052SOL    HW219320   7.767   7.575   7.295  0.3140  0.1470  0.9237
 6053SOL     OW19321   3.181   4.010   2.828 -0.2093 -0.5887 -0.5758
 6053SOL    HW119322   3.135   4.081   2.874 -1.8830 -1.2121 -1.2305
 6053SOL    HW219323   3.256   4.054   2.787 -0.1804  0.4542  0.5272
 6054SOL     OW19324   2.598   6.898   8.563 -0.2425  0.0433 -0.9129
 6054SOL    HW119325   2.547   6.828   8.604 -2.7181  2.1241 -0.1220
 6054SOL    HW219326   2.534   6.947   8.511  1.2063  2.0631 -0.9287
 6055SOL     OW19327   8.110   6.199   5.056 -0.3412  0.1882 -0.6910
 6055SOL    HW119328   8.161   6.127   5.093 -1.3405 -0.0026  0.3538
 6055SOL    HW219329   8.176   6.258   5.019  0.5644 -0.6406 -0.4375
 6056SOL     OW19330   4.910   8.141   2.597  0.1166 -1.1532 -0.0731
 6056SOL    HW119331   4.909   8.095   2.513  1.3738 -2.5446  0.6119
 6056SOL    HW219332   4.935   8.074   2.660  0.4705  0.1491  1.2223
 6057SOL     OW19333   4.311   1.930   7.848  0.2109  0.1146 -0.0684
 6057SOL    HW119334   4.340   2.012   7.808  0.6517  0.2549  0.5201
 6057SOL    HW219335   4.280   1.955   7.935 -2.5712  0.1100 -0.9796
 6058SOL     OW19336   1.289   8.341   4.412 -0.2560 -0.6801  0.0323
 6058SOL    HW119337   1.336   8.260   4.395  1.6486  0.3438  0.1045
 6058SOL    HW219338   1.211   8.335   4.357  2.0379 -0.6514 -3.6434
 6059SOL     OW19339   0.829   2.526   7.274  0.1019 -0.1040  0.1394
 6059SOL    HW119340   0.744   2.489   7.248 -0.0277 -0.4483  1.0494
 6059SOL    HW219341   0.840   2.601   7.215 -1.5291  0.8460  0.9573
 6060SOL     OW19342   6.568   3.482   7.966  0.5762  0.4995 -0.5875
 6060SOL    HW119343   6.621   3.560   7.956 -0.5387  1.7261  2.0806
 6060SOL    HW219344   6.483   3.514   7.996  0.3066 -1.6972  1.3357
 6061SOL     OW19345   7.127   7.613   1.389 -0.0089 -0.3622  0.2312
 6061SOL    HW119346   7.201   7.585   1.336  0.1085  0.8873 -0.3034
 6061SOL    HW219347   7.061   7.545   1.375  1.5245 -2.3433  1.9640
 6062SOL     OW19348   7.366   7.818   3.276  0.1542  0.1573 -0.1965
 6062SOL    HW119349   7.440   7.798   3.333 -0.5997 -1.6294  0.2305
 6062SOL    HW219350   7.300   7.856   3.334 -0.1660 -0.5562 -0.0773
 6063SOL     OW19351   2.568   0.842   0.243 -0.3584 -0.1183  0.3268
 6063SOL    HW119352   2.586   0.921   0.295  0.8939 -0.1133 -0.0770
 6063SOL    HW219353   2.608   0.861   0.158 -1.2232 -0.6619 -0.2052
 6064SOL     OW19354   5.730   6.881   6.030  0.1263 -0.3482  0.1263
 6064SOL    HW119355   5.803   6.859   5.973  0.4049 -1.1509  0.7797
 6064SOL    HW219356   5.658   6.825   5.999  0.3330 -0.9234  0.6783
 6065SOL     OW19357   6.037   6.636   7.875  0.0878  0.0763 -0.0132
 6065SOL    HW119358   6.116   6.658   7.825  0.5407 -1.2346  0.0811
 6065SOL    HW219359   5.966   6.641   7.811  0.5738 -0.9552 -0.6705
 6066SOL     OW19360   2.511   3.367   6.008  0.2913 -0.8345  0.4643
 6066SOL    HW119361   2.466   3.438   6.054  1.3346  1.0299 -1.2045
 6066SOL    HW219362   2.451   3.293   6.013 -0.5603 -0.0868  2.8623
 6067SOL     OW19363   0.078   0.510   4.021  0.2145 -0.2089 -0.5221
 6067SOL    HW119364   0.015   0.523   4.092 -0.4767  1.6098 -1.4045
 6067SOL    HW219365   0.034   0.451   3.960  0.4064 -0.9752  0.0758
 6068SOL     OW19366   2.890   4.380   5.360 -0.2210  0.7247  0.0455
 6068SOL    HW119367   2.865   4.383   5.267 -0.0954 -0.0017 -0.0154
 6068SOL    HW219368   2.862   4.293   5.390 -0.5970  1.0921  0.7893
 6069SOL     OW19369   4.127   0.762   2.529  0.0476  0.6151  0.0008
 6069SOL    HW119370   4.216   0.727   2.530  0.2213  0.9234 -1.6290
 6069SOL    HW219371   4.134   0.846   2.574  0.2959  0.0634  1.0203
 6070SOL     OW19372   5.730   4.590   0.497 -0.0405 -0.1444 -0.5590
 6070SOL    HW119373   5.788   4.582   0.421 -0.4345 -1.3276 -0.7475
 6070SOL    HW219374   5.772   4.657   0.551  0.3054  0.6485 -1.7546
 6071SOL     OW19375   1.862   0.629   2.940 -0.2526  0.2613  0.0748
 6071SOL    HW119376   1.836   0.570   3.010  0.9702 -0.5371 -0.1212
 6071SOL    HW219377   1.873   0.572   2.864  1.0289  0.7096 -0.0981
 6072SOL     OW19378   1.712   8.854   4.871  0.0001  0.0881  0.1994
 6072SOL    HW119379   1.763   8.774   4.878  0.3413  0.2972  0.1241
 6072SOL    HW219380   1.689   8.860   4.778  2.9825  1.8930 -0.5517
 6073SOL     OW19381   1.557   6.202   6.400 -0.2882  0.5857  0.8412
 6073SOL    HW119382   1.472   6.233   6.369 -1.1267 -1.0744  1.3388
 6073SOL    HW219383   1.574   6.123   6.348  1.6608  1.6522 -0.2505
 6074SOL     OW19384   3.743   7.422   2.022 -0.3927 -0.2062 -0.3253
 6074SOL    HW119385   3.780   7.393   1.938 -1.1369  1.3446 -1.2389
 6074SOL    HW219386   3.813   7.473   2.062  0.5631 -2.2911  0.8283
 6075SOL     OW19387   5.492   5.924   8.171  0.3132  1.1506  0.3657
 6075SOL    HW119388   5.515   5.863   8.101 -2.7162 -1.1870  1.1521
 6075SOL    HW219389   5.485   6.009   8.129  1.5518  0.3831 -1.4939
 6076SOL     OW19390   8.328   4.537   0.400  0.0873  0.2528  0.1450
 6076SOL    HW119391   8.322   4.628   0.372 -0.2070 -0.2702 -1.5607
 6076SOL    HW219392   8.250   4.523   0.454  0.2398  1.0482  0.5890
 6077SOL     OW19393   0.774   4.887   8.677  0.0250  0.3886  0.0458
 6077SOL    HW119394   0.734   4.816   8.728  1.4109 -0.7542 -0.3945
 6077SOL    HW219395   0.773   4.855   8.587  0.3873  1.0853 -0.2109
 6078SOL     OW19396   3.835   8.603   1.580  0.0038 -0.8497  0.5911
 6078SOL    HW119397   3.907   8.602   1.643  0.6189 -2.6007 -0.0892
 6078SOL    HW219398   3.819   8.511   1.559 -2.4849 -0.5430  0.7472
 6079SOL     OW19399   0.003   1.797   8.473  0.2190 -0.2686  0.1543
 6079SOL    HW119400  -0.083   1.756   8.465 -0.1978  0.8743 -2.6065
 6079SOL    HW219401  -0.013   1.890   8.455  1.8485  0.1888  0.8765
 6080SOL     OW19402   7.564   6.029   6.971 -0.3512  0.2616 -0.4666
 6080SOL    HW119403   7.538   5.937   6.971  0.8921 -0.1704  1.7110
 6080SOL    HW219404   7.490   6.075   6.932 -1.6069 -1.5057 -0.3080
 6081SOL     OW19405   1.427   3.545   7.846  0.1648  0.3205 -0.0583
 6081SOL    HW119406   1.386   3.525   7.931 -0.1706  0.6537 -0.1379
 6081SOL    HW219407   1.518   3.566   7.868  0.0550  0.5036  0.2316
 6082SOL     OW19408   7.771   8.706   2.557 -0.2842  0.5759  0.3416
 6082SOL    HW119409   7.701   8.756   2.597  0.3620  2.1244 -0.3736
 6082SOL    HW219410   7.782   8.745   2.470  0.7669 -0.3125  0.0416
 6083SOL     OW19411   1.889   0.415   6.690  0.6950 -0.1180 -0.4374
 6083SOL    HW119412   1.906   0.329   6.651  0.5119 -0.2891 -0.1369
 6083SOL    HW219413   1.966   0.433   6.742  1.8421  0.9822 -2.3988
 6084SOL     OW19414   0.148   0.213   8.580  0.1840 -0.5204  0.2656
 6084SOL    HW119415   0.114   0.203   8.491  0.3442 -1.0027  0.2521
 6084SOL    HW219416   0.104   0.290   8.614  0.4576 -0.0657 -0.3905
 6085SOL     OW19417   6.923   7.080   3.067  0.0043  0.2259 -0.6799
 6085SOL    HW119418   6.958   7.167   3.048 -1.9700  1.1888 -0.2240
 6085SOL    HW219419   6.869   7.058   2.991 -1.9590  0.8108  0.4661
 6086SOL     OW19420   7.172   4.871   6.104 -0.5089  0.1778 -0.4333
 6086SOL    HW119421   7.157   4.835   6.192 -4.3871  0.1158 -0.9306
 6086SOL    HW219422   7.194   4.795   6.050  0.0258 -0.0632  0.1119
 6087SOL     OW19423   5.452   0.468   4.129 -0.4822  0.4541 -0.4714
 6087SOL    HW119424   5.455   0.392   4.070  0.7050 -0.0754  0.2398
 6087SOL    HW219425   5.373   0.453   4.182 -0.4951 -0.0690 -0.6263
 6088SOL     OW19426   0.611   1.437   0.773 -0.6846  0.4449  0.0654
 6088SOL    HW119427   0.523   1.458   0.802 -0.8776  0.8031 -0.7642
 6088SOL    HW219428   0.613   1.462   0.680 -0.5837 -2.1079 -0.7114
 6089SOL     OW19429   4.959   6.840   2.108  0.6116  0.5561 -0.2963
 6089SOL    HW119430   4.973   6.748   2.131  0.1749  0.2344 -1.2562
 6089SOL    HW219431   5.032   6.887   2.148  0.0872 -0.0111  1.4106
 6090SOL     OW19432   1.471   4.066   4.691  0.1446  0.3348  0.3241
 6090SOL    HW119433   1.558   4.031   4.671  0.3870  1.5125 -0.8528
 6090SOL    HW219434   1.459   4.049   4.785  0.5999 -2.0046  0.0057
 6091SOL     OW19435   2.625   7.322   3.546 -0.6917  0.2316 -0.3025
 6091SOL    HW119436   2.572   7.389   3.502 -2.0144 -1.0997 -0.7840
 6091SOL    HW219437   2.604   7.241   3.501 -0.0253 -0.7227  1.0482
 6092SOL     OW19438   2.180   7.066   2.734  0.2055 -0.8872  0.3838
 6092SOL    HW119439   2.244   7.106   2.792  1.4495 -1.0778 -0.8035
 6092SOL    HW219440   2.167   7.130   2.664 -2.1827 -0.1376  1.4052
 6093SOL     OW19441   0.971   2.208   0.272 -0.3120 -0.0481 -0.5175
 6093SOL    HW119442   0.965   2.254   0.356 -0.2653 -1.4417  0.2904
 6093SOL    HW219443   0.949   2.273   0.207 -0.2236  1.1105  0.5744
 6094SOL     OW19444   3.497   4.850   2.305  0.4091  0.4603 -0.6071
 6094SOL    HW119445   3.420   4.901   2.332 -0.4477 -1.6920  1.3615
 6094SOL    HW219446   3.568   4.914   2.301 -1.3195  2.4325 -2.0054
 6095SOL     OW19447   8.313   2.707   4.167  0.0337  0.6548  0.2081
 6095SOL    HW119448   8.387   2.647   4.175  0.6152  0.9960 -2.0253
 6095SOL    HW219449   8.352   2.794   4.164 -0.5911  0.9509  0.4049
 6096SOL     OW19450   0.738   4.253   0.587  0.0281  0.4790 -0.3028
 6096SOL    HW119451   0.649   4.278   0.613 -0.0725  0.2283 -0.4043
 6096SOL    HW219452   0.792   4.329   0.610  0.0096  0.1097  1.0291
 6097SOL     OW19453   4.985   2.653   7.829 -0.5055 -0.0399  0.1766
 6097SOL    HW119454   4.908   2.663   7.773 -0.6736  1.1846  0.5992
 6097SOL    HW219455   4.963   2.701   7.909  1.0271  1.1283 -0.0507
 6098SOL     OW19456   4.932   4.241   2.778 -0.2260 -0.4401  0.3933
 6098SOL    HW119457   4.877   4.223   2.855  1.7171  0.4554  2.0750
 6098SOL    HW219458   4.897   4.323   2.743  0.4884  0.5864  1.9664
 6099SOL     OW19459   1.714   6.130   5.990 -0.0108 -0.0566 -1.2202
 6099SOL    HW119460   1.782   6.129   6.058 -0.5270  0.4463 -0.6782
 6099SOL    HW219461   1.696   6.223   5.976 -1.1958 -0.1787 -0.7114
 6100SOL     OW19462   4.944   2.868   7.165 -0.0338  0.1563  0.2778
 6100SOL    HW119463   4.990   2.788   7.138  0.0906 -0.0952  1.1662
 6100SOL    HW219464   4.902   2.843   7.248 -2.1317  0.2648 -0.7062
 6101SOL     OW19465   1.080   0.495   5.830 -0.0107  0.0747 -0.0591
 6101SOL    HW119466   1.018   0.498   5.902 -0.2148  1.7430 -0.2687
 6101SOL    HW219467   1.030   0.523   5.754  0.8613  0.9441 -0.3340
 6102SOL     OW19468   6.001   0.905   8.406  0.5352  0.3246 -0.1498
 6102SOL    HW119469   5.914   0.865   8.415  0.5093  0.5858  0.8004
 6102SOL    HW219470   6.018   0.902   8.312 -0.5622  0.3910 -0.3662
 6103SOL     OW19471   7.949   3.283   2.965 -0.2223 -0.0989 -0.3655
 6103SOL    HW119472   8.010   3.210   2.975 -1.2507 -0.9867 -0.4091
 6103SOL    HW219473   7.886   3.254   2.900 -1.0067  0.5773  0.0611
 6104SOL     OW19474   8.127   0.018   2.990  0.0302 -0.0311 -0.0814
 6104SOL    HW119475   8.052  -0.012   3.041 -0.8661 -0.4208 -1.5497
 6104SOL    HW219476   8.142   0.108   3.020 -1.5485  0.3408 -0.2826
 6105SOL     OW19477   8.387   7.219   3.633  0.7806 -0.3194 -0.4069
 6105SOL    HW119478   8.378   7.124   3.644  1.8333 -0.2812  0.9421
 6105SOL    HW219479   8.414   7.251   3.719 -0.2276  1.3065 -0.6636
 6106SOL     OW19480   8.159   8.166   8.138  0.3796 -0.8965  0.6060
 6106SOL    HW119481   8.246   8.148   8.102 -0.2337  0.1957 -1.5684
 6106SOL    HW219482   8.168   8.254   8.176 -0.0266 -0.2917 -0.6429
 6107SOL     OW19483   8.560   5.098   6.010 -0.3908  0.3838  0.1577
 6107SOL    HW119484   8.588   5.162   6.075 -0.9707  1.1740 -0.3591
 6107SOL    HW219485   8.487   5.052   6.051  1.5638 -1.7228  1.5355
 6108SOL     OW19486   1.173   7.350   2.694  0.5871  0.4867  0.1916
 6108SOL    HW119487   1.179   7.315   2.605 -0.0552  0.3648  0.1944
 6108SOL    HW219488   1.253   7.318   2.737 -0.3374 -1.7073  0.4280
 6109SOL     OW19489   5.326   4.495   1.274  0.3169  0.0845 -0.1410
 6109SOL    HW119490   5.297   4.490   1.365  1.3902  1.8661  0.3320
 6109SOL    HW219491   5.406   4.547   1.277  0.2046  0.4434 -2.1470
 6110SOL     OW19492   2.843   1.814   3.399  0.3944  0.2349 -0.1323
 6110SOL    HW119493   2.883   1.844   3.481  0.6276 -0.1606 -0.1010
 6110SOL    HW219494   2.750   1.804   3.420  0.4981 -0.1241  0.1573
 6111SOL     OW19495   7.094   2.207   4.147  0.6161 -0.4156  0.1966
 6111SOL    HW119496   7.065   2.262   4.073  1.6980  1.1690  0.8906
 6111SOL    HW219497   7.013   2.178   4.188  0.0016 -0.6983 -1.1584
 6112SOL     OW19498   6.172   0.698   8.615 -0.1784 -0.2112  0.1411
 6112SOL    HW119499   6.170   0.794   8.609 -2.3555 -0.3071 -2.4282
 6112SOL    HW219500   6.255   0.673   8.575 -0.5448  0.5422 -1.1359
 6113SOL     OW19501   1.833   3.163   1.159 -0.4070 -0.6145  0.4591
 6113SOL    HW119502   1.870   3.102   1.095  0.2482 -2.1396  2.1871
 6113SOL    HW219503   1.750   3.123   1.185  0.3433 -1.2357  2.1064
 6114SOL     OW19504   1.648   5.193   2.325  0.0550 -0.6395 -0.5957
 6114SOL    HW119505   1.573   5.234   2.369 -0.5394 -3.0647  0.8082
 6114SOL    HW219506   1.662   5.247   2.247 -1.0816  1.7744  0.7540
 6115SOL     OW19507   6.424   1.210   4.425 -0.0833 -0.1234  0.6306
 6115SOL    HW119508   6.421   1.304   4.411  1.1008  0.0418  1.3328
 6115SOL    HW219509   6.462   1.175   4.344  0.5987  0.1361  0.8326
 6116SOL     OW19510   8.383   6.145   4.313 -0.2874 -0.3459 -0.1077
 6116SOL    HW119511   8.416   6.056   4.304  2.0119  0.4781 -0.5140
 6116SOL    HW219512   8.345   6.166   4.228  0.8604 -0.3229 -0.6245
 6117SOL     OW19513   4.119   5.781   3.141  0.3455  0.0335 -0.2890
 6117SOL    HW119514   4.158   5.859   3.101  1.3221 -0.0498  0.4417
 6117SOL    HW219515   4.115   5.802   3.235 -1.9045  0.2364 -0.3885
 6118SOL     OW19516   4.221   5.228   8.533 -0.4399  0.7524  0.0512
 6118SOL    HW119517   4.297   5.231   8.475 -0.2721  2.0266  0.3204
 6118SOL    HW219518   4.219   5.137   8.563  1.0015  0.6979  0.0699
 6119SOL     OW19519   0.873   7.300   4.915 -0.0995 -0.5846 -0.1924
 6119SOL    HW119520   0.860   7.343   5.000  2.8198 -0.4816  0.3194
 6119SOL    HW219521   0.821   7.220   4.920 -0.4138 -0.3098  1.4735
 6120SOL     OW19522   6.577   1.559   3.327  0.2940 -0.3203 -0.2802
 6120SOL    HW119523   6.540   1.577   3.240  2.6372  1.8363 -0.9708
 6120SOL    HW219524   6.503   1.527   3.378 -1.2157 -1.5729 -3.0116
 6121SOL     OW19525   7.798   5.602   3.267  0.3122  0.0659  0.1117
 6121SOL    HW119526   7.831   5.653   3.342 -0.1325 -1.1443  1.1676
 6121SOL    HW219527   7.869   5.604   3.204 -0.2702  3.4029 -0.6666
 6122SOL     OW19528   6.713   6.708   3.465  0.1856  0.1826 -0.1903
 6122SOL    HW119529   6.738   6.751   3.547  1.0660 -0.3348 -0.1685
 6122SOL    HW219530   6.790   6.656   3.441  0.1012  0.6398 -1.5604
 6123SOL     OW19531   6.949   4.694   1.470  0.2750 -0.1253 -0.2468
 6123SOL    HW119532   7.013   4.765   1.478  0.1443  0.0271 -0.5396
 6123SOL    HW219533   6.981   4.626   1.529 -0.4446  0.8085  1.3224
 6124SOL     OW19534   4.354   2.302   8.366 -0.3763  0.7395  0.2926
 6124SOL    HW119535   4.325   2.388   8.395  3.3450  2.3405 -0.0811
 6124SOL    HW219536   4.399   2.319   8.283  0.3561 -1.5716  0.1400
 6125SOL     OW19537   1.985   8.788   3.967 -0.3996 -0.5515 -0.3389
 6125SOL    HW119538   1.962   8.743   4.048 -2.3248 -0.7308 -0.9141
 6125SOL    HW219539   1.917   8.855   3.957  0.5961  0.3713 -1.1060
 6126SOL     OW19540   0.254   2.478   7.741  0.0097 -0.0718  0.1770
 6126SOL    HW119541   0.301   2.552   7.703  0.6773 -0.3034  0.5381
 6126SOL    HW219542   0.211   2.514   7.818  0.5885 -0.1272  0.5274
 6127SOL     OW19543   4.149   8.134   1.357  0.3874  0.6685  0.3491
 6127SOL    HW119544   4.180   8.106   1.443  1.3842  0.0424 -0.1914
 6127SOL    HW219545   4.221   8.186   1.322  0.4071  0.0785 -0.5106
 6128SOL     OW19546   0.862   4.405   4.565  0.3369 -0.3876 -0.0978
 6128SOL    HW119547   0.788   4.466   4.566  0.8098  0.1944  0.8266
 6128SOL    HW219548   0.833   4.333   4.509 -0.4259  0.4472 -0.8213
 6129SOL     OW19549   5.212   6.701   4.963 -0.1684 -0.6181 -0.1044
 6129SOL    HW119550   5.204   6.609   4.991 -3.3271  0.0547  1.6301
 6129SOL    HW219551   5.147   6.711   4.894 -1.6152  0.8034  1.3703
 6130SOL     OW19552   4.365   8.816   7.412 -0.1635  0.5628 -0.5195
 6130SOL    HW119553   4.369   8.756   7.487 -0.0669  0.4404 -0.6207
 6130SOL    HW219554   4.401   8.765   7.339  1.4546  1.2782 -0.2703
 6131SOL     OW19555   3.725   1.000   0.338  0.5060 -0.2397 -0.2471
 6131SOL    HW119556   3.813   0.968   0.320  0.5023  0.7672 -2.2655
 6131SOL    HW219557   3.737   1.089   0.372  0.3419 -0.9797  1.8917
 6132SOL     OW19558   7.946   5.134   1.507  0.0552 -0.0227 -0.6049
 6132SOL    HW119559   8.035   5.105   1.527 -0.0871 -3.4440 -3.8066
 6132SOL    HW219560   7.957   5.204   1.443  0.4636 -0.1031 -0.6235
 6133SOL     OW19561   1.738   3.223   8.587  0.4337 -0.0584 -0.6266
 6133SOL    HW119562   1.704   3.147   8.634 -0.4706  1.7686  1.8347
 6133SOL    HW219563   1.794   3.185   8.519 -0.0975 -2.9140  0.3814
 6134SOL     OW19564   7.310   6.849   0.435 -0.4984 -0.1573 -0.1299
 6134SOL    HW119565   7.287   6.757   0.438  2.6399 -1.0174  1.4330
 6134SOL    HW219566   7.336   6.865   0.344 -1.1463 -0.7339 -0.4248
 6135SOL     OW19567   4.076   4.014   6.026 -0.3433 -0.0351 -0.1024
 6135SOL    HW119568   4.142   3.997   6.093 -0.5481  1.7793  0.5982
 6135SOL    HW219569   4.111   4.089   5.977 -1.2154  0.0368 -0.6310
 6136SOL     OW19570   7.208   4.558   2.179  0.5097  0.0442  0.0554
 6136SOL    HW119571   7.133   4.575   2.236 -0.3478  0.3298 -1.1406
 6136SOL    HW219572   7.198   4.468   2.150 -0.5741  0.7098 -1.7965
 6137SOL     OW19573   2.106   8.476   7.885  0.6973 -0.3082  0.3930
 6137SOL    HW119574   2.040   8.409   7.870  0.8680 -0.2672 -0.6365
 6137SOL    HW219575   2.056   8.556   7.903  0.4353 -0.1460 -0.9632
 6138SOL     OW19576   3.596   2.124   7.774 -0.0691  0.4448 -0.6019
 6138SOL    HW119577   3.576   2.218   7.767 -1.6543  0.2530  0.6685
 6138SOL    HW219578   3.601   2.094   7.683 -0.0204  1.6572 -1.0225
 6139SOL     OW19579   8.192   6.785   0.063 -0.5185  0.0203  0.1356
 6139SOL    HW119580   8.166   6.770  -0.028  1.5950  1.3372 -0.7713
 6139SOL    HW219581   8.256   6.716   0.081 -0.7388 -0.0797  0.5612
 6140SOL     OW19582   5.795   1.176   3.473  0.2461 -0.1673 -0.5568
 6140SOL    HW119583   5.846   1.101   3.502  1.3204  0.3434 -1.0443
 6140SOL    HW219584   5.824   1.190   3.382 -1.6294 -0.5699 -1.2607
 6141SOL     OW19585   5.107   7.111   7.347  0.0225 -0.1760  0.4412
 6141SOL    HW119586   5.186   7.058   7.353  0.8119  1.0157  0.8710
 6141SOL    HW219587   5.137   7.196   7.318 -1.0682  0.3894  0.9009
 6142SOL     OW19588   8.277   5.829   4.056  0.0171 -0.1541  0.1696
 6142SOL    HW119589   8.230   5.747   4.068  0.0280 -0.1249  0.4227
 6142SOL    HW219590   8.300   5.831   3.963  0.7622 -0.8391  0.3252
 6143SOL     OW19591   8.740   0.317   1.308  0.0138  0.4715 -0.1134
 6143SOL    HW119592   8.776   0.388   1.254 -0.3120  1.8500  1.4023
 6143SOL    HW219593   8.806   0.304   1.377  0.1597 -0.8570 -0.4805
 6144SOL     OW19594   4.340   5.290   0.615  0.1664  0.0425  0.0535
 6144SOL    HW119595   4.276   5.316   0.683  0.0478 -1.5488  0.5916
 6144SOL    HW219596   4.286   5.270   0.539  0.2718  1.4491 -0.4258
 6145SOL     OW19597   5.091   6.100   5.349 -0.3951 -0.6402 -0.6195
 6145SOL    HW119598   5.048   6.113   5.434 -1.3811  0.0651 -1.2103
 6145SOL    HW219599   5.155   6.031   5.365 -0.2459 -0.2084  0.8190
 6146SOL     OW19600   8.393   0.202   5.187 -0.1615  0.1641 -0.2059
 6146SOL    HW119601   8.438   0.142   5.128 -1.6873 -0.8477 -0.4040
 6146SOL    HW219602   8.311   0.222   5.142 -0.2366  1.4087  0.4451
 6147SOL     OW19603   8.497   3.086   8.852 -0.0318 -0.2249  0.2778
 6147SOL    HW119604   8.520   3.005   8.807  0.9017  1.0708 -1.7710
 6147SOL    HW219605   8.423   3.121   8.801  0.0421  0.5399  0.6827
 6148SOL     OW19606   0.639   2.716   0.464  0.0654 -0.0997 -0.2083
 6148SOL    HW119607   0.688   2.793   0.436  4.3387 -1.7017  1.9484
 6148SOL    HW219608   0.641   2.658   0.387  0.6704  0.3032 -0.5129
 6149SOL     OW19609   5.665   7.906   2.271  0.5634  0.2539 -0.4178
 6149SOL    HW119610   5.750   7.890   2.312  0.6584  0.6911 -0.4393
 6149SOL    HW219611   5.678   7.882   2.180  0.6718  0.3477 -0.4276
 6150SOL     OW19612   0.100   5.093   5.854  0.4144  0.0673  0.4947
 6150SOL    HW119613   0.006   5.102   5.869  0.1996  0.6642 -1.0367
 6150SOL    HW219614   0.108   5.081   5.760  1.8638 -0.3613  0.6458
 6151SOL     OW19615   5.963   5.960   4.408  0.0665  0.2550  0.3896
 6151SOL    HW119616   6.017   6.038   4.422 -0.4647  0.7044 -0.0347
 6151SOL    HW219617   5.936   5.934   4.496  2.5670 -1.1670  0.8389
 6152SOL     OW19618   2.695   6.957   4.368  0.0728  0.7220 -0.4084
 6152SOL    HW119619   2.774   6.907   4.391 -0.0714  0.3225 -0.7881
 6152SOL    HW219620   2.703   6.972   4.274  0.3806  1.8793 -0.2159
 6153SOL     OW19621   1.392   7.151   2.657 -0.4987 -0.0247 -0.0065
 6153SOL    HW119622   1.455   7.110   2.716  0.6648  1.3705 -0.2227
 6153SOL    HW219623   1.311   7.103   2.672  0.2006 -0.8288  1.4550
 6154SOL     OW19624   3.383   4.141   8.022  0.1065  0.2791 -0.7750
 6154SOL    HW119625   3.306   4.139   8.079  0.1152  0.6726 -0.7467
 6154SOL    HW219626   3.347   4.136   7.933  0.1196 -0.8639 -0.7293
 6155SOL     OW19627   7.273   1.521   2.216 -0.6265  0.8267 -0.7444
 6155SOL    HW119628   7.187   1.481   2.203 -1.1293  1.9354 -0.9766
 6155SOL    HW219629   7.310   1.528   2.128  0.3349 -0.9460 -0.5195
 6156SOL     OW19630   2.117   7.476   2.521 -0.2634  0.1658  0.3144
 6156SOL    HW119631   2.168   7.419   2.464 -0.1352  0.1892  0.4072
 6156SOL    HW219632   2.027   7.442   2.514 -0.5990  1.2120 -1.2652
 6157SOL     OW19633   2.398   8.758   1.698 -0.2375 -0.2961  0.1364
 6157SOL    HW119634   2.320   8.793   1.656  0.1024 -1.1709 -1.2814
 6157SOL    HW219635   2.455   8.834   1.708 -1.3837  0.4222  1.5353
 6158SOL     OW19636   7.733   7.597   3.381  0.8920 -0.0563  0.1861
 6158SOL    HW119637   7.731   7.504   3.402  3.7730  0.1052  1.6888
 6158SOL    HW219638   7.716   7.601   3.287  0.3966 -2.0476  0.1440
 6159SOL     OW19639   4.599   6.808   4.195  0.2172 -0.0453 -0.3384
 6159SOL    HW119640   4.695   6.806   4.199  0.1882 -0.6055  0.2727
 6159SOL    HW219641   4.572   6.728   4.241 -0.5355 -0.0474 -0.7706
 6160SOL     OW19642   5.551   1.309   1.603  0.8636 -0.1639  0.4990
 6160SOL    HW119643   5.464   1.286   1.568  1.1623 -2.9392  1.3401
 6160SOL    HW219644   5.602   1.333   1.525  0.6963 -3.4231 -0.7970
 6161SOL     OW19645   4.010   1.132   1.297 -0.3321  0.2770  0.0183
 6161SOL    HW119646   4.049   1.206   1.250 -2.2672  0.3444 -1.6313
 6161SOL    HW219647   4.054   1.055   1.261 -1.3269  0.3779 -1.5006
 6162SOL     OW19648   5.407   6.440   5.204 -0.0210  0.4443  0.0860
 6162SOL    HW119649   5.469   6.511   5.185  1.4286 -1.0245 -0.9918
 6162SOL    HW219650   5.454   6.360   5.179 -1.7259 -0.8840  0.9211
 6163SOL     OW19651   2.216   6.722   7.048 -0.7796 -0.2200 -0.1406
 6163SOL    HW119652   2.295   6.684   7.009  0.0661  0.1607  1.1092
 6163SOL    HW219653   2.186   6.787   6.984  0.0565 -0.2118 -0.5401
 6164SOL     OW19654   5.516   8.266   2.283 -0.1035  0.3489  0.4263
 6164SOL    HW119655   5.469   8.218   2.352  0.8844  0.1732  0.9989
 6164SOL    HW219656   5.605   8.231   2.287  0.3307  1.3941  0.0374
 6165SOL     OW19657   1.083   7.771   1.929 -0.0950  0.2500 -0.0192
 6165SOL    HW119658   1.133   7.720   1.866 -0.8235  0.6175 -0.9131
 6165SOL    HW219659   1.132   7.852   1.939 -0.1125  0.2968 -0.3157
 6166SOL     OW19660   1.030   7.282   2.922  0.2925 -0.5542 -0.3644
 6166SOL    HW119661   1.111   7.272   2.971  0.2980 -1.4182 -0.5333
 6166SOL    HW219662   1.057   7.287   2.830  0.2262  0.2081 -0.3432
 6167SOL     OW19663   3.473   1.889   4.118 -0.3172 -0.2746 -0.4945
 6167SOL    HW119664   3.473   1.831   4.041 -0.2409 -0.1512 -0.5877
 6167SOL    HW219665   3.547   1.860   4.170 -1.1518 -1.2373  0.1992
 6168SOL     OW19666   6.964   1.202   5.646 -0.0744  0.3780 -0.3781
 6168SOL    HW119667   7.001   1.115   5.631 -1.5045 -0.6104  1.3852
 6168SOL    HW219668   6.873   1.196   5.619 -0.2016  1.3310 -0.2265
 6169SOL     OW19669   3.466   1.994   5.296  0.4381 -0.0787  0.6741
 6169SOL    HW119670   3.554   2.019   5.323  1.7875 -2.3905 -1.1407
 6169SOL    HW219671   3.463   2.015   5.202 -0.5093 -1.0611  0.4660
 6170SOL     OW19672   0.081   2.324   5.977 -0.5501 -0.3635 -0.1481
 6170SOL    HW119673   0.137   2.267   6.029  0.4210  0.2663 -0.4690
 6170SOL    HW219674   0.024   2.264   5.929  1.4079 -1.1897 -1.5878
 6171SOL     OW19675   8.077   3.755   2.752 -0.5089  0.2515  0.1799
 6171SOL    HW119676   7.986   3.746   2.724 -0.6090  0.2672  0.5016
 6171SOL    HW219677   8.128   3.712   2.683 -0.6449  1.6508 -0.8598
 6172SOL     OW19678   1.788   0.366   8.525 -0.2051 -0.3504  0.3375
 6172SOL    HW119679   1.807   0.390   8.615  1.1077 -0.9669  0.2449
 6172SOL    HW219680   1.794   0.449   8.476  1.8193 -0.4058  0.4069
 6173SOL     OW19681   5.985   6.222   5.292  0.2595  0.2990 -0.3379
 6173SOL    HW119682   6.067   6.217   5.243 -0.8054  0.8366 -2.2790
 6173SOL    HW219683   5.954   6.311   5.276 -0.3765  0.3347  0.9678
 6174SOL     OW19684   3.106   2.739   4.564  0.0063  0.3898  0.7969
 6174SOL    HW119685   3.171   2.717   4.631  0.9472 -1.6909 -0.6879
 6174SOL    HW219686   3.054   2.659   4.553  2.2176 -0.7594 -3.4056
 6175SOL     OW19687   6.035   6.230   1.278 -0.7740 -0.2338 -0.0478
 6175SOL    HW119688   6.027   6.312   1.327  0.9085  0.3558 -0.7047
 6175SOL    HW219689   6.082   6.253   1.198 -2.0295 -1.4902 -1.2158
 6176SOL     OW19690   4.210   0.137   6.658 -0.4388 -0.9600  0.0075
 6176SOL    HW119691   4.287   0.084   6.677 -0.5880 -0.5806  1.8558
 6176SOL    HW219692   4.234   0.189   6.581  1.2368 -0.7027  0.6741
 6177SOL     OW19693   7.552   8.144   4.057 -0.1933 -0.0840  0.0219
 6177SOL    HW119694   7.615   8.216   4.054  0.0393 -0.2994 -1.7013
 6177SOL    HW219695   7.503   8.153   3.975 -1.9841 -0.3128  1.0171
 6178SOL     OW19696   2.619   8.785   3.624 -0.0575 -0.3124  0.4053
 6178SOL    HW119697   2.701   8.827   3.649 -0.6142  0.0031  1.7796
 6178SOL    HW219698   2.603   8.815   3.534  0.6332  0.6985  0.6012
 6179SOL     OW19699   7.437   3.194   4.329  0.7534  0.4318 -0.0489
 6179SOL    HW119700   7.470   3.249   4.257  2.3656 -1.1510 -0.5727
 6179SOL    HW219701   7.496   3.120   4.332 -0.9078 -0.9175  1.1613
 6180SOL     OW19702   4.195   3.394   4.453  0.2886 -0.0315 -0.3434
 6180SOL    HW119703   4.139   3.398   4.530 -0.5724  1.2539 -0.9986
 6180SOL    HW219704   4.273   3.445   4.477 -0.0166  0.4403 -0.3355
 6181SOL     OW19705   7.646   2.420   5.403  0.3496 -0.2992  0.2484
 6181SOL    HW119706   7.704   2.447   5.475 -1.0263  1.2821  0.8327
 6181SOL    HW219707   7.571   2.478   5.410 -0.8168 -1.5538 -1.1737
 6182SOL     OW19708   8.606   1.113   3.641 -0.0191 -0.5268  0.5338
 6182SOL    HW119709   8.621   1.024   3.672  0.2787  0.2097  2.6475
 6182SOL    HW219710   8.533   1.146   3.694 -2.3581 -0.5107 -2.4071
 6183SOL     OW19711   8.631   7.260   0.126 -0.0632  0.0857  0.0634
 6183SOL    HW119712   8.696   7.326   0.150  0.3193  0.1883 -1.1723
 6183SOL    HW219713   8.578   7.302   0.059 -1.0226 -0.2194  0.6167
 6184SOL     OW19714   6.522   5.358   6.839 -0.3434  0.1345  0.2960
 6184SOL    HW119715   6.485   5.408   6.766 -0.9346 -0.2411  0.3278
 6184SOL    HW219716   6.526   5.268   6.807 -2.1414 -0.3463  1.2437
 6185SOL     OW19717   3.590   0.723   1.732  0.0316  0.6313  0.0123
 6185SOL    HW119718   3.594   0.788   1.802 -1.0550  0.9364 -0.1873
 6185SOL    HW219719   3.621   0.770   1.654  1.3335  0.2642  0.2795
 6186SOL     OW19720   1.979   2.665   1.391  0.1637 -0.2035  0.3140
 6186SOL    HW119721   2.017   2.619   1.317  1.6995  1.9392 -0.3145
 6186SOL    HW219722   1.972   2.756   1.362 -1.4229  0.2762  1.9866
 6187SOL     OW19723   4.910   6.121   8.112 -0.0162  0.1575 -0.1728
 6187SOL    HW119724   4.847   6.170   8.059  0.4422  1.9465  0.8439
 6187SOL    HW219725   4.971   6.188   8.145  1.3213 -1.2634  0.3802
 6188SOL     OW19726   0.087   8.411   8.834 -0.4650  0.1084  0.1445
 6188SOL    HW119727   0.115   8.476   8.769 -2.1270 -1.1232 -1.9493
 6188SOL    HW219728   0.113   8.327   8.796 -2.8022 -0.7514  0.2704
 6189SOL     OW19729   6.603   1.754   6.071 -0.1354 -0.1307  0.6839
 6189SOL    HW119730   6.648   1.815   6.013  1.3519 -1.6776  0.1265
 6189SOL    HW219731   6.532   1.719   6.017  0.2898 -0.4179  0.3055
 6190SOL     OW19732   7.962   1.711   8.233 -0.3979  0.2918 -0.1220
 6190SOL    HW119733   8.014   1.742   8.307 -1.4765 -0.7397  1.1325
 6190SOL    HW219734   7.877   1.688   8.271 -0.7902 -0.8426 -1.5611
 6191SOL     OW19735   5.950   0.558   2.146 -0.6025  0.1103  0.2018
 6191SOL    HW119736   5.960   0.550   2.241 -0.0449  2.8987  0.4673
 6191SOL    HW219737   5.892   0.633   2.134 -0.5858 -0.1231 -1.6857
 6192SOL     OW19738   3.049   6.237   4.089  0.5331  0.4194  0.3592
 6192SOL    HW119739   2.959   6.226   4.058  0.0391 -0.7218  2.0907
 6192SOL    HW219740   3.103   6.219   4.012 -0.6952  1.3710 -0.7734
 6193SOL     OW19741   5.782   2.034   4.784  0.2750 -0.0997 -0.2477
 6193SOL    HW119742   5.833   2.081   4.850 -0.0619  0.4813 -0.3973
 6193SOL    HW219743   5.841   2.029   4.708 -0.5482  2.3721 -1.1511
 6194SOL     OW19744   7.309   1.182   4.230 -0.1138 -0.3895 -0.5620
 6194SOL    HW119745   7.295   1.271   4.264  1.9889 -0.8510  1.7744
 6194SOL    HW219746   7.221   1.143   4.228 -0.9175  1.3217 -0.4520
 6195SOL     OW19747   1.258   3.721   1.511 -0.1410  0.4173  0.5303
 6195SOL    HW119748   1.264   3.667   1.433  1.8965  0.1183  0.8213
 6195SOL    HW219749   1.177   3.771   1.501 -0.7273 -0.7796 -0.9796
 6196SOL     OW19750   7.777   7.509   2.637 -0.0243 -0.0288  0.0491
 6196SOL    HW119751   7.809   7.562   2.564 -1.1452  2.4643  1.2195
 6196SOL    HW219752   7.856   7.475   2.679  0.7779  0.8641 -0.6927
 6197SOL     OW19753   1.056   2.625   4.396  0.5742 -0.0679  0.2945
 6197SOL    HW119754   1.034   2.647   4.487 -0.2761 -0.4069  0.1805
 6197SOL    HW219755   1.050   2.709   4.349  1.2749  0.1585  0.5835
 6198SOL     OW19756   8.762   2.830   8.630 -0.2283  0.2052  0.4738
 6198SOL    HW119757   8.696   2.867   8.571  0.9101  1.3114 -0.1465
 6198SOL    HW219758   8.743   2.869   8.715  1.2835  2.8171 -0.2707
 6199SOL     OW19759   2.040   6.985   6.387  0.1230  0.0245  0.3219
 6199SOL    HW119760   2.126   6.942   6.384  0.7863  1.1695  1.6179
 6199SOL    HW219761   1.988   6.939   6.321  0.8727 -2.5500  1.3831
 6200SOL     OW19762   7.298   2.960   6.287  0.0458 -0.0968 -0.9810
 6200SOL    HW119763   7.377   2.938   6.336  0.2958 -0.5167 -1.5495
 6200SOL    HW219764   7.231   2.902   6.323 -0.4821  1.5127  0.7508
 6201SOL     OW19765   0.543   8.670   8.764  0.1679 -0.5179 -0.1475
 6201SOL    HW119766   0.470   8.652   8.823 -1.5181 -0.3154 -2.0482
 6201SOL    HW219767   0.545   8.595   8.705  1.0626 -0.2065 -0.5266
 6202SOL     OW19768   0.484   4.047   7.987  0.4507 -0.0320  0.3901
 6202SOL    HW119769   0.478   4.141   8.005  0.4484 -0.0189  0.3231
 6202SOL    HW219770   0.405   4.010   8.027  0.5559 -0.0345  0.5947
 6203SOL     OW19771   7.142   8.450   5.588  0.0021  0.1609  0.3654
 6203SOL    HW119772   7.234   8.422   5.585 -0.0441  0.0762 -1.4550
 6203SOL    HW219773   7.147   8.543   5.611  0.5339  0.1447  0.3429
 6204SOL     OW19774   3.591   6.224   4.560 -0.4994 -0.6667  0.1226
 6204SOL    HW119775   3.584   6.300   4.504 -1.3503 -0.1071  0.9465
 6204SOL    HW219776   3.516   6.231   4.619  1.4182 -0.1538  2.6443
 6205SOL     OW19777   4.984   0.797   2.388  0.2483 -0.3529  0.1586
 6205SOL    HW119778   5.002   0.891   2.392  2.5505 -0.5924 -1.8711
 6205SOL    HW219779   4.989   0.767   2.479 -0.4915  1.4493  0.8291
 6206SOL     OW19780   7.439   2.579   5.486 -0.3273  0.1328 -0.3028
 6206SOL    HW119781   7.421   2.522   5.561  0.5165  1.6477  1.1016
 6206SOL    HW219782   7.359   2.576   5.433 -1.3349 -0.1686  1.1845
 6207SOL     OW19783   6.423   4.116   3.968  0.5714  0.1001  0.4813
 6207SOL    HW119784   6.462   4.068   4.041  1.1982 -0.4027 -0.1702
 6207SOL    HW219785   6.336   4.142   3.999  0.1836 -1.5182  0.8327
 6208SOL     OW19786   6.306   7.091   0.509  0.0564 -0.3575 -0.0994
 6208SOL    HW119787   6.268   7.028   0.447  1.4549 -2.0009  0.6445
 6208SOL    HW219788   6.381   7.045   0.547 -0.2738  0.8844  2.2314
 6209SOL     OW19789   8.795   0.020   3.180  0.3151 -0.5787 -0.4462
 6209SOL    HW119790   8.701   0.014   3.160  0.4573  0.3154 -1.4691
 6209SOL    HW219791   8.799   0.030   3.276 -0.6833  0.1825 -0.4691
 6210SOL     OW19792   6.153   8.792   8.380  0.1054 -0.3961  0.1956
 6210SOL    HW119793   6.117   8.717   8.428 -1.2751  0.4046  0.4751
 6210SOL    HW219794   6.108   8.791   8.296  0.2560 -0.0308  0.1078
 6211SOL     OW19795   3.684   8.762   4.976  0.5961  0.4015 -0.4919
 6211SOL    HW119796   3.760   8.779   5.032 -0.4180  0.2999  0.9776
 6211SOL    HW219797   3.641   8.686   5.016 -1.9539  2.2492  0.6072
 6212SOL     OW19798   8.576   6.561   6.487 -0.0739 -0.4145  0.5372
 6212SOL    HW119799   8.515   6.552   6.561  1.3167 -0.9341  1.6603
 6212SOL    HW219800   8.621   6.477   6.483 -0.4898 -0.5865 -1.2841
 6213SOL     OW19801   3.043   1.721   0.064  0.3294  0.2612  0.7592
 6213SOL    HW119802   3.074   1.802   0.106  0.8304 -0.0220  0.9429
 6213SOL    HW219803   3.102   1.653   0.097  1.2883  0.1597 -1.0609
 6214SOL     OW19804   2.320   7.350   7.245  0.7380  0.0354 -0.6221
 6214SOL    HW119805   2.291   7.291   7.315  1.6384  0.7059  0.3388
 6214SOL    HW219806   2.392   7.304   7.203  0.7176 -0.0202 -0.5964
 6215SOL     OW19807   8.322   1.613   5.873  0.0092  0.2758  0.2112
 6215SOL    HW119808   8.326   1.518   5.887  0.9268  0.2702 -0.0087
 6215SOL    HW219809   8.242   1.627   5.823 -2.1886  0.0352  3.3388
 6216SOL     OW19810   5.607   2.773   5.972 -0.1157 -0.3718  0.4539
 6216SOL    HW119811   5.553   2.791   6.050  0.1334  1.1653  0.2966
 6216SOL    HW219812   5.693   2.751   6.008 -0.5225 -1.7794  0.6614
 6217SOL     OW19813   2.381   6.662   8.289  0.5752 -0.6198 -0.0168
 6217SOL    HW119814   2.286   6.651   8.290  0.1782  2.0634 -1.5325
 6217SOL    HW219815   2.405   6.665   8.382 -1.2531  1.4972  0.4688
 6218SOL     OW19816   2.163   3.949   1.812  0.4788  0.4025  0.8808
 6218SOL    HW119817   2.235   3.984   1.760  1.3391 -2.0289  0.2713
 6218SOL    HW219818   2.182   3.855   1.818 -4.4032 -1.2219 -2.4225
 6219SOL     OW19819   4.004   5.981   7.278 -0.2210  0.0704 -0.4126
 6219SOL    HW119820   4.063   6.032   7.334 -0.1646 -1.4995  1.0379
 6219SOL    HW219821   4.048   5.978   7.193 -0.0971  2.1461 -0.4717
 6220SOL     OW19822   1.796   3.046   7.283 -0.1108  0.5323  0.4114
 6220SOL    HW119823   1.811   3.084   7.196 -0.0759 -0.4923 -0.0490
 6220SOL    HW219824   1.703   3.064   7.301 -0.5057 -0.4765 -0.4848
 6221SOL     OW19825   3.011   7.471   6.389 -0.2244  0.2438  0.1247
 6221SOL    HW119826   2.989   7.391   6.435  0.6836  0.6930  1.4055
 6221SOL    HW219827   2.947   7.535   6.420  1.5064  1.0438  2.3554
 6222SOL     OW19828   4.363   0.305   6.052  0.7223 -0.1904  0.2274
 6222SOL    HW119829   4.400   0.221   6.080 -1.6835 -0.9253  1.5029
 6222SOL    HW219830   4.319   0.285   5.969  2.4207  0.5132 -0.9078
 6223SOL     OW19831   5.771   2.108   3.130 -0.1226  0.3887  0.6401
 6223SOL    HW119832   5.703   2.117   3.063 -0.2666 -2.6141  0.2661
 6223SOL    HW219833   5.754   2.181   3.190 -3.0638  0.3679  0.0161
 6224SOL     OW19834   8.688   3.763   0.114  0.3957 -0.4700  0.0975
 6224SOL    HW119835   8.659   3.803   0.196  0.5647 -0.0075 -0.0651
 6224SOL    HW219836   8.611   3.769   0.057 -0.0306 -1.6387  0.5078
 6225SOL     OW19837   4.607   4.613   6.506  0.2474  0.0766 -0.1113
 6225SOL    HW119838   4.543   4.657   6.560  1.4481  1.2075  0.4376
 6225SOL    HW219839   4.608   4.662   6.424 -0.8553 -1.0378 -0.8382
 6226SOL     OW19840   3.218   4.035   4.889 -0.2706 -0.0292  0.4764
 6226SOL    HW119841   3.268   4.010   4.967 -0.0227 -0.0927  0.2983
 6226SOL    HW219842   3.282   4.078   4.832 -0.0906 -1.3310 -0.3497
 6227SOL     OW19843   4.846   1.411   3.513 -0.1781  0.0279  0.2339
 6227SOL    HW119844   4.923   1.356   3.497 -0.0357 -0.1419  1.4475
 6227SOL    HW219845   4.862   1.450   3.598 -0.8566  0.9978 -0.0702
 6228SOL     OW19846   7.445   1.900   1.639 -0.4499 -0.2293  0.3036
 6228SOL    HW119847   7.402   1.856   1.566  0.6911 -1.7603  0.5111
 6228SOL    HW219848   7.519   1.946   1.599 -0.6227  0.0628  0.3185
 6229SOL     OW19849   2.954   3.653   2.812 -0.2237 -0.2918  0.0117
 6229SOL    HW119850   2.923   3.685   2.897 -0.4043 -0.0045 -0.1594
 6229SOL    HW219851   2.877   3.656   2.756  0.0564  0.2152 -0.3566
 6230SOL     OW19852   0.352   3.372   3.901 -0.2051  0.2161  0.2856
 6230SOL    HW119853   0.298   3.434   3.853 -2.6515 -0.8283  1.4829
 6230SOL    HW219854   0.401   3.426   3.964 -0.4032  1.1333 -0.3345
 6231SOL     OW19855   2.663   7.481   6.710 -0.4310 -0.5036  0.4433
 6231SOL    HW119856   2.708   7.565   6.720  0.5141 -1.0677  1.0706
 6231SOL    HW219857   2.570   7.504   6.701 -0.1205  0.6324 -0.0259
 6232SOL     OW19858   5.628   2.297   1.625 -0.1168 -0.1738 -0.4103
 6232SOL    HW119859   5.717   2.325   1.604  0.1890 -1.0870 -0.4009
 6232SOL    HW219860   5.583   2.377   1.651  0.4940  0.4170 -1.1265
 6233SOL     OW19861   1.483   6.414   5.757 -0.2684  0.0251  0.3063
 6233SOL    HW119862   1.505   6.507   5.748 -4.6121  1.2685  0.2582
 6233SOL    HW219863   1.441   6.391   5.674  0.3700 -1.8869  0.4850
 6234SOL     OW19864   3.702   5.917   1.920 -0.1813  0.6760  0.0739
 6234SOL    HW119865   3.721   5.823   1.921 -2.2182  0.1779 -1.1782
 6234SOL    HW219866   3.742   5.948   1.839  0.1264  0.8128  0.2761
 6235SOL     OW19867   7.342   7.108   1.098 -0.4192 -0.1771  0.2106
 6235SOL    HW119868   7.344   7.196   1.059  0.7049  0.0585  0.7665
 6235SOL    HW219869   7.411   7.060   1.052 -0.3435 -0.4616  0.6141
 6236SOL     OW19870   8.804   7.966   0.142 -0.2451  0.0614 -0.7586
 6236SOL    HW119871   8.712   7.984   0.122 -0.2190  1.0156 -0.0777
 6236SOL    HW219872   8.806   7.874   0.166 -1.3718  0.4421  1.0040
 6237SOL     OW19873   0.605   0.350   5.071 -0.0096 -0.0149 -0.5378
 6237SOL    HW119874   0.677   0.358   5.008  0.6906 -2.3841 -0.1270
 6237SOL    HW219875   0.534   0.309   5.021  0.2096 -1.0121 -0.0452
 6238SOL     OW19876   4.197   4.564   6.781 -0.1284  0.5819 -0.2397
 6238SOL    HW119877   4.259   4.498   6.813  0.6415  0.8493 -1.1238
 6238SOL    HW219878   4.160   4.526   6.702 -1.3158  0.3172  0.4155
 6239SOL     OW19879   0.074   5.514   6.889  0.1958 -0.1247 -0.1703
 6239SOL    HW119880   0.108   5.530   6.801 -0.2343  1.7894 -0.0179
 6239SOL    HW219881   0.001   5.454   6.875  2.0132 -2.3760 -0.7389
 6240SOL     OW19882   5.118   5.656   2.771  0.8292  0.0060 -0.1490
 6240SOL    HW119883   5.107   5.627   2.861 -0.2074  2.0249  0.4254
 6240SOL    HW219884   5.044   5.714   2.755  2.1615  1.4013 -1.5948
 6241SOL     OW19885   6.750   7.668   7.244 -0.0250  0.3860  0.1063
 6241SOL    HW119886   6.803   7.606   7.194  0.2589  1.2209 -0.6521
 6241SOL    HW219887   6.684   7.699   7.181  0.3600  1.4777  0.2183
 6242SOL     OW19888   3.756   3.984   8.079 -0.2438 -0.7415  0.2863
 6242SOL    HW119889   3.711   3.965   7.997 -0.1463  0.6553 -0.1025
 6242SOL    HW219890   3.738   3.907   8.134 -0.1546 -1.7784 -1.0829
 6243SOL     OW19891   1.528   3.165   0.632 -0.1398 -0.3010  0.0303
 6243SOL    HW119892   1.517   3.190   0.540  0.9360  1.3042  0.3077
 6243SOL    HW219893   1.478   3.083   0.640 -0.3842 -0.4002 -1.9317
 6244SOL     OW19894   8.344   0.266   8.682  0.6916  0.0932  0.0963
 6244SOL    HW119895   8.413   0.300   8.739  0.6681  0.3656 -0.0360
 6244SOL    HW219896   8.310   0.343   8.637 -0.5296  0.1488  1.0537
 6245SOL     OW19897   5.241   2.352   5.119  0.3788  0.8500  0.2552
 6245SOL    HW119898   5.184   2.365   5.044  0.6796  0.4344 -0.0526
 6245SOL    HW219899   5.191   2.386   5.194  0.7958  2.9405 -0.3665
 6246SOL     OW19900   7.248   3.730   7.356  0.8986  0.8396 -0.4241
 6246SOL    HW119901   7.274   3.645   7.392 -1.2850 -0.1101 -0.9335
 6246SOL    HW219902   7.307   3.793   7.398  2.6808 -0.9181 -0.1584
 6247SOL     OW19903   6.873   0.791   1.003  0.3950 -0.2118  0.0152
 6247SOL    HW119904   6.791   0.747   0.982 -1.4864  1.2045  3.4875
 6247SOL    HW219905   6.917   0.802   0.919 -3.7325  0.3882 -2.3282
 6248SOL     OW19906   7.319   2.072   5.460 -0.2060  0.0515  0.1818
 6248SOL    HW119907   7.277   1.989   5.481  0.2349 -0.0493  0.6656
 6248SOL    HW219908   7.286   2.134   5.525 -2.4963  0.9094 -1.6291
 6249SOL     OW19909   1.653   7.671   7.075  0.5645 -0.3862 -0.0354
 6249SOL    HW119910   1.688   7.594   7.031  3.7137  1.5641 -1.2958
 6249SOL    HW219911   1.615   7.724   7.004  1.7237  0.8150  0.2083
 6250SOL     OW19912   5.293   0.909   8.029 -0.4695  0.3209  0.4115
 6250SOL    HW119913   5.347   0.914   7.949  0.7594  0.4156  1.2242
 6250SOL    HW219914   5.290   0.815   8.049 -0.3606  0.3441  0.5330
 6251SOL     OW19915   4.220   7.789   2.080  0.1611 -0.2465 -0.3026
 6251SOL    HW119916   4.257   7.870   2.045  1.4061 -0.9471 -0.7104
 6251SOL    HW219917   4.212   7.805   2.174  0.6225  0.2716 -0.3427
 6252SOL     OW19918   5.012   7.920   3.427  0.5518  0.2351 -0.3601
 6252SOL    HW119919   4.944   7.911   3.495  0.2885 -1.8333 -0.8413
 6252SOL    HW219920   5.068   7.990   3.460 -2.1642  2.5748 -0.2707
 6253SOL     OW19921   0.674   1.058   5.010  0.3589  0.2911  0.3932
 6253SOL    HW119922   0.686   0.992   5.078  2.4437 -0.2619 -0.4235
 6253SOL    HW219923   0.754   1.111   5.014  1.2387 -0.6463 -2.5116
 6254SOL     OW19924   5.707   8.076   0.896  0.1765 -0.5360  0.0524
 6254SOL    HW119925   5.632   8.136   0.897  1.0465  0.6381 -1.3367
 6254SOL    HW219926   5.781   8.131   0.872  0.7390 -2.4018 -3.0150
 6255SOL     OW19927   4.744   1.555   1.317  0.7879 -0.6074 -0.3869
 6255SOL    HW119928   4.768   1.583   1.229  0.0707  0.1830 -0.3414
 6255SOL    HW219929   4.700   1.470   1.303  1.8467 -1.1246 -0.6485
 6256SOL     OW19930   0.004   6.652   5.709 -0.4973  0.5803 -0.2611
 6256SOL    HW119931   0.005   6.717   5.639 -0.0557 -0.5241 -1.3125
 6256SOL    HW219932   0.070   6.588   5.683 -1.6999 -0.8905  0.1736
 6257SOL     OW19933   8.539   8.513   8.314 -0.2171  0.5339  0.2892
 6257SOL    HW119934   8.469   8.468   8.361 -0.2761  0.9854  0.6485
 6257SOL    HW219935   8.595   8.444   8.281 -1.3887  0.1083 -0.8958
 6258SOL     OW19936   0.103   7.548   6.907  0.1590 -0.4619  0.0075
 6258SOL    HW119937   0.072   7.489   6.839  0.2083 -1.9502  1.2145
 6258SOL    HW219938   0.058   7.519   6.986  3.1658 -1.5720  1.4824
 6259SOL     OW19939   5.679   8.487   0.375  1.0102 -0.7184 -0.2797
 6259SOL    HW119940   5.736   8.469   0.449  3.3801  0.8268 -1.5737
 6259SOL    HW219941   5.692   8.413   0.315 -1.0961 -2.0940  0.8411
 6260SOL     OW19942   6.874   3.736   2.124  0.1600 -0.7569 -0.4195
 6260SOL    HW119943   6.791   3.719   2.080 -0.5531 -1.6461  1.1623
 6260SOL    HW219944   6.876   3.672   2.195  1.7371 -0.0768  0.1881
 6261SOL     OW19945   0.237   5.594   1.063 -0.6009 -0.9145 -0.6025
 6261SOL    HW119946   0.162   5.555   1.017  0.0492 -1.9722 -0.8243
 6261SOL    HW219947   0.296   5.621   0.992 -0.3502 -0.9866 -0.4227
 6262SOL     OW19948   3.370   8.808   8.154  1.1074  0.1477  0.0152
 6262SOL    HW119949   3.403   8.898   8.159 -2.3736  1.6479 -1.0487
 6262SOL    HW219950   3.336   8.791   8.241 -1.4334  1.3691 -0.6356
 6263SOL     OW19951   2.403   0.015   5.337 -0.1556 -0.2376 -0.0066
 6263SOL    HW119952   2.324   0.065   5.357  0.0356  0.8536 -1.7264
 6263SOL    HW219953   2.380  -0.035   5.258  0.4372 -0.9860  0.2856
 6264SOL     OW19954   3.054   6.765   7.230 -0.3380  0.1858  0.2062
 6264SOL    HW119955   2.969   6.787   7.267 -0.4355  1.7302 -0.8340
 6264SOL    HW219956   3.044   6.676   7.197 -1.2585  0.0240  0.9055
 6265SOL     OW19957   0.886   1.464   5.462  0.4354  0.3479 -0.1900
 6265SOL    HW119958   0.795   1.460   5.492 -0.2162 -0.3028 -2.1204
 6265SOL    HW219959   0.908   1.557   5.462 -0.8752  0.6865 -1.4570
 6266SOL     OW19960   5.423   4.827   4.992  0.1177 -0.5825  0.7364
 6266SOL    HW119961   5.409   4.914   4.954  2.3657 -0.4164  0.1378
 6266SOL    HW219962   5.427   4.842   5.086 -0.0181 -0.1181  0.6692
 6267SOL     OW19963   2.607   8.474   3.924  0.6337  0.1529 -0.1220
 6267SOL    HW119964   2.519   8.510   3.920 -0.1886 -1.8604 -3.0085
 6267SOL    HW219965   2.650   8.508   3.846  1.8360 -0.3453  0.3010
 6268SOL     OW19966   3.611   3.480   8.204  0.2582  0.0170 -0.2180
 6268SOL    HW119967   3.618   3.412   8.136  0.4425 -0.1124 -0.0689
 6268SOL    HW219968   3.634   3.561   8.159  0.6088 -0.1014 -0.2535
 6269SOL     OW19969   8.603   4.284   2.727  0.2130 -0.1057 -0.0926
 6269SOL    HW119970   8.629   4.261   2.817 -1.5187  1.3952  0.8547
 6269SOL    HW219971   8.508   4.277   2.728  0.1209  0.6880 -1.6048
 6270SOL     OW19972   7.661   8.722   6.413  0.1652  0.7788 -0.3093
 6270SOL    HW119973   7.708   8.779   6.474 -0.2183  0.6779  0.0799
 6270SOL    HW219974   7.617   8.782   6.353  0.9035  0.8739 -0.7704
 6271SOL     OW19975   3.640   4.607   6.315 -0.0533  0.1970  0.4185
 6271SOL    HW119976   3.601   4.691   6.289  0.6215  0.1724 -0.7135
 6271SOL    HW219977   3.734   4.622   6.311  0.0755 -0.2935  1.3389
 6272SOL     OW19978   1.891   2.757   4.015  0.1262 -0.4635  0.1857
 6272SOL    HW119979   1.825   2.764   4.084  2.4022  0.5318  2.4106
 6272SOL    HW219980   1.921   2.847   4.001 -0.4271 -0.5974 -2.3518
 6273SOL     OW19981   4.439   2.027   1.755 -0.5399  0.0558  0.0091
 6273SOL    HW119982   4.390   1.995   1.679  0.0119  1.1397 -0.8231
 6273SOL    HW219983   4.373   2.067   1.811 -0.9064 -0.4718 -0.0362
 6274SOL     OW19984   1.173   1.960   4.118 -0.7965  0.6760 -0.1736
 6274SOL    HW119985   1.095   1.925   4.074 -1.4699 -0.9486  2.1633
 6274SOL    HW219986   1.144   2.045   4.152 -1.1976  0.5878 -0.2879
 6275SOL     OW19987   2.309   3.346   0.330  0.3320 -0.0263  0.3684
 6275SOL    HW119988   2.311   3.440   0.311  1.0614 -0.2061 -0.5146
 6275SOL    HW219989   2.397   3.316   0.310  0.1545 -0.8649  0.8435
 6276SOL     OW19990   2.656   5.755   5.869 -0.4753 -0.2924 -0.3217
 6276SOL    HW119991   2.563   5.762   5.849 -1.1728 -1.9375  1.9589
 6276SOL    HW219992   2.691   5.696   5.802 -1.3382 -0.6815 -0.4367
 6277SOL     OW19993   1.175   3.130   0.482  0.8933  0.3193 -0.0670
 6277SOL    HW119994   1.262   3.096   0.464  1.0652 -0.3607  1.7807
 6277SOL    HW219995   1.115   3.063   0.451  1.0901  0.1018  0.0251
 6278SOL     OW19996   8.838   8.035   8.747  0.6390  0.0819  0.4388
 6278SOL    HW119997   8.820   7.993   8.831  0.2910 -0.4509  0.1064
 6278SOL    HW219998   8.773   8.105   8.741 -0.8549 -1.3203 -0.3933
 6279SOL     OW19999   2.062   4.945   7.165 -0.4620 -0.2727 -0.6036
 6279SOL    HW120000   2.002   5.002   7.118 -0.9485 -0.4787 -0.2529
 6279SOL    HW220001   2.018   4.929   7.249 -1.1251 -2.4414 -1.2975
 6280SOL     OW20002   3.890   7.675   1.684 -0.6821  0.4337  0.2196
 6280SOL    HW120003   3.808   7.716   1.655 -1.6261 -1.3784  0.1924
 6280SOL    HW220004   3.872   7.581   1.683  1.5446 -0.0456 -0.1792
 6281SOL     OW20005   1.862   7.820   0.123  0.4115 -0.1625  0.6602
 6281SOL    HW120006   1.790   7.836   0.184  1.1101 -0.1503  1.4855
 6281SOL    HW220007   1.845   7.880   0.050 -0.2433  0.0629  0.9867
 6282SOL     OW20008   2.370   6.998   8.785 -0.3874 -0.3736  0.1404
 6282SOL    HW120009   2.366   7.001   8.689 -0.9947  0.7642  0.1786
 6282SOL    HW220010   2.308   6.929   8.809 -1.3854  0.3528 -0.2504
 6283SOL     OW20011   0.272   6.159   0.626 -0.3201 -0.0345 -0.4187
 6283SOL    HW120012   0.279   6.106   0.706  0.9343  1.7240  0.7259
 6283SOL    HW220013   0.213   6.230   0.650  0.0580  0.5052 -1.0588
 6284SOL     OW20014   1.796   7.185   7.206 -0.1510 -0.5822  0.0585
 6284SOL    HW120015   1.854   7.207   7.279 -0.2028  0.6168 -0.2428
 6284SOL    HW220016   1.729   7.254   7.207 -0.2840 -0.6796 -0.9847
 6285SOL     OW20017   8.491   1.490   3.004  0.4554 -0.1688 -0.1571
 6285SOL    HW120018   8.537   1.516   2.925  1.4515  0.5074  0.6137
 6285SOL    HW220019   8.440   1.413   2.979  2.7204 -1.5284 -0.8231
 6286SOL     OW20020   0.589   6.670   4.793  0.1393  0.2715 -0.1466
 6286SOL    HW120021   0.585   6.576   4.813 -0.9036 -0.2901 -2.5855
 6286SOL    HW220022   0.639   6.674   4.711  2.4937  2.1801  1.2368
 6287SOL     OW20023   8.010   1.482   1.130 -0.2225  0.2679 -0.0498
 6287SOL    HW120024   7.992   1.472   1.223  0.0723  1.3988  0.1431
 6287SOL    HW220025   7.974   1.568   1.108  0.8083  0.5504 -0.6913
 6288SOL     OW20026   0.165   8.364   7.748 -0.1008  0.6164  0.6847
 6288SOL    HW120027   0.245   8.320   7.718 -1.4473 -0.9363 -0.8113
 6288SOL    HW220028   0.118   8.386   7.668 -2.1442 -0.4169  1.5216
 6289SOL     OW20029   4.703   7.889   2.064 -0.7903  0.4877 -0.3543
 6289SOL    HW120030   4.776   7.853   2.114 -0.4405 -0.6779 -1.6676
 6289SOL    HW220031   4.744   7.941   1.996 -1.2318  0.9448 -0.2763
 6290SOL     OW20032   2.425   8.644   7.098 -0.3870 -0.0484  0.3998
 6290SOL    HW120033   2.336   8.646   7.063 -0.2561  1.4976  0.0717
 6290SOL    HW220034   2.480   8.624   7.022 -0.4391 -1.0562  0.6128
 6291SOL     OW20035   0.943   2.191   1.571 -0.2346  0.7724 -0.1479
 6291SOL    HW120036   0.949   2.122   1.505 -1.5469  0.8462 -0.3760
 6291SOL    HW220037   0.917   2.145   1.651 -0.9611  0.9607 -0.2646
 6292SOL     OW20038   3.971   1.247   2.733 -0.0898  0.1683 -0.4600
 6292SOL    HW120039   3.907   1.179   2.754  0.9307 -1.0230 -1.1240
 6292SOL    HW220040   3.974   1.302   2.812  0.1888 -1.4450  0.6883
 6293SOL     OW20041   3.778   8.021   5.256  1.1904 -0.4074  0.0828
 6293SOL    HW120042   3.853   7.971   5.226 -0.1776 -2.5156 -0.0447
 6293SOL    HW220043   3.704   7.960   5.251 -0.7860  1.8718 -0.9233
 6294SOL     OW20044   5.472   1.149   6.491  0.1056 -0.2714  0.5735
 6294SOL    HW120045   5.538   1.081   6.477  2.9444  2.0803  1.4987
 6294SOL    HW220046   5.492   1.215   6.424 -1.9226  0.1454  0.3327
 6295SOL     OW20047   2.617   6.549   3.814 -0.1349  0.4802 -0.2209
 6295SOL    HW120048   2.601   6.595   3.731  0.3103  0.6569 -0.2154
 6295SOL    HW220049   2.626   6.620   3.878  1.2750  0.4427 -0.3356
 6296SOL     OW20050   0.135   6.836   5.504  0.2431 -0.1109  0.1349
 6296SOL    HW120051   0.172   6.863   5.420 -2.2976  1.4313 -0.6195
 6296SOL    HW220052   0.141   6.913   5.560  0.6627 -0.6947  0.9137
 6297SOL     OW20053   2.143   5.911   4.549  0.2805 -0.7595  0.2552
 6297SOL    HW120054   2.156   5.912   4.644  1.5752  0.1335  0.0940
 6297SOL    HW220055   2.231   5.913   4.513 -0.1947 -1.1615 -0.9807
 6298SOL     OW20056   6.417   8.633   7.159 -0.2257 -0.3415 -0.5074
 6298SOL    HW120057   6.331   8.608   7.194  0.1683 -2.9616 -1.1662
 6298SOL    HW220058   6.435   8.567   7.092  2.2535  0.1907 -0.4454
 6299SOL     OW20059   4.902   2.055   0.226 -0.7755  0.2217 -0.3702
 6299SOL    HW120060   4.950   2.006   0.159 -1.4416 -1.0052  0.0144
 6299SOL    HW220061   4.845   2.114   0.177 -0.5384  0.0416 -0.8672
 6300SOL     OW20062   8.429   1.901   8.287 -0.4593  0.2268 -0.4430
 6300SOL    HW120063   8.425   1.922   8.380  0.0613  0.9251 -0.5645
 6300SOL    HW220064   8.350   1.941   8.250  0.6327  2.2893 -0.7072
 6301SOL     OW20065   1.057   0.385   0.622 -0.0432 -0.1756 -0.3029
 6301SOL    HW120066   1.030   0.360   0.533 -0.2816  0.5125 -0.4322
 6301SOL    HW220067   1.081   0.477   0.614  0.7741 -0.3440  0.1724
 6302SOL     OW20068   0.690   3.893   8.036  0.4959 -0.0283 -0.1453
 6302SOL    HW120069   0.610   3.939   8.010  0.3430  0.1157  0.5476
 6302SOL    HW220070   0.749   3.963   8.063  0.3087 -0.2120  0.7918
 6303SOL     OW20071   5.494   4.362   5.793  0.1394 -0.3649 -0.0797
 6303SOL    HW120072   5.578   4.383   5.834 -0.2514  0.7500  0.2000
 6303SOL    HW220073   5.469   4.442   5.746 -0.5135 -0.8601 -0.5976
 6304SOL     OW20074   3.137   1.039   4.458  0.2184 -0.1902 -0.3806
 6304SOL    HW120075   3.166   1.109   4.516  0.5963  2.8304 -3.8735
 6304SOL    HW220076   3.044   1.028   4.478  0.0838  1.5089  0.0990
 6305SOL     OW20077   3.392   2.535   8.343 -1.0299  0.6137  0.2964
 6305SOL    HW120078   3.314   2.557   8.394 -1.0050 -0.1833  0.6867
 6305SOL    HW220079   3.403   2.441   8.355 -0.9625  0.4278 -1.1130
 6306SOL     OW20080   7.853   4.744   6.560  0.1092 -0.5744 -0.4027
 6306SOL    HW120081   7.761   4.762   6.544 -0.6042 -1.4293  2.2473
 6306SOL    HW220082   7.894   4.831   6.562 -1.0086 -0.0438  0.3010
 6307SOL     OW20083   7.461   8.480   4.810  0.1018  0.1412  1.0730
 6307SOL    HW120084   7.373   8.441   4.813 -0.2655  0.7338 -0.7511
 6307SOL    HW220085   7.452   8.563   4.857 -0.2586  0.1025  1.0798
 6308SOL     OW20086   4.514   2.180   2.901  0.2088 -0.4665 -0.1014
 6308SOL    HW120087   4.579   2.209   2.837  0.6233  0.1292  0.5695
 6308SOL    HW220088   4.567   2.145   2.973 -0.1082  1.8151  1.3313
 6309SOL     OW20089   8.139   1.448   2.299 -0.7063 -0.1328  0.5578
 6309SOL    HW120090   8.071   1.445   2.233 -0.2587 -1.8956  0.1345
 6309SOL    HW220091   8.199   1.378   2.276  1.3564  1.4333  0.8320
 6310SOL     OW20092   4.243   4.000   1.370 -0.4995  0.4311 -0.1393
 6310SOL    HW120093   4.205   4.088   1.377 -1.4601  0.1327 -1.2796
 6310SOL    HW220094   4.311   4.009   1.303 -0.7572  0.2732 -0.4285
 6311SOL     OW20095   3.017   1.844   7.253  0.5148 -0.5252 -0.1121
 6311SOL    HW120096   3.080   1.822   7.322  0.6785 -1.4099 -0.5408
 6311SOL    HW220097   3.015   1.940   7.253  0.8291 -0.5083  0.8363
 6312SOL     OW20098   0.582   0.245   7.311  0.4169  0.3838 -0.4957
 6312SOL    HW120099   0.561   0.200   7.393  0.1029 -0.4124 -0.9997
 6312SOL    HW220100   0.534   0.328   7.317 -2.4616 -1.0833 -1.3083
 6313SOL     OW20101   7.230   0.461   1.659 -0.1496 -0.2585 -0.0084
 6313SOL    HW120102   7.301   0.397   1.659 -0.4378 -0.6226  1.8757
 6313SOL    HW220103   7.162   0.420   1.605  0.2819 -0.8352 -0.1254
 6314SOL     OW20104   6.349   3.740   8.430 -0.4888  0.4152  0.4034
 6314SOL    HW120105   6.349   3.681   8.505 -0.4817  0.3909  0.3834
 6314SOL    HW220106   6.437   3.735   8.395 -0.1044  1.4161  1.1691
 6315SOL     OW20107   8.168   1.492   4.921 -0.6805  0.0306  0.6609
 6315SOL    HW120108   8.172   1.586   4.934 -1.0745 -0.0339  1.3179
 6315SOL    HW220109   8.115   1.460   4.995  1.0202 -0.9106  1.5378
 6316SOL     OW20110   0.785   8.585   2.800 -0.4956  0.1886 -0.0172
 6316SOL    HW120111   0.834   8.663   2.775 -0.2098  0.0342  0.0643
 6316SOL    HW220112   0.840   8.540   2.863 -0.3218 -0.4669 -0.6188
 6317SOL     OW20113   1.517   8.814   5.125 -0.2021 -0.2119  0.1288
 6317SOL    HW120114   1.486   8.824   5.035 -2.1209 -1.3419  0.6100
 6317SOL    HW220115   1.450   8.857   5.178  1.5757  1.6604  1.0128
 6318SOL     OW20116   5.867   3.454   2.116 -0.0646  0.3940 -0.2793
 6318SOL    HW120117   5.894   3.380   2.062 -0.2501  0.7822 -0.9074
 6318SOL    HW220118   5.945   3.509   2.123 -0.3253  0.8691 -1.0270
 6319SOL     OW20119   2.413   0.887   4.235 -0.7991  0.2421  0.3230
 6319SOL    HW120120   2.347   0.929   4.290 -1.3161 -0.3025  0.1354
 6319SOL    HW220121   2.364   0.861   4.156 -0.5779 -1.0131  0.5821
 6320SOL     OW20122   1.350   0.228   4.562 -0.0377 -0.4461  0.7386
 6320SOL    HW120123   1.339   0.263   4.650 -0.5156 -0.3104  0.6296
 6320SOL    HW220124   1.269   0.179   4.546  0.6119 -1.5943  0.8807
 6321SOL     OW20125   6.861   2.588   3.075 -0.3910 -0.2805  0.6213
 6321SOL    HW120126   6.866   2.674   3.116  0.4338 -0.5390  1.0701
 6321SOL    HW220127   6.878   2.526   3.146 -0.5397 -0.8035  0.2114
 6322SOL     OW20128   5.920   2.843   8.841 -0.1849  0.6354 -0.0253
 6322SOL    HW120129   5.829   2.826   8.864 -0.9307  0.2931 -2.8862
 6322SOL    HW220130   5.950   2.761   8.800  1.5790  0.5963  1.2156
 6323SOL     OW20131   2.717   6.654   6.925 -0.1342  0.2350 -0.0100
 6323SOL    HW120132   2.745   6.731   6.875  0.9139 -0.0104  0.1739
 6323SOL    HW220133   2.783   6.587   6.905  1.3083  0.6130  2.9150
 6324SOL     OW20134   8.499   5.305   4.579 -0.5542 -0.5244 -0.1776
 6324SOL    HW120135   8.494   5.324   4.485  1.4547 -2.3620 -0.7309
 6324SOL    HW220136   8.482   5.211   4.585  0.6200 -0.6728  1.1429
 6325SOL     OW20137   7.782   1.918   3.513 -0.0145 -0.0561 -0.3267
 6325SOL    HW120138   7.687   1.920   3.527  0.1636 -1.9341  1.5779
 6325SOL    HW220139   7.807   2.011   3.513 -1.7210  0.4506 -0.0349
 6326SOL     OW20140   4.373   8.761   3.997  0.0489 -0.1743  0.3064
 6326SOL    HW120141   4.431   8.837   3.988  0.1408 -0.2431  0.3081
 6326SOL    HW220142   4.357   8.733   3.907  0.7054 -0.6655  0.3311
 6327SOL     OW20143   0.475   2.964   1.414  0.1005 -0.1376  0.4010
 6327SOL    HW120144   0.469   2.871   1.389  2.3145 -0.7191  1.7283
 6327SOL    HW220145   0.399   2.979   1.470 -0.1703 -1.2170  0.3491
 6328SOL     OW20146   6.294   8.176   4.653 -0.2018 -0.4680 -0.0174
 6328SOL    HW120147   6.263   8.119   4.723  2.6149 -0.1795  1.6216
 6328SOL    HW220148   6.335   8.249   4.699  4.0260 -1.4610 -1.7858
 6329SOL     OW20149   7.631   8.729   0.912 -0.2234  0.7206  0.4685
 6329SOL    HW120150   7.670   8.641   0.908 -0.3010  0.7162 -0.2981
 6329SOL    HW220151   7.694   8.781   0.961  0.5200  0.5938 -0.3409
 6330SOL     OW20152   7.183   3.666   0.647 -0.2932 -0.0240  0.2060
 6330SOL    HW120153   7.244   3.736   0.622 -1.3230  0.0180 -2.4245
 6330SOL    HW220154   7.098   3.694   0.615 -1.0991 -1.6386  0.7852
 6331SOL     OW20155   1.372   8.113   8.178 -0.8029 -0.0315 -0.4128
 6331SOL    HW120156   1.440   8.107   8.112  0.2112  0.9321  0.4923
 6331SOL    HW220157   1.320   8.189   8.152 -1.7373 -0.9264 -1.2523
 6332SOL     OW20158   4.504   7.114   3.765  0.3015 -1.0127 -0.4395
 6332SOL    HW120159   4.580   7.071   3.804  0.9018 -0.3080 -0.8176
 6332SOL    HW220160   4.431   7.092   3.824  1.4050  1.2257  1.9677
 6333SOL     OW20161   8.161   5.428   2.266  0.1289 -0.7952 -0.5190
 6333SOL    HW120162   8.224   5.392   2.329  0.3298  1.3970  0.6093
 6333SOL    HW220163   8.208   5.428   2.183  1.8395  1.1621  0.3694
 6334SOL     OW20164   5.299   3.101   6.021 -0.0518 -0.0617  0.2334
 6334SOL    HW120165   5.275   3.009   6.030  0.1305 -0.0041  1.4497
 6334SOL    HW220166   5.264   3.143   6.099 -1.4791  1.2179 -1.0251
 6335SOL     OW20167   2.435   7.988   8.818 -0.1472  0.1162 -0.2074
 6335SOL    HW120168   2.434   7.926   8.890  0.1046  1.3460  0.8900
 6335SOL    HW220169   2.425   7.934   8.739  1.7157 -1.4855  0.5797
 6336SOL     OW20170   6.692   8.310   4.345  0.0910 -0.3983 -0.1491
 6336SOL    HW120171   6.667   8.359   4.267 -1.6001 -4.0694 -2.2035
 6336SOL    HW220172   6.780   8.278   4.326  1.8804  2.7959  1.8800
 6337SOL     OW20173   1.990   3.903   8.395 -0.3233 -0.1277 -0.8729
 6337SOL    HW120174   1.914   3.849   8.418 -0.6685  0.4930 -0.5461
 6337SOL    HW220175   1.955   3.991   8.388  0.5406  0.3256  0.2300
 6338SOL     OW20176   7.270   7.362   6.625  0.3790 -0.4220  0.6106
 6338SOL    HW120177   7.277   7.448   6.582  0.0663 -0.9761 -0.5897
 6338SOL    HW220178   7.244   7.383   6.714  2.1281  0.8312  0.8847
 6339SOL     OW20179   2.707   8.542   3.678 -0.2266  0.2099 -0.0777
 6339SOL    HW120180   2.664   8.624   3.653 -0.2204  0.3647  0.4013
 6339SOL    HW220181   2.742   8.508   3.596  0.8685  1.3297 -0.1082
 6340SOL     OW20182   5.941   7.196   3.071 -0.0755 -0.5368  0.2844
 6340SOL    HW120183   5.942   7.258   3.144 -0.1579  0.9838 -0.9542
 6340SOL    HW220184   6.024   7.212   3.026 -1.0103  0.1971 -1.2570
 6341SOL     OW20185   8.079   5.033   2.798  0.5485  0.3676 -0.4604
 6341SOL    HW120186   8.149   5.062   2.738 -0.1140  1.4478 -0.7304
 6341SOL    HW220187   8.065   5.108   2.856 -0.0866 -0.0062 -0.1271
 6342SOL     OW20188   1.710   2.958   8.737 -1.2308  0.1760 -0.1088
 6342SOL    HW120189   1.731   2.891   8.802 -2.4068  0.5706  0.7150
 6342SOL    HW220190   1.681   2.908   8.660 -1.1708 -0.2808  0.1584
 6343SOL     OW20191   4.847   1.894   8.627 -0.2559  0.3544 -0.3511
 6343SOL    HW120192   4.790   1.952   8.676  2.3605  1.2532  1.8860
 6343SOL    HW220193   4.908   1.953   8.581  0.0290 -0.5767 -1.2254
 6344SOL     OW20194   5.632   2.567   3.428  0.2490 -0.0069  0.3460
 6344SOL    HW120195   5.672   2.634   3.372 -0.7876  0.3381 -0.0124
 6344SOL    HW220196   5.538   2.575   3.410 -0.0995  0.0053  2.0355
 6345SOL     OW20197   7.439   3.127   0.823  0.0675 -0.6223  0.2320
 6345SOL    HW120198   7.355   3.173   0.818  0.7032  0.4928 -0.6273
 6345SOL    HW220199   7.469   3.122   0.733  1.1214 -0.6648  0.5722
 6346SOL     OW20200   8.061   3.030   2.991  0.3619  0.0677  0.1206
 6346SOL    HW120201   8.019   3.008   2.908  1.3093  0.3551 -0.4509
 6346SOL    HW220202   8.094   2.946   3.024 -0.7422 -0.1885  0.6525
 6347SOL     OW20203   2.711   0.431   2.249 -0.5105  0.5374  0.0695
 6347SOL    HW120204   2.730   0.393   2.163 -0.3465  0.5966  0.0792
 6347SOL    HW220205   2.780   0.496   2.262  0.0601 -0.1786  0.6945
 6348SOL     OW20206   4.286   4.196   8.042 -0.1076 -0.0068  0.3917
 6348SOL    HW120207   4.338   4.240   7.975  0.0859  0.4414  0.8287
 6348SOL    HW220208   4.258   4.114   8.001 -3.1791  1.8532 -1.6320
 6349SOL     OW20209   3.713   8.002   2.580 -0.3252  0.2789 -0.0587
 6349SOL    HW120210   3.704   7.980   2.488 -0.0404 -1.2524  0.2484
 6349SOL    HW220211   3.774   7.936   2.615 -1.3974  0.0318  1.4845
 6350SOL     OW20212   7.550   8.470   7.483  0.1883  0.9255  0.0328
 6350SOL    HW120213   7.560   8.561   7.507  0.3120  0.3176  2.5174
 6350SOL    HW220214   7.509   8.429   7.559 -0.0991 -1.0486 -1.1116
 6351SOL     OW20215   7.259   2.280   2.730 -0.0641  0.0210 -0.3054
 6351SOL    HW120216   7.194   2.302   2.796 -0.9943 -2.8916 -0.0920
 6351SOL    HW220217   7.312   2.210   2.770  0.7160 -0.3388 -1.8497
 6352SOL     OW20218   7.060   1.343   2.943  0.1683 -0.2140 -0.1203
 6352SOL    HW120219   6.989   1.368   3.003  1.6860 -1.0047  2.1722
 6352SOL    HW220220   7.024   1.272   2.891 -0.5668 -1.1290  1.5413
 6353SOL     OW20221   5.847   8.372   6.464 -0.1853 -0.1795  0.0114
 6353SOL    HW120222   5.813   8.421   6.388 -1.0262  1.2094  1.2195
 6353SOL    HW220223   5.784   8.301   6.476 -0.2827 -0.1559 -0.3401
 6354SOL     OW20224   0.580   1.430   8.392  0.5429  0.2553  0.8245
 6354SOL    HW120225   0.651   1.397   8.336 -2.1633 -1.3254 -2.0163
 6354SOL    HW220226   0.579   1.524   8.377  1.0234  0.0786 -0.4401
 6355SOL     OW20227   8.376   7.167   7.506 -0.9541  0.0248  0.1611
 6355SOL    HW120228   8.306   7.118   7.548 -0.1957 -1.0112  0.2570
 6355SOL    HW220229   8.411   7.224   7.575 -0.3079 -1.0117  0.7118
 6356SOL     OW20230   6.370   2.501   0.542  0.3468 -0.3796 -0.8125
 6356SOL    HW120231   6.308   2.556   0.590  1.6637 -0.1093  0.6608
 6356SOL    HW220232   6.335   2.497   0.453 -0.9175  1.0648 -0.4222
 6357SOL     OW20233   5.146   0.173   4.430  0.0735  0.1258  0.1123
 6357SOL    HW120234   5.232   0.215   4.427  0.5113 -0.7737 -1.1922
 6357SOL    HW220235   5.084   0.243   4.408  0.5083  0.6784  0.6130
 6358SOL     OW20236   6.822   4.952   2.533 -0.2696  0.2925  0.1111
 6358SOL    HW120237   6.856   4.867   2.506 -0.1830 -0.1955  1.6776
 6358SOL    HW220238   6.899   5.001   2.562 -0.5263  0.2588  0.8654
 6359SOL     OW20239   8.239   2.756   5.382 -0.4206 -0.5246  0.4431
 6359SOL    HW120240   8.185   2.809   5.324  0.6914  0.2913  0.1259
 6359SOL    HW220241   8.269   2.683   5.327  0.1990 -0.0382  0.1181
 6360SOL     OW20242   6.419   5.360   6.011 -0.1507  0.0926 -0.2690
 6360SOL    HW120243   6.475   5.435   5.989  0.2139 -0.1265 -0.1118
 6360SOL    HW220244   6.475   5.305   6.066 -0.6353  0.0349  0.1747
 6361SOL     OW20245   4.754   7.448   5.891 -0.1389 -0.2541  0.1079
 6361SOL    HW120246   4.808   7.479   5.965  0.1817 -0.1583 -0.1625
 6361SOL    HW220247   4.726   7.361   5.918  2.6955 -1.6373 -0.9986
 6362SOL     OW20248   8.589   2.928   1.555 -0.2260 -0.3935  0.2292
 6362SOL    HW120249   8.531   2.879   1.496  0.3098  0.5183 -1.1085
 6362SOL    HW220250   8.555   2.909   1.643 -2.6501  0.1710 -0.4872
 6363SOL     OW20251   4.963   5.344   6.289  0.0086 -0.2120  0.7085
 6363SOL    HW120252   5.034   5.311   6.234 -1.7369 -0.2078 -1.6728
 6363SOL    HW220253   5.006   5.404   6.350  2.2485 -1.4778  0.4831
 6364SOL     OW20254   0.844   0.137   8.350  0.0896  0.2938  0.2281
 6364SOL    HW120255   0.874   0.219   8.388  0.3966  1.3707 -2.1197
 6364SOL    HW220256   0.924   0.087   8.335 -0.0737 -0.3503  1.3978
 6365SOL     OW20257   7.275   2.632   8.210  0.0898 -0.6956  0.3971
 6365SOL    HW120258   7.304   2.711   8.255  0.2034 -0.4609 -0.0795
 6365SOL    HW220259   7.180   2.632   8.220  0.1964 -1.1549  1.4540
 6366SOL     OW20260   2.601   5.237   7.922 -0.5713 -0.2572  0.1754
 6366SOL    HW120261   2.535   5.169   7.933 -0.0808 -0.5871  1.1294
 6366SOL    HW220262   2.638   5.221   7.835 -0.4206 -1.2443  0.4183
 6367SOL     OW20263   5.844   2.806   0.320  0.2587 -0.3135 -0.0182
 6367SOL    HW120264   5.816   2.891   0.285 -0.6670 -0.6288 -0.0672
 6367SOL    HW220265   5.939   2.814   0.328 -0.0193  2.0043  3.2239
 6368SOL     OW20266   8.266   1.814   6.224  0.8050 -0.2893  0.3984
 6368SOL    HW120267   8.338   1.776   6.275 -0.4916  0.0918  2.6236
 6368SOL    HW220268   8.190   1.760   6.247 -0.1525  0.9212  0.1808
 6369SOL     OW20269   6.813   0.860   6.899  0.0645  0.0409  0.0690
 6369SOL    HW120270   6.881   0.887   6.838 -0.5009  2.2200  0.3048
 6369SOL    HW220271   6.855   0.863   6.985 -0.1972  1.1020  0.1828
 6370SOL     OW20272   2.098   0.150   2.160 -0.2504  0.0526  0.7487
 6370SOL    HW120273   2.025   0.091   2.180  0.2989 -0.5588  0.9955
 6370SOL    HW220274   2.175   0.105   2.196  0.3287  0.3922 -0.0510
 6371SOL     OW20275   4.846   7.605   8.568 -0.1538  0.4357 -0.3357
 6371SOL    HW120276   4.813   7.693   8.588 -3.1543 -0.5198 -0.6210
 6371SOL    HW220277   4.836   7.597   8.473  1.6861  0.3339 -0.5484
 6372SOL     OW20278   3.023   6.286   3.676 -0.1346  0.0483  0.0933
 6372SOL    HW120279   3.051   6.348   3.609  0.2877  0.3814  0.5654
 6372SOL    HW220280   2.973   6.339   3.739  1.5987  0.2640  1.3589
 6373SOL     OW20281   6.198   8.474   4.859  0.0537  0.3168 -0.0598
 6373SOL    HW120282   6.194   8.547   4.921  0.6160  1.6570 -1.5241
 6373SOL    HW220283   6.112   8.472   4.818  0.2666  0.6114 -0.5196
 6374SOL     OW20284   4.271   6.448   4.095 -0.0899  0.1725 -0.1531
 6374SOL    HW120285   4.190   6.454   4.147  1.6947  1.5989  2.7674
 6374SOL    HW220286   4.246   6.477   4.008 -2.9399 -0.5665  0.3067
 6375SOL     OW20287   1.220   2.414   3.820  0.1951  0.1132  0.2248
 6375SOL    HW120288   1.234   2.502   3.785 -1.3514  0.2692 -0.0632
 6375SOL    HW220289   1.241   2.356   3.747  0.1567  0.2945  0.0691
 6376SOL     OW20290   4.414   3.756   2.046 -0.1952  0.6096  0.0096
 6376SOL    HW120291   4.447   3.691   2.107  0.4414  2.1620  1.4036
 6376SOL    HW220292   4.481   3.763   1.979 -1.4711 -2.0405 -1.7185
 6377SOL     OW20293   3.805   3.799   0.008  0.1991 -0.1858  0.1037
 6377SOL    HW120294   3.897   3.807   0.033  0.4639 -2.0250 -0.0784
 6377SOL    HW220295   3.806   3.731  -0.060 -1.3486 -0.5216  0.3962
 6378SOL     OW20296   0.183   2.635   1.711  0.1543 -0.1092  0.1024
 6378SOL    HW120297   0.264   2.609   1.667 -0.1103 -2.2732  0.7460
 6378SOL    HW220298   0.136   2.686   1.646  0.6345 -1.5497 -1.4623
 6379SOL     OW20299   0.942   4.468   6.212  0.0268  0.2352 -0.2704
 6379SOL    HW120300   1.037   4.455   6.209 -0.0907 -0.6098 -2.0314
 6379SOL    HW220301   0.930   4.560   6.189  0.4286  0.4527  0.3683
 6380SOL     OW20302   2.747   8.610   4.466 -0.1667 -0.4967  0.1399
 6380SOL    HW120303   2.806   8.633   4.538  0.8441 -1.2604 -0.4141
 6380SOL    HW220304   2.660   8.609   4.505  0.3039 -0.3884  1.2227
 6381SOL     OW20305   4.501   3.490   1.969 -0.5722  0.1023 -0.6189
 6381SOL    HW120306   4.482   3.515   1.879 -1.5759 -0.6417 -0.6364
 6381SOL    HW220307   4.596   3.484   1.974 -0.4808  0.7353 -1.4602
 6382SOL     OW20308   7.085   1.727   6.098  0.0580  0.1958 -0.3181
 6382SOL    HW120309   7.173   1.763   6.085  1.1761 -1.5167  1.8355
 6382SOL    HW220310   7.039   1.793   6.150  0.4189  0.6291 -0.5451
 6383SOL     OW20311   3.138   8.672   2.299  0.5115 -0.0107 -0.6288
 6383SOL    HW120312   3.127   8.633   2.212 -0.4496 -1.9791  0.2996
 6383SOL    HW220313   3.049   8.674   2.336  0.9152  0.6965  0.3549
 6384SOL     OW20314   0.552   7.657   2.364  0.7968 -0.3957  1.0417
 6384SOL    HW120315   0.612   7.601   2.413 -0.4604 -1.0742  1.8464
 6384SOL    HW220316   0.560   7.743   2.405 -0.4063 -1.0015  2.6635
 6385SOL     OW20317   0.515   1.054   1.726  0.0876  0.3651  0.1647
 6385SOL    HW120318   0.447   1.073   1.791  0.2154 -1.9966  1.0700
 6385SOL    HW220319   0.471   1.067   1.642 -1.6320 -1.3544  0.7214
 6386SOL     OW20320   3.121   1.204   4.185  0.3137  0.2958  0.0423
 6386SOL    HW120321   3.086   1.118   4.163  0.1199 -0.1583  1.9644
 6386SOL    HW220322   3.133   1.202   4.280  2.5181  1.5759 -0.1265
 6387SOL     OW20323   3.361   4.454   5.469 -0.4919  0.2819  0.0145
 6387SOL    HW120324   3.435   4.513   5.453 -1.6552  2.1492  1.2078
 6387SOL    HW220325   3.306   4.500   5.531 -3.6339 -0.2054 -2.1960
 6388SOL     OW20326   7.757   7.806   5.559  0.2064  0.4258 -0.0490
 6388SOL    HW120327   7.788   7.780   5.473 -0.2109  0.4322 -0.2024
 6388SOL    HW220328   7.828   7.858   5.596  1.2226 -1.1965  0.4110
 6389SOL     OW20329   7.178   0.393   6.175  0.3610  0.1505 -0.2858
 6389SOL    HW120330   7.132   0.311   6.195  1.8850 -0.9630 -1.1640
 6389SOL    HW220331   7.174   0.400   6.079  2.8796 -0.5548 -0.5034
 6390SOL     OW20332   7.884   7.526   7.646  0.1080  0.9094 -0.6261
 6390SOL    HW120333   7.960   7.516   7.704 -0.3925  1.9802  0.2380
 6390SOL    HW220334   7.894   7.456   7.582  0.9930  0.0571  0.4037
 6391SOL     OW20335   5.695   3.148   8.507 -0.3829 -0.2724  0.2795
 6391SOL    HW120336   5.654   3.113   8.427  0.5856  2.9478 -1.8058
 6391SOL    HW220337   5.756   3.079   8.534 -1.3923 -1.8365 -1.1664
 6392SOL     OW20338   1.676   3.684   7.450  0.4227 -0.5917  0.2509
 6392SOL    HW120339   1.740   3.662   7.517 -0.0206 -0.8571  0.6017
 6392SOL    HW220340   1.653   3.599   7.410  0.8011 -0.4184 -0.3495
 6393SOL     OW20341   2.993   5.156   0.108 -0.2053  0.1388 -0.3159
 6393SOL    HW120342   2.984   5.061   0.112  0.9305 -0.3028 -4.2425
 6393SOL    HW220343   2.903   5.189   0.108 -0.6798 -1.1064 -0.6792
 6394SOL     OW20344   2.667   0.739   4.272  0.0935 -0.1833  0.1864
 6394SOL    HW120345   2.607   0.692   4.330 -0.9684 -0.6618 -1.2538
 6394SOL    HW220346   2.612   0.801   4.225  1.3625  2.2645  1.6437
 6395SOL     OW20347   6.690   3.242   8.041 -0.0237 -0.2824 -0.3832
 6395SOL    HW120348   6.643   3.324   8.023 -0.4298  0.1080  2.1268
 6395SOL    HW220349   6.762   3.268   8.099 -2.0285 -1.9977  3.1679
 6396SOL     OW20350   2.382   4.057   2.541  0.0283 -0.3931 -0.1946
 6396SOL    HW120351   2.432   4.047   2.622  0.1543  1.4186 -0.0004
 6396SOL    HW220352   2.409   3.982   2.487 -0.1549 -1.6963  1.4527
 6397SOL     OW20353   6.835   1.579   6.837  0.6176 -0.1331  0.5919
 6397SOL    HW120354   6.885   1.655   6.865  1.0046 -0.0492 -0.2785
 6397SOL    HW220355   6.828   1.524   6.915  2.3001 -0.2687  0.6932
 6398SOL     OW20356   2.310   6.682   7.948  0.2921 -0.4480 -0.3719
 6398SOL    HW120357   2.314   6.652   7.857  1.4100 -1.9049  0.1004
 6398SOL    HW220358   2.381   6.745   7.956 -0.2068  0.1545 -0.6573
 6399SOL     OW20359   5.684   5.910   2.007  0.1917  0.3896 -0.5574
 6399SOL    HW120360   5.600   5.876   2.039  0.2842  1.1627  0.5618
 6399SOL    HW220361   5.727   5.944   2.085  1.3167  0.5056 -1.2135
 6400SOL     OW20362   7.161   0.199   2.178  0.1808 -0.5437  0.8847
 6400SOL    HW120363   7.146   0.266   2.111  1.8024 -0.9959  0.0271
 6400SOL    HW220364   7.246   0.221   2.216  0.2127 -1.4736  1.3848
 6401SOL     OW20365   6.110   4.186   0.192  0.5377 -0.0303 -0.5990
 6401SOL    HW120366   6.103   4.091   0.206  1.8204 -0.1089 -0.3345
 6401SOL    HW220367   6.075   4.200   0.104  1.8749 -1.0000 -1.3260
 6402SOL     OW20368   5.391   8.408   2.071  0.0732  0.5289 -0.3792
 6402SOL    HW120369   5.415   8.352   2.145 -1.8223 -0.2433 -0.3013
 6402SOL    HW220370   5.326   8.469   2.107  0.3133  1.1913 -1.0453
 6403SOL     OW20371   8.161   5.826   5.563  0.0388 -0.2236  0.4825
 6403SOL    HW120372   8.232   5.769   5.594 -0.3231 -1.2424 -0.4742
 6403SOL    HW220373   8.100   5.830   5.636 -1.0673 -3.0354 -0.1496
 6404SOL     OW20374   2.807   2.747   8.096  0.1414 -0.5207  0.4695
 6404SOL    HW120375   2.822   2.842   8.098  1.3470 -0.6554 -0.8124
 6404SOL    HW220376   2.892   2.709   8.119  0.0079 -1.3011 -0.2995
 6405SOL     OW20377   3.650   4.766   0.093 -0.6296  0.0656  0.0295
 6405SOL    HW120378   3.594   4.702   0.049  0.4049 -2.5937  2.2272
 6405SOL    HW220379   3.728   4.771   0.039  0.2331 -2.4281  0.8882
 6406SOL     OW20380   6.073   4.748   7.499  0.2912  0.2435 -0.5960
 6406SOL    HW120381   6.148   4.780   7.449 -0.7975  0.5621 -2.0780
 6406SOL    HW220382   6.103   4.667   7.539  2.1539  1.5183  0.7503
 6407SOL     OW20383   3.665   4.754   8.633 -0.1075  0.2921 -0.5925
 6407SOL    HW120384   3.755   4.788   8.632  0.6088 -1.3764  1.0732
 6407SOL    HW220385   3.619   4.810   8.696  0.3847 -0.2042  0.2274
 6408SOL     OW20386   4.088   5.369   4.846  0.4657 -0.5613 -0.2387
 6408SOL    HW120387   4.081   5.376   4.941  2.6538 -1.5711  0.0593
 6408SOL    HW220388   4.130   5.284   4.831  2.1897  0.5057 -1.9801
 6409SOL     OW20389   8.820   6.101   6.452 -0.0855  0.2492  0.1020
 6409SOL    HW120390   8.749   6.050   6.492  1.3498 -1.6745  0.3355
 6409SOL    HW220391   8.900   6.054   6.476  1.3214  2.5185  0.1019
 6410SOL     OW20392   3.617   4.588   6.892 -0.0659  0.2475 -0.1281
 6410SOL    HW120393   3.583   4.506   6.928 -0.1471  0.8347  1.1817
 6410SOL    HW220394   3.544   4.650   6.900  0.7403  1.0778  1.1797
 6411SOL     OW20395   2.941   2.813   1.848  0.0899 -0.2829  0.0613
 6411SOL    HW120396   2.960   2.812   1.942 -0.1810  0.6820  0.1441
 6411SOL    HW220397   2.851   2.782   1.841 -0.2518  0.6458  0.2308
 6412SOL     OW20398   7.006   2.222   5.000 -0.0872 -0.0211 -0.5344
 6412SOL    HW120399   7.074   2.232   5.066  0.4486 -0.0556 -1.0704
 6412SOL    HW220400   7.045   2.257   4.920 -1.3922  1.7707 -0.4397
 6413SOL     OW20401   5.511   7.938   7.256  0.0207  0.0454 -0.3197
 6413SOL    HW120402   5.489   7.969   7.344  1.4286 -0.8033  0.3754
 6413SOL    HW220403   5.544   8.015   7.211 -0.3784  0.4149  0.0116
 6414SOL     OW20404   0.732   4.423   4.107 -0.4976  0.2296  0.2644
 6414SOL    HW120405   0.725   4.333   4.073 -1.7681  0.4709 -0.1588
 6414SOL    HW220406   0.646   4.440   4.147 -0.7259  1.6975 -0.7861
 6415SOL     OW20407   7.164   8.069   1.601  0.8679 -0.0138  0.5180
 6415SOL    HW120408   7.072   8.081   1.576  0.6744  0.8784  1.5828
 6415SOL    HW220409   7.166   7.985   1.646  1.1971 -1.5925 -2.2445
 6416SOL     OW20410   2.916   8.165   7.522 -0.1522  0.2304  0.1130
 6416SOL    HW120411   2.975   8.104   7.567 -0.6580 -1.8512 -1.8749
 6416SOL    HW220412   2.972   8.239   7.499  0.4990  0.6010  2.5453
 6417SOL     OW20413   8.825   6.896   7.600 -0.1703 -0.0470 -0.4579
 6417SOL    HW120414   8.861   6.855   7.522 -1.1592 -2.0843  0.0907
 6417SOL    HW220415   8.895   6.954   7.631  0.4168  0.4559 -2.5423
 6418SOL     OW20416   8.608   2.275   4.223  0.3924  0.2655 -0.3431
 6418SOL    HW120417   8.570   2.252   4.139  0.3817  1.1872 -0.5956
 6418SOL    HW220418   8.701   2.252   4.215 -0.1297 -2.5817  0.4895
 6419SOL     OW20419   4.171   0.561   1.109 -0.0214  0.3794 -0.1166
 6419SOL    HW120420   4.115   0.594   1.180 -0.2793 -0.2231 -0.0336
 6419SOL    HW220421   4.185   0.636   1.052 -0.7438  0.5872 -0.0252
 6420SOL     OW20422   4.092   2.660   7.676  0.1451 -0.3851  0.2027
 6420SOL    HW120423   4.066   2.581   7.724  0.1474 -0.4529  0.0933
 6420SOL    HW220424   4.010   2.708   7.663  0.2372 -0.0341  0.8676
 6421SOL     OW20425   7.792   1.160   7.061  0.8198 -0.4713 -0.2703
 6421SOL    HW120426   7.834   1.241   7.032  1.9009 -0.8225  0.2430
 6421SOL    HW220427   7.711   1.189   7.103  0.8877  0.2927 -0.6503
 6422SOL     OW20428   8.388   6.704   7.189 -0.9713 -0.0261 -0.3004
 6422SOL    HW120429   8.409   6.615   7.219  0.9837  0.8094  0.9746
 6422SOL    HW220430   8.341   6.690   7.106  0.7669 -2.2449 -1.0431
 6423SOL     OW20431   4.034   8.027   4.382  0.1298  0.2508 -0.3811
 6423SOL    HW120432   3.959   8.061   4.333  0.9440  0.8213 -1.2717
 6423SOL    HW220433   4.033   8.078   4.464 -1.8059 -1.3745  0.7225
 6424SOL     OW20434   7.923   0.638   1.202 -0.0340 -0.8536 -0.0578
 6424SOL    HW120435   7.999   0.690   1.176 -1.3310  1.3223  0.2354
 6424SOL    HW220436   7.890   0.601   1.120  0.0591  0.0506 -0.5159
 6425SOL     OW20437   5.646   8.010   3.374 -0.9309 -0.5570  0.0712
 6425SOL    HW120438   5.570   8.064   3.350  1.2859  3.2467  0.8993
 6425SOL    HW220439   5.715   8.039   3.315  1.6893  1.2977  3.6659
 6426SOL     OW20440   2.221   6.482   5.779 -0.2191  0.6145  0.1892
 6426SOL    HW120441   2.303   6.524   5.807  0.6177  1.2086 -2.8058
 6426SOL    HW220442   2.245   6.391   5.763  0.3406  1.0955 -2.1070
 6427SOL     OW20443   8.460   7.712   2.514  0.5877  0.3989  0.1238
 6427SOL    HW120444   8.435   7.730   2.604 -1.8284 -2.2290  0.1167
 6427SOL    HW220445   8.554   7.699   2.517  0.5154 -0.0354  2.3624
 6428SOL     OW20446   0.489   4.500   1.935 -0.1497 -0.1661 -0.2421
 6428SOL    HW120447   0.529   4.587   1.939 -0.2313 -0.0813 -1.1757
 6428SOL    HW220448   0.406   4.514   1.889 -0.7293 -0.5439  0.6470
 6429SOL     OW20449   3.876   1.361   4.965  0.1023  0.4607 -0.3439
 6429SOL    HW120450   3.878   1.303   5.041 -1.1380 -0.6406 -1.1210
 6429SOL    HW220451   3.906   1.445   4.999  2.0401 -0.6184  0.7839
 6430SOL     OW20452   1.630   6.670   5.734 -0.0848  0.3307 -0.2066
 6430SOL    HW120453   1.723   6.689   5.748 -0.5675  1.8631  1.1845
 6430SOL    HW220454   1.584   6.742   5.776 -1.9382 -0.7523 -0.2722
 6431SOL     OW20455   1.539   4.483   4.793  0.3091  0.3172  0.3799
 6431SOL    HW120456   1.455   4.462   4.752 -0.7931  0.7196  2.3110
 6431SOL    HW220457   1.581   4.398   4.808 -1.4703 -0.2311  2.7734
 6432SOL     OW20458   8.065   8.773   6.503 -0.0715 -0.0693 -0.4362
 6432SOL    HW120459   8.074   8.715   6.428 -0.3045 -0.9504  0.1997
 6432SOL    HW220460   8.114   8.852   6.479 -1.5573  0.3615 -2.1887
 6433SOL     OW20461   6.467   2.273   6.645  0.0818 -0.3232  0.3852
 6433SOL    HW120462   6.476   2.185   6.682 -1.5845  0.3313  2.5834
 6433SOL    HW220463   6.519   2.329   6.703 -1.9278  0.6221  1.3629
 6434SOL     OW20464   0.756   3.335   8.633 -0.0662 -0.5585 -0.3805
 6434SOL    HW120465   0.714   3.350   8.548  0.1761  0.6933 -0.3018
 6434SOL    HW220466   0.706   3.264   8.672 -1.6244  0.3425 -0.6394
 6435SOL     OW20467   2.907   3.262   7.214  0.0232  0.0186 -0.8844
 6435SOL    HW120468   2.874   3.178   7.182 -1.2231  0.5752 -1.1269
 6435SOL    HW220469   2.897   3.321   7.140  2.9679 -0.0801 -1.4563
 6436SOL     OW20470   7.862   7.234   4.171 -0.0284 -0.1454  0.0752
 6436SOL    HW120471   7.863   7.145   4.137 -0.1162  0.1184 -0.6416
 6436SOL    HW220472   7.858   7.289   4.093 -0.5702  0.4702  0.5283
 6437SOL     OW20473   6.316   1.450   6.969  0.1854  0.5031  0.2485
 6437SOL    HW120474   6.291   1.468   7.060  0.6992  0.5725  0.3822
 6437SOL    HW220475   6.401   1.493   6.959  1.2488 -1.4378  0.4458
 6438SOL     OW20476   4.024   4.897   8.094  0.1372  0.1288  0.0419
 6438SOL    HW120477   3.955   4.884   8.158 -0.9374 -1.1549 -1.3140
 6438SOL    HW220478   3.978   4.910   8.011  1.5009 -1.4847 -1.0230
 6439SOL     OW20479   3.361   8.579   7.112  0.3349 -0.4786  0.8869
 6439SOL    HW120480   3.271   8.548   7.107  0.6643 -1.4385  0.8177
 6439SOL    HW220481   3.387   8.594   7.021  0.8977 -2.1464  0.7447
 6440SOL     OW20482   7.813   8.530   3.807 -0.1255  0.2908  1.0027
 6440SOL    HW120483   7.886   8.582   3.841  0.2099  0.5081 -0.0198
 6440SOL    HW220484   7.843   8.440   3.813  0.4495  0.4125  0.0951
 6441SOL     OW20485   0.501   7.868   4.426 -0.0210 -0.4351 -0.5199
 6441SOL    HW120486   0.455   7.915   4.496 -0.6953 -1.3301 -0.3336
 6441SOL    HW220487   0.537   7.936   4.371  0.6709  0.2991  0.7961
 6442SOL     OW20488   0.158   3.679   8.553 -0.1302  0.2347 -0.5197
 6442SOL    HW120489   0.201   3.663   8.469 -1.0571 -1.7829 -0.6699
 6442SOL    HW220490   0.100   3.604   8.565 -1.5128  1.4651  0.9944
 6443SOL     OW20491   3.000   7.529   1.340 -0.1639 -0.3336  0.3194
 6443SOL    HW120492   3.062   7.595   1.371 -1.6479  0.4826  1.7479
 6443SOL    HW220493   3.037   7.446   1.368  1.8647 -0.1963 -1.7246
 6444SOL     OW20494   0.411   6.244   4.081 -0.1216  0.1952  0.0776
 6444SOL    HW120495   0.506   6.247   4.074 -0.1767 -0.5776 -1.3208
 6444SOL    HW220496   0.379   6.289   4.003 -0.8743 -1.3956 -0.5887
 6445SOL     OW20497   5.584   1.249   8.078  0.0705  0.3751  0.5598
 6445SOL    HW120498   5.579   1.176   8.016 -0.5047  0.8800  0.0031
 6445SOL    HW220499   5.678   1.260   8.094  0.1427 -0.8069  1.0417
 6446SOL     OW20500   0.333   1.808   0.982 -0.0327  0.0951 -0.6765
 6446SOL    HW120501   0.291   1.881   0.935 -0.3137  0.4722  0.1323
 6446SOL    HW220502   0.300   1.730   0.938  0.6196  0.4580 -1.8425
 6447SOL     OW20503   2.169   6.211   6.567 -0.0488  0.2515  0.4652
 6447SOL    HW120504   2.178   6.280   6.634  0.4306 -1.3237  2.1027
 6447SOL    HW220505   2.259   6.179   6.554  0.4649  2.6458 -3.4412
 6448SOL     OW20506   3.992   4.716   1.778 -0.5670  0.1612  0.3635
 6448SOL    HW120507   4.031   4.698   1.692  0.5134  1.0576  0.6336
 6448SOL    HW220508   4.013   4.639   1.830  0.9251  0.6303  0.5060
 6449SOL     OW20509   5.302   2.886   8.089 -0.0631 -0.3621 -0.1697
 6449SOL    HW120510   5.341   2.960   8.135  0.0337 -1.3861  1.5223
 6449SOL    HW220511   5.245   2.924   8.023  1.4125  1.1879 -0.5974
 6450SOL     OW20512   6.491   8.449   6.997  0.0517 -0.2519  0.3611
 6450SOL    HW120513   6.430   8.430   6.926 -0.5479  1.0477  0.4904
 6450SOL    HW220514   6.577   8.448   6.957 -0.3094  0.8025 -0.4709
 6451SOL     OW20515   4.764   4.790   2.704 -0.4669  0.0023  0.2295
 6451SOL    HW120516   4.848   4.836   2.706  0.1041 -0.9921 -0.3037
 6451SOL    HW220517   4.706   4.845   2.757  0.4843  0.7574  0.5241
 6452SOL     OW20518   8.389   2.810   4.952  0.3870  0.2113 -0.0976
 6452SOL    HW120519   8.363   2.900   4.974 -1.2786  0.1169 -1.4555
 6452SOL    HW220520   8.383   2.762   5.035 -0.9380  0.8809  0.2117
 6453SOL     OW20521   0.423   5.361   3.272 -0.4169  0.1670  0.5986
 6453SOL    HW120522   0.336   5.323   3.284 -0.4208  0.7540  2.7484
 6453SOL    HW220523   0.422   5.440   3.326  0.3704  2.0155 -1.9088
 6454SOL     OW20524   6.797   6.689   5.272  0.2134  0.1371 -0.0628
 6454SOL    HW120525   6.795   6.756   5.340  1.3370  2.0339 -1.7785
 6454SOL    HW220526   6.726   6.630   5.294 -1.8502  2.7335  0.7150
 6455SOL     OW20527   7.966   3.867   3.808  0.7950  0.4268  0.0477
 6455SOL    HW120528   7.914   3.928   3.755  0.5065  0.5353  0.4461
 6455SOL    HW220529   8.024   3.923   3.859  1.2376  0.3101 -0.3183
 6456SOL     OW20530   7.657   5.779   3.050  0.2673 -0.1767 -0.5819
 6456SOL    HW120531   7.728   5.716   3.043 -0.2031 -0.6519 -1.3423
 6456SOL    HW220532   7.690   5.848   3.107  0.1368 -2.0051  1.8690
 6457SOL     OW20533   1.915   3.412   1.548  0.0285 -0.0852 -0.3267
 6457SOL    HW120534   1.839   3.439   1.496  1.4806  2.0275 -1.4951
 6457SOL    HW220535   1.956   3.343   1.495 -0.4639 -0.4739 -0.2120
 6458SOL     OW20536   1.754   2.112   3.448  0.1901  0.0232  0.0613
 6458SOL    HW120537   1.821   2.047   3.429 -2.5137 -2.5005 -1.8870
 6458SOL    HW220538   1.697   2.071   3.513 -0.5834  1.2091  0.1744
 6459SOL     OW20539   7.225   0.828   1.111  0.4633 -0.6598 -0.8567
 6459SOL    HW120540   7.153   0.863   1.164 -0.1407 -0.1958 -1.9501
 6459SOL    HW220541   7.252   0.749   1.157  1.5032  0.8938  1.4043
 6460SOL     OW20542   0.572   2.458   1.276  0.2046  0.2323 -0.3296
 6460SOL    HW120543   0.609   2.483   1.191 -0.6522 -0.0562 -0.7953
 6460SOL    HW220544   0.531   2.373   1.261 -1.0643  0.7551  0.0345
 6461SOL     OW20545   7.010   7.009   8.009 -0.6273  0.5032  0.1408
 6461SOL    HW120546   7.013   7.103   8.024 -1.5769  0.4180  0.9878
 6461SOL    HW220547   6.932   6.980   8.057  0.6129 -0.9703  1.3695
 6462SOL     OW20548   8.794   3.086   4.758  0.2403  0.0065  0.2198
 6462SOL    HW120549   8.829   3.002   4.729  1.9406  1.0466 -0.8739
 6462SOL    HW220550   8.726   3.107   4.694 -0.7732 -0.8754  0.9639
 6463SOL     OW20551   8.492   2.139   1.777  0.1706  0.0651  0.1415
 6463SOL    HW120552   8.527   2.224   1.806 -0.6057  0.5112 -0.1899
 6463SOL    HW220553   8.554   2.109   1.711 -0.1535  0.9549 -0.6027
 6464SOL     OW20554   5.681   0.171   2.847 -0.0339  0.0305  0.0457
 6464SOL    HW120555   5.664   0.100   2.908  0.6550  0.0752  0.2960
 6464SOL    HW220556   5.624   0.152   2.772 -1.6427  0.5202  1.0887
 6465SOL     OW20557   5.311   5.368   6.038 -0.5600 -0.2107 -0.0070
 6465SOL    HW120558   5.396   5.393   6.001 -1.0152  1.4962  0.0432
 6465SOL    HW220559   5.251   5.370   5.963 -0.2875 -3.1725 -0.4209
 6466SOL     OW20560   2.439   3.328   1.266  0.3507  0.3561  0.2294
 6466SOL    HW120561   2.393   3.357   1.188  2.3914  0.4974 -0.9915
 6466SOL    HW220562   2.484   3.406   1.298 -1.3072  0.5730  2.2480
 6467SOL     OW20563   8.759   0.655   1.895  0.4294  0.2466 -0.0667
 6467SOL    HW120564   8.763   0.598   1.819 -0.8301 -1.0255  0.7696
 6467SOL    HW220565   8.850   0.669   1.920  0.7635 -1.2615 -0.3992
 6468SOL     OW20566   4.231   0.677   6.172  0.4847  0.0273  0.0621
 6468SOL    HW120567   4.294   0.705   6.105  0.0410  0.7397 -0.0713
 6468SOL    HW220568   4.185   0.603   6.133 -1.0005  1.5270 -1.1742
 6469SOL     OW20569   2.433   3.885   7.195  0.5325  0.2135  0.2512
 6469SOL    HW120570   2.457   3.879   7.103 -0.4859 -0.8014  0.0426
 6469SOL    HW220571   2.419   3.795   7.223 -1.6616  0.6468  0.7125
 6470SOL     OW20572   0.054   7.081   0.280  0.0521 -0.4044 -0.6581
 6470SOL    HW120573   0.050   7.099   0.186  0.4093 -0.7988 -0.7543
 6470SOL    HW220574  -0.004   7.007   0.293  0.2877 -0.5847 -0.6294
 6471SOL     OW20575   3.430   3.363   2.163 -0.0382 -0.1241 -0.1356
 6471SOL    HW120576   3.339   3.350   2.135 -1.1662  1.6422  2.3318
 6471SOL    HW220577   3.465   3.427   2.101 -0.9435  0.2325 -0.2984
 6472SOL     OW20578   8.104   4.427   8.400  0.0442 -0.1504  0.1512
 6472SOL    HW120579   8.061   4.391   8.323  0.1530  0.6306 -0.2823
 6472SOL    HW220580   8.038   4.423   8.469 -0.0589 -0.8313  0.0192
 6473SOL     OW20581   8.104   8.297   4.610  0.9203  0.2698  0.6619
 6473SOL    HW120582   8.044   8.239   4.657  0.9466 -2.4630 -2.3573
 6473SOL    HW220583   8.059   8.381   4.607 -1.6907 -1.0531  0.5370
 6474SOL     OW20584   5.558   0.015   3.233 -0.1704 -0.2281 -0.3223
 6474SOL    HW120585   5.500  -0.025   3.298 -1.8109 -0.3484 -1.7924
 6474SOL    HW220586   5.499   0.058   3.171  1.4119  1.7299 -0.5857
 6475SOL     OW20587   3.211   8.102   2.416  0.6687 -0.2066  0.2982
 6475SOL    HW120588   3.223   8.131   2.326  0.6045 -0.2215  0.2850
 6475SOL    HW220589   3.208   8.006   2.411  3.5758 -0.4185  0.6266
 6476SOL     OW20590   5.956   5.738   4.056  0.2241 -0.2800  0.3191
 6476SOL    HW120591   6.030   5.732   3.996  0.0805 -0.4907  0.1610
 6476SOL    HW220592   5.949   5.831   4.077  1.0772 -0.3543  1.0199
 6477SOL     OW20593   7.766   3.808   7.839  0.6043 -0.3166 -0.2965
 6477SOL    HW120594   7.825   3.736   7.863 -0.4946 -1.1707 -0.0378
 6477SOL    HW220595   7.824   3.879   7.812  1.7621 -0.8849  0.5904
 6478SOL     OW20596   6.159   3.152   3.500 -0.7288 -0.0738  0.4769
 6478SOL    HW120597   6.109   3.203   3.436 -0.9130  0.0463  0.7122
 6478SOL    HW220598   6.155   3.062   3.468  0.9025  0.2631 -0.7760
 6479SOL     OW20599   3.848   7.614   2.421  0.5157 -0.4273  0.1582
 6479SOL    HW120600   3.887   7.530   2.398 -0.8336 -1.0450 -0.0101
 6479SOL    HW220601   3.788   7.593   2.493 -1.6331 -0.1004 -1.4447
 6480SOL     OW20602   6.252   1.369   7.613 -0.6626 -0.6341 -0.1309
 6480SOL    HW120603   6.278   1.461   7.622 -0.1274 -0.3570 -3.3148
 6480SOL    HW220604   6.157   1.372   7.607 -0.8816 -0.6482  2.1860
 6481SOL     OW20605   8.141   1.062   3.465  0.5091  0.6009  0.3642
 6481SOL    HW120606   8.175   1.009   3.393  2.7350  1.2252  0.8629
 6481SOL    HW220607   8.054   1.089   3.437  0.6350 -0.5969 -1.3140
 6482SOL     OW20608   2.320   5.538   4.786  0.0071  0.2310  0.5089
 6482SOL    HW120609   2.255   5.549   4.716  0.9692 -0.4899 -0.5336
 6482SOL    HW220610   2.337   5.627   4.817  0.1313  0.6479 -0.7204
 6483SOL     OW20611   6.009   7.578   4.832  0.5033  0.4825  0.0388
 6483SOL    HW120612   5.980   7.545   4.918  0.3080 -1.5984 -0.7630
 6483SOL    HW220613   5.943   7.643   4.808  0.6439  1.2089  1.5245
 6484SOL     OW20614   0.692   6.184   7.378  0.2009  0.1361  0.0142
 6484SOL    HW120615   0.750   6.144   7.312  0.7350  0.7902  0.0822
 6484SOL    HW220616   0.732   6.268   7.398 -0.2556  0.1805  0.7847
 6485SOL     OW20617   8.241   1.494   7.881 -0.6303  0.3305  0.0530
 6485SOL    HW120618   8.325   1.449   7.877 -1.1518 -0.5988 -0.9286
 6485SOL    HW220619   8.261   1.586   7.864  0.0593 -0.0600 -1.3317
 6486SOL     OW20620   7.510   8.087   7.656 -0.3781 -0.2902 -0.4257
 6486SOL    HW120621   7.466   8.172   7.655 -3.5511 -1.6043  3.0091
 6486SOL    HW220622   7.594   8.104   7.699 -1.5325  1.0154  1.4781
 6487SOL     OW20623   1.707   4.732   5.358  0.2260  0.1788  0.0312
 6487SOL    HW120624   1.789   4.778   5.340  1.5994 -2.7330 -1.7465
 6487SOL    HW220625   1.718   4.697   5.446  0.4657  0.6187  0.1811
 6488SOL     OW20626   7.360   7.760   2.292  0.0565  0.3621  0.0912
 6488SOL    HW120627   7.344   7.852   2.312 -0.5951  0.3468 -0.3059
 6488SOL    HW220628   7.273   7.725   2.272  0.4292 -0.0882 -0.7847
 6489SOL     OW20629   7.200   7.877   8.745  0.0595  0.1192 -0.0376
 6489SOL    HW120630   7.163   7.955   8.704 -0.0972  1.1484  1.9739
 6489SOL    HW220631   7.199   7.895   8.839  1.5469 -1.6446  0.3843
 6490SOL     OW20632   7.711   8.455   7.991  0.2038  0.6043 -0.3496
 6490SOL    HW120633   7.804   8.469   8.012 -0.0149  0.4651  0.7332
 6490SOL    HW220634   7.679   8.395   8.057 -0.1787 -1.0235 -1.9243
 6491SOL     OW20635   1.138   7.859   7.709  0.1840  0.2203 -0.4216
 6491SOL    HW120636   1.139   7.933   7.770 -0.5070 -0.5423  0.5384
 6491SOL    HW220637   1.120   7.898   7.624  1.5734  1.3560 -0.2332
 6492SOL     OW20638   4.330   0.688   3.726 -0.2183 -0.2866  0.1872
 6492SOL    HW120639   4.313   0.736   3.645  0.3081 -0.7338 -0.2006
 6492SOL    HW220640   4.270   0.614   3.723  0.3347 -0.7266 -0.1747
 6493SOL     OW20641   3.647   2.294   1.519 -0.6890  0.1839  0.1768
 6493SOL    HW120642   3.693   2.296   1.603 -0.5431 -0.4832  0.1175
 6493SOL    HW220643   3.709   2.333   1.457 -0.1540 -0.7786  0.0823
 6494SOL     OW20644   5.894   8.309   7.878 -0.0264  0.3310  0.1735
 6494SOL    HW120645   5.825   8.330   7.941  0.1651  0.8021  0.2297
 6494SOL    HW220646   5.864   8.228   7.836  0.3811 -0.6278  1.6622
 6495SOL     OW20647   2.869   8.652   7.928  0.2243  0.0319 -0.2258
 6495SOL    HW120648   2.897   8.712   7.859 -0.1199  1.4953  0.8541
 6495SOL    HW220649   2.880   8.703   8.009  1.4724 -1.9237  0.9156
 6496SOL     OW20650   6.791   1.683   4.997 -0.1946  0.2875  0.2822
 6496SOL    HW120651   6.715   1.741   4.991 -0.3378  0.2539  1.5495
 6496SOL    HW220652   6.756   1.603   5.036  0.7182  0.7602  2.1654
 6497SOL     OW20653   4.403   0.221   0.914 -0.2348 -0.0481  0.2995
 6497SOL    HW120654   4.353   0.190   0.838  2.2385  0.9626 -1.8566
 6497SOL    HW220655   4.482   0.168   0.914  0.6324  1.1967  1.0674
 6498SOL     OW20656   7.888   8.743   0.754 -0.2726  0.4530  0.1485
 6498SOL    HW120657   7.911   8.825   0.798  0.1202  0.7290 -0.5566
 6498SOL    HW220658   7.969   8.692   0.756 -0.8886 -0.5886  1.9492
 6499SOL     OW20659   4.144   5.903   1.668 -0.0455  0.4757 -0.5277
 6499SOL    HW120660   4.182   5.815   1.658  0.0752  0.5380 -0.6192
 6499SOL    HW220661   4.212   5.962   1.635  0.3735  0.6893  0.6800
 6500SOL     OW20662   6.873   0.812   4.285 -0.0101 -0.4351 -0.3025
 6500SOL    HW120663   6.935   0.752   4.326  0.5203  0.0654 -0.3482
 6500SOL    HW220664   6.922   0.851   4.212 -0.0258  0.7349  0.2876
 6501SOL     OW20665   2.031   7.738   1.361  0.1999 -0.5168  0.1965
 6501SOL    HW120666   2.021   7.826   1.398  0.9435  0.0067 -0.7845
 6501SOL    HW220667   2.123   7.734   1.334  0.7217 -2.3153  1.9869
 6502SOL     OW20668   1.809   4.647   8.693  0.5180  0.3245 -0.1856
 6502SOL    HW120669   1.859   4.566   8.703 -2.1607 -1.3314  1.0669
 6502SOL    HW220670   1.797   4.656   8.598 -0.8278 -1.9994 -0.3317
 6503SOL     OW20671   2.710   1.280   2.457 -0.7846  0.3009  0.1426
 6503SOL    HW120672   2.696   1.189   2.485  0.2075  0.8862  2.9038
 6503SOL    HW220673   2.775   1.314   2.519  0.8777  2.1750 -2.4145
 6504SOL     OW20674   2.979   8.051   7.911  0.1414 -0.3786  0.5147
 6504SOL    HW120675   3.005   8.011   7.828  0.0737 -1.0411  0.8041
 6504SOL    HW220676   3.026   8.135   7.914 -0.3644 -0.0544 -0.4830
 6505SOL     OW20677   0.795   8.438   8.195  0.1778  0.1910  0.3826
 6505SOL    HW120678   0.846   8.510   8.157 -0.8667  1.3105  1.0325
 6505SOL    HW220679   0.779   8.465   8.285 -0.1485 -0.9251  0.6698
 6506SOL     OW20680   3.003   4.425   4.450 -0.1051  0.2572 -0.6676
 6506SOL    HW120681   3.010   4.446   4.357  0.5874  0.5624 -0.5541
 6506SOL    HW220682   2.909   4.413   4.465 -0.2207  0.1865 -1.4059
 6507SOL     OW20683   5.486   7.529   3.841 -0.1289  0.1464 -0.1461
 6507SOL    HW120684   5.483   7.500   3.932  1.1804 -0.8630 -0.3938
 6507SOL    HW220685   5.397   7.558   3.822 -1.2336 -2.4869  0.5526
 6508SOL     OW20686   2.350   1.663   4.114  0.0464 -0.5742  0.2756
 6508SOL    HW120687   2.332   1.731   4.180  1.7466  0.7526 -0.5171
 6508SOL    HW220688   2.302   1.692   4.036  2.1183  0.8081 -0.6111
 6509SOL     OW20689   6.578   1.043   8.291 -0.0271 -0.0886 -0.3474
 6509SOL    HW120690   6.667   1.011   8.305 -0.0613 -0.5309 -1.1071
 6509SOL    HW220691   6.585   1.138   8.303  0.6314 -0.0707 -0.7877
 6510SOL     OW20692   1.324   4.097   1.859  0.4409  0.1970  0.7067
 6510SOL    HW120693   1.246   4.074   1.909 -0.1938  1.3684  0.3181
 6510SOL    HW220694   1.382   4.022   1.867 -0.1535 -0.1282  2.1602
 6511SOL     OW20695   0.830   4.724   6.650  0.3843  0.2146 -0.2658
 6511SOL    HW120696   0.834   4.630   6.632 -1.4666  0.0777 -0.1091
 6511SOL    HW220697   0.790   4.730   6.737  1.2606  1.1462  0.0988
 6512SOL     OW20698   1.123   3.936   5.387 -0.2333 -0.7596 -0.0577
 6512SOL    HW120699   1.070   3.968   5.459  0.0781  0.5746 -0.3775
 6512SOL    HW220700   1.174   4.013   5.359 -1.3132 -0.8501 -2.5399
 6513SOL     OW20701   0.044   7.692   5.229  0.2857  0.0102  0.5629
 6513SOL    HW120702  -0.049   7.671   5.228  0.4532 -1.3789  3.1874
 6513SOL    HW220703   0.085   7.625   5.175 -0.2621  1.2741 -1.5190
 6514SOL     OW20704   2.485   2.893   7.578  0.2522 -0.3144  0.1435
 6514SOL    HW120705   2.431   2.944   7.639 -1.4410 -1.0980 -0.6359
 6514SOL    HW220706   2.423   2.854   7.517  1.7753 -0.7537 -1.2100
 6515SOL     OW20707   2.990   5.701   0.926  0.3886 -0.0543 -0.2325
 6515SOL    HW120708   2.991   5.760   0.851 -1.4050 -0.5351 -0.6938
 6515SOL    HW220709   3.013   5.756   1.000 -0.1648  0.9764 -0.8049
 6516SOL     OW20710   4.617   1.822   2.500  0.3673 -0.5663 -0.1267
 6516SOL    HW120711   4.583   1.811   2.589 -0.7446 -0.8637 -0.5669
 6516SOL    HW220712   4.611   1.735   2.461 -0.1304 -0.2379 -0.8086
 6517SOL     OW20713   5.769   4.400   8.455 -0.3507 -0.2572  0.5717
 6517SOL    HW120714   5.829   4.340   8.410 -2.3057 -2.5510  0.7826
 6517SOL    HW220715   5.775   4.375   8.547  0.1945  1.2154  0.9507
 6518SOL     OW20716   0.595   6.945   7.096 -0.0801 -0.0991 -0.1316
 6518SOL    HW120717   0.579   7.036   7.120 -1.3434 -0.1378 -0.7059
 6518SOL    HW220718   0.650   6.950   7.017 -0.1667  0.1642 -0.1749
 6519SOL     OW20719   4.577   2.974   4.844 -0.1386 -0.0274 -0.3430
 6519SOL    HW120720   4.658   2.983   4.894 -0.6965 -0.1614  0.5960
 6519SOL    HW220721   4.573   2.882   4.820  0.2214  0.0727 -0.8077
 6520SOL     OW20722   1.994   1.025   7.585 -0.3025  0.0334 -0.2848
 6520SOL    HW120723   1.951   1.039   7.669  0.6802  2.6413 -0.1420
 6520SOL    HW220724   2.014   0.931   7.584 -0.6171 -0.1222  2.2544
 6521SOL     OW20725   7.437   0.279   5.173  0.5647 -0.0959 -0.4607
 6521SOL    HW120726   7.427   0.345   5.242  0.3825  0.2346 -0.8034
 6521SOL    HW220727   7.348   0.265   5.140  0.3650 -1.5784  0.5851
 6522SOL     OW20728   3.617   8.809   6.779  0.2221  0.4993  0.7772
 6522SOL    HW120729   3.637   8.872   6.710  1.9233  0.2194  0.9547
 6522SOL    HW220730   3.660   8.844   6.857 -1.7904  0.8768  1.7803
 6523SOL     OW20731   1.100   2.172   4.930  0.6014  0.7842 -1.0349
 6523SOL    HW120732   1.125   2.235   4.998  0.6397  1.2111 -1.4393
 6523SOL    HW220733   1.044   2.109   4.975 -1.3390  2.3815 -1.0946
 6524SOL     OW20734   4.812   7.258   2.597  0.2298 -0.3311 -0.1718
 6524SOL    HW120735   4.763   7.278   2.518  0.9810 -1.3148 -0.9096
 6524SOL    HW220736   4.890   7.212   2.566  1.1373  0.3351  1.0469
 6525SOL     OW20737   1.716   8.275   4.512 -0.4780 -1.1273 -0.3147
 6525SOL    HW120738   1.671   8.287   4.428 -0.6797 -0.6726 -0.1405
 6525SOL    HW220739   1.799   8.322   4.502 -0.6673 -0.7512 -0.1248
 6526SOL     OW20740   5.740   3.755   7.255 -0.0508  0.0407 -0.3225
 6526SOL    HW120741   5.757   3.662   7.245 -0.8640 -0.2449  0.8026
 6526SOL    HW220742   5.799   3.783   7.325 -0.4761  0.1524 -0.0013
 6527SOL     OW20743   6.864   0.238   2.299  0.2480  0.1958  0.1420
 6527SOL    HW120744   6.950   0.269   2.327  0.0822  0.7355  0.0742
 6527SOL    HW220745   6.881   0.195   2.215  0.6677 -0.9935  0.8113
 6528SOL     OW20746   0.590   1.511   4.864 -0.1528  0.0941 -0.4382
 6528SOL    HW120747   0.550   1.598   4.865 -1.4051 -0.4645 -0.6056
 6528SOL    HW220748   0.518   1.451   4.881  0.8437 -0.8742  0.5856
 6529SOL     OW20749   3.510   1.297   6.707  0.1505  0.3022  0.4289
 6529SOL    HW120750   3.490   1.285   6.614 -0.9256 -1.3614  0.8291
 6529SOL    HW220751   3.457   1.372   6.733 -1.4570 -0.7016  0.2070
 6530SOL     OW20752   7.576   6.629   1.110  0.7848  0.5330 -0.4621
 6530SOL    HW120753   7.589   6.693   1.040 -0.6381  2.2431  0.7529
 6530SOL    HW220754   7.504   6.574   1.079  0.0057  1.4259 -0.2645
 6531SOL     OW20755   3.041   6.438   8.349  0.4278  0.6715 -0.0486
 6531SOL    HW120756   2.987   6.484   8.414  0.0309  1.9008 -1.2065
 6531SOL    HW220757   3.039   6.346   8.376  0.9426  1.2457  2.1450
 6532SOL     OW20758   7.389   5.581   0.673  0.1852  0.0881 -0.0683
 6532SOL    HW120759   7.471   5.559   0.717 -0.9959 -0.6953  1.8468
 6532SOL    HW220760   7.398   5.674   0.651  1.5307  0.0367  0.1905
 6533SOL     OW20761   4.155   8.052   5.806  0.2053 -0.0321 -0.0056
 6533SOL    HW120762   4.230   8.101   5.772  0.5697 -1.3193 -1.1544
 6533SOL    HW220763   4.112   8.018   5.728 -0.3301 -1.0874  0.7278
 6534SOL     OW20764   7.539   3.225   6.649  1.0883  0.7232  0.1628
 6534SOL    HW120765   7.573   3.272   6.725 -0.0482  0.4474  0.8614
 6534SOL    HW220766   7.558   3.283   6.575  0.9555  1.6422  0.8305
 6535SOL     OW20767   5.706   5.711   2.764 -0.2413 -0.3010  0.1897
 6535SOL    HW120768   5.743   5.664   2.839 -0.6053 -0.8656  0.0176
 6535SOL    HW220769   5.775   5.711   2.698 -1.1523 -3.1095 -0.9059
 6536SOL     OW20770   4.172   4.578   2.960  0.6381 -0.2605  0.4442
 6536SOL    HW120771   4.216   4.634   2.896 -1.9133  1.0726 -0.2830
 6536SOL    HW220772   4.107   4.529   2.909 -0.6304 -0.0639  1.8097
 6537SOL     OW20773   3.464   2.606   2.276  0.3014  0.1319  0.2233
 6537SOL    HW120774   3.540   2.628   2.330 -0.6458  0.9833  1.2817
 6537SOL    HW220775   3.398   2.575   2.339 -0.6897  0.7494 -0.4756
 6538SOL     OW20776   5.391   4.288   0.105 -0.0796 -0.0196  0.0785
 6538SOL    HW120777   5.351   4.242   0.030 -0.1579  0.7408 -0.3581
 6538SOL    HW220778   5.371   4.380   0.089  3.1762  0.6332 -1.0355
 6539SOL     OW20779   3.511   2.146   5.069 -0.0902 -0.5065  0.5862
 6539SOL    HW120780   3.547   2.233   5.087  0.1581 -0.6003  0.5520
 6539SOL    HW220781   3.588   2.089   5.066  0.4223 -0.0177 -4.1305
 6540SOL     OW20782   2.556   4.588   2.622 -0.1317 -0.5264  0.2106
 6540SOL    HW120783   2.622   4.605   2.554 -1.8322 -0.7444 -1.5976
 6540SOL    HW220784   2.580   4.646   2.694  1.4549  0.1065 -0.7747
 6541SOL     OW20785   7.154   0.458   5.808 -0.1975 -0.8062  0.3444
 6541SOL    HW120786   7.213   0.509   5.752 -1.1219 -0.6410 -0.4970
 6541SOL    HW220787   7.186   0.368   5.799  0.0406 -0.6961  0.0307
 6542SOL     OW20788   4.400   8.285   5.953  0.2549  0.5689  0.7114
 6542SOL    HW120789   4.428   8.262   5.864 -0.8741 -1.4668  0.8120
 6542SOL    HW220790   4.395   8.381   5.953 -2.6293  0.6045 -2.4252
 6543SOL     OW20791   1.176   2.940   5.223 -0.0143  0.0937  0.1330
 6543SOL    HW120792   1.124   2.982   5.291 -2.9632 -1.0032 -1.2901
 6543SOL    HW220793   1.148   2.849   5.224 -0.1005  0.0329 -2.4608
 6544SOL     OW20794   7.849   6.784   5.222  0.3787 -0.0041  0.2302
 6544SOL    HW120795   7.809   6.716   5.277  1.8733 -0.7266  0.4733
 6544SOL    HW220796   7.843   6.864   5.275  1.0594 -0.5223  1.1304
 6545SOL     OW20797   2.074   1.622   5.263  0.3169 -0.5472  0.1106
 6545SOL    HW120798   2.155   1.656   5.301  0.0492  0.2628 -0.0304
 6545SOL    HW220799   2.063   1.670   5.181  0.4376 -1.6763 -0.5839
 6546SOL     OW20800   4.419   8.484   0.620  0.4728  0.2942 -0.1362
 6546SOL    HW120801   4.486   8.462   0.556  0.7819  0.0215  0.2804
 6546SOL    HW220802   4.359   8.542   0.572  1.2410  0.9021 -0.3874
 6547SOL     OW20803   1.207   1.983   5.415 -0.5556  0.2248 -0.0725
 6547SOL    HW120804   1.166   2.010   5.497  0.4365  2.3161 -0.2179
 6547SOL    HW220805   1.263   2.056   5.390  0.2400 -0.9325 -1.9150
 6548SOL     OW20806   2.640   1.621   4.974 -0.0069  0.5008  0.6127
 6548SOL    HW120807   2.669   1.532   4.997 -0.7964  0.4237  1.3330
 6548SOL    HW220808   2.664   1.674   5.049  0.8323  0.9917  0.0121
 6549SOL     OW20809   1.026   5.908   0.448  0.1092  0.2021 -0.2109
 6549SOL    HW120810   1.116   5.880   0.463  0.2948 -0.4029 -2.2357
 6549SOL    HW220811   0.983   5.897   0.534  1.0027 -3.2124 -0.0398
 6550SOL     OW20812   0.931   5.250   7.700  0.1246  0.6694  0.1275
 6550SOL    HW120813   0.885   5.316   7.647 -0.8417 -0.5359 -0.5957
 6550SOL    HW220814   0.971   5.192   7.636 -0.6706 -0.5522  0.7008
 6551SOL     OW20815   0.753   6.755   5.815 -0.6401 -0.0933  0.4624
 6551SOL    HW120816   0.665   6.733   5.846 -0.6715  0.6836  0.9609
 6551SOL    HW220817   0.769   6.843   5.850  0.2113 -0.1012  0.1112
 6552SOL     OW20818   7.490   5.776   1.646 -0.1363 -0.7057  0.1100
 6552SOL    HW120819   7.506   5.732   1.730  0.9860  0.5756  0.5970
 6552SOL    HW220820   7.486   5.869   1.668 -0.9361 -0.4241 -1.1200
 6553SOL     OW20821   6.305   3.852   0.942 -0.9133 -0.1975 -0.1278
 6553SOL    HW120822   6.245   3.884   0.875 -0.2433  0.4165 -0.4593
 6553SOL    HW220823   6.286   3.758   0.950 -2.9733  0.2642  0.9119
 6554SOL     OW20824   6.966   3.335   4.781 -0.0969  0.1881 -0.1461
 6554SOL    HW120825   6.946   3.290   4.699 -1.0514 -1.2963  0.8498
 6554SOL    HW220826   7.061   3.344   4.780  0.0048 -0.6931 -0.9932
 6555SOL     OW20827   4.346   0.578   0.268 -0.0915  0.3077  0.0594
 6555SOL    HW120828   4.257   0.568   0.301  0.4604  0.7040  1.7331
 6555SOL    HW220829   4.386   0.644   0.324  1.8178 -1.1606  0.5253
 6556SOL     OW20830   8.204   3.809   8.472  0.4178 -0.3072  0.1651
 6556SOL    HW120831   8.271   3.795   8.405 -0.6864 -0.0456 -1.0398
 6556SOL    HW220832   8.143   3.737   8.460 -0.8367  0.8259 -0.4586
 6557SOL     OW20833   2.438   1.714   7.931  0.2079 -0.2702  0.0352
 6557SOL    HW120834   2.497   1.787   7.948 -0.4527  0.2358  0.2227
 6557SOL    HW220835   2.428   1.671   8.016 -0.9532  0.6265  0.3876
 6558SOL     OW20836   0.862   5.131   3.817  0.2382 -0.0060 -0.6567
 6558SOL    HW120837   0.853   5.117   3.911  1.1001  1.6818 -0.2727
 6558SOL    HW220838   0.832   5.221   3.803 -2.1778 -0.9725 -2.4278
 6559SOL     OW20839   5.079   5.896   6.839 -0.4244  0.2681 -0.1367
 6559SOL    HW120840   5.100   5.935   6.923  0.6241 -0.5090 -0.0193
 6559SOL    HW220841   4.984   5.880   6.843 -0.4943  0.8587  0.6211
 6560SOL     OW20842   7.962   3.415   0.773 -0.2766  0.2737  0.6539
 6560SOL    HW120843   7.913   3.491   0.804 -0.1295  1.7708 -2.3692
 6560SOL    HW220844   7.943   3.412   0.679  0.2287 -3.1073  0.5235
 6561SOL     OW20845   8.133   4.762   6.233 -0.1008 -0.1649 -0.1094
 6561SOL    HW120846   8.103   4.838   6.185 -3.2881 -1.5480 -0.5717
 6561SOL    HW220847   8.174   4.706   6.167  1.1836  0.5934  0.0186
 6562SOL     OW20848   2.203   2.114   2.858  0.2196  0.3561  0.2845
 6562SOL    HW120849   2.160   2.109   2.773  1.1740 -0.8845 -0.1644
 6562SOL    HW220850   2.294   2.088   2.840  0.2953 -0.5035  1.7572
 6563SOL     OW20851   3.493   2.251   7.011 -0.6304 -0.2057  0.1470
 6563SOL    HW120852   3.441   2.275   6.934 -1.6372 -1.6809  0.3164
 6563SOL    HW220853   3.583   2.265   6.984 -1.0569  1.7130 -0.4171
 6564SOL     OW20854   5.679   1.737   1.786  0.2642 -0.4663  0.0197
 6564SOL    HW120855   5.722   1.816   1.753 -0.2563 -0.1620  0.0556
 6564SOL    HW220856   5.700   1.669   1.722 -0.3050 -0.0061 -0.6595
 6565SOL     OW20857   7.239   4.249   3.171 -0.2073  0.3197 -0.3355
 6565SOL    HW120858   7.194   4.188   3.230 -0.1787 -0.8205 -1.4508
 6565SOL    HW220859   7.330   4.247   3.199 -0.2056 -0.1583 -0.3685
 6566SOL     OW20860   3.665   8.366   2.083 -0.3479 -0.0117 -0.4820
 6566SOL    HW120861   3.709   8.422   2.019 -1.9883  1.1334 -0.6945
 6566SOL    HW220862   3.712   8.283   2.079  1.6115  1.0573 -0.8057
 6567SOL     OW20863   7.001   7.301   7.757 -0.0476  0.3695  0.4458
 6567SOL    HW120864   6.944   7.226   7.774  2.4649 -1.7030  0.5835
 6567SOL    HW220865   6.946   7.364   7.711 -2.7017 -0.8910  1.6848
 6568SOL     OW20866   8.681   1.939   1.994 -0.2096  0.7884  0.3896
 6568SOL    HW120867   8.767   1.905   2.016 -0.1254 -2.5258 -3.7588
 6568SOL    HW220868   8.697   2.031   1.970  2.0859  0.3644  0.0588
 6569SOL     OW20869   1.599   1.731   8.461  0.2001 -0.0374  0.0151
 6569SOL    HW120870   1.604   1.826   8.451  2.0055  0.0686  1.3286
 6569SOL    HW220871   1.630   1.697   8.378 -0.0599  0.5333 -0.3237
 6570SOL     OW20872   6.123   1.455   8.170  0.3112 -0.1423  0.2987
 6570SOL    HW120873   6.079   1.498   8.244  1.1048  0.3926  0.4666
 6570SOL    HW220874   6.160   1.375   8.207 -0.8105 -0.7961  0.0765
 6571SOL     OW20875   3.327   3.535   3.149  0.0055  0.0503 -0.2193
 6571SOL    HW120876   3.259   3.469   3.140  0.0012  0.0624 -0.2766
 6571SOL    HW220877   3.397   3.506   3.090  0.4827 -0.5129  0.6122
 6572SOL     OW20878   6.864   5.481   6.927  0.1927 -0.8401 -0.7325
 6572SOL    HW120879   6.783   5.433   6.944 -1.1348  1.2712 -0.6408
 6572SOL    HW220880   6.868   5.487   6.831  0.8458 -1.8588 -0.7817
 6573SOL     OW20881   5.712   2.679   3.940 -0.5168  0.2280  0.1101
 6573SOL    HW120882   5.799   2.694   3.977  0.1183  0.1047 -1.2686
 6573SOL    HW220883   5.729   2.646   3.852 -1.9696 -0.2090 -0.0281
 6574SOL     OW20884   1.081   1.853   8.650  0.2965 -1.0585  0.1056
 6574SOL    HW120885   1.143   1.805   8.595 -0.2239 -2.3367  0.5858
 6574SOL    HW220886   1.054   1.789   8.716  0.7769  0.3726  1.7553
 6575SOL     OW20887   2.959   1.143   0.266  0.0717 -0.6069  0.3948
 6575SOL    HW120888   2.937   1.208   0.201  0.7061 -0.1893  0.5831
 6575SOL    HW220889   2.982   1.065   0.216 -1.3385 -0.9166  0.1878
 6576SOL     OW20890   6.748   6.112   8.782  0.5249 -0.7497 -0.1476
 6576SOL    HW120891   6.677   6.074   8.834 -0.3449  1.5347  0.4744
 6576SOL    HW220892   6.706   6.185   8.736  2.6810  1.4323  1.1629
 6577SOL     OW20893   4.876   6.200   0.150  0.1294  0.0324  0.4705
 6577SOL    HW120894   4.863   6.258   0.075  2.6271 -0.7709 -0.7218
 6577SOL    HW220895   4.893   6.258   0.223  0.6757  0.8429 -0.2794
 6578SOL     OW20896   1.695   5.914   8.247  0.4923 -0.0125  0.1168
 6578SOL    HW120897   1.771   5.860   8.269 -0.2256 -0.0041  3.0386
 6578SOL    HW220898   1.649   5.865   8.179  0.9134 -2.1448  1.2863
 6579SOL     OW20899   4.236   2.144   8.112 -0.2338 -0.3839  0.2642
 6579SOL    HW120900   4.216   2.230   8.149 -0.9675  0.3251 -1.6462
 6579SOL    HW220901   4.174   2.085   8.154  0.4107 -0.0510  1.7484
 6580SOL     OW20902   2.703   2.343   2.897 -0.6766 -0.3107  0.3194
 6580SOL    HW120903   2.737   2.292   2.824 -0.2824 -0.3942  0.5601
 6580SOL    HW220904   2.614   2.310   2.910 -0.6574 -0.4709  0.0404
 6581SOL     OW20905   7.266   4.230   5.187 -0.0078 -0.1279  0.1544
 6581SOL    HW120906   7.326   4.294   5.148  1.5128 -1.4836  0.1577
 6581SOL    HW220907   7.254   4.260   5.277 -0.1344  0.6977 -0.1299
 6582SOL     OW20908   4.623   8.555   2.768 -0.5797 -0.5736  0.3344
 6582SOL    HW120909   4.670   8.522   2.844  0.3961 -0.4943 -0.2141
 6582SOL    HW220910   4.609   8.477   2.713  0.5940 -0.3251 -0.3644
 6583SOL     OW20911   3.645   7.988   3.441 -0.5121 -0.3068  0.6675
 6583SOL    HW120912   3.644   8.081   3.464 -0.5204 -0.3373  0.7904
 6583SOL    HW220913   3.700   7.983   3.363 -1.4693 -0.0243 -0.0592
 6584SOL     OW20914   5.206   8.644   0.143 -0.0734  0.0205 -0.1834
 6584SOL    HW120915   5.146   8.569   0.144  0.6599 -0.5845  0.4486
 6584SOL    HW220916   5.292   8.605   0.129  0.1739  0.8793 -1.1097
 6585SOL     OW20917   4.908   6.144   4.070 -0.0545 -0.2354  0.1684
 6585SOL    HW120918   4.984   6.199   4.054 -1.3461  1.5004 -0.3213
 6585SOL    HW220919   4.933   6.058   4.036  1.6518  0.2995 -0.0102
 6586SOL     OW20920   7.198   3.330   7.684  0.3312 -0.0232  0.7561
 6586SOL    HW120921   7.278   3.280   7.703  0.2192 -0.0819  1.0845
 6586SOL    HW220922   7.128   3.281   7.728  0.1806  0.2809  0.8602
 6587SOL     OW20923   7.460   1.813   6.841 -0.8755  0.3116  0.0408
 6587SOL    HW120924   7.493   1.723   6.837 -0.8968  0.3590 -1.9659
 6587SOL    HW220925   7.535   1.865   6.870 -0.8497 -0.3208  1.1618
 6588SOL     OW20926   2.434   1.841   0.129 -0.3740 -0.1639 -0.0887
 6588SOL    HW120927   2.387   1.783   0.070 -1.0175 -0.5552  0.7889
 6588SOL    HW220928   2.463   1.785   0.201  0.3467  0.3124  0.0053
 6589SOL     OW20929   1.522   0.218   5.826  0.2223  0.1190  0.4366
 6589SOL    HW120930   1.449   0.276   5.850 -0.0648 -0.0214 -0.0698
 6589SOL    HW220931   1.587   0.277   5.788 -0.4219  0.0302 -0.8733
 6590SOL     OW20932   6.404   4.301   6.825 -0.4521  0.4346 -0.0436
 6590SOL    HW120933   6.382   4.344   6.743  1.0237 -1.2259 -1.3789
 6590SOL    HW220934   6.498   4.313   6.834 -0.2129 -1.3598  0.1905
 6591SOL     OW20935   8.126   0.477   7.137  0.4386 -0.3106  0.4334
 6591SOL    HW120936   8.174   0.559   7.132 -0.6790  0.4427  1.3473
 6591SOL    HW220937   8.049   0.498   7.190 -1.4888 -1.1509 -1.8500
 6592SOL     OW20938   0.015   3.105   7.950  0.3301  0.3054 -0.0648
 6592SOL    HW120939   0.098   3.133   7.912  0.1742  0.8233 -0.0238
 6592SOL    HW220940   0.040   3.035   8.011  0.6854  0.1548 -0.3755
 6593SOL     OW20941   2.099   1.258   4.523  0.1454 -0.0959 -0.1420
 6593SOL    HW120942   2.006   1.266   4.544  0.0529  1.0667 -0.9278
 6593SOL    HW220943   2.115   1.164   4.522 -0.5389 -0.2909  2.0246
 6594SOL     OW20944   2.947   5.677   7.718 -0.9210  0.3978 -0.1135
 6594SOL    HW120945   2.900   5.595   7.705 -0.2390 -0.0177  0.0185
 6594SOL    HW220946   2.892   5.743   7.675 -1.6329 -0.0717  0.0590
 6595SOL     OW20947   6.294   1.820   2.921  0.5287  0.1698  0.3233
 6595SOL    HW120948   6.336   1.785   2.999 -0.7032 -0.9987  0.4959
 6595SOL    HW220949   6.201   1.802   2.934  0.2767  0.1528 -1.3199
 6596SOL     OW20950   5.846   5.871   0.172  0.2942  0.2316  0.2494
 6596SOL    HW120951   5.889   5.895   0.254 -0.9692  1.7524  0.5257
 6596SOL    HW220952   5.854   5.949   0.117  0.2143 -0.4044 -0.6885
 6597SOL     OW20953   7.618   0.188   5.755  0.7630  0.3783  0.7697
 6597SOL    HW120954   7.707   0.153   5.750  0.2952 -1.1333  2.2079
 6597SOL    HW220955   7.577   0.162   5.672  1.1519 -0.4627  0.8277
 6598SOL     OW20956   8.621   4.328   4.282  0.3363 -0.0924 -0.7681
 6598SOL    HW120957   8.684   4.377   4.336 -0.5125  0.6497 -0.4319
 6598SOL    HW220958   8.648   4.346   4.192  0.3510  0.5792 -0.6335
 6599SOL     OW20959   6.616   7.642   3.183 -0.1976 -0.1889  0.3686
 6599SOL    HW120960   6.602   7.728   3.221  0.1663 -0.2044  0.5488
 6599SOL    HW220961   6.659   7.660   3.099 -0.3487 -0.1846  0.2922
 6600SOL     OW20962   6.020   0.292   8.029  0.6874 -0.0184 -0.1129
 6600SOL    HW120963   6.108   0.330   8.029  0.2395  1.0760 -0.9556
 6600SOL    HW220964   5.970   0.347   8.089  0.4903 -0.4459  0.1198
 6601SOL     OW20965   7.441   6.199   0.500 -0.4566 -0.1078 -0.1811
 6601SOL    HW120966   7.363   6.183   0.448 -2.2167  2.0232  1.5896
 6601SOL    HW220967   7.476   6.281   0.466  1.0292 -0.9955 -0.8934
 6602SOL     OW20968   2.641   3.241   8.740 -0.4979  0.1124 -0.2820
 6602SOL    HW120969   2.559   3.275   8.776 -0.1800  0.5655  0.0166
 6602SOL    HW220970   2.679   3.315   8.691  0.0184  0.0814  0.0648
 6603SOL     OW20971   8.546   2.658   3.114 -0.0909 -0.0286 -0.4413
 6603SOL    HW120972   8.458   2.621   3.101 -0.2411  0.4614 -0.8261
 6603SOL    HW220973   8.531   2.743   3.154  0.2360 -0.1308 -0.0890
 6604SOL     OW20974   1.862   7.885   5.001 -0.0740  0.2507 -0.6016
 6604SOL    HW120975   1.786   7.938   5.025  0.2688  0.1901  0.6844
 6604SOL    HW220976   1.836   7.795   5.022 -0.2987 -0.0036 -1.8735
 6605SOL     OW20977   4.463   3.038   5.271 -0.0799 -0.2784  0.1655
 6605SOL    HW120978   4.420   3.052   5.186 -1.0802  1.2756  0.8950
 6605SOL    HW220979   4.519   3.115   5.282  0.2091 -0.5809  0.8226
 6606SOL     OW20980   6.216   6.936   8.546 -0.0901 -0.0501  0.3338
 6606SOL    HW120981   6.195   6.958   8.455  1.5266  0.2749  0.0093
 6606SOL    HW220982   6.227   7.021   8.590  0.9969 -0.1760  0.3465
 6607SOL     OW20983   4.028   1.859   4.974  0.0658  1.3014 -0.2096
 6607SOL    HW120984   4.055   1.771   5.002 -1.7152  0.6545 -0.3896
 6607SOL    HW220985   4.004   1.903   5.056  1.0108  1.6528 -0.1139
 6608SOL     OW20986   6.418   5.528   2.219  0.6143  0.2150  0.0142
 6608SOL    HW120987   6.430   5.475   2.299  0.3841  0.5469  0.2718
 6608SOL    HW220988   6.399   5.616   2.252 -2.1769 -0.1682 -0.3300
 6609SOL     OW20989   4.031   0.999   2.954  0.0094  0.2012 -0.2816
 6609SOL    HW120990   4.098   0.933   2.937 -1.9544 -1.4786 -2.0133
 6609SOL    HW220991   3.984   0.966   3.031 -0.3015  0.1392 -0.4969
 6610SOL     OW20992   7.197   5.352   2.514 -0.9406 -0.6078 -0.0809
 6610SOL    HW120993   7.243   5.269   2.525 -0.0894 -0.0972  0.3286
 6610SOL    HW220994   7.160   5.347   2.426 -0.7481 -1.3449 -0.1281
 6611SOL     OW20995   0.687   2.208   6.117 -0.3864  0.0990  0.3377
 6611SOL    HW120996   0.695   2.294   6.076  0.6748  0.8052  1.9246
 6611SOL    HW220997   0.740   2.214   6.196  2.1639 -2.9128 -0.8941
 6612SOL     OW20998   2.182   3.658   1.866 -0.4400 -0.1276 -0.0914
 6612SOL    HW120999   2.162   3.653   1.773 -1.5360  0.6030  0.0864
 6612SOL    HW221000   2.240   3.584   1.882 -0.6553 -0.5651 -1.2489
 6613SOL     OW21001   2.385   5.531   5.666 -0.1049  0.1282  0.3027
 6613SOL    HW121002   2.344   5.461   5.716  0.2499 -0.4010 -0.1470
 6613SOL    HW221003   2.439   5.487   5.601 -0.1061  0.8177 -0.1765
 6614SOL     OW21004   5.218   7.142   3.013  0.4832 -0.7686  0.2535
 6614SOL    HW121005   5.248   7.153   2.922 -0.6487  0.1994 -0.0378
 6614SOL    HW221006   5.124   7.159   3.009  0.6328  0.7370  1.8289
 6615SOL     OW21007   3.450   1.570   2.803  0.8258  0.5340  0.4664
 6615SOL    HW121008   3.499   1.637   2.755  2.2449 -0.3184  0.6480
 6615SOL    HW221009   3.511   1.496   2.808 -1.0299 -1.1462 -0.5757
 6616SOL     OW21010   6.701   3.723   3.145  0.2889  0.0738  0.3179
 6616SOL    HW121011   6.692   3.817   3.129  0.4234  0.0671  0.1975
 6616SOL    HW221012   6.652   3.707   3.225  1.3126  0.4648  1.0353
 6617SOL     OW21013   2.182   0.237   7.701 -0.2331  0.4100 -0.1866
 6617SOL    HW121014   2.233   0.156   7.702  1.5624  1.4736 -1.0501
 6617SOL    HW221015   2.242   0.304   7.731 -2.0748  1.2838  1.7664
 6618SOL     OW21016   0.770   2.906   6.615  0.1472 -0.0628 -0.0048
 6618SOL    HW121017   0.844   2.960   6.642 -0.1142 -0.3216  1.2563
 6618SOL    HW221018   0.767   2.835   6.678  1.0419 -2.1217 -2.1208
 6619SOL     OW21019   8.120   3.997   0.519  0.1394  0.1297  0.5772
 6619SOL    HW121020   8.108   3.973   0.611  1.2940  0.5942  0.8579
 6619SOL    HW221021   8.123   3.913   0.473 -1.5610 -0.0833  0.7965
 6620SOL     OW21022   1.317   2.628   1.338 -0.3246  0.0880 -0.2672
 6620SOL    HW121023   1.267   2.614   1.258 -0.8528 -3.2617  0.5181
 6620SOL    HW221024   1.333   2.541   1.372  1.7632  1.3053  2.1831
 6621SOL     OW21025   7.820   8.805   5.827  0.3493  0.2244 -0.6162
 6621SOL    HW121026   7.803   8.864   5.900 -0.1233 -1.9559  1.1393
 6621SOL    HW221027   7.732   8.780   5.797  0.5355  1.1372 -2.0370
 6622SOL     OW21028   0.839   4.763   4.256 -0.1350 -0.1579  0.3871
 6622SOL    HW121029   0.831   4.719   4.341 -1.2036  0.9022  0.8754
 6622SOL    HW221030   0.748   4.770   4.225 -0.2980  3.2243  1.1820
 6623SOL     OW21031   0.751   1.318   7.231 -0.5364  0.3127 -0.1879
 6623SOL    HW121032   0.669   1.367   7.226  0.1812  1.4663 -1.3038
 6623SOL    HW221033   0.735   1.240   7.179 -0.8663  0.6286 -0.5717
 6624SOL     OW21034   4.397   4.654   7.511 -0.4163 -0.1323  0.1811
 6624SOL    HW121035   4.435   4.681   7.595 -1.7290 -0.2496  0.8278
 6624SOL    HW221036   4.438   4.570   7.492  1.4324  0.8353 -0.3382
 6625SOL     OW21037   5.980   7.777   7.130 -0.0381 -0.2401 -0.0093
 6625SOL    HW121038   5.928   7.705   7.093  0.5374 -0.1341 -1.0767
 6625SOL    HW221039   6.071   7.754   7.109  0.1956  0.5244  0.1332
 6626SOL     OW21040   1.228   6.479   3.230  0.0374  0.2440 -0.3586
 6626SOL    HW121041   1.158   6.467   3.294 -0.1373  2.6338  0.0079
 6626SOL    HW221042   1.299   6.521   3.279  1.8205 -2.1309 -0.7158
 6627SOL     OW21043   2.193   2.117   7.846 -0.4988  0.0177 -0.5286
 6627SOL    HW121044   2.211   2.032   7.805 -0.1761  0.9985 -2.5617
 6627SOL    HW221045   2.244   2.179   7.794  0.6708  1.2921  1.9772
 6628SOL     OW21046   2.851   3.591   0.826  0.0398  0.3563  0.3108
 6628SOL    HW121047   2.942   3.605   0.852  0.6741  1.6802 -2.2109
 6628SOL    HW221048   2.857   3.529   0.753 -1.4807 -2.1169  2.1274
 6629SOL     OW21049   7.694   5.828   7.530  0.4094  0.1744 -0.0090
 6629SOL    HW121050   7.601   5.830   7.553  0.2915 -1.0644 -0.2951
 6629SOL    HW221051   7.695   5.825   7.434  0.7026 -0.7500  0.0141
 6630SOL     OW21052   7.217   6.831   3.398 -0.3178 -0.2427  0.1629
 6630SOL    HW121053   7.179   6.781   3.326  1.1522 -0.8569 -0.2207
 6630SOL    HW221054   7.272   6.897   3.356 -1.1805  0.8372  0.6932
 6631SOL     OW21055   5.391   7.994   4.225  0.3196 -0.0275 -0.0779
 6631SOL    HW121056   5.463   7.955   4.275 -0.2976  0.0104  0.8591
 6631SOL    HW221057   5.316   7.937   4.240  0.1592 -0.1145 -1.1185
 6632SOL     OW21058   0.587   4.788   5.261 -0.0914 -0.4452 -0.2230
 6632SOL    HW121059   0.561   4.696   5.269  0.0218 -0.4701 -0.1471
 6632SOL    HW221060   0.601   4.800   5.167  0.3268 -0.6240 -0.1849
 6633SOL     OW21061   7.531   6.213   2.820  0.3551 -0.4510 -0.5588
 6633SOL    HW121062   7.625   6.219   2.802  0.7119  3.0501  1.6213
 6633SOL    HW221063   7.525   6.205   2.915 -1.6300 -1.7870 -0.7286
 6634SOL     OW21064   0.471   3.222   1.063 -0.2292  0.2066 -0.0981
 6634SOL    HW121065   0.480   3.223   1.158 -0.4465  0.4133 -0.0791
 6634SOL    HW221066   0.380   3.199   1.047 -0.4416  1.0936 -0.2322
 6635SOL     OW21067   6.017   3.604   5.160 -0.1462 -0.4997 -0.5246
 6635SOL    HW121068   5.968   3.523   5.145  0.9654 -1.2118 -0.3793
 6635SOL    HW221069   6.023   3.645   5.074 -1.7152  0.0368 -0.4132
 6636SOL     OW21070   3.196   5.552   1.411 -0.2432  0.0858 -0.1951
 6636SOL    HW121071   3.240   5.500   1.344  2.5629  3.8020 -1.5431
 6636SOL    HW221072   3.104   5.552   1.383  0.4061 -0.5182 -2.6314
 6637SOL     OW21073   2.382   7.613   7.481 -0.0242  0.0672 -0.4968
 6637SOL    HW121074   2.348   7.581   7.564  0.8775 -0.9666 -0.5055
 6637SOL    HW221075   2.477   7.610   7.491  0.1747  3.4365 -0.2501
 6638SOL     OW21076   5.925   6.753   1.982 -0.5738  0.0045 -0.1829
 6638SOL    HW121077   5.885   6.754   2.069 -1.4188 -1.2737 -0.5286
 6638SOL    HW221078   5.880   6.682   1.936  2.0683 -1.5124 -0.6139
 6639SOL     OW21079   8.351   1.721   1.990  0.3221 -0.4456 -0.0970
 6639SOL    HW121080   8.374   1.812   2.010  1.5674 -1.2774  2.8278
 6639SOL    HW221081   8.433   1.684   1.957  0.6912 -1.1283  1.4633
 6640SOL     OW21082   4.845   3.828   6.303  0.0095 -0.5145  0.1436
 6640SOL    HW121083   4.903   3.900   6.328 -0.5864 -0.2752  0.8745
 6640SOL    HW221084   4.816   3.791   6.387  0.1927 -1.5151 -0.2145
 6641SOL     OW21085   3.013   0.609   2.859 -0.4459 -0.2830  0.5504
 6641SOL    HW121086   3.050   0.696   2.873  0.1331 -0.5210  0.5071
 6641SOL    HW221087   3.080   0.549   2.892  0.6351 -0.8507 -2.4035
 6642SOL     OW21088   0.327   1.290   4.297 -0.0323 -0.3917  0.3479
 6642SOL    HW121089   0.233   1.292   4.282  0.2679 -0.3595 -1.8660
 6642SOL    HW221090   0.352   1.199   4.283  0.4434 -0.1369 -0.5899
 6643SOL     OW21091   3.648   7.030   2.467  0.0347  0.4915  0.8265
 6643SOL    HW121092   3.664   7.041   2.373  0.2460  0.9929  0.9195
 6643SOL    HW221093   3.578   6.964   2.472  0.6905 -0.2602  0.3477
 6644SOL     OW21094   1.152   7.051   1.368 -0.1026  0.6034 -0.0340
 6644SOL    HW121095   1.118   7.085   1.286  0.6497  0.9199 -0.2174
 6644SOL    HW221096   1.102   7.097   1.435  0.0929  1.2156 -0.3010
 6645SOL     OW21097   4.063   4.149   5.241 -0.0130  0.0305  0.6303
 6645SOL    HW121098   4.065   4.185   5.330  1.2598  1.7390 -0.0260
 6645SOL    HW221099   3.988   4.191   5.199  0.7374  1.0101  0.2370
 6646SOL     OW21100   7.602   1.143   4.283  0.3352 -0.3219  0.8697
 6646SOL    HW121101   7.510   1.167   4.282  0.6366  0.9183  0.1997
 6646SOL    HW221102   7.620   1.113   4.193  0.7950  0.3643  0.7264
 6647SOL     OW21103   0.446   1.902   2.894  0.3330 -0.0468 -0.3523
 6647SOL    HW121104   0.436   1.896   2.799 -0.3321 -2.8500 -0.1823
 6647SOL    HW221105   0.482   1.818   2.920 -0.0480  0.4303  1.9655
 6648SOL     OW21106   0.157   6.377   6.267 -0.4289  0.3044 -0.3846
 6648SOL    HW121107   0.240   6.424   6.262  0.1354 -0.7393 -1.3076
 6648SOL    HW221108   0.148   6.334   6.181 -1.2200 -0.7390  0.1923
 6649SOL     OW21109   5.346   8.303   1.808  0.4587  0.4546  0.1844
 6649SOL    HW121110   5.282   8.366   1.776  0.3743 -0.0102 -0.5925
 6649SOL    HW221111   5.381   8.342   1.888  1.1622  1.9642 -0.8264
 6650SOL     OW21112   3.069   0.845   8.751 -0.0240 -0.1103  0.1005
 6650SOL    HW121113   3.086   0.768   8.805 -0.1243  0.6945  1.3052
 6650SOL    HW221114   3.113   0.826   8.668  0.8724 -1.0113  0.7553
 6651SOL     OW21115   1.960   5.643   0.534  0.1463 -0.1001  0.1828
 6651SOL    HW121116   2.043   5.606   0.504  0.3598  0.7675 -0.3034
 6651SOL    HW221117   1.958   5.623   0.628  1.4048  0.7973  0.4182
 6652SOL     OW21118   3.504   7.735   7.757  0.3076 -0.4004 -0.7120
 6652SOL    HW121119   3.487   7.731   7.663  0.0265  1.0720 -0.7484
 6652SOL    HW221120   3.450   7.809   7.788  0.1390 -1.0633  0.6603
 6653SOL     OW21121   6.985   1.785   6.907 -0.2858  0.7025 -0.7490
 6653SOL    HW121122   6.973   1.781   7.002  0.2323  0.6326 -0.6789
 6653SOL    HW221123   6.943   1.866   6.880 -1.0307  0.3837 -0.5573
 6654SOL     OW21124   7.766   4.516   1.978  0.1732 -0.0466  0.0940
 6654SOL    HW121125   7.717   4.520   2.060  0.3403  0.2111  0.1813
 6654SOL    HW221126   7.836   4.581   1.988  0.5875 -0.4710  0.0066
 6655SOL     OW21127   6.559   4.643   4.658  0.3294 -0.0891 -0.0318
 6655SOL    HW121128   6.578   4.582   4.730  1.0747  0.3230  0.1275
 6655SOL    HW221129   6.492   4.599   4.607  0.5219 -0.8392  0.3477
 6656SOL     OW21130   3.225   4.850   4.771 -0.1776  0.3029  0.4665
 6656SOL    HW121131   3.215   4.757   4.748 -0.7289  0.3010  0.7068
 6656SOL    HW221132   3.138   4.887   4.760 -0.0359  0.7162  0.7290
 6657SOL     OW21133   2.053   8.789   6.116  0.3513  0.0512 -0.1608
 6657SOL    HW121134   1.996   8.793   6.039  0.5415 -0.8070 -0.3606
 6657SOL    HW221135   2.071   8.696   6.127 -0.3472  0.0821  1.4403
 6658SOL     OW21136   3.389   8.456   4.477 -0.5144 -0.5145 -0.0985
 6658SOL    HW121137   3.309   8.417   4.512 -0.1255 -2.0117 -0.8106
 6658SOL    HW221138   3.458   8.391   4.496  0.8190  1.2536  1.6026
 6659SOL     OW21139   1.330   4.354   5.539 -0.1437  0.0982  0.1831
 6659SOL    HW121140   1.381   4.280   5.572 -0.0181  0.3423  0.5468
 6659SOL    HW221141   1.331   4.345   5.444  0.4560  0.0229  0.1972
 6660SOL     OW21142   8.506   6.757   0.699 -0.3050  0.1014 -0.2546
 6660SOL    HW121143   8.512   6.679   0.644 -0.5754 -1.3632  1.6802
 6660SOL    HW221144   8.596   6.772   0.728 -0.1033  1.0848 -1.3111
 6661SOL     OW21145   1.186   0.712   1.618  0.2385  0.3887  0.2199
 6661SOL    HW121146   1.143   0.798   1.624  0.5543  0.6210 -0.6623
 6661SOL    HW221147   1.163   0.680   1.530  0.1054 -0.4434  0.5519
 6662SOL     OW21148   4.255   3.495   6.974  0.4835 -0.2737 -0.0380
 6662SOL    HW121149   4.254   3.589   6.993  2.0401 -0.1616 -0.3431
 6662SOL    HW221150   4.173   3.462   7.010  0.2265  1.0870  0.6957
 6663SOL     OW21151   1.616   6.540   2.432  0.0314 -0.2003 -0.1051
 6663SOL    HW121152   1.538   6.548   2.378 -1.9560 -1.6614  2.3713
 6663SOL    HW221153   1.671   6.476   2.386 -1.5846 -1.3991 -0.4448
 6664SOL     OW21154   4.227   2.938   5.921 -0.6539  0.3807  0.1088
 6664SOL    HW121155   4.198   3.011   5.867  2.0762  0.1978 -1.7974
 6664SOL    HW221156   4.185   2.861   5.882  1.0539  0.2899 -1.7181
 6665SOL     OW21157   2.939   3.637   7.719 -0.4866  0.0604  0.4251
 6665SOL    HW121158   2.856   3.590   7.710 -0.3043 -0.2332  0.2702
 6665SOL    HW221159   3.006   3.572   7.698 -0.1840  0.1093  1.2291
 6666SOL     OW21160   0.933   1.832   8.019  0.1448 -0.5463 -0.1900
 6666SOL    HW121161   0.873   1.850   8.092  0.4766  0.1428 -0.0767
 6666SOL    HW221162   1.012   1.881   8.041  0.0976  0.0259 -1.2171
 6667SOL     OW21163   5.682   6.613   3.182  0.7876 -0.1705 -0.2230
 6667SOL    HW121164   5.650   6.581   3.266  0.9632 -0.1474 -0.1451
 6667SOL    HW221165   5.752   6.552   3.158  0.6304 -0.2699 -0.4313
 6668SOL     OW21166   6.471   4.961   7.551 -0.1051 -0.2722  0.7946
 6668SOL    HW121167   6.391   4.933   7.507 -0.1243 -0.7062  1.0983
 6668SOL    HW221168   6.541   4.917   7.502 -0.0532  0.0710  0.5569
 6669SOL     OW21169   4.572   1.845   1.088  0.2580 -0.5035  0.5576
 6669SOL    HW121170   4.506   1.826   1.022  1.4314  0.1197 -0.8384
 6669SOL    HW221171   4.531   1.819   1.171 -1.2997 -1.1589 -0.3778
 6670SOL     OW21172   6.726   3.557   6.235 -0.4538  0.2670 -0.3278
 6670SOL    HW121173   6.800   3.555   6.296 -0.1408 -0.4363 -0.7200
 6670SOL    HW221174   6.650   3.536   6.290 -0.5462  2.0345  0.2889
 6671SOL     OW21175   0.888   1.173   1.802  0.1425 -0.1933 -0.0067
 6671SOL    HW121176   0.859   1.170   1.711 -1.5356 -0.7054  0.5183
 6671SOL    HW221177   0.910   1.266   1.816 -1.6653  0.3339 -0.3483
 6672SOL     OW21178   1.295   0.022   3.693  0.3891  0.5340  0.3955
 6672SOL    HW121179   1.363  -0.040   3.721  1.3231  0.3940 -1.9462
 6672SOL    HW221180   1.217  -0.032   3.682  1.1237 -0.2496 -1.3471
 6673SOL     OW21181   7.652   8.234   3.554  0.4676 -0.4820 -0.3210
 6673SOL    HW121182   7.615   8.187   3.479 -0.5144 -0.1363 -0.0696
 6673SOL    HW221183   7.744   8.247   3.531  0.1920 -0.4110 -1.4465
 6674SOL     OW21184   0.234   5.140   0.969  0.3658  0.5847  0.2336
 6674SOL    HW121185   0.233   5.211   0.905  0.2872  0.1581 -0.2402
 6674SOL    HW221186   0.141   5.122   0.986  0.3728  1.3663  1.2273
 6675SOL     OW21187   3.167   1.817   1.433 -0.3024 -0.0564 -0.4395
 6675SOL    HW121188   3.086   1.789   1.390  0.7680 -2.6602 -0.9672
 6675SOL    HW221189   3.211   1.735   1.456  2.1118  1.2775 -0.0320
 6676SOL     OW21190   4.534   5.119   3.695 -0.0001 -0.6473  0.4799
 6676SOL    HW121191   4.527   5.175   3.617  3.4465  0.1781  0.5846
 6676SOL    HW221192   4.443   5.101   3.720 -1.2391  1.0138 -2.3135
 6677SOL     OW21193   1.749   3.008   1.537  0.2874  0.1083  1.0136
 6677SOL    HW121194   1.694   3.006   1.458 -0.2123  0.6622  1.3393
 6677SOL    HW221195   1.820   2.947   1.518 -0.5478 -0.7823  0.6493
 6678SOL     OW21196   2.221   5.062   5.388 -0.0469  0.2647  0.4312
 6678SOL    HW121197   2.166   5.101   5.321 -0.7535 -1.0638  0.2070
 6678SOL    HW221198   2.219   5.124   5.461 -2.8903 -0.2996  0.9237
 6679SOL     OW21199   2.578   5.292   1.457 -0.3086  0.0320 -0.6468
 6679SOL    HW121200   2.556   5.203   1.485  0.2558 -0.7845 -2.6626
 6679SOL    HW221201   2.641   5.280   1.386 -1.9827  1.9480 -2.5803
 6680SOL     OW21202   2.338   1.389   0.896  0.1137  0.1396 -0.4792
 6680SOL    HW121203   2.337   1.469   0.949 -0.5624  0.5877 -1.1525
 6680SOL    HW221204   2.407   1.336   0.936 -1.1503 -0.0601  1.6197
 6681SOL     OW21205   4.036   2.581   7.271 -0.1401 -0.0467  0.8417
 6681SOL    HW121206   4.005   2.646   7.209 -1.7052 -0.7633  0.8425
 6681SOL    HW221207   4.130   2.575   7.253 -0.3181  0.7363 -0.5255
 6682SOL     OW21208   4.563   2.285   6.920  0.1366  0.2972  0.5335
 6682SOL    HW121209   4.532   2.375   6.928  0.4028  0.5416 -0.8825
 6682SOL    HW221210   4.486   2.231   6.938 -0.5380  0.8590 -0.5735
 6683SOL     OW21211   6.056   6.299   8.730  0.2797 -0.9478  0.0378
 6683SOL    HW121212   5.961   6.313   8.735  0.6825  2.9618  0.3242
 6683SOL    HW221213   6.083   6.349   8.653  2.1011 -2.4142 -0.3262
 6684SOL     OW21214   4.534   5.697   8.350  0.0307 -0.0286  0.4432
 6684SOL    HW121215   4.551   5.603   8.346  1.5450  0.2056  0.7564
 6684SOL    HW221216   4.609   5.733   8.398  0.7717  1.6330 -1.7729
 6685SOL     OW21217   1.928   0.252   5.024  0.3980 -0.2280 -0.1813
 6685SOL    HW121218   1.988   0.178   5.010 -0.0649 -0.7136  0.3126
 6685SOL    HW221219   1.870   0.222   5.094 -1.4463 -0.3949 -1.7003
 6686SOL     OW21220   1.266   1.437   1.957  0.5838 -0.0660  0.0646
 6686SOL    HW121221   1.336   1.501   1.946  2.8152 -2.3358  0.4428
 6686SOL    HW221222   1.256   1.396   1.871  1.0512 -1.0461  0.4700
 6687SOL     OW21223   7.783   6.004   2.376 -0.1835 -0.0691 -0.0893
 6687SOL    HW121224   7.756   5.939   2.311  0.4669 -2.0103  1.4829
 6687SOL    HW221225   7.701   6.042   2.407 -0.5100  0.9110 -1.9765
 6688SOL     OW21226   6.159   4.406   6.471 -0.0085 -0.4613 -0.5202
 6688SOL    HW121227   6.172   4.383   6.380 -0.4389 -0.4770 -0.5825
 6688SOL    HW221228   6.168   4.324   6.519  1.3118 -0.2804 -0.4160
 6689SOL     OW21229   2.736   1.216   3.136  0.4502  0.0935 -0.3714
 6689SOL    HW121230   2.758   1.163   3.213 -2.4827  0.4801  0.8466
 6689SOL    HW221231   2.802   1.285   3.135  0.4415  0.2144  1.9664
 6690SOL     OW21232   3.210   2.230   7.258 -0.3331 -0.6871  0.5550
 6690SOL    HW121233   3.258   2.150   7.234  1.1918 -0.0258  1.2888
 6690SOL    HW221234   3.194   2.274   7.175  2.3328  0.1628  0.4025
 6691SOL     OW21235   6.444   8.775   0.270 -0.5439  0.7878  0.3437
 6691SOL    HW121236   6.494   8.855   0.256 -1.7457  1.8056  1.5603
 6691SOL    HW221237   6.476   8.741   0.354  0.2026 -0.2359 -0.3222
 6692SOL     OW21238   3.214   3.666   1.631  0.4213  0.3808 -0.4133
 6692SOL    HW121239   3.139   3.678   1.572  1.5827 -0.3491 -2.1226
 6692SOL    HW221240   3.249   3.755   1.643 -0.8338  0.7586  0.6013
 6693SOL     OW21241   0.521   4.527   4.223 -0.2537 -0.1111 -0.7634
 6693SOL    HW121242   0.508   4.613   4.184 -2.3379 -1.4501 -3.3490
 6693SOL    HW221243   0.433   4.496   4.244  0.5570 -0.9574  1.9027
 6694SOL     OW21244   3.161   1.504   7.786  0.3339  0.5808  0.1644
 6694SOL    HW121245   3.163   1.411   7.809  0.4771  0.5189 -0.0836
 6694SOL    HW221246   3.074   1.518   7.748  0.5707  0.3713 -0.4819
 6695SOL     OW21247   4.660   8.209   5.465 -0.6254  0.0438  0.0376
 6695SOL    HW121248   4.754   8.220   5.448 -0.6627  1.5822  0.7302
 6695SOL    HW221249   4.656   8.171   5.553 -0.6569  1.6718  0.7782
 6696SOL     OW21250   3.578   2.115   4.735 -0.4781 -0.0845 -0.1127
 6696SOL    HW121251   3.672   2.106   4.725 -0.3811 -0.9679  1.2868
 6696SOL    HW221252   3.567   2.185   4.799 -0.7386 -0.5538  0.3607
 6697SOL     OW21253   5.638   0.236   7.674 -0.0751 -0.5110 -0.1959
 6697SOL    HW121254   5.618   0.323   7.640  0.2378 -0.2111  0.3731
 6697SOL    HW221255   5.719   0.247   7.724 -0.3472 -0.9988  0.3732
 6698SOL     OW21256   3.977   8.165   4.594 -0.0109  0.6257  0.5644
 6698SOL    HW121257   3.942   8.109   4.663 -1.2215  0.8386  0.1481
 6698SOL    HW221258   4.035   8.226   4.639 -0.0680  0.1720  1.2600
 6699SOL     OW21259   2.307   7.963   7.905 -0.4803  0.4107 -0.3377
 6699SOL    HW121260   2.217   7.981   7.877 -0.2615  1.4220 -0.4228
 6699SOL    HW221261   2.359   7.971   7.825 -0.2311  0.4549 -0.1717
 6700SOL     OW21262   1.902   5.345   6.669  0.0399  0.4077 -0.6381
 6700SOL    HW121263   1.906   5.256   6.703 -0.8203  0.4120 -0.5000
 6700SOL    HW221264   1.992   5.365   6.644  0.2578 -0.4659 -0.5934
 6701SOL     OW21265   7.543   1.240   8.058  0.5269 -0.0982 -0.2387
 6701SOL    HW121266   7.622   1.293   8.051  0.4316  0.1434  0.4233
 6701SOL    HW221267   7.476   1.292   8.013  0.8475 -0.5361 -1.2417
 6702SOL     OW21268   1.673   7.695   7.677  0.1229 -0.0584  0.2516
 6702SOL    HW121269   1.581   7.671   7.686 -0.5480  1.5264 -1.6167
 6702SOL    HW221270   1.676   7.787   7.702  0.7796  0.4457 -1.4967
 6703SOL     OW21271   4.771   5.272   5.269  0.6501 -0.7396 -0.1403
 6703SOL    HW121272   4.830   5.347   5.277  1.2060 -1.2977  1.4003
 6703SOL    HW221273   4.705   5.286   5.337 -0.2959 -0.7569 -1.0250
 6704SOL     OW21274   7.696   5.571   5.070  0.1117  0.3938  0.6386
 6704SOL    HW121275   7.693   5.494   5.013  2.9907 -0.0754  0.9762
 6704SOL    HW221276   7.669   5.539   5.156 -0.4048  0.1842  0.3993
 6705SOL     OW21277   8.587   3.705   7.377  0.0901 -0.4602  0.0704
 6705SOL    HW121278   8.638   3.785   7.390 -0.5021 -0.0360 -0.1717
 6705SOL    HW221279   8.559   3.679   7.464  0.3406 -0.4462  0.1559
 6706SOL     OW21280   7.738   1.414   1.554  0.0400  0.1939  0.5525
 6706SOL    HW121281   7.647   1.427   1.582 -0.2669  0.5978 -0.5600
 6706SOL    HW221282   7.741   1.323   1.524  0.1049  0.0671  0.9399
 6707SOL     OW21283   1.920   2.943   1.347  0.0969  0.3371 -0.3577
 6707SOL    HW121284   1.845   2.964   1.291 -0.5521  1.7751  0.9926
 6707SOL    HW221285   1.996   2.976   1.298 -0.3297  0.5302 -0.9017
 6708SOL     OW21286   0.886   7.592   1.319 -0.1870  0.0408 -0.2885
 6708SOL    HW121287   0.860   7.517   1.372 -0.7792  2.3597  2.9903
 6708SOL    HW221288   0.842   7.667   1.359  0.5962  2.2718 -3.1773
 6709SOL     OW21289   3.040   0.816   2.166 -0.5109 -0.1380 -0.3420
 6709SOL    HW121290   3.008   0.755   2.232 -0.7650  0.8866  0.5130
 6709SOL    HW221291   3.046   0.764   2.086 -0.2297 -1.4006  0.4689
 6710SOL     OW21292   5.147   4.478   5.880 -0.3551  0.2920  0.4593
 6710SOL    HW121293   5.176   4.517   5.963  0.1663 -1.5288  1.1835
 6710SOL    HW221294   5.052   4.478   5.887 -0.4576  2.4521 -0.0954
 6711SOL     OW21295   5.445   1.866   2.293  0.4538 -0.4022  0.2319
 6711SOL    HW121296   5.391   1.944   2.279 -0.9726 -1.3703  0.2300
 6711SOL    HW221297   5.535   1.899   2.289 -0.1196  1.2744  0.4348
 6712SOL     OW21298   6.104   3.437   4.867 -0.3842 -0.3463  0.1988
 6712SOL    HW121299   6.132   3.419   4.956  0.8351  0.3592 -0.0226
 6712SOL    HW221300   6.117   3.531   4.856 -3.0610  0.1041  0.1281
 6713SOL     OW21301   0.968   1.816   1.758 -0.0195 -0.0550 -0.0063
 6713SOL    HW121302   0.944   1.865   1.836 -1.6502 -0.6877 -0.0728
 6713SOL    HW221303   1.058   1.786   1.774  0.1900  1.0470  0.9691
 6714SOL     OW21304   0.900   2.277   2.433 -0.3851 -0.1474  0.3627
 6714SOL    HW121305   0.838   2.213   2.398 -0.1193  0.2039 -0.8096
 6714SOL    HW221306   0.852   2.360   2.435  0.4400  0.4898 -2.1018
 6715SOL     OW21307   6.862   0.435   1.370 -0.3841 -0.2843  0.0247
 6715SOL    HW121308   6.789   0.457   1.426  0.2503  0.9113  0.4256
 6715SOL    HW221309   6.822   0.403   1.289 -1.3198 -0.2329  0.4582
 6716SOL     OW21310   3.046   7.819   3.817  0.0161 -0.2149  0.5520
 6716SOL    HW121311   2.994   7.896   3.791  0.0519 -0.0262  1.0256
 6716SOL    HW221312   3.128   7.830   3.770 -0.2843 -0.3996 -0.0314
 6717SOL     OW21313   3.146   1.386   3.856 -0.2079 -0.0186  0.2038
 6717SOL    HW121314   3.234   1.395   3.893  1.2833 -0.5125 -2.8443
 6717SOL    HW221315   3.141   1.295   3.826 -0.8623  0.5378 -1.5440
 6718SOL     OW21316   0.374   1.903   2.641 -0.2591  0.4441 -0.4062
 6718SOL    HW121317   0.366   1.823   2.589 -1.7319 -0.4579  1.1204
 6718SOL    HW221318   0.306   1.961   2.606 -0.3377  0.3685 -0.3789
 6719SOL     OW21319   2.779   6.976   8.755 -0.2992 -0.3628 -0.0476
 6719SOL    HW121320   2.733   6.951   8.675  0.2285 -1.2299 -0.1008
 6719SOL    HW221321   2.811   6.893   8.791  0.5233  0.1313  0.4037
 6720SOL     OW21322   2.035   5.661   7.218 -0.0588 -0.3827 -0.0359
 6720SOL    HW121323   2.086   5.712   7.156  0.6109 -0.8161  0.1381
 6720SOL    HW221324   2.095   5.592   7.248  0.2559  0.8421  2.4244
 6721SOL     OW21325   6.035   7.472   1.111  0.6167 -0.0749 -0.1044
 6721SOL    HW121326   6.019   7.474   1.017 -1.1184  0.2887  0.1591
 6721SOL    HW221327   6.047   7.564   1.135  2.3892 -0.2669 -0.1411
 6722SOL     OW21328   1.495   4.536   7.720  0.5864  0.6158 -0.5959
 6722SOL    HW121329   1.405   4.514   7.746  0.5460  1.0530 -0.3512
 6722SOL    HW221330   1.547   4.461   7.749  0.5793  1.2011  0.9996
 6723SOL     OW21331   2.618   2.790   1.189  0.1987  0.2024  0.3057
 6723SOL    HW121332   2.531   2.799   1.149  0.8598  0.4321 -1.1728
 6723SOL    HW221333   2.662   2.723   1.135  0.5380 -0.8220  1.7904
 6724SOL     OW21334   3.922   6.043   2.634 -0.0956 -0.9049  0.0132
 6724SOL    HW121335   3.844   6.038   2.578 -1.0046 -1.2996  1.2527
 6724SOL    HW221336   3.958   6.129   2.617 -1.1714 -0.4643 -0.1539
 6725SOL     OW21337   3.898   0.725   8.254 -0.0684  0.0369  0.5176
 6725SOL    HW121338   3.903   0.780   8.333 -0.5372  0.4938  0.2349
 6725SOL    HW221339   3.859   0.782   8.188  1.7252  0.1560 -0.5063
 6726SOL     OW21340   6.290   6.814   3.639  0.1279  0.0786  0.1148
 6726SOL    HW121341   6.195   6.819   3.637  0.0129 -0.9215  1.6874
 6726SOL    HW221342   6.315   6.805   3.547 -1.3809 -0.9472 -0.2333
 6727SOL     OW21343   6.449   1.607   0.700  0.0742 -0.3742 -0.1024
 6727SOL    HW121344   6.510   1.539   0.728 -0.2313 -0.6986 -0.1998
 6727SOL    HW221345   6.498   1.660   0.638  1.1857  1.1404  1.9476
 6728SOL     OW21346   6.097   2.966   7.402 -0.4082  0.4239  0.1733
 6728SOL    HW121347   6.022   2.908   7.417  0.4986 -0.7202  0.4549
 6728SOL    HW221348   6.114   2.960   7.308 -1.2207  1.4028 -0.0463
 6729SOL     OW21349   2.577   5.542   7.478 -0.1518 -0.4742 -0.0815
 6729SOL    HW121350   2.653   5.525   7.534 -0.2294  0.1082  0.2154
 6729SOL    HW221351   2.523   5.463   7.485  0.4677 -0.9282 -0.3672
 6730SOL     OW21352   1.902   7.197   5.412 -0.0234 -0.1583  0.4144
 6730SOL    HW121353   1.848   7.137   5.362 -0.6812  0.7133  0.0470
 6730SOL    HW221354   1.986   7.199   5.367 -1.1387  1.9508 -1.7775
 6731SOL     OW21355   0.588   5.457   1.518 -0.1118  0.5508 -0.3762
 6731SOL    HW121356   0.661   5.474   1.457  1.0493 -1.3321  0.3838
 6731SOL    HW221357   0.523   5.411   1.465  0.2354  0.2752 -0.5720
 6732SOL     OW21358   7.599   3.091   8.754 -0.1138  0.2069  0.0490
 6732SOL    HW121359   7.607   3.089   8.658  0.3057 -0.4829  0.0913
 6732SOL    HW221360   7.661   3.024   8.784 -1.4411 -0.7673  0.7279
 6733SOL     OW21361   7.692   2.076   8.598  0.0137  0.3672 -0.2905
 6733SOL    HW121362   7.643   2.137   8.544 -0.0596  0.4388 -0.1450
 6733SOL    HW221363   7.686   1.992   8.553  1.3520  0.7601 -1.2795
 6734SOL     OW21364   7.478   8.187   4.990  0.0085 -0.0921  0.1351
 6734SOL    HW121365   7.424   8.266   4.977 -0.3354  0.0344  2.0363
 6734SOL    HW221366   7.416   8.120   5.017  0.6356 -0.2571  1.2233
 6735SOL     OW21367   7.091   6.033   6.818  0.4716 -0.0213 -0.0366
 6735SOL    HW121368   7.101   6.099   6.750 -1.8729 -0.6440 -1.1205
 6735SOL    HW221369   7.179   6.000   6.834  1.5001  2.3580 -0.4635
 6736SOL     OW21370   7.318   3.656   7.851 -0.1627 -0.4502  0.6644
 6736SOL    HW121371   7.330   3.568   7.888 -0.4921 -0.4182  0.8510
 6736SOL    HW221372   7.333   3.715   7.925  0.9810 -0.3007  0.3332
 6737SOL     OW21373   5.262   5.327   2.094 -0.2048 -0.5470 -0.3438
 6737SOL    HW121374   5.201   5.284   2.034 -2.1649  0.1627  1.0334
 6737SOL    HW221375   5.232   5.301   2.181 -0.0030  1.6766  0.4484
 6738SOL     OW21376   2.313   3.858   1.407 -0.0685 -0.4028 -0.1217
 6738SOL    HW121377   2.280   3.869   1.318 -2.4208  2.0718  0.9099
 6738SOL    HW221378   2.242   3.815   1.455  0.6606 -0.5817  0.8411
 6739SOL     OW21379   4.823   3.057   4.973  0.6459  0.0732  0.1041
 6739SOL    HW121380   4.834   3.107   5.054  2.2829 -1.3573  0.8188
 6739SOL    HW221381   4.866   2.974   4.990 -1.5076 -1.4173 -1.2364
 6740SOL     OW21382   2.217   5.275   8.786  1.0885  0.1313 -0.1049
 6740SOL    HW121383   2.130   5.314   8.775  1.6468  1.6004  0.3857
 6740SOL    HW221384   2.201   5.186   8.816 -0.2507  0.5213  0.3811
 6741SOL     OW21385   4.264   1.376   7.094 -0.1909 -0.1932  0.1482
 6741SOL    HW121386   4.338   1.399   7.037 -1.7782  1.1166 -1.4903
 6741SOL    HW221387   4.221   1.303   7.050  0.0014 -0.8255  0.9943
 6742SOL     OW21388   8.229   3.777   8.769  0.1625  0.1656  0.1153
 6742SOL    HW121389   8.194   3.688   8.771 -0.8230  0.5545  0.8816
 6742SOL    HW221390   8.221   3.804   8.677 -1.7162  0.2770  0.2651
 6743SOL     OW21391   2.650   2.349   2.102  0.4249 -0.3658 -0.1094
 6743SOL    HW121392   2.559   2.317   2.097 -0.1322  1.2697 -3.3549
 6743SOL    HW221393   2.664   2.367   2.194 -2.6936 -0.3915  0.4979
 6744SOL     OW21394   6.749   8.185   2.977 -0.0571  0.4928 -0.1002
 6744SOL    HW121395   6.790   8.176   2.891 -0.2404  1.0455 -0.2500
 6744SOL    HW221396   6.721   8.096   3.000  0.2764  0.2926 -0.4692
 6745SOL     OW21397   6.910   3.208   5.046  0.3749  0.6044  0.3177
 6745SOL    HW121398   6.890   3.251   4.963 -0.7311  0.7405  0.6432
 6745SOL    HW221399   6.833   3.224   5.101 -1.0356 -3.4600 -0.1798
 6746SOL     OW21400   5.428   0.507   0.336 -0.1367 -0.2841 -0.4126
 6746SOL    HW121401   5.360   0.463   0.285 -0.7861 -0.3046  0.4451
 6746SOL    HW221402   5.444   0.589   0.289 -0.9672 -0.1491 -0.4725
 6747SOL     OW21403   3.255   3.188   4.394  0.5144  0.0593 -0.0469
 6747SOL    HW121404   3.281   3.109   4.442 -0.6869  0.1323  0.7777
 6747SOL    HW221405   3.279   3.260   4.452 -0.2762  0.1859  0.1367
 6748SOL     OW21406   2.558   1.221   1.675 -0.1660 -0.7074  0.5988
 6748SOL    HW121407   2.466   1.207   1.697  0.1544 -0.8934  1.8535
 6748SOL    HW221408   2.607   1.185   1.749  0.9405 -1.0520 -0.2654
 6749SOL     OW21409   7.942   6.779   8.479 -0.0051 -0.5455 -0.3377
 6749SOL    HW121410   7.853   6.785   8.512 -0.2152  0.7185 -1.0399
 6749SOL    HW221411   7.937   6.715   8.408 -0.4314 -0.2776 -0.5576
 6750SOL     OW21412   2.963   3.510   3.319  0.0892 -0.0536 -0.0519
 6750SOL    HW121413   3.024   3.452   3.273 -0.1813  0.1927 -0.7320
 6750SOL    HW221414   2.959   3.475   3.407  2.6876  0.9886  0.6072
 6751SOL     OW21415   7.414   1.376   8.314  0.3152  0.3130  0.2222
 6751SOL    HW121416   7.418   1.290   8.271  1.8334  0.8539 -0.8135
 6751SOL    HW221417   7.326   1.380   8.352  0.1990 -1.6753  0.2685
 6752SOL     OW21418   1.120   4.565   4.891  0.3001 -0.2929  0.3352
 6752SOL    HW121419   1.131   4.637   4.830 -0.9609 -2.1062 -2.2237
 6752SOL    HW221420   1.059   4.598   4.957  1.6224  1.6885  0.6589
 6753SOL     OW21421   2.478   6.997   1.365 -0.3051 -0.1242  0.1133
 6753SOL    HW121422   2.562   6.980   1.408  0.9582  2.3174 -1.1513
 6753SOL    HW221423   2.473   6.932   1.295  0.3238 -0.5689  0.4714
 6754SOL     OW21424   7.836   6.024   8.306 -0.1569 -0.7714  0.7869
 6754SOL    HW121425   7.883   6.097   8.347  3.2331 -2.4121  0.2293
 6754SOL    HW221426   7.796   6.061   8.228  0.6365  0.7151  1.0532
 6755SOL     OW21427   0.132   4.795   3.662 -0.8679 -0.2548 -0.4315
 6755SOL    HW121428   0.173   4.848   3.730 -1.6287  1.7995 -1.5164
 6755SOL    HW221429   0.193   4.722   3.649  0.9271  1.0751  0.1127
 6756SOL     OW21430   5.915   7.910   7.372  0.2916  0.3485  0.4766
 6756SOL    HW121431   5.948   7.859   7.298 -0.5253 -0.4798  0.6593
 6756SOL    HW221432   5.963   7.877   7.448 -0.1972 -0.1242  0.5865
 6757SOL     OW21433   0.963   0.367   4.509  0.0806 -0.8670  0.3912
 6757SOL    HW121434   0.929   0.396   4.424  1.9359 -4.6646 -1.9387
 6757SOL    HW221435   0.885   0.343   4.559 -1.0270  0.4071 -0.6433
 6758SOL     OW21436   0.988   3.650   2.896 -0.3439 -0.2007  0.5138
 6758SOL    HW121437   0.980   3.743   2.919 -0.6032 -0.0155 -0.2821
 6758SOL    HW221438   0.911   3.633   2.841 -0.1735 -0.8318  0.4682
 6759SOL     OW21439   8.050   4.945   5.545  0.0035 -0.5621  0.0472
 6759SOL    HW121440   8.097   4.969   5.466  0.1461  0.5220  0.4378
 6759SOL    HW221441   8.099   4.871   5.581  0.8538 -0.0687 -0.0643
 6760SOL     OW21442   1.154   6.624   0.496  0.0605  0.3055  0.1021
 6760SOL    HW121443   1.111   6.611   0.412 -0.0493  0.7860  0.0792
 6760SOL    HW221444   1.230   6.566   0.493  0.2621  0.5893 -0.4791
 6761SOL     OW21445   5.993   7.131   8.748 -0.0204 -0.2838 -0.1679
 6761SOL    HW121446   6.087   7.147   8.750  0.4106 -2.5462  0.6052
 6761SOL    HW221447   5.970   7.131   8.655  1.2124 -1.8587 -0.5209
 6762SOL     OW21448   7.255   8.220   2.724  0.2119  0.2471  0.7046
 6762SOL    HW121449   7.224   8.296   2.774 -1.8417 -0.1224  0.0870
 6762SOL    HW221450   7.243   8.145   2.782 -0.1372  0.0840  0.4226
 6763SOL     OW21451   1.676   1.863   6.675 -0.4392 -0.3540 -0.2302
 6763SOL    HW121452   1.683   1.782   6.623 -1.9281 -0.5903 -0.1076
 6763SOL    HW221453   1.599   1.908   6.639 -0.1759  0.5580  0.3219
 6764SOL     OW21454   1.376   7.053   6.735 -0.0292  0.3344 -0.1714
 6764SOL    HW121455   1.395   7.042   6.828 -0.4515 -3.6202 -0.4031
 6764SOL    HW221456   1.460   7.042   6.691 -0.3158 -1.1401 -0.3846
 6765SOL     OW21457   2.660   4.676   0.112 -0.2395 -0.3334  0.0403
 6765SOL    HW121458   2.582   4.641   0.070 -0.0653  0.3395 -0.8820
 6765SOL    HW221459   2.678   4.757   0.064  0.7769 -0.2675  0.5158
 6766SOL     OW21460   2.127   5.429   3.280  0.0349 -0.4520  0.0343
 6766SOL    HW121461   2.200   5.399   3.334 -0.5045 -0.2155  0.8970
 6766SOL    HW221462   2.050   5.418   3.335 -0.5171 -0.1749 -0.6754
 6767SOL     OW21463   6.646   4.500   8.852  0.2722  1.6468  0.0181
 6767SOL    HW121464   6.563   4.527   8.893  0.0739  3.6133 -1.5640
 6767SOL    HW221465   6.631   4.509   8.758  1.3241 -0.9817 -0.4910
 6768SOL     OW21466   5.429   6.680   1.564 -0.6398  0.0400  0.8857
 6768SOL    HW121467   5.346   6.638   1.542 -1.0131  0.5665  1.2505
 6768SOL    HW221468   5.453   6.642   1.649 -0.3665 -0.3084  0.6560
 6769SOL     OW21469   4.296   6.841   7.900  0.3525  0.2692  1.1596
 6769SOL    HW121470   4.278   6.821   7.992 -1.7309  3.4528  1.6131
 6769SOL    HW221471   4.391   6.830   7.891  0.6313  0.0475  3.7260
 6770SOL     OW21472   4.746   4.936   2.121  0.5844 -0.1305 -0.2894
 6770SOL    HW121473   4.748   4.841   2.111 -2.2709 -0.3534  0.3445
 6770SOL    HW221474   4.683   4.966   2.056  0.9261  1.2476 -0.0165
 6771SOL     OW21475   3.482   7.516   3.266 -0.0434  0.6931 -0.4391
 6771SOL    HW121476   3.457   7.601   3.302 -2.9375 -0.8058  1.4353
 6771SOL    HW221477   3.475   7.528   3.171 -1.2890  2.2847 -0.1885
 6772SOL     OW21478   2.379   5.490   8.786 -0.0373 -0.3049  1.1652
 6772SOL    HW121479   2.437   5.485   8.709 -1.3391  2.0533 -0.0796
 6772SOL    HW221480   2.334   5.405   8.787  0.2522 -0.5189 -0.5204
 6773SOL     OW21481   8.435   8.206   0.245 -0.5819  0.5508 -0.1401
 6773SOL    HW121482   8.503   8.216   0.311  0.1731 -0.5689 -0.7220
 6773SOL    HW221483   8.361   8.256   0.279  0.0912  0.7228  1.1156
 6774SOL     OW21484   2.363   8.795   3.696 -0.0693  0.4644 -0.2384
 6774SOL    HW121485   2.380   8.882   3.732  3.1157  0.3465 -1.1966
 6774SOL    HW221486   2.446   8.767   3.659 -1.2871 -2.5411 -1.0256
 6775SOL     OW21487   3.452   3.399   7.824  0.2054 -0.0322 -0.3199
 6775SOL    HW121488   3.547   3.393   7.837 -0.0942 -3.4585  1.6009
 6775SOL    HW221489   3.425   3.471   7.881  1.3725 -1.1814  1.8349
 6776SOL     OW21490   7.255   8.844   2.755 -0.5508 -0.2267  1.0041
 6776SOL    HW121491   7.242   8.762   2.708  0.5568  0.5746 -0.7610
 6776SOL    HW221492   7.265   8.910   2.687 -1.2524  1.3723  2.3832
 6777SOL     OW21493   7.145   8.227   2.457  0.1614  0.5421 -0.1676
 6777SOL    HW121494   7.171   8.245   2.548  0.6868 -0.2765 -0.1520
 6777SOL    HW221495   7.057   8.264   2.450  0.1239  0.6300  0.6704
 6778SOL     OW21496   8.454   7.454   6.734  0.2632  0.3132 -0.7064
 6778SOL    HW121497   8.379   7.487   6.784  0.0543  2.3868 -2.2549
 6778SOL    HW221498   8.486   7.380   6.785 -1.4177  0.8059  1.1966
 6779SOL     OW21499   3.082   0.026   4.154 -0.1731  0.4469  0.5249
 6779SOL    HW121500   3.074   0.006   4.061 -0.3757  0.5496  0.5202
 6779SOL    HW221501   3.079  -0.059   4.197  1.0473  0.3065  0.3662
 6780SOL     OW21502   7.533   3.498   4.981  0.5220 -0.8280 -0.0147
 6780SOL    HW121503   7.447   3.529   4.954  0.4387  0.4042  1.5166
 6780SOL    HW221504   7.521   3.404   4.998 -0.5762 -0.6369  0.3620
 6781SOL     OW21505   7.122   2.773   7.853  0.4421 -0.6465  0.6270
 6781SOL    HW121506   7.167   2.730   7.926 -1.1812 -0.4357  1.7962
 6781SOL    HW221507   7.133   2.713   7.779  0.1184 -2.0226  1.6497
 6782SOL     OW21508   8.639   0.308   2.957  0.0364  0.0252 -0.0867
 6782SOL    HW121509   8.730   0.307   2.988 -0.6488  0.2888  2.0583
 6782SOL    HW221510   8.609   0.218   2.969 -0.3485  0.2123  0.3654
 6783SOL     OW21511   8.581   5.869   8.185  0.2037 -1.1314  0.3383
 6783SOL    HW121512   8.656   5.877   8.243  1.2640 -0.0358 -1.1094
 6783SOL    HW221513   8.533   5.951   8.197  2.0365  0.5225 -2.3504
 6784SOL     OW21514   8.081   5.067   8.626  0.4652 -0.2042  0.5629
 6784SOL    HW121515   8.174   5.052   8.643  0.0599 -1.8321  1.4826
 6784SOL    HW221516   8.061   5.013   8.550  0.5514  1.2593 -0.5584
 6785SOL     OW21517   8.348   5.483   7.941 -0.1239 -0.1682 -0.3161
 6785SOL    HW121518   8.424   5.461   7.887  0.2206 -1.8577  0.7775
 6785SOL    HW221519   8.377   5.559   7.992  0.4770 -0.1895 -0.6038
 6786SOL     OW21520   1.718   2.527   1.081  0.1157  0.1250 -0.3123
 6786SOL    HW121521   1.742   2.449   1.031  0.8501 -0.6702  1.2229
 6786SOL    HW221522   1.691   2.494   1.167 -2.8783  1.2964 -0.6583
 6787SOL     OW21523   1.007   7.435   2.275  0.2232  0.9255  0.0119
 6787SOL    HW121524   0.918   7.428   2.241 -0.2563 -1.9691  1.5466
 6787SOL    HW221525   1.063   7.407   2.203 -0.3134  0.2243 -0.1392
 6788SOL     OW21526   5.717   7.834   8.549 -0.6562  0.0338 -0.3072
 6788SOL    HW121527   5.795   7.779   8.544 -0.6899  0.0090 -0.5986
 6788SOL    HW221528   5.726   7.895   8.476 -0.8291  0.1365 -0.2451
 6789SOL     OW21529   4.656   0.761   2.488  0.1295 -0.1253 -0.3871
 6789SOL    HW121530   4.617   0.809   2.415  2.0422 -1.9471 -2.7953
 6789SOL    HW221531   4.711   0.825   2.533 -1.3287  1.1051 -0.2924
 6790SOL     OW21532   0.126   3.993   6.308 -0.2596  0.2986 -0.4064
 6790SOL    HW121533   0.151   3.940   6.232  0.1973  2.2940 -1.7335
 6790SOL    HW221534   0.177   4.074   6.298  1.3183 -0.0953  3.1084
 6791SOL     OW21535   8.611   4.744   4.785 -0.7239 -0.3825  0.5459
 6791SOL    HW121536   8.537   4.726   4.728 -0.7639 -2.9937  1.2820
 6791SOL    HW221537   8.683   4.693   4.748  0.0558  0.2279  1.1837
 6792SOL     OW21538   4.879   0.991   0.697  0.2187  0.6240  0.3859
 6792SOL    HW121539   4.871   0.939   0.617  0.0047  2.0840 -0.5940
 6792SOL    HW221540   4.971   1.016   0.699  0.3999 -0.0645  1.0479
 6793SOL     OW21541   0.738   0.448   8.597 -0.0028  0.1485 -0.1627
 6793SOL    HW121542   0.763   0.409   8.681  0.5706  1.4133  0.2811
 6793SOL    HW221543   0.684   0.523   8.621  0.7354  0.9343 -0.8736
 6794SOL     OW21544   6.893   3.835   5.022  0.3263  0.0191 -0.3185
 6794SOL    HW121545   6.958   3.885   4.973 -0.4156 -0.7668 -2.1932
 6794SOL    HW221546   6.930   3.747   5.029  0.8589  0.3487  1.4572
 6795SOL     OW21547   5.206   4.854   5.348  0.1383  0.3284  0.0956
 6795SOL    HW121548   5.299   4.874   5.339  0.3221  0.4322  1.9428
 6795SOL    HW221549   5.201   4.759   5.342  0.5472  0.2198  1.1918
 6796SOL     OW21550   3.336   2.851   7.967  0.5928  0.2956  0.2466
 6796SOL    HW121551   3.414   2.870   8.020  1.8976  0.4314 -1.5920
 6796SOL    HW221552   3.296   2.936   7.952  0.6611  0.3489  0.3634
 6797SOL     OW21553   1.053   5.079   3.548  0.0690  0.5156 -0.4846
 6797SOL    HW121554   0.969   5.063   3.590  0.8967 -0.0976  1.0104
 6797SOL    HW221555   1.058   5.014   3.478 -1.6062  1.9663 -2.0729
 6798SOL     OW21556   3.993   1.329   3.713 -0.1604  0.5640  0.5277
 6798SOL    HW121557   4.080   1.362   3.736  0.2348  0.4447 -0.7041
 6798SOL    HW221558   3.987   1.243   3.755  0.9836 -0.1455 -0.7002
 6799SOL     OW21559   7.570   4.888   8.594 -0.3788 -0.1586  0.0738
 6799SOL    HW121560   7.610   4.814   8.638 -0.2361 -1.2400 -1.7701
 6799SOL    HW221561   7.568   4.957   8.660 -0.4176 -1.7485  1.8140
 6800SOL     OW21562   7.005   3.551   3.419 -0.4097  0.3006  0.7066
 6800SOL    HW121563   6.994   3.607   3.342 -0.7659  0.0859  0.5984
 6800SOL    HW221564   6.933   3.489   3.414  1.2807 -1.6838 -0.4521
 6801SOL     OW21565   3.201   1.367   1.692  0.2337  0.3215 -0.5395
 6801SOL    HW121566   3.133   1.300   1.695 -0.9094  1.4842  0.6954
 6801SOL    HW221567   3.275   1.328   1.740 -0.7251  0.2359  0.9380
 6802SOL     OW21568   7.969   5.959   4.408 -0.0138  0.3261 -0.1189
 6802SOL    HW121569   7.903   5.936   4.473 -0.3444  1.4902 -0.0098
 6802SOL    HW221570   8.050   5.968   4.458  0.2714 -1.1812 -0.2643
 6803SOL     OW21571   0.991   7.026   7.571  0.0328  0.1980 -0.8405
 6803SOL    HW121572   1.005   7.115   7.604  0.8722 -0.1406 -0.2511
 6803SOL    HW221573   1.069   6.978   7.598  1.4872  0.2127 -4.4811
 6804SOL     OW21574   2.063   0.264   1.506 -0.5682  0.4629  0.4325
 6804SOL    HW121575   2.032   0.184   1.547 -3.4323  0.8407 -0.7644
 6804SOL    HW221576   2.062   0.329   1.576 -2.7923  0.4909  0.4246
 6805SOL     OW21577   2.869   7.102   3.113 -0.4906  0.3654  0.0967
 6805SOL    HW121578   2.847   7.137   3.027 -1.4317  0.4818  0.3726
 6805SOL    HW221579   2.945   7.046   3.098  0.8551  2.2080 -0.4208
 6806SOL     OW21580   1.527   2.636   0.330 -0.1020  0.0279  0.2480
 6806SOL    HW121581   1.532   2.666   0.240  0.3905  1.2036  0.6448
 6806SOL    HW221582   1.617   2.616   0.355 -0.3585 -1.3791  0.1529
 6807SOL     OW21583   0.640   4.611   0.637 -0.2398 -0.4572  0.2470
 6807SOL    HW121584   0.577   4.682   0.622  0.0552 -0.2430  0.0147
 6807SOL    HW221585   0.724   4.656   0.648 -0.2342 -0.6864  1.3050
 6808SOL     OW21586   6.995   0.230   6.419 -0.1949  0.1917 -0.8458
 6808SOL    HW121587   6.975   0.282   6.497 -0.1855  1.5637 -1.7344
 6808SOL    HW221588   7.076   0.183   6.442 -0.7422 -0.2300  0.3243
 6809SOL     OW21589   8.063   8.339   5.069  0.2030 -0.3383  0.8127
 6809SOL    HW121590   7.999   8.408   5.049  0.5720 -0.0968  0.4553
 6809SOL    HW221591   8.140   8.387   5.102 -0.2791 -0.6981  2.5955
 6810SOL     OW21592   0.130   8.222   5.074 -0.9104  0.0207  0.6501
 6810SOL    HW121593   0.056   8.216   5.135 -0.4304 -1.1222  1.1494
 6810SOL    HW221594   0.186   8.290   5.110 -1.8855  1.1621  0.0643
 6811SOL     OW21595   6.795   0.960   1.943 -0.1903 -0.0116  0.1641
 6811SOL    HW121596   6.846   0.952   1.863 -0.0730 -0.7124  0.2965
 6811SOL    HW221597   6.764   1.050   1.944  0.0848  0.0923 -0.4998
 6812SOL     OW21598   8.080   6.667   1.635  0.6066 -0.0460 -0.5921
 6812SOL    HW121599   8.018   6.627   1.574  1.2208 -0.6138 -0.8627
 6812SOL    HW221600   8.042   6.654   1.721  0.5501 -0.7627 -0.7221
 6813SOL     OW21601   5.678   6.796   1.453 -0.6181  0.0704  0.2279
 6813SOL    HW121602   5.751   6.771   1.510  0.3241 -2.5293 -1.9413
 6813SOL    HW221603   5.601   6.755   1.493 -0.2193 -0.4933  0.4296
 6814SOL     OW21604   4.609   7.450   4.193  0.3238  0.5988  0.4232
 6814SOL    HW121605   4.680   7.514   4.197  1.3891 -0.2908 -2.1049
 6814SOL    HW221606   4.652   7.366   4.209  0.0252 -0.0083 -1.6637
 6815SOL     OW21607   2.283   0.119   6.171 -0.0968  0.4844 -0.0649
 6815SOL    HW121608   2.199   0.072   6.170  0.1682  0.0073 -0.6382
 6815SOL    HW221609   2.331   0.080   6.244 -0.1484  0.3480 -0.1028
 6816SOL     OW21610   4.686   3.582   0.176  0.3426  0.2063 -0.1995
 6816SOL    HW121611   4.614   3.639   0.204 -0.3552 -0.8899  0.3068
 6816SOL    HW221612   4.765   3.633   0.192 -0.3320  1.6577 -1.3011
 6817SOL     OW21613   7.726   2.281   8.776  0.2044 -0.4858  0.4687
 6817SOL    HW121614   7.701   2.359   8.727 -2.1210 -0.3439  1.7199
 6817SOL    HW221615   7.737   2.213   8.709  0.8214  0.5414 -0.5088
 6818SOL     OW21616   6.370   7.528   0.026 -0.1127 -0.4851 -0.3206
 6818SOL    HW121617   6.454   7.486   0.009  0.6803  0.6363  0.6056
 6818SOL    HW221618   6.371   7.607  -0.028  0.0233  0.2073  0.6606
 6819SOL     OW21619   7.688   7.400   4.521 -0.5104 -0.0714  0.5855
 6819SOL    HW121620   7.773   7.357   4.514 -0.0014  0.9081  0.7532
 6819SOL    HW221621   7.704   7.492   4.500 -1.6569 -0.0040 -0.1437
 6820SOL     OW21622   3.209   4.604   4.609 -0.0222 -0.6879  0.3995
 6820SOL    HW121623   3.141   4.541   4.586  0.9385 -1.6479  0.0917
 6820SOL    HW221624   3.254   4.565   4.684 -0.7693  0.6721  1.6153
 6821SOL     OW21625   4.035   8.629   5.851 -0.2039  0.3886  0.0841
 6821SOL    HW121626   4.056   8.546   5.807 -3.2949 -0.9263  0.7895
 6821SOL    HW221627   4.045   8.610   5.944 -1.8321  0.4379  0.3038
 6822SOL     OW21628   4.502   4.250   5.552 -0.2464  0.2443 -0.2431
 6822SOL    HW121629   4.407   4.239   5.551 -0.4017  1.3784 -1.7520
 6822SOL    HW221630   4.517   4.335   5.511  1.3915  0.4534  0.6920
 6823SOL     OW21631   1.515   3.767   4.541 -0.2435  0.2641  0.0142
 6823SOL    HW121632   1.478   3.694   4.491 -0.3835 -0.0996  0.6390
 6823SOL    HW221633   1.508   3.739   4.632 -0.8658  1.3219  0.2998
 6824SOL     OW21634   1.082   0.555   8.306 -0.5035  0.7396  0.1326
 6824SOL    HW121635   1.061   0.578   8.216  0.5614  0.3074 -0.2419
 6824SOL    HW221636   1.098   0.639   8.350  0.1373  0.9048 -0.3934
 6825SOL     OW21637   2.655   3.966   0.270  0.0245  0.1478  0.3147
 6825SOL    HW121638   2.597   4.026   0.223  0.4559  0.1470 -0.2407
 6825SOL    HW221639   2.728   4.021   0.298  0.5469 -0.1567 -0.4214
 6826SOL     OW21640   5.659   6.491   3.746 -0.2925  0.6246  0.6026
 6826SOL    HW121641   5.670   6.440   3.826 -0.5601  0.2529  0.4098
 6826SOL    HW221642   5.648   6.581   3.775  1.2617  0.7420  0.9021
 6827SOL     OW21643   7.435   8.528   4.222  0.1035  0.0664 -0.4386
 6827SOL    HW121644   7.494   8.528   4.147 -1.6012 -0.0030 -1.8673
 6827SOL    HW221645   7.363   8.471   4.195 -0.6695  0.2269  1.1805
 6828SOL     OW21646   3.422   6.180   1.390  0.1641 -0.0179  0.5257
 6828SOL    HW121647   3.426   6.236   1.467 -0.8673  1.2868 -0.3257
 6828SOL    HW221648   3.434   6.091   1.424 -0.8775  0.4666  2.2725
 6829SOL     OW21649   5.533   1.210   4.835 -0.1879 -0.2749  0.2344
 6829SOL    HW121650   5.477   1.134   4.816  0.4027 -0.4854 -0.7128
 6829SOL    HW221651   5.553   1.247   4.749 -0.3111  0.8509  0.6774
 6830SOL     OW21652   7.944   4.248   1.658 -0.9317  0.2664 -0.1013
 6830SOL    HW121653   7.913   4.272   1.745 -1.2362  0.5056 -0.2729
 6830SOL    HW221654   7.871   4.200   1.618 -0.7285  0.0032 -0.1616
 6831SOL     OW21655   0.449   3.225   0.776 -0.0226 -0.4107  0.2977
 6831SOL    HW121656   0.483   3.189   0.858  1.6686 -0.7725 -0.5156
 6831SOL    HW221657   0.515   3.290   0.749 -1.2664  0.7529 -0.0625
 6832SOL     OW21658   5.688   1.979   1.080 -0.0906 -0.0159  0.5357
 6832SOL    HW121659   5.599   1.947   1.070 -0.8088  1.4958  1.8120
 6832SOL    HW221660   5.679   2.073   1.091  1.5666  0.0271  1.8698
 6833SOL     OW21661   6.504   0.807   1.199  0.6183 -0.5198 -0.2134
 6833SOL    HW121662   6.417   0.847   1.194 -0.2567 -2.2683  0.1762
 6833SOL    HW221663   6.519   0.797   1.293  1.2330 -0.2519 -0.2830
 6834SOL     OW21664   7.567   6.864   0.578  0.0894  0.6103 -0.7858
 6834SOL    HW121665   7.471   6.867   0.575  0.0636  2.0087  0.6358
 6834SOL    HW221666   7.591   6.826   0.493 -1.7289 -0.6209 -0.8235
 6835SOL     OW21667   3.408   1.504   5.210  0.5192  0.0763  0.1247
 6835SOL    HW121668   3.359   1.422   5.211 -0.0896  0.3978 -1.3879
 6835SOL    HW221669   3.367   1.556   5.142  0.8644  1.6795  1.0863
 6836SOL     OW21670   0.200   4.651   0.822 -0.1282 -0.9738 -0.1824
 6836SOL    HW121671   0.165   4.566   0.849  0.0430 -0.8358  0.5005
 6836SOL    HW221672   0.293   4.646   0.844  0.0860 -0.9697 -1.0618
 6837SOL     OW21673   2.100   3.647   7.446 -0.6004 -0.2133  0.4855
 6837SOL    HW121674   2.107   3.666   7.540 -1.0321  1.0291  0.2839
 6837SOL    HW221675   2.007   3.627   7.433 -0.7179  0.5470  0.1606
 6838SOL     OW21676   3.372   0.125   2.414 -0.3098 -0.0754 -0.0273
 6838SOL    HW121677   3.283   0.154   2.432  0.2412  0.7571  1.5186
 6838SOL    HW221678   3.361   0.035   2.383 -1.7372  0.2970 -0.6954
 6839SOL     OW21679   0.611   6.286   2.640  0.2167  0.1099 -0.2189
 6839SOL    HW121680   0.704   6.280   2.618  0.8730  0.5278  2.1765
 6839SOL    HW221681   0.568   6.302   2.556  2.3936  0.8366 -1.2721
 6840SOL     OW21682   2.260   2.255   2.531 -0.1739 -0.0886 -0.0759
 6840SOL    HW121683   2.324   2.263   2.602  1.2855 -0.9370 -1.2217
 6840SOL    HW221684   2.289   2.178   2.482 -3.4206 -1.9178  0.6180
 6841SOL     OW21685   6.516   4.144   5.402  0.3861 -0.3478  0.2180
 6841SOL    HW121686   6.590   4.095   5.437  0.5383 -1.1226 -1.1309
 6841SOL    HW221687   6.457   4.155   5.477  2.3111  1.2574  1.6165
 6842SOL     OW21688   1.534   7.307   8.753 -0.3655 -0.0137 -0.1502
 6842SOL    HW121689   1.567   7.240   8.693  1.2767  0.1176  0.5552
 6842SOL    HW221690   1.612   7.354   8.782 -1.4268  1.9649 -0.3000
 6843SOL     OW21691   8.518   7.258   3.883 -0.3545 -0.5522  0.1173
 6843SOL    HW121692   8.480   7.195   3.944 -0.3970 -1.4184 -0.7686
 6843SOL    HW221693   8.524   7.339   3.932 -0.6810 -1.1465  1.1657
 6844SOL     OW21694   4.104   8.437   6.356 -0.2375 -0.6817  0.1238
 6844SOL    HW121695   4.052   8.487   6.418  0.6412  0.2013  0.1745
 6844SOL    HW221696   4.192   8.438   6.393  0.3572  0.0622 -1.2392
 6845SOL     OW21697   6.603   6.713   5.974 -0.7023  0.1531 -0.1967
 6845SOL    HW121698   6.617   6.795   6.022 -2.4699  0.8802 -0.7975
 6845SOL    HW221699   6.578   6.650   6.041  0.0357  0.2739  0.2001
 6846SOL     OW21700   0.395   2.859   5.886  0.6859 -0.1356  0.2240
 6846SOL    HW121701   0.441   2.850   5.970  0.9041  1.7979  0.3620
 6846SOL    HW221702   0.451   2.815   5.823  0.8716 -1.0096  0.9769
 6847SOL     OW21703   8.079   5.083   7.965  0.2359  0.1112  0.5345
 6847SOL    HW121704   7.996   5.066   8.009  0.4820 -0.0463  0.9416
 6847SOL    HW221705   8.106   4.998   7.931 -0.0448  0.2657 -0.0938
 6848SOL     OW21706   6.960   7.446   1.299 -0.8163  0.4355  0.7604
 6848SOL    HW121707   6.929   7.438   1.208  0.8447 -0.0871  0.1996
 6848SOL    HW221708   6.946   7.360   1.337 -0.9655  0.4900  0.8334
 6849SOL     OW21709   1.407   1.073   7.436  0.0992  0.2999 -0.1618
 6849SOL    HW121710   1.458   1.046   7.512 -1.3959  0.6773  1.0418
 6849SOL    HW221711   1.398   1.168   7.446  1.3349  0.6117 -1.7751
 6850SOL     OW21712   1.627   6.043   4.277 -0.3276  0.4000 -0.1177
 6850SOL    HW121713   1.652   5.961   4.319  0.3114  1.2796  1.3174
 6850SOL    HW221714   1.645   6.030   4.184  1.9688 -0.3286  0.3598
 6851SOL     OW21715   8.346   2.703   6.910  0.2377  1.0980  0.0497
 6851SOL    HW121716   8.396   2.748   6.842  1.6690  1.4275  1.2691
 6851SOL    HW221717   8.334   2.768   6.979 -0.1105  0.4214  0.6428
 6852SOL     OW21718   5.189   7.002   3.294  0.5949  0.2882  0.1908
 6852SOL    HW121719   5.129   6.932   3.273  0.2420  0.5395  0.3523
 6852SOL    HW221720   5.181   7.064   3.221  0.7596  0.2568  0.1447
 6853SOL     OW21721   1.338   5.332   5.222 -0.2463 -0.1131 -0.2734
 6853SOL    HW121722   1.305   5.254   5.266  1.2517 -0.1732  0.8287
 6853SOL    HW221723   1.433   5.323   5.226 -0.0575  1.3498 -0.9072
 6854SOL     OW21724   4.640   3.078   2.063  0.7177 -0.4583 -0.2115
 6854SOL    HW121725   4.655   3.090   2.157 -0.7588  0.1313 -0.0159
 6854SOL    HW221726   4.725   3.094   2.023  1.2761 -0.2672  0.9951
 6855SOL     OW21727   6.569   2.158   5.994 -0.2105 -0.0505 -0.1784
 6855SOL    HW121728   6.484   2.190   6.022 -0.9911 -2.2557  0.1717
 6855SOL    HW221729   6.631   2.196   6.056 -0.9642  1.2185 -0.1701
 6856SOL     OW21730   5.838   7.956   5.982 -0.2361  0.0187 -0.0315
 6856SOL    HW121731   5.910   7.983   5.925 -0.5269 -1.9571 -1.4221
 6856SOL    HW221732   5.855   8.002   6.065  2.1341  0.2642 -0.5729
 6857SOL     OW21733   5.796   2.861   7.233 -0.3371 -0.1578 -0.1489
 6857SOL    HW121734   5.840   2.943   7.211  0.0188  0.0809  1.3619
 6857SOL    HW221735   5.840   2.831   7.313 -1.4146 -1.0799  0.1158
 6858SOL     OW21736   7.752   7.130   8.596 -0.3041 -0.5583  0.2967
 6858SOL    HW121737   7.805   7.194   8.644 -0.9740  1.8664 -2.0170
 6858SOL    HW221738   7.661   7.152   8.618 -0.5832  0.0265 -1.3029
 6859SOL     OW21739   3.889   5.172   4.984 -0.6632  0.4611  0.3414
 6859SOL    HW121740   3.823   5.209   4.926 -0.3319 -0.0916 -0.4006
 6859SOL    HW221741   3.931   5.248   5.024 -1.0636  0.8350  0.0543
 6860SOL     OW21742   1.017   3.740   1.201 -0.2000 -0.3662  0.2192
 6860SOL    HW121743   1.013   3.811   1.136 -0.4999 -0.0859  0.5382
 6860SOL    HW221744   0.988   3.781   1.283  0.0420 -0.7499  0.5024
 6861SOL     OW21745   0.869   7.880   6.743 -0.0218  0.1925 -0.1706
 6861SOL    HW121746   0.919   7.888   6.662 -1.0005  0.9946 -0.7125
 6861SOL    HW221747   0.816   7.959   6.747  0.2686  0.3355  1.4394
 6862SOL     OW21748   4.702   2.203   4.867 -0.0169  0.2914 -0.1418
 6862SOL    HW121749   4.741   2.285   4.835  0.5517  1.0711  2.3278
 6862SOL    HW221750   4.613   2.226   4.891  0.0293  0.1006  0.2180
 6863SOL     OW21751   7.553   1.707   5.595  0.5833  0.1236 -0.2685
 6863SOL    HW121752   7.633   1.655   5.604 -0.0129 -0.7411  0.0664
 6863SOL    HW221753   7.498   1.680   5.668 -0.4713 -0.0993 -1.1245
 6864SOL     OW21754   5.314   6.966   7.389 -0.1314 -0.1410 -0.7897
 6864SOL    HW121755   5.378   6.896   7.401  0.5361  0.5540 -0.1593
 6864SOL    HW221756   5.329   7.026   7.463 -2.0001 -0.3227 -0.1931
 6865SOL     OW21757   7.973   8.326   2.496 -0.5337 -0.1405  0.1902
 6865SOL    HW121758   8.005   8.368   2.576 -1.9874 -2.1292  1.8936
 6865SOL    HW221759   8.052   8.311   2.444  0.2553  2.7481  0.3863
 6866SOL     OW21760   6.241   5.037   8.246  0.4318  0.3099  0.0924
 6866SOL    HW121761   6.256   5.020   8.339 -0.7252 -0.8451  0.1002
 6866SOL    HW221762   6.325   5.019   8.205  1.1267  1.4135  0.9617
 6867SOL     OW21763   2.771   5.463   7.675  0.2790 -0.0054 -0.0568
 6867SOL    HW121764   2.730   5.474   7.761  0.3180  0.1245 -0.0543
 6867SOL    HW221765   2.811   5.376   7.678  1.7567  0.6558  0.6850
 6868SOL     OW21766   1.457   2.627   3.552 -0.0629 -0.1904  0.1978
 6868SOL    HW121767   1.467   2.532   3.542 -1.7873 -0.3554 -0.2230
 6868SOL    HW221768   1.376   2.638   3.602 -1.2055  1.0713 -1.7649
 6869SOL     OW21769   2.288   1.912   6.066 -0.1913 -0.1499 -0.4170
 6869SOL    HW121770   2.285   1.823   6.102 -0.9196  1.0258  2.7157
 6869SOL    HW221771   2.381   1.934   6.063 -0.0427 -0.7795 -0.6360
 6870SOL     OW21772   1.375   6.230   2.686 -0.1056 -0.0138  0.3015
 6870SOL    HW121773   1.454   6.184   2.656  0.4531  0.1658  1.4474
 6870SOL    HW221774   1.310   6.212   2.618  1.0796  0.3102 -0.9620
 6871SOL     OW21775   2.996   3.227   1.367  0.4117  0.0015 -0.2406
 6871SOL    HW121776   2.900   3.234   1.363  0.2147 -1.0921  1.5090
 6871SOL    HW221777   3.017   3.155   1.308  0.4147  1.5470 -2.2338
 6872SOL     OW21778   0.467   3.914   1.061  0.0795 -0.1643  0.6558
 6872SOL    HW121779   0.425   3.987   1.016  2.3688  1.0906  0.3773
 6872SOL    HW221780   0.399   3.879   1.120 -1.4014  1.4788  0.0069
 6873SOL     OW21781   3.643   2.657   6.940  0.1136 -0.5701 -0.1045
 6873SOL    HW121782   3.595   2.654   6.857 -1.2144 -2.0537  0.6480
 6873SOL    HW221783   3.599   2.592   6.995  2.0110 -0.8388  1.2018
 6874SOL     OW21784   2.317   6.207   4.005 -0.3970  0.2327  0.8919
 6874SOL    HW121785   2.379   6.145   3.970 -1.4648 -0.4765  0.2010
 6874SOL    HW221786   2.240   6.155   4.029 -1.8865  1.3849 -1.0201
 6875SOL     OW21787   1.168   2.716   5.736  0.2431 -0.2927  0.3029
 6875SOL    HW121788   1.102   2.721   5.668  1.1306 -1.9697 -0.7416
 6875SOL    HW221789   1.231   2.651   5.704  0.2817 -1.7637  3.0629
 6876SOL     OW21790   4.854   4.934   5.264  0.3070 -0.2447  0.2168
 6876SOL    HW121791   4.876   5.027   5.261  0.4477 -0.2962 -0.6186
 6876SOL    HW221792   4.877   4.901   5.177 -3.3501 -0.2343 -0.9308
 6877SOL     OW21793   4.718   0.986   7.076  0.3016  0.5751  0.1500
 6877SOL    HW121794   4.805   0.983   7.114  0.3819 -0.5644 -0.0910
 6877SOL    HW221795   4.717   0.916   7.011 -0.9973  0.1393  0.6018
 6878SOL     OW21796   2.925   6.789   8.420 -0.1734 -0.1081 -0.0114
 6878SOL    HW121797   3.008   6.837   8.428 -0.3005  0.0050  0.7552
 6878SOL    HW221798   2.867   6.849   8.374  0.8139 -1.0493 -2.6415
 6879SOL     OW21799   0.631   6.991   8.455  0.0782  0.0049  0.4874
 6879SOL    HW121800   0.668   6.989   8.543  1.1192  2.0823  0.1413
 6879SOL    HW221801   0.681   6.924   8.407 -0.4154 -1.0541  1.3937
 6880SOL     OW21802   7.115   3.749   2.010  0.7370  0.0720 -0.3207
 6880SOL    HW121803   7.112   3.795   1.926  0.7705  1.0061  0.1795
 6880SOL    HW221804   7.024   3.740   2.037  0.5042 -2.4765 -1.6144
 6881SOL     OW21805   4.035   6.570   2.086 -0.0563 -0.2593 -0.0349
 6881SOL    HW121806   4.111   6.536   2.133 -0.3047 -1.4542 -0.4531
 6881SOL    HW221807   3.968   6.502   2.096 -0.8544  0.4655 -0.2474
 6882SOL     OW21808   7.821   6.800   2.173 -0.1488 -0.0355 -0.3233
 6882SOL    HW121809   7.809   6.827   2.264  1.4706  1.8581 -0.5902
 6882SOL    HW221810   7.739   6.823   2.130 -1.1023 -1.3609  0.7118
 6883SOL     OW21811   2.323   0.812   5.689 -0.0818 -0.0163  0.1593
 6883SOL    HW121812   2.315   0.887   5.630 -0.1033  0.7476  1.1129
 6883SOL    HW221813   2.301   0.846   5.775  1.7206 -0.6808  0.9336
 6884SOL     OW21814   6.918   0.686   1.587 -0.4364  0.5300  0.2861
 6884SOL    HW121815   6.831   0.649   1.570  0.1647 -0.3210 -1.1097
 6884SOL    HW221816   6.942   0.654   1.674 -0.8691 -0.5295  0.0252
 6885SOL     OW21817   8.115   5.871   8.821  0.3299 -0.0362  0.2439
 6885SOL    HW121818   8.134   5.913   8.905  2.4912 -0.7393  0.1835
 6885SOL    HW221819   8.022   5.853   8.823 -0.0012  1.5626  1.7342
 6886SOL     OW21820   4.172   5.111   0.470  0.0364  0.4448  0.7152
 6886SOL    HW121821   4.186   5.135   0.379  1.6233  0.8103  1.0132
 6886SOL    HW221822   4.079   5.088   0.476 -0.1131  0.5315 -0.9478
 6887SOL     OW21823   6.337   7.320   2.509 -0.2187 -0.2409  0.2513
 6887SOL    HW121824   6.339   7.413   2.533 -0.4682  0.2086 -1.3645
 6887SOL    HW221825   6.244   7.297   2.509 -0.0689 -1.4515  3.9029
 6888SOL     OW21826   5.259   3.045   8.493 -0.3114  0.1049 -0.0430
 6888SOL    HW121827   5.333   3.066   8.551 -0.7179  0.9197  0.1935
 6888SOL    HW221828   5.244   2.951   8.507  0.0583  0.1360  0.6353
 6889SOL     OW21829   4.232   2.761   5.089  0.3715 -0.5335 -0.4301
 6889SOL    HW121830   4.144   2.800   5.081  0.9937  1.2851  0.9637
 6889SOL    HW221831   4.291   2.836   5.090  1.7563 -1.5858  1.1981
 6890SOL     OW21832   3.575   7.204   1.907 -0.2649 -0.0443  0.4853
 6890SOL    HW121833   3.523   7.205   1.988 -0.4701 -1.6103  0.4050
 6890SOL    HW221834   3.663   7.230   1.935 -0.4690 -0.0150  1.1113
 6891SOL     OW21835   0.289   1.036   5.145 -0.2729  0.0815 -0.2070
 6891SOL    HW121836   0.235   1.108   5.178 -1.7832 -1.3348  0.6197
 6891SOL    HW221837   0.361   1.029   5.208 -0.3016  0.6503 -0.1067
 6892SOL     OW21838   6.422   5.788   2.327  0.2860  1.1352  0.4967
 6892SOL    HW121839   6.473   5.810   2.405 -0.5560  1.6993  0.8942
 6892SOL    HW221840   6.332   5.810   2.349  0.0248  1.2708 -0.6174
 6893SOL     OW21841   2.288   3.654   0.350  0.0748  0.1777 -0.4602
 6893SOL    HW121842   2.224   3.649   0.421 -0.3013 -1.0754 -0.8564
 6893SOL    HW221843   2.259   3.727   0.297 -1.8027 -1.1054 -1.3120
 6894SOL     OW21844   2.888   2.142   8.588  0.2963  0.0098 -0.4782
 6894SOL    HW121845   2.799   2.110   8.599  0.3651  0.1579  0.6047
 6894SOL    HW221846   2.895   2.161   8.494 -0.2052 -1.7116 -0.8998
 6895SOL     OW21847   1.085   3.708   0.789  0.2866 -0.1834 -0.3232
 6895SOL    HW121848   1.085   3.633   0.848  0.4944 -0.8769 -1.1816
 6895SOL    HW221849   1.173   3.746   0.797 -0.5819  1.6370  2.1074
 6896SOL     OW21850   7.307   4.482   0.516 -0.4087  0.0339  0.1414
 6896SOL    HW121851   7.351   4.417   0.460 -3.2228 -0.7142 -1.3915
 6896SOL    HW221852   7.259   4.537   0.454  0.7260  2.7456  1.5321
 6897SOL     OW21853   7.985   0.456   2.565 -0.2197  0.5882 -0.9383
 6897SOL    HW121854   7.940   0.398   2.503  0.6317 -1.6398  0.4004
 6897SOL    HW221855   8.078   0.432   2.556 -0.1208 -0.1461  1.4802
 6898SOL     OW21856   1.479   6.355   4.553 -0.2906 -0.3083 -0.2412
 6898SOL    HW121857   1.491   6.344   4.458 -1.0314 -1.0883 -0.2624
 6898SOL    HW221858   1.481   6.450   4.567 -0.2733 -0.1830 -1.0538
 6899SOL     OW21859   6.640   8.347   7.355 -0.3208 -0.3028  0.7114
 6899SOL    HW121860   6.659   8.397   7.275  2.5839 -1.5800  0.5139
 6899SOL    HW221861   6.670   8.259   7.336 -4.2655 -2.0253  1.4860
 6900SOL     OW21862   2.550   0.672   6.264  0.4437 -0.7938 -0.4645
 6900SOL    HW121863   2.527   0.606   6.330 -0.3870  0.5804  0.6882
 6900SOL    HW221864   2.545   0.626   6.181 -1.7974 -1.8150  0.1657
 6901SOL     OW21865   6.085   8.373   7.063  0.0085  0.2303 -0.2695
 6901SOL    HW121866   6.006   8.387   7.012 -1.3341  0.4619  1.7505
 6901SOL    HW221867   6.084   8.280   7.085 -0.1005  0.3804  0.3741
 6902SOL     OW21868   7.024   8.606   8.302  0.1607  0.0576 -0.1477
 6902SOL    HW121869   7.000   8.519   8.335  0.1939  0.0459 -0.1529
 6902SOL    HW221870   7.097   8.588   8.242 -1.5198 -0.2378 -2.2189
 6903SOL     OW21871   8.794   3.861   0.677  0.1517 -0.1289 -0.2862
 6903SOL    HW121872   8.800   3.794   0.745 -0.7387 -1.4536 -1.4497
 6903SOL    HW221873   8.789   3.811   0.596  0.9197  1.4119 -1.3063
 6904SOL     OW21874   4.003   8.366   1.496 -0.2517  0.3001 -0.4431
 6904SOL    HW121875   3.991   8.294   1.558 -1.9434  1.3304  0.4966
 6904SOL    HW221876   4.092   8.398   1.513  0.5310 -1.5171 -0.8778
 6905SOL     OW21877   5.789   1.454   3.476  0.2688 -0.2273  0.0847
 6905SOL    HW121878   5.761   1.366   3.502 -1.7402 -0.0888 -1.3327
 6905SOL    HW221879   5.736   1.474   3.398  1.5225  1.7776 -0.3333
 6906SOL     OW21880   3.159   2.206   3.263  0.4014 -0.4122 -1.0150
 6906SOL    HW121881   3.184   2.146   3.333  1.5311 -0.3545 -1.3475
 6906SOL    HW221882   3.065   2.222   3.277  0.7913  0.3728  1.0703
 6907SOL     OW21883   7.336   1.246   5.102 -0.0213  0.1356 -0.0712
 6907SOL    HW121884   7.299   1.275   5.019 -1.3439 -0.6888  0.2026
 6907SOL    HW221885   7.260   1.231   5.158  0.8964  2.2964  1.8790
 6908SOL     OW21886   3.104   1.310   5.564 -0.0725 -0.6122  0.2770
 6908SOL    HW121887   3.066   1.245   5.624 -0.0866  0.4727  1.4730
 6908SOL    HW221888   3.194   1.321   5.594  0.2573 -0.8373 -0.5892
 6909SOL     OW21889   4.137   8.532   3.447  0.8253 -0.2043 -1.0220
 6909SOL    HW121890   4.149   8.613   3.397  2.5702  0.2899  0.0971
 6909SOL    HW221891   4.043   8.516   3.445  0.3272  2.2778 -0.6390
 6910SOL     OW21892   8.085   0.582   3.474  0.2244  0.3172  0.5048
 6910SOL    HW121893   8.045   0.579   3.561  0.9861 -1.6319  0.8324
 6910SOL    HW221894   8.171   0.621   3.488  1.3473 -2.2124  1.1154
 6911SOL     OW21895   6.745   3.915   6.556 -0.0274 -0.5839  0.2105
 6911SOL    HW121896   6.761   3.822   6.572 -0.7138 -0.5554  1.1507
 6911SOL    HW221897   6.831   3.952   6.538  0.1209 -1.5951 -1.2634
 6912SOL     OW21898   6.412   3.160   4.537 -0.1306  0.0441  0.1437
 6912SOL    HW121899   6.457   3.193   4.459  0.3064 -1.3211 -0.2023
 6912SOL    HW221900   6.376   3.076   4.510 -0.2518 -0.3043  1.3319
 6913SOL     OW21901   1.024   0.609   0.291  0.7335  0.2858 -0.6907
 6913SOL    HW121902   0.936   0.580   0.313  0.9603  0.8094  1.0876
 6913SOL    HW221903   1.029   0.699   0.322  0.6658  1.7162 -4.3738
 6914SOL     OW21904   8.509   3.270   3.142  0.0937  0.6790  0.4447
 6914SOL    HW121905   8.560   3.269   3.223  0.3156  3.0747  0.4138
 6914SOL    HW221906   8.549   3.339   3.089 -1.3004  0.5414 -0.8828
 6915SOL     OW21907   6.625   5.194   0.360 -0.1211 -0.8157 -0.3741
 6915SOL    HW121908   6.556   5.129   0.348 -0.1876 -0.8031 -0.0793
 6915SOL    HW221909   6.667   5.169   0.442 -0.5952 -0.0880  0.1114
 6916SOL     OW21910   3.733   0.468   2.054 -0.1823 -0.0241 -0.3355
 6916SOL    HW121911   3.655   0.488   2.106 -0.3619 -0.6691 -0.3461
 6916SOL    HW221912   3.792   0.542   2.069  1.4344 -1.8752  3.9717
 6917SOL     OW21913   3.468   3.053   6.339  0.1006 -0.4122  0.1681
 6917SOL    HW121914   3.475   2.989   6.410  0.6933 -0.8007 -0.2338
 6917SOL    HW221915   3.435   3.004   6.264 -0.4336 -0.0227  0.1432
 6918SOL     OW21916   7.231   7.871   2.527  0.9167  0.3828 -0.0510
 6918SOL    HW121917   7.277   7.953   2.547  2.0695 -0.4220  0.7766
 6918SOL    HW221918   7.279   7.833   2.454 -0.0599  0.7748 -0.9166
 6919SOL     OW21919   4.127   4.953   0.762  0.7309  0.1246  0.1618
 6919SOL    HW121920   4.093   4.906   0.838  1.3460 -1.2925 -0.4105
 6919SOL    HW221921   4.060   5.019   0.743  0.5600  0.4880  1.8964
 6920SOL     OW21922   4.428   3.511   2.236 -0.3928 -0.0592  0.5617
 6920SOL    HW121923   4.361   3.443   2.248 -0.2363  0.0711  2.4955
 6920SOL    HW221924   4.447   3.510   2.142 -1.2144 -1.9058  0.3740
 6921SOL     OW21925   6.749   1.655   1.137 -0.4058  0.1260  0.0270
 6921SOL    HW121926   6.799   1.595   1.192  0.0403  0.2335 -0.2640
 6921SOL    HW221927   6.664   1.662   1.181 -0.7631 -1.3669 -0.3946
 6922SOL     OW21928   8.784   2.645   1.181 -0.0991  0.3423  0.7875
 6922SOL    HW121929   8.784   2.740   1.193  0.4501  0.5268 -0.4705
 6922SOL    HW221930   8.693   2.618   1.196 -0.7376  1.3796 -0.9628
 6923SOL     OW21931   5.566   7.010   2.805  0.1528 -0.1826 -0.4819
 6923SOL    HW121932   5.499   6.963   2.755  1.3437 -1.9771 -0.5159
 6923SOL    HW221933   5.525   7.093   2.829 -1.3002 -0.3066 -2.3240
 6924SOL     OW21934   5.430   2.389   0.567  0.3301 -0.1283  0.1330
 6924SOL    HW121935   5.335   2.395   0.553  0.5444 -1.4543 -2.5876
 6924SOL    HW221936   5.442   2.306   0.614  0.2133 -1.0737 -1.4268
 6925SOL     OW21937   0.750   0.548   0.813 -0.1434 -0.3694  0.4631
 6925SOL    HW121938   0.699   0.468   0.810  0.1346 -0.5298 -1.4512
 6925SOL    HW221939   0.815   0.533   0.882 -1.8536 -0.6243  2.0879
 6926SOL     OW21940   3.276   7.022   2.935 -0.0928 -0.2489 -0.0563
 6926SOL    HW121941   3.369   7.016   2.955 -0.2379  0.0641  0.8034
 6926SOL    HW221942   3.242   7.085   2.999 -1.0742 -1.1304  0.3306
 6927SOL     OW21943   6.510   4.433   4.465  0.4313  0.1802 -0.4635
 6927SOL    HW121944   6.521   4.430   4.370  1.3592 -1.0066 -0.3422
 6927SOL    HW221945   6.429   4.386   4.482  1.0572 -0.9653 -0.5710
 6928SOL     OW21946   4.881   0.898   3.221 -0.2564 -0.0293 -0.4145
 6928SOL    HW121947   4.916   0.918   3.135  0.2273 -0.1398 -0.2470
 6928SOL    HW221948   4.957   0.872   3.273 -0.6331 -0.6589 -0.1570
 6929SOL     OW21949   4.138   6.919   3.108 -0.1817 -0.1895 -0.0112
 6929SOL    HW121950   4.060   6.876   3.144 -1.0959  0.1773 -1.5044
 6929SOL    HW221951   4.127   7.011   3.130  0.3058 -0.2660  0.5816
 6930SOL     OW21952   6.884   2.462   3.310 -0.4722  0.1715  0.4880
 6930SOL    HW121953   6.938   2.408   3.368 -0.0241  1.0845  0.9300
 6930SOL    HW221954   6.856   2.536   3.364  2.2460  2.5822 -1.0833
 6931SOL     OW21955   8.422   0.145   7.477  0.7811 -0.2872  0.2830
 6931SOL    HW121956   8.396   0.211   7.413 -0.4126 -2.2670 -1.3918
 6931SOL    HW221957   8.517   0.155   7.484  0.9406 -0.0304 -1.8373
 6932SOL     OW21958   0.462   7.232   5.529  0.3436  0.1278  0.0571
 6932SOL    HW121959   0.422   7.161   5.578 -0.4102 -0.4343 -1.3145
 6932SOL    HW221960   0.502   7.288   5.595 -0.8206 -0.4777  1.3057
 6933SOL     OW21961   3.432   3.812   3.272  0.3899 -0.4115 -0.0697
 6933SOL    HW121962   3.381   3.731   3.281  1.0978 -1.0253 -1.2292
 6933SOL    HW221963   3.416   3.841   3.182  3.6129 -1.7903 -1.2585
 6934SOL     OW21964   5.971   1.769   0.815  0.5481  0.4603  0.2054
 6934SOL    HW121965   6.064   1.766   0.838  0.7457  0.8086 -0.5057
 6934SOL    HW221966   5.935   1.835   0.874  0.0172 -2.0154  2.8539
 6935SOL     OW21967   7.310   3.305   3.106  0.1030 -0.0253  0.0776
 6935SOL    HW121968   7.374   3.291   3.037  1.1558 -0.2538  1.0783
 6935SOL    HW221969   7.280   3.395   3.094 -0.2217 -0.2628 -1.0528
 6936SOL     OW21970   2.492   3.457   7.992  0.4776  0.9360  0.2019
 6936SOL    HW121971   2.581   3.424   7.997  1.1329  2.2877 -1.4664
 6936SOL    HW221972   2.498   3.547   8.026 -0.8267  0.2191  2.6135
 6937SOL     OW21973   6.925   5.980   3.536  0.2469 -0.0402 -0.2118
 6937SOL    HW121974   6.948   5.911   3.475 -0.7459 -0.4573 -0.1312
 6937SOL    HW221975   6.838   6.009   3.508 -0.3552 -0.4393  1.1603
 6938SOL     OW21976   7.005   2.256   1.566  0.3509 -0.0416  0.5086
 6938SOL    HW121977   7.083   2.200   1.558  0.6589  0.0957  2.3119
 6938SOL    HW221978   7.040   2.342   1.592 -0.3643  0.1673  0.7924
 6939SOL     OW21979   1.418   7.094   7.541  0.2308  0.0897 -0.2691
 6939SOL    HW121980   1.351   7.040   7.583  1.7928 -0.4805  1.6473
 6939SOL    HW221981   1.415   7.177   7.588  1.1180 -0.0777  0.0933
 6940SOL     OW21982   1.991   6.554   5.676  0.3417 -0.1460  0.1415
 6940SOL    HW121983   2.084   6.544   5.699  0.2823 -0.9104  0.0889
 6940SOL    HW221984   1.969   6.643   5.702  1.2314  0.2221 -0.3351
 6941SOL     OW21985   8.739   5.693   7.056 -0.1296 -0.2977 -0.5144
 6941SOL    HW121986   8.804   5.646   7.005 -1.3974 -1.9769 -0.6567
 6941SOL    HW221987   8.770   5.689   7.146  0.6890  0.2230 -0.7632
 6942SOL     OW21988   8.211   8.446   0.544 -0.5855 -0.0581  0.1985
 6942SOL    HW121989   8.148   8.411   0.608 -1.1210  0.4524 -0.0407
 6942SOL    HW221990   8.196   8.395   0.465  0.3483 -0.9573  0.5781
 6943SOL     OW21991   3.031   5.572   4.842  0.4777  0.1369  0.1876
 6943SOL    HW121992   2.986   5.632   4.782 -0.0077  1.3971  1.7489
 6943SOL    HW221993   2.993   5.486   4.822  0.3258  0.5136 -1.2793
 6944SOL     OW21994   5.262   7.317   7.329 -0.1433  0.5440  0.3631
 6944SOL    HW121995   5.251   7.369   7.250  0.6846  0.6812  0.3288
 6944SOL    HW221996   5.330   7.362   7.379 -1.1322  0.8459  1.4944
 6945SOL     OW21997   4.235   1.388   5.479  0.0082  0.1741  0.4754
 6945SOL    HW121998   4.159   1.443   5.499  1.4728  2.2486  0.7239
 6945SOL    HW221999   4.300   1.413   5.545  1.6243  0.0291 -1.0117
 6946SOL     OW22000   1.090   7.625   2.738 -0.0001  0.0613 -0.0698
 6946SOL    HW122001   1.060   7.632   2.829  0.0375 -1.3558  0.0697
 6946SOL    HW222002   1.116   7.534   2.728 -2.5679 -0.5599 -2.2755
 6947SOL     OW22003   6.185   0.457   2.532  0.3789  0.2271 -0.2503
 6947SOL    HW122004   6.167   0.415   2.449 -0.3461 -0.6607  0.3354
 6947SOL    HW222005   6.161   0.392   2.598 -0.8558  1.5708  0.7007
 6948SOL     OW22006   5.524   8.268   0.869  0.6630 -0.2529 -0.3001
 6948SOL    HW122007   5.518   8.259   0.964 -1.2568 -0.8889 -0.4368
 6948SOL    HW222008   5.505   8.361   0.853  2.5082  0.2051  0.0029
 6949SOL     OW22009   0.108   2.611   8.020 -0.2463 -0.1076 -0.1034
 6949SOL    HW122010   0.062   2.531   8.045 -1.5715 -0.7527 -3.9101
 6949SOL    HW222011   0.039   2.676   8.009  0.0981 -0.0179 -2.2113
 6950SOL     OW22012   3.116   8.682   6.495 -0.5451 -0.0240  0.1357
 6950SOL    HW122013   3.131   8.587   6.500 -0.1878  0.0613  0.8156
 6950SOL    HW222014   3.200   8.720   6.521 -1.2245  0.4731  1.6926
 6951SOL     OW22015   6.376   1.481   2.888 -0.3512 -0.5327 -0.9881
 6951SOL    HW122016   6.364   1.397   2.933 -1.4936  0.1386 -0.0092
 6951SOL    HW222017   6.288   1.509   2.865 -0.2350  1.4052  0.6123
 6952SOL     OW22018   3.539   0.117   0.697  0.0233 -0.3131  0.0984
 6952SOL    HW122019   3.613   0.062   0.672  1.4867  1.2913  0.6868
 6952SOL    HW222020   3.575   0.179   0.761 -2.0795 -0.1482  1.2235
 6953SOL     OW22021   8.827   8.211   7.427  0.5902 -0.5359  0.0373
 6953SOL    HW122022   8.854   8.121   7.449 -0.0206 -0.7955 -0.2569
 6953SOL    HW222023   8.820   8.211   7.331  3.5293  0.6607 -0.3073
 6954SOL     OW22024   2.758   8.405   3.031 -0.0854 -0.2277 -0.2339
 6954SOL    HW122025   2.756   8.396   2.935 -0.2843 -0.2494 -0.2297
 6954SOL    HW222026   2.831   8.350   3.059  0.8549  0.8660 -0.4806
 6955SOL     OW22027   6.037   6.646   4.945 -0.7038  0.4718  0.7466
 6955SOL    HW122028   6.122   6.684   4.965  0.0942 -0.5270 -0.6308
 6955SOL    HW222029   5.976   6.720   4.950  0.4371  1.4622  0.4570
 6956SOL     OW22030   2.919   1.953   5.042 -0.2527  0.6914  0.1715
 6956SOL    HW122031   2.875   2.032   5.071 -1.8341 -0.4922  1.1574
 6956SOL    HW222032   2.944   1.908   5.123  1.1693  0.4359 -0.3651
 6957SOL     OW22033   3.738   5.122   8.228 -0.1301  0.1155  0.2001
 6957SOL    HW122034   3.751   5.057   8.298 -0.8724  0.2901  0.5049
 6957SOL    HW222035   3.808   5.186   8.242 -0.2945  0.1684  0.8118
 6958SOL     OW22036   8.850   4.379   7.221  0.0836 -0.5997  0.0761
 6958SOL    HW122037   8.923   4.378   7.282  0.0340 -0.7645  0.1326
 6958SOL    HW222038   8.858   4.463   7.175  0.0879 -0.4519  0.3475
 6959SOL     OW22039   6.403   4.273   5.946 -0.3222  0.0216  0.3417
 6959SOL    HW122040   6.479   4.217   5.937  0.2351  0.7748  0.2999
 6959SOL    HW222041   6.328   4.214   5.938  0.2531 -0.6811  0.1311
 6960SOL     OW22042   6.365   3.118   5.619 -0.0925 -0.3881 -0.7199
 6960SOL    HW122043   6.396   3.209   5.617  0.5169 -0.5861 -0.3208
 6960SOL    HW222044   6.311   3.114   5.698  1.0706 -0.7464  0.0828
 6961SOL     OW22045   6.087   8.299   2.853 -0.0036 -0.4061 -0.9722
 6961SOL    HW122046   6.010   8.243   2.843 -1.5966  1.2110  1.2594
 6961SOL    HW222047   6.056   8.387   2.832 -0.1165  1.0194  3.9513
 6962SOL     OW22048   7.369   5.648   6.535  0.5355 -0.4889  0.3110
 6962SOL    HW122049   7.283   5.626   6.572 -0.1181  0.6819 -0.4609
 6962SOL    HW222050   7.425   5.662   6.611 -0.4252  0.4915  0.8656
 6963SOL     OW22051   6.207   7.298   4.845 -0.4436  0.2996  0.3806
 6963SOL    HW122052   6.197   7.218   4.794  1.1961  0.5495 -0.3737
 6963SOL    HW222053   6.130   7.350   4.823 -0.0787  0.1411 -1.3612
 6964SOL     OW22054   7.782   8.052   4.326  0.0285  0.0144 -0.1927
 6964SOL    HW122055   7.740   8.106   4.393 -0.2512 -0.2792 -0.1284
 6964SOL    HW222056   7.858   8.104   4.298 -2.0741  2.0878 -2.6162
 6965SOL     OW22057   5.020   6.238   7.181  0.7602  0.3972  0.3569
 6965SOL    HW122058   5.035   6.329   7.154  1.0157  0.1112 -0.4747
 6965SOL    HW222059   4.947   6.243   7.242  0.3215  1.0782 -0.2200
 6966SOL     OW22060   7.807   1.270   5.795 -0.7757  0.2435  0.3721
 6966SOL    HW122061   7.883   1.325   5.815 -1.4238  1.1039  0.4906
 6966SOL    HW222062   7.788   1.288   5.703 -0.2529 -0.7107  0.0572
 6967SOL     OW22063   0.525   1.211   3.451  0.0279  0.4923 -0.2122
 6967SOL    HW122064   0.489   1.227   3.363 -0.0187  0.9122 -0.1203
 6967SOL    HW222065   0.515   1.295   3.496 -1.9093 -0.2628  0.8984
 6968SOL     OW22066   5.142   1.972   5.077  0.2742  0.4820 -0.4494
 6968SOL    HW122067   5.184   1.985   4.992 -0.4975  1.8794 -0.6490
 6968SOL    HW222068   5.049   1.960   5.056  0.1821  0.1138  0.1480
 6969SOL     OW22069   1.355   5.243   5.720 -0.5074  0.0694 -0.7858
 6969SOL    HW122070   1.291   5.259   5.790 -1.1336  0.7257 -1.4885
 6969SOL    HW222071   1.422   5.189   5.761  0.2239  2.1185  0.9146
 6970SOL     OW22072   4.902   2.513   1.120  0.7377 -0.0204  0.1466
 6970SOL    HW122073   4.923   2.602   1.089 -0.4040  0.2063 -0.0279
 6970SOL    HW222074   4.882   2.464   1.040 -0.7162  0.1576  0.3594
 6971SOL     OW22075   5.144   6.047   7.368 -0.2446 -0.2570 -0.3530
 6971SOL    HW122076   5.089   5.970   7.350 -3.1853  1.3421  1.0546
 6971SOL    HW222077   5.111   6.114   7.308 -0.2859  0.9343  0.9479
 6972SOL     OW22078   6.932   5.757   0.431 -0.8435  0.2719  0.2608
 6972SOL    HW122079   6.915   5.672   0.471  0.4543 -1.0508 -1.8013
 6972SOL    HW222080   7.024   5.774   0.450 -0.9255  0.9162  0.1048
 6973SOL     OW22081   8.541   2.350   1.286  0.1228  0.3396  0.1168
 6973SOL    HW122082   8.532   2.445   1.296 -0.1773  0.6494 -2.4931
 6973SOL    HW222083   8.450   2.319   1.277  0.1507 -0.3672  1.8763
 6974SOL     OW22084   1.390   7.716   6.838  0.7556 -0.1187 -0.3330
 6974SOL    HW122085   1.316   7.739   6.781  0.3151 -0.3491  0.1383
 6974SOL    HW222086   1.451   7.789   6.829  0.4114  0.1383 -0.6208
 6975SOL     OW22087   5.284   5.737   7.848  0.0729 -0.0110  0.4917
 6975SOL    HW122088   5.330   5.743   7.764  1.6439 -1.8916  1.1392
 6975SOL    HW222089   5.206   5.790   7.837  0.1304 -0.3735 -2.2425
 6976SOL     OW22090   6.283   3.238   5.302 -0.0348  0.1581  0.5641
 6976SOL    HW122091   6.357   3.272   5.251  0.5773 -0.4718  1.0198
 6976SOL    HW222092   6.283   3.144   5.284  0.0344 -0.0316  1.5346
 6977SOL     OW22093   0.760   1.865   8.244  0.3154 -0.3095  0.3473
 6977SOL    HW122094   0.820   1.837   8.313  0.3994  0.3854  0.5680
 6977SOL    HW222095   0.675   1.829   8.270  0.6791 -1.5626 -0.1292
 6978SOL     OW22096   7.509   7.614   6.777  0.3571  0.1151  0.4243
 6978SOL    HW122097   7.506   7.539   6.836  1.3536  0.0449  0.3996
 6978SOL    HW222098   7.510   7.690   6.836 -2.6973  0.2597  0.4536
 6979SOL     OW22099   4.847   2.272   6.072  0.0832  0.1444 -0.0655
 6979SOL    HW122100   4.800   2.354   6.086 -0.3963 -0.4291  2.1612
 6979SOL    HW222101   4.830   2.221   6.151  0.8415 -1.8850 -1.1301
 6980SOL     OW22102   2.348   5.862   7.523  0.2222 -0.3488  0.0736
 6980SOL    HW122103   2.313   5.865   7.612  1.5605  0.3756  0.6042
 6980SOL    HW222104   2.441   5.882   7.534  0.1062  1.3270 -1.6541
 6981SOL     OW22105   3.783   1.706   2.383  0.6019  0.2404  0.0143
 6981SOL    HW122106   3.844   1.705   2.457 -0.9927 -0.4562  1.3869
 6981SOL    HW222107   3.735   1.624   2.391  0.0100  0.4076 -1.5064
 6982SOL     OW22108   1.184   4.266   0.967 -0.1735  0.3153  0.5170
 6982SOL    HW122109   1.151   4.216   0.893 -1.1482  0.0955  1.0821
 6982SOL    HW222110   1.106   4.287   1.018  0.6872 -1.6257  2.7774
 6983SOL     OW22111   6.621   6.436   6.781  0.6045 -0.4471  0.0054
 6983SOL    HW122112   6.632   6.530   6.789  0.2872 -0.3492 -0.6456
 6983SOL    HW222113   6.602   6.406   6.871  0.4295  0.1420  0.1659
 6984SOL     OW22114   2.787   6.273   7.032  0.0589  0.2294 -0.1044
 6984SOL    HW122115   2.735   6.330   7.088  2.4041  2.0748  0.3395
 6984SOL    HW222116   2.757   6.185   7.053 -1.8749  1.1209  1.1088
 6985SOL     OW22117   8.469   0.823   6.125  0.6285  0.0622 -0.3901
 6985SOL    HW122118   8.434   0.829   6.214 -3.6424 -0.3271 -1.8309
 6985SOL    HW222119   8.509   0.736   6.121 -2.0649 -1.3052  0.3254
 6986SOL     OW22120   4.342   1.629   4.187  0.2168  0.1829  0.3365
 6986SOL    HW122121   4.337   1.701   4.250  0.6077 -0.1105  0.7031
 6986SOL    HW222122   4.430   1.593   4.198 -0.3606 -1.0992  0.9766
 6987SOL     OW22123   7.189   3.727   2.310 -0.6276 -0.1522 -0.0537
 6987SOL    HW122124   7.176   3.751   2.218 -1.1802  0.7309  0.2458
 6987SOL    HW222125   7.129   3.653   2.324  0.1203 -0.8851 -0.6328
 6988SOL     OW22126   7.869   4.504   5.957  0.4273 -0.2066 -0.3567
 6988SOL    HW122127   7.851   4.594   5.929  0.4023  0.4829  1.7108
 6988SOL    HW222128   7.782   4.466   5.973  0.4111 -0.8076 -1.7124
 6989SOL     OW22129   6.001   4.761   3.588  0.6629 -0.2279  0.1434
 6989SOL    HW122130   5.945   4.835   3.611 -0.7290 -1.5878  1.3910
 6989SOL    HW222131   6.082   4.777   3.636 -0.5343 -0.6736  2.4725
 6990SOL     OW22132   1.741   8.751   6.136  0.3607 -0.1399  0.5619
 6990SOL    HW122133   1.720   8.675   6.082  0.6202  0.6317 -0.6621
 6990SOL    HW222134   1.704   8.825   6.088 -0.0578  0.4972  1.8333
 6991SOL     OW22135   6.417   2.139   3.483 -0.1044 -0.2856  0.0940
 6991SOL    HW122136   6.500   2.125   3.528  0.4890  1.1218 -0.4909
 6991SOL    HW222137   6.396   2.055   3.443 -0.3178 -1.4050  2.3895
 6992SOL     OW22138   5.975   8.389   3.486  0.2937  0.3184 -0.2110
 6992SOL    HW122139   5.899   8.419   3.437  0.3322 -1.9100 -1.7937
 6992SOL    HW222140   6.035   8.464   3.486 -0.6709  1.1362 -1.5594
 6993SOL     OW22141   4.474   2.930   3.183 -0.1070  0.2501 -0.3203
 6993SOL    HW122142   4.442   2.840   3.182  0.4871  0.0210 -2.1233
 6993SOL    HW222143   4.470   2.956   3.275 -0.7236 -1.4508  0.1684
 6994SOL     OW22144   3.231   0.940   0.497  0.5771  0.7223 -0.7369
 6994SOL    HW122145   3.227   1.033   0.478 -1.2636  1.3764  2.2586
 6994SOL    HW222146   3.303   0.931   0.559 -1.9491  1.0822  2.5442
 6995SOL     OW22147   6.078   7.495   1.472 -0.2148 -0.3799  0.1384
 6995SOL    HW122148   6.057   7.487   1.565 -1.4153  2.1872  0.1786
 6995SOL    HW222149   6.118   7.582   1.464  0.5764 -0.8599 -1.6464
 6996SOL     OW22150   0.982   7.662   2.990  0.3710  0.3605  0.1807
 6996SOL    HW122151   0.945   7.657   3.078  1.0084  1.8172  0.5651
 6996SOL    HW222152   0.910   7.638   2.932  0.3318 -2.1215  1.1150
 6997SOL     OW22153   5.176   7.996   3.031  0.2045 -0.1379 -0.1650
 6997SOL    HW122154   5.130   8.080   3.026 -1.2916 -0.9235 -0.0877
 6997SOL    HW222155   5.112   7.932   3.003  0.4759 -1.5620  2.2564
 6998SOL     OW22156   0.978   1.543   8.224  0.3162  0.3358  0.0139
 6998SOL    HW122157   0.890   1.505   8.227  0.8774 -0.9664  2.0556
 6998SOL    HW222158   0.998   1.549   8.131 -1.4819 -0.3984 -0.4774
 6999SOL     OW22159   4.367   3.120   1.155 -0.4920 -0.5480 -0.6735
 6999SOL    HW122160   4.360   3.026   1.138 -3.1270 -0.6095  0.2688
 6999SOL    HW222161   4.284   3.156   1.124  0.2772  1.4095 -0.5844
 7000SOL     OW22162   4.151   6.174   8.187 -0.0742  0.3597 -0.1144
 7000SOL    HW122163   4.197   6.106   8.138  0.2315 -1.2458  2.2499
 7000SOL    HW222164   4.217   6.242   8.201 -0.5816  1.6487 -3.1519
 7001SOL     OW22165   8.376   6.087   5.152  0.0728 -0.2103 -0.2996
 7001SOL    HW122166   8.416   6.154   5.208 -0.9812 -0.3466  0.6455
 7001SOL    HW222167   8.443   6.068   5.086  1.7980 -0.8133  1.5359
 7002SOL     OW22168   1.233   0.834   0.564 -0.3476  0.2672  0.0902
 7002SOL    HW122169   1.296   0.894   0.603  1.9658 -1.2973 -0.9840
 7002SOL    HW222170   1.179   0.804   0.637  0.1109  1.6745  1.0427
 7003SOL     OW22171   7.084   6.251   7.686 -0.0445 -0.5333 -0.0932
 7003SOL    HW122172   7.138   6.298   7.623 -2.2682  0.9370 -1.0530
 7003SOL    HW222173   7.011   6.217   7.635 -1.5455  0.0681  1.5049
 7004SOL     OW22174   4.025   3.158   8.767 -0.6114 -0.3950  0.6544
 7004SOL    HW122175   4.068   3.163   8.681 -0.6661 -2.5608  0.4538
 7004SOL    HW222176   4.011   3.250   8.792  0.2112  0.2962 -1.2313
 7005SOL     OW22177   8.291   8.001   8.754 -0.4166  0.0040 -0.1071
 7005SOL    HW122178   8.259   7.968   8.670  0.3263 -1.5173  0.1647
 7005SOL    HW222179   8.250   7.944   8.819  0.2192  0.1745  0.4540
 7006SOL     OW22180   4.040   0.344   1.966  0.5518  0.5040 -0.0316
 7006SOL    HW122181   4.053   0.324   1.873 -2.3371 -0.0091 -0.4128
 7006SOL    HW222182   3.976   0.280   1.995  1.7995  0.3153  2.5104
 7007SOL     OW22183   3.945   0.151   1.473  0.1189  0.0624  0.2264
 7007SOL    HW122184   3.943   0.080   1.408 -0.6659 -0.3360  0.6628
 7007SOL    HW222185   3.921   0.229   1.424 -2.0846 -0.4941  0.2980
 7008SOL     OW22186   4.494   5.437   8.670 -0.0323  0.3122 -0.0722
 7008SOL    HW122187   4.457   5.522   8.646  2.6550  1.6950  0.2882
 7008SOL    HW222188   4.438   5.405   8.741 -1.9148  1.0647 -1.1463
 7009SOL     OW22189   7.541   7.977   0.157  0.3909 -0.3097  0.3573
 7009SOL    HW122190   7.601   8.051   0.158  0.1902 -0.1523  0.7347
 7009SOL    HW222191   7.484   7.993   0.082 -0.4560  0.5611  1.1641
 7010SOL     OW22192   8.811   3.567   3.651 -0.5145  0.2937 -0.1771
 7010SOL    HW122193   8.748   3.639   3.643 -1.1254 -0.2012  0.1293
 7010SOL    HW222194   8.778   3.500   3.591  0.8512  0.8044 -1.5931
 7011SOL     OW22195   4.284   1.199   2.120  0.4789 -0.3091 -0.2758
 7011SOL    HW122196   4.375   1.173   2.138  2.0951  3.1779 -2.3945
 7011SOL    HW222197   4.263   1.158   2.036 -0.0861 -1.3421  0.3449
 7012SOL     OW22198   0.254   8.629   6.280 -0.1150  0.7327 -0.0718
 7012SOL    HW122199   0.313   8.619   6.355 -0.9870  3.1908  1.0584
 7012SOL    HW222200   0.306   8.603   6.205  1.2128 -0.6260  1.2337
 7013SOL     OW22201   5.380   0.201   8.717 -0.5168  0.1622  0.1542
 7013SOL    HW122202   5.291   0.231   8.736 -0.5389  0.8458 -0.9680
 7013SOL    HW222203   5.397   0.135   8.784 -2.0714 -0.3676  0.0765
 7014SOL     OW22204   4.627   4.394   6.985  0.4509 -0.5101 -0.4131
 7014SOL    HW122205   4.659   4.312   7.023  2.0731 -0.2177 -1.0762
 7014SOL    HW222206   4.673   4.401   6.901  1.2835  1.6504  0.1671
 7015SOL     OW22207   5.690   6.931   0.741  0.2748 -0.5982  0.4789
 7015SOL    HW122208   5.609   6.933   0.689 -1.3010 -3.5112  2.5498
 7015SOL    HW222209   5.677   6.998   0.808  1.1602  1.2701 -1.0811
 7016SOL     OW22210   3.844   2.756   4.421  0.3244 -0.2774  0.6175
 7016SOL    HW122211   3.775   2.821   4.433 -1.9631 -2.1192 -1.3101
 7016SOL    HW222212   3.834   2.696   4.495  0.3542 -0.0957  0.7660
 7017SOL     OW22213   7.402   0.907   4.692 -0.1677 -0.0946  0.5233
 7017SOL    HW122214   7.474   0.929   4.633 -0.3265  0.1633  0.4263
 7017SOL    HW222215   7.428   0.823   4.731 -0.6671 -0.9644 -0.9231
 7018SOL     OW22216   1.110   6.290   7.665 -0.0932  0.1320  0.6316
 7018SOL    HW122217   1.110   6.203   7.625 -0.1572  0.8555 -1.0305
 7018SOL    HW222218   1.181   6.336   7.621  1.7671  0.1534  3.4012
 7019SOL     OW22219   8.123   1.287   0.694 -0.0448 -0.4400 -0.4947
 7019SOL    HW122220   8.111   1.278   0.789 -0.0753  1.1680 -0.3258
 7019SOL    HW222221   8.207   1.245   0.677  0.1821 -0.3365  0.3131
 7020SOL     OW22222   5.146   2.537   8.380  0.0792  0.2615 -0.1676
 7020SOL    HW122223   5.183   2.622   8.407 -1.9790  0.8579  1.0612
 7020SOL    HW222224   5.206   2.472   8.417  0.8660  1.1683  0.2116
 7021SOL     OW22225   4.847   5.970   5.293  0.2579  0.2979  0.0080
 7021SOL    HW122226   4.915   6.008   5.348  0.7226 -0.0139 -0.3355
 7021SOL    HW222227   4.771   6.026   5.306  0.3166  0.1532  1.0551
 7022SOL     OW22228   0.492   5.030   2.478  0.5590 -0.4623  1.0562
 7022SOL    HW122229   0.417   4.987   2.437 -0.9084  0.6891  2.3599
 7022SOL    HW222230   0.494   4.995   2.567  0.5610  0.6542  1.5171
 7023SOL     OW22231   8.195   2.506   3.413  0.7385 -0.0883 -0.0013
 7023SOL    HW122232   8.157   2.439   3.357 -1.3027  1.4651 -0.5738
 7023SOL    HW222233   8.250   2.457   3.475  0.6594 -2.0963 -1.4371
 7024SOL     OW22234   2.433   2.300   2.982  0.0803 -0.6963 -0.2257
 7024SOL    HW122235   2.427   2.213   2.941  0.7175  0.0969 -2.1297
 7024SOL    HW222236   2.397   2.287   3.070  1.7803 -3.2922  0.2098
 7025SOL     OW22237   0.390   2.650   4.142  0.0495  0.1944  0.7772
 7025SOL    HW122238   0.339   2.731   4.140 -0.1780  0.0473 -0.9965
 7025SOL    HW222239   0.361   2.601   4.065  1.3885 -0.8300  0.8796
 7026SOL     OW22240   7.767   4.033   6.347  0.2979  0.2008 -0.2785
 7026SOL    HW122241   7.728   4.121   6.348  0.3995  0.2659  1.3767
 7026SOL    HW222242   7.729   3.989   6.423  1.0743 -0.8187 -0.4565
 7027SOL     OW22243   0.970   2.816   3.780 -0.3424  0.3812  0.5686
 7027SOL    HW122244   0.954   2.747   3.716 -0.7152  1.9133 -1.0867
 7027SOL    HW222245   0.883   2.853   3.798 -0.2726 -0.1934  2.1910
 7028SOL     OW22246   7.073   3.571   8.518  0.1152  0.0925  0.3494
 7028SOL    HW122247   7.158   3.550   8.557  0.8731  0.6255 -0.9671
 7028SOL    HW222248   7.015   3.582   8.593  0.7916 -1.8958  1.2522
 7029SOL     OW22249   7.831   5.242   4.258 -0.2113  0.7649  0.2032
 7029SOL    HW122250   7.910   5.269   4.212 -0.7493  1.2602 -0.4465
 7029SOL    HW222251   7.759   5.279   4.207 -0.9895 -1.5404 -0.4957
 7030SOL     OW22252   7.124   1.418   3.383 -0.3597  0.0978  0.0963
 7030SOL    HW122253   7.115   1.337   3.332  0.7150  2.1340 -3.7862
 7030SOL    HW222254   7.035   1.452   3.391 -0.8002 -1.3466  1.6418
 7031SOL     OW22255   4.617   7.121   0.100 -0.9547 -0.0701 -0.1406
 7031SOL    HW122256   4.588   7.155   0.184 -2.5595 -1.9626  0.1725
 7031SOL    HW222257   4.535   7.107   0.051 -0.1094  0.1697 -1.6721
 7032SOL     OW22258   0.231   2.901   4.177 -0.0967 -0.5088 -0.2122
 7032SOL    HW122259   0.225   2.992   4.149  0.4940 -0.6443 -0.8234
 7032SOL    HW222260   0.142   2.877   4.204  0.0811  0.7581  1.6479
 7033SOL     OW22261   8.264   5.827   7.424 -0.4729  0.0126 -0.6411
 7033SOL    HW122262   8.261   5.782   7.509 -2.0451  2.3686  0.6839
 7033SOL    HW222263   8.356   5.851   7.412 -0.1434 -0.8324  0.1281
 7034SOL     OW22264   2.169   7.897   8.231  0.0648 -0.3915 -0.3208
 7034SOL    HW122265   2.191   7.970   8.173  1.9627 -1.6344 -1.2616
 7034SOL    HW222266   2.240   7.895   8.295 -1.8505  0.7788  1.9910
 7035SOL     OW22267   1.027   5.495   6.196  0.1139  0.5651 -0.6737
 7035SOL    HW122268   1.016   5.568   6.135 -0.6404 -1.2228 -2.8222
 7035SOL    HW222269   1.120   5.474   6.191  0.4576  1.7076  0.4255
 7036SOL     OW22270   2.718   3.072   4.067 -0.3028  0.3795 -0.4643
 7036SOL    HW122271   2.736   3.067   3.973  0.2599  1.1007 -0.4014
 7036SOL    HW222272   2.794   3.115   4.104 -0.7236  0.5140  0.2639
 7037SOL     OW22273   1.569   1.625   6.293 -0.1233 -0.4218  0.1857
 7037SOL    HW122274   1.646   1.621   6.236 -0.7217 -0.4828 -0.6362
 7037SOL    HW222275   1.564   1.717   6.320  0.3136 -0.4456  0.3668
 7038SOL     OW22276   6.659   3.937   5.535 -0.5513 -0.3190  0.5256
 7038SOL    HW122277   6.677   3.846   5.511 -2.2452 -0.3261 -0.8852
 7038SOL    HW222278   6.588   3.930   5.600 -0.7480  0.0018  0.3425
 7039SOL     OW22279   7.151   2.640   2.434  0.1370 -0.0627  0.6239
 7039SOL    HW122280   7.197   2.698   2.373  0.2518  1.8752  2.4319
 7039SOL    HW222281   7.214   2.571   2.453  0.4198 -0.2103 -0.7301
 7040SOL     OW22282   3.920   5.559   3.247  0.0635  0.3240 -0.2856
 7040SOL    HW122283   3.967   5.492   3.198 -1.4164 -1.0489  0.1064
 7040SOL    HW222284   3.984   5.591   3.311  0.1108 -2.6148  1.2907
 7041SOL     OW22285   3.752   0.585   0.511  0.5660  0.2698  0.0940
 7041SOL    HW122286   3.790   0.607   0.426  0.5491 -0.9559 -0.2485
 7041SOL    HW222287   3.682   0.522   0.491  0.3524  0.2009  0.9844
 7042SOL     OW22288   6.601   8.737   0.763 -0.2359  0.2708  0.4880
 7042SOL    HW122289   6.580   8.724   0.670 -0.4043 -0.0405  0.5697
 7042SOL    HW222290   6.693   8.714   0.770 -0.6482 -1.4193  0.7276
 7043SOL     OW22291   6.916   5.925   0.663 -0.4722 -0.2085 -0.2703
 7043SOL    HW122292   6.912   5.864   0.589  0.0232  1.3184 -1.6160
 7043SOL    HW222293   6.825   5.951   0.678 -0.4018  1.1505 -1.8595
 7044SOL     OW22294   2.597   2.528   8.236 -0.0167 -0.2965 -0.4625
 7044SOL    HW122295   2.528   2.593   8.254 -1.8779 -1.8230 -1.6459
 7044SOL    HW222296   2.652   2.569   8.170  0.0914  0.8738  0.3239
 7045SOL     OW22297   0.189   4.098   5.963  0.1829  0.2436  0.2423
 7045SOL    HW122298   0.109   4.090   5.910 -0.1009 -0.5459  0.7867
 7045SOL    HW222299   0.257   4.120   5.899 -0.3742  0.4687 -0.2895
 7046SOL     OW22300   1.634   0.589   2.553  0.3155 -0.1147  0.5083
 7046SOL    HW122301   1.600   0.673   2.584 -0.5559 -1.1599  2.5286
 7046SOL    HW222302   1.726   0.589   2.580  0.3549  0.2250  0.3848
 7047SOL     OW22303   5.384   7.347   3.384 -0.1030  0.0025  0.5126
 7047SOL    HW122304   5.381   7.355   3.289 -1.0074 -0.8795  0.4461
 7047SOL    HW222305   5.338   7.425   3.416  1.4971  1.0733  0.2974
 7048SOL     OW22306   7.940   3.639   6.390  0.0594 -0.3814 -0.0555
 7048SOL    HW122307   8.032   3.635   6.415  0.1379  1.4034  0.0659
 7048SOL    HW222308   7.941   3.666   6.298 -0.3380 -0.0477  0.0352
 7049SOL     OW22309   5.088   1.659   4.823  0.4596 -0.0729 -0.6088
 7049SOL    HW122310   5.081   1.583   4.765  0.1396 -0.1005 -0.5389
 7049SOL    HW222311   5.106   1.621   4.909 -2.1049 -0.2695 -0.0743
 7050SOL     OW22312   8.444   5.593   2.092 -0.3391 -0.0483  0.2960
 7050SOL    HW122313   8.516   5.611   2.033  0.5612  0.2060  1.4314
 7050SOL    HW222314   8.408   5.509   2.061  0.0120  0.1509 -0.6783
 7051SOL     OW22315   1.233   6.415   4.357  0.1948  0.0039  0.0704
 7051SOL    HW122316   1.300   6.444   4.295 -0.6246  0.0798 -0.7912
 7051SOL    HW222317   1.256   6.324   4.376  1.3395  0.4274  0.8778
 7052SOL     OW22318   4.841   0.451   5.990 -0.1350  0.0521 -0.2264
 7052SOL    HW122319   4.863   0.543   5.976  0.1322 -0.0261 -0.3269
 7052SOL    HW222320   4.796   0.450   6.075  1.0996  0.0836  0.4487
 7053SOL     OW22321   2.005   1.056   8.292  0.2504 -0.2464 -0.0109
 7053SOL    HW122322   2.058   1.000   8.235 -0.3062 -2.4592  1.5420
 7053SOL    HW222323   1.915   1.041   8.263  0.1006 -0.0650  0.3531
 7054SOL     OW22324   0.005   4.634   5.452  0.0537 -0.0280  0.4345
 7054SOL    HW122325   0.017   4.541   5.432 -1.2409 -0.2836  0.7127
 7054SOL    HW222326  -0.048   4.634   5.533 -1.1146  0.9147 -0.2936
 7055SOL     OW22327   6.288   7.827   7.408  0.0227 -0.3464 -0.3567
 7055SOL    HW122328   6.220   7.788   7.463 -0.5340  1.0170 -0.0099
 7055SOL    HW222329   6.279   7.784   7.323 -1.1038 -0.3943 -0.2269
 7056SOL     OW22330   4.342   5.841   7.147 -0.0918 -0.2672  0.1643
 7056SOL    HW122331   4.354   5.914   7.208  1.0427 -0.2695 -0.0347
 7056SOL    HW222332   4.281   5.874   7.082 -0.1445  0.2574  0.4736
 7057SOL     OW22333   6.462   3.246   4.785  0.2103  0.1654  0.2804
 7057SOL    HW122334   6.388   3.212   4.836  0.1879  1.0157  0.8222
 7057SOL    HW222335   6.451   3.207   4.699 -0.5898 -0.1151  0.5025
 7058SOL     OW22336   8.834   8.101   2.912 -0.9556 -0.2513 -0.0763
 7058SOL    HW122337   8.924   8.069   2.906 -0.8592 -0.2844  1.1818
 7058SOL    HW222338   8.783   8.024   2.937 -0.8987  0.2860  1.8464
 7059SOL     OW22339   0.325   4.800   2.429 -0.4686  0.2149  0.5129
 7059SOL    HW122340   0.379   4.747   2.487  0.1167 -0.7120 -0.8129
 7059SOL    HW222341   0.274   4.737   2.379 -0.4925  0.9450 -0.4202
 7060SOL     OW22342   7.101   4.509   0.126  0.0117 -0.3188  0.0286
 7060SOL    HW122343   7.017   4.555   0.124  1.3376  2.2680 -0.6769
 7060SOL    HW222344   7.082   4.422   0.091 -2.6712 -0.4509  1.5701
 7061SOL     OW22345   6.995   1.724   0.391 -0.9132 -0.6228  0.0390
 7061SOL    HW122346   7.001   1.679   0.475 -1.0659 -1.0791 -0.1951
 7061SOL    HW222347   6.925   1.789   0.404 -0.0288  0.2399  0.6873
 7062SOL     OW22348   6.407   0.603   0.333  0.1912  0.1306  0.2369
 7062SOL    HW122349   6.502   0.609   0.348  0.0972  0.2613  0.8218
 7062SOL    HW222350   6.386   0.511   0.346 -0.0425  0.3887  1.9940
 7063SOL     OW22351   7.419   3.336   0.365  0.1209 -0.1279 -0.4801
 7063SOL    HW122352   7.408   3.305   0.455 -1.4138 -0.2597 -0.6805
 7063SOL    HW222353   7.409   3.257   0.311 -0.2415  0.1418 -0.8154
 7064SOL     OW22354   4.043   0.033   8.293 -0.6161  0.4214 -0.2090
 7064SOL    HW122355   4.063   0.101   8.229 -2.3972  0.8591 -0.3508
 7064SOL    HW222356   4.115   0.038   8.356 -0.2424  1.8294 -0.7120
 7065SOL     OW22357   0.720   2.998   6.069 -0.8433 -0.0692  0.3528
 7065SOL    HW122358   0.791   3.055   6.098 -1.0970 -0.0155  0.8857
 7065SOL    HW222359   0.641   3.050   6.083 -1.3879 -1.5212  3.6276
 7066SOL     OW22360   3.710   6.796   0.382  0.2681 -0.3333 -0.0633
 7066SOL    HW122361   3.735   6.883   0.350 -2.0654  1.0830  1.6661
 7066SOL    HW222362   3.784   6.768   0.436  1.2950  0.2817 -1.0996
 7067SOL     OW22363   5.699   7.080   8.800 -0.6875 -0.7398 -0.1667
 7067SOL    HW122364   5.790   7.064   8.772 -0.6512  1.6605 -1.7263
 7067SOL    HW222365   5.706   7.140   8.873 -1.0096 -0.9941  0.0753
 7068SOL     OW22366   1.378   0.717   5.604  0.3012 -0.4510 -0.4034
 7068SOL    HW122367   1.289   0.751   5.614  0.0106 -1.8229  4.0939
 7068SOL    HW222368   1.367   0.629   5.569 -0.3388 -1.1192  1.3707
 7069SOL     OW22369   3.869   0.262   5.017  0.6631  0.5493  0.3451
 7069SOL    HW122370   3.934   0.258   4.946 -0.4346 -0.5639 -0.6438
 7069SOL    HW222371   3.848   0.354   5.025 -0.5457  0.5727 -2.1035
 7070SOL     OW22372   8.117   7.388   7.617 -0.4152 -0.3010  0.1509
 7070SOL    HW122373   8.118   7.439   7.536 -0.8284  1.4459  1.1895
 7070SOL    HW222374   8.054   7.319   7.601 -1.1853  0.5669 -0.7189
 7071SOL     OW22375   0.333   3.417   6.841  0.4400 -0.1315 -0.4055
 7071SOL    HW122376   0.305   3.503   6.873 -0.7748 -0.1335 -1.4016
 7071SOL    HW222377   0.314   3.419   6.748  1.9916 -0.8853 -0.7665
 7072SOL     OW22378   2.688   1.292   2.858 -0.4964  0.2189 -0.0915
 7072SOL    HW122379   2.768   1.326   2.818 -0.8905  1.0571 -0.1858
 7072SOL    HW222380   2.719   1.244   2.935  0.0043  2.2678  1.0666
 7073SOL     OW22381   5.101   8.275   6.366 -0.8383  0.7172  0.6869
 7073SOL    HW122382   5.092   8.262   6.460 -1.3027 -1.6495  0.3706
 7073SOL    HW222383   5.194   8.259   6.348 -0.8639  0.5904  0.6667
 7074SOL     OW22384   4.339   3.972   5.530  0.2947  0.0177 -0.2285
 7074SOL    HW122385   4.274   4.042   5.528  0.6389  0.4313  1.3889
 7074SOL    HW222386   4.321   3.926   5.612  1.6726 -0.2119 -0.0357
 7075SOL     OW22387   8.330   2.559   7.175  0.1574 -0.4076 -0.3552
 7075SOL    HW122388   8.244   2.545   7.214 -0.3299  0.6295 -1.0127
 7075SOL    HW222389   8.312   2.583   7.084  1.0811  0.7806 -0.2553
 7076SOL     OW22390   6.570   7.316   2.732  0.2241 -0.1607  0.0110
 7076SOL    HW122391   6.489   7.310   2.680  0.2094 -1.7156  0.1611
 7076SOL    HW222392   6.633   7.357   2.673  0.4379 -2.5947 -1.6104
 7077SOL     OW22393   5.628   2.283   8.817 -0.0269  0.2949  0.2271
 7077SOL    HW122394   5.691   2.342   8.860 -0.4467  2.0941 -1.4635
 7077SOL    HW222395   5.683   2.216   8.776  0.6558  0.7535  0.3590
 7078SOL     OW22396   1.170   0.961   0.976 -0.0533 -0.7769 -0.5996
 7078SOL    HW122397   1.143   1.010   0.898  2.2393 -0.4155 -1.2448
 7078SOL    HW222398   1.253   1.001   1.002 -0.4203 -1.3396  1.6579
 7079SOL     OW22399   3.383   4.483   6.444  0.2243 -0.2164 -0.0376
 7079SOL    HW122400   3.457   4.542   6.428  1.0607 -1.1489  0.2904
 7079SOL    HW222401   3.396   4.412   6.381 -0.4647 -0.3251 -0.0574
 7080SOL     OW22402   0.980   5.252   8.001 -0.2823 -0.5619 -0.0257
 7080SOL    HW122403   0.987   5.346   7.982 -1.1213  0.1436  2.7150
 7080SOL    HW222404   1.070   5.224   8.015 -0.1068  0.0651  0.1422
 7081SOL     OW22405   8.090   4.965   1.790  0.5096 -0.3050 -0.1265
 7081SOL    HW122406   8.083   4.992   1.881  1.4390 -4.1960  1.2475
 7081SOL    HW222407   8.012   4.912   1.775  1.0096 -0.7615 -1.2025
 7082SOL     OW22408   6.811   6.397   8.523 -0.2366  0.2869  0.2259
 7082SOL    HW122409   6.794   6.483   8.486 -1.5812  0.5827  1.4309
 7082SOL    HW222410   6.901   6.403   8.556  0.0778  0.8392 -0.6982
 7083SOL     OW22411   8.170   3.538   3.221 -0.3744  0.4186  0.4310
 7083SOL    HW122412   8.174   3.560   3.128  0.8538  0.9283  0.5848
 7083SOL    HW222413   8.190   3.445   3.224  1.6323  0.8020  0.3128
 7084SOL     OW22414   4.340   0.587   4.152 -0.2652  0.1998 -0.7551
 7084SOL    HW122415   4.319   0.651   4.083 -1.0979 -1.5931 -2.2477
 7084SOL    HW222416   4.315   0.503   4.115 -0.1071 -0.9210  1.5239
 7085SOL     OW22417   0.414   7.152   6.804  0.0858  0.3133  0.1850
 7085SOL    HW122418   0.473   7.228   6.803 -0.4825  0.7741  0.5209
 7085SOL    HW222419   0.468   7.079   6.774  0.7508  0.7757  0.2245
 7086SOL     OW22420   5.289   3.093   3.103 -0.0951 -0.0650  0.1003
 7086SOL    HW122421   5.384   3.092   3.119  0.2981 -0.1658 -1.9655
 7086SOL    HW222422   5.255   3.157   3.165  1.4010  0.3433  0.5413
 7087SOL     OW22423   7.422   0.826   8.221  0.2464  0.0653  0.0214
 7087SOL    HW122424   7.479   0.809   8.146  1.1725 -0.2669  0.7782
 7087SOL    HW222425   7.370   0.746   8.231 -0.9291  0.6470 -1.1306
 7088SOL     OW22426   6.346   6.230   3.323  0.4216  0.0533 -0.1805
 7088SOL    HW122427   6.424   6.175   3.330 -0.3682 -1.0452  0.2085
 7088SOL    HW222428   6.317   6.218   3.232  0.5414  0.2672 -0.2507
 7089SOL     OW22429   7.528   6.593   6.870 -0.6308 -0.1409  0.2175
 7089SOL    HW122430   7.541   6.498   6.861 -0.2168 -0.1615  0.8999
 7089SOL    HW222431   7.588   6.632   6.806 -2.0200 -0.3563 -1.2668
 7090SOL     OW22432   2.893   1.362   0.126  0.2476 -0.0328 -0.9086
 7090SOL    HW122433   2.897   1.338   0.033  1.6119  0.4041 -0.9985
 7090SOL    HW222434   2.816   1.418   0.133 -0.0428 -0.3123 -1.7132
 7091SOL     OW22435   8.180   4.304   0.802 -0.4734 -0.5473 -0.8955
 7091SOL    HW122436   8.264   4.346   0.780  1.3193 -2.0823  2.3215
 7091SOL    HW222437   8.115   4.373   0.787  1.6471  1.5502 -1.1560
 7092SOL     OW22438   8.076   4.072   2.721 -0.0566 -0.1307  0.2030
 7092SOL    HW122439   8.041   3.983   2.707 -1.8920  0.4000  1.0840
 7092SOL    HW222440   8.071   4.085   2.816  0.9944  0.6239  0.1718
 7093SOL     OW22441   1.690   5.761   6.038 -0.4232  0.0311  0.8539
 7093SOL    HW122442   1.729   5.731   5.956 -1.1779  1.8081 -0.2177
 7093SOL    HW222443   1.659   5.682   6.081 -0.3416 -0.9155 -0.7587
 7094SOL     OW22444   0.341   1.822   5.400  0.7965  0.0421  0.1251
 7094SOL    HW122445   0.421   1.799   5.446  1.4409 -0.1227 -1.0331
 7094SOL    HW222446   0.323   1.747   5.343  0.4316  0.5250 -0.4167
 7095SOL     OW22447   2.563   3.475   5.337  0.1444  0.4181  0.0548
 7095SOL    HW122448   2.652   3.511   5.331  0.1656  0.3332 -0.1248
 7095SOL    HW222449   2.554   3.419   5.261 -0.1238  0.5552 -0.0171
 7096SOL     OW22450   4.835   7.866   7.399  0.4785  0.0177 -0.2904
 7096SOL    HW122451   4.794   7.779   7.394  0.5542 -0.0303 -0.1135
 7096SOL    HW222452   4.779   7.915   7.459  0.2975  0.1699 -0.5862
 7097SOL     OW22453   5.160   0.297   0.658  0.1253 -0.2717  0.3818
 7097SOL    HW122454   5.131   0.388   0.651 -0.4575 -0.3514  1.4713
 7097SOL    HW222455   5.231   0.299   0.722  0.1072 -0.5804  0.4165
 7098SOL     OW22456   4.907   3.329   7.595  0.1011  0.2136 -0.4136
 7098SOL    HW122457   4.910   3.249   7.647 -2.5024 -0.7693 -1.6217
 7098SOL    HW222458   4.860   3.305   7.515 -1.7942  3.1566 -0.3491
 7099SOL     OW22459   3.704   5.279   5.873 -0.3634  0.0432 -0.1715
 7099SOL    HW122460   3.656   5.203   5.841 -0.1298 -0.6941  1.1642
 7099SOL    HW222461   3.637   5.334   5.915 -0.0737 -1.1196  1.9443
 7100SOL     OW22462   0.622   7.860   1.688 -0.0322  0.5400 -0.0004
 7100SOL    HW122463   0.695   7.900   1.736  1.6946 -1.1822 -1.0300
 7100SOL    HW222464   0.591   7.928   1.629 -0.5331  1.8981  1.7552
 7101SOL     OW22465   3.227   7.826   0.911  0.2192  0.0975  0.0641
 7101SOL    HW122466   3.178   7.872   0.979  2.4070  0.0540  1.7724
 7101SOL    HW222467   3.232   7.889   0.839 -0.0833  1.1001  0.8862
 7102SOL     OW22468   0.781   0.411   1.994  0.0180  0.0565  0.3106
 7102SOL    HW122469   0.730   0.481   2.035 -0.2168 -0.4544  0.9056
 7102SOL    HW222470   0.799   0.443   1.906 -0.2885  0.7641  0.4982
 7103SOL     OW22471   0.839   7.718   3.255 -0.1580 -0.0036 -0.6547
 7103SOL    HW122472   0.805   7.629   3.250 -1.6065  0.5635 -1.4565
 7103SOL    HW222473   0.918   7.711   3.309 -0.5380 -1.6731 -0.2788
 7104SOL     OW22474   5.709   2.092   3.589  0.1395 -0.8386 -0.2452
 7104SOL    HW122475   5.761   2.171   3.572  0.0476 -0.9087 -0.8885
 7104SOL    HW222476   5.698   2.053   3.502 -0.8887 -0.8835 -0.0996
 7105SOL     OW22477   7.777   0.708   3.104 -0.0431 -0.6656 -0.0745
 7105SOL    HW122478   7.689   0.715   3.066 -0.5687  0.6186  1.2816
 7105SOL    HW222479   7.817   0.793   3.087  0.4409 -0.7842  0.4557
 7106SOL     OW22480   6.118   5.663   8.311 -0.1035  0.3275  0.3897
 7106SOL    HW122481   6.072   5.615   8.381  0.2064 -1.3757 -0.5292
 7106SOL    HW222482   6.171   5.727   8.358  0.2915 -0.9418  1.7639
 7107SOL     OW22483   2.892   1.085   7.847 -0.0820  0.4292  0.5317
 7107SOL    HW122484   2.858   1.030   7.918  1.1023  0.5063  1.1918
 7107SOL    HW222485   2.843   1.167   7.855 -0.0692  0.3801  1.1720
 7108SOL     OW22486   1.589   0.971   5.815 -0.0705  0.4687 -0.3759
 7108SOL    HW122487   1.560   0.950   5.726  2.1730  0.8877 -1.2968
 7108SOL    HW222488   1.673   0.926   5.824 -0.4521  0.0625  1.7440
 7109SOL     OW22489   4.846   4.532   0.832  0.6413  0.2791 -0.2287
 7109SOL    HW122490   4.892   4.491   0.758  1.8141 -0.8121  1.0519
 7109SOL    HW222491   4.888   4.618   0.841  1.2686 -0.0330 -0.1374
 7110SOL     OW22492   6.140   3.600   1.089 -0.3860 -0.2914  0.2423
 7110SOL    HW122493   6.146   3.555   1.005 -0.4937  1.7937 -0.9660
 7110SOL    HW222494   6.227   3.593   1.128  0.5683  1.2312 -1.4819
 7111SOL     OW22495   0.972   0.031   8.860 -0.5721 -0.5910  0.5674
 7111SOL    HW122496   0.880   0.011   8.876 -0.5845 -0.1049  1.0948
 7111SOL    HW222497   0.971   0.104   8.799 -0.5905  1.3088  2.7137
 7112SOL     OW22498   4.376   0.381   0.639  0.6203  0.6883 -0.2040
 7112SOL    HW122499   4.288   0.417   0.634  0.9677  1.6134  0.0379
 7112SOL    HW222500   4.384   0.325   0.561  0.0003  1.0075 -0.5057
 7113SOL     OW22501   5.630   0.718   0.003 -0.0693  0.4441  0.1394
 7113SOL    HW122502   5.598   0.746   0.089 -1.3345  0.5984 -0.3551
 7113SOL    HW222503   5.637   0.623   0.009  2.2346  0.6197  1.1683
 7114SOL     OW22504   6.478   4.943   6.103  0.7187 -0.1904  0.4946
 7114SOL    HW122505   6.383   4.932   6.112  0.9174 -0.5691  2.6901
 7114SOL    HW222506   6.514   4.904   6.183  2.5584  2.0872  0.8661
 7115SOL     OW22507   4.379   5.630   0.344  0.4269 -0.0368 -0.0372
 7115SOL    HW122508   4.310   5.630   0.278  1.6125 -0.5774 -1.3408
 7115SOL    HW222509   4.451   5.678   0.303  1.5121 -1.1579  0.4758
 7116SOL     OW22510   3.392   5.730   1.280  0.3837 -0.1659  0.4942
 7116SOL    HW122511   3.445   5.665   1.232  0.8480 -0.5816  1.5264
 7116SOL    HW222512   3.326   5.677   1.325 -0.2739  0.2563  0.0344
 7117SOL     OW22513   1.804   4.995   3.834  0.0457  0.7801 -0.2928
 7117SOL    HW122514   1.883   5.036   3.867  0.1484  0.5364 -0.2350
 7117SOL    HW222515   1.745   4.992   3.909  0.8773 -1.2881  0.3375
 7118SOL     OW22516   2.593   4.531   8.184  0.6343 -0.5118 -0.0746
 7118SOL    HW122517   2.527   4.589   8.145  0.5695  0.5460  1.4881
 7118SOL    HW222518   2.662   4.525   8.118 -0.3300 -0.3987 -1.1221
 7119SOL     OW22519   3.296   2.710   4.779 -0.1186  0.5246 -0.7579
 7119SOL    HW122520   3.374   2.762   4.797 -0.7091  1.2006 -0.0882
 7119SOL    HW222521   3.308   2.630   4.831  0.0600  0.6898 -0.5425
 7120SOL     OW22522   0.786   0.730   6.347  0.2904  0.0606  0.6233
 7120SOL    HW122523   0.823   0.694   6.267 -0.1305  1.1917 -0.1040
 7120SOL    HW222524   0.710   0.675   6.365 -0.2276  0.4354 -0.3565
 7121SOL     OW22525   6.200   1.084   2.331  0.7794  0.1968  0.2392
 7121SOL    HW122526   6.125   1.125   2.289 -0.8489 -0.4248  2.3692
 7121SOL    HW222527   6.263   1.156   2.344  0.6168  0.7205 -1.5796
 7122SOL     OW22528   4.681   6.099   6.511  0.4103  0.7268  0.0439
 7122SOL    HW122529   4.591   6.067   6.519 -0.0638  1.5461 -1.4703
 7122SOL    HW222530   4.722   6.038   6.449  0.9834  0.2178  0.9132
 7123SOL     OW22531   6.802   0.834   2.736 -0.5793 -0.1098  0.2367
 7123SOL    HW122532   6.712   0.804   2.728 -0.9241  1.2265 -1.2936
 7123SOL    HW222533   6.834   0.842   2.646  2.2427 -3.7652  0.6767
 7124SOL     OW22534   7.245   0.249   8.855  0.4258  0.0575 -0.1780
 7124SOL    HW122535   7.332   0.224   8.886  0.0693  0.0924  0.9171
 7124SOL    HW222536   7.189   0.238   8.932 -0.4198  0.6417 -0.6962
 7125SOL     OW22537   8.358   3.834   1.448 -0.8693  0.0916 -0.0796
 7125SOL    HW122538   8.375   3.763   1.509 -1.3275  0.3086  0.3073
 7125SOL    HW222539   8.413   3.906   1.479 -0.2854 -0.1284 -0.5621
 7126SOL     OW22540   0.159   3.343   2.062 -0.0996  0.4672  0.2591
 7126SOL    HW122541   0.223   3.413   2.060  0.9814 -0.4985 -0.7886
 7126SOL    HW222542   0.211   3.262   2.061 -1.3174 -0.3534 -0.4329
 7127SOL     OW22543   7.152   7.528   2.898 -0.0901 -0.1314  0.0240
 7127SOL    HW122544   7.134   7.543   2.805  0.3480  2.5396  0.2707
 7127SOL    HW222545   7.247   7.537   2.906 -0.1590  0.0664  0.7557
 7128SOL     OW22546   2.743   3.646   2.658  0.1987 -0.4875  0.3312
 7128SOL    HW122547   2.663   3.608   2.695  0.8099 -0.8617  1.3163
 7128SOL    HW222548   2.717   3.677   2.571 -0.8334 -1.2563  0.3461
 7129SOL     OW22549   2.297   3.210   7.963  0.3756 -0.0007 -0.1979
 7129SOL    HW122550   2.217   3.204   8.016 -0.4600  0.5910 -1.3586
 7129SOL    HW222551   2.331   3.298   7.982  1.0324 -0.4272  0.6614
 7130SOL     OW22552   3.471   5.797   1.741 -0.2844  0.2247 -0.0837
 7130SOL    HW122553   3.448   5.841   1.823 -1.4043 -1.1556  0.3855
 7130SOL    HW222554   3.549   5.745   1.763  0.6353  1.3885 -0.4635
 7131SOL     OW22555   7.986   3.407   6.798 -0.0199 -0.6045  0.5698
 7131SOL    HW122556   7.930   3.422   6.722 -0.4241 -1.3697  0.7039
 7131SOL    HW222557   7.984   3.312   6.812  1.0046 -0.6070  0.8176
 7132SOL     OW22558   4.934   0.668   1.354 -0.4214  0.5596 -0.1482
 7132SOL    HW122559   4.862   0.685   1.292 -1.4070 -1.6621  0.3089
 7132SOL    HW222560   4.895   0.686   1.440 -0.7173 -1.3579  0.1553
 7133SOL     OW22561   4.545   7.688   4.423 -0.3787 -0.6523  0.1042
 7133SOL    HW122562   4.593   7.650   4.497  1.3916  0.2837 -0.4808
 7133SOL    HW222563   4.588   7.650   4.346 -1.9065 -1.2750 -0.4821
 7134SOL     OW22564   2.250   3.277   2.536  0.1848  0.2990 -0.5769
 7134SOL    HW122565   2.280   3.192   2.568 -2.6900 -1.0097 -1.0305
 7134SOL    HW222566   2.196   3.256   2.460 -0.5523  2.5436 -0.7458
 7135SOL     OW22567   7.078   8.752   4.196  0.5480  0.5201  0.6055
 7135SOL    HW122568   7.103   8.819   4.259  0.0321  1.8128 -0.5018
 7135SOL    HW222569   7.044   8.679   4.249  0.3784  1.4567  1.8147
 7136SOL     OW22570   7.866   1.423   6.999  0.3052  0.0248  0.0378
 7136SOL    HW122571   7.793   1.473   7.037 -0.8242 -0.9114 -0.8044
 7136SOL    HW222572   7.923   1.490   6.961 -1.1164  0.7453 -0.9658
 7137SOL     OW22573   1.701   0.334   3.869 -0.1286  0.4311 -0.0436
 7137SOL    HW122574   1.740   0.390   3.801 -0.2441  0.5020 -0.0513
 7137SOL    HW222575   1.610   0.363   3.875 -0.0221  0.6915  0.4119
 7138SOL     OW22576   5.254   0.250   5.045  0.1620 -0.1335 -0.1262
 7138SOL    HW122577   5.266   0.295   4.961 -1.4721  1.0326  0.1985
 7138SOL    HW222578   5.244   0.322   5.109  0.0097 -0.9885  0.8368
 7139SOL     OW22579   5.212   7.871   7.306  0.1441  0.0598 -0.0113
 7139SOL    HW122580   5.230   7.931   7.234 -0.6960 -0.7778 -0.9411
 7139SOL    HW222581   5.156   7.804   7.268 -0.9249 -0.0119  1.5975
 7140SOL     OW22582   0.768   4.220   4.734  0.2282  0.2528  0.0259
 7140SOL    HW122583   0.828   4.294   4.719  0.5997  0.1368  0.9141
 7140SOL    HW222584   0.683   4.262   4.748  0.3631  0.4931  0.1426
 7141SOL     OW22585   3.282   3.002   6.993  0.0673 -0.1317  0.1650
 7141SOL    HW122586   3.195   2.962   6.987  0.2883 -0.5790 -0.0110
 7141SOL    HW222587   3.343   2.929   6.995  0.5463  0.1854 -1.2498
 7142SOL     OW22588   2.529   4.209   8.053 -0.1346  0.1910  0.1307
 7142SOL    HW122589   2.456   4.152   8.028  1.9640 -2.1846 -1.0182
 7142SOL    HW222590   2.539   4.269   7.979 -0.6733  0.3118  0.1486
 7143SOL     OW22591   2.401   7.727   1.872 -0.0822 -0.4789 -0.0606
 7143SOL    HW122592   2.316   7.743   1.832 -0.5399 -1.7435  0.3591
 7143SOL    HW222593   2.397   7.637   1.903  1.3017 -0.4651  0.2506
 7144SOL     OW22594   7.857   6.275   5.582 -0.4064 -0.2020  0.7258
 7144SOL    HW122595   7.850   6.187   5.545  2.8992 -1.1156  1.9080
 7144SOL    HW222596   7.772   6.290   5.624 -1.5679 -2.1877 -0.7390
 7145SOL     OW22597   4.101   1.776   7.446  0.3810  0.0042 -0.3803
 7145SOL    HW122598   4.077   1.788   7.538  0.9498 -0.8846 -0.1088
 7145SOL    HW222599   4.028   1.815   7.398 -0.2119 -0.0457  0.4470
 7146SOL     OW22600   5.385   6.578   6.882  0.1190 -0.2607  0.8252
 7146SOL    HW122601   5.309   6.623   6.921  0.4343  1.0297  0.0234
 7146SOL    HW222602   5.368   6.581   6.788  2.3859  2.5549  0.3627
 7147SOL     OW22603   2.060   7.176   3.947 -0.1344 -0.4338  0.0331
 7147SOL    HW122604   2.124   7.106   3.959  0.0710 -0.4410 -0.9913
 7147SOL    HW222605   2.106   7.255   3.974 -0.7936 -0.7949  2.4895
 7148SOL     OW22606   6.470   3.460   1.627 -0.2162 -0.7133  0.2724
 7148SOL    HW122607   6.429   3.542   1.655 -0.3878 -1.3696  2.0500
 7148SOL    HW222608   6.513   3.483   1.545  0.7001  1.4577  1.2679
 7149SOL     OW22609   5.624   7.913   3.650 -0.3587  0.2875  0.3138
 7149SOL    HW122610   5.610   7.943   3.560 -0.4146 -0.1324  0.1803
 7149SOL    HW222611   5.700   7.961   3.680 -1.1439  1.4534  0.5121
 7150SOL     OW22612   7.643   6.217   5.772  0.2408 -0.4191 -0.3924
 7150SOL    HW122613   7.682   6.218   5.860 -0.0461 -0.6269 -0.2602
 7150SOL    HW222614   7.598   6.133   5.767 -0.8558  0.1507 -0.2510
 7151SOL     OW22615   0.164   7.963   8.331  0.6018 -0.6791  0.1398
 7151SOL    HW122616   0.146   7.930   8.243 -0.0578 -0.3754  0.1478
 7151SOL    HW222617   0.203   8.049   8.317  0.0160 -0.4038  0.1362
 7152SOL     OW22618   4.192   6.672   4.741  0.5947  0.3587 -0.0981
 7152SOL    HW122619   4.265   6.700   4.796  0.3109 -1.4114  1.2791
 7152SOL    HW222620   4.114   6.704   4.786  0.4069 -0.1118 -0.0797
 7153SOL     OW22621   1.277   0.133   2.366 -0.5236  0.4042 -0.1524
 7153SOL    HW122622   1.196   0.086   2.349 -1.5571  2.4241 -1.2254
 7153SOL    HW222623   1.272   0.160   2.457 -0.1969 -1.0019  0.2942
 7154SOL     OW22624   0.340   6.616   6.366  0.6344  0.3212 -0.4600
 7154SOL    HW122625   0.335   6.583   6.456  0.3444  1.4686 -0.0296
 7154SOL    HW222626   0.431   6.642   6.355  0.4904  0.9464 -0.2036
 7155SOL     OW22627   1.198   8.262   1.465  0.6649  0.7135  0.1489
 7155SOL    HW122628   1.233   8.235   1.380  0.0767  0.7691 -0.1205
 7155SOL    HW222629   1.184   8.356   1.456  1.2930  0.8529  0.5658
 7156SOL     OW22630   2.062   1.211   5.742  0.0100  0.2282  0.1029
 7156SOL    HW122631   1.971   1.195   5.770 -0.0052  0.3843  0.1401
 7156SOL    HW222632   2.053   1.253   5.656  0.0621 -0.6904 -0.3718
 7157SOL     OW22633   0.368   2.648   8.109  0.3345  0.5092  0.3530
 7157SOL    HW122634   0.424   2.705   8.057  0.9483 -0.3253  0.0737
 7157SOL    HW222635   0.290   2.635   8.055  0.6692  0.2104 -0.0735
 7158SOL     OW22636   7.413   1.464   3.846 -0.1619 -0.0261 -0.3685
 7158SOL    HW122637   7.478   1.482   3.778 -1.4518 -1.4015 -2.0760
 7158SOL    HW222638   7.329   1.484   3.804 -0.8968  1.1869  1.5869
 7159SOL     OW22639   0.301   2.647   7.245  0.2298  0.3887  0.3155
 7159SOL    HW122640   0.293   2.560   7.283  1.6835  0.6411  1.2667
 7159SOL    HW222641   0.260   2.639   7.159 -0.0520 -1.1157  0.5586
 7160SOL     OW22642   7.170   3.913   2.532 -0.0966 -0.2366  0.1954
 7160SOL    HW122643   7.081   3.890   2.506  0.1436  0.3287 -1.2241
 7160SOL    HW222644   7.224   3.888   2.457  0.7398  0.7797  0.4337
 7161SOL     OW22645   3.586   1.869   6.616 -0.0402  0.2524 -0.5108
 7161SOL    HW122646   3.600   1.803   6.548 -1.2880  0.0993 -0.6463
 7161SOL    HW222647   3.604   1.823   6.698 -0.5877 -0.1826 -0.6231
 7162SOL     OW22648   2.715   4.128   6.093  0.7317 -0.0790 -0.4148
 7162SOL    HW122649   2.657   4.081   6.033  1.3957  0.1509 -1.2634
 7162SOL    HW222650   2.657   4.187   6.141 -0.0206 -1.2987  0.2214
 7163SOL     OW22651   1.217   0.231   6.329 -0.0272 -0.1453 -0.0842
 7163SOL    HW122652   1.125   0.248   6.313 -0.2170 -0.0397  0.9913
 7163SOL    HW222653   1.218   0.184   6.413  1.0187  2.2593  1.3741
 7164SOL     OW22654   4.796   2.689   0.366 -0.1122 -0.0930  0.0064
 7164SOL    HW122655   4.784   2.733   0.450 -0.5392 -1.7291  0.8215
 7164SOL    HW222656   4.891   2.676   0.360  0.0783  1.2861 -0.4615
 7165SOL     OW22657   3.861   7.954   5.568  0.2667 -0.8026 -0.1265
 7165SOL    HW122658   3.916   8.030   5.547  0.8514 -1.2456 -0.2438
 7165SOL    HW222659   3.858   7.903   5.487 -1.4388 -0.1268 -0.5274
 7166SOL     OW22660   3.854   0.415   4.046 -0.1003 -0.0455  0.1170
 7166SOL    HW122661   3.835   0.336   3.995 -0.9221 -0.3677  0.8908
 7166SOL    HW222662   3.945   0.404   4.074  0.3621  0.1403 -1.2580
 7167SOL     OW22663   7.701   1.851   3.811  0.0811  0.2000 -0.7450
 7167SOL    HW122664   7.726   1.864   3.719  2.6120  0.2488 -0.1094
 7167SOL    HW222665   7.693   1.940   3.846 -0.2926  0.1772 -0.7737
 7168SOL     OW22666   7.570   5.560   3.551  0.3916 -0.0464 -0.5420
 7168SOL    HW122667   7.555   5.612   3.473 -1.7391  0.0460 -0.1411
 7168SOL    HW222668   7.511   5.485   3.541  1.0809 -0.7224  0.3457
 7169SOL     OW22669   7.917   4.156   2.500  0.4154 -0.2484 -0.7862
 7169SOL    HW122670   7.965   4.097   2.441  0.1679 -0.9357 -0.3142
 7169SOL    HW222671   7.969   4.157   2.580  1.0892  1.1851 -1.2114
 7170SOL     OW22672   6.033   2.154   0.122  0.3912  0.2386 -0.0756
 7170SOL    HW122673   6.049   2.189   0.035 -0.2718  0.5565 -0.0783
 7170SOL    HW222674   5.937   2.145   0.127  0.4468 -0.1053  0.4874
 7171SOL     OW22675   5.542   2.200   0.760 -0.1953  0.4664 -0.3889
 7171SOL    HW122676   5.602   2.164   0.696 -0.6363 -1.1233  0.0590
 7171SOL    HW222677   5.524   2.128   0.820 -2.0696  1.0770 -0.1566
 7172SOL     OW22678   1.245   2.473   1.855  0.2964 -0.4889  0.0225
 7172SOL    HW122679   1.257   2.449   1.947  2.0788  0.9024  0.2142
 7172SOL    HW222680   1.224   2.390   1.811  0.3677 -1.3386  1.5128
 7173SOL     OW22681   1.522   0.495   7.924  0.3657 -0.2864 -0.2120
 7173SOL    HW122682   1.607   0.520   7.888  0.4379  0.0942  0.2145
 7173SOL    HW222683   1.542   0.464   8.012 -0.0825  1.0426  0.3839
 7174SOL     OW22684   5.490   5.712   2.592  0.0195 -0.1129  0.1285
 7174SOL    HW122685   5.512   5.796   2.632  0.9757 -0.5382  0.5258
 7174SOL    HW222686   5.514   5.647   2.658 -0.1922 -0.7211 -0.3889
 7175SOL     OW22687   3.452   0.651   7.606  0.0593  0.0123  0.0234
 7175SOL    HW122688   3.544   0.675   7.612 -0.6633  2.8626  1.2591
 7175SOL    HW222689   3.428   0.628   7.696 -0.6315  0.1226 -0.1299
 7176SOL     OW22690   7.357   2.189   4.233  0.3657  0.2898  0.2453
 7176SOL    HW122691   7.280   2.209   4.180  1.0108  0.3250 -0.7119
 7176SOL    HW222692   7.431   2.206   4.174  1.1547  1.3545  1.4831
 7177SOL     OW22693   0.473   3.177   6.631 -0.1689 -0.8903 -0.0422
 7177SOL    HW122694   0.468   3.272   6.631 -1.0989 -0.8630  2.1733
 7177SOL    HW222695   0.552   3.156   6.582  1.7645  1.2045  1.9519
 7178SOL     OW22696   4.163   5.681   6.717 -0.2073 -0.3517  0.0017
 7178SOL    HW122697   4.111   5.755   6.685  1.5396  0.5695 -0.7955
 7178SOL    HW222698   4.223   5.661   6.645 -1.1442 -3.1198 -0.1545
 7179SOL     OW22699   8.288   5.098   6.958  0.3661  0.0147  0.0490
 7179SOL    HW122700   8.342   5.169   6.924  1.6235 -0.3161  1.2866
 7179SOL    HW222701   8.263   5.048   6.880  2.0968  0.0173 -0.5442
 7180SOL     OW22702   1.869   2.373   5.947  0.1258 -0.2941 -0.3229
 7180SOL    HW122703   1.878   2.384   5.852  1.5438 -1.1755 -0.3205
 7180SOL    HW222704   1.862   2.278   5.959  2.4238 -0.4164  0.5921
 7181SOL     OW22705   1.279   6.793   6.230 -0.3541  0.1425 -0.3024
 7181SOL    HW122706   1.226   6.844   6.292  0.0541 -0.5840  0.6752
 7181SOL    HW222707   1.216   6.759   6.167 -1.0359 -0.5346  0.7250
 7182SOL     OW22708   4.208   6.513   5.465 -0.2847  0.5482 -0.3936
 7182SOL    HW122709   4.143   6.479   5.403  1.7562  0.2099 -2.4983
 7182SOL    HW222710   4.163   6.514   5.549 -1.4281 -4.7820 -0.6362
 7183SOL     OW22711   0.704   7.728   8.358 -0.4956  0.4567 -0.0403
 7183SOL    HW122712   0.754   7.661   8.404  0.6594  1.2857 -0.0676
 7183SOL    HW222713   0.613   7.699   8.367 -0.1250 -0.4732  0.9793
 7184SOL     OW22714   4.433   6.714   3.795  0.2480  0.5570 -0.3663
 7184SOL    HW122715   4.344   6.680   3.807  0.8521 -0.2408  2.7709
 7184SOL    HW222716   4.437   6.790   3.853  2.6175 -1.6686  2.7380
 7185SOL     OW22717   0.135   8.685   1.478 -0.4159 -0.2800 -0.0254
 7185SOL    HW122718   0.124   8.669   1.385  0.4752 -0.2387 -0.1486
 7185SOL    HW222719   0.145   8.598   1.516 -0.6317 -0.2877  0.0185
 7186SOL     OW22720   2.293   2.314   5.066 -0.2357  0.6521 -0.2533
 7186SOL    HW122721   2.340   2.384   5.021  1.6662 -1.0810 -1.1545
 7186SOL    HW222722   2.240   2.358   5.131 -0.7402  3.0548 -2.1526
 7187SOL     OW22723   5.118   1.068   3.217  0.1156  0.3422 -0.0094
 7187SOL    HW122724   5.184   1.132   3.246 -1.2266  1.2674  1.1142
 7187SOL    HW222725   5.159   0.983   3.231  0.5316  0.8491  2.1253
 7188SOL     OW22726   0.926   4.117   3.899  0.8736 -0.0893  0.0750
 7188SOL    HW122727   0.864   4.184   3.869  0.6095  0.1723  1.1725
 7188SOL    HW222728   0.893   4.090   3.984  0.9512 -1.6770 -0.3740
 7189SOL     OW22729   4.314   2.655   4.383 -0.4319  0.0351 -0.0636
 7189SOL    HW122730   4.220   2.651   4.367 -0.4460  0.8375 -0.1979
 7189SOL    HW222731   4.327   2.736   4.433  0.2443  0.1775 -0.4586
 7190SOL     OW22732   3.269   4.713   0.977  0.1176 -0.0611 -0.2445
 7190SOL    HW122733   3.186   4.689   1.018  1.0527 -1.6665  0.7887
 7190SOL    HW222734   3.252   4.799   0.939 -2.4575 -0.9791 -1.3754
 7191SOL     OW22735   5.109   2.896   5.439 -0.3118  0.0901  0.0332
 7191SOL    HW122736   5.155   2.945   5.371  1.3676  0.0105  1.0540
 7191SOL    HW222737   5.061   2.963   5.488  0.8937  0.5738  0.5954
 7192SOL     OW22738   2.971   6.771   3.234 -0.9166  0.3588 -0.0485
 7192SOL    HW122739   2.965   6.849   3.290  0.5909  0.0637  0.5920
 7192SOL    HW222740   2.981   6.806   3.146  1.4234  1.0245  0.3875
 7193SOL     OW22741   8.386   1.210   2.424  0.7370 -0.4943  0.1480
 7193SOL    HW122742   8.451   1.278   2.404  0.1032  0.1007  0.0711
 7193SOL    HW222743   8.348   1.188   2.340  1.8484 -1.9155 -0.0194
 7194SOL     OW22744   1.691   4.101   1.023 -0.3725  0.6717  0.0296
 7194SOL    HW122745   1.596   4.111   1.018 -0.3227  2.0067  1.2481
 7194SOL    HW222746   1.726   4.186   0.995  0.5961 -0.4497 -2.6061
 7195SOL     OW22747   8.215   4.674   7.455  0.2018  0.0810 -0.5240
 7195SOL    HW122748   8.236   4.684   7.362  2.2137  0.0530 -0.1217
 7195SOL    HW222749   8.296   4.698   7.501 -0.6993 -0.0299  1.2228
 7196SOL     OW22750   7.705   4.985   1.745  0.0368  0.4708  0.3531
 7196SOL    HW122751   7.695   4.967   1.652 -0.6084  1.0192  0.3078
 7196SOL    HW222752   7.624   5.029   1.770  0.9989  2.1298  0.7318
 7197SOL     OW22753   0.907   5.630   1.447  0.0998  0.0566  0.1292
 7197SOL    HW122754   0.971   5.635   1.376  0.2484 -3.4869 -0.1647
 7197SOL    HW222755   0.946   5.570   1.510 -0.3213  2.6088  3.0360
 7198SOL     OW22756   6.458   5.307   2.419  0.3322 -0.2481 -0.4883
 7198SOL    HW122757   6.432   5.354   2.499  4.4282  0.4408  0.6615
 7198SOL    HW222758   6.517   5.238   2.450  1.4337 -0.4622 -2.8772
 7199SOL     OW22759   4.491   7.949   3.812 -0.6168 -0.0746 -0.0741
 7199SOL    HW122760   4.428   8.021   3.812 -0.6460 -0.0830  0.8670
 7199SOL    HW222761   4.453   7.885   3.872 -0.0800 -0.4162 -0.0946
 7200SOL     OW22762   5.211   5.497   7.172  0.6154  0.7097  0.4958
 7200SOL    HW122763   5.130   5.467   7.131  0.6859 -1.3337  1.7299
 7200SOL    HW222764   5.229   5.581   7.129 -0.7844  0.0377 -1.5888
 7201SOL     OW22765   3.869   3.491   1.273 -0.5674  0.2068 -0.3710
 7201SOL    HW122766   3.784   3.533   1.260 -0.4397  0.3320 -0.8373
 7201SOL    HW222767   3.907   3.485   1.185  0.1109  0.6027 -0.1214
 7202SOL     OW22768   8.777   4.254   3.606  0.0226 -0.0527 -0.2736
 7202SOL    HW122769   8.864   4.278   3.636 -0.0789 -0.6203  0.5052
 7202SOL    HW222770   8.793   4.195   3.532  0.2958  0.0150 -0.2672
 7203SOL     OW22771   0.605   5.603   0.213  0.0218 -0.3378  0.2121
 7203SOL    HW122772   0.629   5.517   0.180 -0.0783 -0.1330 -0.4032
 7203SOL    HW222773   0.682   5.632   0.263  0.3782 -0.4353 -0.2708
 7204SOL     OW22774   3.322   3.805   6.258  0.1546 -0.3976  0.0560
 7204SOL    HW122775   3.345   3.744   6.328 -2.5647 -0.8385  0.6808
 7204SOL    HW222776   3.341   3.758   6.177  1.7524 -0.5195  0.4654
 7205SOL     OW22777   6.001   6.351   7.980  0.1276 -0.4175 -0.2545
 7205SOL    HW122778   5.934   6.369   7.914 -1.9400 -0.9559  1.5644
 7205SOL    HW222779   6.054   6.430   7.982  0.4800 -0.5077 -2.7421
 7206SOL     OW22780   8.379   2.890   3.451  0.2652 -0.0692 -0.0001
 7206SOL    HW122781   8.354   2.982   3.443 -0.6331  0.2635  4.2119
 7206SOL    HW222782   8.441   2.889   3.524  0.1040 -2.8555  0.1856
 7207SOL     OW22783   6.058   7.190   6.244 -0.1768  0.1742  0.1214
 7207SOL    HW122784   6.126   7.217   6.183 -0.0255 -0.3720  0.0464
 7207SOL    HW222785   6.054   7.261   6.309 -0.3566  0.7660 -0.5314
 7208SOL     OW22786   0.394   7.263   7.366 -0.2189 -0.5833  0.2344
 7208SOL    HW122787   0.457   7.195   7.389 -0.0404 -0.7016 -0.5606
 7208SOL    HW222788   0.368   7.243   7.276 -0.5796  0.0796  0.1789
 7209SOL     OW22789   6.104   6.015   1.458 -0.0794  0.0664 -0.0298
 7209SOL    HW122790   6.088   6.099   1.416 -0.4390 -0.6465 -1.3560
 7209SOL    HW222791   6.031   6.004   1.519  0.8028  1.4119  1.3680
 7210SOL     OW22792   3.830   7.280   3.800  0.3460 -0.1462  0.3340
 7210SOL    HW122793   3.809   7.345   3.732  0.2483 -0.5643 -0.0362
 7210SOL    HW222794   3.808   7.324   3.882 -3.1434 -0.9478 -0.0353
 7211SOL     OW22795   7.056   2.916   6.984  0.1112  0.0425 -0.0615
 7211SOL    HW122796   7.127   2.866   7.024 -0.7227 -0.2002  1.1683
 7211SOL    HW222797   7.064   3.004   7.022  0.8850  0.5676 -1.3660
 7212SOL     OW22798   5.177   2.738   4.955  0.2841 -0.4077 -0.0607
 7212SOL    HW122799   5.199   2.658   4.908  1.5141 -0.0874 -0.0453
 7212SOL    HW222800   5.251   2.752   5.014  0.0265  0.6864  0.0081
 7213SOL     OW22801   6.276   3.098   8.548 -0.5079  0.3046  0.0612
 7213SOL    HW122802   6.195   3.143   8.568 -0.2246  0.7036  0.3387
 7213SOL    HW222803   6.313   3.076   8.634 -0.4022 -0.0160 -0.0637
 7214SOL     OW22804   1.852   6.808   6.795 -0.3199  0.3917 -0.2869
 7214SOL    HW122805   1.874   6.877   6.857 -0.0141  0.8227 -0.8631
 7214SOL    HW222806   1.892   6.729   6.832  0.2605  0.7339 -0.1786
 7215SOL     OW22807   6.911   1.448   3.760 -0.1746  0.1580  0.2959
 7215SOL    HW122808   6.868   1.368   3.730 -0.4108  0.7974 -1.1263
 7215SOL    HW222809   6.842   1.497   3.805 -0.5604  0.4938 -0.6501
 7216SOL     OW22810   1.803   8.438   1.538  0.0277 -0.1740 -0.7261
 7216SOL    HW122811   1.885   8.437   1.489  0.5076 -0.9731  0.0699
 7216SOL    HW222812   1.809   8.514   1.595  0.0435 -0.0219 -0.9266
 7217SOL     OW22813   4.070   8.163   5.531 -0.0011 -0.6485 -0.2529
 7217SOL    HW122814   4.103   8.079   5.500  2.6195  0.6123 -1.1903
 7217SOL    HW222815   4.048   8.211   5.451 -3.0832 -0.9293  0.3058
 7218SOL     OW22816   4.166   2.238   1.416 -0.4862  0.5526  0.1480
 7218SOL    HW122817   4.234   2.173   1.397 -0.4453  0.8419 -0.7535
 7218SOL    HW222818   4.127   2.209   1.498 -0.2385 -0.4237 -0.0691
 7219SOL     OW22819   2.249   7.212   1.925  0.0375  0.2065 -0.0849
 7219SOL    HW122820   2.217   7.226   1.836 -0.8652  0.2966  0.2471
 7219SOL    HW222821   2.292   7.127   1.922 -0.8621 -0.2541 -0.3757
 7220SOL     OW22822   3.859   2.380   2.635 -0.4047  0.2002 -0.2484
 7220SOL    HW122823   3.770   2.352   2.656  0.0139 -1.7459 -0.8880
 7220SOL    HW222824   3.892   2.419   2.716 -1.4254 -0.1286  0.3357
 7221SOL     OW22825   8.779   6.754   4.068  0.2787  0.3137 -0.6995
 7221SOL    HW122826   8.809   6.669   4.036  0.7509  0.1868  0.0565
 7221SOL    HW222827   8.683   6.749   4.065  0.2501 -0.8250  0.7466
 7222SOL     OW22828   8.382   7.680   0.643  0.0298  0.3690 -0.3146
 7222SOL    HW122829   8.299   7.727   0.644  0.9843  2.2353  1.1924
 7222SOL    HW222830   8.393   7.651   0.553 -2.0940  0.3144 -0.6036
 7223SOL     OW22831   1.293   2.081   2.162  0.4450  0.2421  0.2100
 7223SOL    HW122832   1.240   2.107   2.236 -1.0034 -1.4152 -0.1920
 7223SOL    HW222833   1.355   2.153   2.150 -1.0161  1.7491  1.3486
 7224SOL     OW22834   6.722   3.525   5.130 -0.2830  0.3039 -0.1666
 7224SOL    HW122835   6.735   3.452   5.190 -0.3450  1.0217  0.7417
 7224SOL    HW222836   6.722   3.485   5.043  1.5979 -0.5626  0.1698
 7225SOL     OW22837   0.411   0.526   3.322  0.5235  0.3203  0.0289
 7225SOL    HW122838   0.441   0.443   3.284  1.5002  1.4819 -1.8714
 7225SOL    HW222839   0.316   0.515   3.329  0.6689 -1.0992  0.1896
 7226SOL     OW22840   6.981   4.556   1.918  0.7187 -0.3193 -0.1355
 7226SOL    HW122841   6.906   4.502   1.944 -0.4130  1.2690  0.0646
 7226SOL    HW222842   7.057   4.500   1.933 -0.3462 -1.6343  0.6323
 7227SOL     OW22843   7.450   2.683   1.126 -0.2665 -0.0895  0.5011
 7227SOL    HW122844   7.433   2.764   1.078  0.0702 -0.0402  0.4636
 7227SOL    HW222845   7.540   2.660   1.103  0.6046  0.9767  2.6328
 7228SOL     OW22846   0.536   0.982   3.097  0.0824  0.0606 -0.2598
 7228SOL    HW122847   0.557   0.938   3.015  0.8122  0.2520 -0.1815
 7228SOL    HW222848   0.526   0.910   3.161  0.4537 -0.0380 -0.3106
 7229SOL     OW22849   2.840   4.240   5.664 -0.7141 -0.1631 -0.2260
 7229SOL    HW122850   2.826   4.294   5.742 -0.0625  1.0637 -0.9239
 7229SOL    HW222851   2.763   4.184   5.659 -1.5079  0.8323  0.4287
 7230SOL     OW22852   2.389   2.198   5.996  0.0138  0.0359 -0.2112
 7230SOL    HW122853   2.365   2.290   5.983 -1.0690 -0.0161  1.0839
 7230SOL    HW222854   2.466   2.201   6.053  0.7417  0.1481 -1.1874
 7231SOL     OW22855   5.383   0.998   4.744 -0.1312 -0.3797 -0.5564
 7231SOL    HW122856   5.292   1.008   4.774  0.0222 -1.3838  0.2859
 7231SOL    HW222857   5.402   0.906   4.757  1.0167 -0.1796 -0.7630
 7232SOL     OW22858   2.970   1.928   6.973  0.2882  0.7253  0.6079
 7232SOL    HW122859   3.018   1.850   6.943  0.8061  1.6307 -1.0725
 7232SOL    HW222860   2.992   1.935   7.065  0.2057 -1.1280  0.8223
 7233SOL     OW22861   3.755   7.275   5.515  0.0624 -0.0606 -0.0689
 7233SOL    HW122862   3.700   7.200   5.495 -0.4600  0.6952 -1.6522
 7233SOL    HW222863   3.705   7.351   5.483  1.1339  0.8385  0.3018
 7234SOL     OW22864   5.195   4.312   3.073 -0.7141 -0.2877  0.3538
 7234SOL    HW122865   5.229   4.364   3.001 -1.2385  1.1570  1.1135
 7234SOL    HW222866   5.205   4.221   3.044  1.7094  0.1409 -0.3362
 7235SOL     OW22867   8.353   1.147   0.658  0.7822  0.0802  0.0474
 7235SOL    HW122868   8.398   1.111   0.734  1.7823 -0.5512 -0.8025
 7235SOL    HW222869   8.392   1.101   0.583 -0.4965  0.3370 -0.8173
 7236SOL     OW22870   0.565   6.619   6.765  0.1546  0.0893  0.0646
 7236SOL    HW122871   0.537   6.659   6.682  2.1994  0.3524 -0.5528
 7236SOL    HW222872   0.547   6.686   6.831 -1.8560 -0.2663 -0.0516
 7237SOL     OW22873   6.296   6.890   7.675  0.8004  0.3201 -0.5028
 7237SOL    HW122874   6.276   6.818   7.616  2.7160 -0.3629 -0.3886
 7237SOL    HW222875   6.210   6.923   7.703 -0.1162 -0.9148 -1.7354
 7238SOL     OW22876   7.491   7.699   1.897  0.1929 -0.2142 -0.2434
 7238SOL    HW122877   7.462   7.633   1.960  0.9838 -0.0708  0.2848
 7238SOL    HW222878   7.505   7.778   1.949  2.1012 -0.4372 -0.3504
 7239SOL     OW22879   3.068   2.399   6.343  0.4323  0.1297 -0.5344
 7239SOL    HW122880   3.080   2.412   6.249 -1.8148 -0.7975 -1.0377
 7239SOL    HW222881   2.979   2.431   6.361 -0.1159 -1.8819  0.7548
 7240SOL     OW22882   5.217   7.098   5.344  0.2288  0.3263 -0.1917
 7240SOL    HW122883   5.254   7.156   5.278  0.4209  0.1625 -0.2314
 7240SOL    HW222884   5.256   7.126   5.427  2.9594 -1.8166 -0.6100
 7241SOL     OW22885   6.824   5.858   5.570 -0.2317 -0.4551 -0.4883
 7241SOL    HW122886   6.881   5.783   5.556 -0.8843 -1.3141  1.2245
 7241SOL    HW222887   6.869   5.911   5.636 -0.8557 -0.5423  0.0136
 7242SOL     OW22888   4.351   8.414   3.271  0.0788 -0.3534 -0.3130
 7242SOL    HW122889   4.275   8.469   3.287  0.2673 -0.1003 -0.2764
 7242SOL    HW222890   4.424   8.476   3.266  0.1631 -0.5023 -1.1850
 7243SOL     OW22891   5.071   0.544   0.005  0.0036  0.0122 -0.8630
 7243SOL    HW122892   4.982   0.580   0.008 -0.2073 -0.5620  0.5028
 7243SOL    HW222893   5.070   0.483  -0.069 -0.5279  0.5253 -1.2835
 7244SOL     OW22894   0.870   5.214   0.307 -0.2997 -0.1541  0.3148
 7244SOL    HW122895   0.815   5.245   0.235 -1.8065  2.9266  2.5818
 7244SOL    HW222896   0.815   5.153   0.356 -0.6615  0.6497  0.9255
 7245SOL     OW22897   6.003   2.753   3.142 -0.2768 -0.2202  0.7161
 7245SOL    HW122898   6.010   2.662   3.171 -2.0124 -0.5905  0.1536
 7245SOL    HW222899   6.037   2.752   3.052  0.8466 -0.0423  1.1326
 7246SOL     OW22900   7.613   1.615   3.977 -0.1640 -0.1451  0.1632
 7246SOL    HW122901   7.629   1.653   3.891 -1.5216  1.0767  0.3976
 7246SOL    HW222902   7.624   1.688   4.038  0.3747 -0.8971  0.9843
 7247SOL     OW22903   2.305   5.806   5.296  0.3873  0.0162 -0.5174
 7247SOL    HW122904   2.260   5.827   5.378 -3.6495 -1.2959 -2.1579
 7247SOL    HW222905   2.308   5.889   5.248 -2.2857 -0.1931 -1.1654
 7248SOL     OW22906   0.997   3.938   0.521 -0.3715  0.0684 -0.0613
 7248SOL    HW122907   0.925   3.985   0.478  1.0358  0.6268 -1.9301
 7248SOL    HW222908   0.953   3.875   0.579 -2.3969 -0.4721 -2.0512
 7249SOL     OW22909   7.677   0.820   5.859  0.1547  0.0831 -0.1761
 7249SOL    HW122910   7.703   0.812   5.950  0.0744  0.4139 -0.1221
 7249SOL    HW222911   7.609   0.888   5.859 -0.3209 -0.3848 -0.3877
 7250SOL     OW22912   0.273   2.814   8.438  0.1256 -0.4456  0.5494
 7250SOL    HW122913   0.341   2.876   8.465  0.4308  0.1560 -1.4276
 7250SOL    HW222914   0.198   2.869   8.416 -0.1966 -0.9175  0.4585
 7251SOL     OW22915   4.066   8.322   0.334 -0.0172 -0.2831  0.1460
 7251SOL    HW122916   3.984   8.350   0.376  0.0967 -0.5279  0.5339
 7251SOL    HW222917   4.043   8.239   0.291 -0.4230  0.5109 -1.2265
 7252SOL     OW22918   2.075   2.783   6.696  0.2184  0.3113  0.8912
 7252SOL    HW122919   2.096   2.855   6.637 -0.0239  0.6358  1.2029
 7252SOL    HW222920   2.156   2.732   6.701 -0.5105 -1.4517 -2.0929
 7253SOL     OW22921   7.243   6.482   4.382 -0.1617  0.2458 -0.5002
 7253SOL    HW122922   7.312   6.425   4.415  0.6913  1.3359 -0.3476
 7253SOL    HW222923   7.254   6.482   4.287 -0.9470 -0.8033 -0.6036
 7254SOL     OW22924   8.769   3.683   4.117 -0.4870 -0.0143  0.3005
 7254SOL    HW122925   8.845   3.739   4.134 -0.4288 -0.4095  1.4302
 7254SOL    HW222926   8.806   3.597   4.098 -0.6496 -0.5496  2.2092
 7255SOL     OW22927   0.224   1.851   4.557  0.2365  0.5020 -0.2347
 7255SOL    HW122928   0.297   1.895   4.600  1.1079 -0.8467 -0.3049
 7255SOL    HW222929   0.264   1.781   4.506 -1.1512 -0.7534  0.3213
 7256SOL     OW22930   7.602   3.513   4.568  0.2901 -0.4524 -0.0239
 7256SOL    HW122931   7.668   3.546   4.629 -0.3589 -0.3668  0.6522
 7256SOL    HW222932   7.647   3.506   4.485  0.7484  1.1100  0.0629
 7257SOL     OW22933   0.792   3.179   5.552 -0.3178  0.1663 -0.1631
 7257SOL    HW122934   0.764   3.261   5.512  0.3915 -0.4796 -2.1066
 7257SOL    HW222935   0.712   3.126   5.556 -0.3160  0.0242 -1.3846
 7258SOL     OW22936   6.635   0.343   7.383 -0.3064 -0.3175  0.2492
 7258SOL    HW122937   6.699   0.274   7.399  1.6993  1.6482  1.3683
 7258SOL    HW222938   6.683   0.408   7.331 -2.5710 -0.3481 -2.0601
 7259SOL     OW22939   5.673   8.128   6.444  0.1647 -0.0319 -0.3084
 7259SOL    HW122940   5.655   8.117   6.350 -1.4137 -0.0069 -0.0360
 7259SOL    HW222941   5.714   8.046   6.470  0.9050  0.0790 -1.0715
 7260SOL     OW22942   5.258   3.425   7.264 -0.1211 -0.1976 -0.1210
 7260SOL    HW122943   5.242   3.347   7.211  1.2453 -0.1628 -0.6273
 7260SOL    HW222944   5.236   3.498   7.207  0.9594 -0.1711 -0.5304
 7261SOL     OW22945   2.703   1.497   5.928 -0.4187  0.4875  0.1589
 7261SOL    HW122946   2.788   1.453   5.925 -0.6270  0.0222  0.8931
 7261SOL    HW222947   2.679   1.497   6.021 -0.1228  2.7281  0.2984
 7262SOL     OW22948   3.294   4.406   0.597  0.2839 -0.6282  0.3603
 7262SOL    HW122949   3.383   4.399   0.633  1.0050  0.5366 -1.0625
 7262SOL    HW222950   3.274   4.499   0.602 -1.5398 -1.0401  2.0801
 7263SOL     OW22951   1.552   1.603   3.485 -0.1924  0.0114  0.1499
 7263SOL    HW122952   1.628   1.621   3.429  0.6561 -1.3219  0.8145
 7263SOL    HW222953   1.477   1.635   3.435  0.8772  2.3611 -0.0659
 7264SOL     OW22954   1.500   7.296   0.568  0.4870 -0.3592  0.2250
 7264SOL    HW122955   1.460   7.238   0.503  0.2502  1.6172 -1.5482
 7264SOL    HW222956   1.444   7.288   0.645 -0.0611 -1.7692 -0.2870
 7265SOL     OW22957   5.000   8.165   8.065 -0.3456 -0.0878 -0.1537
 7265SOL    HW122958   5.066   8.233   8.071 -0.3914 -0.0733  0.2146
 7265SOL    HW222959   4.931   8.193   8.126 -0.2885 -0.5404  0.1269
 7266SOL     OW22960   6.097   2.856   2.112  0.2882  0.4821  0.4334
 7266SOL    HW122961   6.032   2.847   2.182  1.3128 -0.7764  1.2737
 7266SOL    HW222962   6.176   2.884   2.157  1.4239 -1.9323  0.0648
 7267SOL     OW22963   5.066   2.252   2.343 -0.2745  0.2693  0.0786
 7267SOL    HW122964   5.034   2.330   2.299 -0.9737 -0.1108 -0.0994
 7267SOL    HW222965   4.988   2.209   2.376 -0.2219 -1.7473 -2.1415
 7268SOL     OW22966   5.593   6.607   4.667 -1.4855 -0.4604  0.3630
 7268SOL    HW122967   5.501   6.580   4.672 -1.1286 -1.7683  0.3019
 7268SOL    HW222968   5.610   6.617   4.573 -1.6758  0.1947  0.3972
 7269SOL     OW22969   6.917   6.270   5.064  0.5649 -0.5404  0.0864
 7269SOL    HW122970   6.990   6.332   5.072  0.8307 -1.0365  2.1293
 7269SOL    HW222971   6.959   6.188   5.039  0.8359 -0.9614  1.7925
 7270SOL     OW22972   5.606   3.421   2.954 -0.1974 -0.1702  0.0588
 7270SOL    HW122973   5.588   3.371   2.875 -1.3548  1.0460 -0.4935
 7270SOL    HW222974   5.609   3.512   2.924 -0.4269  0.2874  1.3687
 7271SOL     OW22975   0.174   0.197   8.296  0.8294  0.3544 -0.2874
 7271SOL    HW122976   0.237   0.133   8.330 -0.8038 -0.4892  1.3750
 7271SOL    HW222977   0.105   0.144   8.256 -1.2561  0.8247  2.3297
 7272SOL     OW22978   1.801   0.831   7.733 -0.2957 -0.3105  0.2539
 7272SOL    HW122979   1.817   0.765   7.800 -0.8084 -0.8077 -0.1009
 7272SOL    HW222980   1.712   0.862   7.749 -1.0287 -1.5545 -1.0993
 7273SOL     OW22981   2.538   1.026   5.114  0.2766 -0.0214  0.2089
 7273SOL    HW122982   2.489   0.972   5.176 -0.1906  1.1538  0.9049
 7273SOL    HW222983   2.483   1.030   5.036 -0.7862  1.2546  0.9705
 7274SOL     OW22984   3.787   5.564   2.622  0.2923  0.8068 -0.6072
 7274SOL    HW122985   3.799   5.629   2.553  0.0997  0.3736 -1.0519
 7274SOL    HW222986   3.849   5.590   2.690 -0.3231  1.9217 -0.4383
 7275SOL     OW22987   6.741   6.645   4.391 -0.3356  0.3830  0.3743
 7275SOL    HW122988   6.685   6.719   4.417  0.3840  0.1518  2.7672
 7275SOL    HW222989   6.793   6.626   4.468  1.7110 -0.6688 -1.1778
 7276SOL     OW22990   2.846   0.453   1.104 -0.6256 -0.4768  0.1945
 7276SOL    HW122991   2.868   0.529   1.158 -0.8923  1.2551 -1.9966
 7276SOL    HW222992   2.860   0.378   1.162  0.3631  1.1680  2.2326
 7277SOL     OW22993   1.834   1.434   7.067 -0.1961  0.5161 -0.1829
 7277SOL    HW122994   1.868   1.449   7.155  2.1715 -0.6894 -0.8184
 7277SOL    HW222995   1.837   1.339   7.056  1.0098  0.7206 -2.0687
 7278SOL     OW22996   6.218   8.477   3.004  0.2633 -0.0569  0.0379
 7278SOL    HW122997   6.185   8.407   2.947 -0.0077  1.0075 -1.1727
 7278SOL    HW222998   6.142   8.504   3.056 -0.2063  0.7773 -1.0433
 7279SOL     OW22999   7.704   0.226   2.923  0.4526  0.4058 -0.1509
 7279SOL    HW123000   7.774   0.284   2.953  0.5284  0.7008 -0.8722
 7279SOL    HW223001   7.660   0.198   3.003  1.1885  0.4772  0.2879
 7280SOL     OW23002   1.530   6.946   8.002  0.0978  0.0039  0.0060
 7280SOL    HW123003   1.623   6.927   7.991 -0.1689 -1.3591 -0.0314
 7280SOL    HW223004   1.517   7.030   7.957  0.9257 -0.7519 -1.7172
 7281SOL     OW23005   6.531   5.097   5.387 -0.0067  0.3096  0.1668
 7281SOL    HW123006   6.603   5.134   5.336  0.7475 -0.1629  0.8428
 7281SOL    HW223007   6.564   5.097   5.477 -2.1933  3.4235  1.1329
 7282SOL     OW23008   7.599   7.875   8.749  0.0909 -0.1103  0.5769
 7282SOL    HW123009   7.693   7.888   8.763  0.4110 -1.4566 -0.1411
 7282SOL    HW223010   7.572   7.816   8.820 -0.1792  0.1195  0.6686
 7283SOL     OW23011   2.550   8.528   8.179  0.0420  0.0803  0.0699
 7283SOL    HW123012   2.499   8.510   8.100  0.0831  1.2547 -0.2354
 7283SOL    HW223013   2.568   8.622   8.175  0.3801  0.0756  1.2814
 7284SOL     OW23014   5.112   0.106   2.682  0.3292  0.6105  0.2090
 7284SOL    HW123015   5.137   0.014   2.684 -1.6127 -0.0042 -1.0771
 7284SOL    HW223016   5.084   0.125   2.771  0.3909 -0.1509  0.3955
 7285SOL     OW23017   8.578   7.853   7.501 -0.0737 -0.2124 -0.0604
 7285SOL    HW123018   8.615   7.770   7.472  1.6525  1.1380 -2.0780
 7285SOL    HW223019   8.503   7.868   7.444 -1.8322 -1.3651  1.8134
 7286SOL     OW23020   7.771   4.076   2.905  0.4871 -0.1884 -0.5283
 7286SOL    HW123021   7.850   4.056   2.955  0.0987  0.1493  0.2340
 7286SOL    HW223022   7.702   4.086   2.971 -0.2208 -0.5882 -1.1908
 7287SOL     OW23023   7.535   6.060   1.753  0.0195  0.0846  0.3523
 7287SOL    HW123024   7.547   6.081   1.846  2.1894 -1.6699  0.5639
 7287SOL    HW223025   7.606   6.106   1.709 -0.1235 -0.2354 -0.2218
 7288SOL     OW23026   4.114   5.627   2.178  0.0575  0.2901  0.4479
 7288SOL    HW123027   4.141   5.544   2.139 -1.2411  1.4289 -3.3371
 7288SOL    HW223028   4.023   5.612   2.205  0.3540  0.0189  1.2937
 7289SOL     OW23029   4.947   3.844   2.767 -0.3286 -0.1358  0.1536
 7289SOL    HW123030   4.976   3.754   2.779 -1.4022 -0.5580 -0.3215
 7289SOL    HW223031   4.950   3.882   2.855  2.3165  0.0824  0.0468
 7290SOL     OW23032   8.458   6.317   5.268  0.5027  0.1633  0.0366
 7290SOL    HW123033   8.547   6.344   5.248  0.8102 -0.3900  0.6347
 7290SOL    HW223034   8.449   6.331   5.362  0.1380 -0.3034  0.0774
 7291SOL     OW23035   1.979   1.229   3.660  0.3884 -0.1822  0.5592
 7291SOL    HW123036   2.044   1.179   3.709  0.7391 -0.5243 -0.2359
 7291SOL    HW223037   2.025   1.308   3.634  0.0130  0.2950  1.2996
 7292SOL     OW23038   3.884   1.247   0.745 -0.5567 -0.3021  0.2449
 7292SOL    HW123039   3.840   1.328   0.720  1.4719  1.0811  0.9294
 7292SOL    HW223040   3.827   1.209   0.812 -0.1769  2.1221  2.1029
 7293SOL     OW23041   7.706   3.231   7.935  0.3258 -0.3300  0.9516
 7293SOL    HW123042   7.790   3.234   7.889  0.3430  0.4820  1.0254
 7293SOL    HW223043   7.662   3.153   7.900  0.5513 -0.0202 -0.0528
 7294SOL     OW23044   6.404   4.719   6.632  0.5587 -0.5087  0.0464
 7294SOL    HW123045   6.473   4.723   6.699  0.8681  2.0480 -0.3068
 7294SOL    HW223046   6.444   4.760   6.555 -1.0676  0.2094 -0.4530
 7295SOL     OW23047   4.357   2.724   8.306  0.3156  0.0552  0.0572
 7295SOL    HW123048   4.388   2.814   8.293 -2.0934  0.7270 -1.7557
 7295SOL    HW223049   4.430   2.670   8.277  1.8591  1.3615  1.2710
 7296SOL     OW23050   1.533   8.707   6.708  0.7218 -0.0738  1.2232
 7296SOL    HW123051   1.615   8.661   6.694  1.2966  0.9531  1.1658
 7296SOL    HW223052   1.554   8.800   6.697 -0.5721  0.1680  0.6034
 7297SOL     OW23053   7.309   7.350   1.681 -0.0045  0.2055 -0.0541
 7297SOL    HW123054   7.260   7.309   1.609  0.2623 -0.5799  0.2055
 7297SOL    HW223055   7.242   7.374   1.745 -0.0336 -1.4165  0.5754
 7298SOL     OW23056   0.869   4.432   5.247  0.6011 -0.0190 -0.2114
 7298SOL    HW123057   0.881   4.492   5.320 -0.7129 -0.3879  0.3573
 7298SOL    HW223058   0.906   4.349   5.279  1.1704  0.1352 -0.4629
 7299SOL     OW23059   0.374   2.536   8.378  0.1757 -0.2616 -0.1916
 7299SOL    HW123060   0.372   2.564   8.287 -0.0136  2.1053  0.4758
 7299SOL    HW223061   0.413   2.609   8.425 -1.8927 -0.4075  1.9565
 7300SOL     OW23062   6.219   5.121   5.855 -0.1134  0.2669  0.2856
 7300SOL    HW123063   6.184   5.122   5.766  0.2060  0.3311  0.1592
 7300SOL    HW223064   6.189   5.038   5.892  1.5671 -0.8265 -0.6287
 7301SOL     OW23065   6.721   3.694   3.748 -0.1830  0.2813 -0.6959
 7301SOL    HW123066   6.659   3.720   3.816  1.0091  0.4168  0.3718
 7301SOL    HW223067   6.806   3.688   3.793  0.2547 -1.8695 -1.6597
 7302SOL     OW23068   3.357   0.054   7.864  0.1479 -0.6363 -0.0545
 7302SOL    HW123069   3.283  -0.004   7.849 -0.9153  0.7549 -0.4333
 7302SOL    HW223070   3.385   0.035   7.953 -1.5787 -0.2509  0.6166
 7303SOL     OW23071   1.544   7.022   7.129 -0.1619  0.5463  0.4056
 7303SOL    HW123072   1.532   7.097   7.071 -0.9599  1.3239  1.5491
 7303SOL    HW223073   1.623   7.044   7.180  0.3402  0.0175 -0.1242
 7304SOL     OW23074   3.491   3.420   2.970  0.4494  0.1995 -0.2974
 7304SOL    HW123075   3.530   3.335   2.989  1.5110  0.3952 -1.4611
 7304SOL    HW223076   3.421   3.400   2.907 -2.0467 -0.2571  2.3882
 7305SOL     OW23077   2.376   7.833   2.839 -0.2427 -0.4784  0.3876
 7305SOL    HW123078   2.359   7.774   2.912  0.8839 -1.0430  0.2159
 7305SOL    HW223079   2.293   7.879   2.825 -0.7765 -1.1325  1.3197
 7306SOL     OW23080   3.488   8.546   0.350  0.0874  0.4692 -0.1814
 7306SOL    HW123081   3.436   8.620   0.319  0.2408  0.3657 -0.6951
 7306SOL    HW223082   3.578   8.577   0.347  0.2019  0.0896 -0.9131
 7307SOL     OW23083   0.559   1.622   6.841  0.2244  0.0647  0.6482
 7307SOL    HW123084   0.497   1.624   6.769 -0.3230  0.3232  1.1140
 7307SOL    HW223085   0.530   1.548   6.895 -0.4883  0.9832  1.5583
 7308SOL     OW23086   3.954   4.453   4.696  0.2839  0.1478  0.0694
 7308SOL    HW123087   4.021   4.410   4.643 -0.2766 -0.9089  0.1852
 7308SOL    HW223088   3.993   4.460   4.783  0.1267 -0.8057  0.2302
 7309SOL     OW23089   0.013   7.408   1.411 -0.0568 -0.1941  0.1988
 7309SOL    HW123090  -0.040   7.389   1.488  0.5481 -2.3374  0.1658
 7309SOL    HW223091   0.100   7.376   1.434  0.4295  0.2554 -0.9340
 7310SOL     OW23092   6.910   1.897   1.844 -0.0144 -0.1304  0.5192
 7310SOL    HW123093   6.880   1.849   1.921 -0.4921  0.6990  0.8661
 7310SOL    HW223094   6.922   1.987   1.875  1.8030 -0.1970  0.1261
 7311SOL     OW23095   8.104   3.721   4.901  0.2055  0.0456  0.8969
 7311SOL    HW123096   8.031   3.660   4.910 -0.4491  0.8808  1.3435
 7311SOL    HW223097   8.063   3.808   4.896  1.0937  0.4338 -0.1891
 7312SOL     OW23098   6.629   2.424   6.774 -0.1064 -0.0270 -0.0119
 7312SOL    HW123099   6.611   2.435   6.868  0.0611 -1.5682  0.2224
 7312SOL    HW223100   6.719   2.455   6.763  0.5915 -1.6963  0.7414
 7313SOL     OW23101   6.607   1.317   3.610 -0.5222 -0.5442  0.0314
 7313SOL    HW123102   6.540   1.282   3.551  0.0262 -1.2003 -0.2141
 7313SOL    HW223103   6.565   1.393   3.650 -1.8128 -1.5753  0.7215
 7314SOL     OW23104   0.971   0.889   5.113 -0.0414 -0.3836  0.4776
 7314SOL    HW123105   0.971   0.985   5.118 -0.3465 -0.3833  0.4747
 7314SOL    HW223106   0.984   0.871   5.020 -0.8293 -0.3336  0.3492
 7315SOL     OW23107   5.777   5.839   7.037 -0.0423  0.5038 -0.1176
 7315SOL    HW123108   5.777   5.874   6.948  2.1847  2.3086  0.4827
 7315SOL    HW223109   5.851   5.883   7.079  0.4088 -2.0296  1.9593
 7316SOL     OW23110   3.145   8.595   0.015  0.5909  0.4706 -0.6087
 7316SOL    HW123111   3.112   8.509   0.041  1.1603  0.5313  0.3832
 7316SOL    HW223112   3.184   8.580  -0.072 -0.2837 -0.0133 -0.9329
 7317SOL     OW23113   8.786   7.444   1.957  0.2017  0.5750  0.1685
 7317SOL    HW123114   8.845   7.484   2.020  1.2340 -0.0781 -0.3526
 7317SOL    HW223115   8.699   7.477   1.981  0.6193  0.6882  1.6411
 7318SOL     OW23116   6.920   0.959   7.513 -0.3409 -0.1041  0.9323
 7318SOL    HW123117   6.840   0.906   7.517 -0.6626  0.2562 -0.2721
 7318SOL    HW223118   6.964   0.930   7.434  0.6124 -0.1237  1.4601
 7319SOL     OW23119   7.679   2.148   2.763  0.7244  0.0248  0.3308
 7319SOL    HW123120   7.658   2.097   2.685  1.0569 -1.2552  1.0428
 7319SOL    HW223121   7.594   2.176   2.797  0.5468  0.0734 -0.1415
 7320SOL     OW23122   0.554   8.702   2.777 -0.0038 -0.0071 -0.0038
 7320SOL    HW123123   0.548   8.702   2.682  1.0488  1.1232 -0.1027
 7320SOL    HW223124   0.635   8.654   2.796  0.0862  0.2537  0.2860
 7321SOL     OW23125   5.599   0.462   7.033 -0.0511  0.3035 -0.0423
 7321SOL    HW123126   5.624   0.399   6.965  1.3001 -0.0550  0.7484
 7321SOL    HW223127   5.519   0.425   7.071  0.9332 -1.1960  0.6765
 7322SOL     OW23128   6.970   5.546   3.253  0.9183 -0.0456  0.0523
 7322SOL    HW123129   6.925   5.600   3.189  1.9174  1.3806  0.5069
 7322SOL    HW223130   6.956   5.456   3.223 -0.3606  0.4787 -0.9958
 7323SOL     OW23131   7.495   6.427   8.553 -0.1625 -0.0872  0.2543
 7323SOL    HW123132   7.569   6.488   8.545 -0.3599  0.2836  1.1430
 7323SOL    HW223133   7.457   6.423   8.465  0.2518  0.5587  0.0412
 7324SOL     OW23134   6.793   6.814   7.801 -0.4651 -0.5081  0.3281
 7324SOL    HW123135   6.737   6.762   7.743 -1.4868 -0.2794  1.0897
 7324SOL    HW223136   6.767   6.788   7.889 -0.9966  1.2574  0.7374
 7325SOL     OW23137   0.103   8.309   6.155  0.1075  0.1045 -0.3891
 7325SOL    HW123138   0.011   8.283   6.145  0.1554 -0.7025  1.1268
 7325SOL    HW223139   0.151   8.228   6.169  1.3021  0.3671 -2.4961
 7326SOL     OW23140   2.456   7.835   0.227  0.1137  0.2620 -0.1647
 7326SOL    HW123141   2.376   7.885   0.243  0.5303  0.9415 -0.1816
 7326SOL    HW223142   2.468   7.782   0.306  0.0348  0.6947  0.1380
 7327SOL     OW23143   2.294   2.418   3.856  0.2196  0.1770  0.3053
 7327SOL    HW123144   2.200   2.423   3.875  0.3858  1.3344  0.9353
 7327SOL    HW223145   2.326   2.347   3.912  0.1527  1.5084  2.1125
 7328SOL     OW23146   0.338   6.238   8.247 -0.1380  0.1182 -0.2980
 7328SOL    HW123147   0.248   6.204   8.241 -0.0492 -0.1852  0.0385
 7328SOL    HW223148   0.393   6.162   8.229  0.0489  0.4198 -1.0183
 7329SOL     OW23149   5.190   2.418   6.886 -0.5288 -0.3836 -0.1349
 7329SOL    HW123150   5.263   2.480   6.893 -1.8350  1.3160 -0.9715
 7329SOL    HW223151   5.194   2.387   6.796 -0.5446 -0.6773 -0.0359
 7330SOL     OW23152   7.008   2.710   1.077 -0.1094 -0.8280  0.0010
 7330SOL    HW123153   6.952   2.669   1.012 -2.2322 -0.9336  1.7714
 7330SOL    HW223154   7.076   2.646   1.094 -1.0860 -1.9463 -0.1708
 7331SOL     OW23155   7.128   3.739   8.229  0.0023 -0.4924 -1.2131
 7331SOL    HW123156   7.122   3.835   8.232  1.2827 -0.3972 -0.7496
 7331SOL    HW223157   7.135   3.712   8.321  2.7271 -0.7353 -1.4118
 7332SOL     OW23158   6.172   5.569   2.547 -0.1213 -0.0463  0.0292
 7332SOL    HW123159   6.261   5.533   2.553 -0.2087 -0.1318  0.8588
 7332SOL    HW223160   6.114   5.494   2.557 -0.2959  0.0819 -0.0039
 7333SOL     OW23161   6.285   6.362   0.815  0.1012  0.1867  0.0965
 7333SOL    HW123162   6.235   6.400   0.743  1.2168 -1.5837 -1.7252
 7333SOL    HW223163   6.355   6.426   0.832 -0.3305  0.7440 -0.2090
 7334SOL     OW23164   8.725   8.367   5.645  0.6013 -0.1263 -0.0480
 7334SOL    HW123165   8.683   8.449   5.669  0.0741 -0.0738 -1.0871
 7334SOL    HW223166   8.819   8.383   5.656  0.4689  0.4257  0.2984
 7335SOL     OW23167   1.948   3.692   7.144 -0.1927  0.1765 -0.6371
 7335SOL    HW123168   2.028   3.744   7.134  0.4808 -0.7162 -0.0828
 7335SOL    HW223169   1.980   3.602   7.154 -1.2277 -0.0974  0.3610
 7336SOL     OW23170   5.589   2.860   8.622 -0.5424 -0.0972  0.2568
 7336SOL    HW123171   5.571   2.768   8.642  0.8400  0.1098  3.0107
 7336SOL    HW223172   5.675   2.859   8.581 -1.2149 -0.0926 -1.2358
 7337SOL     OW23173   6.369   6.728   4.510  0.3215  0.3298 -0.5067
 7337SOL    HW123174   6.450   6.779   4.506  0.8659 -0.5869 -1.6619
 7337SOL    HW223175   6.386   6.661   4.576  0.8627 -0.4394 -1.4144
 7338SOL     OW23176   6.703   7.989   7.732  0.8765 -0.1512 -0.1953
 7338SOL    HW123177   6.657   7.922   7.681 -1.6705  1.8701 -0.7933
 7338SOL    HW223178   6.717   7.949   7.817 -0.2824 -1.5639 -0.6323
 7339SOL     OW23179   8.297   7.236   7.827 -0.8528 -0.1121  0.0491
 7339SOL    HW123180   8.228   7.199   7.772 -0.7765 -0.3280  0.0991
 7339SOL    HW223181   8.335   7.306   7.773  0.6765 -1.7366 -1.0705
 7340SOL     OW23182   4.729   0.048   8.083 -0.2326 -0.7815  0.5696
 7340SOL    HW123183   4.682   0.060   8.166  0.4658  0.3492  0.8182
 7340SOL    HW223184   4.712   0.129   8.034  0.6522 -0.7841  0.2551
 7341SOL     OW23185   6.527   5.386   4.148  0.0818 -0.2629 -0.7079
 7341SOL    HW123186   6.521   5.466   4.200 -0.1609 -1.0663  0.5325
 7341SOL    HW223187   6.590   5.332   4.195 -3.5524 -2.9936  1.5776
 7342SOL     OW23188   5.164   6.347   0.222  0.2329 -0.2500 -0.5144
 7342SOL    HW123189   5.131   6.264   0.189 -0.0190 -0.4270  0.1665
 7342SOL    HW223190   5.226   6.323   0.291 -0.3441  0.1274  0.1541
 7343SOL     OW23191   2.401   8.174   8.367 -0.0134  0.0051 -0.2973
 7343SOL    HW123192   2.379   8.082   8.350  1.7036 -0.4966  0.0742
 7343SOL    HW223193   2.470   8.195   8.304  2.3697 -0.1643  2.1035
 7344SOL     OW23194   6.527   4.064   8.391 -0.2291  0.1142  0.2530
 7344SOL    HW123195   6.458   4.131   8.386  1.3161  1.7348 -0.3008
 7344SOL    HW223196   6.601   4.102   8.345  1.8959 -0.4907  2.8982
 7345SOL     OW23197   0.584   4.280   1.777 -0.1783  0.0958  0.2116
 7345SOL    HW123198   0.653   4.294   1.712 -1.3431  1.5848 -0.7692
 7345SOL    HW223199   0.531   4.360   1.774 -1.9512 -0.9865  0.9499
 7346SOL     OW23200   4.370   7.795   6.911  0.4517 -0.2528 -0.2298
 7346SOL    HW123201   4.339   7.746   6.988 -1.6755 -0.3741 -1.0935
 7346SOL    HW223202   4.422   7.731   6.862  1.7012 -0.2177  0.9786
 7347SOL     OW23203   8.777   1.881   3.194  0.3694  0.5166 -0.1176
 7347SOL    HW123204   8.869   1.885   3.221  0.5865  0.5013 -0.8340
 7347SOL    HW223205   8.738   1.816   3.252  1.5528 -1.9261 -1.8509
 7348SOL     OW23206   6.994   5.080   0.664  0.7209 -0.7129  0.2174
 7348SOL    HW123207   7.012   5.174   0.653 -2.1467 -0.2564 -1.5459
 7348SOL    HW223208   7.026   5.060   0.752  0.9656  2.0367  0.8510
 7349SOL     OW23209   6.766   5.712   1.523  0.5668  0.3612  0.5536
 7349SOL    HW123210   6.785   5.624   1.555  2.6749  0.1800 -1.0158
 7349SOL    HW223211   6.822   5.769   1.575  1.4030  0.4314 -0.4015
 7350SOL     OW23212   4.161   7.986   1.835 -0.2839  0.2721  0.0629
 7350SOL    HW123213   4.149   7.906   1.783 -0.4016  1.2771 -1.5080
 7350SOL    HW223214   4.255   8.003   1.831 -0.2853  0.3214  0.2370
 7351SOL     OW23215   5.442   8.370   3.092 -0.0243 -0.0528 -0.1436
 7351SOL    HW123216   5.526   8.382   3.137 -0.6883  1.9727  0.6943
 7351SOL    HW223217   5.460   8.392   3.001  0.7126 -1.3609 -0.3315
 7352SOL     OW23218   2.203   1.891   3.056  0.5740 -0.4959 -0.6844
 7352SOL    HW123219   2.207   1.982   3.024 -0.7368 -0.4643 -0.7957
 7352SOL    HW223220   2.286   1.879   3.103  0.2933  1.1221  0.2907
 7353SOL     OW23221   2.575   3.573   6.719 -0.0069  0.1923 -0.3361
 7353SOL    HW123222   2.515   3.508   6.757 -0.1919 -0.1288 -1.1550
 7353SOL    HW223223   2.643   3.584   6.785  0.5374 -1.5402 -0.5518
 7354SOL     OW23224   5.161   6.057   0.683  0.1376 -0.1667 -0.2723
 7354SOL    HW123225   5.173   6.031   0.774 -2.5698 -1.3289 -0.1444
 7354SOL    HW223226   5.234   6.016   0.637  1.5787  0.4747  1.3300
 7355SOL     OW23227   0.247   6.147   5.769  0.0365 -0.4889 -0.8094
 7355SOL    HW123228   0.342   6.154   5.781 -0.1808  0.0395  0.9495
 7355SOL    HW223229   0.236   6.077   5.705  1.6060 -0.9409 -0.6329
 7356SOL     OW23230   6.205   8.291   5.063 -0.2020  0.7564  0.3605
 7356SOL    HW123231   6.136   8.224   5.058 -0.0464  0.6271 -0.0595
 7356SOL    HW223232   6.193   8.344   4.984  0.0364  0.8763  0.4043
 7357SOL     OW23233   3.525   5.014   7.591 -0.2725 -0.2136  0.0626
 7357SOL    HW123234   3.582   4.946   7.629 -0.0752  0.2858  0.6654
 7357SOL    HW223235   3.579   5.093   7.591 -0.1917 -0.2394 -1.4658
 7358SOL     OW23236   0.926   4.883   8.080 -0.0961 -0.3829 -0.0255
 7358SOL    HW123237   0.891   4.951   8.022  0.7315  1.2976  1.3646
 7358SOL    HW223238   1.008   4.856   8.039  0.2085  0.3942  0.0511
 7359SOL     OW23239   3.471   4.179   1.636 -0.0970  0.0584  0.1920
 7359SOL    HW123240   3.490   4.199   1.545  4.5055 -1.1930  0.6071
 7359SOL    HW223241   3.522   4.243   1.686  0.9241 -1.7933  1.6996
 7360SOL     OW23242   4.101   3.598   5.902  0.3105  0.3491 -0.0627
 7360SOL    HW123243   4.069   3.507   5.903  0.1148  0.4104 -0.4766
 7360SOL    HW223244   4.033   3.646   5.855  0.5401  0.6620 -0.0745
 7361SOL     OW23245   4.497   1.403   3.881 -0.5253  0.0056  0.1572
 7361SOL    HW123246   4.509   1.367   3.793 -2.7390  0.4132 -0.3607
 7361SOL    HW223247   4.585   1.429   3.908  0.2974 -0.7063 -1.6762
 7362SOL     OW23248   6.449   4.965   4.126 -0.5588 -0.7790 -0.6145
 7362SOL    HW123249   6.358   4.973   4.155 -0.6496 -1.9311 -0.5279
 7362SOL    HW223250   6.459   5.035   4.061 -0.6473  1.1953  1.3681
 7363SOL     OW23251   8.693   3.991   2.776 -0.3159  0.2994 -0.0851
 7363SOL    HW123252   8.782   3.976   2.744 -0.5151 -1.4138  0.0492
 7363SOL    HW223253   8.703   4.055   2.846  0.6274  1.1465 -0.9561
 7364SOL     OW23254   0.765   1.370   8.167 -0.0997  0.2999  0.6526
 7364SOL    HW123255   0.813   1.307   8.113 -0.3781  0.6423 -0.0048
 7364SOL    HW223256   0.687   1.391   8.116  1.2107  3.1291 -0.3948
 7365SOL     OW23257   7.585   0.628   3.298  0.0115  0.2189  0.2013
 7365SOL    HW123258   7.641   0.684   3.351  1.3756 -1.9048  1.1524
 7365SOL    HW223259   7.639   0.603   3.223 -0.8211  0.6958 -0.5836
 7366SOL     OW23260   5.119   4.058   0.375  0.0137 -0.6710  0.4413
 7366SOL    HW123261   5.211   4.036   0.389  0.0012 -1.2365 -0.3112
 7366SOL    HW223262   5.121   4.138   0.323  0.0669 -0.0259  1.4154
 7367SOL     OW23263   6.677   4.948   4.609  0.0503  0.1437 -0.0067
 7367SOL    HW123264   6.692   4.857   4.634 -0.9598 -0.0038  0.1035
 7367SOL    HW223265   6.759   4.976   4.569  0.6280 -0.5807  0.6384
 7368SOL     OW23266   5.413   0.797   6.950 -0.6527  0.0437  0.3516
 7368SOL    HW123267   5.503   0.787   6.917 -0.4205  0.7822  0.7420
 7368SOL    HW223268   5.423   0.807   7.044 -1.3470 -2.5988  0.7971
 7369SOL     OW23269   1.665   5.660   1.077 -0.5045 -0.1273 -0.3203
 7369SOL    HW123270   1.645   5.652   0.983 -0.6578  1.4023 -0.4528
 7369SOL    HW223271   1.580   5.680   1.117 -0.4955 -1.0925  0.2105
 7370SOL     OW23272   7.859   2.438   4.349  0.4279 -0.0196 -0.2815
 7370SOL    HW123273   7.827   2.501   4.285  1.3024  1.7816  0.9565
 7370SOL    HW223274   7.953   2.432   4.331  0.1666 -2.1835 -1.3240
 7371SOL     OW23275   4.791   6.305   6.684 -0.1003  0.1600 -0.2851
 7371SOL    HW123276   4.854   6.236   6.701 -0.1713  0.3129  0.6528
 7371SOL    HW223277   4.713   6.260   6.651  0.5075 -0.0203 -1.5021
 7372SOL     OW23278   7.761   8.211   4.560  0.1671  0.5458  0.1037
 7372SOL    HW123279   7.811   8.173   4.632  0.1309  0.1096 -0.0967
 7372SOL    HW223280   7.674   8.226   4.597 -0.1208 -0.5211 -0.0836
 7373SOL     OW23281   2.992   1.209   1.625 -0.3617  0.2521  0.0959
 7373SOL    HW123282   3.005   1.117   1.646 -0.0595  0.2292 -0.1871
 7373SOL    HW223283   2.921   1.208   1.560 -1.0388  0.2965  0.8104
 7374SOL     OW23284   3.227   0.958   4.997 -0.7754 -0.6251 -0.1804
 7374SOL    HW123285   3.269   1.044   4.999 -1.2473 -0.3755 -0.8763
 7374SOL    HW223286   3.283   0.905   4.939 -0.5217 -0.7789  0.1960
 7375SOL     OW23287   1.853   6.072   1.407 -0.0037  0.0397 -0.2029
 7375SOL    HW123288   1.775   6.106   1.362  0.5901 -0.3651 -1.5920
 7375SOL    HW223289   1.884   6.001   1.350  1.7082  0.5708  0.0112
 7376SOL     OW23290   4.208   2.525   8.419  0.3045 -0.2704 -0.0609
 7376SOL    HW123291   4.200   2.559   8.508 -1.7340 -0.1868 -0.2440
 7376SOL    HW223292   4.230   2.601   8.366 -3.2303  0.7512 -0.3080
 7377SOL     OW23293   5.923   3.754   6.344  0.6124 -0.1119  0.3681
 7377SOL    HW123294   5.942   3.697   6.269  0.0119 -0.9090  0.8114
 7377SOL    HW223295   5.944   3.701   6.420 -1.6858 -0.4202  0.8529
 7378SOL     OW23296   0.598   7.276   8.324 -0.0778  0.4107 -0.1646
 7378SOL    HW123297   0.671   7.296   8.266 -0.1209 -0.1664 -0.4268
 7378SOL    HW223298   0.636   7.222   8.393  0.0135  1.2564  0.4685
 7379SOL     OW23299   0.113   7.735   8.527 -0.4140 -0.0692  0.6133
 7379SOL    HW123300   0.169   7.794   8.578  1.1213 -0.8650 -0.0635
 7379SOL    HW223301   0.100   7.781   8.444  0.9703 -0.7149 -0.0008
 7380SOL     OW23302   2.293   6.816   2.439  0.3610 -0.0294 -0.1538
 7380SOL    HW123303   2.337   6.851   2.516 -1.8117  3.2318 -0.1777
 7380SOL    HW223304   2.359   6.820   2.369  1.3306  0.2969  0.7640
 7381SOL     OW23305   4.329   6.765   1.418  0.1543  0.6969 -0.0726
 7381SOL    HW123306   4.238   6.735   1.429  1.1012 -2.0872  0.8691
 7381SOL    HW223307   4.354   6.799   1.504  0.1377  1.1498 -0.2422
 7382SOL     OW23308   8.673   3.384   6.994  0.0347 -0.2673  0.5315
 7382SOL    HW123309   8.729   3.307   7.007  0.3722  0.1080  1.3852
 7382SOL    HW223310   8.710   3.451   7.051 -1.0264  0.1223  0.7935
 7383SOL     OW23311   5.050   4.715   0.892  0.7073  0.9768 -0.2614
 7383SOL    HW123312   5.093   4.643   0.938 -1.2018  0.7031  1.2494
 7383SOL    HW223313   5.119   4.780   0.880  1.5540  0.6483  2.1890
 7384SOL     OW23314   7.990   1.161   2.929  0.3597  0.2057  0.0488
 7384SOL    HW123315   8.051   1.226   2.894 -1.2425  1.4063 -0.6893
 7384SOL    HW223316   7.995   1.088   2.868  0.6217  0.5476 -0.3493
 7385SOL     OW23317   1.900   1.702   0.465 -0.0008 -0.3901  0.0570
 7385SOL    HW123318   1.816   1.727   0.505  0.0988  0.5424 -0.2995
 7385SOL    HW223319   1.881   1.621   0.419 -1.0048  0.3661 -0.9406
 7386SOL     OW23320   0.742   5.019   6.708 -0.2545  0.1177  0.4034
 7386SOL    HW123321   0.664   5.050   6.662  0.4118  1.3833  0.1118
 7386SOL    HW223322   0.707   4.958   6.774 -1.3758 -0.2488 -0.4839
 7387SOL     OW23323   5.073   2.508   5.855 -0.2591 -0.0574  0.9900
 7387SOL    HW123324   5.036   2.457   5.783  0.8831  2.1958 -1.3466
 7387SOL    HW223325   5.004   2.570   5.878 -0.5375 -0.6260  1.7272
 7388SOL     OW23326   1.148   5.019   3.974  0.4690  0.1582  0.1511
 7388SOL    HW123327   1.137   4.939   3.922  0.9148  0.1549  0.0503
 7388SOL    HW223328   1.068   5.026   4.026  0.1941 -0.0638 -0.2355
 7389SOL     OW23329   3.916   4.804   4.637  0.1274 -0.2791 -0.2334
 7389SOL    HW123330   3.948   4.785   4.725 -0.0962 -1.8881 -0.4614
 7389SOL    HW223331   3.923   4.899   4.628  1.3967 -0.2241  1.0326
 7390SOL     OW23332   7.606   8.805   1.291 -0.2750 -0.0090  0.4840
 7390SOL    HW123333   7.520   8.794   1.251 -0.3794 -1.5166  1.0545
 7390SOL    HW223334   7.605   8.746   1.367  0.8483  0.8244  1.1784
 7391SOL     OW23335   4.462   2.787   7.684  0.0070 -0.4857  0.4250
 7391SOL    HW123336   4.404   2.711   7.685  0.5841 -0.9330  0.7706
 7391SOL    HW223337   4.440   2.833   7.604  1.0670 -2.1438 -0.8986
 7392SOL     OW23338   0.981   5.085   0.619  0.4030 -0.8746 -0.3745
 7392SOL    HW123339   0.916   5.037   0.568  1.1198 -2.1729 -0.1146
 7392SOL    HW223340   0.940   5.169   0.639 -0.8538 -1.3439 -0.9298
 7393SOL     OW23341   4.232   6.312   1.870 -0.1820 -0.0877 -0.0972
 7393SOL    HW123342   4.187   6.277   1.947 -1.2502 -0.8609 -1.0375
 7393SOL    HW223343   4.293   6.243   1.845 -1.5884 -0.9155 -1.3697
 7394SOL     OW23344   3.996   3.061   7.662  0.2763  0.3708  0.1333
 7394SOL    HW123345   4.012   3.066   7.757  1.3976  0.1156 -0.0273
 7394SOL    HW223346   4.077   3.023   7.627 -0.5256 -0.4968 -0.8111
 7395SOL     OW23347   5.775   0.668   6.955 -0.5829  0.4803 -0.0297
 7395SOL    HW123348   5.724   0.590   6.979 -0.4983  0.7153  0.9133
 7395SOL    HW223349   5.864   0.636   6.945 -0.6507  0.3505 -0.2431
 7396SOL     OW23350   6.631   6.455   5.801 -0.0617  0.4056 -0.4671
 7396SOL    HW123351   6.548   6.408   5.811 -0.7602  1.2995 -1.7746
 7396SOL    HW223352   6.615   6.540   5.842  0.2087  0.5734 -0.7015
 7397SOL     OW23353   2.947   1.079   3.325  0.7559 -0.1553 -0.0065
 7397SOL    HW123354   2.976   1.166   3.350 -0.5584  0.0201  1.0285
 7397SOL    HW223355   3.005   1.020   3.374  1.3551  0.1273 -0.3616
 7398SOL     OW23356   6.563   0.847   0.412  0.0153  0.9682  0.1514
 7398SOL    HW123357   6.640   0.825   0.466 -0.0419 -1.3768 -0.5878
 7398SOL    HW223358   6.598   0.856   0.323 -0.0329  3.9067  0.3225
 7399SOL     OW23359   1.470   8.579   8.124  0.1001 -0.2609 -0.9145
 7399SOL    HW123360   1.526   8.564   8.201  0.0226  1.4109 -0.4788
 7399SOL    HW223361   1.386   8.541   8.148  0.0898  0.2023 -0.1658
 7400SOL     OW23362   7.336   6.267   7.215 -0.3252  0.0643  0.3460
 7400SOL    HW123363   7.324   6.291   7.307 -1.1527 -0.0338  0.2707
 7400SOL    HW223364   7.310   6.175   7.210  2.4805 -0.8308  0.5563
 7401SOL     OW23365   7.426   0.334   2.691 -0.3002 -0.3233 -0.2335
 7401SOL    HW123366   7.437   0.296   2.778  0.8981  0.0369 -0.2181
 7401SOL    HW223367   7.515   0.351   2.660 -0.7631  0.9530 -0.9192
 7402SOL     OW23368   0.984   1.655   7.296  0.3061 -0.4142 -0.6273
 7402SOL    HW123369   0.919   1.585   7.294  0.2184 -0.3182 -1.4561
 7402SOL    HW223370   0.941   1.729   7.254 -1.0956  1.5029  3.5659
 7403SOL     OW23371   6.256   5.601   6.429  0.1381 -0.0455 -0.2907
 7403SOL    HW123372   6.226   5.685   6.393  0.7837  0.4344  0.2703
 7403SOL    HW223373   6.287   5.622   6.517  1.7049 -0.6036 -0.6779
 7404SOL     OW23374   3.540   8.500   3.581  0.2981 -0.3001 -0.5135
 7404SOL    HW123375   3.513   8.469   3.494  2.6892  0.9050 -1.7746
 7404SOL    HW223376   3.636   8.500   3.578  0.5259 -1.7240  2.7268
 7405SOL     OW23377   8.101   8.229   8.827  0.3399 -0.0783  0.1888
 7405SOL    HW123378   8.159   8.292   8.870 -0.6174  1.2897 -0.4319
 7405SOL    HW223379   8.148   8.146   8.831  2.4280  1.0010 -0.4561
 7406SOL     OW23380   7.931   7.516   1.516 -0.1517 -0.4043  0.4939
 7406SOL    HW123381   7.938   7.421   1.514 -2.3766 -0.6196  0.8313
 7406SOL    HW223382   7.977   7.545   1.437  1.8407 -1.6080  1.1307
 7407SOL     OW23383   8.539   6.981   6.509 -0.6473  0.1470 -0.1283
 7407SOL    HW123384   8.498   7.024   6.433  1.6024  0.9512 -0.9761
 7407SOL    HW223385   8.570   6.897   6.475 -1.1709 -0.2522  0.3739
 7408SOL     OW23386   2.317   0.381   1.417 -0.0895  1.2008 -0.6004
 7408SOL    HW123387   2.279   0.412   1.500  0.0523 -1.4841  0.5590
 7408SOL    HW223388   2.246   0.335   1.374  0.3950  0.8348 -1.0171
 7409SOL     OW23389   0.893   3.613   4.418 -0.9188  0.3870 -0.2791
 7409SOL    HW123390   0.899   3.519   4.400  0.4336  0.1715  1.1353
 7409SOL    HW223391   0.820   3.622   4.478 -1.1951  0.2727 -0.5966
 7410SOL     OW23392   0.372   5.338   4.999  0.7588  0.3222 -0.8235
 7410SOL    HW123393   0.348   5.268   5.059 -1.1461  2.0965  0.6577
 7410SOL    HW223394   0.367   5.298   4.912 -2.1316 -0.9684 -0.1779
 7411SOL     OW23395   6.237   4.145   6.573 -0.5705 -0.1461  0.1725
 7411SOL    HW123396   6.182   4.068   6.591 -0.4046 -0.2194  0.3768
 7411SOL    HW223397   6.323   4.121   6.608 -0.8911  0.7256  1.6191
 7412SOL     OW23398   2.352   7.792   8.658 -0.1375  0.2002  0.2465
 7412SOL    HW123399   2.334   7.715   8.713 -2.1821  1.0168  0.7822
 7412SOL    HW223400   2.311   7.771   8.574 -1.0326  0.8523  0.5155
 7413SOL     OW23401   1.454   4.505   5.186  0.0015  0.3687  0.0122
 7413SOL    HW123402   1.487   4.563   5.117  0.9182 -0.4697 -0.2687
 7413SOL    HW223403   1.440   4.562   5.261 -1.2738  1.3609 -0.9221
 7414SOL     OW23404   6.377   6.988   0.099  0.0463 -0.2118 -0.3009
 7414SOL    HW123405   6.292   6.962   0.063  0.2634 -0.9820 -0.2645
 7414SOL    HW223406   6.355   7.039   0.178 -0.3779 -0.5994 -0.1642
 7415SOL     OW23407   5.795   1.667   4.663 -0.2624  0.6523 -0.2902
 7415SOL    HW123408   5.728   1.627   4.719 -1.3654  2.2791 -0.3808
 7415SOL    HW223409   5.753   1.676   4.577  0.4905  0.5947 -0.6717
 7416SOL     OW23410   8.592   5.810   2.513  0.2238 -0.2216  0.0462
 7416SOL    HW123411   8.630   5.885   2.467  0.3388 -0.5068 -0.3235
 7416SOL    HW223412   8.562   5.846   2.596  2.1463 -0.1784  0.7617
 7417SOL     OW23413   0.509   2.294   2.319 -0.2100 -0.4244 -0.0587
 7417SOL    HW123414   0.578   2.294   2.253  0.0944  1.9854  0.1865
 7417SOL    HW223415   0.483   2.202   2.326  3.2765 -1.5522  0.1708
 7418SOL     OW23416   3.997   3.758   8.118  0.5795  0.1537  0.2921
 7418SOL    HW123417   3.942   3.736   8.194  1.6415  0.0189  1.0323
 7418SOL    HW223418   3.985   3.684   8.058 -0.9302  0.6489 -0.0830
 7419SOL     OW23419   8.050   1.459   8.122  0.3038  0.0285  0.4982
 7419SOL    HW123420   8.026   1.550   8.138  0.9613  0.2271  0.4024
 7419SOL    HW223421   8.121   1.464   8.058  1.4670 -0.4564  1.7014
 7420SOL     OW23422   7.110   6.844   6.086 -0.3648 -0.1794 -0.3113
 7420SOL    HW123423   7.042   6.783   6.059 -0.1330  0.1025 -1.5927
 7420SOL    HW223424   7.125   6.824   6.179 -0.6715 -1.6800 -0.5619
 7421SOL     OW23425   1.913   6.017   7.836 -0.0692  0.6752  0.0899
 7421SOL    HW123426   1.837   6.062   7.874 -1.2786  0.6942 -2.1810
 7421SOL    HW223427   1.877   5.938   7.796  1.2393  0.2569 -0.3155
 7422SOL     OW23428   3.336   2.759   5.921  0.1076 -0.3947  0.1832
 7422SOL    HW123429   3.402   2.757   5.851 -0.0333  1.5207 -0.0657
 7422SOL    HW223430   3.262   2.806   5.882 -1.2096 -1.9874  0.6555
 7423SOL     OW23431   1.035   6.802   5.782 -0.0927  0.1660 -0.1489
 7423SOL    HW123432   0.942   6.783   5.769 -0.3848  1.3011  0.1180
 7423SOL    HW223433   1.070   6.811   5.694 -0.0097 -1.2079 -0.2739
 7424SOL     OW23434   1.233   3.223   1.076  0.2568 -0.2946  0.3240
 7424SOL    HW123435   1.316   3.176   1.087  1.1676  0.4420 -2.4494
 7424SOL    HW223436   1.242   3.267   0.991 -2.5366  0.7805  0.4836
 7425SOL     OW23437   7.395   7.807   8.545  0.2298  0.1044  0.0850
 7425SOL    HW123438   7.473   7.791   8.599  0.4424  0.6066 -0.0634
 7425SOL    HW223439   7.322   7.805   8.607 -0.0167 -3.2666 -0.1674
 7426SOL     OW23440   5.817   6.772   0.098  0.0745 -0.3572 -0.0568
 7426SOL    HW123441   5.842   6.683   0.119 -1.4971 -1.0640 -0.9841
 7426SOL    HW223442   5.817   6.818   0.182  1.1095 -1.1608  0.3955
 7427SOL     OW23443   6.181   1.701   4.299  0.5896  0.1188 -0.1095
 7427SOL    HW123444   6.167   1.746   4.382 -1.7997  0.5067 -0.6717
 7427SOL    HW223445   6.123   1.625   4.303  0.8046 -0.1183 -1.2431
 7428SOL     OW23446   6.232   0.510   5.232 -0.2590  0.0186 -0.1723
 7428SOL    HW123447   6.295   0.495   5.302 -1.5489 -1.3208  0.7608
 7428SOL    HW223448   6.200   0.599   5.246  0.9322  0.4869 -0.2919
 7429SOL     OW23449   4.586   0.562   8.675 -0.3902  0.1641 -0.4262
 7429SOL    HW123450   4.516   0.605   8.724 -1.6531 -1.3118 -0.8460
 7429SOL    HW223451   4.547   0.542   8.590 -0.1626 -2.4312 -0.0079
 7430SOL     OW23452   4.321   1.471   7.778 -0.4407  0.2750  0.0291
 7430SOL    HW123453   4.368   1.390   7.799  0.1866  1.1443  2.2065
 7430SOL    HW223454   4.315   1.471   7.682  1.1017 -1.4624 -0.1232
 7431SOL     OW23455   0.412   0.241   8.690  0.3800 -0.3129  0.6054
 7431SOL    HW123456   0.435   0.290   8.612  0.4457  1.5440  1.7174
 7431SOL    HW223457   0.318   0.223   8.681  0.3179  0.1792  0.2297
 7432SOL     OW23458   5.606   4.036   3.292 -0.1934 -0.1252  0.2864
 7432SOL    HW123459   5.684   4.055   3.345 -2.0511  2.1684  2.4480
 7432SOL    HW223460   5.640   3.995   3.212  3.1116 -0.0127  1.5064
 7433SOL     OW23461   8.612   5.858   3.278  0.0451 -0.1795  0.1077
 7433SOL    HW123462   8.622   5.764   3.296 -0.0125 -0.2388 -0.1722
 7433SOL    HW223463   8.518   5.871   3.266  0.1514 -0.2712 -0.8635
 7434SOL     OW23464   3.616   8.316   2.512  0.3410  0.9538 -0.4043
 7434SOL    HW123465   3.644   8.240   2.563 -2.2167 -0.4710 -0.9622
 7434SOL    HW223466   3.527   8.333   2.541  0.0607  2.3465 -1.9259
 7435SOL     OW23467   8.728   2.069   4.435 -0.0638  0.1593 -0.1705
 7435SOL    HW123468   8.635   2.086   4.449  0.0949  0.0631  1.1575
 7435SOL    HW223469   8.772   2.121   4.502  0.9827  1.6299 -1.8814
 7436SOL     OW23470   3.133   4.748   8.701 -0.1302  0.0158 -0.3956
 7436SOL    HW123471   3.096   4.660   8.695 -1.5307  0.6497 -1.5496
 7436SOL    HW223472   3.129   4.768   8.795  0.4478 -1.2247 -0.0830
 7437SOL     OW23473   0.501   2.717   0.886 -0.7188  0.1567 -0.3543
 7437SOL    HW123474   0.482   2.808   0.865  0.1040  0.7989  1.4555
 7437SOL    HW223475   0.433   2.692   0.948 -0.0202  0.0974  0.4137
 7438SOL     OW23476   4.523   7.758   2.435 -0.1864  0.6044 -0.7671
 7438SOL    HW123477   4.604   7.711   2.420 -0.0746  1.0590 -1.6677
 7438SOL    HW223478   4.466   7.695   2.478 -0.0761 -0.3974 -2.0136
 7439SOL     OW23479   4.991   6.501   7.162  0.1378  0.3524  0.0565
 7439SOL    HW123480   4.968   6.572   7.102 -0.8961  1.2119  1.4082
 7439SOL    HW223481   4.913   6.488   7.216  0.8888 -0.6510  0.9566
 7440SOL     OW23482   4.898   0.204   1.760 -0.1256 -0.7081  0.3032
 7440SOL    HW123483   4.956   0.210   1.684  2.0245 -0.4814  1.8721
 7440SOL    HW223484   4.818   0.249   1.732 -0.2766 -2.4765 -2.5077
 7441SOL     OW23485   3.770   8.518   7.914  0.3519 -0.0895 -0.1065
 7441SOL    HW123486   3.682   8.555   7.913  0.0538 -0.7469  0.7124
 7441SOL    HW223487   3.824   8.585   7.956  0.6046  1.0228 -2.0867
 7442SOL     OW23488   2.419   0.794   7.314  1.1538  0.2796 -0.4621
 7442SOL    HW123489   2.398   0.825   7.402 -0.3943  0.4399 -0.8439
 7442SOL    HW223490   2.481   0.858   7.280  2.1036 -0.0202  0.6432
 7443SOL     OW23491   1.891   5.735   4.578 -0.2996  0.3932  0.0732
 7443SOL    HW123492   1.967   5.789   4.556 -0.4082  0.4344 -0.2146
 7443SOL    HW223493   1.860   5.770   4.661 -1.3843  1.9117 -0.9025
 7444SOL     OW23494   6.254   6.666   8.205  0.6355  0.1502  0.2877
 7444SOL    HW123495   6.163   6.655   8.232  0.2771 -1.0797 -1.2680
 7444SOL    HW223496   6.303   6.605   8.260 -0.0386 -2.0952 -1.4886
 7445SOL     OW23497   2.622   4.310   4.811  0.1965  0.5669  0.0954
 7445SOL    HW123498   2.596   4.318   4.719 -3.8814 -0.9802  0.9150
 7445SOL    HW223499   2.571   4.377   4.856  0.5666 -0.0393  1.4804
 7446SOL     OW23500   3.868   0.833   0.677 -0.3093 -0.0479  0.8036
 7446SOL    HW123501   3.842   0.771   0.609 -0.7665  0.9401  0.0593
 7446SOL    HW223502   3.835   0.918   0.647  2.3844  1.0281  0.6085
 7447SOL     OW23503   5.935   7.531   7.719 -0.0162  0.4927 -0.3529
 7447SOL    HW123504   6.026   7.525   7.748 -0.3176  0.0466  0.5418
 7447SOL    HW223505   5.887   7.559   7.797 -0.5599  1.4111 -0.9948
 7448SOL     OW23506   6.078   6.234   0.505  0.2949  0.0937 -0.3078
 7448SOL    HW123507   6.009   6.223   0.439  1.2216 -0.1779 -1.2486
 7448SOL    HW223508   6.124   6.314   0.478 -1.4410  2.0054  1.9912
 7449SOL     OW23509   8.290   4.632   8.719  0.2285 -0.5460  0.2899
 7449SOL    HW123510   8.343   4.649   8.641  0.9897  0.0580  0.9173
 7449SOL    HW223511   8.305   4.709   8.775 -1.6124 -0.1593  0.3314
 7450SOL     OW23512   4.645   2.693   4.651  0.3069  0.0224  0.0602
 7450SOL    HW123513   4.713   2.627   4.639  0.5016  0.1190  0.6136
 7450SOL    HW223514   4.563   2.648   4.629  0.5285 -0.1300 -0.4827
 7451SOL     OW23515   5.762   4.269   2.593 -0.6173  0.8288  0.2067
 7451SOL    HW123516   5.679   4.237   2.626 -1.1477 -0.3363 -2.0637
 7451SOL    HW223517   5.761   4.363   2.611 -1.4412  0.4862  2.1129
 7452SOL     OW23518   3.540   7.407   0.292 -0.4090  0.4990  0.4638
 7452SOL    HW123519   3.583   7.454   0.220 -0.3128  0.2918  0.3846
 7452SOL    HW223520   3.608   7.397   0.358  0.2523 -1.5155 -0.4338
 7453SOL     OW23521   0.090   1.786   5.556 -0.1024  0.3485  0.1056
 7453SOL    HW123522   0.042   1.760   5.478  0.0839 -0.8356  0.3727
 7453SOL    HW223523   0.181   1.789   5.529  0.0066 -0.4628  0.3768
 7454SOL     OW23524   5.186   3.705   0.412  0.0778  0.9812 -0.0790
 7454SOL    HW123525   5.248   3.756   0.361  1.2517  0.9538  1.2534
 7454SOL    HW223526   5.131   3.772   0.455  1.7928  1.2332  1.8868
 7455SOL     OW23527   0.881   2.460   8.275 -0.4965  0.7532  0.4768
 7455SOL    HW123528   0.803   2.405   8.266 -2.0482  3.0332 -1.2807
 7455SOL    HW223529   0.927   2.450   8.191 -0.1418  1.1867  0.6170
 7456SOL     OW23530   0.867   6.963   2.793 -0.2345  0.0788 -0.2742
 7456SOL    HW123531   0.821   6.989   2.713  0.2586 -1.0084 -0.9370
 7456SOL    HW223532   0.942   6.913   2.762 -0.5988 -1.2503  0.9028
 7457SOL     OW23533   2.621   1.430   8.680  0.0924 -0.4771  0.1118
 7457SOL    HW123534   2.662   1.457   8.598 -0.2152 -0.6711 -0.1085
 7457SOL    HW223535   2.530   1.410   8.656 -0.0166 -0.4693  0.5112
 7458SOL     OW23536   2.450   1.304   5.147  0.1752 -0.4647  0.1196
 7458SOL    HW123537   2.515   1.239   5.120  0.1412 -0.2590 -0.4711
 7458SOL    HW223538   2.366   1.258   5.139  0.1727 -0.4328 -0.0390
 7459SOL     OW23539   6.785   2.405   6.407  0.7311 -0.2481 -0.1592
 7459SOL    HW123540   6.873   2.439   6.391  0.3876  1.2126  0.8610
 7459SOL    HW223541   6.729   2.482   6.409 -0.0854 -0.8001  2.2675
 7460SOL     OW23542   0.430   0.673   2.295  0.0289 -0.6460  0.4493
 7460SOL    HW123543   0.456   0.618   2.369 -0.4259  0.1228  1.1942
 7460SOL    HW223544   0.343   0.642   2.272  0.3820 -1.2344 -0.1106
 7461SOL     OW23545   1.383   6.037   1.365  0.6637  0.7308  0.1055
 7461SOL    HW123546   1.343   6.082   1.439  0.2347  0.5646 -0.0250
 7461SOL    HW223547   1.327   6.056   1.290  0.7981  0.4585 -0.0699
 7462SOL     OW23548   3.746   0.290   2.383 -0.1289 -0.6183 -0.0636
 7462SOL    HW123549   3.772   0.377   2.352  0.5279 -0.0997  1.7914
 7462SOL    HW223550   3.820   0.260   2.434 -1.1725 -1.3735  1.0569
 7463SOL     OW23551   4.578   3.865   7.937 -0.1687 -0.1995  0.3998
 7463SOL    HW123552   4.566   3.931   7.869 -0.0776 -0.6632 -0.0749
 7463SOL    HW223553   4.517   3.795   7.914  0.0412 -0.4719  0.6555
 7464SOL     OW23554   1.131   7.068   5.414 -0.2464 -0.0727 -0.2658
 7464SOL    HW123555   1.084   7.146   5.383  0.3297  0.7254  0.7888
 7464SOL    HW223556   1.219   7.079   5.381 -0.5253 -1.0677 -1.3982
 7465SOL     OW23557   6.387   8.164   2.015 -0.3227  0.3236  0.1677
 7465SOL    HW123558   6.387   8.073   1.985 -0.4683 -0.6492  2.7657
 7465SOL    HW223559   6.479   8.188   2.019 -0.2624  0.1456 -0.1703
 7466SOL     OW23560   7.847   0.344   1.301  0.2386 -0.0667 -0.6624
 7466SOL    HW123561   7.929   0.362   1.254  0.7689 -0.9225 -0.0827
 7466SOL    HW223562   7.841   0.413   1.367  0.9984 -0.5493 -0.0708
 7467SOL     OW23563   6.160   0.389   7.383  0.1470  0.4275  0.9087
 7467SOL    HW123564   6.169   0.418   7.292 -0.7163 -0.0085  0.6861
 7467SOL    HW223565   6.079   0.430   7.414  1.7262  2.7767  2.3394
 7468SOL     OW23566   0.296   5.570   5.122 -0.3939 -0.1940  0.0851
 7468SOL    HW123567   0.313   5.488   5.074 -0.9974  0.0742 -0.6134
 7468SOL    HW223568   0.366   5.629   5.095 -0.2794 -0.2995  0.1510
 7469SOL     OW23569   6.766   5.530   6.239 -0.2111  0.2207  0.7452
 7469SOL    HW123570   6.763   5.499   6.330  0.3525 -0.1118  0.6573
 7469SOL    HW223571   6.727   5.459   6.188 -2.5483  1.2848  0.9181
 7470SOL     OW23572   2.738   0.406   5.583 -0.6331  0.5431  0.8622
 7470SOL    HW123573   2.720   0.380   5.674 -2.9201  2.2556  0.9891
 7470SOL    HW223574   2.740   0.502   5.586 -1.2658  0.6403 -0.9552
 7471SOL     OW23575   1.186   0.607   0.019 -0.2508 -0.2447 -0.1600
 7471SOL    HW123576   1.143   0.691   0.037 -0.1604 -0.1995 -0.1551
 7471SOL    HW223577   1.126   0.541   0.055 -1.2128 -0.3000 -1.7678
 7472SOL     OW23578   6.465   3.204   6.567  0.5142 -0.4488 -0.3766
 7472SOL    HW123579   6.532   3.166   6.511  0.1011 -0.9443 -0.5406
 7472SOL    HW223580   6.386   3.203   6.514  0.4658  0.5275 -0.3405
 7473SOL     OW23581   7.367   0.179   2.911 -0.5129  0.3075 -0.0379
 7473SOL    HW123582   7.427   0.146   2.978  1.1616  1.8565 -0.6806
 7473SOL    HW223583   7.331   0.101   2.870 -0.0287 -0.6690  1.3200
 7474SOL     OW23584   6.764   0.213   6.256 -0.8055 -0.2011 -0.4542
 7474SOL    HW123585   6.757   0.292   6.203  0.8547 -0.2639 -0.8152
 7474SOL    HW223586   6.833   0.232   6.319 -0.9972 -1.0439  0.0273
 7475SOL     OW23587   1.917   2.067   6.396 -0.1518 -0.2695  0.2417
 7475SOL    HW123588   1.825   2.093   6.407  0.5420  2.8985 -0.4573
 7475SOL    HW223589   1.942   2.033   6.482 -1.4102  0.8888  1.1180
 7476SOL     OW23590   7.770   6.963   4.892  0.0185 -0.2946 -0.6989
 7476SOL    HW123591   7.793   7.056   4.903 -1.4530 -0.0069  0.2307
 7476SOL    HW223592   7.689   6.953   4.941  0.0348 -2.0433 -0.9816
 7477SOL     OW23593   3.416   3.061   2.657  0.1573  0.0828 -0.0554
 7477SOL    HW123594   3.334   3.028   2.619  0.3150  0.3347 -0.6199
 7477SOL    HW223595   3.405   3.047   2.751  0.2822 -1.7004 -0.2769
 7478SOL     OW23596   6.300   4.101   1.630  0.0443 -0.3964  0.2699
 7478SOL    HW123597   6.330   4.102   1.539 -0.1164 -1.0811  0.2006
 7478SOL    HW223598   6.208   4.126   1.626  0.1995  0.1778  0.3108
 7479SOL     OW23599   4.886   6.033   5.030 -0.1868  0.0875  0.5709
 7479SOL    HW123600   4.813   6.013   4.972 -0.3172 -0.1894  0.8285
 7479SOL    HW223601   4.859   5.998   5.115 -0.2791  1.0556  0.9574
 7480SOL     OW23602   0.577   6.279   7.756  0.3197  0.0256 -0.7846
 7480SOL    HW123603   0.546   6.219   7.825  0.4059 -0.8384 -1.4832
 7480SOL    HW223604   0.523   6.357   7.767 -1.7351 -1.1903 -1.5546
 7481SOL     OW23605   2.703   7.995   6.614  0.1628  0.1766 -0.0510
 7481SOL    HW123606   2.774   7.970   6.554  0.7564  1.6503  0.0005
 7481SOL    HW223607   2.632   7.934   6.593  0.4304  0.4785 -2.0885
 7482SOL     OW23608   5.327   2.677   2.911  0.4059  0.5481 -0.1570
 7482SOL    HW123609   5.287   2.645   2.992  1.3482 -0.5613 -0.1032
 7482SOL    HW223610   5.304   2.770   2.908  0.9294  0.7953  1.7538
 7483SOL     OW23611   4.380   0.120   8.219  0.2032 -0.8177 -0.1545
 7483SOL    HW123612   4.353   0.096   8.307 -0.8579 -1.7457 -0.7005
 7483SOL    HW223613   4.383   0.215   8.219 -2.7583 -0.6434  0.0782
 7484SOL     OW23614   5.309   0.329   5.759  0.0460  0.4507  0.1039
 7484SOL    HW123615   5.241   0.395   5.746 -0.5826 -0.2424 -0.2225
 7484SOL    HW223616   5.324   0.328   5.853  0.8450  1.8036  0.0192
 7485SOL     OW23617   4.316   2.130   8.590  0.2848  0.2686 -0.3216
 7485SOL    HW123618   4.388   2.068   8.574 -2.3236 -2.6290 -2.0484
 7485SOL    HW223619   4.313   2.185   8.512  0.9110  0.7528 -0.0116
 7486SOL     OW23620   3.956   3.926   6.790  0.0741  0.5084 -0.6919
 7486SOL    HW123621   3.973   3.998   6.730  1.8090  1.4367  0.8207
 7486SOL    HW223622   4.041   3.884   6.803 -0.3458  0.0001  0.6800
 7487SOL     OW23623   3.823   5.730   8.210 -1.0506  0.2134  0.3752
 7487SOL    HW123624   3.792   5.712   8.299  0.3119  2.8161  1.4723
 7487SOL    HW223625   3.770   5.804   8.182  1.3365  2.1539  0.7431
 7488SOL     OW23626   1.759   2.965   1.818  0.1120  0.0999 -0.3046
 7488SOL    HW123627   1.788   2.968   1.727 -0.5292 -1.4293 -0.5890
 7488SOL    HW223628   1.795   2.883   1.852 -0.1375  0.3749  0.6540
 7489SOL     OW23629   3.640   2.446   5.929 -0.3309  0.5547 -0.3039
 7489SOL    HW123630   3.682   2.361   5.912 -0.0082  0.7525 -0.4944
 7489SOL    HW223631   3.580   2.428   6.001  1.5895  0.7134  1.4332
 7490SOL     OW23632   3.907   3.584   5.137 -0.7031 -0.6528 -0.3523
 7490SOL    HW123633   3.882   3.675   5.150  0.7658  0.2668 -3.1666
 7490SOL    HW223634   3.825   3.539   5.116 -1.5186 -0.1578  1.5417
 7491SOL     OW23635   7.112   0.143   4.619  0.0491 -0.3988 -0.6426
 7491SOL    HW123636   7.040   0.081   4.630 -0.0532 -0.0854  0.5678
 7491SOL    HW223637   7.083   0.222   4.665  0.7976  0.0323 -0.9003
 7492SOL     OW23638   3.466   6.098   6.426 -0.3536  0.2361 -1.3542
 7492SOL    HW123639   3.465   6.074   6.334 -0.5467 -2.1636 -0.7893
 7492SOL    HW223640   3.550   6.066   6.459 -0.4422  0.7319 -0.6079
 7493SOL     OW23641   8.192   1.416   3.076 -0.3353 -0.5199 -0.0433
 7493SOL    HW123642   8.207   1.507   3.051  0.8001 -1.1276 -1.6890
 7493SOL    HW223643   8.182   1.369   2.993 -1.7017 -1.8030  0.7859
 7494SOL     OW23644   2.225   7.338   0.864 -0.3250  0.6028 -0.1691
 7494SOL    HW123645   2.192   7.313   0.778 -1.6673  0.9475  0.2373
 7494SOL    HW223646   2.273   7.261   0.894 -2.3823 -0.6709  0.0370
 7495SOL     OW23647   7.726   3.927   8.488  0.6623  0.1946  0.5170
 7495SOL    HW123648   7.735   3.925   8.393 -0.4889  0.7652  0.3685
 7495SOL    HW223649   7.781   4.000   8.516  0.3532  0.5604  0.1867
 7496SOL     OW23650   8.600   6.518   6.904  0.5177 -0.3161  0.1415
 7496SOL    HW123651   8.543   6.516   6.827 -0.1957 -1.0781  0.6781
 7496SOL    HW223652   8.577   6.439   6.953  1.3744 -0.1400  0.8455
 7497SOL     OW23653   1.158   6.003   6.941  0.2415  0.1373 -0.0879
 7497SOL    HW123654   1.110   6.067   6.890  1.0226  0.5920 -0.2628
 7497SOL    HW223655   1.136   5.919   6.901 -0.0365  0.3846 -0.4588
 7498SOL     OW23656   0.398   5.765   3.197 -0.5185 -0.0610  0.4900
 7498SOL    HW123657   0.445   5.691   3.235  1.1144  0.9028  0.4501
 7498SOL    HW223658   0.417   5.839   3.256 -0.3219  0.8046 -0.6230
 7499SOL     OW23659   6.844   0.091   6.774  0.3461 -0.3061 -0.3120
 7499SOL    HW123660   6.756   0.117   6.803  0.1378  0.0481 -1.2021
 7499SOL    HW223661   6.879   0.039   6.846 -0.6706 -0.6085 -0.0130
 7500SOL     OW23662   4.032   6.828   3.830  0.4778  0.0903 -0.1205
 7500SOL    HW123663   4.038   6.911   3.782 -2.8679  0.7498  0.3933
 7500SOL    HW223664   4.033   6.854   3.922 -1.8329 -0.2570  0.0386
 7501SOL     OW23665   4.699   0.249   1.040 -0.7718 -0.0398 -0.2071
 7501SOL    HW123666   4.713   0.309   1.113  0.0673  0.4301 -0.7332
 7501SOL    HW223667   4.688   0.163   1.081  0.4976  0.0846  0.4301
 7502SOL     OW23668   4.529   0.529   4.639  0.7359 -0.1064 -0.3304
 7502SOL    HW123669   4.440   0.515   4.670  1.1925 -0.6101  0.8130
 7502SOL    HW223670   4.567   0.592   4.700  2.1458 -2.3021  1.2006
 7503SOL     OW23671   3.995   5.380   5.105  0.3943  0.0828 -0.6253
 7503SOL    HW123672   4.075   5.397   5.154  0.5829 -1.7729 -0.2419
 7503SOL    HW223673   3.927   5.425   5.155  0.7901 -0.6362  0.6028
 7504SOL     OW23674   6.540   0.652   3.562  1.0512  0.3505 -0.2300
 7504SOL    HW123675   6.484   0.635   3.637  3.7448 -0.2403  1.7847
 7504SOL    HW223676   6.501   0.728   3.519 -2.2661 -1.1015 -0.0762
 7505SOL     OW23677   3.170   0.282   0.023  0.0811  0.0356 -0.4317
 7505SOL    HW123678   3.185   0.233   0.104 -1.8655 -2.6376 -1.5376
 7505SOL    HW223679   3.257   0.312  -0.003  0.9687 -0.3424  1.8428
 7506SOL     OW23680   5.006   6.587   2.556 -0.2062 -0.2513  0.3420
 7506SOL    HW123681   4.985   6.533   2.480 -0.1402 -1.3495  1.0842
 7506SOL    HW223682   5.090   6.553   2.587  0.8003  1.5358 -0.2937
 7507SOL     OW23683   5.508   6.554   1.799  0.7248  0.6394  0.4233
 7507SOL    HW123684   5.483   6.467   1.832  0.7690  0.2976 -0.4212
 7507SOL    HW223685   5.470   6.615   1.863  1.1951 -0.0090  1.3498
 7508SOL     OW23686   6.540   6.238   3.656 -0.1539  0.0973 -0.3659
 7508SOL    HW123687   6.473   6.202   3.715 -1.2069  0.8357 -1.0656
 7508SOL    HW223688   6.562   6.166   3.597 -2.9730  0.7274 -2.3996
 7509SOL     OW23689   2.307   1.210   4.815  0.6535 -0.2141 -0.2065
 7509SOL    HW123690   2.353   1.275   4.762  1.5709 -1.8255 -1.4468
 7509SOL    HW223691   2.282   1.141   4.753  3.1628 -2.9614  1.6004
 7510SOL     OW23692   1.456   7.446   6.817  0.2388 -0.3114  0.0288
 7510SOL    HW123693   1.408   7.529   6.821  1.7792  0.6836 -0.9351
 7510SOL    HW223694   1.542   7.470   6.784  0.6849 -2.3397 -0.4188
 7511SOL     OW23695   2.766   3.012   7.192  0.4195  0.1341 -0.0246
 7511SOL    HW123696   2.727   2.999   7.105  1.1263  0.9399 -0.4767
 7511SOL    HW223697   2.813   2.931   7.209  2.6840  0.9923 -1.6968
 7512SOL     OW23698   0.840   2.654   6.363 -0.3907  0.2434  0.8266
 7512SOL    HW123699   0.840   2.687   6.453 -1.0964 -0.2840  1.0246
 7512SOL    HW223700   0.751   2.624   6.348  0.0348 -0.8559  0.3783
 7513SOL     OW23701   1.584   5.053   5.808  0.0137 -0.2390  0.1960
 7513SOL    HW123702   1.633   5.120   5.857 -0.0733  0.1483 -0.2453
 7513SOL    HW223703   1.518   5.022   5.870 -0.0564  0.2060  0.3488
 7514SOL     OW23704   5.229   8.494   6.854 -0.2546 -0.9225 -0.1545
 7514SOL    HW123705   5.242   8.431   6.925  0.5873 -1.0560 -0.4149
 7514SOL    HW223706   5.309   8.489   6.802 -0.7640 -0.6550 -0.9887
 7515SOL     OW23707   0.317   3.149   1.591  0.0542  0.2034  0.3293
 7515SOL    HW123708   0.272   3.170   1.509 -0.5738  0.5034  0.7376
 7515SOL    HW223709   0.259   3.184   1.659  0.9666  0.7126  0.8686
 7516SOL     OW23710   1.151   6.843   2.623  0.4813 -0.1723  0.0845
 7516SOL    HW123711   1.117   6.756   2.646 -0.5849  0.1208 -0.3463
 7516SOL    HW223712   1.222   6.858   2.686  2.0161 -2.1723 -1.0360
 7517SOL     OW23713   7.289   6.097   5.234 -0.2886  0.2145  1.0511
 7517SOL    HW123714   7.354   6.086   5.165  1.7080 -1.1465  3.0203
 7517SOL    HW223715   7.320   6.171   5.286 -1.4192  0.8235  0.8954
 7518SOL     OW23716   1.974   0.574   5.874 -0.3872 -0.4216  0.2529
 7518SOL    HW123717   2.007   0.487   5.899  0.6540  0.0659  0.6389
 7518SOL    HW223718   2.005   0.632   5.944 -2.7780 -0.0416  1.0773
 7519SOL     OW23719   0.501   6.584   3.269  0.2656  0.1895 -0.2224
 7519SOL    HW123720   0.485   6.542   3.353 -0.1633 -0.0145 -0.4012
 7519SOL    HW223721   0.538   6.670   3.291 -1.6075  0.9214  0.2387
 7520SOL     OW23722   7.952   3.308   1.215 -0.1920  0.0951  0.1481
 7520SOL    HW123723   7.968   3.249   1.142 -0.3096 -0.5954  0.6758
 7520SOL    HW223724   7.858   3.304   1.231 -0.3830  1.3042 -0.5390
 7521SOL     OW23725   5.990   0.877   6.778 -0.5815  0.5228 -0.5157
 7521SOL    HW123726   6.054   0.931   6.825 -1.0615  0.0537  0.7040
 7521SOL    HW223727   5.920   0.938   6.754 -1.4177  0.3743  1.3980
 7522SOL     OW23728   6.691   5.397   4.734 -0.6777  0.0894  0.3932
 7522SOL    HW123729   6.714   5.421   4.644 -1.0020  0.6339  0.4534
 7522SOL    HW223730   6.668   5.479   4.776  0.2131 -0.0657  1.2023
 7523SOL     OW23731   8.102   3.838   8.120  0.4663  0.3254 -0.4087
 7523SOL    HW123732   8.056   3.877   8.194 -0.0487 -0.1368 -0.4828
 7523SOL    HW223733   8.188   3.881   8.120  1.2297 -1.0353  1.6459
 7524SOL     OW23734   7.187   7.357   6.914  0.1584 -0.1988  0.0518
 7524SOL    HW123735   7.219   7.266   6.908 -0.4651 -0.3314 -1.8385
 7524SOL    HW223736   7.217   7.386   7.000  0.5144 -2.1425  0.6528
 7525SOL     OW23737   3.937   7.889   0.672 -0.0437  0.4506  0.1478
 7525SOL    HW123738   3.932   7.922   0.762  0.5370  0.0587  0.3269
 7525SOL    HW223739   4.030   7.874   0.657 -0.3103 -1.5663  0.2459
 7526SOL     OW23740   3.689   3.977   7.794  0.4075  0.3184 -0.1647
 7526SOL    HW123741   3.774   4.008   7.760  0.6764 -0.6679 -0.4279
 7526SOL    HW223742   3.629   3.988   7.720  0.8879 -1.3733 -0.8569
 7527SOL     OW23743   7.154   5.550   3.914 -0.3205  0.4131 -0.2783
 7527SOL    HW123744   7.069   5.524   3.880 -0.0108  1.1187 -1.6462
 7527SOL    HW223745   7.202   5.583   3.838  1.5177 -0.7932  0.2813
 7528SOL     OW23746   3.608   1.898   2.397 -0.5571 -0.1197  0.8532
 7528SOL    HW123747   3.529   1.852   2.369 -0.1250 -0.3736  0.0214
 7528SOL    HW223748   3.676   1.829   2.401 -0.0099  0.3570  0.0183
 7529SOL     OW23749   4.804   2.322   2.603  0.4331  0.1937 -0.7955
 7529SOL    HW123750   4.896   2.346   2.613  0.9482 -0.9109 -2.3844
 7529SOL    HW223751   4.805   2.228   2.587 -0.8285  0.3788 -2.2322
 7530SOL     OW23752   0.879   8.426   0.292  0.0330 -0.3248 -0.0856
 7530SOL    HW123753   0.847   8.352   0.344 -2.5427  0.5568 -0.2807
 7530SOL    HW223754   0.808   8.490   0.295  1.1133  1.0722 -2.0822
 7531SOL     OW23755   3.620   5.860   4.278  0.0353  0.1772 -1.3556
 7531SOL    HW123756   3.559   5.887   4.346  0.2497  1.2918 -1.5826
 7531SOL    HW223757   3.568   5.859   4.198  0.0160 -0.1477 -1.3404
 7532SOL     OW23758   0.415   5.601   4.377  0.1613  0.1660 -0.6158
 7532SOL    HW123759   0.371   5.684   4.394  1.4131  0.7091  0.1143
 7532SOL    HW223760   0.455   5.612   4.291  2.0979  1.1538  0.3596
 7533SOL     OW23761   8.579   2.721   4.796 -0.0333 -0.5239  0.2476
 7533SOL    HW123762   8.543   2.632   4.802  0.9769 -1.0127 -0.5794
 7533SOL    HW223763   8.523   2.773   4.853 -2.9382 -0.9214 -2.0129
 7534SOL     OW23764   7.810   7.708   8.652  0.2269 -0.4108 -0.1652
 7534SOL    HW123765   7.722   7.679   8.677 -1.1697  2.1796 -1.6020
 7534SOL    HW223766   7.837   7.649   8.582 -0.7486 -0.7357 -0.2795
 7535SOL     OW23767   6.635   7.730   6.554 -0.1533 -0.0399  0.0871
 7535SOL    HW123768   6.705   7.750   6.616 -0.8965 -0.6542  1.1564
 7535SOL    HW223769   6.673   7.748   6.468  1.4360 -0.7028  0.6160
 7536SOL     OW23770   7.779   8.338   5.387  0.9274  0.4220  0.5731
 7536SOL    HW123771   7.711   8.286   5.345  1.1508 -0.3928  1.1843
 7536SOL    HW223772   7.742   8.362   5.472  1.4599 -0.1975  0.9931
 7537SOL     OW23773   8.170   5.089   5.299 -1.1139 -0.6123  0.3319
 7537SOL    HW123774   8.262   5.062   5.289 -1.4516 -1.6788 -0.0700
 7537SOL    HW223775   8.170   5.147   5.375  0.2411  1.1649 -0.9311
 7538SOL     OW23776   4.783   8.505   5.170 -0.6562 -0.2314  0.1883
 7538SOL    HW123777   4.839   8.514   5.247 -0.2396  1.4230 -0.2604
 7538SOL    HW223778   4.842   8.480   5.099 -0.5762  0.8576 -0.1432
 7539SOL     OW23779   6.808   3.540   8.384  0.3437 -0.6488  0.1154
 7539SOL    HW123780   6.801   3.470   8.319  0.8602 -1.2500  0.6949
 7539SOL    HW223781   6.899   3.536   8.414 -0.3129 -1.5433  2.1254
 7540SOL     OW23782   0.699   5.771   6.179  0.2505  0.1107 -0.1804
 7540SOL    HW123783   0.729   5.715   6.107  0.2676  0.0195 -0.1039
 7540SOL    HW223784   0.723   5.722   6.258  1.8662  1.0056 -0.0564
 7541SOL     OW23785   8.724   0.270   8.509  0.5053 -0.4087 -0.2510
 7541SOL    HW123786   8.708   0.254   8.416  1.4469 -0.7598 -0.3612
 7541SOL    HW223787   8.685   0.195   8.554 -2.9293  1.2864 -0.0402
 7542SOL     OW23788   0.501   1.632   3.166 -0.1441  0.3615 -0.1434
 7542SOL    HW123789   0.568   1.637   3.234 -0.7962 -0.3454  0.5821
 7542SOL    HW223790   0.549   1.631   3.084  0.7615 -0.4958  0.3745
 7543SOL     OW23791   6.202   7.290   0.181  0.0178  0.2094 -0.2401
 7543SOL    HW123792   6.135   7.222   0.183  1.7888 -1.7100 -1.3816
 7543SOL    HW223793   6.170   7.353   0.116 -1.4928  0.3485  0.5812
 7544SOL     OW23794   8.620   1.675   1.893 -0.8190 -0.3112 -0.0356
 7544SOL    HW123795   8.667   1.750   1.931 -0.8191  0.4341 -1.4256
 7544SOL    HW223796   8.689   1.616   1.863 -0.7770  0.0154 -0.6009
 7545SOL     OW23797   0.176   6.775   2.151 -0.2257 -0.2094  0.4184
 7545SOL    HW123798   0.244   6.842   2.150 -1.0656  0.6901 -2.0784
 7545SOL    HW223799   0.198   6.717   2.079 -0.9172 -1.2010  0.9765
 7546SOL     OW23800   6.479   7.312   7.757 -0.2183  0.2454 -0.0164
 7546SOL    HW123801   6.563   7.281   7.723 -1.2214 -0.1811 -2.3037
 7546SOL    HW223802   6.436   7.233   7.789  0.0663  0.3973  0.7521
 7547SOL     OW23803   4.242   0.274   5.804  0.4015  0.7376  0.4938
 7547SOL    HW123804   4.215   0.344   5.744  0.6788 -0.5140 -1.1542
 7547SOL    HW223805   4.326   0.244   5.770  0.0509 -0.7298  0.8399
 7548SOL     OW23806   7.100   4.736   0.442 -0.4694  0.3634 -0.5517
 7548SOL    HW123807   7.061   4.677   0.378  0.1804 -0.3582 -0.3005
 7548SOL    HW223808   7.071   4.823   0.415  0.7793  0.2305 -2.5726
 7549SOL     OW23809   8.474   2.052   4.537  0.4027 -0.2220  0.6751
 7549SOL    HW123810   8.417   2.114   4.492  1.2507 -0.5028 -0.8611
 7549SOL    HW223811   8.416   1.983   4.568 -0.5298  1.1750  2.2132
 7550SOL     OW23812   2.535   5.360   0.727  0.1678  0.5723 -0.1482
 7550SOL    HW123813   2.553   5.444   0.685  1.5170  0.9055  1.0408
 7550SOL    HW223814   2.539   5.297   0.656 -0.8405  1.4761 -1.0614
 7551SOL     OW23815   5.963   1.946   7.238 -0.6994 -0.0152 -0.0064
 7551SOL    HW123816   5.990   2.022   7.185 -1.2414 -0.8459 -1.5529
 7551SOL    HW223817   5.957   1.980   7.327 -0.3629  1.6199 -0.5649
 7552SOL     OW23818   6.582   3.505   3.605  0.2790 -0.5695 -0.4530
 7552SOL    HW123819   6.621   3.578   3.654 -0.9617  0.3134 -0.7300
 7552SOL    HW223820   6.652   3.440   3.599  0.7235 -0.3800  1.7851
 7553SOL     OW23821   8.321   3.732   0.306  0.1543  0.4274  0.2884
 7553SOL    HW123822   8.342   3.647   0.266  1.4700  0.8205  0.0884
 7553SOL    HW223823   8.241   3.715   0.356  0.3622 -0.9229  0.2225
 7554SOL     OW23824   1.967   2.474   0.588  0.2491 -0.2148 -0.3701
 7554SOL    HW123825   1.972   2.381   0.607 -2.8154 -0.3380  0.4672
 7554SOL    HW223826   2.026   2.515   0.651  1.5851 -1.5454 -0.7041
 7555SOL     OW23827   7.030   6.961   0.034  0.5597  0.0134  0.0551
 7555SOL    HW123828   7.010   6.980  -0.057  0.9075  3.1084  0.4957
 7555SOL    HW223829   6.956   6.997   0.083  1.4258  0.4462  1.0848
 7556SOL     OW23830   3.057   8.538   0.754  0.0055  0.2916 -0.2925
 7556SOL    HW123831   3.012   8.502   0.830  0.6609 -0.7299 -0.3759
 7556SOL    HW223832   2.988   8.586   0.707 -0.8328 -0.6243 -0.0361
 7557SOL     OW23833   0.127   3.257   1.762 -0.3095 -0.4816  0.0567
 7557SOL    HW123834   0.070   3.321   1.718  0.0454  0.2996  0.7059
 7557SOL    HW223835   0.094   3.254   1.852  1.6325  1.2290  0.9134
 7558SOL     OW23836   4.440   7.497   3.981  0.1320 -0.8794  0.2225
 7558SOL    HW123837   4.373   7.437   4.014  0.0165  0.0784  1.8532
 7558SOL    HW223838   4.510   7.492   4.045  0.1541  0.6368  0.3525
 7559SOL     OW23839   7.409   6.018   0.984 -0.3175 -0.1061 -0.2061
 7559SOL    HW123840   7.410   6.073   0.906  0.7127 -0.2388 -0.2976
 7559SOL    HW223841   7.317   6.011   1.007 -0.6824 -0.4159 -1.6569
 7560SOL     OW23842   3.798   3.214   0.638 -0.2371  0.4709 -0.1054
 7560SOL    HW123843   3.860   3.274   0.679 -0.5345  0.3897  0.4766
 7560SOL    HW223844   3.717   3.226   0.688 -0.1579 -0.7930  0.3551
 7561SOL     OW23845   3.328   4.586   6.084 -0.2564 -0.0705 -0.1620
 7561SOL    HW123846   3.341   4.573   5.990 -0.0458 -0.5699 -0.0652
 7561SOL    HW223847   3.398   4.645   6.111 -0.0544 -0.2796 -0.2329
 7562SOL     OW23848   1.368   4.350   4.596  0.3034 -0.0008 -0.1375
 7562SOL    HW123849   1.410   4.271   4.631 -0.8439 -1.2808 -1.4676
 7562SOL    HW223850   1.280   4.349   4.634  0.1178  0.3462 -0.5486
 7563SOL     OW23851   4.681   8.830   1.140  0.5048 -0.6973 -0.0379
 7563SOL    HW123852   4.773   8.809   1.123  1.1464 -1.3693  3.4685
 7563SOL    HW223853   4.640   8.746   1.159 -0.2481 -0.1740  0.7267
 7564SOL     OW23854   2.391   2.914   1.444  0.0966 -0.1516 -0.2200
 7564SOL    HW123855   2.414   2.954   1.360 -1.5636 -0.6323 -0.9555
 7564SOL    HW223856   2.318   2.968   1.477  0.5393 -0.1391  0.7814
 7565SOL     OW23857   1.754   0.909   0.176  0.0044  0.3583 -0.3522
 7565SOL    HW123858   1.773   0.819   0.201 -0.0621 -0.1641 -2.0699
 7565SOL    HW223859   1.839   0.945   0.150 -0.3149 -0.0044 -2.0030
 7566SOL     OW23860   0.754   4.972   4.478  0.4238 -0.1478  0.0174
 7566SOL    HW123861   0.804   4.903   4.521  0.3014  0.4132  1.0964
 7566SOL    HW223862   0.742   5.039   4.546 -3.8063 -1.2378  0.6768
 7567SOL     OW23863   6.751   6.538   5.033  0.2523  0.1774  0.2092
 7567SOL    HW123864   6.807   6.578   5.099  3.0152 -2.5871 -0.2797
 7567SOL    HW223865   6.726   6.454   5.071  1.1593 -1.0673 -1.8308
 7568SOL     OW23866   8.065   2.229   0.354  0.0912 -0.4397  0.2229
 7568SOL    HW123867   7.995   2.232   0.288  0.9101  0.9031 -0.6640
 7568SOL    HW223868   8.121   2.156   0.327  0.8143  0.5362 -1.0620
 7569SOL     OW23869   6.745   8.023   3.921  0.1090 -0.7238 -0.2290
 7569SOL    HW123870   6.808   8.031   3.992  2.1036 -1.4540 -1.8366
 7569SOL    HW223871   6.682   7.957   3.952 -1.5841  1.9274  2.4935
 7570SOL     OW23872   4.126   3.810   1.033 -0.2897 -0.0431  0.2102
 7570SOL    HW123873   4.043   3.766   1.013 -0.4363  0.4408 -0.2925
 7570SOL    HW223874   4.167   3.755   1.100 -1.5111  0.2733  1.2644
 7571SOL     OW23875   4.076   3.035   7.924 -0.4598 -0.1030  0.3757
 7571SOL    HW123876   4.028   2.967   7.970  0.7166 -2.5204 -1.7230
 7571SOL    HW223877   4.168   3.008   7.930 -0.0766  0.6126 -1.5403
 7572SOL     OW23878   4.533   1.725   0.573  0.3103  0.1378  0.0999
 7572SOL    HW123879   4.484   1.782   0.632  1.5704 -1.4057  2.8902
 7572SOL    HW223880   4.506   1.637   0.598  2.2452 -0.6280 -0.3504
 7573SOL     OW23881   7.358   2.636   6.411  0.0685 -0.3406  0.3315
 7573SOL    HW123882   7.337   2.621   6.318  1.5540 -0.4707 -0.0026
 7573SOL    HW223883   7.317   2.721   6.431  1.6079  0.8007 -1.0919
 7574SOL     OW23884   4.787   6.571   3.793  0.1741  0.8248 -0.3994
 7574SOL    HW123885   4.814   6.529   3.874  2.5321  0.1530 -1.4255
 7574SOL    HW223886   4.713   6.519   3.761  0.3717  0.0188  0.4355
 7575SOL     OW23887   5.571   0.524   3.010 -0.3332 -0.3986 -0.0424
 7575SOL    HW123888   5.648   0.480   2.975 -1.4684 -1.8665 -0.8054
 7575SOL    HW223889   5.514   0.454   3.040 -1.1532  0.6804  1.0038
 7576SOL     OW23890   0.615   0.360   6.547  0.2252 -0.3183 -0.1873
 7576SOL    HW123891   0.523   0.384   6.558 -0.7198 -2.6150 -2.1365
 7576SOL    HW223892   0.663   0.438   6.574 -2.3039  1.2942  0.0673
 7577SOL     OW23893   0.178   2.846   1.344  0.1318 -0.6370 -0.2831
 7577SOL    HW123894   0.253   2.785   1.339 -0.9630 -2.2190  1.2867
 7577SOL    HW223895   0.128   2.815   1.420 -1.6605  0.9178 -0.7792
 7578SOL     OW23896   8.080   0.711   0.209 -0.0694  0.1573 -0.0893
 7578SOL    HW123897   8.011   0.697   0.274 -0.8161 -0.6297 -1.0189
 7578SOL    HW223898   8.040   0.685   0.126  1.2909 -0.1269 -0.6764
 7579SOL     OW23899   7.054   6.106   0.389  0.2685  0.0956  0.5039
 7579SOL    HW123900   7.120   6.063   0.334 -1.1092 -1.6570  0.1300
 7579SOL    HW223901   7.030   6.184   0.340 -0.3774 -1.0397 -1.0724
 7580SOL     OW23902   3.862   3.276   1.031  0.4031  0.1865 -0.4752
 7580SOL    HW123903   3.777   3.242   1.006  0.0006  1.8441 -1.5409
 7580SOL    HW223904   3.860   3.368   1.004  2.2017  0.4922  0.2762
 7581SOL     OW23905   6.535   6.889   7.118  0.1088  0.5243 -0.1473
 7581SOL    HW123906   6.504   6.946   7.188  0.9188 -0.8260  1.3719
 7581SOL    HW223907   6.615   6.849   7.152 -0.6933 -1.9161 -0.9117
 7582SOL     OW23908   5.481   5.017   0.766  0.0771  0.1694  0.6273
 7582SOL    HW123909   5.537   4.956   0.720  0.7318  0.3475  1.1707
 7582SOL    HW223910   5.474   5.092   0.707 -1.2139 -0.6506 -0.2991
 7583SOL     OW23911   6.004   0.236   0.677  0.2217  0.6441 -0.0104
 7583SOL    HW123912   6.040   0.207   0.760 -0.6751 -1.4584 -0.2992
 7583SOL    HW223913   5.927   0.288   0.700  1.4101  2.2436  0.4995
 7584SOL     OW23914   4.472   7.622   7.291 -0.9614  0.4428 -0.3425
 7584SOL    HW123915   4.426   7.601   7.372 -1.3928  0.8517 -0.4760
 7584SOL    HW223916   4.564   7.601   7.309 -1.3110 -1.2422 -0.3775
 7585SOL     OW23917   8.477   1.133   5.314  0.2473 -0.0783 -0.6521
 7585SOL    HW123918   8.492   1.084   5.232  0.4684  0.5640 -0.9990
 7585SOL    HW223919   8.416   1.203   5.289 -0.7042 -0.6448  0.0161
 7586SOL     OW23920   6.094   7.622   7.479  0.5233 -0.3892  0.4346
 7586SOL    HW123921   6.116   7.534   7.509 -0.4787 -0.5755  0.6368
 7586SOL    HW223922   6.001   7.632   7.498  0.3474  0.2716 -0.6587
 7587SOL     OW23923   4.996   7.412   2.772 -0.1975  0.0985 -0.1934
 7587SOL    HW123924   4.936   7.381   2.704 -0.6513  0.3968  0.0636
 7587SOL    HW223925   5.020   7.501   2.745 -0.2481  0.1562 -0.0477
 7588SOL     OW23926   4.894   7.007   0.807  0.1675 -1.0328  0.0925
 7588SOL    HW123927   4.821   7.060   0.775  0.6182 -1.2242 -1.3594
 7588SOL    HW223928   4.881   7.002   0.901  0.5118  2.2990  0.4390
 7589SOL     OW23929   2.499   6.332   8.297 -0.0726  0.1232 -0.0736
 7589SOL    HW123930   2.503   6.386   8.219  0.2865 -0.2919 -0.3467
 7589SOL    HW223931   2.411   6.296   8.297 -0.4320  0.9664  0.2921
 7590SOL     OW23932   7.971   2.599   0.116 -0.5170  0.5300  0.1862
 7590SOL    HW123933   8.064   2.591   0.097 -0.2892  2.9026  0.0390
 7590SOL    HW223934   7.929   2.595   0.030 -0.5347 -0.1833  0.2225
 7591SOL     OW23935   4.880   2.858   8.649 -0.1454  0.0138  0.1822
 7591SOL    HW123936   4.795   2.902   8.646  1.1380  2.6446 -1.1871
 7591SOL    HW223937   4.906   2.862   8.741 -0.9615  0.3379  0.4105
 7592SOL     OW23938   4.208   3.195   6.672  0.2352  0.2311 -0.2306
 7592SOL    HW123939   4.145   3.124   6.659  1.0183 -0.2633 -1.5103
 7592SOL    HW223940   4.154   3.272   6.689 -0.6343 -0.6735  1.3468
 7593SOL     OW23941   0.730   0.302   1.417  0.3589 -0.2320  0.0850
 7593SOL    HW123942   0.767   0.387   1.396 -1.9667  0.2876 -2.6862
 7593SOL    HW223943   0.655   0.321   1.473  0.3809 -0.5466  0.2243
 7594SOL     OW23944   5.955   2.052   4.579 -0.2181  0.0129 -0.0007
 7594SOL    HW123945   5.911   2.046   4.494  0.1811 -1.2849 -0.1444
 7594SOL    HW223946   5.993   2.139   4.580  1.5028 -0.6207 -2.0427
 7595SOL     OW23947   5.602   1.707   5.819 -0.4091  0.2532 -0.3551
 7595SOL    HW123948   5.530   1.770   5.827 -0.7540 -0.1363 -0.3587
 7595SOL    HW223949   5.673   1.746   5.870  0.0048  1.5190 -1.8407
 7596SOL     OW23950   6.084   8.238   5.386  0.8328  0.0465  0.3294
 7596SOL    HW123951   6.167   8.265   5.347 -0.5257  0.8807 -2.1596
 7596SOL    HW223952   6.055   8.315   5.436  0.9568  0.1925  0.1764
 7597SOL     OW23953   4.626   2.832   1.206 -0.0388 -0.7809  0.2429
 7597SOL    HW123954   4.650   2.741   1.189  2.0471 -0.7457  2.4926
 7597SOL    HW223955   4.677   2.882   1.142 -1.3338 -1.1163 -1.1283
 7598SOL     OW23956   3.058   2.326   7.894 -0.4468  0.0145 -0.1515
 7598SOL    HW123957   3.141   2.373   7.896  0.1075 -0.9091 -0.7318
 7598SOL    HW223958   3.047   2.293   7.983  0.1941 -0.4881 -0.2473
 7599SOL     OW23959   3.557   2.096   7.237 -0.1201  0.0247 -0.5245
 7599SOL    HW123960   3.526   2.176   7.195 -1.1056  0.1983  0.4647
 7599SOL    HW223961   3.595   2.045   7.166  0.4824  1.3397 -1.1829
 7600SOL     OW23962   4.308   3.118   4.023 -0.0318 -0.0882 -0.8924
 7600SOL    HW123963   4.268   3.154   4.103 -0.0270  0.7819 -1.2703
 7600SOL    HW223964   4.326   3.195   3.969  0.8586 -0.5898 -1.3271
 7601SOL     OW23965   6.371   8.428   7.514  0.1575 -0.1010 -0.4009
 7601SOL    HW123966   6.448   8.470   7.476  0.2598 -0.4473 -0.5867
 7601SOL    HW223967   6.385   8.433   7.609 -0.3854  1.3098 -0.3664
 7602SOL     OW23968   7.232   2.808   0.213  0.1355  0.6657  0.0752
 7602SOL    HW123969   7.229   2.754   0.134 -1.2133  0.8362 -0.0023
 7602SOL    HW223970   7.287   2.757   0.274  1.4471  0.6872 -1.0555
 7603SOL     OW23971   1.798   1.339   8.673  0.2161 -0.3419  0.0115
 7603SOL    HW123972   1.787   1.276   8.602 -0.6765 -0.8575  0.5851
 7603SOL    HW223973   1.732   1.406   8.656 -2.2432 -2.0548  1.9882
 7604SOL     OW23974   6.826   7.829   1.691 -0.2072 -0.4409 -0.2643
 7604SOL    HW123975   6.912   7.792   1.710  0.4471  0.3842 -1.4493
 7604SOL    HW223976   6.830   7.918   1.726 -0.2499 -0.1106 -1.0692
 7605SOL     OW23977   1.716   5.085   2.799 -0.3466  0.5707  0.1390
 7605SOL    HW123978   1.703   5.055   2.889  0.2742 -2.8050 -0.7578
 7605SOL    HW223979   1.634   5.063   2.755  0.0204  0.5048 -0.5135
 7606SOL     OW23980   2.707   0.975   6.990 -0.0746 -0.3979  0.0522
 7606SOL    HW123981   2.674   0.928   6.913 -1.1750 -2.1158  1.4909
 7606SOL    HW223982   2.710   1.067   6.962 -1.8806 -0.7572 -1.5858
 7607SOL     OW23983   4.270   7.101   1.690  0.6185 -0.5185  0.1627
 7607SOL    HW123984   4.177   7.095   1.714  0.9764 -2.4188  1.2353
 7607SOL    HW223985   4.310   7.151   1.761  0.7003 -1.2401  0.6360
 7608SOL     OW23986   8.662   1.915   7.001 -0.0752  0.6724  0.0946
 7608SOL    HW123987   8.582   1.926   6.949 -0.6801 -1.8676  0.3506
 7608SOL    HW223988   8.642   1.959   7.084 -1.5442 -0.4998  0.4230
 7609SOL     OW23989   1.628   0.445   1.313 -0.3197 -0.2096 -0.2312
 7609SOL    HW123990   1.599   0.397   1.390  0.3343 -0.0595  0.1107
 7609SOL    HW223991   1.691   0.509   1.346 -0.9656  0.7045 -0.7190
 7610SOL     OW23992   2.295   4.187   5.880 -0.1261 -0.6786  0.3866
 7610SOL    HW123993   2.335   4.137   5.808  0.5443 -0.0383  0.3041
 7610SOL    HW223994   2.308   4.278   5.855 -0.2373 -0.4540  1.1406
 7611SOL     OW23995   7.710   0.408   2.652  0.6292  0.4642 -0.0960
 7611SOL    HW123996   7.765   0.487   2.648  1.8296 -0.3964 -1.0973
 7611SOL    HW223997   7.740   0.362   2.731  0.7989  0.3848 -0.2071
 7612SOL     OW23998   2.099   1.190   7.952  0.1208 -0.0607  0.8612
 7612SOL    HW123999   2.013   1.173   7.914  0.0929  0.2847  0.7660
 7612SOL    HW224000   2.161   1.165   7.884  0.0994 -0.3958  0.9632
 7613SOL     OW24001   7.798   6.385   4.972  0.2742  0.2470  0.2233
 7613SOL    HW124002   7.840   6.471   4.967  1.8133 -0.2510  2.8872
 7613SOL    HW224003   7.845   6.332   4.907  0.7141  0.8763  0.0200
 7614SOL     OW24004   5.758   8.833   1.885 -0.6954  0.3260 -0.0331
 7614SOL    HW124005   5.848   8.844   1.918 -0.6773 -0.2372  0.1163
 7614SOL    HW224006   5.721   8.921   1.889 -0.0684  0.6129 -0.3356
 7615SOL     OW24007   7.270   2.605   5.809 -0.9825  0.7905 -0.2622
 7615SOL    HW124008   7.276   2.696   5.780 -1.8738  0.5523 -1.2429
 7615SOL    HW224009   7.328   2.557   5.750 -1.0359  0.6214 -0.1780
 7616SOL     OW24010   6.235   7.148   3.859 -0.5560 -0.1521  0.6607
 7616SOL    HW124011   6.183   7.123   3.782 -1.3628  0.9883  0.8128
 7616SOL    HW224012   6.303   7.081   3.864 -0.6749 -0.4316 -0.8601
 7617SOL     OW24013   0.346   8.678   0.079 -0.1456 -0.1958 -0.3540
 7617SOL    HW124014   0.325   8.618   0.150 -0.8997  0.1928 -0.2286
 7617SOL    HW224015   0.263   8.724   0.063 -0.1525 -0.7054 -1.8986
 7618SOL     OW24016   2.503   6.940   2.271  0.2633  0.0011  0.3155
 7618SOL    HW124017   2.597   6.948   2.252  0.1132  0.4178 -0.2582
 7618SOL    HW224018   2.480   7.025   2.311 -0.1221  0.3553 -0.6345
 7619SOL     OW24019   5.825   0.163   0.342  0.5045  0.3820  0.5355
 7619SOL    HW124020   5.839   0.109   0.264  1.2370  0.5032  0.5706
 7619SOL    HW224021   5.890   0.130   0.405  1.9241  2.1713  0.1013
 7620SOL     OW24022   6.060   6.040   7.175 -0.4119  0.6687  0.1079
 7620SOL    HW124023   6.011   6.071   7.099  0.1171 -1.1789 -1.0663
 7620SOL    HW224024   6.122   6.110   7.194  0.1405  0.7868 -1.8509
 7621SOL     OW24025   4.378   8.102   5.097  0.2748  0.1621 -0.1280
 7621SOL    HW124026   4.371   8.017   5.052 -1.6568  0.6505 -0.8516
 7621SOL    HW224027   4.371   8.080   5.190  0.1471 -0.5089 -0.2874
 7622SOL     OW24028   3.895   3.798   5.362  0.0444 -0.0582 -0.2532
 7622SOL    HW124029   3.942   3.727   5.406 -0.1401 -0.5715 -0.8716
 7622SOL    HW224030   3.890   3.867   5.428  3.1309  0.7053 -0.6661
 7623SOL     OW24031   3.614   5.664   6.010 -0.1288  0.0454 -0.5421
 7623SOL    HW124032   3.549   5.678   5.942  0.1104 -2.3685 -1.3916
 7623SOL    HW224033   3.575   5.596   6.066  1.1322 -0.6004 -0.4044
 7624SOL     OW24034   4.823   8.733   5.883  0.1514  0.0782 -0.1110
 7624SOL    HW124035   4.888   8.762   5.946  0.2942 -1.0992  0.3029
 7624SOL    HW224036   4.831   8.638   5.881 -1.2253 -0.0652 -0.3980
 7625SOL     OW24037   4.011   1.596   2.848  0.3039  0.5398 -0.7976
 7625SOL    HW124038   3.955   1.529   2.885  1.1174  0.3634  0.1614
 7625SOL    HW224039   4.024   1.659   2.920  0.7168  0.9567 -1.2281
 7626SOL     OW24040   0.672   2.610   4.544 -0.1196  0.0707 -0.5778
 7626SOL    HW124041   0.601   2.665   4.511 -1.6759 -3.0611 -3.0090
 7626SOL    HW224042   0.630   2.552   4.607  0.8965 -0.1499 -0.0856
 7627SOL     OW24043   2.177   1.208   5.071 -0.2875  0.0757  0.1675
 7627SOL    HW124044   2.234   1.217   4.995 -1.1053  2.1375 -0.2829
 7627SOL    HW224045   2.111   1.277   5.059 -0.9045 -0.0737  2.3359
 7628SOL     OW24046   4.619   0.962   8.517 -0.3833  0.0465  0.6846
 7628SOL    HW124047   4.594   0.913   8.596 -0.3245 -0.9440  0.1134
 7628SOL    HW224048   4.684   0.906   8.474  2.3864  2.1828  1.7449
 7629SOL     OW24049   2.813   1.230   4.412  0.0418 -0.4056 -0.6093
 7629SOL    HW124050   2.724   1.199   4.396 -0.0447 -0.6490  0.2996
 7629SOL    HW224051   2.868   1.152   4.409  0.1883 -0.2982 -0.8417
 7630SOL     OW24052   1.945   4.036   3.320 -0.0388 -0.1140  0.6018
 7630SOL    HW124053   2.035   4.060   3.297  0.1773 -0.9682  0.5097
 7630SOL    HW224054   1.896   4.118   3.316  1.0062  0.6097  2.0308
 7631SOL     OW24055   2.106   5.660   3.882 -0.4721  0.2684 -0.0136
 7631SOL    HW124056   2.144   5.723   3.944  1.0318 -0.7530  0.1711
 7631SOL    HW224057   2.032   5.622   3.929  0.6129 -0.4600  1.2024
 7632SOL     OW24058   4.947   1.022   6.383  0.1346 -0.1582  0.1369
 7632SOL    HW124059   5.023   1.027   6.326  0.8798 -1.4170  0.9857
 7632SOL    HW224060   4.881   0.976   6.331 -0.4921  1.9251 -1.0186
 7633SOL     OW24061   1.246   6.525   7.986 -0.5252  0.1778  0.1519
 7633SOL    HW124062   1.332   6.542   8.025 -0.8223  0.3247  0.7557
 7633SOL    HW224063   1.242   6.429   7.980 -0.2583  0.1756 -0.0225
 7634SOL     OW24064   2.047   6.945   8.833 -0.7037  0.7979 -0.1041
 7634SOL    HW124065   2.071   7.006   8.764 -0.7699  0.5953 -0.3083
 7634SOL    HW224066   1.952   6.949   8.837 -1.1547 -2.1804 -2.8776
 7635SOL     OW24067   5.665   1.365   5.858 -0.1447  0.3303  0.4505
 7635SOL    HW124068   5.586   1.315   5.839  0.4330 -0.4718  0.0774
 7635SOL    HW224069   5.680   1.418   5.780 -0.0859  0.1695  0.3521
 7636SOL     OW24070   7.346   5.918   2.914 -0.0966  0.2328 -0.0038
 7636SOL    HW124071   7.331   5.935   2.821  0.2538 -0.1706 -0.1370
 7636SOL    HW224072   7.438   5.939   2.928  0.1074 -0.6632  0.0270
 7637SOL     OW24073   1.032   1.620   4.045 -0.2760  0.0757 -0.2726
 7637SOL    HW124074   0.988   1.632   4.129 -0.1075  0.4993 -0.2419
 7637SOL    HW224075   0.999   1.691   3.990  0.9440  0.8775 -0.0061
 7638SOL     OW24076   8.608   6.079   5.016 -0.3869 -0.3509  0.1458
 7638SOL    HW124077   8.688   6.131   5.016 -0.2150 -0.6106  0.3346
 7638SOL    HW224078   8.634   5.996   4.975  0.1003 -1.4353  2.4868
 7639SOL     OW24079   5.929   1.093   6.296 -0.1214 -0.6399  0.4992
 7639SOL    HW124080   5.931   0.997   6.295 -1.9109 -0.7437  1.5064
 7639SOL    HW224081   5.920   1.118   6.205  0.3497 -1.4349  0.2261
 7640SOL     OW24082   7.828   1.479   4.532 -0.4776 -0.0704  0.0884
 7640SOL    HW124083   7.851   1.470   4.440 -1.9592 -0.0841 -0.2917
 7640SOL    HW224084   7.743   1.437   4.541 -0.8702  0.9015  1.2339
 7641SOL     OW24085   7.897   7.085   8.373  0.2335 -0.5923 -0.2876
 7641SOL    HW124086   7.903   6.992   8.352 -1.2929 -0.8216  0.1413
 7641SOL    HW224087   7.828   7.090   8.439  1.1802  0.7119  0.6422
 7642SOL     OW24088   0.681   4.328   7.157 -0.1482  0.1393 -0.5694
 7642SOL    HW124089   0.757   4.276   7.182 -0.7095 -0.6554 -0.5052
 7642SOL    HW224090   0.695   4.413   7.200  0.7218  0.0211 -0.6065
 7643SOL     OW24091   6.885   6.599   0.961  0.2182  0.5364  0.0874
 7643SOL    HW124092   6.855   6.510   0.977 -0.6396  0.4911 -1.5672
 7643SOL    HW224093   6.905   6.601   0.867  2.7126  1.3809  0.5513
 7644SOL     OW24094   2.980   2.469   4.445  0.0103  0.2602 -0.4429
 7644SOL    HW124095   2.993   2.389   4.496 -0.7973 -0.4481 -1.2981
 7644SOL    HW224096   3.059   2.476   4.391  0.1388  0.0953 -0.2762
 7645SOL     OW24097   2.094   0.948   4.526  0.0635  0.8440  0.3958
 7645SOL    HW124098   2.047   0.908   4.453  1.5869  0.1923 -0.2620
 7645SOL    HW224099   2.047   0.919   4.604  0.9637 -2.1228 -0.0555
 7646SOL     OW24100   3.104   0.090   4.916 -0.4378 -0.0458  0.0571
 7646SOL    HW124101   3.060   0.019   4.869 -0.4531 -0.8298  1.2007
 7646SOL    HW224102   3.141   0.145   4.847  0.1689 -1.5401 -0.8718
 7647SOL     OW24103   5.969   7.182   6.812 -0.1473  0.1805 -0.0549
 7647SOL    HW124104   6.001   7.101   6.851 -0.0727  0.2989  0.1310
 7647SOL    HW224105   5.897   7.209   6.868 -0.1225  0.2838 -0.0716
 7648SOL     OW24106   1.507   3.333   1.437  0.0726  0.5036  0.1803
 7648SOL    HW124107   1.548   3.284   1.508  1.4402  2.3431  0.7380
 7648SOL    HW224108   1.566   3.406   1.420 -0.6735  0.6507 -2.2609
 7649SOL     OW24109   1.277   6.877   2.878  0.2914  0.2061 -0.2206
 7649SOL    HW124110   1.349   6.927   2.918  0.2204 -0.6479  1.0347
 7649SOL    HW224111   1.200   6.901   2.930 -0.5092  1.6072 -1.9534
 7650SOL     OW24112   7.657   7.186   5.136  0.1760 -0.2375 -0.4647
 7650SOL    HW124113   7.571   7.144   5.140  1.1187 -2.2880 -0.1624
 7650SOL    HW224114   7.643   7.273   5.174 -1.6122 -0.7748  0.2222
 7651SOL     OW24115   4.750   8.704   0.657  0.4489  0.7166 -0.0249
 7651SOL    HW124116   4.702   8.720   0.576  0.8036  0.6276 -0.2543
 7651SOL    HW224117   4.682   8.699   0.724  0.1974  1.4521 -0.2099
 7652SOL     OW24118   3.698   1.319   7.507 -0.2538 -0.4693  0.0642
 7652SOL    HW124119   3.763   1.343   7.441  0.5093  1.6558  1.4757
 7652SOL    HW224120   3.718   1.227   7.528 -0.2021 -1.0468 -2.2066
 7653SOL     OW24121   0.149   1.013   0.914  0.1401 -0.0423  0.2258
 7653SOL    HW124122   0.081   1.075   0.885  0.4948 -0.0488 -0.6637
 7653SOL    HW224123   0.107   0.927   0.910 -0.6912  0.1965  2.4906
 7654SOL     OW24124   1.856   3.572   7.620  0.2918 -0.4902  0.1815
 7654SOL    HW124125   1.814   3.487   7.608  0.8434 -1.0716  2.0487
 7654SOL    HW224126   1.919   3.558   7.691  0.3398  1.4938  0.5896
 7655SOL     OW24127   1.420   6.422   1.162  0.8617 -0.2913  0.6779
 7655SOL    HW124128   1.407   6.513   1.137  0.0754  0.4676  3.4853
 7655SOL    HW224129   1.376   6.372   1.093 -0.1227  1.5259 -0.0769
 7656SOL     OW24130   1.400   2.655   5.176  0.2267 -0.0377  0.1053
 7656SOL    HW124131   1.315   2.668   5.217  0.4291  1.5537  0.1056
 7656SOL    HW224132   1.381   2.625   5.088 -0.3353  0.2266  0.1352
 7657SOL     OW24133   1.517   1.811   4.374 -0.1344 -0.0620 -0.3131
 7657SOL    HW124134   1.427   1.788   4.355 -0.3127  0.8638 -0.6623
 7657SOL    HW224135   1.562   1.803   4.289 -0.1867  0.7558 -0.4279
 7658SOL     OW24136   5.931   6.626   3.928 -0.4058  0.0448  0.0327
 7658SOL    HW124137   5.998   6.682   3.966 -0.3845  0.3574 -0.4530
 7658SOL    HW224138   5.851   6.647   3.976 -0.5530  1.0123 -0.6099
 7659SOL     OW24139   1.307   2.695   4.139  0.3789 -0.5137  0.2165
 7659SOL    HW124140   1.389   2.650   4.160  1.8768  1.8033 -0.3269
 7659SOL    HW224141   1.245   2.624   4.124  0.9277 -2.4140  5.1866
 7660SOL     OW24142   6.938   3.881   8.455  0.2422  0.4788  0.7100
 7660SOL    HW124143   6.986   3.862   8.374 -2.6803 -0.6389 -0.8947
 7660SOL    HW224144   6.918   3.975   8.450  0.8700  0.6106  0.6170
 7661SOL     OW24145   2.401   6.546   1.293 -0.3083  0.3526 -0.2340
 7661SOL    HW124146   2.400   6.566   1.387  2.9095  0.3778 -0.0695
 7661SOL    HW224147   2.348   6.467   1.284  1.2770 -1.0804  2.0677
 7662SOL     OW24148   7.181   7.382   7.199 -0.2066  0.0211 -0.0291
 7662SOL    HW124149   7.136   7.298   7.209 -1.8140  0.7597 -0.6579
 7662SOL    HW224150   7.209   7.405   7.287 -0.6861 -0.6856  0.3165
 7663SOL     OW24151   0.180   2.797   5.739  0.2411 -0.0920  0.0351
 7663SOL    HW124152   0.243   2.822   5.807  0.4697  0.9772 -0.5502
 7663SOL    HW224153   0.226   2.729   5.689 -0.0990 -1.2164  1.1824
 7664SOL     OW24154   0.578   6.765   8.711  0.1217 -0.0318  0.1126
 7664SOL    HW124155   0.552   6.746   8.801 -0.0070 -1.6877 -0.2330
 7664SOL    HW224156   0.508   6.822   8.677 -2.4727 -3.1682 -0.3406
 7665SOL     OW24157   3.499   7.223   7.204 -0.9558 -0.3264 -0.3146
 7665SOL    HW124158   3.532   7.291   7.145 -1.4176 -0.5296 -0.8182
 7665SOL    HW224159   3.442   7.169   7.149 -0.9247 -0.8734  0.1817
 7666SOL     OW24160   4.119   2.393   3.000  0.0883  0.1723  0.3535
 7666SOL    HW124161   4.056   2.457   2.967 -1.4611 -1.7731 -0.6845
 7666SOL    HW224162   4.079   2.359   3.080  0.5062 -0.0685  0.4633
 7667SOL     OW24163   3.224   5.112   1.859 -0.2224  0.1570  0.4700
 7667SOL    HW124164   3.270   5.195   1.847 -0.2563 -0.0278 -1.1220
 7667SOL    HW224165   3.286   5.045   1.829 -0.0737 -0.4418  2.0440
 7668SOL     OW24166   3.771   1.496   0.658  0.8154 -0.3644  0.0051
 7668SOL    HW124167   3.714   1.553   0.606  1.2271  0.4409  0.4252
 7668SOL    HW224168   3.799   1.550   0.732  0.1054 -1.5400  1.1852
 7669SOL     OW24169   0.628   4.536   4.500  0.7598 -0.3096 -0.0951
 7669SOL    HW124170   0.613   4.550   4.407  0.5741 -1.1851 -0.2020
 7669SOL    HW224171   0.580   4.607   4.543  3.5791  2.2118 -0.7566
 7670SOL     OW24172   8.745   1.545   8.333 -0.0119 -0.4063  0.0979
 7670SOL    HW124173   8.830   1.511   8.303  0.4578 -1.9393  2.8397
 7670SOL    HW224174   8.681   1.480   8.302  0.2157 -0.8844  0.6084
 7671SOL     OW24175   6.092   7.463   8.834 -0.0567  0.2711  0.4687
 7671SOL    HW124176   6.186   7.483   8.828  0.1361 -0.5991  0.4874
 7671SOL    HW224177   6.074   7.410   8.756 -0.4478  0.0871  0.6850
 7672SOL     OW24178   7.605   8.552   1.435 -0.0616 -0.1696 -0.2180
 7672SOL    HW124179   7.566   8.571   1.520 -0.0151 -1.8491  0.1966
 7672SOL    HW224180   7.692   8.517   1.455  0.6799  1.1297 -1.0440
 7673SOL     OW24181   7.451   2.546   7.554 -0.0812  0.5204 -0.8980
 7673SOL    HW124182   7.537   2.536   7.595  0.2055 -0.7947 -1.7629
 7673SOL    HW224183   7.449   2.638   7.526  0.8773  0.6742 -0.5119
 7674SOL     OW24184   2.082   1.024   0.351 -0.3561 -0.0002  1.0013
 7674SOL    HW124185   2.039   1.015   0.266 -0.5268  0.2757  1.0553
 7674SOL    HW224186   2.173   1.000   0.335 -0.7006 -1.4322  1.0638
 7675SOL     OW24187   0.384   0.607   8.599 -0.1326 -0.5543 -0.4615
 7675SOL    HW124188   0.407   0.539   8.662 -1.7088  0.7478  1.6325
 7675SOL    HW224189   0.292   0.591   8.578 -0.7089  1.2060  0.5170
 7676SOL     OW24190   6.415   1.469   5.264 -0.0426  0.2369  0.2648
 7676SOL    HW124191   6.367   1.492   5.184  2.8423  1.3041 -1.3208
 7676SOL    HW224192   6.401   1.542   5.323 -1.4315 -0.1192  0.4102
 7677SOL     OW24193   0.914   7.341   2.503  0.2560 -0.1997  0.3173
 7677SOL    HW124194   0.958   7.387   2.432 -0.5787 -0.1273 -0.1624
 7677SOL    HW224195   0.972   7.267   2.523  1.1237  0.5073  0.4433
 7678SOL     OW24196   3.198   3.850   6.567  0.0436  0.2812  0.4182
 7678SOL    HW124197   3.145   3.920   6.530  1.9111  1.4306 -0.2195
 7678SOL    HW224198   3.216   3.792   6.494  1.7134  1.2664 -0.0229
 7679SOL     OW24199   3.372   4.256   5.654  0.2337 -0.1583  0.1104
 7679SOL    HW124200   3.284   4.220   5.652  1.0338 -2.2234 -0.5237
 7679SOL    HW224201   3.371   4.327   5.590 -1.1959  0.5116  0.8297
 7680SOL     OW24202   8.011   2.680   1.535  0.1586 -0.4409 -0.0468
 7680SOL    HW124203   8.059   2.600   1.515 -0.4517 -0.5002 -1.3171
 7680SOL    HW224204   8.025   2.693   1.629  1.7214 -1.0633 -0.1598
 7681SOL     OW24205   3.030   3.470   1.241 -0.2650  0.1920 -0.1641
 7681SOL    HW124206   2.959   3.524   1.276  0.6002  0.1020  1.8662
 7681SOL    HW224207   3.021   3.386   1.287  1.3639  0.3133  0.4343
 7682SOL     OW24208   0.162   7.496   2.621  0.1299  0.1160 -0.2822
 7682SOL    HW124209   0.168   7.518   2.714 -0.5880  1.2185 -0.4707
 7682SOL    HW224210   0.088   7.548   2.589 -0.2967 -1.0290 -1.2527
 7683SOL     OW24211   6.723   4.604   7.920  0.1205  0.0905  0.6223
 7683SOL    HW124212   6.699   4.514   7.898 -0.8737  0.5733 -0.4340
 7683SOL    HW224213   6.743   4.602   8.013 -2.5789 -0.7175  1.2618
 7684SOL     OW24214   6.835   0.614   3.001 -0.2308  0.2707  0.2071
 7684SOL    HW124215   6.898   0.586   3.068  0.4753 -0.3075 -0.6786
 7684SOL    HW224216   6.765   0.655   3.051  0.5624  0.3936  1.2646
 7685SOL     OW24217   1.530   3.184   4.994 -0.0749  0.3808  0.6727
 7685SOL    HW124218   1.458   3.124   4.975  0.4008 -0.0347  0.1707
 7685SOL    HW224219   1.578   3.192   4.912 -0.2641  1.6487  0.6620
 7686SOL     OW24220   0.651   3.396   7.332 -0.8074  0.2519  0.0798
 7686SOL    HW124221   0.716   3.466   7.334 -0.7276  0.1657  0.7430
 7686SOL    HW224222   0.569   3.440   7.357 -0.8171  0.1745  0.1845
 7687SOL     OW24223   0.091   1.990   1.169 -0.5233 -0.0848 -0.2416
 7687SOL    HW124224   0.013   1.998   1.115 -0.7085  0.9833  0.1600
 7687SOL    HW224225   0.162   1.977   1.107 -1.1100 -2.2108 -0.5772
 7688SOL     OW24226   8.185   0.873   3.644  0.3924  0.2950 -0.4765
 7688SOL    HW124227   8.258   0.818   3.615 -1.2408 -1.4516 -1.4625
 7688SOL    HW224228   8.186   0.948   3.583  1.3878  0.3300 -0.4303
 7689SOL     OW24229   5.604   3.225   1.446 -0.5667 -0.7041 -0.6138
 7689SOL    HW124230   5.612   3.302   1.390 -0.0492 -0.2397  0.0743
 7689SOL    HW224231   5.664   3.161   1.407  1.6020  0.4151  0.6574
 7690SOL     OW24232   5.364   5.894   2.322 -0.0677 -0.4490  0.0325
 7690SOL    HW124233   5.417   5.846   2.258  1.4523 -0.5967  1.3267
 7690SOL    HW224234   5.290   5.836   2.341 -0.4441 -0.4768 -1.4254
 7691SOL     OW24235   1.305   6.685   0.732  0.8035 -0.3855  0.0971
 7691SOL    HW124236   1.397   6.697   0.708  0.5968  0.6537 -0.2190
 7691SOL    HW224237   1.308   6.652   0.822  1.4567  1.6071  0.8476
 7692SOL     OW24238   3.971   0.166   6.518 -0.3050  0.2076 -0.7088
 7692SOL    HW124239   4.015   0.235   6.468 -0.9642  2.0307  1.0902
 7692SOL    HW224240   4.019   0.161   6.601 -3.0726  2.0668  1.2129
 7693SOL     OW24241   1.730   6.340   3.814  0.1211  0.8526  0.0396
 7693SOL    HW124242   1.793   6.412   3.817 -0.3308  1.2232  0.7480
 7693SOL    HW224243   1.763   6.282   3.745  1.4903  0.8061  0.7051
 7694SOL     OW24244   2.442   0.349   7.651 -0.7356  0.3780  0.1483
 7694SOL    HW124245   2.463   0.345   7.558 -0.5983  0.8820  0.1516
 7694SOL    HW224246   2.526   0.332   7.694 -0.8920 -0.3042  0.1827
 7695SOL     OW24247   7.988   2.994   2.024  0.0522  0.6419  0.0425
 7695SOL    HW124248   8.019   2.942   2.099 -1.0409  0.5790  0.4750
 7695SOL    HW224249   7.956   3.075   2.064 -0.1398  0.7838 -0.4021
 7696SOL     OW24250   8.560   5.403   2.539 -0.5506 -0.3105  0.1325
 7696SOL    HW124251   8.510   5.340   2.590 -0.5435  0.1525  0.7307
 7696SOL    HW224252   8.513   5.409   2.456 -0.4489 -1.2215  0.0046
 7697SOL     OW24253   0.345   8.766   1.843 -0.0213  0.1682  0.0949
 7697SOL    HW124254   0.398   8.803   1.772  0.7219 -0.7751  0.1378
 7697SOL    HW224255   0.408   8.751   1.913 -0.9211  2.0985  1.4008
 7698SOL     OW24256   7.328   1.494   8.768  0.6254  0.3423 -0.6610
 7698SOL    HW124257   7.255   1.463   8.822  1.3656 -0.5009 -0.1146
 7698SOL    HW224258   7.348   1.581   8.803  1.3330 -0.3352  0.7109
 7699SOL     OW24259   4.098   3.615   2.476 -1.1497 -0.6121  0.1329
 7699SOL    HW124260   4.193   3.627   2.475 -1.2474  0.1826 -0.4209
 7699SOL    HW224261   4.080   3.576   2.561 -0.4138 -0.0082  0.5765
 7700SOL     OW24262   7.990   4.602   4.066 -0.0797  0.0036 -0.1161
 7700SOL    HW124263   7.926   4.610   4.137  0.4868 -0.5223  0.4696
 7700SOL    HW224264   8.072   4.580   4.110 -0.1213 -2.3326 -1.0476
 7701SOL     OW24265   6.196   5.492   7.026  0.4111  0.0426  0.0768
 7701SOL    HW124266   6.266   5.549   7.057  0.3960 -0.1379  0.4469
 7701SOL    HW224267   6.125   5.552   7.003 -0.1931  0.1110  1.9433
 7702SOL     OW24268   1.763   2.596   5.488  0.1561  0.8505  0.0244
 7702SOL    HW124269   1.706   2.577   5.413  0.4094  0.7866 -0.1517
 7702SOL    HW224270   1.724   2.673   5.529  0.2586  1.1387 -0.4172
 7703SOL     OW24271   2.081   1.607   4.425 -0.3412 -0.8061  0.0468
 7703SOL    HW124272   2.122   1.649   4.500  0.8059 -0.8071 -0.5516
 7703SOL    HW224273   2.137   1.532   4.405 -0.7277 -0.9170 -0.6864
 7704SOL     OW24274   6.026   3.919   0.199  0.2378  0.0153  0.2817
 7704SOL    HW124275   5.969   3.948   0.128  1.9622  1.0655 -0.7691
 7704SOL    HW224276   6.025   3.824   0.195  0.6451  0.0603 -1.4988
 7705SOL     OW24277   7.531   6.960   4.017  0.4938  0.2487 -0.3181
 7705SOL    HW124278   7.600   6.905   4.054  2.1135  2.0487 -0.4935
 7705SOL    HW224279   7.503   7.016   4.089  1.6416  1.8043 -1.0142
 7706SOL     OW24280   7.695   7.913   6.846 -0.0470 -0.6937  0.0097
 7706SOL    HW124281   7.721   7.975   6.914 -1.6142  1.2989 -1.1204
 7706SOL    HW224282   7.672   7.833   6.894 -1.9189  0.9006  1.9857
 7707SOL     OW24283   0.148   0.212   0.450  0.5351  0.5148  0.5780
 7707SOL    HW124284   0.054   0.197   0.460  0.1862  0.5130 -2.0331
 7707SOL    HW224285   0.189   0.139   0.495 -0.7512 -0.0900  0.8104
 7708SOL     OW24286   0.855   1.637   4.266 -0.0789  0.0324  0.2626
 7708SOL    HW124287   0.835   1.546   4.287  1.4563 -0.1938  0.9126
 7708SOL    HW224288   0.855   1.682   4.351 -0.3757  0.5380 -0.0015
 7709SOL     OW24289   3.674   4.020   0.331  0.1466 -0.0530 -0.3832
 7709SOL    HW124290   3.688   4.065   0.414  0.0431 -0.9346  0.1274
 7709SOL    HW224291   3.734   4.063   0.270  0.4499  0.4044  0.2265
 7710SOL     OW24292   7.388   0.969   4.371  0.2566 -0.0717 -0.4137
 7710SOL    HW124293   7.388   1.008   4.458 -1.5481 -0.1518 -0.3465
 7710SOL    HW224294   7.370   1.041   4.311  1.5609 -0.0039 -0.7504
 7711SOL     OW24295   5.278   6.884   7.753 -0.2904  0.8944 -0.0156
 7711SOL    HW124296   5.250   6.814   7.694  3.2483  0.7544 -1.8132
 7711SOL    HW224297   5.279   6.844   7.839  0.8164 -1.0704 -0.8741
 7712SOL     OW24298   1.606   1.297   2.873  0.4756  0.1291 -0.3187
 7712SOL    HW124299   1.638   1.337   2.953  1.4473  1.3763 -1.2767
 7712SOL    HW224300   1.533   1.352   2.845  0.1976 -0.2457 -0.3538
 7713SOL     OW24301   3.179   3.328   2.011  0.2379 -0.3398  0.0520
 7713SOL    HW124302   3.191   3.275   1.932 -0.4391  0.1437 -0.3821
 7713SOL    HW224303   3.205   3.416   1.986  0.3486 -0.2488  0.4725
 7714SOL     OW24304   7.377   2.833   5.279  0.7731  0.3336  0.2483
 7714SOL    HW124305   7.333   2.810   5.361  0.7522 -0.6983 -0.0366
 7714SOL    HW224306   7.360   2.758   5.221  2.1135  0.3287 -0.1774
 7715SOL     OW24307   0.928   4.748   7.724 -0.1030  0.5449  0.1462
 7715SOL    HW124308   0.938   4.660   7.761 -2.6235  0.4738  0.8446
 7715SOL    HW224309   0.985   4.803   7.777  1.6009 -0.6342 -0.3656
 7716SOL     OW24310   7.857   6.595   8.301 -0.0525  0.0456  0.1823
 7716SOL    HW124311   7.846   6.502   8.319  2.0965 -0.0344  1.5110
 7716SOL    HW224312   7.880   6.599   8.208 -3.4669 -0.3305 -0.8329
 7717SOL     OW24313   4.249   6.599   8.786  0.0133 -0.0249 -0.2847
 7717SOL    HW124314   4.268   6.542   8.712  0.1621 -0.3955  0.0346
 7717SOL    HW224315   4.221   6.539   8.856 -0.4711  0.3475 -0.1500
 7718SOL     OW24316   0.962   6.150   0.333  0.3830 -0.0136  0.2341
 7718SOL    HW124317   0.961   6.064   0.374 -2.4426  0.1027  0.6321
 7718SOL    HW224318   0.932   6.133   0.243 -0.6816  0.5772  0.4647
 7719SOL     OW24319   2.442   1.607   1.680 -0.0951 -0.3344  0.4420
 7719SOL    HW124320   2.463   1.603   1.587  1.4759  1.4829  0.6545
 7719SOL    HW224321   2.404   1.694   1.693  2.0202  0.4662  1.8637
 7720SOL     OW24322   3.983   7.299   5.355 -0.1175  0.3206 -0.2716
 7720SOL    HW124323   3.893   7.304   5.388  0.6036  1.1796  1.6626
 7720SOL    HW224324   4.023   7.381   5.382  2.4312 -1.6461  2.6320
 7721SOL     OW24325   7.807   3.005   8.353 -0.1511  0.2678 -0.4630
 7721SOL    HW124326   7.821   2.958   8.435 -2.8064 -0.6191 -0.4064
 7721SOL    HW224327   7.717   3.039   8.360 -0.3768  0.3582 -2.8703
 7722SOL     OW24328   1.797   2.395   7.977 -0.0898  0.1760  0.4467
 7722SOL    HW124329   1.779   2.424   7.887  1.4824  0.7205  0.2767
 7722SOL    HW224330   1.757   2.462   8.032 -0.1256  0.4247  0.1232
 7723SOL     OW24331   1.472   7.896   0.531 -0.1151 -0.1413  0.4558
 7723SOL    HW124332   1.507   7.982   0.556 -1.0780  0.8467 -1.3742
 7723SOL    HW224333   1.497   7.838   0.603  1.1445  1.5185  1.4275
 7724SOL     OW24334   4.852   5.023   8.821  0.2449  0.5533  0.5385
 7724SOL    HW124335   4.903   5.092   8.780 -1.7132  1.1699 -1.0756
 7724SOL    HW224336   4.762   5.056   8.819 -0.4989 -1.2813  1.3873
 7725SOL     OW24337   5.774   1.814   6.633  0.0782 -0.4056 -0.2033
 7725SOL    HW124338   5.853   1.824   6.581 -0.9534 -0.3575 -1.8341
 7725SOL    HW224339   5.739   1.729   6.607 -0.4731 -0.3803  0.4210
 7726SOL     OW24340   1.997   0.183   4.147  0.2630  0.1370 -0.1695
 7726SOL    HW124341   1.993   0.172   4.242  0.9009  0.0862 -0.1456
 7726SOL    HW224342   2.073   0.132   4.119  0.0065  0.0420 -0.7267
 7727SOL     OW24343   2.805   7.093   5.353  0.0733 -0.2503 -0.3135
 7727SOL    HW124344   2.788   7.036   5.427 -1.0062 -0.5823 -0.8053
 7727SOL    HW224345   2.793   7.181   5.387 -0.6478 -0.4102 -0.1452
 7728SOL     OW24346   0.735   0.332   1.092  0.4198  0.2070 -0.2491
 7728SOL    HW124347   0.703   0.393   1.159  0.3242  0.4417 -0.5065
 7728SOL    HW224348   0.671   0.337   1.022 -0.8682 -1.9559  0.6870
 7729SOL     OW24349   7.117   4.088   3.473 -0.0360 -0.1449  0.0670
 7729SOL    HW124350   7.196   4.098   3.420  0.2342 -1.8522  0.0805
 7729SOL    HW224351   7.150   4.061   3.559 -0.5887 -0.0436  0.3113
 7730SOL     OW24352   3.482   3.842   7.986 -0.7309  0.4026 -0.2215
 7730SOL    HW124353   3.492   3.896   8.064  1.0583  1.0818 -0.8742
 7730SOL    HW224354   3.452   3.902   7.918 -0.4287  0.2200 -0.5219
 7731SOL     OW24355   1.857   8.474   7.165  0.0664 -0.2055 -0.2039
 7731SOL    HW124356   1.922   8.544   7.175 -1.4231  1.2516 -0.2474
 7731SOL    HW224357   1.775   8.520   7.147 -0.4410 -2.0432 -3.4333
 7732SOL     OW24358   6.532   7.009   0.643 -0.0694  0.1694 -0.3625
 7732SOL    HW124359   6.495   7.063   0.712  0.9584  0.0763  0.2738
 7732SOL    HW224360   6.624   6.996   0.667  0.3834  0.3313 -1.8575
 7733SOL     OW24361   6.413   2.304   7.807  0.2456  0.0066 -0.4832
 7733SOL    HW124362   6.362   2.235   7.849 -2.1070  1.0331 -1.4558
 7733SOL    HW224363   6.457   2.349   7.880  0.1528 -1.2188  0.3547
 7734SOL     OW24364   1.712   5.062   1.489 -0.5620 -0.7345  0.1004
 7734SOL    HW124365   1.745   5.050   1.400  0.5267 -1.5068  0.5935
 7734SOL    HW224366   1.639   5.123   1.479 -1.7302 -2.3063 -1.5954
 7735SOL     OW24367   5.177   3.091   0.294 -0.2030  0.0241  0.4815
 7735SOL    HW124368   5.244   3.025   0.278 -1.9338 -1.9683  0.9677
 7735SOL    HW224369   5.114   3.078   0.224 -1.2791  0.1832  1.3922
 7736SOL     OW24370   6.203   1.683   0.219  0.1489  0.2092  0.1235
 7736SOL    HW124371   6.131   1.621   0.229 -1.1156  1.6452  0.3801
 7736SOL    HW224372   6.177   1.738   0.145  1.6616 -0.1004 -0.6679
 7737SOL     OW24373   2.079   1.926   0.640 -0.1641  0.0098  0.1108
 7737SOL    HW124374   1.983   1.923   0.639 -0.2672 -1.6718 -4.1582
 7737SOL    HW224375   2.105   1.838   0.667  0.2658  0.4897  1.3480
 7738SOL     OW24376   1.034   3.141   2.510 -0.2801  0.0774 -0.3671
 7738SOL    HW124377   0.996   3.187   2.435  1.0154  1.4121 -0.2475
 7738SOL    HW224378   1.016   3.199   2.584  1.7479  0.6461 -0.2764
 7739SOL     OW24379   0.873   0.668   1.673  0.7684 -0.0780  0.2409
 7739SOL    HW124380   0.835   0.755   1.690 -1.3437 -1.0460  0.8083
 7739SOL    HW224381   0.956   0.668   1.722  0.8013  1.5910  0.2450
 7740SOL     OW24382   1.553   6.716   8.548  0.3563 -0.1478  0.2408
 7740SOL    HW124383   1.458   6.700   8.540  0.1084  1.6053 -0.9267
 7740SOL    HW224384   1.559   6.798   8.596  1.4888 -2.2407  4.0037
 7741SOL     OW24385   0.489   7.167   3.779  0.3025  0.3687  0.2054
 7741SOL    HW124386   0.582   7.191   3.768  0.2771  0.5542  0.3863
 7741SOL    HW224387   0.446   7.250   3.803  0.0982  0.2729  0.1679
 7742SOL     OW24388   1.539   6.916   5.848  0.0876  0.1462 -0.0344
 7742SOL    HW124389   1.600   6.979   5.812  0.9545 -0.9279 -0.5175
 7742SOL    HW224390   1.456   6.935   5.804  0.1561  1.3611  0.3288
 7743SOL     OW24391   2.814   2.045   6.534 -0.2711  0.9730 -0.0884
 7743SOL    HW124392   2.805   2.024   6.441  3.3009 -0.1237 -0.3305
 7743SOL    HW224393   2.804   2.140   6.539 -2.4389  0.8690 -1.2138
 7744SOL     OW24394   0.292   3.244   7.055  1.2361  0.5373  0.0967
 7744SOL    HW124395   0.199   3.264   7.042  1.1570  0.2031  0.1418
 7744SOL    HW224396   0.336   3.291   6.984  0.9587  0.0392 -0.4155
 7745SOL     OW24397   1.763   1.901   0.770 -0.4264  0.0592 -1.0087
 7745SOL    HW124398   1.675   1.936   0.781 -0.1031  0.4630  0.5589
 7745SOL    HW224399   1.820   1.967   0.809  0.5085 -0.6027 -1.2073
 7746SOL     OW24400   5.092   7.427   3.643  0.1483  0.2502 -0.2494
 7746SOL    HW124401   5.005   7.414   3.680 -1.0077  0.8414 -2.5442
 7746SOL    HW224402   5.083   7.400   3.552  2.5330 -0.1448 -0.4298
 7747SOL     OW24403   0.374   8.371   6.664 -0.8921  0.4060 -0.3936
 7747SOL    HW124404   0.425   8.374   6.745 -2.8699  0.4716  0.9103
 7747SOL    HW224405   0.285   8.396   6.689 -1.9338 -1.0228 -2.2856
 7748SOL     OW24406   2.197   4.496   1.116  0.3109 -0.2934  0.1434
 7748SOL    HW124407   2.175   4.570   1.060 -1.9182 -2.3511 -1.9328
 7748SOL    HW224408   2.114   4.467   1.153  1.2930 -1.0504  1.9119
 7749SOL     OW24409   1.292   8.655   0.122  0.3579 -0.1905  0.2532
 7749SOL    HW124410   1.211   8.662   0.171  1.4716  0.1401  2.1567
 7749SOL    HW224411   1.314   8.562   0.124 -0.6816 -0.5331 -1.5830
 7750SOL     OW24412   4.849   4.437   6.824  0.5126 -0.2826  0.2599
 7750SOL    HW124413   4.932   4.472   6.857  0.7369  0.0567 -0.6345
 7750SOL    HW224414   4.874   4.372   6.758  0.0794 -1.4317  1.1945
 7751SOL     OW24415   0.085   7.067   2.934  0.3700  0.1216  0.2794
 7751SOL    HW124416   0.157   7.080   2.873  0.4405  0.0387  0.3439
 7751SOL    HW224417   0.008   7.057   2.879  0.3313  0.6944  0.2257
 7752SOL     OW24418   1.977   6.456   6.130 -0.4012 -0.1741 -0.2334
 7752SOL    HW124419   2.020   6.397   6.192 -3.1986 -1.7995  0.3826
 7752SOL    HW224420   1.971   6.405   6.049  0.6405  0.8141 -0.9487
 7753SOL     OW24421   0.745   6.049   7.705  0.4106 -0.5762  0.3381
 7753SOL    HW124422   0.744   5.985   7.776  1.0864  0.7720  1.6224
 7753SOL    HW224423   0.704   6.126   7.742  0.3536  0.0091 -0.9079
 7754SOL     OW24424   1.621   2.402   7.322  0.2918  0.3802  0.1476
 7754SOL    HW124425   1.630   2.349   7.402  3.0585 -0.7824 -0.7943
 7754SOL    HW224426   1.668   2.483   7.341  0.5250  0.3112 -0.1339
 7755SOL     OW24427   5.492   2.204   0.366 -0.2380 -0.2959  0.3487
 7755SOL    HW124428   5.518   2.217   0.457  0.2859 -1.4250  0.3706
 7755SOL    HW224429   5.558   2.253   0.315 -0.7827  0.6997  0.5741
 7756SOL     OW24430   2.957   0.316   3.535 -0.0186  0.2738  0.5169
 7756SOL    HW124431   2.986   0.250   3.598 -0.9435 -0.6681 -0.0130
 7756SOL    HW224432   2.885   0.360   3.580  0.5084  0.8445  0.8160
 7757SOL     OW24433   4.841   3.139   0.729  0.0035  0.1208  0.3181
 7757SOL    HW124434   4.909   3.198   0.760  0.7901 -1.3089  1.4471
 7757SOL    HW224435   4.817   3.174   0.643  0.7411  1.7941  0.7499
 7758SOL     OW24436   0.049   8.375   6.699  0.2651  0.3904  0.9773
 7758SOL    HW124437   0.059   8.416   6.612 -2.1823  0.2711  0.5810
 7758SOL    HW224438  -0.045   8.368   6.711  0.5428  0.5232  3.7420
 7759SOL     OW24439   0.189   0.618   4.840  0.2400 -0.0876 -0.2764
 7759SOL    HW124440   0.198   0.572   4.923  0.0414  0.1635 -0.1147
 7759SOL    HW224441   0.278   0.624   4.806  0.2589 -0.6994 -0.3608
 7760SOL     OW24442   8.281   2.924   5.627  0.1737  0.4263 -0.3239
 7760SOL    HW124443   8.258   2.859   5.562 -0.1637 -0.1343  0.3426
 7760SOL    HW224444   8.373   2.907   5.647  0.2392  0.5128 -0.5449
 7761SOL     OW24445   0.784   5.736   4.037  0.0414 -0.4170 -0.5296
 7761SOL    HW124446   0.707   5.695   4.077 -0.0643 -0.8533 -1.1518
 7761SOL    HW224447   0.749   5.812   3.991  0.2365  0.3783  0.6183
 7762SOL     OW24448   2.496   7.583   0.108  0.1424 -0.8248 -0.5141
 7762SOL    HW124449   2.488   7.666   0.155 -1.3740  0.8094 -3.4025
 7762SOL    HW224450   2.423   7.530   0.142  0.3384 -0.5139  0.4387
 7763SOL     OW24451   3.750   0.814   7.042 -0.2148  0.0746 -0.0254
 7763SOL    HW124452   3.782   0.743   7.098  0.2283  0.7892  0.6622
 7763SOL    HW224453   3.672   0.778   7.000  0.6250 -1.1872 -0.5555
 7764SOL     OW24454   0.108   6.593   7.919 -0.1327 -0.3824 -0.1817
 7764SOL    HW124455   0.158   6.595   7.838  2.0470  0.0874  1.0958
 7764SOL    HW224456   0.046   6.666   7.911  1.3595  0.8858 -0.6811
 7765SOL     OW24457   3.690   1.056   7.140 -0.0082  0.2149 -0.0175
 7765SOL    HW124458   3.600   1.033   7.161  0.2222  0.6507  1.6304
 7765SOL    HW224459   3.727   0.976   7.102 -1.1838  0.1701 -1.1470
 7766SOL     OW24460   6.281   6.518   2.518 -0.0111  0.2697 -0.1705
 7766SOL    HW124461   6.214   6.451   2.507 -1.0381  1.3761 -0.9708
 7766SOL    HW224462   6.363   6.470   2.523 -0.8649 -1.1304  0.9497
 7767SOL     OW24463   7.973   3.452   4.823 -0.3660  0.1001  0.1227
 7767SOL    HW124464   7.970   3.373   4.878 -1.6007 -0.8493 -1.2551
 7767SOL    HW224465   8.067   3.469   4.810 -0.0561 -0.0829  1.8658
 7768SOL     OW24466   3.230   0.393   8.164  0.2583 -0.2393  0.1603
 7768SOL    HW124467   3.300   0.328   8.159  1.1296  0.6492  0.2460
 7768SOL    HW224468   3.168   0.368   8.096  0.1005 -1.6685  0.8018
 7769SOL     OW24469   5.731   4.315   0.495 -0.2880  0.2614 -0.1105
 7769SOL    HW124470   5.780   4.271   0.564 -0.1114 -0.4637 -0.6900
 7769SOL    HW224471   5.719   4.404   0.527 -1.0083 -0.3112  1.2700
 7770SOL     OW24472   1.660   2.112   6.893  0.1940 -0.2078  0.0686
 7770SOL    HW124473   1.597   2.159   6.838  0.6510  1.9386  1.2968
 7770SOL    HW224474   1.686   2.175   6.959  3.4354 -1.0896 -0.2132
 7771SOL     OW24475   4.552   2.909   2.794  0.8567  0.6766 -0.3579
 7771SOL    HW124476   4.602   2.835   2.761  0.6133 -1.0444  2.7497
 7771SOL    HW224477   4.600   2.938   2.872 -2.5410 -0.8152  2.5719
 7772SOL     OW24478   4.187   0.050   0.281  0.4468  0.2636  0.1234
 7772SOL    HW124479   4.184   0.108   0.205  2.1686  0.8207  0.4268
 7772SOL    HW224480   4.101   0.060   0.322  0.2222  1.5716 -0.6039
 7773SOL     OW24481   8.359   4.137   3.031  0.3248  0.2376 -0.2512
 7773SOL    HW124482   8.419   4.150   2.957 -0.4033  1.2533 -0.6846
 7773SOL    HW224483   8.403   4.180   3.105  0.9858 -0.6518 -0.1159
 7774SOL     OW24484   0.546   7.168   1.154  0.2746  0.0948 -0.6924
 7774SOL    HW124485   0.526   7.262   1.158  0.5046  0.1324 -0.3938
 7774SOL    HW224486   0.460   7.126   1.147  0.1292  0.2992 -0.1838
 7775SOL     OW24487   2.338   5.526   3.085  0.2384  0.1013  0.0176
 7775SOL    HW124488   2.337   5.481   3.169  3.4562 -0.0394  0.1153
 7775SOL    HW224489   2.304   5.614   3.104 -2.4642 -0.9837  0.6189
 7776SOL     OW24490   6.357   2.408   4.278 -0.4151 -0.3382 -0.5518
 7776SOL    HW124491   6.364   2.452   4.363  1.1478 -0.5228 -0.5484
 7776SOL    HW224492   6.308   2.328   4.296 -0.5018 -0.1463  0.0823
 7777SOL     OW24493   2.611   3.689   3.421 -0.7656 -0.2523  0.0155
 7777SOL    HW124494   2.663   3.762   3.388  1.9751 -1.3353  1.5997
 7777SOL    HW224495   2.628   3.618   3.359 -1.4648 -0.2520 -0.1854
 7778SOL     OW24496   1.690   2.051   4.674 -0.2621  0.3416  0.3183
 7778SOL    HW124497   1.753   2.091   4.614  1.0353  0.9417  1.9884
 7778SOL    HW224498   1.638   2.125   4.706 -1.4473 -0.0719 -0.5833
 7779SOL     OW24499   4.127   0.633   1.759 -0.1822 -0.1511 -0.0667
 7779SOL    HW124500   4.155   0.720   1.789 -1.1628  0.5826 -1.1509
 7779SOL    HW224501   4.032   0.633   1.771 -0.3323 -0.6263 -1.1512
 7780SOL     OW24502   6.777   7.359   1.600 -0.1721 -0.3547 -0.3958
 7780SOL    HW124503   6.706   7.417   1.627 -0.3598 -1.0647  0.7280
 7780SOL    HW224504   6.739   7.306   1.530 -1.0141 -1.2193  0.6765
 7781SOL     OW24505   6.997   0.445   4.496 -0.1648 -0.4305 -0.5092
 7781SOL    HW124506   6.917   0.438   4.548 -0.9331  1.6869 -1.3192
 7781SOL    HW224507   7.065   0.464   4.561 -0.5517 -0.8697  0.0382
 7782SOL     OW24508   4.910   0.902   1.174  0.1040  0.4170  0.6656
 7782SOL    HW124509   4.977   0.970   1.164  0.4828 -0.1542 -0.8770
 7782SOL    HW224510   4.953   0.834   1.226  0.7880  0.0060 -0.4057
 7783SOL     OW24511   5.348   3.731   7.691  0.4959  0.1068 -0.6856
 7783SOL    HW124512   5.363   3.786   7.768  0.4359  0.4343 -0.9075
 7783SOL    HW224513   5.432   3.731   7.645  0.6426 -0.3936 -0.4283
 7784SOL     OW24514   7.052   6.111   1.977  0.0531  0.5300 -0.0944
 7784SOL    HW124515   7.051   6.122   1.882  0.6035  0.6744 -0.0902
 7784SOL    HW224516   7.008   6.027   1.993  2.3299 -0.8672 -0.6934
 7785SOL     OW24517   3.321   7.528   5.094  0.0761 -0.1791  0.1368
 7785SOL    HW124518   3.315   7.437   5.122  0.2796 -0.6034 -1.1378
 7785SOL    HW224519   3.239   7.545   5.047 -0.0646  0.3708  0.5708
 7786SOL     OW24520   8.538   5.158   2.920  0.1495 -0.1148 -0.3828
 7786SOL    HW124521   8.623   5.201   2.912  0.2919 -0.1843  0.6539
 7786SOL    HW224522   8.550   5.073   2.879  0.6899 -0.2584  0.0551
 7787SOL     OW24523   6.378   4.225   6.293  0.4907 -0.0095  0.3354
 7787SOL    HW124524   6.299   4.202   6.341  0.3040 -2.1849 -0.8682
 7787SOL    HW224525   6.423   4.142   6.279  1.0986  0.6326 -2.1899
 7788SOL     OW24526   1.209   2.934   6.922  0.0607  0.3781  0.2052
 7788SOL    HW124527   1.256   3.015   6.941  0.2716  0.0875  0.9582
 7788SOL    HW224528   1.274   2.877   6.880 -0.4537  1.0871 -1.6522
 7789SOL     OW24529   1.226   3.356   6.074 -0.0970  0.2193 -0.6921
 7789SOL    HW124530   1.208   3.282   6.132  0.8915 -0.4705 -1.2243
 7789SOL    HW224531   1.149   3.412   6.081 -1.1183 -1.1364 -0.6847
 7790SOL     OW24532   5.510   4.166   3.927 -0.1232  0.1736  0.3115
 7790SOL    HW124533   5.517   4.188   4.020  1.7962  0.9704  0.0303
 7790SOL    HW224534   5.545   4.243   3.882 -0.6373 -0.3669 -1.0549
 7791SOL     OW24535   7.748   0.262   6.457  0.0110  0.4504 -0.3686
 7791SOL    HW124536   7.673   0.270   6.398  0.4495  0.5629 -0.9181
 7791SOL    HW224537   7.824   0.284   6.402  0.3825  0.9812  0.3494
 7792SOL     OW24538   3.320   3.024   4.626 -0.6571 -0.1413  0.1797
 7792SOL    HW124539   3.382   3.000   4.695  2.6743  1.4763 -1.9330
 7792SOL    HW224540   3.260   3.085   4.668  1.0407  0.5179  1.8098
 7793SOL     OW24541   6.874   5.440   5.769  0.5242 -0.0467 -0.2563
 7793SOL    HW124542   6.820   5.417   5.694 -2.1565  0.5315  1.3939
 7793SOL    HW224543   6.876   5.361   5.823  0.6552  0.1995  0.1047
 7794SOL     OW24544   6.102   4.709   5.491 -0.1431 -0.2458 -0.1871
 7794SOL    HW124545   6.071   4.761   5.417 -0.1286 -0.3768 -0.2869
 7794SOL    HW224546   6.167   4.650   5.453  0.5035  0.2787  0.0900
 7795SOL     OW24547   1.041   3.329   8.071 -0.1480 -0.5122  0.1238
 7795SOL    HW124548   1.012   3.366   7.989 -0.5282  0.8486  0.8475
 7795SOL    HW224549   0.961   3.315   8.122  0.2169  0.7306  1.0920
 7796SOL     OW24550   1.885   8.842   2.208 -0.1408  0.2682  0.4695
 7796SOL    HW124551   1.894   8.769   2.269  0.4187  0.2941  0.4227
 7796SOL    HW224552   1.828   8.904   2.254 -0.8379 -0.2984  0.4044
 7797SOL     OW24553   4.844   7.205   5.467  0.1800 -0.4824  0.6525
 7797SOL    HW124554   4.770   7.245   5.421  1.5279 -0.6140 -1.8598
 7797SOL    HW224555   4.916   7.267   5.454  0.8279 -0.9376  1.9508
 7798SOL     OW24556   0.995   4.532   4.110 -0.2253 -0.4635 -0.1071
 7798SOL    HW124557   0.914   4.483   4.125  0.1126 -1.6780 -1.8822
 7798SOL    HW224558   0.970   4.624   4.124 -1.5467 -0.9271  0.7474
 7799SOL     OW24559   5.473   5.558   7.295  0.0391 -0.2647  0.4080
 7799SOL    HW124560   5.507   5.514   7.217 -0.9271  1.6587 -1.1819
 7799SOL    HW224561   5.378   5.543   7.291 -0.0666  0.2066  0.9985
 7800SOL     OW24562   6.725   4.776   5.482 -0.5154 -0.3305  0.1519
 7800SOL    HW124563   6.753   4.835   5.552 -0.7134 -0.7779  0.6136
 7800SOL    HW224564   6.631   4.769   5.492 -0.7949  0.9380 -1.2266
 7801SOL     OW24565   1.423   6.511   2.630 -0.0884 -0.3928  0.4433
 7801SOL    HW124566   1.453   6.530   2.541  0.0344  0.2163  0.6098
 7801SOL    HW224567   1.411   6.416   2.631 -0.1716 -0.3974 -0.2484
 7802SOL     OW24568   5.487   0.048   8.224  0.4797  0.2290 -0.3210
 7802SOL    HW124569   5.545   0.119   8.252  0.9644 -0.2707 -0.0442
 7802SOL    HW224570   5.432   0.031   8.300  1.7820 -1.1140  0.3768
 7803SOL     OW24571   2.145   1.485   6.790  0.0985 -0.0876  0.1732
 7803SOL    HW124572   2.195   1.438   6.857 -0.4052  0.9754  1.3522
 7803SOL    HW224573   2.065   1.433   6.780  1.3645 -1.8031 -1.7364
 7804SOL     OW24574   1.202   2.305   3.424 -0.5640  0.0890 -0.1535
 7804SOL    HW124575   1.280   2.261   3.460 -0.6160 -0.9608 -1.2491
 7804SOL    HW224576   1.202   2.281   3.332 -1.1356  1.6740 -0.5907
 7805SOL     OW24577   3.539   7.236   0.908 -0.6415 -0.3455 -0.8094
 7805SOL    HW124578   3.560   7.186   0.829 -0.1435  0.2410 -1.0571
 7805SOL    HW224579   3.602   7.308   0.908 -0.3152 -0.6007  0.3758
 7806SOL     OW24580   5.185   3.239   3.308  0.0681 -0.1218  0.0997
 7806SOL    HW124581   5.249   3.308   3.297 -0.3260  0.1570 -0.4753
 7806SOL    HW224582   5.206   3.200   3.393 -0.2425  1.2647  0.8367
 7807SOL     OW24583   8.569   2.315   3.445  0.0468  0.9888 -0.6618
 7807SOL    HW124584   8.495   2.357   3.489 -1.1719 -1.8491  0.2187
 7807SOL    HW224585   8.534   2.288   3.360 -0.0397 -0.5272 -0.1700
 7808SOL     OW24586   0.456   0.635   0.032 -0.2489 -0.4972  0.0986
 7808SOL    HW124587   0.364   0.627   0.056 -0.2794 -3.6277 -0.5927
 7808SOL    HW224588   0.502   0.579   0.095  1.0953  0.3193 -0.1147
 7809SOL     OW24589   3.835   2.514   4.889  0.1469 -0.0289 -0.0374
 7809SOL    HW124590   3.808   2.427   4.916 -0.9628  0.2557 -0.1768
 7809SOL    HW224591   3.895   2.543   4.957 -1.1946 -0.0326  1.1991
 7810SOL     OW24592   2.946   4.672   2.466  0.0864 -0.2220  0.1629
 7810SOL    HW124593   2.984   4.585   2.476 -0.1033 -0.1295  2.0480
 7810SOL    HW224594   2.856   4.656   2.436  0.8980 -0.5142 -2.3505
 7811SOL     OW24595   6.257   3.420   5.611 -0.5139 -0.0236 -0.6985
 7811SOL    HW124596   6.338   3.416   5.661 -1.4711 -3.0573  0.8398
 7811SOL    HW224597   6.281   3.464   5.529  2.6358 -0.7696 -0.2758
 7812SOL     OW24598   5.216   6.777   1.279  0.2276 -0.0470 -0.1189
 7812SOL    HW124599   5.297   6.803   1.236  0.9093 -0.4680  0.8681
 7812SOL    HW224600   5.238   6.698   1.328 -0.6600  0.0747  0.5232
 7813SOL     OW24601   3.520   3.570   4.027 -0.4088  0.6560 -0.0812
 7813SOL    HW124602   3.490   3.491   4.072 -1.4476  0.3751 -1.2156
 7813SOL    HW224603   3.535   3.543   3.937 -3.1228  2.1849 -1.1225
 7814SOL     OW24604   3.983   5.149   7.615 -0.2221 -0.1197 -0.5051
 7814SOL    HW124605   4.063   5.194   7.588  0.7329 -1.3538  0.1367
 7814SOL    HW224606   4.003   5.118   7.704 -1.5785 -0.0855 -0.1740
 7815SOL     OW24607   4.876   4.515   1.524  0.1116 -0.2889  0.0547
 7815SOL    HW124608   4.902   4.520   1.616 -0.7433  1.4708  0.2436
 7815SOL    HW224609   4.922   4.588   1.482  0.0075 -0.6963 -0.7918
 7816SOL     OW24610   6.827   2.921   3.556  0.0310 -0.0593 -0.1185
 7816SOL    HW124611   6.862   2.864   3.624  1.5684 -0.6028 -1.2900
 7816SOL    HW224612   6.904   2.966   3.521 -0.4733 -0.8628 -2.4400
 7817SOL     OW24613   5.277   0.630   1.150  0.0356 -0.5887 -0.9572
 7817SOL    HW124614   5.365   0.667   1.140 -0.5064  1.3651  0.7472
 7817SOL    HW224615   5.291   0.543   1.186  1.2939 -0.1370 -0.2810
 7818SOL     OW24616   6.406   2.486   3.764 -0.5001 -0.1195  0.2916
 7818SOL    HW124617   6.318   2.451   3.775 -0.5352  0.2595  1.4205
 7818SOL    HW224618   6.459   2.436   3.827  0.6514 -2.0856 -2.0551
 7819SOL     OW24619   7.392   4.057   8.795  0.6936  0.1951  0.1022
 7819SOL    HW124620   7.306   4.036   8.831  0.8427  0.8991  0.8999
 7819SOL    HW224621   7.413   3.983   8.738 -0.9421  0.5507 -1.0271
 7820SOL     OW24622   0.485   0.765   4.518  0.2728 -0.0180  0.1727
 7820SOL    HW124623   0.522   0.773   4.606 -0.3097 -2.1918  0.6690
 7820SOL    HW224624   0.506   0.676   4.491 -1.8009 -0.2535 -0.8273
 7821SOL     OW24625   6.774   8.259   8.397  0.1376 -0.3995  0.0608
 7821SOL    HW124626   6.722   8.246   8.317  0.4728  0.0454 -0.2321
 7821SOL    HW224627   6.720   8.316   8.452  0.3379  0.1172 -0.2711
 7822SOL     OW24628   3.520   6.972   5.202  0.6742 -0.3131 -0.1573
 7822SOL    HW124629   3.492   6.883   5.223 -1.8743 -0.0582 -1.9996
 7822SOL    HW224630   3.442   7.013   5.163  1.3235  3.1812  1.8196
 7823SOL     OW24631   1.412   1.466   5.089 -0.2490  0.4655 -0.1264
 7823SOL    HW124632   1.381   1.470   5.179  0.3721  1.2380  0.0628
 7823SOL    HW224633   1.346   1.511   5.037  0.0628  1.2317  0.1363
 7824SOL     OW24634   3.130   2.676   6.376 -0.3414  0.1495 -0.0442
 7824SOL    HW124635   3.156   2.584   6.374 -0.1516  0.2101 -1.3318
 7824SOL    HW224636   3.162   2.712   6.293 -1.0188  1.2071  0.1298
 7825SOL     OW24637   6.002   6.898   4.422  0.2892 -0.2703 -0.2282
 7825SOL    HW124638   5.923   6.947   4.400  0.2452 -0.6195 -0.8979
 7825SOL    HW224639   5.991   6.872   4.513  0.1929  0.7303  0.0566
 7826SOL     OW24640   4.552   5.379   7.151 -0.1776 -0.6120  0.2834
 7826SOL    HW124641   4.476   5.328   7.122 -0.1558 -1.3382  1.4057
 7826SOL    HW224642   4.515   5.458   7.189 -0.4677 -1.3255  1.5634
 7827SOL     OW24643   3.717   0.164   3.892  0.1130  0.1896 -0.0713
 7827SOL    HW124644   3.766   0.087   3.921  2.1786  1.5374  0.2305
 7827SOL    HW224645   3.667   0.192   3.969 -1.0833 -1.0838 -0.3307
 7828SOL     OW24646   7.397   3.691   4.521  0.0888  0.1390  0.5417
 7828SOL    HW124647   7.480   3.646   4.537  0.8298  1.2199 -0.0850
 7828SOL    HW224648   7.414   3.781   4.550 -0.6693  0.5240 -0.1835
 7829SOL     OW24649   2.978   7.634   3.208 -0.1909 -0.4097  0.3159
 7829SOL    HW124650   2.946   7.642   3.298  0.3214  2.6941  0.3115
 7829SOL    HW224651   2.980   7.724   3.175  2.5512 -1.1173 -1.7711
 7830SOL     OW24652   7.136   3.463   2.060 -0.2383 -0.3644  0.1014
 7830SOL    HW124653   7.169   3.485   2.147 -0.4554  0.6837 -0.0596
 7830SOL    HW224654   7.145   3.544   2.010 -0.5982 -0.8047 -0.7017
 7831SOL     OW24655   8.708   0.308   0.180  0.9101  0.0048 -0.0888
 7831SOL    HW124656   8.666   0.268   0.256 -0.6847 -0.1046 -0.9916
 7831SOL    HW224657   8.794   0.336   0.212  0.6202 -0.8355  1.5083
 7832SOL     OW24658   3.709   8.228   4.829 -0.5483  0.5277  0.4391
 7832SOL    HW124659   3.647   8.187   4.889 -0.1027 -1.2244 -0.2312
 7832SOL    HW224660   3.791   8.180   4.844 -0.5785 -0.3775 -1.9489
 7833SOL     OW24661   3.722   7.675   5.145 -0.4307 -0.3531  0.1627
 7833SOL    HW124662   3.813   7.672   5.116 -0.0621 -2.1601  1.3987
 7833SOL    HW224663   3.673   7.636   5.073 -0.2836  0.7628 -0.5727
 7834SOL     OW24664   6.474   3.457   5.788  0.0581 -1.1415 -0.4131
 7834SOL    HW124665   6.532   3.533   5.783 -2.2125  0.7706  0.4981
 7834SOL    HW224666   6.452   3.449   5.880  0.2581 -2.9468 -0.4994
 7835SOL     OW24667   4.910   8.735   1.064  0.5392  0.1379 -0.1827
 7835SOL    HW124668   4.967   8.798   1.020  1.8783 -0.7611  0.1969
 7835SOL    HW224669   4.918   8.655   1.012  0.0862 -0.1822  0.2319
 7836SOL     OW24670   5.875   3.465   5.400 -0.3182 -0.1057  0.3494
 7836SOL    HW124671   5.917   3.533   5.452  2.5885  0.4892 -2.4800
 7836SOL    HW224672   5.938   3.393   5.398 -0.7425 -0.4880 -1.4586
 7837SOL     OW24673   6.335   0.959   1.628  0.6459 -0.5866 -0.2790
 7837SOL    HW124674   6.240   0.969   1.626  0.7074  0.0444 -0.1270
 7837SOL    HW224675   6.370   1.045   1.607  1.1876 -0.6894  0.1519
 7838SOL     OW24676   4.904   5.827   2.823 -0.0945 -0.5388 -0.0048
 7838SOL    HW124677   4.863   5.872   2.749  0.4808 -1.5666 -0.9769
 7838SOL    HW224678   4.897   5.889   2.896  0.0581  0.8279 -1.1129
 7839SOL     OW24679   4.675   6.263   3.963 -0.2296 -0.4826  0.0558
 7839SOL    HW124680   4.678   6.304   4.050 -0.7895  1.0366 -0.6117
 7839SOL    HW224681   4.749   6.203   3.963  0.4590  0.3213  1.1913
 7840SOL     OW24682   6.936   6.835   1.964  0.4518  0.0408 -0.0477
 7840SOL    HW124683   6.998   6.906   1.980  0.1536  0.3355 -0.1967
 7840SOL    HW224684   6.884   6.865   1.889  1.4047 -1.0253 -1.1951
 7841SOL     OW24685   6.209   8.852   1.091  0.6077 -0.3089  0.0725
 7841SOL    HW124686   6.294   8.819   1.060  1.5881  1.9500  0.1725
 7841SOL    HW224687   6.208   8.833   1.184  2.0147  1.4940  0.5191
 7842SOL     OW24688   3.225   1.465   6.668  0.3712 -0.2592  0.0845
 7842SOL    HW124689   3.161   1.398   6.689 -0.2710  0.7017  1.2812
 7842SOL    HW224690   3.217   1.477   6.573 -0.2154 -1.1541  0.0155
 7843SOL     OW24691   6.986   8.304   5.418 -0.0942  0.2812  1.0459
 7843SOL    HW124692   7.027   8.356   5.488  0.7480  0.5672  0.3449
 7843SOL    HW224693   7.046   8.231   5.403 -0.3725  0.1109  0.7509
 7844SOL     OW24694   6.637   8.204   2.666 -0.5446 -0.0944  0.0982
 7844SOL    HW124695   6.716   8.151   2.671 -0.7384 -0.3107  0.9093
 7844SOL    HW224696   6.568   8.148   2.702 -0.6639  0.8578  1.4282
 7845SOL     OW24697   2.018   5.808   6.944 -0.2658 -0.0003  0.5847
 7845SOL    HW124698   2.013   5.904   6.948 -2.7050  0.0451 -0.8693
 7845SOL    HW224699   1.931   5.779   6.972  0.3612 -1.7881  0.7926
 7846SOL     OW24700   7.382   8.655   8.683  0.5421 -0.0938  0.5803
 7846SOL    HW124701   7.380   8.566   8.717 -0.7406  0.0643  0.9901
 7846SOL    HW224702   7.468   8.664   8.642  0.3573 -1.7874 -0.2365
 7847SOL     OW24703   4.817   3.678   4.605  0.0252 -0.0664 -0.3374
 7847SOL    HW124704   4.819   3.593   4.649  0.6042 -0.6734 -1.5020
 7847SOL    HW224705   4.765   3.734   4.664  1.5967 -0.5496  1.6280
 7848SOL     OW24706   3.032   4.113   4.293 -0.3795  0.4071  0.4163
 7848SOL    HW124707   3.018   4.123   4.199  0.7927  1.5433  0.3287
 7848SOL    HW224708   2.950   4.077   4.327 -0.6461 -0.4872 -1.1050
 7849SOL     OW24709   7.769   4.956   8.349 -0.3793  0.1625  0.3022
 7849SOL    HW124710   7.854   4.927   8.382  0.4843  0.2313 -1.7065
 7849SOL    HW224711   7.714   4.879   8.354  1.0479 -1.1378 -2.2572
 7850SOL     OW24712   1.782   6.678   8.193 -1.0859 -0.2695 -0.1333
 7850SOL    HW124713   1.737   6.705   8.113  1.3303  0.4599 -1.3550
 7850SOL    HW224714   1.820   6.592   8.172 -1.0273 -0.3994  0.4788
 7851SOL     OW24715   5.314   7.254   5.566 -0.1352 -0.3433  0.2625
 7851SOL    HW124716   5.251   7.281   5.633 -2.3271 -0.1399 -1.7659
 7851SOL    HW224717   5.376   7.326   5.562 -0.2544 -0.1198  1.6680
 7852SOL     OW24718   6.442   0.137   7.327  0.1437 -0.0686  0.1912
 7852SOL    HW124719   6.516   0.085   7.360 -0.1864  0.0450  1.1545
 7852SOL    HW224720   6.471   0.228   7.336  0.1249 -0.0440 -0.0088
 7853SOL     OW24721   5.768   3.385   2.419 -0.5027  0.5185 -0.1823
 7853SOL    HW124722   5.855   3.405   2.454 -1.2044  1.5617  1.0288
 7853SOL    HW224723   5.786   3.334   2.339  1.2042  0.6259  0.0921
 7854SOL     OW24724   6.427   0.767   6.928 -1.0794  0.2612  0.3222
 7854SOL    HW124725   6.444   0.861   6.921 -0.4966  0.1851  0.6759
 7854SOL    HW224726   6.462   0.742   7.014  1.5986 -0.8522 -0.9662
 7855SOL     OW24727   2.653   2.212   8.112  0.1659  0.0661 -0.3416
 7855SOL    HW124728   2.622   2.222   8.202  4.2341 -1.9247  1.5852
 7855SOL    HW224729   2.688   2.298   8.088  0.7065  0.1665  0.7614
 7856SOL     OW24730   1.418   8.710   3.417 -0.2539 -0.3747 -0.0118
 7856SOL    HW124731   1.465   8.793   3.419 -0.9285  0.0225  1.7025
 7856SOL    HW224732   1.373   8.706   3.502 -2.0333 -1.4467 -0.9360
 7857SOL     OW24733   0.784   0.605   7.913 -0.0811 -0.2533 -0.6783
 7857SOL    HW124734   0.783   0.688   7.866 -1.1261  0.3063  0.2808
 7857SOL    HW224735   0.877   0.590   7.933  0.2105  0.2377 -1.5980
 7858SOL     OW24736   8.628   4.358   5.733 -0.4648 -0.9068 -0.2968
 7858SOL    HW124737   8.707   4.331   5.685  1.0352 -0.7639  1.9345
 7858SOL    HW224738   8.656   4.433   5.785 -1.5270 -1.9935  1.9828
 7859SOL     OW24739   6.884   8.383   7.901  0.0040  0.4272  0.0318
 7859SOL    HW124740   6.934   8.303   7.888  1.7322  1.0767  2.1580
 7859SOL    HW224741   6.911   8.440   7.829  0.6583 -0.0210 -0.0842
 7860SOL     OW24742   4.210   3.513   4.141  0.4988 -0.6675 -0.0891
 7860SOL    HW124743   4.171   3.511   4.229 -2.2800  0.1452 -1.2219
 7860SOL    HW224744   4.264   3.592   4.141 -1.5021  0.7763  0.1569
 7861SOL     OW24745   2.101   7.853   2.194  0.0202 -0.4546  0.6544
 7861SOL    HW124746   2.116   7.905   2.273  3.6029 -1.2479  0.6445
 7861SOL    HW224747   2.038   7.905   2.143  0.9328  2.2451  2.0771
 7862SOL     OW24748   6.507   3.094   6.091 -0.2470 -0.4095  0.4025
 7862SOL    HW124749   6.557   3.015   6.073 -1.1333 -0.8915  0.0067
 7862SOL    HW224750   6.427   3.063   6.132 -0.9274  0.2220 -0.4166
 7863SOL     OW24751   7.774   8.314   7.453  0.4957 -0.2857 -0.7693
 7863SOL    HW124752   7.702   8.376   7.442  0.3187 -0.5368 -1.0724
 7863SOL    HW224753   7.821   8.344   7.530  0.0301 -0.1479 -0.5346
 7864SOL     OW24754   6.457   6.124   1.851 -0.5598  0.2121 -0.1113
 7864SOL    HW124755   6.517   6.129   1.925  0.2264 -2.0175 -0.5183
 7864SOL    HW224756   6.398   6.052   1.874 -1.3383  0.5790 -0.9359
 7865SOL     OW24757   3.301   5.783   7.429 -0.2078  0.6410 -0.0492
 7865SOL    HW124758   3.219   5.814   7.390  0.6986  2.5564 -0.6051
 7865SOL    HW224759   3.345   5.737   7.358 -1.2956 -1.4857  0.6017
 7866SOL     OW24760   2.986   7.933   5.109 -0.1529 -0.4758  0.1145
 7866SOL    HW124761   2.923   7.861   5.101 -0.6088 -0.0289 -0.4007
 7866SOL    HW224762   2.972   7.968   5.197  0.0477 -0.9878  0.3556
 7867SOL     OW24763   8.574   5.116   0.955  0.4653  0.4284  0.2632
 7867SOL    HW124764   8.505   5.049   0.952  1.8587 -1.0462 -1.3475
 7867SOL    HW224765   8.536   5.192   0.911 -0.4055 -0.0493  0.1663
 7868SOL     OW24766   6.607   3.206   1.012  0.1424  0.1286 -0.1658
 7868SOL    HW124767   6.658   3.195   0.931  1.1512  0.5311  0.3906
 7868SOL    HW224768   6.516   3.208   0.983  0.4999  0.5867 -1.3391
 7869SOL     OW24769   3.856   2.556   8.738  0.2406  0.7851  0.8184
 7869SOL    HW124770   3.886   2.623   8.676 -0.7355  1.7109  1.3087
 7869SOL    HW224771   3.935   2.533   8.788  0.5264  1.8328  0.8743
 7870SOL     OW24772   2.563   7.039   0.095 -0.3728  0.2423  0.2449
 7870SOL    HW124773   2.632   7.061   0.032  0.4485 -1.4804  0.4750
 7870SOL    HW224774   2.484   7.028   0.042  0.0410 -0.0005 -0.3333
 7871SOL     OW24775   4.710   8.197   1.884 -0.2777  0.2680 -0.2622
 7871SOL    HW124776   4.712   8.259   1.957 -0.5004  0.8421 -0.7317
 7871SOL    HW224777   4.760   8.241   1.815 -1.4893  0.4834 -1.0261
 7872SOL     OW24778   7.180   8.607   1.502  0.5490  0.6435  0.7746
 7872SOL    HW124779   7.179   8.615   1.597  1.7139  2.1355  0.6982
 7872SOL    HW224780   7.232   8.682   1.472 -2.7936  2.3960 -1.2561
 7873SOL     OW24781   7.945   3.027   4.396  0.0674  0.1870 -0.8575
 7873SOL    HW124782   7.932   2.970   4.472 -0.9388  2.3941  0.7321
 7873SOL    HW224783   8.017   3.084   4.421 -0.5581  1.2289 -1.3617
 7874SOL     OW24784   2.977   6.991   5.151 -0.0797  0.5554 -0.7222
 7874SOL    HW124785   2.921   7.028   5.219 -1.8805 -2.5045 -0.3683
 7874SOL    HW224786   3.059   6.971   5.196  0.2791  2.3017 -0.5161
 7875SOL     OW24787   0.340   1.055   1.505 -0.6371  0.0768  0.3570
 7875SOL    HW124788   0.329   0.961   1.518 -2.4814  0.2201  0.1609
 7875SOL    HW224789   0.399   1.062   1.430  0.3597 -0.8984  1.0242
 7876SOL     OW24790   4.017   5.071   4.647 -0.5317  1.0115 -0.1767
 7876SOL    HW124791   4.084   5.107   4.589 -1.3376 -0.1901 -1.9360
 7876SOL    HW224792   4.058   5.070   4.734  1.6091  0.6166 -1.1384
 7877SOL     OW24793   3.691   0.390   4.771  0.1563  0.0685 -0.3388
 7877SOL    HW124794   3.675   0.353   4.684  1.2124  1.0857 -1.0162
 7877SOL    HW224795   3.669   0.320   4.832  1.7106 -1.5635 -1.5313
 7878SOL     OW24796   4.207   6.569   3.509 -0.3668  0.2857  0.1261
 7878SOL    HW124797   4.295   6.606   3.500  0.6198 -2.1261 -0.7038
 7878SOL    HW224798   4.216   6.500   3.575 -1.4033 -0.6686 -0.6961
 7879SOL     OW24799   5.530   5.440   6.634  0.4036 -0.1471  0.3174
 7879SOL    HW124800   5.446   5.405   6.604 -0.6668  1.6786  1.0212
 7879SOL    HW224801   5.567   5.369   6.687 -0.1617 -1.3912 -0.8971
 7880SOL     OW24802   5.745   3.699   5.789  0.1444  0.0559  0.4557
 7880SOL    HW124803   5.701   3.700   5.874 -0.8300  1.4967 -0.0221
 7880SOL    HW224804   5.831   3.662   5.807 -0.0811  0.2287  2.0508
 7881SOL     OW24805   5.139   3.263   8.672  0.3612 -1.0035  0.2854
 7881SOL    HW124806   5.205   3.328   8.649 -0.1703 -1.1572 -1.9305
 7881SOL    HW224807   5.153   3.192   8.609 -1.6176 -1.2366  0.0627
 7882SOL     OW24808   8.515   3.724   3.835  0.3590 -0.3658 -0.2883
 7882SOL    HW124809   8.477   3.802   3.797 -0.3666 -1.0400 -0.9790
 7882SOL    HW224810   8.609   3.743   3.840  0.6287 -0.5335 -3.2082
 7883SOL     OW24811   5.435   5.481   1.912  0.3962 -0.6974 -0.0680
 7883SOL    HW124812   5.522   5.512   1.935 -0.4435  1.9569 -0.1004
 7883SOL    HW224813   5.388   5.476   1.995 -0.1805  0.6170 -0.2864
 7884SOL     OW24814   6.174   3.006   7.669  0.0320  0.0424 -0.2799
 7884SOL    HW124815   6.265   3.036   7.667  0.2309 -0.4689  0.4340
 7884SOL    HW224816   6.149   2.999   7.577  0.6478  0.3781 -0.4831
 7885SOL     OW24817   1.380   1.614   5.629  0.1656  0.0701  0.0500
 7885SOL    HW124818   1.308   1.673   5.653 -0.3185 -0.6371  0.3734
 7885SOL    HW224819   1.458   1.653   5.668 -0.0624  0.7755 -0.1860
 7886SOL     OW24820   1.694   1.035   2.320  0.2715 -0.4349 -0.4078
 7886SOL    HW124821   1.723   1.012   2.232  0.8678  0.7871 -0.5459
 7886SOL    HW224822   1.641   0.960   2.348  1.1041 -1.3836 -1.3090
 7887SOL     OW24823   0.213   4.441   3.961  0.6073  0.2147  0.2691
 7887SOL    HW124824   0.137   4.488   3.928 -0.2174 -0.8336  0.6048
 7887SOL    HW224825   0.185   4.349   3.963  2.5827 -0.5259 -1.6484
 7888SOL     OW24826   0.230   1.207   0.288 -0.1983 -0.0671 -0.2543
 7888SOL    HW124827   0.150   1.256   0.309  0.0251 -0.4719  1.7688
 7888SOL    HW224828   0.199   1.120   0.263 -0.4128 -0.8029  2.2673
 7889SOL     OW24829   3.279   1.935   7.154 -0.2859  0.3394 -0.0792
 7889SOL    HW124830   3.236   1.849   7.148 -1.5215  0.7954  1.4234
 7889SOL    HW224831   3.354   1.920   7.211  0.4890 -0.0710 -1.1824
 7890SOL     OW24832   0.500   3.886   5.561  0.0283  0.3691 -0.4807
 7890SOL    HW124833   0.495   3.879   5.656 -0.9891 -0.2756 -0.5596
 7890SOL    HW224834   0.535   3.801   5.533 -0.4100  0.2610 -0.7145
 7891SOL     OW24835   1.547   6.883   6.121 -0.1010 -0.4403  0.6795
 7891SOL    HW124836   1.457   6.862   6.147 -0.5481  0.1352 -0.3300
 7891SOL    HW224837   1.539   6.912   6.030  0.9093  1.0150  1.0153
 7892SOL     OW24838   7.189   4.820   1.431  0.0871 -0.2994  0.0532
 7892SOL    HW124839   7.122   4.844   1.367 -2.2383  0.6935  2.6744
 7892SOL    HW224840   7.235   4.902   1.449 -2.0790  0.4352  2.6423
 7893SOL     OW24841   5.754   3.046   0.223  0.0972  0.1519  0.1815
 7893SOL    HW124842   5.695   3.089   0.160  0.2986  0.3063  0.0968
 7893SOL    HW224843   5.794   3.119   0.270  0.5939  0.0623 -0.0995
 7894SOL     OW24844   7.383   2.482   3.349  0.1594 -0.2911 -0.6357
 7894SOL    HW124845   7.378   2.411   3.285 -1.4813  0.5026 -1.4186
 7894SOL    HW224846   7.426   2.553   3.302 -2.3337  0.7980 -1.4137
 7895SOL     OW24847   3.630   0.919   0.109  1.0237 -0.1651  0.2555
 7895SOL    HW124848   3.643   0.952   0.198 -0.6621  0.2863  0.3792
 7895SOL    HW224849   3.690   0.971   0.055  2.3977 -0.7610  1.1619
 7896SOL     OW24850   7.091   5.598   6.996 -0.0234  0.0346  0.1504
 7896SOL    HW124851   7.120   5.643   6.916  0.3932  0.8531  0.7446
 7896SOL    HW224852   7.002   5.570   6.977 -0.2844  1.0911 -0.2588
 7897SOL     OW24853   1.359   2.146   4.396  0.7086 -0.2964  0.4593
 7897SOL    HW124854   1.306   2.225   4.404  1.6116  0.2548  1.1729
 7897SOL    HW224855   1.446   2.178   4.369  0.5777 -1.2209 -1.2094
 7898SOL     OW24856   8.310   0.757   1.654 -0.2317  0.1209 -0.6066
 7898SOL    HW124857   8.357   0.797   1.727 -1.2547 -0.0071  0.1460
 7898SOL    HW224858   8.330   0.664   1.659  0.5050  0.2436 -1.1140
 7899SOL     OW24859   7.232   4.720   8.799  0.5674 -0.0182 -0.0423
 7899SOL    HW124860   7.282   4.657   8.747  1.7479  0.9465 -0.1204
 7899SOL    HW224861   7.141   4.704   8.774  0.7778 -2.0247  0.3351
 7900SOL     OW24862   2.134   3.614   8.421  0.1218 -0.1272  0.5918
 7900SOL    HW124863   2.208   3.558   8.395 -0.7126 -0.5753 -0.9426
 7900SOL    HW224864   2.079   3.557   8.475 -0.4129 -0.6343 -0.4549
 7901SOL     OW24865   4.510   2.618   4.192  0.4029  0.6197  0.4685
 7901SOL    HW124866   4.472   2.633   4.279  0.1550 -0.3001  0.5256
 7901SOL    HW224867   4.538   2.527   4.194 -0.8316  0.1770 -0.8770
 7902SOL     OW24868   3.886   6.600   2.395  0.1171 -0.0962 -0.0511
 7902SOL    HW124869   3.889   6.595   2.299 -0.7216  0.1779 -0.1043
 7902SOL    HW224870   3.793   6.594   2.416  0.2832  0.0053  0.7383
 7903SOL     OW24871   2.149   6.668   6.181  0.1321  0.0707 -0.0478
 7903SOL    HW124872   2.090   6.596   6.156 -0.1228  0.8382 -1.7303
 7903SOL    HW224873   2.111   6.746   6.141  1.1342  0.9504  0.6568
 7904SOL     OW24874   4.665   2.674   0.814 -0.1890  0.4589 -0.4929
 7904SOL    HW124875   4.727   2.734   0.855 -1.6136 -0.9438  4.2807
 7904SOL    HW224876   4.710   2.590   0.814 -1.6849 -0.4740  2.5924
 7905SOL     OW24877   4.462   7.660   3.171 -0.2333 -0.0518  0.1818
 7905SOL    HW124878   4.460   7.663   3.075 -1.3052  2.8842  0.2014
 7905SOL    HW224879   4.554   7.676   3.193  0.0302 -0.7949 -0.3076
 7906SOL     OW24880   3.575   3.200   4.762 -0.7322  0.0309  0.1313
 7906SOL    HW124881   3.504   3.253   4.796 -0.2761  1.0586 -0.4579
 7906SOL    HW224882   3.552   3.110   4.786 -1.5540  0.4800  1.0926
 7907SOL     OW24883   2.051   1.327   8.190  0.4652 -0.0672  0.2840
 7907SOL    HW124884   2.058   1.291   8.101 -1.0918  1.4191 -0.4961
 7907SOL    HW224885   2.022   1.252   8.243  1.2733 -0.9419 -0.4676
 7908SOL     OW24886   8.748   4.856   3.540 -0.2946 -0.4564  0.5366
 7908SOL    HW124887   8.691   4.781   3.521  0.4766 -1.0318  0.4349
 7908SOL    HW224888   8.836   4.821   3.532  0.0769  0.3127  1.1325
 7909SOL     OW24889   4.779   2.034   2.567  0.1741  0.0330 -0.5306
 7909SOL    HW124890   4.719   1.966   2.534 -0.3153 -0.2131  0.7848
 7909SOL    HW224891   4.818   1.995   2.645 -0.7899  1.5672  0.7817
 7910SOL     OW24892   2.864   8.686   2.364 -0.1571  0.1265 -0.3261
 7910SOL    HW124893   2.787   8.629   2.367 -0.7742  0.9670  0.5956
 7910SOL    HW224894   2.856   8.741   2.442  1.7796 -0.2698  0.2253
 7911SOL     OW24895   0.231   8.558   0.310 -0.5781 -0.0191 -0.6213
 7911SOL    HW124896   0.153   8.596   0.351 -2.7618 -0.0569 -4.2920
 7911SOL    HW224897   0.228   8.465   0.334 -1.5144  0.0343 -0.4872
 7912SOL     OW24898   4.811   4.021   6.606 -0.2574 -0.3193  0.9379
 7912SOL    HW124899   4.902   4.000   6.629  0.7768  1.9573 -0.6071
 7912SOL    HW224900   4.778   3.941   6.566  0.9045 -1.3576  1.9655
 7913SOL     OW24901   1.790   5.955   6.707 -0.0373 -0.3234 -0.2085
 7913SOL    HW124902   1.786   5.890   6.777 -2.3590 -0.7964 -0.6955
 7913SOL    HW224903   1.876   5.997   6.717  0.4771 -1.7197  1.6688
 7914SOL     OW24904   5.120   1.892   8.116  0.2055 -0.2416 -0.3177
 7914SOL    HW124905   5.176   1.958   8.076 -0.1468 -0.5541 -1.3444
 7914SOL    HW224906   5.163   1.808   8.098  0.4527 -0.3387  0.6479
 7915SOL     OW24907   3.411   3.342   8.519 -0.0391 -0.3863  0.0799
 7915SOL    HW124908   3.488   3.288   8.500 -0.1064 -0.4300 -0.0667
 7915SOL    HW224909   3.440   3.400   8.589  0.3411  0.0592 -0.4370
 7916SOL     OW24910   7.505   0.325   4.378  0.1320 -0.8603  0.0443
 7916SOL    HW124911   7.523   0.287   4.292 -1.5494 -3.3840  0.7022
 7916SOL    HW224912   7.410   0.337   4.380  0.2311 -0.0613  1.2559
 7917SOL     OW24913   7.670   4.180   2.364  0.0465 -0.0685  0.3620
 7917SOL    HW124914   7.628   4.261   2.394  0.6482  0.2010  0.4800
 7917SOL    HW224915   7.754   4.177   2.410  0.2316 -0.5292  0.0084
 7918SOL     OW24916   0.692   0.678   0.237  0.3511  0.1884  0.1015
 7918SOL    HW124917   0.645   0.619   0.296 -1.5355 -0.5030 -1.9297
 7918SOL    HW224918   0.683   0.765   0.276 -0.3996 -0.3166  1.0759
 7919SOL     OW24919   7.009   1.824   6.365  0.2384 -0.9676 -0.2437
 7919SOL    HW124920   6.999   1.730   6.380 -0.0170 -0.9083 -0.0397
 7919SOL    HW224921   6.922   1.854   6.339  0.3667 -0.8229 -0.5125
 7920SOL     OW24922   0.007   1.840   2.811  0.3294  0.3425  0.7688
 7920SOL    HW124923   0.059   1.917   2.834  1.2499  0.8334 -2.4384
 7920SOL    HW224924  -0.033   1.862   2.727 -0.0935 -2.3537  0.1649
 7921SOL     OW24925   8.844   5.215   0.570  0.4711  0.0871  0.0513
 7921SOL    HW124926   8.934   5.190   0.549  0.2364 -1.1633  0.4391
 7921SOL    HW224927   8.838   5.306   0.543  1.8441  0.1868 -0.0049
 7922SOL     OW24928   1.203   5.737   7.319 -0.2138  0.3615  0.1678
 7922SOL    HW124929   1.285   5.698   7.349 -1.5432 -2.0840  0.9267
 7922SOL    HW224930   1.229   5.818   7.276  2.6698 -0.7310 -0.3789
 7923SOL     OW24931   4.008   8.650   3.796 -0.1177 -0.2613  0.3220
 7923SOL    HW124932   4.066   8.617   3.864  0.9002 -1.4546 -1.0587
 7923SOL    HW224933   4.053   8.727   3.761  0.4239 -0.9072 -0.4271
 7924SOL     OW24934   0.684   4.396   6.280 -0.0944  0.0451 -0.0443
 7924SOL    HW124935   0.773   4.409   6.247 -0.0627 -0.3972 -0.1321
 7924SOL    HW224936   0.628   4.434   6.212 -0.0105 -0.5137 -0.4330
 7925SOL     OW24937   3.440   0.306   0.354 -0.3264 -0.2824  0.5117
 7925SOL    HW124938   3.369   0.245   0.372 -2.3789  2.4524  2.6616
 7925SOL    HW224939   3.413   0.387   0.397  2.6487  1.8884 -1.3181
 7926SOL     OW24940   1.418   4.151   1.623  0.0498  1.1587 -0.1241
 7926SOL    HW124941   1.378   4.136   1.709  0.2220  1.6226  0.0419
 7926SOL    HW224942   1.497   4.096   1.624 -0.1197  0.9139 -0.1146
 7927SOL     OW24943   1.820   7.537   8.430 -0.0869  0.0617  0.0063
 7927SOL    HW124944   1.882   7.605   8.403  1.2298 -1.5714 -1.3008
 7927SOL    HW224945   1.784   7.503   8.348  0.4199 -1.7968  0.5079
 7928SOL     OW24946   2.943   6.993   2.438 -0.0397 -0.2673 -0.2260
 7928SOL    HW124947   2.942   6.918   2.496 -1.3981  1.2713  1.8885
 7928SOL    HW224948   2.992   7.060   2.485  0.8671  0.3352 -1.9088
 7929SOL     OW24949   1.354   5.056   5.307 -0.1397  0.2983  0.1078
 7929SOL    HW124950   1.287   5.038   5.373 -0.1388  0.9123  0.2876
 7929SOL    HW224951   1.437   5.035   5.350 -0.2129 -0.5046 -0.1301
 7930SOL     OW24952   6.984   8.244   3.151  0.3739  0.3385  0.4407
 7930SOL    HW124953   7.013   8.182   3.218  0.2648 -0.7492 -0.4931
 7930SOL    HW224954   6.898   8.211   3.124  0.1922  1.0574  0.1298
 7931SOL     OW24955   8.011   2.690   5.740 -0.7057  0.0149  0.3639
 7931SOL    HW124956   8.051   2.771   5.710 -2.1633  1.2372  1.5621
 7931SOL    HW224957   8.080   2.646   5.791 -0.0697  0.7508  0.1408
 7932SOL     OW24958   0.784   5.876   5.554  0.1181 -0.5617  0.6069
 7932SOL    HW124959   0.782   5.871   5.650 -1.6191 -0.0947  0.6272
 7932SOL    HW224960   0.745   5.794   5.525  1.7750 -1.2500  0.2481
 7933SOL     OW24961   2.207   7.005   4.430  0.2751  0.7595 -0.4531
 7933SOL    HW124962   2.281   6.986   4.372  1.0962  0.0002  0.7856
 7933SOL    HW224963   2.247   7.040   4.509 -0.6326 -0.2050  0.4640
 7934SOL     OW24964   7.731   1.104   0.144 -0.2045 -1.0017  0.4437
 7934SOL    HW124965   7.724   1.115   0.239  0.9438 -0.2628  0.4657
 7934SOL    HW224966   7.809   1.154   0.120 -0.0911 -1.7355 -0.7991
 7935SOL     OW24967   3.357   0.509   8.671  0.1081 -0.2231  0.0979
 7935SOL    HW124968   3.427   0.471   8.725  0.5693 -1.3663 -1.2366
 7935SOL    HW224969   3.367   0.467   8.586 -1.8460  0.0348 -0.3155
 7936SOL     OW24970   1.814   1.402   1.344  0.4960 -0.2101  0.2923
 7936SOL    HW124971   1.779   1.316   1.320  2.0624 -0.2735 -2.0669
 7936SOL    HW224972   1.904   1.385   1.370  0.3481  0.5497  1.3559
 7937SOL     OW24973   8.493   7.496   6.464  0.5423  0.4502  0.4097
 7937SOL    HW124974   8.417   7.451   6.428 -0.3304  1.5218  0.8624
 7937SOL    HW224975   8.477   7.497   6.559  1.1739  0.6022  0.5198
 7938SOL     OW24976   2.018   6.106   8.811 -0.2359 -0.6312  0.2722
 7938SOL    HW124977   1.939   6.065   8.778  0.0893 -1.8833  0.9984
 7938SOL    HW224978   2.069   6.035   8.849  0.9108  0.2571  0.4711
 7939SOL     OW24979   4.587   4.577   0.967 -0.5745 -0.5156  0.1965
 7939SOL    HW124980   4.529   4.537   0.902 -0.0473  0.8017 -1.1446
 7939SOL    HW224981   4.675   4.555   0.938 -0.3039  0.8382 -0.0900
 7940SOL     OW24982   7.167   7.050   2.784  0.0425  0.2573 -0.2199
 7940SOL    HW124983   7.206   7.027   2.869  0.4619  1.3005 -0.1134
 7940SOL    HW224984   7.212   7.130   2.758  0.4063 -0.4252 -1.7808
 7941SOL     OW24985   6.681   1.924   6.944 -0.2963 -0.4451 -0.0883
 7941SOL    HW124986   6.711   1.952   7.030 -1.8565 -0.7609  0.5989
 7941SOL    HW224987   6.757   1.935   6.887  0.2532  1.4851  0.9280
 7942SOL     OW24988   1.397   0.194   5.453 -0.2640 -0.2114 -0.1235
 7942SOL    HW124989   1.479   0.241   5.470  0.0632 -0.1497 -1.7095
 7942SOL    HW224990   1.388   0.134   5.527 -0.4187  1.9111  1.7046
 7943SOL     OW24991   5.578   1.027   3.734 -0.4078 -0.1389  0.0282
 7943SOL    HW124992   5.555   1.119   3.725  1.1462  0.2626 -0.1341
 7943SOL    HW224993   5.673   1.027   3.741 -0.2886 -1.8203 -1.0873
 7944SOL     OW24994   0.093   0.970   5.668  0.5400  0.0672 -0.0066
 7944SOL    HW124995   0.132   0.890   5.632  1.8122  0.8234 -0.3689
 7944SOL    HW224996   0.075   1.025   5.592 -1.1719 -0.2045  0.1657
 7945SOL     OW24997   8.219   2.179   1.458 -0.0076  0.2522  0.2783
 7945SOL    HW124998   8.220   2.169   1.363  1.5976  0.6355  0.2247
 7945SOL    HW224999   8.249   2.094   1.492 -0.5641  0.1196  0.4482
 7946SOL     OW25000   2.431   6.463   6.278  0.8682  0.1016  0.0379
 7946SOL    HW125001   2.388   6.531   6.227 -0.3261 -0.8579 -0.2760
 7946SOL    HW225002   2.410   6.484   6.369 -0.2819 -0.3400 -0.1116
 7947SOL     OW25003   4.886   6.506   7.949  0.1554 -0.1931 -0.3037
 7947SOL    HW125004   4.792   6.517   7.959  0.1674  0.4374 -0.8447
 7947SOL    HW225005   4.911   6.444   8.018 -0.9192 -1.6708 -1.1955
 7948SOL     OW25006   6.857   2.991   8.206  0.2430 -0.6779 -0.2293
 7948SOL    HW125007   6.853   2.934   8.130 -0.5419  0.1709 -0.8505
 7948SOL    HW225008   6.915   3.063   8.180 -0.5943 -0.0111 -0.3109
 7949SOL     OW25009   7.814   6.175   1.244 -0.3316  0.1047  0.1594
 7949SOL    HW125010   7.763   6.095   1.258  2.6881 -1.4301  4.2866
 7949SOL    HW225011   7.768   6.242   1.295  0.0706 -0.5074  1.3699
 7950SOL     OW25012   1.535   7.622   3.749 -0.0485 -0.1821  0.5796
 7950SOL    HW125013   1.463   7.681   3.771  0.5276  0.1272  1.7155
 7950SOL    HW225014   1.545   7.567   3.826  1.2901  0.1542  0.6701
 7951SOL     OW25015   6.042   4.919   5.917 -0.3200  0.2254  0.6616
 7951SOL    HW125016   5.966   4.914   5.860 -0.5956 -0.0783  1.0448
 7951SOL    HW225017   6.102   4.853   5.883  0.3504  1.3744 -0.4510
 7952SOL     OW25018   0.179   4.340   6.543 -0.1123  0.1355  0.2617
 7952SOL    HW125019   0.197   4.420   6.593 -0.4158  0.0550  0.5052
 7952SOL    HW225020   0.131   4.371   6.466 -1.2680  0.0681  0.9431
 7953SOL     OW25021   4.926   7.399   4.386 -0.0393  0.0438 -0.1245
 7953SOL    HW125022   4.995   7.344   4.424  0.5481  0.0542 -1.1274
 7953SOL    HW225023   4.855   7.338   4.367  0.5913 -0.3854 -1.1876
 7954SOL     OW25024   4.639   2.615   3.798 -0.1484 -0.7088  0.4027
 7954SOL    HW125025   4.654   2.536   3.850 -1.9737 -0.0112  2.0947
 7954SOL    HW225026   4.548   2.639   3.816  0.2594  1.6067 -0.3042
 7955SOL     OW25027   5.119   8.769   8.447 -0.7830  0.3735  0.4558
 7955SOL    HW125028   5.105   8.797   8.356 -0.6438 -2.3367 -0.4796
 7955SOL    HW225029   5.102   8.675   8.447 -1.1178  0.3355  3.3507
 7956SOL     OW25030   0.324   0.348   1.258 -0.3988  0.1016 -0.0769
 7956SOL    HW125031   0.363   0.274   1.213 -1.2431 -1.3726  1.4748
 7956SOL    HW225032   0.394   0.413   1.263 -0.3253  0.4557 -3.5478
 7957SOL     OW25033   5.313   4.229   2.335  0.1070 -0.0498  0.5534
 7957SOL    HW125034   5.397   4.186   2.320  0.3502  0.0893  1.4324
 7957SOL    HW225035   5.249   4.158   2.335  0.1123 -0.0806 -0.8256
 7958SOL     OW25036   0.297   1.719   2.398 -0.2326 -0.0433 -0.2011
 7958SOL    HW125037   0.223   1.711   2.457 -0.2664 -0.3062 -0.2748
 7958SOL    HW225038   0.268   1.780   2.330 -0.0780  0.5098  0.2269
 7959SOL     OW25039   3.330   4.966   4.010 -0.7378 -0.7598  0.3637
 7959SOL    HW125040   3.260   4.977   4.074  0.1778 -0.3889  1.3170
 7959SOL    HW225041   3.405   5.011   4.047  0.4198 -2.2814  0.0026
 7960SOL     OW25042   5.997   5.179   5.259 -0.4529 -0.2542 -0.1209
 7960SOL    HW125043   6.071   5.169   5.199 -0.1840  0.1988  0.1345
 7960SOL    HW225044   5.925   5.210   5.203 -0.7056 -1.5321 -0.5312
 7961SOL     OW25045   0.751   0.893   8.100 -0.4675 -0.1053  0.0067
 7961SOL    HW125046   0.714   0.969   8.144 -1.2696 -0.8446  0.6443
 7961SOL    HW225047   0.802   0.848   8.168  1.4262  0.7305 -0.7759
 7962SOL     OW25048   2.843   2.563   2.799  0.6395  0.5672  0.2403
 7962SOL    HW125049   2.825   2.506   2.874  2.1913 -0.6154 -0.2295
 7962SOL    HW225050   2.773   2.543   2.737 -0.2295  1.0052  1.0693
 7963SOL     OW25051   8.731   2.907   1.267  0.5625  0.7348 -0.3735
 7963SOL    HW125052   8.810   2.920   1.320  0.6120  1.8365 -0.6972
 7963SOL    HW225053   8.690   2.993   1.263  0.9428  0.8762 -2.6998
 7964SOL     OW25054   2.792   2.731   0.416  0.4190  0.4169 -0.1333
 7964SOL    HW125055   2.709   2.723   0.371  0.6377 -0.7970 -0.3473
 7964SOL    HW225056   2.855   2.751   0.348  0.2087  2.0635  0.1237
 7965SOL     OW25057   8.825   7.068   8.472 -0.1157 -0.4118 -1.1265
 7965SOL    HW125058   8.911   7.108   8.463 -0.4400  0.2302 -1.4077
 7965SOL    HW225059   8.843   6.982   8.511  0.5853 -0.0262 -0.5785
 7966SOL     OW25060   1.294   8.502   1.347 -0.0236  0.4544 -0.0590
 7966SOL    HW125061   1.357   8.469   1.412  0.0117 -0.4284 -0.5239
 7966SOL    HW225062   1.323   8.591   1.328  0.9205  0.1482 -0.0660
 7967SOL     OW25063   3.729   6.670   1.865  0.0120  0.1369  0.2609
 7967SOL    HW125064   3.791   6.707   1.802 -0.0422  0.2618  0.2809
 7967SOL    HW225065   3.713   6.581   1.834 -0.5469  0.4226 -0.2931
 7968SOL     OW25066   3.711   3.221   3.343 -0.4686  0.1682  0.2220
 7968SOL    HW125067   3.741   3.309   3.365  1.0441 -0.3566  0.4005
 7968SOL    HW225068   3.743   3.166   3.415 -3.7014 -0.1970  1.5543
 7969SOL     OW25069   1.479   6.521   6.500  0.1514  0.1826 -0.0933
 7969SOL    HW125070   1.497   6.597   6.555  0.1731 -0.2975  0.5771
 7969SOL    HW225071   1.562   6.501   6.458  0.7287 -0.7997  1.4391
 7970SOL     OW25072   5.730   2.483   6.906  0.3854  0.2120  0.3315
 7970SOL    HW125073   5.787   2.412   6.875 -0.5402 -0.9492  1.1554
 7970SOL    HW225074   5.786   2.536   6.962  1.2756  0.5651 -0.8476
 7971SOL     OW25075   0.842   3.067   4.400  0.6295  0.3046  0.1583
 7971SOL    HW125076   0.847   2.977   4.367 -1.1686  1.0241 -2.4773
 7971SOL    HW225077   0.923   3.109   4.370  2.7752 -0.9327  3.6636
 7972SOL     OW25078   1.104   0.812   5.608 -0.1983 -0.1400 -0.1713
 7972SOL    HW125079   1.039   0.863   5.657 -0.3977 -0.1637 -0.4064
 7972SOL    HW225080   1.057   0.785   5.528  0.4877  0.8895 -0.9399
 7973SOL     OW25081   5.206   6.994   0.512 -0.1087 -0.4704  0.2111
 7973SOL    HW125082   5.137   7.061   0.509 -0.7670 -1.1559 -0.4148
 7973SOL    HW225083   5.192   6.942   0.433  2.3084  0.5260 -1.0079
 7974SOL     OW25084   6.127   0.357   0.436  0.2612  0.1388  0.3233
 7974SOL    HW125085   6.051   0.301   0.452  0.9683 -1.6192 -1.9167
 7974SOL    HW225086   6.091   0.441   0.409 -0.9238 -0.7572 -1.0165
 7975SOL     OW25087   3.198   6.772   6.108  0.2859  0.0327 -0.2858
 7975SOL    HW125088   3.267   6.708   6.090  0.9206  1.0676 -1.6743
 7975SOL    HW225089   3.208   6.838   6.039 -0.8923  1.1898  0.6167
 7976SOL     OW25090   2.992   8.489   6.258 -0.7718  0.6487 -0.2842
 7976SOL    HW125091   3.004   8.490   6.353 -1.9861  1.7042 -0.1122
 7976SOL    HW225092   2.898   8.502   6.246 -0.6459  0.4611 -1.6424
 7977SOL     OW25093   4.623   8.187   0.490 -0.3521 -0.6078 -0.3470
 7977SOL    HW125094   4.563   8.113   0.489 -2.2441  0.8695 -1.1926
 7977SOL    HW225095   4.666   8.185   0.405  0.3521 -1.2727  0.0072
 7978SOL     OW25096   2.769   3.719   4.850  0.3249 -0.3065 -0.0990
 7978SOL    HW125097   2.736   3.662   4.918  0.6733 -0.5861 -0.1615
 7978SOL    HW225098   2.863   3.702   4.847  0.1291 -1.3393 -1.5987
 7979SOL     OW25099   1.314   4.267   3.799  0.5400  0.5290  0.4420
 7979SOL    HW125100   1.236   4.257   3.745  0.5557 -2.1356  0.7641
 7979SOL    HW225101   1.280   4.286   3.887 -0.0924 -3.4831  1.2541
 7980SOL     OW25102   2.680   4.024   1.162 -0.5087  0.8043  0.5592
 7980SOL    HW125103   2.667   4.118   1.175  1.9621  1.2969 -0.0621
 7980SOL    HW225104   2.762   4.017   1.113  0.7560 -1.7722  2.7461
 7981SOL     OW25105   3.275   4.573   6.735  0.3141  0.4274  0.1614
 7981SOL    HW125106   3.285   4.663   6.706 -2.2009  0.9043  0.4812
 7981SOL    HW225107   3.270   4.522   6.654 -0.7677  0.9584 -0.1322
 7982SOL     OW25108   4.156   4.348   6.143  0.8573  0.1158 -0.5167
 7982SOL    HW125109   4.099   4.362   6.068  1.3937 -0.5111 -1.0478
 7982SOL    HW225110   4.106   4.290   6.201  0.4741  0.5424 -0.4131
 7983SOL     OW25111   4.498   7.138   4.647  0.3837 -0.3442  0.6144
 7983SOL    HW125112   4.516   7.050   4.614  0.0183  0.1930 -1.1117
 7983SOL    HW225113   4.403   7.147   4.641  0.4198  0.1706  0.7708
 7984SOL     OW25114   4.317   3.508   3.704  0.1759 -0.4534 -0.1678
 7984SOL    HW125115   4.366   3.590   3.711  2.7322 -1.9885  1.8372
 7984SOL    HW225116   4.226   3.535   3.690  0.9614  2.6696  0.0693
 7985SOL     OW25117   1.520   7.858   4.828  0.1984  0.0864 -0.4025
 7985SOL    HW125118   1.485   7.769   4.834  1.7615 -0.4854  1.5220
 7985SOL    HW225119   1.613   7.845   4.810  0.5863  1.2767  0.6151
 7986SOL     OW25120   6.841   8.530   0.121  0.0809 -0.0523  0.3335
 7986SOL    HW125121   6.918   8.522   0.065 -0.6779 -0.0350 -0.7405
 7986SOL    HW225122   6.767   8.534   0.060 -0.8500 -1.0015  1.3655
 7987SOL     OW25123   6.586   6.206   2.777 -0.2450  0.2175  0.5223
 7987SOL    HW125124   6.575   6.115   2.803  1.6574  0.0483  0.8468
 7987SOL    HW225125   6.638   6.245   2.847 -0.4820  1.4007  0.0671
 7988SOL     OW25126   3.774   7.716   7.741  0.1973 -0.5499 -0.0758
 7988SOL    HW125127   3.686   7.712   7.779  0.9063  0.4040  1.8028
 7988SOL    HW225128   3.760   7.754   7.654 -1.2819 -0.7849  0.0217
 7989SOL     OW25129   2.149   2.674   4.031  0.1794  0.4639 -0.0319
 7989SOL    HW125130   2.066   2.719   4.018 -0.9715 -0.6994  2.5543
 7989SOL    HW225131   2.200   2.732   4.087  1.3803  1.3766 -1.9655
 7990SOL     OW25132   4.069   5.063   4.323 -0.5234  0.3822 -0.2671
 7990SOL    HW125133   4.064   5.096   4.234 -0.9195  0.9430 -0.0413
 7990SOL    HW225134   4.015   5.123   4.375 -1.9901 -1.0997  0.0234
 7991SOL     OW25135   0.093   1.231   5.763  0.1629  0.0995 -0.0148
 7991SOL    HW125136   0.113   1.139   5.746  0.3123  0.2758 -0.8294
 7991SOL    HW225137   0.004   1.230   5.798 -0.5962 -0.2078 -1.8440
 7992SOL     OW25138   1.318   1.795   8.818  0.2869 -0.7075  0.3215
 7992SOL    HW125139   1.408   1.763   8.818 -0.2878 -2.4209  0.1380
 7992SOL    HW225140   1.299   1.814   8.726 -0.3685 -2.9587 -0.0707
 7993SOL     OW25141   6.510   8.466   2.769  0.0857 -0.4416 -0.5144
 7993SOL    HW125142   6.542   8.382   2.736 -0.1725 -0.6531 -0.2255
 7993SOL    HW225143   6.504   8.454   2.864 -0.0417 -0.1262 -0.4808
 7994SOL     OW25144   4.452   0.629   7.135 -0.0439 -0.9856  0.3725
 7994SOL    HW125145   4.419   0.670   7.215  0.5189 -2.6490  1.5016
 7994SOL    HW225146   4.417   0.684   7.065 -0.9637  0.2434  1.7195
 7995SOL     OW25147   2.339   6.192   5.404 -0.0008  0.1056 -0.2642
 7995SOL    HW125148   2.433   6.184   5.389  0.1033  1.5423 -0.5754
 7995SOL    HW225149   2.302   6.211   5.318 -0.7782 -1.7617 -0.3827
 7996SOL     OW25150   4.670   1.562   0.860 -0.6244 -0.2535  0.1383
 7996SOL    HW125151   4.627   1.576   0.945  0.7377 -1.6524  1.1210
 7996SOL    HW225152   4.654   1.470   0.840 -1.1732  0.1279 -1.3101
 7997SOL     OW25153   4.494   7.491   8.549 -0.0786  0.0505  0.2332
 7997SOL    HW125154   4.479   7.428   8.619 -0.4252 -0.2931 -0.1497
 7997SOL    HW225155   4.589   7.504   8.548  0.4229 -2.8448 -1.6998
 7998SOL     OW25156   6.118   6.902   1.434  0.5784  0.2221 -0.6988
 7998SOL    HW125157   6.056   6.968   1.403  0.7747  0.1303 -1.3102
 7998SOL    HW225158   6.173   6.883   1.358 -0.5845 -1.9601 -1.0847
 7999SOL     OW25159   5.822   8.482   2.908  0.4346  0.3907  0.4851
 7999SOL    HW125160   5.812   8.544   2.835 -0.2620 -0.5567 -0.2555
 7999SOL    HW225161   5.737   8.437   2.913  0.9695 -0.6005  0.9022
 8000SOL     OW25162   6.615   7.643   1.637  0.1076  0.1354 -0.5286
 8000SOL    HW125163   6.580   7.629   1.724  1.5519 -0.6804 -0.0466
 8000SOL    HW225164   6.703   7.679   1.652  0.1803  0.4756 -1.6536
 8001SOL     OW25165   0.581   4.252   4.429  0.6737  0.1752 -0.2446
 8001SOL    HW125166   0.665   4.209   4.409  0.0195 -0.2939 -2.1399
 8001SOL    HW225167   0.606   4.342   4.451  1.8759 -0.5778  1.7527
 8002SOL     OW25168   6.915   3.722   6.985  0.4786  0.0950 -0.2868
 8002SOL    HW125169   6.850   3.768   6.932 -1.3606 -0.8551  1.0349
 8002SOL    HW225170   6.864   3.668   7.045  2.4697  0.1577  1.6070
 8003SOL     OW25171   1.519   1.820   7.932 -0.6217  0.0247 -0.2545
 8003SOL    HW125172   1.588   1.777   7.882  0.8614 -1.8549  3.0561
 8003SOL    HW225173   1.552   1.909   7.945  1.2364 -0.7683  1.0798
 8004SOL     OW25174   6.664   6.781   3.845 -0.2924 -0.2291 -0.6116
 8004SOL    HW125175   6.719   6.767   3.922 -0.1969 -0.5011 -0.7304
 8004SOL    HW225176   6.725   6.802   3.774 -0.4654  1.8222 -0.2314
 8005SOL     OW25177   1.274   4.471   7.845 -0.3296  0.0039 -0.1911
 8005SOL    HW125178   1.217   4.418   7.789 -1.3301 -0.3413  1.1053
 8005SOL    HW225179   1.272   4.427   7.930  0.5596  0.9184  0.3294
 8006SOL     OW25180   3.532   4.825   6.091 -0.2544  0.1900 -0.4710
 8006SOL    HW125181   3.490   4.842   6.007 -1.1856  1.4829  0.2145
 8006SOL    HW225182   3.567   4.910   6.118  0.9036 -0.4216  0.0020
 8007SOL     OW25183   2.546   7.571   0.864  0.1355 -0.7049  0.2468
 8007SOL    HW125184   2.466   7.602   0.906  0.4786 -0.6897  0.9106
 8007SOL    HW225185   2.577   7.646   0.813 -0.1860 -0.6557  0.1256
 8008SOL     OW25186   1.735   7.819   1.257 -0.0375  0.2524 -0.6033
 8008SOL    HW125187   1.807   7.756   1.254 -1.2508 -1.4010  1.7062
 8008SOL    HW225188   1.777   7.904   1.273  1.5702 -0.0494 -2.7660
 8009SOL     OW25189   0.205   7.560   1.011  0.3434  0.1193 -0.5272
 8009SOL    HW125190   0.184   7.511   0.931  1.1714  0.6705 -1.1011
 8009SOL    HW225191   0.123   7.599   1.038  0.0470 -0.0975 -1.1007
 8010SOL     OW25192   6.757   7.395   7.944 -0.9162  0.2963  0.1311
 8010SOL    HW125193   6.687   7.435   7.995 -1.0789 -0.8531  0.8334
 8010SOL    HW225194   6.758   7.304   7.971 -1.7850 -0.6569 -2.7328
 8011SOL     OW25195   8.602   0.876   0.033  0.0565 -0.1285  0.9360
 8011SOL    HW125196   8.526   0.931   0.016  0.0028  0.0383  1.6915
 8011SOL    HW225197   8.657   0.887  -0.044 -0.1053  0.7188  0.9348
 8012SOL     OW25198   7.431   2.934   8.535  0.1395  0.4236 -0.1977
 8012SOL    HW125199   7.458   2.852   8.578  0.2539  1.2686  1.3867
 8012SOL    HW225200   7.375   2.977   8.599  0.3680  1.7541 -0.8755
 8013SOL     OW25201   5.747   3.149   6.177  0.4815  0.4656 -0.1819
 8013SOL    HW125202   5.665   3.194   6.198  0.1012  0.7802 -2.0754
 8013SOL    HW225203   5.725   3.096   6.099  1.3133 -1.8550  1.0611
 8014SOL     OW25204   5.066   3.513   1.272 -0.2535  0.0580  0.0073
 8014SOL    HW125205   5.074   3.454   1.347  0.0370 -1.8737 -1.4763
 8014SOL    HW225206   4.984   3.487   1.229 -0.4307  1.1535 -0.3569
 8015SOL     OW25207   7.944   7.504   2.253 -0.2688  0.1486  0.2928
 8015SOL    HW125208   7.951   7.582   2.308  2.3492 -0.7147  1.3584
 8015SOL    HW225209   7.990   7.528   2.172 -0.8328  0.2045 -0.0135
 8016SOL     OW25210   0.840   3.298   6.931  0.2797 -0.3866 -0.1507
 8016SOL    HW125211   0.762   3.282   6.983  1.4711 -2.0833  1.2402
 8016SOL    HW225212   0.873   3.211   6.908  2.3930  0.2203  0.3291
 8017SOL     OW25213   2.561   1.277   0.999  0.6550 -0.1043 -0.6704
 8017SOL    HW125214   2.605   1.212   1.054  0.0969 -1.3224 -1.6349
 8017SOL    HW225215   2.618   1.288   0.924 -0.4410 -1.3944 -1.7364
 8018SOL     OW25216   0.334   2.277   4.847  0.6851 -0.2965 -0.3906
 8018SOL    HW125217   0.407   2.219   4.865  1.6038  1.0332  0.3510
 8018SOL    HW225218   0.307   2.310   4.933  0.3981  0.6059 -0.8061
 8019SOL     OW25219   2.276   7.501   7.728 -0.2019 -0.6091 -0.1880
 8019SOL    HW125220   2.305   7.562   7.796 -0.0495 -1.2358  0.3170
 8019SOL    HW225221   2.251   7.422   7.776  1.8071 -1.7965 -0.9944
 8020SOL     OW25222   7.806   2.998   1.322  0.1280  0.7858  0.2715
 8020SOL    HW125223   7.902   2.998   1.324  0.2514  2.6143 -1.5187
 8020SOL    HW225224   7.783   3.087   1.297 -2.0022  0.1007 -0.4279
 8021SOL     OW25225   0.176   8.670   3.563  0.2081 -0.2368  0.7714
 8021SOL    HW125226   0.086   8.640   3.566  0.3178 -0.6806 -0.1984
 8021SOL    HW225227   0.225   8.603   3.613  0.1744 -0.6540  0.2524
 8022SOL     OW25228   5.001   5.829   7.319 -0.0739 -0.2496  0.6714
 8022SOL    HW125229   4.978   5.768   7.389  1.0993 -1.4745  0.0371
 8022SOL    HW225230   4.928   5.825   7.258  0.6021 -2.2033 -0.0947
 8023SOL     OW25231   7.499   6.860   8.426  0.6231 -0.5647 -0.6933
 8023SOL    HW125232   7.468   6.946   8.454  0.6965 -1.0021  0.7808
 8023SOL    HW225233   7.423   6.803   8.435  1.3529 -1.2982  1.3859
 8024SOL     OW25234   2.061   2.085   2.634  0.2440  0.1881 -0.1455
 8024SOL    HW125235   1.965   2.077   2.642  0.1091  1.8327  0.2583
 8024SOL    HW225236   2.074   2.124   2.548  0.7602 -2.5005 -1.3796
 8025SOL     OW25237   4.692   4.265   0.753 -0.0503 -0.1605  0.5417
 8025SOL    HW125238   4.629   4.336   0.761  1.1523  0.7785  2.5597
 8025SOL    HW225239   4.738   4.265   0.837  2.0856 -1.3106 -0.5519
 8026SOL     OW25240   5.592   6.091   6.845  0.0518 -0.0600 -0.3414
 8026SOL    HW125241   5.511   6.055   6.880  0.4309 -1.3786 -0.7740
 8026SOL    HW225242   5.567   6.131   6.762 -0.3785  0.7375  0.1594
 8027SOL     OW25243   6.953   3.616   0.089 -0.0221  0.4082 -0.3917
 8027SOL    HW125244   6.933   3.585   0.178 -1.8907  0.8642 -0.5952
 8027SOL    HW225245   6.901   3.696   0.080  0.9591  0.9444 -1.5409
 8028SOL     OW25246   2.893   4.956   7.532 -0.2320 -0.1005  0.0934
 8028SOL    HW125247   2.876   4.866   7.505  1.7386 -1.0308  1.7047
 8028SOL    HW225248   2.982   4.974   7.503 -1.0525  1.8853 -1.4416
 8029SOL     OW25249   0.719   6.124   8.698 -0.5469  0.6279  0.0149
 8029SOL    HW125250   0.808   6.088   8.700 -0.7659 -0.0346 -1.0589
 8029SOL    HW225251   0.726   6.200   8.639 -0.1253  2.3076  2.1256
 8030SOL     OW25252   6.772   5.157   1.623 -0.4480  0.0256 -0.1223
 8030SOL    HW125253   6.853   5.182   1.667  0.0348  0.6195 -1.3006
 8030SOL    HW225254   6.769   5.062   1.630 -0.7079  0.1287  1.6924
 8031SOL     OW25255   2.712   3.248   1.341  0.4768 -0.1888 -0.0758
 8031SOL    HW125256   2.693   3.280   1.253 -2.0362 -2.4517 -0.5018
 8031SOL    HW225257   2.683   3.157   1.341  1.8619 -0.7653  2.6714
 8032SOL     OW25258   1.045   5.378   4.568  0.5177  0.2677 -0.3450
 8032SOL    HW125259   1.118   5.428   4.534 -0.5862  1.2765 -1.3076
 8032SOL    HW225260   0.971   5.402   4.513 -0.5497 -0.7282  0.5881
 8033SOL     OW25261   0.714   2.123   1.796 -0.5018  0.6642 -0.5516
 8033SOL    HW125262   0.805   2.136   1.824 -0.9588  1.0054  0.9104
 8033SOL    HW225263   0.678   2.212   1.794 -0.9835  0.4734 -0.4029
 8034SOL     OW25264   3.042   8.044   7.266 -0.2648 -0.0943 -0.4914
 8034SOL    HW125265   3.033   8.084   7.353 -3.8269 -0.2838 -0.6241
 8034SOL    HW225266   3.005   8.109   7.206 -1.4581 -1.4860 -1.3321
 8035SOL     OW25267   1.271   1.508   4.106  0.2585 -0.5373  0.1459
 8035SOL    HW125268   1.247   1.415   4.111 -0.9486 -0.3672 -1.8045
 8035SOL    HW225269   1.188   1.554   4.098  0.9171  0.5896 -0.4529
 8036SOL     OW25270   0.677   4.671   1.053  0.2981 -0.5282  0.2161
 8036SOL    HW125271   0.633   4.744   1.010  1.7841 -0.5490 -1.4580
 8036SOL    HW225272   0.647   4.675   1.143 -1.3091  0.8356 -0.3208
 8037SOL     OW25273   7.193   8.679   3.128 -0.1353 -0.1397 -0.2675
 8037SOL    HW125274   7.178   8.761   3.176 -0.5378 -0.7562  0.6908
 8037SOL    HW225275   7.282   8.688   3.093 -0.2096  0.7446 -0.2616
 8038SOL     OW25276   3.879   8.846   5.151 -0.0407  0.1748  0.1622
 8038SOL    HW125277   3.883   8.938   5.125  1.1880 -0.0875 -0.6891
 8038SOL    HW225278   3.886   8.847   5.246  0.8027  0.9404  0.1129
 8039SOL     OW25279   0.779   0.865   2.779 -0.1827 -0.5352 -0.1090
 8039SOL    HW125280   0.823   0.811   2.845 -0.3667 -0.6410 -0.0746
 8039SOL    HW225281   0.815   0.834   2.696  0.6482  0.1396 -0.0131
 8040SOL     OW25282   2.972   8.586   4.881  0.1544 -0.3063 -0.0107
 8040SOL    HW125283   2.913   8.512   4.899  0.3157 -0.0111  1.8677
 8040SOL    HW225284   3.059   8.546   4.875  0.5147 -0.1451  2.8254
 8041SOL     OW25285   7.220   4.003   5.739 -0.2426 -0.1270 -0.1100
 8041SOL    HW125286   7.303   4.008   5.786  0.4203 -0.2338 -1.2274
 8041SOL    HW225287   7.233   4.057   5.661 -1.0337 -0.5841 -0.5767
 8042SOL     OW25288   4.796   1.358   6.478 -0.2041  0.5166  0.5462
 8042SOL    HW125289   4.891   1.366   6.484  0.0184 -0.9011 -0.6963
 8042SOL    HW225290   4.776   1.273   6.517 -0.8747  0.4214  0.0101
 8043SOL     OW25291   4.298   2.158   6.967 -1.2597  0.3424 -0.1589
 8043SOL    HW125292   4.252   2.098   6.908 -1.3362  0.5836 -0.3489
 8043SOL    HW225293   4.349   2.101   7.025  0.1664  0.1326 -1.5387
 8044SOL     OW25294   6.200   5.771   1.716  0.0587 -0.2430  0.4836
 8044SOL    HW125295   6.216   5.858   1.678  1.7382 -0.9602 -0.5690
 8044SOL    HW225296   6.203   5.711   1.642  0.1672 -1.3422  1.3543
 8045SOL     OW25297   6.214   2.620   4.779 -0.0080 -0.0704 -0.0306
 8045SOL    HW125298   6.273   2.695   4.785  0.3512 -0.2058 -1.4209
 8045SOL    HW225299   6.211   2.585   4.868 -0.3966  1.7245  0.7275
 8046SOL     OW25300   7.966   8.761   1.534 -0.2308  0.0413 -0.1572
 8046SOL    HW125301   8.054   8.761   1.497  0.6176 -0.8380  1.6986
 8046SOL    HW225302   7.931   8.847   1.513  0.8889  0.2380 -1.3452
 8047SOL     OW25303   5.121   0.310   8.695  0.3376  0.0857 -0.4848
 8047SOL    HW125304   5.137   0.343   8.607 -1.6852  0.8313 -0.6282
 8047SOL    HW225305   5.080   0.224   8.681 -0.1303  0.2733 -0.2962
 8048SOL     OW25306   5.601   6.515   7.645 -0.6372 -0.9219 -0.1371
 8048SOL    HW125307   5.651   6.567   7.582 -0.9256  0.4165  0.6882
 8048SOL    HW225308   5.552   6.453   7.591 -1.0312  0.3172 -1.2806
 8049SOL     OW25309   8.695   6.957   4.796 -0.5735  0.0998  0.0724
 8049SOL    HW125310   8.716   6.865   4.810 -0.5000  0.0691 -0.2210
 8049SOL    HW225311   8.715   6.972   4.703 -1.4835  0.1692 -0.1199
 8050SOL     OW25312   4.725   7.391   0.663 -0.4552 -0.2056  0.2371
 8050SOL    HW125313   4.790   7.443   0.616  0.2069 -1.2288 -0.0205
 8050SOL    HW225314   4.662   7.455   0.696 -1.1069  0.5132 -2.2521
 8051SOL     OW25315   4.523   4.922   2.857 -0.2163  0.0599  0.6456
 8051SOL    HW125316   4.520   4.868   2.936  1.8017  0.2737  0.9333
 8051SOL    HW225317   4.446   4.895   2.807 -1.4060 -0.2844  2.5274
 8052SOL     OW25318   3.127   8.320   7.028 -0.3926  0.3427  0.4757
 8052SOL    HW125319   3.199   8.269   7.065  0.0483  0.8291  0.2865
 8052SOL    HW225320   3.049   8.287   7.074 -0.1877 -0.8528  0.0015
 8053SOL     OW25321   8.393   3.341   4.493 -0.1523  0.6333 -0.2037
 8053SOL    HW125322   8.438   3.420   4.522  0.3884  0.9003 -1.6542
 8053SOL    HW225323   8.324   3.372   4.435 -1.0655  0.1192  0.5733
 8054SOL     OW25324   2.539   6.109   7.095  0.3819  0.5080  0.0898
 8054SOL    HW125325   2.484   6.047   7.048  1.8485  0.2628 -1.4024
 8054SOL    HW225326   2.597   6.054   7.148  1.3627  0.5784 -0.8706
 8055SOL     OW25327   5.377   1.189   0.332 -0.1459  0.0818  0.7157
 8055SOL    HW125328   5.374   1.115   0.272  1.4944  1.5687 -1.3251
 8055SOL    HW225329   5.405   1.150   0.415 -2.0929 -1.9602  0.5169
 8056SOL     OW25330   3.517   6.163   5.378 -0.1057 -0.1023  0.1807
 8056SOL    HW125331   3.441   6.209   5.413 -0.3965 -0.5937  0.2138
 8056SOL    HW225332   3.556   6.224   5.316 -0.6397  0.0818  0.0195
 8057SOL     OW25333   3.358   1.008   8.517 -0.0441 -0.5386 -0.1411
 8057SOL    HW125334   3.412   0.986   8.593 -0.0400 -0.3946 -0.1016
 8057SOL    HW225335   3.275   1.038   8.555  0.6519  1.4937 -0.1086
 8058SOL     OW25336   3.943   2.488   0.649  0.1672  0.4539 -0.0613
 8058SOL    HW125337   3.888   2.480   0.727 -0.1395  0.6726 -0.2509
 8058SOL    HW225338   3.885   2.527   0.583  0.9921  2.2610  0.2098
 8059SOL     OW25339   2.919   5.862   6.716 -0.4576 -0.5997  0.0395
 8059SOL    HW125340   2.941   5.939   6.767 -0.5393 -1.3757  1.2910
 8059SOL    HW225341   2.944   5.884   6.626 -1.7018  1.3520  0.1202
 8060SOL     OW25342   6.853   7.759   2.852 -0.0514 -0.0242 -0.1788
 8060SOL    HW125343   6.831   7.669   2.829 -1.9158  0.7547 -1.7370
 8060SOL    HW225344   6.932   7.778   2.801  2.1239 -1.6052  2.3788
 8061SOL     OW25345   0.401   3.379   0.047 -0.0592  0.3433 -0.6781
 8061SOL    HW125346   0.336   3.442   0.016 -1.0412  0.0900  0.7794
 8061SOL    HW225347   0.388   3.302  -0.009 -1.0880  0.2590 -0.3252
 8062SOL     OW25348   0.473   0.348   0.902  0.6300  0.0458 -0.1545
 8062SOL    HW125349   0.387   0.316   0.876  0.4547  2.0665 -2.3732
 8062SOL    HW225350   0.532   0.320   0.832  1.2247  1.0924 -0.0952
 8063SOL     OW25351   4.867   6.263   4.505  0.5789  0.0884 -0.1494
 8063SOL    HW125352   4.802   6.218   4.559  0.3432 -0.6872 -1.0522
 8063SOL    HW225353   4.949   6.255   4.554  0.2031  0.1710  0.5044
 8064SOL     OW25354   0.877   5.686   5.302  0.2109 -0.1374  0.0267
 8064SOL    HW125355   0.855   5.593   5.291 -0.0309 -0.0364 -0.3952
 8064SOL    HW225356   0.911   5.692   5.391 -3.2872 -0.0001  1.5513
 8065SOL     OW25357   2.363   3.100   1.953  0.2770  0.0196  1.0467
 8065SOL    HW125358   2.277   3.102   1.911  0.3228 -1.1517  0.8735
 8065SOL    HW225359   2.417   3.046   1.895  0.5893 -0.8657  2.1370
 8066SOL     OW25360   3.869   2.933   8.407 -0.2096 -0.1182 -0.0167
 8066SOL    HW125361   3.857   3.003   8.471 -1.6745 -1.2863  1.0560
 8066SOL    HW225362   3.785   2.927   8.361 -0.0246 -0.9764 -0.2689
 8067SOL     OW25363   5.134   1.296   2.753  0.3078  0.0711 -0.0898
 8067SOL    HW125364   5.145   1.372   2.810 -0.4674  0.2423 -0.1609
 8067SOL    HW225365   5.040   1.281   2.751  0.4651 -1.0278  0.0965
 8068SOL     OW25366   8.348   2.101   2.441  0.5268 -0.2550 -0.2382
 8068SOL    HW125367   8.294   2.173   2.407 -0.2398 -0.5365  0.3559
 8068SOL    HW225368   8.284   2.037   2.473  1.2126 -1.0287 -0.4110
 8069SOL     OW25369   7.117   0.264   0.635  0.3819 -0.0750  0.7292
 8069SOL    HW125370   7.206   0.295   0.620  0.7967 -0.5822  1.9689
 8069SOL    HW225371   7.108   0.264   0.730 -1.4600  1.3515  0.6013
 8070SOL     OW25372   0.026   4.955   2.014  0.2675 -0.0409  0.2156
 8070SOL    HW125373   0.007   5.035   1.966  0.4753 -0.4260 -0.5229
 8070SOL    HW225374   0.025   4.886   1.947  0.8824 -0.5403  0.7079
 8071SOL     OW25375   6.295   1.574   8.399  0.1078  0.2777  0.0716
 8071SOL    HW125376   6.367   1.516   8.376  1.0062  1.1935  0.5267
 8071SOL    HW225377   6.264   1.541   8.484  0.6263  0.4653  0.3359
 8072SOL     OW25378   4.767   7.186   5.988  0.1222 -0.4932  0.2408
 8072SOL    HW125379   4.776   7.164   5.896 -1.5070 -0.0192 -0.0700
 8072SOL    HW225380   4.718   7.113   6.026  4.0646 -2.6579  1.6757
 8073SOL     OW25381   7.736   2.284   6.557 -0.5935 -0.1273 -0.1594
 8073SOL    HW125382   7.687   2.278   6.639  0.3330  0.7029  0.4865
 8073SOL    HW225383   7.772   2.373   6.556 -0.4529 -0.1705 -1.3939
 8074SOL     OW25384   7.889   8.519   7.041 -0.4580  0.1211 -0.1142
 8074SOL    HW125385   7.861   8.568   6.963 -1.1721  1.7229  1.0822
 8074SOL    HW225386   7.807   8.501   7.088  0.0809  0.5828  1.0382
 8075SOL     OW25387   7.091   1.349   5.449 -0.4173 -0.5589  0.0969
 8075SOL    HW125388   7.042   1.428   5.472  1.5541  0.9661 -0.6902
 8075SOL    HW225389   7.064   1.285   5.515 -2.7774  0.4360  0.1964
 8076SOL     OW25390   0.060   3.136   6.726 -0.1335 -0.2422 -0.2687
 8076SOL    HW125391   0.033   3.194   6.655 -2.2004 -1.1717 -0.3029
 8076SOL    HW225392   0.126   3.079   6.686 -0.3135  0.0945 -1.0650
 8077SOL     OW25393   1.450   8.561   6.023  0.3134  0.1566  0.2712
 8077SOL    HW125394   1.539   8.526   6.024  1.1828  2.1845 -0.3115
 8077SOL    HW225395   1.460   8.651   5.991 -1.8117  0.8230  1.2736
 8078SOL     OW25396   3.732   4.936   4.246  0.1626  0.0234 -0.0482
 8078SOL    HW125397   3.691   4.986   4.175  0.3060 -0.2610 -0.3345
 8078SOL    HW225398   3.724   4.993   4.322 -0.6517  0.0309 -0.1223
 8079SOL     OW25399   0.181   6.005   3.723  0.2830  0.3677 -0.1419
 8079SOL    HW125400   0.112   5.962   3.673  0.3440 -0.1753  0.2210
 8079SOL    HW225401   0.166   5.977   3.814  0.9277  0.3049 -0.0463
 8080SOL     OW25402   4.297   0.955   7.704 -0.3985 -0.3999 -0.4016
 8080SOL    HW125403   4.314   0.990   7.792  0.1557 -1.2417 -0.1577
 8080SOL    HW225404   4.300   1.032   7.647  0.8248 -0.0297  0.1159
 8081SOL     OW25405   8.163   8.240   3.575  0.2578 -0.4561 -0.2197
 8081SOL    HW125406   8.110   8.161   3.562 -2.1474  1.0695 -0.1923
 8081SOL    HW225407   8.173   8.246   3.670  1.5417 -1.3517 -0.2669
 8082SOL     OW25408   8.429   5.462   0.560  0.3146  0.4600  0.0794
 8082SOL    HW125409   8.469   5.549   0.567  0.3304  0.4208  0.4588
 8082SOL    HW225410   8.481   5.418   0.492  1.4505  0.1140  1.1449
 8083SOL     OW25411   7.045   7.942   3.964 -0.6307  0.1459 -0.5407
 8083SOL    HW125412   7.031   7.853   3.996 -2.7393  0.2550 -1.0289
 8083SOL    HW225413   7.031   7.935   3.869 -1.3275  1.0644 -0.5177
 8084SOL     OW25414   4.565   2.414   3.520  0.2336  0.0342 -0.0479
 8084SOL    HW125415   4.570   2.357   3.443  0.1568 -1.0704  0.7338
 8084SOL    HW225416   4.538   2.355   3.591  0.1955  1.0505  0.8014
 8085SOL     OW25417   3.858   8.724   8.375  0.1376  0.1239  0.4536
 8085SOL    HW125418   3.855   8.731   8.471  0.8407  0.3258  0.4654
 8085SOL    HW225419   3.917   8.795   8.348  1.6822 -1.2736  0.0278
 8086SOL     OW25420   3.658   8.144   5.572 -0.5133 -0.1518  0.3269
 8086SOL    HW125421   3.723   8.075   5.585 -0.5495 -0.3484 -0.4765
 8086SOL    HW225422   3.697   8.221   5.612 -0.2697 -0.5271  0.8312
 8087SOL     OW25423   2.893   7.495   7.530 -0.0047 -0.9114  0.1797
 8087SOL    HW125424   2.981   7.468   7.501  0.6185  0.0458  1.1310
 8087SOL    HW225425   2.873   7.435   7.602  0.7429  0.1219  1.2900
 8088SOL     OW25426   4.147   2.568   6.526 -0.4748  0.5289  0.8192
 8088SOL    HW125427   4.065   2.522   6.544 -1.9637  1.3040 -2.9222
 8088SOL    HW225428   4.144   2.645   6.582 -1.6373 -0.1127  1.6989
 8089SOL     OW25429   5.702   4.405   2.162 -0.9031  0.3726 -0.2943
 8089SOL    HW125430   5.764   4.424   2.091 -0.9160  1.3868 -0.0502
 8089SOL    HW225431   5.721   4.314   2.187  1.2968  0.9986  0.5432
 8090SOL     OW25432   7.299   3.220   2.521 -0.5217 -0.0489 -0.5497
 8090SOL    HW125433   7.266   3.251   2.437 -1.7654 -0.2173 -0.1536
 8090SOL    HW225434   7.260   3.133   2.531 -1.3871  0.4501  0.7271
 8091SOL     OW25435   7.268   5.456   6.349  0.0088 -0.6070  0.0578
 8091SOL    HW125436   7.292   5.369   6.380  0.2788 -0.5769 -0.0591
 8091SOL    HW225437   7.284   5.514   6.423 -0.9543 -0.7638  0.4071
 8092SOL     OW25438   7.610   7.907   1.501 -0.1836 -0.7222  0.2910
 8092SOL    HW125439   7.609   7.838   1.567 -0.2381 -0.3339  0.7076
 8092SOL    HW225440   7.685   7.887   1.446 -1.0663 -1.9527 -0.5111
 8093SOL     OW25441   0.194   2.027   8.043  0.1204 -0.3398  0.1383
 8093SOL    HW125442   0.116   2.069   8.079  1.4014  0.6986  1.8730
 8093SOL    HW225443   0.222   2.085   7.972 -0.8347 -0.8900 -0.7095
 8094SOL     OW25444   7.868   2.846   4.856  0.1140  0.1081 -0.6215
 8094SOL    HW125445   7.918   2.900   4.917 -0.7716  2.0784 -1.5652
 8094SOL    HW225446   7.778   2.876   4.867 -0.1508  0.0240 -2.3955
 8095SOL     OW25447   1.565   2.399   5.993  0.3564  0.2564  0.4023
 8095SOL    HW125448   1.487   2.453   6.006 -2.5066 -2.7239 -2.6529
 8095SOL    HW225449   1.613   2.443   5.923 -0.4129  0.3207 -0.0863
 8096SOL     OW25450   0.885   0.221   4.102  0.7800 -0.0510  0.0478
 8096SOL    HW125451   0.910   0.311   4.123  0.2266  0.2726 -0.6341
 8096SOL    HW225452   0.790   0.224   4.094  0.6730 -0.8806  0.8531
 8097SOL     OW25453   3.261   6.507   2.239 -0.0750  0.4544 -0.1718
 8097SOL    HW125454   3.180   6.471   2.204  0.1257 -0.5581  0.3789
 8097SOL    HW225455   3.327   6.487   2.172  0.3137 -1.5006  0.7441
 8098SOL     OW25456   3.406   8.213   1.001  0.1181  0.0056  0.1689
 8098SOL    HW125457   3.431   8.190   1.090 -1.2376 -0.8031  0.3608
 8098SOL    HW225458   3.440   8.142   0.947 -0.3318 -0.2540  0.2258
 8099SOL     OW25459   2.336   5.587   1.551  0.2081  0.3681 -0.6494
 8099SOL    HW125460   2.428   5.576   1.527  0.5943 -0.2027  0.9659
 8099SOL    HW225461   2.293   5.613   1.470  1.7560  0.4544 -1.4802
 8100SOL     OW25462   2.337   7.263   7.860  0.8185 -0.2156  0.5092
 8100SOL    HW125463   2.394   7.193   7.829 -1.3783 -1.6712 -0.5132
 8100SOL    HW225464   2.267   7.218   7.908 -0.4865  1.2846  0.1262
 8101SOL     OW25465   1.125   7.014   1.696 -0.3277  0.3867 -0.1470
 8101SOL    HW125466   1.211   7.006   1.737 -1.2759 -0.8634  1.7557
 8101SOL    HW225467   1.103   7.107   1.703  0.9189  0.7469 -0.8291
 8102SOL     OW25468   7.610   1.006   4.926  0.1022  0.3985 -0.0715
 8102SOL    HW125469   7.629   0.923   4.882  0.6980 -0.6787  2.0538
 8102SOL    HW225470   7.648   1.073   4.869  1.1513 -0.9250 -1.0062
 8103SOL     OW25471   0.117   0.319   3.335 -0.0115  0.2448 -0.1243
 8103SOL    HW125472   0.079   0.289   3.253  0.5546  1.0134 -0.6796
 8103SOL    HW225473   0.114   0.242   3.392 -1.4521  0.0073 -0.4674
 8104SOL     OW25474   3.660   0.448   1.122 -0.1603 -0.2891 -0.0579
 8104SOL    HW125475   3.651   0.377   1.059  1.2756  0.0814 -0.7377
 8104SOL    HW225476   3.737   0.497   1.092 -1.0852  1.5352  0.4110
 8105SOL     OW25477   6.417   4.869   4.573  0.9771  0.1537  0.6221
 8105SOL    HW125478   6.486   4.934   4.587  0.6678  0.1234  2.7062
 8105SOL    HW225479   6.459   4.785   4.593  1.1288 -0.2316 -1.1676
 8106SOL     OW25480   0.264   6.182   4.693  0.8414 -0.2417  0.3912
 8106SOL    HW125481   0.282   6.249   4.627 -0.9151 -1.1332 -1.0750
 8106SOL    HW225482   0.336   6.119   4.683  0.3159 -0.6436 -1.0924
 8107SOL     OW25483   3.829   2.382   1.719 -0.1068  0.7259  0.0380
 8107SOL    HW125484   3.782   2.464   1.733 -0.9549  0.1960  0.3582
 8107SOL    HW225485   3.805   2.327   1.794  0.2113  0.0740 -0.3263
 8108SOL     OW25486   5.195   4.741   4.059 -0.1156  0.4389 -0.1602
 8108SOL    HW125487   5.212   4.697   4.142 -1.3661  1.6517  0.7884
 8108SOL    HW225488   5.219   4.832   4.075  0.2337  0.5717 -1.3489
 8109SOL     OW25489   3.963   2.711   8.535 -0.1887 -0.1720 -0.0325
 8109SOL    HW125490   3.921   2.786   8.492  0.1903  0.8236  1.2588
 8109SOL    HW225491   4.057   2.724   8.517 -0.2046 -0.9254 -0.6841
 8110SOL     OW25492   4.672   4.884   3.728 -0.8150 -1.0284 -0.3362
 8110SOL    HW125493   4.635   4.970   3.711  0.8315 -0.2451 -0.1671
 8110SOL    HW225494   4.657   4.869   3.822  0.6342  0.0150  0.1119
 8111SOL     OW25495   7.130   8.116   5.560 -0.2611  0.2450  0.0363
 8111SOL    HW125496   7.213   8.164   5.560  0.7795 -1.3010 -2.9564
 8111SOL    HW225497   7.090   8.137   5.644  3.3686  0.6995  1.8337
 8112SOL     OW25498   8.579   3.009   0.311 -0.0563  0.7593 -0.0124
 8112SOL    HW125499   8.649   2.950   0.337 -1.1877 -0.2115  0.8937
 8112SOL    HW225500   8.595   3.089   0.361 -0.2407  0.1323  1.0655
 8113SOL     OW25501   4.163   5.564   1.165  0.5306  0.3153 -0.0991
 8113SOL    HW125502   4.170   5.470   1.146 -0.1889 -0.3217  2.3965
 8113SOL    HW225503   4.070   5.583   1.157  0.7964  1.1299 -1.6584
 8114SOL     OW25504   3.335   1.245   3.337 -0.4951  0.0691 -0.1381
 8114SOL    HW125505   3.349   1.234   3.431  0.8472 -0.5868 -0.3822
 8114SOL    HW225506   3.385   1.174   3.297 -0.6650  0.6129 -1.3785
 8115SOL     OW25507   6.996   5.237   4.221  0.5129  0.1761  0.2006
 8115SOL    HW125508   7.056   5.165   4.236  0.2750 -0.0815 -0.0564
 8115SOL    HW225509   7.033   5.310   4.269  0.4666 -0.2621  0.9149
 8116SOL     OW25510   3.399   8.766   6.446  0.0335  0.3267  0.3392
 8116SOL    HW125511   3.360   8.835   6.392 -1.4115 -1.5331 -1.1393
 8116SOL    HW225512   3.483   8.802   6.474 -0.9487  2.9480  0.2631
 8117SOL     OW25513   1.898   7.350   0.965 -0.4657 -0.7358  0.1161
 8117SOL    HW125514   1.911   7.266   0.922  1.2879  0.6020 -2.1666
 8117SOL    HW225515   1.980   7.366   1.013 -0.6659 -0.2074  0.2969
 8118SOL     OW25516   1.764   4.633   7.908  0.5190  0.2330  0.1530
 8118SOL    HW125517   1.777   4.542   7.880 -1.1430 -0.3788  1.2225
 8118SOL    HW225518   1.793   4.685   7.833  0.4443 -1.2171 -0.9316
 8119SOL     OW25519   6.068   3.972   1.220  0.4495  0.3445 -0.0604
 8119SOL    HW125520   6.059   4.020   1.137 -1.1437 -0.8892 -0.6388
 8119SOL    HW225521   6.023   3.890   1.205  1.4646 -0.5555  1.5606
 8120SOL     OW25522   8.765   7.487   7.103 -0.0333 -0.1517 -0.3480
 8120SOL    HW125523   8.710   7.425   7.056 -0.4271  0.7280 -1.0675
 8120SOL    HW225524   8.788   7.441   7.184 -2.1257 -0.4040  0.1567
 8121SOL     OW25525   8.634   7.597   2.289 -0.5470 -0.2157  0.3176
 8121SOL    HW125526   8.621   7.619   2.197  0.2882  0.1566  0.2784
 8121SOL    HW225527   8.551   7.557   2.316 -1.5637  1.5191 -0.0541
 8122SOL     OW25528   2.935   4.990   5.153 -0.2503  0.5107  0.2088
 8122SOL    HW125529   2.873   4.965   5.084  1.0573 -1.7197 -0.2863
 8122SOL    HW225530   2.893   4.964   5.235 -1.1176  1.6459  0.1430
 8123SOL     OW25531   1.221   8.283   5.261 -0.1056  0.2173 -0.8763
 8123SOL    HW125532   1.199   8.350   5.326 -1.5459 -1.1478  0.1174
 8123SOL    HW225533   1.280   8.223   5.308 -0.1747 -0.1194 -1.2153
 8124SOL     OW25534   6.379   8.699   2.986 -0.0337 -0.1140  0.0504
 8124SOL    HW125535   6.337   8.619   2.954 -0.7527  0.6878 -1.0875
 8124SOL    HW225536   6.379   8.690   3.081 -0.6052 -1.2181 -0.0431
 8125SOL     OW25537   0.542   5.994   0.704 -0.2006  0.0493 -0.2015
 8125SOL    HW125538   0.585   6.070   0.742 -1.1037  0.9547 -0.9372
 8125SOL    HW225539   0.555   6.003   0.610  0.5934 -1.2919 -0.2532
 8126SOL     OW25540   5.651   7.636   3.415  0.2186 -0.1795  0.4970
 8126SOL    HW125541   5.679   7.546   3.427  1.6593  0.0555 -0.7465
 8126SOL    HW225542   5.725   7.689   3.445  0.7193  0.4854 -1.7157
 8127SOL     OW25543   6.145   3.353   2.975 -0.5625  0.0361 -0.1447
 8127SOL    HW125544   6.054   3.338   3.000 -0.5022 -0.8447 -0.4056
 8127SOL    HW225545   6.184   3.265   2.971 -0.2801  0.2010 -2.1837
 8128SOL     OW25546   0.800   6.814   5.340 -0.3108 -0.6144  0.0755
 8128SOL    HW125547   0.823   6.816   5.247  1.5978 -0.8501  0.4935
 8128SOL    HW225548   0.719   6.763   5.344  1.4699 -3.8377 -1.1495
 8129SOL     OW25549   4.443   6.297   1.547 -1.0166  0.1209 -0.1818
 8129SOL    HW125550   4.368   6.333   1.595 -0.5899  0.7479  0.0201
 8129SOL    HW225551   4.445   6.346   1.465 -1.5218 -0.6993 -0.7062
 8130SOL     OW25552   2.142   8.182   4.474  0.0534  0.0933 -0.6709
 8130SOL    HW125553   2.196   8.261   4.474 -0.8597  0.7715  1.0966
 8130SOL    HW225554   2.104   8.179   4.562 -0.9134 -1.6488 -1.1062
 8131SOL     OW25555   5.779   8.335   8.847  0.6648  0.1303 -0.0770
 8131SOL    HW125556   5.757   8.410   8.793  0.1666 -0.7159 -1.0904
 8131SOL    HW225557   5.854   8.364   8.899  0.8043  1.1496 -0.8180
 8132SOL     OW25558   2.817   4.587   5.150 -0.3340 -0.2749  0.2119
 8132SOL    HW125559   2.738   4.638   5.128 -1.2206 -1.3964  0.6842
 8132SOL    HW225560   2.798   4.499   5.118  0.8886 -0.4872  0.0412
 8133SOL     OW25561   3.319   6.702   6.536  0.2837 -0.0282 -0.9354
 8133SOL    HW125562   3.337   6.795   6.542  0.9636 -0.2539  3.5048
 8133SOL    HW225563   3.224   6.695   6.531 -0.0865  1.0105  2.4834
 8134SOL     OW25564   5.480   6.163   5.237 -0.0332 -0.5221  0.7788
 8134SOL    HW125565   5.576   6.156   5.238  0.0255  0.1461  0.3253
 8134SOL    HW225566   5.455   6.159   5.329  0.3208 -1.9638  0.8501
 8135SOL     OW25567   3.712   1.961   5.082 -0.7419  0.2540 -0.1769
 8135SOL    HW125568   3.754   1.940   5.165 -0.1159  0.7353 -0.3632
 8135SOL    HW225569   3.781   1.950   5.016 -1.1782  0.0684 -0.6125
 8136SOL     OW25570   3.740   0.419   0.755  0.3479  0.2352 -0.2187
 8136SOL    HW125571   3.673   0.450   0.816 -0.4355  0.7551 -1.3118
 8136SOL    HW225572   3.745   0.487   0.688  0.8121 -0.5674 -1.0204
 8137SOL     OW25573   7.096   4.479   7.633  0.0274 -0.7020 -0.5729
 8137SOL    HW125574   7.063   4.395   7.665 -0.5077 -0.4224 -0.3839
 8137SOL    HW225575   7.088   4.473   7.538  1.5179 -1.4926 -0.6804
 8138SOL     OW25576   4.513   6.666   0.005 -0.3071 -0.0926  0.4182
 8138SOL    HW125577   4.422   6.651   0.030  0.4288  0.0425  3.6157
 8138SOL    HW225578   4.565   6.628   0.077  2.0716  1.7595 -0.1759
 8139SOL     OW25579   1.933   7.506   4.575 -0.3554  0.0331  0.6852
 8139SOL    HW125580   1.892   7.520   4.490 -1.3197  0.0317  1.1378
 8139SOL    HW225581   1.870   7.452   4.624  0.7713 -1.1257  0.9349
 8140SOL     OW25582   0.159   6.619   7.094 -0.0215 -0.3470 -0.4125
 8140SOL    HW125583   0.240   6.640   7.047 -0.5114  2.0155 -0.3149
 8140SOL    HW225584   0.182   6.630   7.186  0.2943 -2.6583 -0.1400
 8141SOL     OW25585   6.151   1.060   8.838 -0.2806 -0.1398 -0.0141
 8141SOL    HW125586   6.160   1.077   8.744 -0.1852  1.7436  0.2871
 8141SOL    HW225587   6.058   1.043   8.851 -0.1722 -1.2178 -0.5423
 8142SOL     OW25588   6.341   7.372   2.197 -0.5637  0.4931 -0.0595
 8142SOL    HW125589   6.405   7.350   2.265 -0.5214  0.2841 -0.1666
 8142SOL    HW225590   6.281   7.298   2.195 -1.9466  1.5177  1.3574
 8143SOL     OW25591   8.640   2.906   0.933 -0.0564 -0.4160  0.3063
 8143SOL    HW125592   8.622   2.929   1.024 -1.4160  0.0614 -0.0646
 8143SOL    HW225593   8.734   2.888   0.932 -0.1151 -1.0572  1.9334
 8144SOL     OW25594   1.119   7.626   0.801 -0.0492  0.3256  0.4690
 8144SOL    HW125595   1.034   7.651   0.765 -0.8576 -2.1016  0.4835
 8144SOL    HW225596   1.181   7.640   0.729 -0.5867  1.3005  0.1801
 8145SOL     OW25597   1.012   3.772   5.199  0.3190  0.3974  0.3966
 8145SOL    HW125598   1.012   3.780   5.103  0.3241  1.0614  0.4454
 8145SOL    HW225599   1.030   3.861   5.230  0.5453  0.1408  1.0140
 8146SOL     OW25600   8.051   6.029   1.042 -0.3384  0.0052  0.3372
 8146SOL    HW125601   8.040   6.065   0.953  0.0116 -1.8089 -0.4812
 8146SOL    HW225602   8.039   6.105   1.099 -1.5431  1.0629 -1.1995
 8147SOL     OW25603   8.569   2.843   3.649  0.4607 -0.2887  0.2579
 8147SOL    HW125604   8.530   2.878   3.729 -2.5906 -2.9107  0.1345
 8147SOL    HW225605   8.631   2.776   3.679  2.0404  1.1708  0.3915
 8148SOL     OW25606   7.259   4.113   7.515  0.1732 -0.2421 -0.1797
 8148SOL    HW125607   7.293   4.195   7.481  0.7493 -1.8096 -3.7526
 8148SOL    HW225608   7.334   4.055   7.518 -0.4012 -0.9795  1.4557
 8149SOL     OW25609   6.738   5.242   7.306 -0.0759 -0.1055  0.4775
 8149SOL    HW125610   6.760   5.156   7.270 -1.5570 -0.5100  0.4940
 8149SOL    HW225611   6.684   5.283   7.238 -1.2950 -0.1096  1.4256
 8150SOL     OW25612   7.917   2.155   2.876 -0.0942  0.4989  0.3658
 8150SOL    HW125613   7.840   2.145   2.821  0.6142  1.0668 -0.7498
 8150SOL    HW225614   7.891   2.218   2.943 -0.2512  1.5530 -0.6710
 8151SOL     OW25615   5.255   5.765   8.139 -0.4264  0.3321  0.5375
 8151SOL    HW125616   5.332   5.811   8.172  0.7165 -0.1060 -1.3877
 8151SOL    HW225617   5.264   5.768   8.044 -1.6662 -1.6141  0.3061
 8152SOL     OW25618   0.896   1.714   5.552  0.3367  0.3440 -0.3943
 8152SOL    HW125619   0.953   1.742   5.624  1.1968  1.2150 -1.3611
 8152SOL    HW225620   0.807   1.723   5.586  0.6624  2.3544  0.0379
 8153SOL     OW25621   0.869   6.538   3.910  0.1321 -0.2122 -0.2047
 8153SOL    HW125622   0.895   6.470   3.848  0.1254 -0.6319  0.2572
 8153SOL    HW225623   0.855   6.616   3.855 -1.1824 -0.9097 -0.8992
 8154SOL     OW25624   2.207   0.888   8.197 -0.0134  0.4445 -0.2294
 8154SOL    HW125625   2.127   0.865   8.150 -0.4010  0.7101  0.2915
 8154SOL    HW225626   2.264   0.811   8.186 -1.6374 -1.2592  2.3023
 8155SOL     OW25627   0.862   0.712   3.712  0.1190 -0.0720 -0.1695
 8155SOL    HW125628   0.933   0.686   3.770  0.7314  1.3409 -0.2476
 8155SOL    HW225629   0.895   0.695   3.624  1.2616  2.4796 -0.3286
 8156SOL     OW25630   5.957   6.863   5.187 -0.1630 -0.2636  0.0432
 8156SOL    HW125631   6.046   6.862   5.150 -0.2968  0.1476 -0.2902
 8156SOL    HW225632   5.967   6.906   5.272  0.0386 -0.6642  0.2288
 8157SOL     OW25633   4.258   8.332   2.936  0.2288 -0.4355 -0.4365
 8157SOL    HW125634   4.195   8.277   2.984 -0.3420 -0.9720 -1.7585
 8157SOL    HW225635   4.230   8.421   2.955  1.8425 -0.4473  2.6640
 8158SOL     OW25636   4.179   0.293   0.142 -0.5004 -0.5234 -0.1606
 8158SOL    HW125637   4.239   0.298   0.068 -0.1732 -0.1823  0.1240
 8158SOL    HW225638   4.104   0.345   0.116 -0.1014  0.1474  0.0049
 8159SOL     OW25639   2.241   2.900   5.435 -0.3514 -0.3154 -0.2278
 8159SOL    HW125640   2.323   2.896   5.485  0.4448  0.4342 -1.4133
 8159SOL    HW225641   2.244   2.823   5.378  1.0433  1.2353 -2.4193
 8160SOL     OW25642   3.381   3.209   6.833  0.0481 -0.4287  0.4696
 8160SOL    HW125643   3.363   3.148   6.905 -1.6658  0.3160  0.7408
 8160SOL    HW225644   3.365   3.159   6.754 -0.0162 -0.7099  0.6582
 8161SOL     OW25645   5.852   6.728   7.701  0.1231 -0.0379 -0.2360
 8161SOL    HW125646   5.770   6.770   7.729  0.1648 -0.7193  0.9807
 8161SOL    HW225647   5.824   6.660   7.640 -0.2077 -0.1531  0.0409
 8162SOL     OW25648   2.606   8.654   7.782 -0.4236  0.2180 -0.3192
 8162SOL    HW125649   2.541   8.630   7.847 -0.1436  2.1482  0.7550
 8162SOL    HW225650   2.684   8.602   7.805 -0.6964  0.0158  0.1434
 8163SOL     OW25651   7.102   4.784   2.051  0.3981  0.5355 -0.0422
 8163SOL    HW125652   7.048   4.750   1.980  0.1698  0.8962 -0.0442
 8163SOL    HW225653   7.162   4.712   2.072  1.8648  1.1096 -1.9729
 8164SOL     OW25654   1.671   3.760   6.440 -0.0968  0.3335 -0.0488
 8164SOL    HW125655   1.718   3.678   6.432  0.5979  0.7884 -0.7608
 8164SOL    HW225656   1.579   3.736   6.432  0.1165 -0.3402 -0.5227
 8165SOL     OW25657   6.834   3.933   1.456  0.0297 -0.3213 -0.3088
 8165SOL    HW125658   6.751   3.963   1.493 -1.2062 -0.7093 -2.5838
 8165SOL    HW225659   6.858   3.858   1.511 -0.8749  0.0580  0.6525
 8166SOL     OW25660   3.779   4.525   5.363 -0.2614  0.2423 -0.2663
 8166SOL    HW125661   3.866   4.563   5.354 -0.1167 -0.1439 -0.5372
 8166SOL    HW225662   3.788   4.458   5.431 -0.1804 -0.2524 -0.7484
 8167SOL     OW25663   5.675   8.288   8.120  0.1031 -0.5921  0.1636
 8167SOL    HW125664   5.585   8.318   8.132  0.5710  1.5466 -1.0450
 8167SOL    HW225665   5.667   8.202   8.080 -1.4262 -0.2355 -0.3526
 8168SOL     OW25666   7.601   7.660   3.139  0.0817 -0.4014  0.0306
 8168SOL    HW125667   7.617   7.700   3.054 -2.7223  1.4995  0.2828
 8168SOL    HW225668   7.516   7.618   3.131 -0.7471  0.7188  2.1521
 8169SOL     OW25669   0.823   1.585   4.561 -0.7952  0.6653  0.1274
 8169SOL    HW125670   0.841   1.537   4.641 -1.9436 -0.0812 -0.0294
 8169SOL    HW225671   0.760   1.530   4.513  2.1350 -0.4693 -2.7794
 8170SOL     OW25672   0.645   1.469   3.572  0.2319 -0.1142  0.4513
 8170SOL    HW125673   0.720   1.410   3.578 -0.4365 -1.0562 -0.0835
 8170SOL    HW225674   0.601   1.462   3.656  0.3859 -0.0585  0.5362
 8171SOL     OW25675   5.517   5.671   6.018 -0.6896 -0.5626  0.3228
 8171SOL    HW125676   5.545   5.718   5.939  0.7635 -0.6194  0.7791
 8171SOL    HW225677   5.569   5.591   6.018 -0.9176 -0.7182  1.1694
 8172SOL     OW25678   1.765   5.494   8.449  0.0547  0.3147  0.7658
 8172SOL    HW125679   1.739   5.578   8.487 -0.2678  1.0938 -1.0565
 8172SOL    HW225680   1.842   5.514   8.396 -0.6135 -0.3138 -0.4939
 8173SOL     OW25681   4.119   3.126   5.759  0.4652 -0.4184 -0.0245
 8173SOL    HW125682   4.171   3.197   5.722 -0.0161  0.0083  0.0959
 8173SOL    HW225683   4.099   3.069   5.684 -1.1918  0.8635 -0.6462
 8174SOL     OW25684   7.915   1.522   5.380  0.2705  0.4688 -0.1933
 8174SOL    HW125685   7.986   1.542   5.318  0.3156  0.0565 -0.2785
 8174SOL    HW225686   7.918   1.427   5.390 -0.2294  0.4536 -0.1451
 8175SOL     OW25687   5.402   8.166   3.815  0.0574  0.7628 -0.1621
 8175SOL    HW125688   5.393   8.182   3.909 -1.7569  0.1126 -0.1722
 8175SOL    HW225689   5.385   8.072   3.806 -0.3622  0.9291 -1.1881
 8176SOL     OW25690   2.697   3.833   0.572 -0.5480 -0.1938 -0.2744
 8176SOL    HW125691   2.775   3.780   0.556  1.0634  2.0649 -0.3111
 8176SOL    HW225692   2.693   3.841   0.668 -0.2610  0.3717 -0.3106
 8177SOL     OW25693   3.189   4.583   5.682 -0.6193 -0.0388  0.0144
 8177SOL    HW125694   3.158   4.673   5.681 -0.4644  0.0228  0.6101
 8177SOL    HW225695   3.111   4.531   5.662 -1.0503  0.1386  1.1613
 8178SOL     OW25696   4.187   5.253   1.121  0.0829  0.0301 -0.0303
 8178SOL    HW125697   4.222   5.264   1.210  0.4056 -1.9265  0.1434
 8178SOL    HW225698   4.249   5.192   1.079 -0.3866  0.4677 -1.4140
 8179SOL     OW25699   2.574   0.566   5.012  0.2731  0.0967  0.3136
 8179SOL    HW125700   2.641   0.631   5.036  0.4656  0.3725 -0.9206
 8179SOL    HW225701   2.491   0.614   5.020  0.5083  1.0480 -2.1557
 8180SOL     OW25702   5.099   8.662   2.622  0.4455 -0.4011 -0.0879
 8180SOL    HW125703   5.108   8.567   2.618  0.7122 -0.3478 -0.9924
 8180SOL    HW225704   5.179   8.695   2.583  1.1465  0.2409  1.8021
 8181SOL     OW25705   2.422   1.356   2.918 -0.3302 -0.0383  0.1579
 8181SOL    HW125706   2.510   1.322   2.904 -0.4000 -0.1664  0.0284
 8181SOL    HW225707   2.385   1.367   2.830 -0.6218 -0.4638  0.2224
 8182SOL     OW25708   5.798   8.535   2.398  0.1635  0.1376  0.1530
 8182SOL    HW125709   5.746   8.544   2.318  0.0341  0.0485  0.2257
 8182SOL    HW225710   5.792   8.442   2.420 -1.2199  0.4435  1.2092
 8183SOL     OW25711   8.016   6.876   7.098 -0.2328 -0.6540 -0.0785
 8183SOL    HW125712   7.959   6.802   7.121 -0.5241 -0.2288  0.5952
 8183SOL    HW225713   7.961   6.933   7.046 -1.5174  1.3294  3.1603
 8184SOL     OW25714   6.618   2.870   8.280  0.0053  0.0887 -0.2611
 8184SOL    HW125715   6.648   2.780   8.263  0.4058  0.2885 -0.6311
 8184SOL    HW225716   6.691   2.925   8.252 -1.0197  0.6394 -2.0346
 8185SOL     OW25717   5.078   3.764   7.720  0.6536 -0.2799  0.3451
 8185SOL    HW125718   5.161   3.738   7.679  0.8463 -0.0037  0.5550
 8185SOL    HW225719   5.013   3.704   7.683  0.9892 -0.6548  0.3607
 8186SOL     OW25720   8.754   5.430   7.332  0.2800  0.3255  0.9140
 8186SOL    HW125721   8.702   5.411   7.409  0.8628  1.8405  1.7311
 8186SOL    HW225722   8.765   5.525   7.334 -2.2194  0.8927 -2.6705
 8187SOL     OW25723   6.462   2.672   6.702  1.2333  0.1281  0.5520
 8187SOL    HW125724   6.454   2.577   6.696  0.6691  0.2526 -1.2210
 8187SOL    HW225725   6.512   2.687   6.783  2.1039 -1.7008  0.4003
 8188SOL     OW25726   6.626   5.965   0.664 -0.2357 -0.2057  0.5153
 8188SOL    HW125727   6.614   5.974   0.569  1.3643 -0.5391  0.2484
 8188SOL    HW225728   6.543   5.930   0.696 -0.8501  0.0539 -0.7366
 8189SOL     OW25729   3.787   7.068   3.210 -0.1935 -1.0184  0.0368
 8189SOL    HW125730   3.725   7.141   3.206 -1.4647 -2.0887 -0.3136
 8189SOL    HW225731   3.838   7.085   3.288 -0.2345  0.4261 -0.2192
 8190SOL     OW25732   6.769   5.811   2.315  0.0745  0.0529  0.0990
 8190SOL    HW125733   6.849   5.759   2.316 -0.2762 -0.5117 -0.9599
 8190SOL    HW225734   6.795   5.895   2.355  1.1413 -0.1824 -0.0814
 8191SOL     OW25735   5.954   1.143   7.975 -0.1464 -0.0966  0.7250
 8191SOL    HW125736   5.906   1.215   8.017 -0.5781  0.7473 -1.1316
 8191SOL    HW225737   6.040   1.145   8.016 -0.1789  1.4341  0.7844
 8192SOL     OW25738   4.630   5.801   7.412  0.6081  0.4131  0.3220
 8192SOL    HW125739   4.621   5.738   7.341 -0.4946  1.6623 -0.6905
 8192SOL    HW225740   4.700   5.765   7.467  1.2021 -0.8010 -1.1535
 8193SOL     OW25741   5.079   3.835   4.667  0.1716 -0.1525 -0.4642
 8193SOL    HW125742   5.103   3.780   4.743 -0.5476  1.9162  1.3596
 8193SOL    HW225743   4.986   3.817   4.653  0.3125 -0.5601 -0.9118
 8194SOL     OW25744   0.980   6.662   4.455  0.2573 -0.1317  0.1432
 8194SOL    HW125745   1.061   6.700   4.490  0.6868 -2.3710  1.8371
 8194SOL    HW225746   1.010   6.595   4.393 -0.4138  0.7103 -1.1409
 8195SOL     OW25747   4.213   6.353   0.080  0.1320  0.1056 -0.1058
 8195SOL    HW125748   4.275   6.338   0.151  1.1122 -0.2039 -0.9985
 8195SOL    HW225749   4.185   6.266   0.053  0.5207  0.1710 -0.7391
 8196SOL     OW25750   1.478   6.797   2.578  0.3863 -0.0167  0.2227
 8196SOL    HW125751   1.500   6.704   2.576  0.6515  0.0022  1.4308
 8196SOL    HW225752   1.478   6.819   2.671 -0.0434  1.1078 -0.0332
 8197SOL     OW25753   3.348   4.735   7.539 -0.0820 -0.0640  0.1237
 8197SOL    HW125754   3.319   4.793   7.610 -0.9219 -0.9816  0.5493
 8197SOL    HW225755   3.280   4.743   7.472  1.2252  1.6165 -1.0974
 8198SOL     OW25756   3.675   5.966   3.762 -0.4117 -0.3118 -0.7426
 8198SOL    HW125757   3.661   6.054   3.727  1.4207  0.7682  1.0254
 8198SOL    HW225758   3.587   5.931   3.775 -1.2844  2.0152  0.2659
 8199SOL     OW25759   4.194   8.271   4.225  0.0161  0.5349 -0.0708
 8199SOL    HW125760   4.256   8.214   4.271  1.4668  1.6216 -0.6269
 8199SOL    HW225761   4.132   8.298   4.293  1.2886  0.9614  0.9638
 8200SOL     OW25762   3.719   8.152   3.950  0.4868  0.5474  0.3697
 8200SOL    HW125763   3.771   8.104   3.886  0.5889 -0.1083  0.9368
 8200SOL    HW225764   3.731   8.244   3.927 -0.4912  0.2909 -1.3503
 8201SOL     OW25765   0.880   6.793   0.306  0.8089 -0.9327 -0.0049
 8201SOL    HW125766   0.916   6.704   0.303 -0.4349 -1.4930  0.8392
 8201SOL    HW225767   0.791   6.784   0.270  0.1048 -0.3557  1.5050
 8202SOL     OW25768   3.236   3.086   5.338  0.1107 -0.5405  0.4633
 8202SOL    HW125769   3.326   3.117   5.343 -0.0811  0.4403 -1.3029
 8202SOL    HW225770   3.187   3.144   5.397  0.4636 -0.4000  0.6160
 8203SOL     OW25771   5.675   5.160   1.975 -0.3764 -0.0989  0.1930
 8203SOL    HW125772   5.770   5.173   1.970 -0.2244 -0.6141  1.3527
 8203SOL    HW225773   5.642   5.190   1.890  1.0031 -1.5279 -0.9035
 8204SOL     OW25774   4.763   4.693   6.049 -0.1377  0.3867  0.7650
 8204SOL    HW125775   4.818   4.712   6.124  0.3838  0.6016  0.3314
 8204SOL    HW225776   4.793   4.753   5.981 -0.7192  0.3141  0.4384
 8205SOL     OW25777   3.592   0.584   3.591 -0.0540 -0.2936  0.4795
 8205SOL    HW125778   3.604   0.645   3.518  2.1936  0.6235  1.5323
 8205SOL    HW225779   3.630   0.502   3.560 -0.3846 -0.3240  0.1369
 8206SOL     OW25780   1.961   3.321   6.645  0.3781 -0.4096  0.3015
 8206SOL    HW125781   1.900   3.375   6.595  0.2230 -1.1309 -0.3017
 8206SOL    HW225782   1.939   3.339   6.736  1.7798  2.2264  0.2405
 8207SOL     OW25783   1.138   8.276   0.613  0.0572 -0.0390 -0.0319
 8207SOL    HW125784   1.165   8.248   0.525  0.8322  1.2212 -0.2310
 8207SOL    HW225785   1.204   8.239   0.671 -1.5032 -2.5097  0.3155
 8208SOL     OW25786   2.090   3.640   0.564 -0.2666  0.2902  0.6126
 8208SOL    HW125787   2.101   3.709   0.629  0.0204 -0.4510  1.3605
 8208SOL    HW225788   2.052   3.567   0.612  1.5451 -0.8793  0.3439
 8209SOL     OW25789   3.165   0.391   1.712  0.3386  0.3904  0.0171
 8209SOL    HW125790   3.220   0.450   1.660 -0.6851  0.8374 -0.5685
 8209SOL    HW225791   3.127   0.331   1.649  0.5729 -0.2673  0.4903
 8210SOL     OW25792   1.401   4.755   8.342  0.1014  0.0577  0.3620
 8210SOL    HW125793   1.424   4.664   8.361  0.2388  0.2040  0.9288
 8210SOL    HW225794   1.314   4.749   8.303 -0.3071 -0.2581  1.2732
 8211SOL     OW25795   0.110   6.820   1.699  1.0428  0.0571 -0.0211
 8211SOL    HW125796   0.183   6.830   1.761  0.7749 -1.5284  0.6114
 8211SOL    HW225797   0.072   6.735   1.722 -0.7157  0.6383 -0.6491
 8212SOL     OW25798   7.423   3.253   6.320  0.6247  0.0496 -0.2061
 8212SOL    HW125799   7.362   3.193   6.362 -0.2313  1.0464  0.0060
 8212SOL    HW225800   7.368   3.318   6.277  1.5175  1.4883  0.7314
 8213SOL     OW25801   4.369   0.074   2.367  0.6986 -0.1755  0.2784
 8213SOL    HW125802   4.301   0.102   2.307  0.0856  0.8337  1.4009
 8213SOL    HW225803   4.373  -0.021   2.357 -1.2902 -0.3331  0.5908
 8214SOL     OW25804   4.813   8.521   4.722  0.2863  0.3064 -0.0208
 8214SOL    HW125805   4.879   8.463   4.683  1.0342  0.5445  0.8492
 8214SOL    HW225806   4.738   8.464   4.738 -0.2708  0.3201 -2.2858
 8215SOL     OW25807   1.691   0.158   6.249 -0.0790 -0.4136  0.2284
 8215SOL    HW125808   1.611   0.105   6.246 -0.0611 -0.4460  0.3237
 8215SOL    HW225809   1.662   0.247   6.233 -0.2249 -0.3259  0.9598
 8216SOL     OW25810   4.502   0.534   7.985 -0.3850  0.0102 -0.3370
 8216SOL    HW125811   4.579   0.585   8.010 -0.7163  0.4980 -0.2970
 8216SOL    HW225812   4.444   0.597   7.944 -1.5114  0.0310  1.1768
 8217SOL     OW25813   8.466   5.213   6.478 -0.3356 -0.2290 -0.2109
 8217SOL    HW125814   8.436   5.130   6.514 -0.0992  0.7662  2.5212
 8217SOL    HW225815   8.386   5.262   6.460 -0.4520 -0.3963 -0.1488
 8218SOL     OW25816   5.706   4.563   6.730 -0.0303 -0.2476  0.2732
 8218SOL    HW125817   5.796   4.575   6.700 -0.0616  1.9211  0.8800
 8218SOL    HW225818   5.691   4.635   6.792 -1.7096 -1.4210  1.3417
 8219SOL     OW25819   5.418   0.815   3.611 -0.1836  0.0931  0.0296
 8219SOL    HW125820   5.472   0.785   3.537  0.9293 -0.0151  0.8638
 8219SOL    HW225821   5.471   0.881   3.655 -0.3666 -0.6221  1.3671
 8220SOL     OW25822   4.712   1.732   0.042 -0.3750  0.3111 -0.3229
 8220SOL    HW125823   4.672   1.793  -0.019  0.1719  0.8792 -0.1255
 8220SOL    HW225824   4.640   1.676   0.072 -1.0395  1.4006  0.1455
 8221SOL     OW25825   5.602   2.163   6.175 -0.2270 -0.3019 -0.6695
 8221SOL    HW125826   5.575   2.141   6.264  1.7697  0.7755  0.2626
 8221SOL    HW225827   5.569   2.252   6.162  0.7035  0.0779 -0.4613
 8222SOL     OW25828   1.121   8.091   6.752 -0.7706 -0.7764  0.3189
 8222SOL    HW125829   1.186   8.141   6.703 -0.7275 -0.5370  0.6190
 8222SOL    HW225830   1.038   8.111   6.709 -0.7335 -0.5660  0.3444
 8223SOL     OW25831   0.140   1.398   0.555 -0.3969 -0.5742  0.0589
 8223SOL    HW125832   0.092   1.476   0.583 -0.6692 -0.6838 -0.1024
 8223SOL    HW225833   0.175   1.421   0.468 -0.4715 -0.6297  0.0143
 8224SOL     OW25834   1.760   4.151   6.970 -0.3191  0.1616 -0.0953
 8224SOL    HW125835   1.801   4.201   7.040  0.7851 -1.5170  0.5255
 8224SOL    HW225836   1.731   4.070   7.013 -0.9856 -0.2524 -1.2785
 8225SOL     OW25837   7.265   6.266   5.450 -0.0990  0.4882  0.4230
 8225SOL    HW125838   7.315   6.336   5.490 -0.3780  1.9402 -1.6080
 8225SOL    HW225839   7.203   6.310   5.392 -1.3917 -1.3850  0.2590
 8226SOL     OW25840   7.934   1.504   1.384  0.2984  0.5850 -0.3155
 8226SOL    HW125841   7.959   1.592   1.412  2.6566 -0.1329  0.1020
 8226SOL    HW225842   7.877   1.472   1.453  1.7187  0.8002  1.0177
 8227SOL     OW25843   1.608   4.907   7.241  0.0529  0.2254  0.5851
 8227SOL    HW125844   1.687   4.883   7.290  0.3523 -1.9485 -0.8420
 8227SOL    HW225845   1.640   4.932   7.155 -0.6687  1.5050  0.6730
 8228SOL     OW25846   1.601   3.013   3.094  0.0457 -0.1946 -0.3892
 8228SOL    HW125847   1.662   3.062   3.149  1.5312 -2.5586  0.1960
 8228SOL    HW225848   1.528   2.992   3.152 -0.0748  0.3239 -0.3416
 8229SOL     OW25849   8.491   2.232   3.199 -0.1001 -0.0975 -0.2355
 8229SOL    HW125850   8.418   2.173   3.213  0.4593 -0.6402  0.4831
 8229SOL    HW225851   8.551   2.183   3.143 -0.3534  0.4017 -0.9452
 8230SOL     OW25852   6.924   7.915   5.203  1.0426 -0.5040  0.4968
 8230SOL    HW125853   6.973   7.838   5.230  1.4110  0.1081  1.6484
 8230SOL    HW225854   6.858   7.926   5.271 -0.9955 -1.5083 -1.1764
 8231SOL     OW25855   6.648   2.374   5.048  0.5485  0.0027 -0.3498
 8231SOL    HW125856   6.729   2.420   5.070  0.0965  1.4055 -1.4815
 8231SOL    HW225857   6.580   2.442   5.051 -0.6047 -1.1468  0.5823
 8232SOL     OW25858   5.376   2.692   4.553  0.7999  0.6363 -0.5074
 8232SOL    HW125859   5.379   2.620   4.615  1.2341  0.8070 -0.3284
 8232SOL    HW225860   5.283   2.706   4.537  0.6778  0.7829  0.3253
 8233SOL     OW25861   1.841   4.126   6.722 -0.0793  0.4718  0.2636
 8233SOL    HW125862   1.821   4.115   6.815  2.0179  0.3510  0.7481
 8233SOL    HW225863   1.870   4.039   6.693  0.1515  0.7231 -0.2719
 8234SOL     OW25864   8.302   0.290   3.437  0.2873  0.8088 -0.0157
 8234SOL    HW125865   8.286   0.363   3.377 -0.6945  0.5892 -0.0377
 8234SOL    HW225866   8.354   0.228   3.386 -2.3923 -0.4150 -1.4954
 8235SOL     OW25867   6.632   7.933   2.926  0.4521  0.8590 -0.0024
 8235SOL    HW125868   6.578   7.915   2.848  0.0017  1.1903  0.2275
 8235SOL    HW225869   6.703   7.869   2.921 -0.3594 -0.0886  0.0610
 8236SOL     OW25870   3.142   0.449   4.932  0.0843  0.1759 -0.3989
 8236SOL    HW125871   3.214   0.460   4.993 -0.3207  0.3338  0.0544
 8236SOL    HW225872   3.169   0.377   4.874  1.2315  1.1848 -1.1529
 8237SOL     OW25873   5.519   0.895   5.364 -0.4454 -0.1690  0.4540
 8237SOL    HW125874   5.443   0.870   5.417 -0.2558  1.1503  1.3892
 8237SOL    HW225875   5.593   0.853   5.408 -0.5307 -0.7555  0.0388
 8238SOL     OW25876   2.062   6.075   6.781 -0.0494  0.0869  0.1530
 8238SOL    HW125877   2.094   6.098   6.694  0.9558  1.1070  0.7700
 8238SOL    HW225878   2.127   6.111   6.841  0.8034 -3.0236  1.2758
 8239SOL     OW25879   7.760   6.193   6.646  0.0101  0.4459 -0.4691
 8239SOL    HW125880   7.692   6.169   6.584 -0.5359  0.6838  0.0330
 8239SOL    HW225881   7.739   6.282   6.673  0.4550  0.4833 -0.2269
 8240SOL     OW25882   1.210   2.954   4.493 -0.1185 -0.3947  0.6727
 8240SOL    HW125883   1.286   3.003   4.523 -0.5534  0.0328  1.0935
 8240SOL    HW225884   1.187   2.995   4.409 -0.7794  0.4687  1.2571
 8241SOL     OW25885   7.948   2.090   4.147  0.2709  0.3315 -0.1410
 8241SOL    HW125886   7.923   2.120   4.059  0.7705  1.2501  0.0200
 8241SOL    HW225887   7.873   2.114   4.202 -0.3655 -0.9232 -0.4384
 8242SOL     OW25888   6.063   3.767   4.425  0.0192 -0.4174  0.1193
 8242SOL    HW125889   6.019   3.686   4.452 -0.1455 -0.0704  0.9271
 8242SOL    HW225890   6.140   3.772   4.481  0.8792 -0.8032 -0.9961
 8243SOL     OW25891   8.560   2.076   5.239 -0.0924 -0.6777 -0.6598
 8243SOL    HW125892   8.615   2.146   5.276 -0.7036 -0.2796 -0.4868
 8243SOL    HW225893   8.548   2.101   5.148 -2.6377  0.9896  0.0486
 8244SOL     OW25894   1.164   2.648   8.496  0.0789 -0.3780 -0.5441
 8244SOL    HW125895   1.172   2.734   8.538  2.0582 -0.8255  0.0978
 8244SOL    HW225896   1.072   2.643   8.469  0.2219  2.5335 -1.9451
 8245SOL     OW25897   4.161   4.602   8.540 -0.0398 -0.5545 -0.4712
 8245SOL    HW125898   4.178   4.583   8.448 -0.0299 -2.0363 -0.1920
 8245SOL    HW225899   4.126   4.520   8.575 -0.0324 -0.0186  0.8458
 8246SOL     OW25900   5.301   3.110   6.614 -0.3133 -0.6466  0.3851
 8246SOL    HW125901   5.226   3.051   6.622  0.0721 -1.2910 -0.5362
 8246SOL    HW225902   5.316   3.117   6.519 -0.6261  1.2940  0.4314
 8247SOL     OW25903   5.155   4.518   1.042 -0.4629  0.3839 -0.5963
 8247SOL    HW125904   5.157   4.502   1.137  0.3763 -1.2184 -0.8434
 8247SOL    HW225905   5.234   4.474   1.009  0.4500  2.7582 -1.8023
 8248SOL     OW25906   0.690   5.811   0.018  0.3519  0.0190  0.1739
 8248SOL    HW125907   0.664   5.758   0.093  4.1600 -0.4128  1.4022
 8248SOL    HW225908   0.710   5.747  -0.051 -1.3511  0.3213 -0.6532
 8249SOL     OW25909   4.619   6.589   5.739  0.1406  0.2033 -0.2090
 8249SOL    HW125910   4.575   6.642   5.806  1.6507  0.3869  0.6826
 8249SOL    HW225911   4.613   6.641   5.659  0.4865  1.1434  0.3652
 8250SOL     OW25912   5.965   2.286   1.259 -0.0195  0.7647 -0.0355
 8250SOL    HW125913   6.052   2.299   1.296  0.3443 -0.0244 -0.5785
 8250SOL    HW225914   5.962   2.192   1.240 -0.3089  1.0900 -1.6893
 8251SOL     OW25915   2.985   0.158   7.325 -0.4443 -0.2862  0.3368
 8251SOL    HW125916   3.000   0.166   7.420  1.7087 -0.8220  0.0860
 8251SOL    HW225917   3.069   0.181   7.286 -0.8001 -1.7217 -1.3789
 8252SOL     OW25918   0.392   5.148   0.024  0.2981 -0.1668 -0.7643
 8252SOL    HW125919   0.406   5.062  -0.015 -2.7550 -0.8740 -0.5937
 8252SOL    HW225920   0.419   5.138   0.115 -0.6348 -1.1853 -0.5791
 8253SOL     OW25921   1.325   5.758   3.734  0.1787  0.9757 -0.0737
 8253SOL    HW125922   1.358   5.698   3.802 -1.3193  1.3203  0.9969
 8253SOL    HW225923   1.230   5.749   3.737 -0.1186  3.4928  0.2195
 8254SOL     OW25924   5.512   4.808   2.206 -0.1095 -0.1994 -0.1169
 8254SOL    HW125925   5.425   4.835   2.235  0.4918  1.5505  0.1511
 8254SOL    HW225926   5.496   4.733   2.148 -2.0371  1.6677 -2.1671
 8255SOL     OW25927   4.771   6.538   0.600  0.1679  0.1177  0.5068
 8255SOL    HW125928   4.739   6.626   0.579  0.6516  0.5446  1.5113
 8255SOL    HW225929   4.695   6.493   0.635 -0.3383 -0.2076 -0.9394
 8256SOL     OW25930   3.921   5.983   8.714 -0.3403  0.1577 -0.0338
 8256SOL    HW125931   3.857   5.982   8.786  0.0488  0.8615  0.3262
 8256SOL    HW225932   3.936   6.075   8.696 -1.0286  0.0041 -1.5799
 8257SOL     OW25933   6.613   5.495   1.334 -0.1142  0.0993 -0.1362
 8257SOL    HW125934   6.698   5.459   1.359 -0.8674 -1.4906  0.2457
 8257SOL    HW225935   6.583   5.542   1.412  0.1195  0.1277 -0.0618
 8258SOL     OW25936   4.996   7.777   3.207 -0.4651 -0.1355  0.4724
 8258SOL    HW125937   4.990   7.836   3.282 -1.2941  0.5158 -0.0970
 8258SOL    HW225938   5.047   7.702   3.240 -0.5450  0.2792  1.5835
 8259SOL     OW25939   2.232   0.098   6.687 -0.0476 -0.2057 -0.3160
 8259SOL    HW125940   2.298   0.049   6.735 -0.0960  0.3555  0.3514
 8259SOL    HW225941   2.227   0.056   6.601  0.4181 -0.9040 -0.0057
 8260SOL     OW25942   1.462   5.013   1.175  0.0186  0.0534  0.3496
 8260SOL    HW125943   1.447   4.921   1.154 -0.4007 -0.1457  1.4470
 8260SOL    HW225944   1.557   5.020   1.184  0.1720  0.0509 -1.0999
 8261SOL     OW25945   1.417   5.514   6.070  0.3874 -0.0804 -0.6359
 8261SOL    HW125946   1.499   5.507   6.119 -1.8815 -0.2340  3.5674
 8261SOL    HW225947   1.398   5.608   6.069  0.9242  0.0441 -2.3407
 8262SOL     OW25948   8.560   2.933   5.683 -0.1076 -0.4960  0.1607
 8262SOL    HW125949   8.636   2.875   5.676  0.2625 -0.1881  1.4084
 8262SOL    HW225950   8.596   3.021   5.670 -0.1049 -0.2854  1.5059
 8263SOL     OW25951   5.495   7.218   6.290  0.2226 -0.2224 -0.4430
 8263SOL    HW125952   5.461   7.288   6.345 -1.4176 -0.3797 -1.2060
 8263SOL    HW225953   5.429   7.149   6.295  1.0519 -1.0766 -0.9614
 8264SOL     OW25954   5.730   8.438   3.798  0.3972 -0.2134 -0.3993
 8264SOL    HW125955   5.695   8.458   3.885  0.0772 -1.8007 -0.1414
 8264SOL    HW225956   5.775   8.518   3.772 -2.0680  1.3858 -0.0752
 8265SOL     OW25957   4.478   0.850   8.732  0.2221  0.0123 -0.2576
 8265SOL    HW125958   4.452   0.930   8.777  0.8388  0.2465 -0.3068
 8265SOL    HW225959   4.396   0.809   8.705 -0.0831  0.9047 -0.7157
 8266SOL     OW25960   4.077   6.707   0.913  0.1069  0.0147 -0.6890
 8266SOL    HW125961   4.034   6.762   0.848  0.0466  0.9542  0.1267
 8266SOL    HW225962   4.036   6.730   0.996 -0.8053 -2.1716 -0.4602
 8267SOL     OW25963   8.180   0.420   1.779  0.1707  0.3135  0.2798
 8267SOL    HW125964   8.132   0.492   1.821 -0.5079 -0.0042  0.0753
 8267SOL    HW225965   8.117   0.348   1.776  0.1867  0.3207 -1.2517
 8268SOL     OW25966   0.616   6.851   5.041  0.2052 -0.0887  0.3702
 8268SOL    HW125967   0.547   6.798   5.080 -0.4998  0.3129 -0.2877
 8268SOL    HW225968   0.632   6.809   4.956 -1.4507  1.5628 -0.8458
 8269SOL     OW25969   6.408   5.489   1.064  0.1205  0.0142  0.2075
 8269SOL    HW125970   6.397   5.401   1.027  0.8843  0.3248 -0.7866
 8269SOL    HW225971   6.350   5.544   1.012  1.6375  0.5561 -0.9625
 8270SOL     OW25972   8.077   3.523   1.098 -0.4406  0.3113 -0.5933
 8270SOL    HW125973   8.026   3.460   1.149  0.2586 -0.1016 -0.3900
 8270SOL    HW225974   8.014   3.560   1.036 -0.6855 -1.2233 -1.3202
 8271SOL     OW25975   3.523   1.479   3.653  0.6675 -0.7130 -0.0749
 8271SOL    HW125976   3.495   1.451   3.566  1.2933  0.7602 -0.7807
 8271SOL    HW225977   3.469   1.555   3.673  1.3877 -0.2696  0.2590
 8272SOL     OW25978   8.059   6.281   0.225 -0.1885  0.4370 -0.0264
 8272SOL    HW125979   8.135   6.276   0.283  0.3485  0.3444 -0.7295
 8272SOL    HW225980   8.069   6.207   0.166 -2.4583 -1.4635  1.7883
 8273SOL     OW25981   1.105   7.118   8.639  0.1773  0.1738  0.0459
 8273SOL    HW125982   1.093   7.023   8.633 -1.0116  0.1964  1.3606
 8273SOL    HW225983   1.197   7.132   8.619 -0.3985 -0.8112 -4.1238
 8274SOL     OW25984   1.281   2.760   8.847 -0.1329  0.1149  0.7381
 8274SOL    HW125985   1.366   2.796   8.872  0.7303 -0.4238 -1.2472
 8274SOL    HW225986   1.220   2.832   8.863  1.1800  1.6483 -0.7389
 8275SOL     OW25987   6.786   7.012   7.018  0.0608  0.0196  0.3794
 8275SOL    HW125988   6.710   7.057   7.054  0.4536  1.0153 -0.0002
 8275SOL    HW225989   6.771   7.010   6.924  0.4781  0.1746  0.3070
 8276SOL     OW25990   1.245   3.513   7.658  0.0575  0.0786  0.2775
 8276SOL    HW125991   1.325   3.523   7.710  0.5449  1.3007 -0.6524
 8276SOL    HW225992   1.276   3.497   7.569 -0.7504 -3.3035  0.4685
 8277SOL     OW25993   1.216   0.282   5.768  0.6375 -0.2974 -0.2382
 8277SOL    HW125994   1.186   0.192   5.781  1.2191 -0.4981 -0.2759
 8277SOL    HW225995   1.164   0.333   5.831 -0.8164 -0.4139 -1.2797
 8278SOL     OW25996   7.182   4.637   3.482  0.0159 -0.0227  0.1084
 8278SOL    HW125997   7.111   4.701   3.483 -0.1546 -0.1658 -1.2630
 8278SOL    HW225998   7.138   4.552   3.481  0.2019 -0.1153 -0.5343
 8279SOL     OW25999   8.226   8.386   5.369  0.4602  0.0550 -0.3079
 8279SOL    HW126000   8.215   8.465   5.315 -0.4603  1.0054  1.1953
 8279SOL    HW226001   8.150   8.332   5.348  0.3975  0.1687 -0.3770
 8280SOL     OW26002   7.995   5.221   8.354 -0.0159  0.1798 -0.2673
 8280SOL    HW126003   7.948   5.138   8.349 -0.1967  0.3549 -2.0468
 8280SOL    HW226004   8.088   5.196   8.356 -0.0571 -0.0711 -1.1543
 8281SOL     OW26005   7.451   5.512   2.489  0.4925 -0.5375  0.0033
 8281SOL    HW126006   7.442   5.419   2.467 -0.5761 -0.1179 -1.4724
 8281SOL    HW226007   7.363   5.539   2.517  0.6677  0.1634 -0.1127
 8282SOL     OW26008   2.420   2.401   6.712 -0.2091  0.0037  0.5577
 8282SOL    HW126009   2.505   2.407   6.669 -0.6746 -0.8883 -0.5077
 8282SOL    HW226010   2.378   2.325   6.673 -0.7508 -0.7102  2.4266
 8283SOL     OW26011   0.428   6.747   6.992  0.7674  0.0465  0.4240
 8283SOL    HW126012   0.458   6.815   7.053  0.0047  2.2201 -1.4799
 8283SOL    HW226013   0.353   6.786   6.947  1.6702 -1.1661 -2.3633
 8284SOL     OW26014   2.558   1.232   1.980 -0.1655  0.2691  0.3060
 8284SOL    HW126015   2.595   1.151   2.017 -0.8481  0.3752  1.2492
 8284SOL    HW226016   2.471   1.207   1.949 -0.0693  0.4684 -0.1394
 8285SOL     OW26017   3.055   0.421   0.386  0.1577 -0.4009  0.2462
 8285SOL    HW126018   3.081   0.494   0.329 -1.3953 -0.4954 -0.6511
 8285SOL    HW226019   3.048   0.459   0.473  0.0128  0.3835 -0.0996
 8286SOL     OW26020   1.489   3.286   8.261  0.0406  0.0686  0.3949
 8286SOL    HW126021   1.406   3.319   8.226  0.5696 -0.0127 -0.9946
 8286SOL    HW226022   1.535   3.364   8.291  0.2386  0.3388 -0.5740
 8287SOL     OW26023   0.272   4.703   0.307  0.1285  0.1095  0.4244
 8287SOL    HW126024   0.228   4.743   0.382  0.2524 -0.7556  0.9832
 8287SOL    HW226025   0.219   4.728   0.231  0.2369  1.3397  0.7404
 8288SOL     OW26026   7.797   4.580   2.393  0.5112 -0.2600  0.2116
 8288SOL    HW126027   7.820   4.524   2.466  1.3051  0.8212  0.8165
 8288SOL    HW226028   7.881   4.615   2.361  0.0948  0.0842 -0.5486
 8289SOL     OW26029   1.050   1.471   7.938 -0.4529  0.5866 -0.3645
 8289SOL    HW126030   0.973   1.417   7.920  1.0050 -1.7048 -0.1014
 8289SOL    HW226031   1.058   1.528   7.861 -1.2330 -0.5804 -1.3441
 8290SOL     OW26032   0.140   1.002   3.228 -0.3501 -0.3150  0.5000
 8290SOL    HW126033   0.163   0.942   3.157 -1.3972 -0.7284  0.4891
 8290SOL    HW226034   0.146   1.089   3.189  0.8295 -0.4264  0.4116
 8291SOL     OW26035   7.928   1.437   4.795 -0.4198  0.5291 -0.3022
 8291SOL    HW126036   8.022   1.454   4.784 -0.2090  0.2400  0.8738
 8291SOL    HW226037   7.892   1.444   4.707  0.4018  2.4656 -0.5322
 8292SOL     OW26038   3.804   1.195   1.463 -0.3141 -0.0358 -0.6285
 8292SOL    HW126039   3.866   1.178   1.392  0.2021 -0.3634 -0.1169
 8292SOL    HW226040   3.773   1.108   1.488 -0.6239  0.0921 -0.5714
 8293SOL     OW26041   3.107   8.786   0.460  0.3193  0.4538  0.2656
 8293SOL    HW126042   3.161   8.769   0.537 -1.0965 -0.9535  1.0155
 8293SOL    HW226043   3.107   8.703   0.412 -1.7358  0.1641  0.6855
 8294SOL     OW26044   0.389   5.526   8.461 -0.1063  0.4299  0.1773
 8294SOL    HW126045   0.472   5.485   8.435 -0.0906  0.5755  0.0030
 8294SOL    HW226046   0.346   5.548   8.379 -0.9358 -0.8732  0.2466
 8295SOL     OW26047   6.838   7.646   2.282  0.8893  0.6905  0.1146
 8295SOL    HW126048   6.758   7.598   2.258  1.2681  0.2126 -0.2220
 8295SOL    HW226049   6.821   7.677   2.371  0.4278  0.3738  0.1422
 8296SOL     OW26050   0.233   4.752   4.700 -0.2410  0.6587  0.3795
 8296SOL    HW126051   0.306   4.714   4.749  0.5338  0.7105 -0.6808
 8296SOL    HW226052   0.275   4.796   4.626 -1.1314  3.2888  1.3479
 8297SOL     OW26053   2.169   8.121   6.087 -0.3554  0.1614 -0.1716
 8297SOL    HW126054   2.081   8.147   6.061  0.6512  1.8574 -2.2395
 8297SOL    HW226055   2.210   8.092   6.006  0.6120 -1.9769  0.9959
 8298SOL     OW26056   5.950   5.206   1.878 -0.5006  0.2440 -0.4806
 8298SOL    HW126057   5.989   5.294   1.881  2.4078 -0.8052 -2.5065
 8298SOL    HW226058   5.913   5.200   1.790  0.0044 -0.7891 -0.6348
 8299SOL     OW26059   7.904   3.811   7.120 -0.5777  0.1436  0.0884
 8299SOL    HW126060   7.933   3.884   7.065 -2.1904  0.1586 -0.8286
 8299SOL    HW226061   7.874   3.745   7.058 -1.8001 -0.1279  0.9272
 8300SOL     OW26062   1.337   0.278   2.643  0.0675 -0.0481 -0.2169
 8300SOL    HW126063   1.269   0.241   2.700  1.4485 -0.7240  1.0484
 8300SOL    HW226064   1.361   0.361   2.684 -0.5025  0.5832 -1.0986
 8301SOL     OW26065   3.132   8.695   5.484  0.4673 -0.0251  0.3654
 8301SOL    HW126066   3.141   8.780   5.527  1.8531  0.2319 -0.3677
 8301SOL    HW226067   3.185   8.635   5.536  0.4590 -0.1794  0.2000
 8302SOL     OW26068   8.307   8.056   8.469 -0.0798  0.3528 -0.5570
 8302SOL    HW126069   8.218   8.092   8.465  0.4670  1.7414 -0.7105
 8302SOL    HW226070   8.362   8.130   8.495  0.8382 -0.8643  1.1078
 8303SOL     OW26071   4.349   5.969   7.744  0.0844  0.0756 -0.5527
 8303SOL    HW126072   4.371   5.887   7.699  1.7858  0.5523 -0.6610
 8303SOL    HW226073   4.285   6.011   7.687  0.7123 -0.2543 -1.5259
 8304SOL     OW26074   5.910   1.131   2.204  0.4245 -0.2564  0.1189
 8304SOL    HW126075   5.840   1.155   2.144  0.6208  0.4799  0.1721
 8304SOL    HW226076   5.901   1.036   2.215  0.4237 -0.4037 -1.1007
 8305SOL     OW26077   6.276   0.740   2.100 -0.2531 -0.5842 -0.1963
 8305SOL    HW126078   6.366   0.758   2.073 -1.3544  3.0590 -2.1090
 8305SOL    HW226079   6.226   0.740   2.019 -2.1016 -2.0393  0.8625
 8306SOL     OW26080   2.134   7.248   4.262 -0.3752 -0.4835 -0.4078
 8306SOL    HW126081   2.217   7.289   4.241 -0.1224 -0.7800 -0.0106
 8306SOL    HW226082   2.153   7.192   4.337 -0.6209 -1.5959 -1.1483
 8307SOL     OW26083   1.745   5.019   5.218 -0.6131  0.2930  0.5150
 8307SOL    HW126084   1.757   4.932   5.179 -1.9483  0.6073 -0.7170
 8307SOL    HW226085   1.670   5.009   5.276 -0.9087  0.6541  0.2031
 8308SOL     OW26086   1.429   6.515   2.263  0.4552  0.0279  0.3834
 8308SOL    HW126087   1.435   6.508   2.168 -0.3976  0.7543  0.2613
 8308SOL    HW226088   1.348   6.469   2.285  1.0611 -0.8402  0.8570
 8309SOL     OW26089   2.241   6.221   3.724  0.1382 -0.0966 -0.2352
 8309SOL    HW126090   2.250   6.228   3.819 -1.0092 -2.5107  0.1193
 8309SOL    HW226091   2.309   6.279   3.689 -0.0020  1.5561  2.0156
 8310SOL     OW26092   3.684   0.409   7.653 -0.0087 -0.4890 -0.0561
 8310SOL    HW126093   3.745   0.480   7.675 -0.6739  0.3319 -0.7934
 8310SOL    HW226094   3.599   0.441   7.680 -0.1935 -1.4201  0.4910
 8311SOL     OW26095   1.072   6.444   6.798  0.5000  0.0557 -0.4543
 8311SOL    HW126096   0.997   6.491   6.834 -0.7604 -2.2104  0.0005
 8311SOL    HW226097   1.135   6.440   6.871 -0.1003 -0.4662  0.0390
 8312SOL     OW26098   8.506   8.093   5.095 -0.0962 -0.6772 -0.0844
 8312SOL    HW126099   8.476   8.167   5.043 -1.8843 -1.8909 -0.8994
 8312SOL    HW226100   8.445   8.090   5.170 -0.2116 -1.4613 -0.2024
 8313SOL     OW26101   6.840   7.309   0.609  0.1226 -0.3021 -0.1389
 8313SOL    HW126102   6.846   7.214   0.603  0.1345 -0.2104 -2.4982
 8313SOL    HW226103   6.930   7.339   0.618  0.1276 -0.4852  0.4882
 8314SOL     OW26104   2.880   1.729   1.304  0.1681 -0.6435 -0.5356
 8314SOL    HW126105   2.908   1.640   1.282 -1.0485 -0.8240 -1.5124
 8314SOL    HW226106   2.786   1.730   1.283 -0.2967  0.2887  1.3318
 8315SOL     OW26107   1.697   3.134   2.167 -0.1577 -0.5117 -0.1311
 8315SOL    HW126108   1.610   3.096   2.155 -0.6054  0.2300  0.6740
 8315SOL    HW226109   1.717   3.177   2.083 -0.5003 -0.8102 -0.3643
 8316SOL     OW26110   0.321   6.241   4.362  0.3522 -0.1869 -0.0509
 8316SOL    HW126111   0.355   6.152   4.375 -0.4637 -0.4462  0.3718
 8316SOL    HW226112   0.316   6.250   4.267  2.1626  0.0931 -0.1639
 8317SOL     OW26113   7.261   0.185   8.038 -0.0879  0.1170 -0.5038
 8317SOL    HW126114   7.283   0.107   8.089  2.3968  0.0925 -1.4719
 8317SOL    HW226115   7.266   0.156   7.947 -2.2052  0.7095 -0.8620
 8318SOL     OW26116   1.140   4.682   2.608 -0.3193  0.5069 -0.4292
 8318SOL    HW126117   1.124   4.766   2.652  2.4208  1.1715 -0.5575
 8318SOL    HW226118   1.069   4.626   2.640 -0.6215  2.0444  1.9165
 8319SOL     OW26119   2.113   7.456   4.026 -0.0873 -0.2303  0.0292
 8319SOL    HW126120   2.113   7.532   3.968  0.7233  1.2451  1.8632
 8319SOL    HW226121   2.184   7.472   4.087 -0.4478 -2.0617  1.0089
 8320SOL     OW26122   2.410   5.217   8.498  0.2867  0.4019  0.1596
 8320SOL    HW126123   2.490   5.261   8.471  0.2057  0.1896 -0.4463
 8320SOL    HW226124   2.434   5.169   8.577  0.3153  1.7189  0.9919
 8321SOL     OW26125   2.859   4.805   7.838  0.3078 -0.1834 -0.1838
 8321SOL    HW126126   2.884   4.730   7.784 -1.6042 -1.7540  1.0100
 8321SOL    HW226127   2.778   4.779   7.881 -0.9591  2.9384 -0.4001
 8322SOL     OW26128   4.128   7.590   5.732  0.1959  0.1716 -0.5748
 8322SOL    HW126129   4.085   7.611   5.815  0.1676 -0.1546 -0.5055
 8322SOL    HW226130   4.216   7.627   5.741 -0.6525  2.6605 -1.4945
 8323SOL     OW26131   8.785   7.174   4.069  0.2768 -0.2263  0.0004
 8323SOL    HW126132   8.697   7.161   4.034 -0.4282 -0.3416  1.7204
 8323SOL    HW226133   8.772   7.219   4.152  1.9291  0.7613 -0.2323
 8324SOL     OW26134   3.999   0.947   0.320  0.2367 -0.1353  0.2904
 8324SOL    HW126135   4.065   0.919   0.257  1.1525  1.4538  0.4876
 8324SOL    HW226136   3.991   1.041   0.307 -1.4705 -0.1624  0.7866
 8325SOL     OW26137   7.151   0.516   7.448 -0.2441 -0.5804 -0.6737
 8325SOL    HW126138   7.218   0.532   7.515 -1.1232 -0.0959  0.1104
 8325SOL    HW226139   7.193   0.455   7.387 -0.0314 -2.6038  1.3356
 8326SOL     OW26140   4.769   7.527   3.243  0.1041  0.7314  0.1985
 8326SOL    HW126141   4.852   7.486   3.220  0.0439  0.3487  0.6267
 8326SOL    HW226142   4.767   7.609   3.194 -1.2678 -1.2264 -3.4705
 8327SOL     OW26143   3.165   1.408   3.211  0.5577  0.3832  0.3141
 8327SOL    HW126144   3.221   1.334   3.235 -0.7879 -0.3288  1.4393
 8327SOL    HW226145   3.225   1.473   3.176  1.9486 -0.7458  0.5003
 8328SOL     OW26146   0.281   2.148   6.852  0.2062 -0.2163  0.0662
 8328SOL    HW126147   0.304   2.236   6.825  1.4317 -0.4639  0.2452
 8328SOL    HW226148   0.190   2.155   6.883  0.0532  0.8199 -0.5866
 8329SOL     OW26149   2.756   1.589   0.862  0.0410  0.3490  0.2922
 8329SOL    HW126150   2.812   1.519   0.828  0.1302  1.2038 -1.4089
 8329SOL    HW226151   2.814   1.664   0.872 -0.2852  0.5065  0.9923
 8330SOL     OW26152   2.359   6.008   2.845 -0.0669  0.3624  0.1427
 8330SOL    HW126153   2.313   5.942   2.898  0.1438  0.4105  0.3888
 8330SOL    HW226154   2.316   6.090   2.866 -1.6876  0.0580 -1.6867
 8331SOL     OW26155   1.049   0.043   7.219 -0.3847  0.1897  0.1848
 8331SOL    HW126156   0.980  -0.022   7.205 -0.2537  0.0177  0.3324
 8331SOL    HW226157   1.003   0.127   7.220 -0.7574  0.0002  1.4155
 8332SOL     OW26158   5.036   0.834   5.497  0.6031 -0.2590 -0.6677
 8332SOL    HW126159   5.000   0.869   5.415  0.7436  0.5709 -0.3792
 8332SOL    HW226160   4.959   0.810   5.548  0.5138 -0.8056 -1.0476
 8333SOL     OW26161   8.519   4.196   0.302  0.4573 -0.0311  0.2954
 8333SOL    HW126162   8.459   4.254   0.257  1.0262  0.0974 -0.3019
 8333SOL    HW226163   8.605   4.238   0.295  1.0273 -1.2800 -0.8231
 8334SOL     OW26164   3.927   0.954   6.889 -0.1287  0.2555  0.2985
 8334SOL    HW126165   3.881   0.896   6.949  0.3817  0.8534  1.2926
 8334SOL    HW226166   3.859   0.991   6.833 -0.7979  0.7097  1.3884
 8335SOL     OW26167   4.882   1.605   2.732  0.3636 -0.3909 -0.3697
 8335SOL    HW126168   4.901   1.551   2.808  0.4882 -0.8944 -0.7514
 8335SOL    HW226169   4.872   1.693   2.767  0.1518 -0.6573  0.2659
 8336SOL     OW26170   1.633   5.796   6.513  0.2682  0.4046  0.5518
 8336SOL    HW126171   1.659   5.852   6.587 -1.9845  0.0778  1.6785
 8336SOL    HW226172   1.674   5.837   6.437  1.7637  1.4014  1.8074
 8337SOL     OW26173   4.890   8.770   8.819 -0.1438  0.1043 -0.0008
 8337SOL    HW126174   4.840   8.691   8.800 -1.0578  0.7897 -0.5359
 8337SOL    HW226175   4.895   8.772   8.915  0.1256 -0.7256  0.0140
 8338SOL     OW26176   3.698   1.196   3.979  0.3634 -0.0560 -0.4233
 8338SOL    HW126177   3.635   1.152   3.922  0.3955 -0.1103 -0.4169
 8338SOL    HW226178   3.688   1.289   3.958 -0.1002 -0.0166 -0.0383
 8339SOL     OW26179   2.898   5.879   1.742  0.1472 -0.5003 -0.0119
 8339SOL    HW126180   2.913   5.972   1.730  1.8637 -0.7738 -0.3912
 8339SOL    HW226181   2.987   5.842   1.750 -0.4782 -2.1242 -0.1636
 8340SOL     OW26182   2.651   1.882   5.370 -0.2144  0.8369 -0.1651
 8340SOL    HW126183   2.610   1.900   5.285 -1.0313  0.8465  0.2175
 8340SOL    HW226184   2.701   1.960   5.390  0.1958  0.7307 -0.7604
 8341SOL     OW26185   4.377   0.643   6.461  0.5576  0.3515 -0.5846
 8341SOL    HW126186   4.332   0.638   6.377 -2.2788 -0.9502  0.8723
 8341SOL    HW226187   4.417   0.557   6.473  0.7081  0.4364 -0.4667
 8342SOL     OW26188   0.232   2.789   4.876 -0.2303 -0.2210  0.2549
 8342SOL    HW126189   0.183   2.811   4.797 -1.9533 -1.6106  0.8652
 8342SOL    HW226190   0.167   2.754   4.936  1.1873 -0.0860  1.9673
 8343SOL     OW26191   5.645   6.199   7.962 -0.2878 -0.1157  0.1506
 8343SOL    HW126192   5.657   6.282   7.915 -1.4436 -0.3787 -0.6625
 8343SOL    HW226193   5.710   6.201   8.033  0.7825  0.7673 -0.8210
 8344SOL     OW26194   1.245   7.602   1.759  0.7307  0.1667 -0.3317
 8344SOL    HW126195   1.325   7.558   1.730 -0.6074 -4.0596  1.5490
 8344SOL    HW226196   1.176   7.566   1.704 -0.1707  2.5453 -0.8755
 8345SOL     OW26197   5.069   4.257   7.239  0.0077  0.4195 -0.0000
 8345SOL    HW126198   5.083   4.182   7.297  1.2360  0.8661  0.2952
 8345SOL    HW226199   5.006   4.225   7.174  0.5680 -0.8912  0.0665
 8346SOL     OW26200   2.910   4.543   5.655  0.4890 -0.5219 -0.0134
 8346SOL    HW126201   2.842   4.586   5.604 -1.7458  0.0031  3.1547
 8346SOL    HW226202   2.887   4.450   5.652 -0.4571 -0.3471  1.0388
 8347SOL     OW26203   2.271   3.834   5.846 -0.0669 -0.7039 -0.5627
 8347SOL    HW126204   2.214   3.828   5.923  1.2109  1.2720  0.6228
 8347SOL    HW226205   2.237   3.909   5.797  1.9757  1.1399  0.6711
 8348SOL     OW26206   6.509   0.165   6.217 -0.0969 -0.7144  0.0272
 8348SOL    HW126207   6.504   0.135   6.127  1.0291 -0.5742 -0.0892
 8348SOL    HW226208   6.599   0.148   6.244  0.3884  1.8046  0.2185
 8349SOL     OW26209   1.071   7.656   6.482 -0.0594 -0.4331 -0.6466
 8349SOL    HW126210   0.976   7.659   6.471 -0.3034  2.1274  1.3171
 8349SOL    HW226211   1.089   7.714   6.556  2.9896 -1.4787 -0.4182
 8350SOL     OW26212   4.589   2.441   7.583 -0.3078 -0.2639 -0.8728
 8350SOL    HW126213   4.505   2.483   7.566 -0.4917 -0.3395 -0.1790
 8350SOL    HW226214   4.580   2.404   7.670  0.8455  0.7270 -0.2959
 8351SOL     OW26215   0.376   0.431   7.045  0.3322  0.1400 -0.0157
 8351SOL    HW126216   0.416   0.510   7.081 -0.4311  0.5315 -0.0138
 8351SOL    HW226217   0.352   0.379   7.122  1.8375 -0.6321 -0.0191
 8352SOL     OW26218   8.252   1.753   4.075 -0.3860 -0.2085  0.1963
 8352SOL    HW126219   8.210   1.789   3.997 -0.7753 -1.9947 -0.4906
 8352SOL    HW226220   8.208   1.669   4.089  0.6702 -0.5904  1.4798
 8353SOL     OW26221   7.100   8.245   1.945 -0.0578 -0.1791  0.0209
 8353SOL    HW126222   7.013   8.285   1.935 -0.7979 -1.8400 -0.4499
 8353SOL    HW226223   7.159   8.320   1.951 -1.3993  1.0049 -0.6779
 8354SOL     OW26224   4.558   6.357   2.453  0.8178 -0.0909  0.2176
 8354SOL    HW126225   4.594   6.302   2.383 -0.2108  0.4428 -0.7496
 8354SOL    HW226226   4.595   6.320   2.534  1.0541 -1.4867 -0.5008
 8355SOL     OW26227   2.478   4.207   5.155  0.5819  0.4900  0.7337
 8355SOL    HW126228   2.404   4.159   5.191  0.5282  0.2819  0.3494
 8355SOL    HW226229   2.513   4.150   5.086 -0.7810  1.8718 -1.1968
 8356SOL     OW26230   5.981   5.519   8.081 -0.0496 -0.9234 -0.1707
 8356SOL    HW126231   5.890   5.508   8.053 -0.1305 -0.3873 -0.1369
 8356SOL    HW226232   5.974   5.544   8.173  0.0950 -0.2309 -0.3402
 8357SOL     OW26233   1.315   4.850   6.449  0.7303 -0.2559 -0.0510
 8357SOL    HW126234   1.222   4.867   6.435  1.0112  1.2563 -0.2787
 8357SOL    HW226235   1.349   4.932   6.483  1.5940 -1.4429  2.1428
 8358SOL     OW26236   8.149   3.463   7.084 -0.2208  0.1930 -0.3773
 8358SOL    HW126237   8.112   3.497   7.002 -1.6399 -1.4095 -0.4680
 8358SOL    HW226238   8.138   3.534   7.147  1.0323  1.5167 -1.5629
 8359SOL     OW26239   7.700   7.529   0.268 -0.1168 -0.2106 -0.0096
 8359SOL    HW126240   7.736   7.473   0.199 -2.2617 -1.6828 -0.0147
 8359SOL    HW226241   7.772   7.539   0.331  0.0646 -4.0433  0.6332
 8360SOL     OW26242   8.408   6.553   6.702 -0.3482 -0.3683  0.2859
 8360SOL    HW126243   8.352   6.498   6.647 -1.7431  0.1456  1.1481
 8360SOL    HW226244   8.377   6.539   6.791  1.3451 -0.5563  0.8946
 8361SOL     OW26245   6.893   1.112   8.747 -0.2324 -0.7384 -0.0320
 8361SOL    HW126246   6.817   1.159   8.782 -0.3404 -0.9745  0.0512
 8361SOL    HW226247   6.930   1.067   8.823  0.5265  0.0987  0.1149
 8362SOL     OW26248   5.405   3.830   4.556 -0.2843 -0.0827 -0.5171
 8362SOL    HW126249   5.379   3.846   4.647 -2.6556 -0.1428 -1.1253
 8362SOL    HW226250   5.499   3.811   4.562  0.0475  1.7468  1.6735
 8363SOL     OW26251   8.333   7.217   0.753  0.3977  0.8831 -1.0291
 8363SOL    HW126252   8.372   7.264   0.827 -1.8776  1.0153  0.1743
 8363SOL    HW226253   8.398   7.152   0.729  1.8280  1.8349  0.0953
 8364SOL     OW26254   1.915   7.859   6.285 -0.1844  0.1962  0.1257
 8364SOL    HW126255   1.872   7.926   6.233 -0.7357 -0.9715 -0.9767
 8364SOL    HW226256   1.898   7.885   6.376 -0.5805  1.4051 -0.2717
 8365SOL     OW26257   8.041   4.459   3.840 -0.0188 -0.2626 -0.2360
 8365SOL    HW126258   8.073   4.514   3.769 -1.8590 -1.8699 -2.4635
 8365SOL    HW226259   8.016   4.521   3.909  1.2715  1.4002 -1.1827
 8366SOL     OW26260   3.739   6.749   3.969 -0.3571  0.0570  0.3853
 8366SOL    HW126261   3.806   6.805   3.929 -0.0295  0.0099  0.8591
 8366SOL    HW226262   3.681   6.725   3.896 -0.7151  1.3104  0.2469
 8367SOL     OW26263   1.156   7.601   7.753  0.0733  0.5245  0.3064
 8367SOL    HW126264   1.139   7.693   7.731  1.6877  0.8945  0.4630
 8367SOL    HW226265   1.088   7.579   7.816  0.5110  2.0921  1.4070
 8368SOL     OW26266   4.009   7.451   2.065 -0.4059 -0.1470  0.5467
 8368SOL    HW126267   4.041   7.434   1.976 -0.5383 -1.1345  0.6792
 8368SOL    HW226268   4.087   7.477   2.114 -0.2834  0.1153  0.2158
 8369SOL     OW26269   1.263   3.179   6.967  0.1630 -0.5070 -0.5935
 8369SOL    HW126270   1.237   3.251   7.025 -0.6389 -0.6393 -0.7797
 8369SOL    HW226271   1.255   3.215   6.879 -1.3298 -1.1451 -0.7442
 8370SOL     OW26272   6.263   6.950   5.964  0.3865  0.4905  0.4275
 8370SOL    HW126273   6.227   6.934   6.051 -2.4913  0.6621 -0.6029
 8370SOL    HW226274   6.258   6.865   5.920 -1.9717  1.1265 -0.7299
 8371SOL     OW26275   6.664   8.634   2.256 -0.1342  0.4870  0.2498
 8371SOL    HW126276   6.666   8.541   2.281  1.4504  0.8332  1.6227
 8371SOL    HW226277   6.756   8.654   2.237 -0.7578  1.2336 -2.3283
 8372SOL     OW26278   8.525   3.096   8.153 -0.7384 -0.0358  0.4503
 8372SOL    HW126279   8.511   3.008   8.118 -0.4169  0.2859 -0.5357
 8372SOL    HW226280   8.461   3.150   8.106 -0.2318  0.4283  0.2880
 8373SOL     OW26281   7.362   4.357   7.410 -0.2197 -0.4005 -0.3721
 8373SOL    HW126282   7.421   4.377   7.338  1.2619  0.0303  0.9085
 8373SOL    HW226283   7.402   4.398   7.486 -1.9345 -0.5205  0.6438
 8374SOL     OW26284   8.559   3.704   1.120 -0.4734 -0.2002 -0.5077
 8374SOL    HW126285   8.628   3.660   1.070 -1.5648 -1.5003 -0.9393
 8374SOL    HW226286   8.544   3.647   1.195  1.0317  1.6439  1.3089
 8375SOL     OW26287   8.098   0.294   7.769  0.6348  0.1062  0.2796
 8375SOL    HW126288   8.188   0.301   7.738 -0.1160 -0.7675 -2.3211
 8375SOL    HW226289   8.057   0.232   7.709 -2.1004  1.6300  0.4195
 8376SOL     OW26290   6.221   8.490   6.426 -0.1825  0.4312 -0.6668
 8376SOL    HW126291   6.204   8.487   6.520  0.2218  0.0542 -0.6017
 8376SOL    HW226292   6.238   8.583   6.408  0.1671  0.4468 -0.2857
 8377SOL     OW26293   1.123   8.015   5.197 -0.2366 -0.0231 -0.7377
 8377SOL    HW126294   1.103   8.092   5.250  0.4465 -0.8560  0.8002
 8377SOL    HW226295   1.046   8.003   5.141 -1.2418  0.5520  0.4777
 8378SOL     OW26296   7.067   7.424   5.900 -0.0488 -1.0762 -0.3360
 8378SOL    HW126297   7.084   7.418   5.994  0.6881  2.0388 -0.1572
 8378SOL    HW226298   6.973   7.443   5.894 -0.1601 -1.5901 -0.2631
 8379SOL     OW26299   6.160   5.454   0.051 -0.1115 -0.1302  0.5113
 8379SOL    HW126300   6.114   5.499  -0.020  0.9807 -1.3552 -1.0458
 8379SOL    HW226301   6.092   5.406   0.098 -0.6424 -0.8156 -0.8991
 8380SOL     OW26302   6.749   1.147   0.482 -0.2584  0.4560 -0.3706
 8380SOL    HW126303   6.832   1.107   0.506  0.2719  0.9241 -1.3628
 8380SOL    HW226304   6.766   1.241   0.486 -0.9293  0.5599  0.0622
 8381SOL     OW26305   0.008   7.711   4.092 -0.4520  0.3383 -0.1701
 8381SOL    HW126306   0.067   7.708   4.167  0.5100 -0.0014 -0.9077
 8381SOL    HW226307  -0.028   7.623   4.085  0.0748  0.1499 -0.5698
 8382SOL     OW26308   6.063   0.283   3.881 -0.4575 -0.7870 -0.4554
 8382SOL    HW126309   6.008   0.290   3.803  1.0094  1.4697 -1.3794
 8382SOL    HW226310   6.041   0.360   3.933 -1.6280 -2.4177  1.5896
 8383SOL     OW26311   4.264   8.367   6.773 -0.1970  0.3592 -0.3582
 8383SOL    HW126312   4.211   8.289   6.763 -1.8894  1.0077  2.4578
 8383SOL    HW226313   4.355   8.336   6.764 -0.6012 -2.5749  3.2481
 8384SOL     OW26314   1.227   1.653   7.170  0.0935 -0.2267 -0.2168
 8384SOL    HW126315   1.134   1.654   7.193  0.1044 -0.4142 -0.1644
 8384SOL    HW226316   1.229   1.682   7.079 -0.0516 -0.5590 -0.3292
 8385SOL     OW26317   7.710   0.320   2.251  0.1420  0.0530  0.3355
 8385SOL    HW126318   7.801   0.321   2.219  0.0807 -0.7235  0.1369
 8385SOL    HW226319   7.702   0.236   2.296 -0.3375  0.3337  0.7706
 8386SOL     OW26320   3.613   5.520   3.767 -0.3273  0.2678  0.4859
 8386SOL    HW126321   3.623   5.578   3.692 -0.6820 -0.8143 -0.4396
 8386SOL    HW226322   3.530   5.546   3.807 -2.1974 -1.6084 -1.8523
 8387SOL     OW26323   0.062   1.323   4.564 -1.1240 -0.4532  0.2012
 8387SOL    HW126324   0.099   1.237   4.581  0.6692 -0.1806 -1.8351
 8387SOL    HW226325   0.034   1.320   4.472  0.0271  1.4340 -0.2788
 8388SOL     OW26326   2.700   0.674   2.988 -0.0492  0.0032  0.2433
 8388SOL    HW126327   2.631   0.729   2.952  0.6674 -0.6606 -2.3946
 8388SOL    HW226328   2.767   0.671   2.918  1.6878 -1.0442  1.8538
 8389SOL     OW26329   2.370   1.976   8.757  0.1730  0.7230  0.2365
 8389SOL    HW126330   2.285   2.019   8.761  0.3438  1.0944 -0.0973
 8389SOL    HW226331   2.377   1.928   8.840 -0.5662  0.2978  0.0582
 8390SOL     OW26332   3.180   2.697   5.548 -0.3674  0.1052  0.5399
 8390SOL    HW126333   3.105   2.639   5.562  0.5076 -0.9972  0.7845
 8390SOL    HW226334   3.151   2.756   5.479 -1.4287 -0.3702  0.5515
 8391SOL     OW26335   7.203   1.398   8.508 -0.0335  0.2313 -0.0060
 8391SOL    HW126336   7.254   1.441   8.577  1.1307  0.8993 -1.2327
 8391SOL    HW226337   7.156   1.328   8.553  0.2485  0.9961  1.5545
 8392SOL     OW26338   1.477   4.271   3.268  0.3709  0.1085 -0.0259
 8392SOL    HW126339   1.406   4.273   3.332  1.2220  1.1101  0.9153
 8392SOL    HW226340   1.467   4.353   3.219  0.1668 -0.3104 -0.7001
 8393SOL     OW26341   4.164   2.524   5.456  0.2787  0.5944 -0.0617
 8393SOL    HW126342   4.224   2.537   5.383  0.1216  1.6571 -0.0160
 8393SOL    HW226343   4.219   2.521   5.533  0.3791  0.2512 -0.1453
 8394SOL     OW26344   5.147   1.907   2.742  0.4868 -0.4535 -0.1511
 8394SOL    HW126345   5.052   1.919   2.749  0.6838  0.3970  1.5289
 8394SOL    HW226346   5.165   1.828   2.793  0.7930  0.0090  0.4712
 8395SOL     OW26347   7.918   5.795   1.081  0.1831  0.2397  0.0388
 8395SOL    HW126348   7.978   5.869   1.098  0.9436 -0.2776 -0.3363
 8395SOL    HW226349   7.836   5.836   1.056  0.7882  0.9681 -0.8121
 8396SOL     OW26350   4.167   2.055   1.841  0.2656  0.5895  0.2882
 8396SOL    HW126351   4.122   1.998   1.903 -0.7755 -0.7386 -1.5689
 8396SOL    HW226352   4.113   2.052   1.762  1.5745  2.1094 -0.7427
 8397SOL     OW26353   6.462   7.888   1.342 -0.2339  0.0639  0.1610
 8397SOL    HW126354   6.444   7.978   1.368  0.3598 -0.0160  0.8748
 8397SOL    HW226355   6.557   7.878   1.352 -0.4058 -0.9019  0.9745
 8398SOL     OW26356   4.388   0.534   1.384  0.1352  0.5773 -0.2193
 8398SOL    HW126357   4.359   0.610   1.435 -0.4442  0.5287 -0.4699
 8398SOL    HW226358   4.429   0.572   1.306  0.2320  0.6431 -0.1349
 8399SOL     OW26359   1.719   0.423   6.110  0.1055 -0.4575  0.4470
 8399SOL    HW126360   1.694   0.496   6.054 -0.4376 -1.6513 -0.9361
 8399SOL    HW226361   1.638   0.396   6.152  0.0547 -1.0483 -0.0212
 8400SOL     OW26362   0.564   0.693   3.156 -0.6133 -0.0929  0.2610
 8400SOL    HW126363   0.515   0.647   3.223  0.2624 -0.1260  0.9045
 8400SOL    HW226364   0.511   0.685   3.076 -3.6103  3.1511  1.6684
 8401SOL     OW26365   0.617   3.496   4.377 -0.3937 -0.3429 -0.4473
 8401SOL    HW126366   0.652   3.407   4.373  1.2293  0.1144  1.6354
 8401SOL    HW226367   0.582   3.504   4.466 -2.4062  0.4844 -1.2570
 8402SOL     OW26368   3.883   0.917   4.890 -0.6288  0.2334 -0.0383
 8402SOL    HW126369   3.878   0.831   4.849  1.1019  0.0027  0.1533
 8402SOL    HW226370   3.976   0.931   4.904 -0.9024  2.0064  0.2403
 8403SOL     OW26371   8.500   0.427   8.834  0.4037  0.4678  0.2089
 8403SOL    HW126372   8.563   0.393   8.898  1.1753  0.5385 -0.4846
 8403SOL    HW226373   8.461   0.503   8.876 -0.1761 -0.3333  1.1634
 8404SOL     OW26374   6.561   2.230   2.212 -0.2071  0.2441 -0.3734
 8404SOL    HW126375   6.656   2.223   2.198  0.0006  1.9464 -0.1089
 8404SOL    HW226376   6.523   2.162   2.157  1.1926 -0.9105  0.0287
 8405SOL     OW26377   5.699   5.904   1.078 -0.4282  0.3884 -0.1246
 8405SOL    HW126378   5.753   5.981   1.066  0.7496 -0.7349 -3.1874
 8405SOL    HW226379   5.610   5.938   1.087  0.1815  2.1009 -0.2334
 8406SOL     OW26380   3.094   4.225   2.986  0.4094  0.0779  0.2850
 8406SOL    HW126381   3.098   4.150   3.046 -1.0325 -1.1733 -1.0877
 8406SOL    HW226382   3.080   4.300   3.044  0.1136 -0.9471  1.6095
 8407SOL     OW26383   1.319   5.202   4.128 -0.1989 -0.5648 -0.0793
 8407SOL    HW126384   1.289   5.111   4.116 -0.8719 -0.6022  1.6616
 8407SOL    HW226385   1.254   5.254   4.080  0.5069 -0.9863 -1.5806
 8408SOL     OW26386   6.257   7.037   7.086  0.1617 -0.5316 -1.0581
 8408SOL    HW126387   6.336   7.031   7.139 -1.4159 -1.8620  1.3162
 8408SOL    HW226388   6.285   7.081   7.006  2.8599  0.7647  0.4788
 8409SOL     OW26389   8.121   7.207   4.936 -0.0683  0.4282  0.9439
 8409SOL    HW126390   8.160   7.170   4.857  0.6312  1.2306  0.8913
 8409SOL    HW226391   8.029   7.222   4.913  0.4099  1.8490 -0.1758
 8410SOL     OW26392   8.412   5.352   1.231 -0.5011  0.7220 -0.6150
 8410SOL    HW126393   8.348   5.423   1.218 -2.8028 -0.3201  3.1555
 8410SOL    HW226394   8.377   5.279   1.181  0.1539  1.3374 -2.0027
 8411SOL     OW26395   4.575   0.076   0.681 -0.7535 -0.0640  0.0988
 8411SOL    HW126396   4.559  -0.002   0.628  0.7863  0.2829 -0.9264
 8411SOL    HW226397   4.577   0.043   0.771  0.0594 -1.2593 -0.3259
 8412SOL     OW26398   8.859   0.675   3.811 -0.1286  0.0873 -0.4254
 8412SOL    HW126399   8.853   0.659   3.905 -0.0452  1.9839 -0.0606
 8412SOL    HW226400   8.953   0.689   3.795 -0.1855  0.1454 -0.7140
 8413SOL     OW26401   8.773   5.349   1.961  0.0208  0.0635 -0.1332
 8413SOL    HW126402   8.745   5.330   2.051  0.0699  1.3381  0.1770
 8413SOL    HW226403   8.804   5.440   1.965 -1.0822  0.5381 -1.6859
 8414SOL     OW26404   2.810   0.683   0.523  0.5011 -0.1985  0.2057
 8414SOL    HW126405   2.818   0.775   0.549  3.8146  0.2740 -1.7770
 8414SOL    HW226406   2.881   0.638   0.570 -0.1244 -1.4286  0.0188
 8415SOL     OW26407   0.297   2.640   1.068  0.9050  0.0988 -0.0926
 8415SOL    HW126408   0.238   2.613   1.139  2.3423 -1.3097  0.6496
 8415SOL    HW226409   0.307   2.561   1.015  1.8460  0.4038 -0.3846
 8416SOL     OW26410   4.850   5.233   0.927  0.1687 -0.6761  0.5461
 8416SOL    HW126411   4.853   5.156   0.871 -0.0822 -1.8638  2.1066
 8416SOL    HW226412   4.757   5.251   0.939  0.1581  1.5430 -1.9181
 8417SOL     OW26413   5.247   3.396   8.328  0.9890  0.3913 -0.7721
 8417SOL    HW126414   5.295   3.440   8.399  0.2684 -0.8676  0.5504
 8417SOL    HW226415   5.305   3.325   8.300  0.7968  0.1898 -0.6602
 8418SOL     OW26416   0.826   4.832   2.470 -0.3753 -0.1382 -0.3621
 8418SOL    HW126417   0.744   4.812   2.425 -1.5250  0.0689  1.5227
 8418SOL    HW226418   0.842   4.755   2.525  0.9512 -0.3598 -1.0258
 8419SOL     OW26419   5.203   5.827   3.133  0.1308  0.6253 -0.4574
 8419SOL    HW126420   5.218   5.897   3.070  2.0332  1.5124  0.9125
 8419SOL    HW226421   5.275   5.765   3.119  0.5057  0.7651  0.7234
 8420SOL     OW26422   1.415   1.962   6.629 -0.1164  0.3488  1.3351
 8420SOL    HW126423   1.426   2.024   6.701 -0.2072 -1.9591  3.4501
 8420SOL    HW226424   1.334   1.916   6.649  0.7842 -1.5729  0.7634
 8421SOL     OW26425   0.425   6.033   7.424  0.0407  0.5715 -0.2347
 8421SOL    HW126426   0.500   6.091   7.437 -1.2641  2.1165  0.8892
 8421SOL    HW226427   0.387   6.062   7.341  0.8689 -0.4889 -1.0187
 8422SOL     OW26428   0.381   7.524   7.483  0.4844  0.2229  0.3008
 8422SOL    HW126429   0.427   7.586   7.427 -1.1291  0.5750 -0.6958
 8422SOL    HW226430   0.403   7.438   7.447  0.1552  0.4041 -0.3456
 8423SOL     OW26431   5.034   4.030   8.438 -0.3185  0.2839  0.0685
 8423SOL    HW126432   5.005   3.963   8.376  0.2178 -1.9733  2.0891
 8423SOL    HW226433   5.127   4.042   8.418  0.1283 -1.2402  0.9921
 8424SOL     OW26434   7.162   2.938   3.189 -0.1860 -0.0618 -0.4715
 8424SOL    HW126435   7.256   2.957   3.199  0.1112 -1.0210 -1.3653
 8424SOL    HW226436   7.158   2.867   3.126 -1.4102 -1.3728  1.0039
 8425SOL     OW26437   6.848   5.497   3.859 -0.0044 -0.0963  0.4976
 8425SOL    HW126438   6.785   5.429   3.834  0.3247 -0.7765  1.4464
 8425SOL    HW226439   6.856   5.552   3.781  0.9587 -2.0990 -0.9043
 8426SOL     OW26440   4.215   2.032   4.815 -0.5075  0.1722 -0.1830
 8426SOL    HW126441   4.134   1.990   4.843 -0.3444 -0.0297 -0.0082
 8426SOL    HW226442   4.280   1.961   4.815 -0.4178  0.2510 -0.6936
 8427SOL     OW26443   5.209   4.533   3.596  0.1688  0.0130 -0.6610
 8427SOL    HW126444   5.261   4.509   3.672 -0.1256 -0.5514 -0.6377
 8427SOL    HW226445   5.273   4.568   3.533  0.7740 -1.8251 -1.1232
 8428SOL     OW26446   1.429   1.229   5.815 -0.0458  0.4340 -0.2732
 8428SOL    HW126447   1.423   1.284   5.737 -0.7749  2.7888  1.3383
 8428SOL    HW226448   1.478   1.283   5.877  0.9450 -1.5839  0.7564
 8429SOL     OW26449   5.391   2.744   6.761 -0.0803  0.1231 -0.0336
 8429SOL    HW126450   5.484   2.724   6.751  0.0619  1.0089 -0.6681
 8429SOL    HW226451   5.370   2.715   6.850  0.4401 -1.3952 -0.3819
 8430SOL     OW26452   1.219   7.707   3.853 -0.0929  0.4145 -0.8727
 8430SOL    HW126453   1.131   7.743   3.862  0.2302  0.8547  0.8336
 8430SOL    HW226454   1.273   7.759   3.913  1.0280 -0.8441 -0.7284
 8431SOL     OW26455   3.084   2.081   6.569 -0.1047 -0.1558  0.5037
 8431SOL    HW126456   3.041   2.116   6.646 -0.3041  0.8499 -0.0533
 8431SOL    HW226457   3.014   2.039   6.519 -0.8510  2.8656 -1.2007
 8432SOL     OW26458   3.621   1.675   4.240  0.3167  0.5256  0.4996
 8432SOL    HW126459   3.559   1.683   4.312  1.2123  1.5492  1.1900
 8432SOL    HW226460   3.653   1.585   4.245 -3.1228 -0.9981 -1.6249
 8433SOL     OW26461   1.609   0.416   0.080  0.0177 -0.2000  0.5835
 8433SOL    HW126462   1.514   0.416   0.068  0.1092 -2.3836 -0.6414
 8433SOL    HW226463   1.626   0.346   0.143  0.6884  1.9558  2.9702
 8434SOL     OW26464   8.148   3.419   4.043 -0.3527  0.4036  0.6434
 8434SOL    HW126465   8.102   3.497   4.014 -0.1646  0.8847  1.5875
 8434SOL    HW226466   8.240   3.443   4.040 -0.1443 -0.4821 -1.0285
 8435SOL     OW26467   2.014   1.625   2.395  0.1625  0.5238 -0.2471
 8435SOL    HW126468   1.942   1.596   2.452  0.4411  0.9029  0.3129
 8435SOL    HW226469   2.009   1.721   2.397  0.0854  0.5417 -0.9877
 8436SOL     OW26470   0.226   0.571   2.194  0.5978 -0.1547  0.2290
 8436SOL    HW126471   0.155   0.518   2.231  1.2323 -3.1820 -2.4720
 8436SOL    HW226472   0.181   0.637   2.141 -0.1679  0.7296  1.8853
 8437SOL     OW26473   5.210   7.757   3.976  0.9227 -0.1775  0.1569
 8437SOL    HW126474   5.296   7.775   4.012  1.7173  0.1448 -1.7584
 8437SOL    HW226475   5.152   7.753   4.052  2.5028  0.2161  1.4391
 8438SOL     OW26476   4.571   3.890   6.220 -0.4251  0.3623 -0.0151
 8438SOL    HW126477   4.569   3.985   6.207 -0.3362  0.1190 -2.1055
 8438SOL    HW226478   4.664   3.869   6.228 -0.4686  0.4850  0.9540
 8439SOL     OW26479   0.349   1.904   6.743  0.0958  0.0931  0.5408
 8439SOL    HW126480   0.296   1.983   6.754 -0.3560  0.1010 -1.2922
 8439SOL    HW226481   0.431   1.936   6.704  0.1275 -0.2853  0.2925
 8440SOL     OW26482   1.988   4.830   8.680  0.4844 -0.3240  0.5354
 8440SOL    HW126483   1.915   4.781   8.719 -0.8412  2.2663  1.6041
 8440SOL    HW226484   1.947   4.885   8.614  2.2499 -2.1672 -2.3034
 8441SOL     OW26485   0.877   5.074   7.354  0.3871 -0.0368 -0.0158
 8441SOL    HW126486   0.791   5.032   7.347  0.7992 -1.1782  1.2405
 8441SOL    HW226487   0.857   5.166   7.374 -0.5323  0.3515 -2.3588
 8442SOL     OW26488   6.353   1.466   4.370 -0.1742 -0.6552 -0.7021
 8442SOL    HW126489   6.338   1.527   4.298  1.3257 -1.4223 -1.7261
 8442SOL    HW226490   6.266   1.432   4.392 -1.0935  1.9720  0.0889
 8443SOL     OW26491   4.508   5.626   1.408  0.0171  0.2772  0.4011
 8443SOL    HW126492   4.517   5.585   1.494 -1.5889 -0.9610  0.0143
 8443SOL    HW226493   4.530   5.557   1.346 -1.2850  0.4082 -0.2340
 8444SOL     OW26494   0.209   6.815   2.784  0.5057 -0.5728 -0.4309
 8444SOL    HW126495   0.288   6.843   2.830 -0.9373  1.4770  0.9656
 8444SOL    HW226496   0.193   6.726   2.815  1.4617 -0.4766  0.3796
 8445SOL     OW26497   0.414   5.523   0.477 -0.6975 -0.5452  0.3009
 8445SOL    HW126498   0.329   5.567   0.474 -2.3681 -3.4732  0.3963
 8445SOL    HW226499   0.433   5.501   0.386 -0.5501 -0.7753  0.3859
 8446SOL     OW26500   8.361   0.517   3.271 -0.1810  0.2340 -0.4922
 8446SOL    HW126501   8.350   0.566   3.190  2.5553  0.7019 -0.6737
 8446SOL    HW226502   8.423   0.569   3.322  2.2301 -2.5502 -0.3539
 8447SOL     OW26503   5.932   1.962   1.700 -0.1318 -0.0911 -0.0894
 8447SOL    HW126504   6.019   1.934   1.671  0.3548  0.0036  1.1728
 8447SOL    HW226505   5.950   2.036   1.759 -1.1403  0.5325 -0.5537
 8448SOL     OW26506   2.066   7.966   4.814 -0.0875  0.3024 -0.4915
 8448SOL    HW126507   2.057   7.889   4.757  0.9952 -1.4038  1.5291
 8448SOL    HW226508   1.997   7.955   4.879  0.4210  0.7668  0.1265
 8449SOL     OW26509   4.633   5.943   3.116 -0.2906  0.5833 -0.0828
 8449SOL    HW126510   4.707   5.985   3.072  1.1428 -1.9670 -0.3520
 8449SOL    HW226511   4.606   5.873   3.055 -0.1921 -1.1482  1.7422
 8450SOL     OW26512   4.173   4.786   2.038  0.4443 -0.0227 -0.1488
 8450SOL    HW126513   4.171   4.831   1.954  0.1716  1.9659  0.8788
 8450SOL    HW226514   4.232   4.837   2.093 -0.6027 -0.3405  1.3583
 8451SOL     OW26515   1.109   0.067   3.263 -0.1028  0.0366  0.6706
 8451SOL    HW126516   1.093   0.076   3.169  0.9152  1.0231  0.5716
 8451SOL    HW226517   1.205   0.064   3.271 -0.1068  1.5087  1.7792
 8452SOL     OW26518   7.417   3.783   0.132  0.0807  0.1613 -0.8895
 8452SOL    HW126519   7.474   3.710   0.109 -0.0964  0.0563 -0.9998
 8452SOL    HW226520   7.339   3.770   0.078 -0.1282  0.1941 -0.6016
 8453SOL     OW26521   3.697   6.861   6.405  0.4284  0.6909 -0.3339
 8453SOL    HW126522   3.607   6.856   6.371  0.8314 -0.2791 -1.3407
 8453SOL    HW226523   3.707   6.782   6.457  0.6823  0.8167 -0.1917
 8454SOL     OW26524   1.424   6.518   6.150  0.0919  0.1788 -0.3822
 8454SOL    HW126525   1.374   6.543   6.072 -0.3772  0.2446 -0.0637
 8454SOL    HW226526   1.407   6.587   6.213  1.4078  0.7338 -0.6070
 8455SOL     OW26527   3.419   4.090   2.712  0.1507  1.0309  0.1273
 8455SOL    HW126528   3.477   4.160   2.681 -0.5285  0.8323 -1.7154
 8455SOL    HW226529   3.477   4.031   2.760  0.9642  2.2077  0.6449
 8456SOL     OW26530   8.042   6.562   5.910  0.2214 -0.1273 -0.1596
 8456SOL    HW126531   8.128   6.580   5.948  0.1773  0.8014 -0.4667
 8456SOL    HW226532   8.049   6.474   5.874  0.1739 -1.2089  2.2491
 8457SOL     OW26533   6.804   4.417   4.522  0.1487 -0.5667  0.1683
 8457SOL    HW126534   6.854   4.374   4.453  2.6460 -0.8687  2.0615
 8457SOL    HW226535   6.713   4.393   4.503  0.9176 -2.1179 -1.9735
 8458SOL     OW26536   7.503   1.675   3.026  0.2496  0.2524 -0.5180
 8458SOL    HW126537   7.479   1.587   2.996  0.3736  0.5621 -1.5645
 8458SOL    HW226538   7.579   1.698   2.973  1.7206  0.0616  1.4008
 8459SOL     OW26539   6.804   6.319   7.863  0.4193  0.1644  0.2012
 8459SOL    HW126540   6.822   6.330   7.770  0.4980 -0.1652  0.1770
 8459SOL    HW226541   6.730   6.258   7.867 -0.3690  1.1097  0.3187
 8460SOL     OW26542   2.836   7.693   6.722  0.1068  0.0233 -0.1732
 8460SOL    HW126543   2.913   7.746   6.702 -0.2013  1.8004  2.8072
 8460SOL    HW226544   2.851   7.661   6.811 -1.6207 -1.4837 -0.3536
 8461SOL     OW26545   2.853   1.858   2.264  0.5105 -0.0817  0.1890
 8461SOL    HW126546   2.834   1.951   2.259  1.7897  0.1780 -0.1442
 8461SOL    HW226547   2.944   1.853   2.295  0.2181 -1.2372  0.9600
 8462SOL     OW26548   6.371   6.397   1.747 -0.8192 -0.3974 -0.2207
 8462SOL    HW126549   6.382   6.302   1.751  1.7135 -0.1298  1.2736
 8462SOL    HW226550   6.423   6.424   1.671 -0.0927 -0.0636  0.3875
 8463SOL     OW26551   1.425   0.357   3.845 -0.0408  0.5991 -0.0847
 8463SOL    HW126552   1.411   0.343   3.751  4.6086 -2.3225 -0.6617
 8463SOL    HW226553   1.406   0.273   3.885  0.9371  0.9210  1.1222
 8464SOL     OW26554   4.216   1.113   6.151  0.4234  0.2001  0.2633
 8464SOL    HW126555   4.136   1.092   6.102  1.1679 -1.0419 -0.4836
 8464SOL    HW226556   4.287   1.081   6.095  1.5179  2.1836  0.4348
 8465SOL     OW26557   4.618   0.816   0.115  0.1995 -0.2062 -0.6085
 8465SOL    HW126558   4.580   0.815   0.027  0.1164  0.5116 -0.5805
 8465SOL    HW226559   4.630   0.908   0.135  1.9252 -0.3955 -0.6036
 8466SOL     OW26560   1.337   4.367   5.979  0.2518 -0.1523  0.3498
 8466SOL    HW126561   1.318   4.415   5.899  1.4777 -0.3185 -0.0613
 8466SOL    HW226562   1.433   4.366   5.984  0.1994 -0.0358  1.8806
 8467SOL     OW26563   7.414   6.117   1.356 -0.4555  0.3743  0.0756
 8467SOL    HW126564   7.492   6.082   1.313 -1.5536  0.1954 -1.9150
 8467SOL    HW226565   7.361   6.152   1.284 -1.9971  0.9292  1.4166
 8468SOL     OW26566   6.877   6.226   2.805 -0.2928 -0.6231 -0.1324
 8468SOL    HW126567   6.880   6.149   2.862  1.5985 -0.2230  0.3476
 8468SOL    HW226568   6.921   6.198   2.724  1.4145  0.2496  0.4628
 8469SOL     OW26569   3.120   1.960   0.233  0.4026  0.0046 -0.0517
 8469SOL    HW126570   3.209   1.989   0.251 -0.2921  2.4555 -0.2852
 8469SOL    HW226571   3.066   2.007   0.296 -1.0129  0.8480 -1.8000
 8470SOL     OW26572   6.623   7.519   7.457 -0.0139 -0.7323  0.1993
 8470SOL    HW126573   6.687   7.488   7.521  1.9519 -0.8495 -1.6716
 8470SOL    HW226574   6.676   7.564   7.391 -2.1259  0.9268 -0.4667
 8471SOL     OW26575   0.229   0.453   2.952 -0.3025 -0.0115  0.3613
 8471SOL    HW126576   0.276   0.525   2.993  1.5391 -0.1148 -1.4071
 8471SOL    HW226577   0.237   0.469   2.858 -0.9626 -1.8333 -0.0543
 8472SOL     OW26578   6.705   6.145   6.727 -0.1514  0.9014 -0.1059
 8472SOL    HW126579   6.731   6.153   6.635 -2.5006  2.7622 -0.7356
 8472SOL    HW226580   6.764   6.205   6.774  0.6319  0.4465 -0.4981
 8473SOL     OW26581   6.595   7.537   4.921 -0.1021 -0.2742  0.9069
 8473SOL    HW126582   6.622   7.447   4.901  0.6374 -0.2465  1.6973
 8473SOL    HW226583   6.526   7.527   4.986 -2.3767 -0.3576 -1.3587
 8474SOL     OW26584   6.564   6.577   0.830  0.0806 -0.2090 -0.3988
 8474SOL    HW126585   6.515   6.659   0.844 -1.8762 -1.4596  0.5366
 8474SOL    HW226586   6.583   6.576   0.737 -2.2151  0.0875 -0.9173
 8475SOL     OW26587   0.896   5.309   1.677 -0.2993  0.2238  0.4481
 8475SOL    HW126588   0.878   5.352   1.760  1.1637  0.2498  0.7830
 8475SOL    HW226589   0.813   5.269   1.652 -0.8542  0.5197  1.7344
 8476SOL     OW26590   0.362   3.194   7.467 -0.2487  0.6079 -0.7404
 8476SOL    HW126591   0.348   3.102   7.490 -3.1465  0.7785 -1.4288
 8476SOL    HW226592   0.420   3.227   7.535 -3.2121 -0.4920  2.6500
 8477SOL     OW26593   7.532   2.508   8.266  0.4697 -0.1904 -0.3825
 8477SOL    HW126594   7.460   2.556   8.225 -0.1523 -0.9586 -0.2082
 8477SOL    HW226595   7.606   2.568   8.261 -0.0192  0.3707 -1.1319
 8478SOL     OW26596   7.039   4.248   0.085 -0.4513 -0.1149 -0.1889
 8478SOL    HW126597   7.097   4.208   0.150 -0.2072  0.5202 -0.0062
 8478SOL    HW226598   7.029   4.182   0.017  0.5267 -0.2190 -0.2440
 8479SOL     OW26599   0.043   7.797   4.629 -0.0251 -0.5631 -0.0758
 8479SOL    HW126600   0.059   7.703   4.619 -0.0559 -0.8175  1.8419
 8479SOL    HW226601   0.103   7.824   4.698 -2.1887  0.1197  1.6568
 8480SOL     OW26602   4.059   1.414   7.924 -0.4274 -0.6454 -0.1190
 8480SOL    HW126603   4.113   1.429   7.846 -2.1088  1.5274 -0.9786
 8480SOL    HW226604   4.004   1.339   7.901  0.5830 -1.4011 -0.1393
 8481SOL     OW26605   1.303   7.344   8.561 -0.0311  0.8088  0.0738
 8481SOL    HW126606   1.257   7.414   8.516 -0.3409  0.6919  0.2066
 8481SOL    HW226607   1.395   7.357   8.538 -0.0643  1.3593  0.2377
 8482SOL     OW26608   5.129   2.355   3.800  0.2078 -0.5143  0.2835
 8482SOL    HW126609   5.076   2.276   3.789  2.3512 -1.9972  0.0638
 8482SOL    HW226610   5.165   2.347   3.889  0.1170  0.4515  0.4178
 8483SOL     OW26611   7.121   1.206   8.652  0.1081  0.3600  0.7116
 8483SOL    HW126612   7.136   1.147   8.579 -0.2646  1.6066 -0.3968
 8483SOL    HW226613   7.028   1.197   8.672  0.2521 -0.1449  1.2182
 8484SOL     OW26614   4.689   4.155   7.462 -0.2319  0.1426 -0.0215
 8484SOL    HW126615   4.757   4.109   7.414  0.8898  0.1447  1.4943
 8484SOL    HW226616   4.618   4.167   7.398  1.1819  0.1787 -1.6503
 8485SOL     OW26617   7.022   1.881   8.779  0.1532  0.3283  0.4034
 8485SOL    HW126618   7.083   1.833   8.723  0.0706  0.4553  0.2058
 8485SOL    HW226619   6.952   1.909   8.720  0.7409  1.6403  0.3165
 8486SOL     OW26620   2.514   7.831   0.776  0.1730 -0.2302 -1.0667
 8486SOL    HW126621   2.503   7.897   0.844  1.1914  1.2562 -2.2812
 8486SOL    HW226622   2.429   7.830   0.730  0.2577  0.5013 -1.2512
 8487SOL     OW26623   7.379   3.683   7.012 -0.4082  0.2384  0.0002
 8487SOL    HW126624   7.324   3.663   6.936 -0.6891  0.6141  0.0979
 8487SOL    HW226625   7.329   3.652   7.087 -0.5575  0.7136  0.1016
 8488SOL     OW26626   2.048   4.942   7.693 -0.1194 -0.1018  0.5602
 8488SOL    HW126627   2.058   5.037   7.692 -1.6931  0.0954 -0.0404
 8488SOL    HW226628   1.962   4.927   7.732 -0.1165 -1.2486  0.1909
 8489SOL     OW26629   8.440   2.275   3.964 -0.7825 -0.2190 -0.3024
 8489SOL    HW126630   8.438   2.213   3.891  0.7617 -2.0487  1.0862
 8489SOL    HW226631   8.381   2.237   4.029  0.5066 -0.5345  0.7355
 8490SOL     OW26632   4.133   6.814   6.891  0.3409  0.0099 -0.1185
 8490SOL    HW126633   4.209   6.834   6.837  0.1213 -0.1352 -0.4838
 8490SOL    HW226634   4.170   6.791   6.976  0.6518  0.9975  0.0316
 8491SOL     OW26635   6.484   0.668   8.175  0.2297  0.1164 -0.2327
 8491SOL    HW126636   6.577   0.689   8.184  0.0893  0.7901 -0.3053
 8491SOL    HW226637   6.479   0.616   8.095  0.5362  0.1377 -0.2674
 8492SOL     OW26638   4.818   6.828   4.639 -0.3297 -0.4709 -0.4236
 8492SOL    HW126639   4.791   6.787   4.557  0.0934  0.2610 -0.9303
 8492SOL    HW226640   4.740   6.823   4.694 -1.4183  1.2111 -1.7178
 8493SOL     OW26641   3.361   6.823   5.501 -0.1483  0.0407  0.4652
 8493SOL    HW126642   3.310   6.816   5.582 -0.6716 -1.1516  0.0482
 8493SOL    HW226643   3.445   6.784   5.521 -1.1263 -2.6198 -0.2316
 8494SOL     OW26644   0.466   3.449   8.169  0.1084 -0.3604 -0.0458
 8494SOL    HW126645   0.455   3.496   8.251  1.2556  1.3370 -0.8206
 8494SOL    HW226646   0.466   3.517   8.102  2.6159 -1.3234 -1.1375
 8495SOL     OW26647   4.214   7.753   7.491  0.1757  0.3645  0.7629
 8495SOL    HW126648   4.303   7.766   7.457  0.6481 -0.3555  1.6867
 8495SOL    HW226649   4.195   7.834   7.538  0.3269  0.5414  0.5216
 8496SOL     OW26650   5.001   0.445   6.888  0.4127 -0.5435 -0.9878
 8496SOL    HW126651   4.975   0.523   6.839  1.9222  0.4082 -0.3189
 8496SOL    HW226652   5.088   0.465   6.923 -0.1585 -1.5532  1.2474
 8497SOL     OW26653   6.766   1.433   0.509 -1.0481 -0.1395  0.0620
 8497SOL    HW126654   6.735   1.521   0.533 -0.0700 -0.0773  1.2378
 8497SOL    HW226655   6.850   1.425   0.555 -0.1771 -0.9514 -1.5926
 8498SOL     OW26656   0.641   6.574   0.332 -0.2393  0.3447 -0.4396
 8498SOL    HW126657   0.700   6.506   0.366  0.4294  0.7368 -0.7939
 8498SOL    HW226658   0.567   6.573   0.392  0.8797  0.9675  1.0279
 8499SOL     OW26659   4.086   4.906   5.289  0.3673 -0.1102  0.1808
 8499SOL    HW126660   4.086   4.846   5.364 -0.2761  1.3574  1.3929
 8499SOL    HW226661   4.178   4.910   5.262  0.8666  0.4767  1.8496
 8500SOL     OW26662   0.576   3.228   8.317 -0.4867  0.1985 -0.5764
 8500SOL    HW126663   0.661   3.210   8.275 -1.7878 -1.2750 -2.8306
 8500SOL    HW226664   0.544   3.306   8.272 -0.7724  0.1288 -0.4933
 8501SOL     OW26665   3.604   2.675   5.091  0.8607 -0.1702  0.0908
 8501SOL    HW126666   3.617   2.726   5.011  0.9256  0.8916  0.7707
 8501SOL    HW226667   3.559   2.734   5.151 -0.1842 -1.3119  0.4743
 8502SOL     OW26668   2.873   6.302   0.557  0.1048 -0.3201 -0.0356
 8502SOL    HW126669   2.949   6.349   0.523  1.2470 -0.9398  1.5676
 8502SOL    HW226670   2.804   6.320   0.493  1.2979  1.0977 -1.0011
 8503SOL     OW26671   2.803   5.830   8.371  0.0885  0.1070  0.1224
 8503SOL    HW126672   2.795   5.869   8.458  0.9715  0.5860  0.0022
 8503SOL    HW226673   2.770   5.898   8.311 -0.7537 -0.3161  0.0907
 8504SOL     OW26674   0.384   6.153   6.353  0.4196 -0.8890  0.4441
 8504SOL    HW126675   0.294   6.144   6.322 -0.1820  0.7739  1.6069
 8504SOL    HW226676   0.428   6.204   6.285 -0.5733  1.6526  1.5642
 8505SOL     OW26677   6.870   0.878   4.948  0.0307  0.2987 -0.4101
 8505SOL    HW126678   6.912   0.856   4.865 -0.3186 -0.6412 -0.3518
 8505SOL    HW226679   6.942   0.893   5.009  0.2858  0.7500 -0.8166
 8506SOL     OW26680   5.268   0.388   0.146  0.0207  0.4158  0.5603
 8506SOL    HW126681   5.229   0.343   0.221  0.5250 -2.1527 -0.6203
 8506SOL    HW226682   5.193   0.414   0.092 -0.2536  0.4722  0.9621
 8507SOL     OW26683   3.132   5.641   6.642 -0.0908  0.0612 -0.2467
 8507SOL    HW126684   3.208   5.698   6.631  1.4346 -1.8292 -0.0404
 8507SOL    HW226685   3.093   5.669   6.725 -0.1503  1.5955 -0.7585
 8508SOL     OW26686   4.311   5.650   8.591 -0.0934  0.2214 -0.2650
 8508SOL    HW126687   4.309   5.686   8.502  0.0062 -1.7365 -1.1166
 8508SOL    HW226688   4.276   5.720   8.646 -1.8426  0.8826 -2.0816
 8509SOL     OW26689   3.886   4.818   6.155 -0.0067  0.3775 -0.2412
 8509SOL    HW126690   3.824   4.871   6.204 -1.2421 -1.6350  0.4894
 8509SOL    HW226691   3.959   4.805   6.216  0.0500  0.7455 -0.2257
 8510SOL     OW26692   4.074   3.430   6.581  0.1747  0.2975  0.2241
 8510SOL    HW126693   4.065   3.506   6.524  0.5507  0.0677 -0.1423
 8510SOL    HW226694   3.984   3.411   6.609 -0.0941  0.0524 -0.7656
 8511SOL     OW26695   5.209   2.928   1.856 -0.0427  0.4196 -0.2578
 8511SOL    HW126696   5.169   2.962   1.936  0.9597 -0.1079  0.4896
 8511SOL    HW226697   5.301   2.954   1.862  0.1555 -0.0777 -0.9852
 8512SOL     OW26698   5.542   2.916   0.402 -0.4903  0.6174  0.0108
 8512SOL    HW126699   5.470   2.890   0.345 -0.7065 -0.2150  0.6425
 8512SOL    HW226700   5.617   2.927   0.343 -0.7733  0.0387 -0.4592
 8513SOL     OW26701   6.090   7.348   0.481 -0.2811  0.2691 -0.4271
 8513SOL    HW126702   6.079   7.397   0.562 -3.3639  0.0764 -0.6060
 8513SOL    HW226703   6.184   7.332   0.475 -0.0119 -0.6074  3.6014
 8514SOL     OW26704   7.583   8.669   1.730 -0.2904 -0.0816  0.2001
 8514SOL    HW126705   7.630   8.641   1.808 -1.6046  0.7815  1.3615
 8514SOL    HW226706   7.506   8.612   1.726 -0.7818  0.5645  0.1696
 8515SOL     OW26707   2.653   6.056   4.178 -0.2522  0.2353 -0.4331
 8515SOL    HW126708   2.639   6.033   4.270 -1.1062  0.8274 -0.4049
 8515SOL    HW226709   2.668   6.151   4.178 -0.7951  0.3324 -0.9487
 8516SOL     OW26710   1.548   8.758   1.946 -0.3650  0.0638 -0.4210
 8516SOL    HW126711   1.556   8.815   2.023 -0.4943 -0.1976 -0.2107
 8516SOL    HW226712   1.605   8.683   1.967 -2.1891 -1.1619  0.4810
 8517SOL     OW26713   8.833   4.605   1.209  1.0107 -0.1147 -0.3347
 8517SOL    HW126714   8.780   4.569   1.138 -0.5216  0.3825  0.4932
 8517SOL    HW226715   8.875   4.682   1.170 -0.9019  0.9772 -0.4084
 8518SOL     OW26716   6.696   5.507   4.481 -0.0162 -0.6925 -0.1786
 8518SOL    HW126717   6.746   5.588   4.491 -0.9736 -0.1559  0.4243
 8518SOL    HW226718   6.608   5.536   4.454  0.2515 -1.6730 -2.3430
 8519SOL     OW26719   3.943   5.112   5.541 -0.2518 -0.3543  1.1310
 8519SOL    HW126720   4.020   5.134   5.489 -2.1100  1.8924 -0.8941
 8519SOL    HW226721   3.921   5.023   5.515 -0.1702  0.1336 -0.7512
 8520SOL     OW26722   1.105   4.067   1.249 -0.5875 -0.0461  0.1452
 8520SOL    HW126723   1.093   4.080   1.155 -2.0719  1.2853  0.4710
 8520SOL    HW226724   1.189   4.108   1.269  0.4959 -1.6931 -0.8097
 8521SOL     OW26725   8.153   7.267   0.254  0.4296  0.3581  0.2001
 8521SOL    HW126726   8.238   7.225   0.239 -0.0908 -2.2006  3.4060
 8521SOL    HW226727   8.090   7.208   0.212  0.0344  0.7153  0.2945
 8522SOL     OW26728   0.734   1.954   5.885  0.0781  0.0575 -0.2187
 8522SOL    HW126729   0.688   1.984   5.962  0.3179  2.8545 -1.0570
 8522SOL    HW226730   0.665   1.940   5.820  0.1488  2.9522 -1.0615
 8523SOL     OW26731   8.408   7.047   6.277  0.4180  0.1699  0.1133
 8523SOL    HW126732   8.428   6.981   6.211 -0.7510  1.2409 -1.3749
 8523SOL    HW226733   8.326   7.018   6.316 -0.6052  1.1708 -1.2081
 8524SOL     OW26734   4.049   5.883   1.940 -0.1345 -0.0942  0.0891
 8524SOL    HW126735   4.066   5.855   1.851 -2.4868  2.1249 -1.1968
 8524SOL    HW226736   3.959   5.857   1.957  0.1483 -0.1309  1.6789
 8525SOL     OW26737   3.139   2.688   0.044 -0.1517 -0.3428  0.1009
 8525SOL    HW126738   3.193   2.674   0.121  0.5983  0.6652 -0.2364
 8525SOL    HW226739   3.066   2.742   0.074  0.2357  0.1991  0.0611
 8526SOL     OW26740   6.961   6.436   8.075 -0.2152  0.0667  0.4135
 8526SOL    HW126741   6.952   6.368   8.142  0.8177  0.0455  0.5611
 8526SOL    HW226742   6.938   6.393   7.993  1.6636 -0.8884  0.3123
 8527SOL     OW26743   1.412   1.405   1.081  0.1738 -0.1422  0.0877
 8527SOL    HW126744   1.459   1.350   1.142  0.3014 -0.7126 -0.5132
 8527SOL    HW226745   1.323   1.370   1.080 -0.4954  1.3629  1.7486
 8528SOL     OW26746   6.390   4.483   3.383  0.4016 -0.2062  0.2305
 8528SOL    HW126747   6.375   4.575   3.407 -0.7374 -0.3909  0.2478
 8528SOL    HW226748   6.448   4.450   3.451  0.8243  0.4992  0.2225
 8529SOL     OW26749   2.493   8.109   5.158 -0.2625 -0.1243  0.5400
 8529SOL    HW126750   2.437   8.152   5.223 -1.1036 -0.5982  0.1485
 8529SOL    HW226751   2.533   8.037   5.206 -1.5429 -0.9968  0.3529
 8530SOL     OW26752   7.584   0.637   6.329 -0.1162  0.6367 -0.3422
 8530SOL    HW126753   7.612   0.559   6.283  0.0802  1.2715 -1.3253
 8530SOL    HW226754   7.550   0.605   6.413  0.2143 -0.4613 -0.6163
 8531SOL     OW26755   8.535   2.659   2.823 -0.1264 -0.4650 -0.6908
 8531SOL    HW126756   8.448   2.634   2.792 -0.3187 -2.2394  1.1018
 8531SOL    HW226757   8.523   2.674   2.917  1.2498  0.5920 -0.6592
 8532SOL     OW26758   3.880   3.541   4.185 -0.6293 -0.0428 -0.1117
 8532SOL    HW126759   3.868   3.614   4.246  1.5320  0.7749 -0.5743
 8532SOL    HW226760   3.848   3.464   4.232  0.0525  0.7297  1.6812
 8533SOL     OW26761   7.197   8.326   4.397 -0.3839 -0.2848 -0.3317
 8533SOL    HW126762   7.275   8.272   4.406 -1.1497 -1.7061 -1.6526
 8533SOL    HW226763   7.214   8.380   4.320  0.3371  1.3807  0.9249
 8534SOL     OW26764   6.253   3.933   5.411  0.7454  0.0973  0.7468
 8534SOL    HW126765   6.297   3.922   5.327 -1.0249 -0.8145 -0.1058
 8534SOL    HW226766   6.160   3.918   5.392  0.0229  1.8764  2.4714
 8535SOL     OW26767   5.106   5.443   2.606  0.4683 -0.4597 -0.1207
 8535SOL    HW126768   5.124   5.505   2.677 -0.8502  2.2847 -2.0253
 8535SOL    HW226769   5.019   5.409   2.627  0.1244  0.2669 -0.3399
 8536SOL     OW26770   2.565   7.178   1.641  0.2698  0.0138  0.4703
 8536SOL    HW126771   2.511   7.099   1.643  1.0329 -0.5577 -0.6344
 8536SOL    HW226772   2.536   7.226   1.564  0.8365  0.0535  0.2759
 8537SOL     OW26773   5.017   5.953   6.318  0.3702 -0.2369  0.1372
 8537SOL    HW126774   5.099   6.002   6.311 -0.2793  0.8582 -0.0459
 8537SOL    HW226775   4.949   6.020   6.316 -0.5354 -1.1281  0.3091
 8538SOL     OW26776   5.656   3.413   7.888  0.3305 -0.2671 -0.2574
 8538SOL    HW126777   5.717   3.454   7.949  1.7107 -0.1594 -1.6499
 8538SOL    HW226778   5.710   3.351   7.838 -0.5862  0.1864 -1.8780
 8539SOL     OW26779   4.429   6.958   3.014  0.0362 -0.1387  0.8179
 8539SOL    HW126780   4.338   6.973   3.041  0.6455  0.0551  2.9028
 8539SOL    HW226781   4.468   6.908   3.085  0.9930 -2.3630 -1.1146
 8540SOL     OW26782   7.848   4.493   2.653  0.3973 -0.2122 -0.3490
 8540SOL    HW126783   7.774   4.432   2.651 -0.4943  0.8329 -0.6028
 8540SOL    HW226784   7.813   4.571   2.696  2.0308 -0.4980  1.6403
 8541SOL     OW26785   5.280   1.875   6.148 -0.4661 -0.1212 -0.4892
 8541SOL    HW126786   5.273   1.943   6.215 -1.4294 -1.2291  0.5812
 8541SOL    HW226787   5.296   1.923   6.067 -1.5309  1.4027  0.1610
 8542SOL     OW26788   7.099   4.968   8.371 -0.0844  0.3293 -0.3680
 8542SOL    HW126789   7.097   5.051   8.322  2.9030  0.9082  0.3068
 8542SOL    HW226790   7.189   4.937   8.362 -0.8078 -2.2164  0.4904
 8543SOL     OW26791   5.222   8.093   3.556 -0.5108 -0.2046 -0.0862
 8543SOL    HW126792   5.203   8.067   3.646  1.6757 -1.4149  0.0959
 8543SOL    HW226793   5.296   8.039   3.530 -0.9694  0.2154 -2.5912
 8544SOL     OW26794   7.904   2.587   1.892  0.1487  0.0100 -0.2934
 8544SOL    HW126795   7.823   2.615   1.934  0.8769  1.1606  0.3926
 8544SOL    HW226796   7.877   2.514   1.835 -1.2676  0.0429  0.2829
 8545SOL     OW26797   8.829   8.307   4.871 -0.4848 -0.2209  0.2923
 8545SOL    HW126798   8.753   8.333   4.923 -1.2543 -2.7160  0.5369
 8545SOL    HW226799   8.898   8.292   4.935  0.5271  2.6934  0.0240
 8546SOL     OW26800   6.653   0.667   6.734  0.1880 -0.9516 -0.3187
 8546SOL    HW126801   6.688   0.748   6.699 -1.2255 -0.9960 -1.9099
 8546SOL    HW226802   6.632   0.688   6.825 -0.4988  0.5838 -0.7988
 8547SOL     OW26803   8.160   7.262   3.895  0.5886 -0.0637  0.4426
 8547SOL    HW126804   8.201   7.339   3.855 -0.1470 -0.3922 -1.0545
 8547SOL    HW226805   8.081   7.248   3.843 -0.3157 -0.6888  1.9191
 8548SOL     OW26806   8.546   3.507   8.739  0.4714 -0.5101  0.0325
 8548SOL    HW126807   8.533   3.600   8.756  1.8692 -0.1219 -0.8624
 8548SOL    HW226808   8.494   3.489   8.661  2.6847  0.3415 -1.7628
 8549SOL     OW26809   1.022   7.300   5.338 -0.0932 -0.3019 -0.0076
 8549SOL    HW126810   0.930   7.325   5.330 -0.4546 -1.4363  0.4312
 8549SOL    HW226811   1.070   7.382   5.329 -1.1814  0.3940  0.3980
 8550SOL     OW26812   6.676   1.007   0.859  0.1658 -0.3387 -0.3678
 8550SOL    HW126813   6.713   0.934   0.910  1.0132 -0.4816 -1.1465
 8550SOL    HW226814   6.709   1.086   0.901 -0.2301 -0.4179  0.0962
 8551SOL     OW26815   2.252   6.083   3.489  0.5223  0.3753  0.0538
 8551SOL    HW126816   2.238   6.125   3.574 -0.9428  0.0213  0.0278
 8551SOL    HW226817   2.209   5.997   3.499 -1.3015  1.0223 -1.5928
 8552SOL     OW26818   5.250   0.028   1.705  0.6930  0.0351  0.2574
 8552SOL    HW126819   5.246   0.007   1.798  2.2836 -1.9236 -0.0378
 8552SOL    HW226820   5.203  -0.044   1.662  2.0586 -0.4138 -0.5508
 8553SOL     OW26821   0.633   5.531   7.915  0.0270  0.0126 -0.0817
 8553SOL    HW126822   0.710   5.490   7.876 -1.2024 -1.2992 -1.2993
 8553SOL    HW226823   0.580   5.558   7.839 -1.8668 -1.4687  0.6213
 8554SOL     OW26824   7.696   3.892   6.628  0.0654 -0.2691 -0.0318
 8554SOL    HW126825   7.788   3.904   6.652  0.5831  0.2741 -2.0896
 8554SOL    HW226826   7.654   3.860   6.708  2.0038 -0.3810  0.9957
 8555SOL     OW26827   3.480   6.336   4.991  0.2464 -0.3223  0.3738
 8555SOL    HW126828   3.432   6.415   4.964  1.1228 -0.2083 -0.9671
 8555SOL    HW226829   3.518   6.359   5.076  0.4214  0.6901  0.0388
 8556SOL     OW26830   0.249   1.067   3.518  0.2155 -0.1619 -0.4690
 8556SOL    HW126831   0.235   1.076   3.424  1.2253 -0.5387 -0.6619
 8556SOL    HW226832   0.264   0.973   3.531  0.5958 -0.0395 -0.0113
 8557SOL     OW26833   2.258   3.013   7.050 -0.2956 -0.5748  0.1590
 8557SOL    HW126834   2.288   3.077   7.114  3.5811 -1.1159 -0.8623
 8557SOL    HW226835   2.277   3.054   6.965 -1.3336 -1.5861 -0.5905
 8558SOL     OW26836   0.963   8.811   2.972 -0.4573 -0.1092 -0.6689
 8558SOL    HW126837   0.907   8.887   2.988 -1.7087 -0.6534 -2.1986
 8558SOL    HW226838   0.932   8.745   3.034  0.2629  0.4209  0.2812
 8559SOL     OW26839   5.432   6.443   7.834 -0.0741 -0.3649 -0.5683
 8559SOL    HW126840   5.476   6.456   7.751 -0.5455  0.3487 -0.7170
 8559SOL    HW226841   5.349   6.401   7.811  0.4151 -1.5106 -0.3115
 8560SOL     OW26842   5.591   1.310   7.238 -0.1430 -0.0381 -0.2409
 8560SOL    HW126843   5.659   1.320   7.304 -0.0490 -1.5623 -0.0576
 8560SOL    HW226844   5.637   1.276   7.161 -0.3651  1.0446 -0.8776
 8561SOL     OW26845   1.606   7.178   1.648  0.0124 -0.4309  0.3956
 8561SOL    HW126846   1.693   7.141   1.662 -0.2615 -1.6444 -0.9198
 8561SOL    HW226847   1.599   7.189   1.553 -0.5561  1.5068  0.6179
 8562SOL     OW26848   1.588   0.102   3.538  0.4116 -0.1202  0.5133
 8562SOL    HW126849   1.679   0.105   3.507  0.1407 -0.4560 -0.3178
 8562SOL    HW226850   1.591   0.041   3.612  0.5820 -1.4327 -0.5363
 8563SOL     OW26851   0.123   6.355   6.864  0.0311  0.0679 -0.0173
 8563SOL    HW126852   0.198   6.404   6.898  0.1543  0.3941 -0.7407
 8563SOL    HW226853   0.061   6.423   6.835  1.0747 -0.1187 -2.9841
 8564SOL     OW26854   2.429   0.141   6.477  0.1672 -0.4047 -0.7423
 8564SOL    HW126855   2.475   0.206   6.423 -0.0240 -1.0329 -1.6847
 8564SOL    HW226856   2.359   0.191   6.520  2.4985  0.9013  1.8647
 8565SOL     OW26857   3.356   5.306   4.037  0.0713 -0.2080 -0.0728
 8565SOL    HW126858   3.432   5.248   4.040 -0.1694 -0.4840  1.8750
 8565SOL    HW226859   3.386   5.388   4.076 -0.8273 -0.6094  1.5318
 8566SOL     OW26860   4.057   8.037   2.742  0.0150  0.4327  0.0574
 8566SOL    HW126861   4.019   7.998   2.663  0.8270  1.8657 -1.0995
 8566SOL    HW226862   4.129   7.979   2.765 -0.9027 -0.5971  0.4295
 8567SOL     OW26863   7.590   2.411   0.159  0.0815  0.4677 -0.0177
 8567SOL    HW126864   7.647   2.364   0.099 -1.8119 -2.2450  0.1190
 8567SOL    HW226865   7.581   2.498   0.120  1.3921 -0.1967 -1.9542
 8568SOL     OW26866   5.702   0.073   6.053 -0.2817 -0.5451 -0.1341
 8568SOL    HW126867   5.681   0.141   6.118  1.4264 -0.1573  0.0705
 8568SOL    HW226868   5.650   0.097   5.976  0.0700  0.8629  0.0290
 8569SOL     OW26869   3.335   6.433   0.370 -0.0857  0.0519  0.2676
 8569SOL    HW126870   3.379   6.391   0.444  1.3550 -3.4750 -2.3078
 8569SOL    HW226871   3.396   6.500   0.341  1.2364 -1.2613 -0.0881
 8570SOL     OW26872   7.061   5.771   4.057  0.1909 -0.0469 -0.2224
 8570SOL    HW126873   7.027   5.744   4.142 -3.5924  1.1466 -1.1675
 8570SOL    HW226874   7.075   5.690   4.009 -0.3487 -0.6365  0.5953
 8571SOL     OW26875   4.036   2.496   0.120 -0.5216 -0.8744 -0.2352
 8571SOL    HW126876   4.035   2.496   0.215  0.7937 -2.6015 -0.1913
 8571SOL    HW226877   4.052   2.588   0.097  1.5512 -0.7774  1.2852
 8572SOL     OW26878   2.433   1.900   3.175 -0.4425 -0.3279 -0.1827
 8572SOL    HW126879   2.437   1.909   3.270  0.3979  1.6017 -0.3514
 8572SOL    HW226880   2.500   1.836   3.154  0.2209  0.1440  0.4398
 8573SOL     OW26881   3.623   1.675   0.514  0.1649  0.3304  0.0196
 8573SOL    HW126882   3.606   1.762   0.478  1.3998  0.7786  0.4605
 8573SOL    HW226883   3.554   1.661   0.579 -0.4544  0.6738 -0.5615
 8574SOL     OW26884   4.930   5.996   8.828 -0.1125  0.3673 -0.1497
 8574SOL    HW126885   4.939   6.049   8.907  0.0614 -0.2919  0.2874
 8574SOL    HW226886   4.842   6.015   8.796  0.5856  2.3191 -1.0623
 8575SOL     OW26887   7.439   5.819   3.989  0.3882 -0.4748  0.0102
 8575SOL    HW126888   7.494   5.879   3.940  0.8545  0.2228  1.3181
 8575SOL    HW226889   7.349   5.850   3.972  0.4484 -0.9846 -1.3131
 8576SOL     OW26890   3.420   7.820   2.515 -0.5059 -0.1921  0.1037
 8576SOL    HW126891   3.453   7.732   2.497  0.6503  0.1203  0.5840
 8576SOL    HW226892   3.448   7.872   2.440 -1.2708 -0.2412 -0.2246
 8577SOL     OW26893   2.306   4.158   0.362 -0.0955  0.4644 -0.2262
 8577SOL    HW126894   2.369   4.162   0.289  0.0094 -0.8023 -0.2361
 8577SOL    HW226895   2.226   4.195   0.327  0.1431  0.4571 -0.7920
 8578SOL     OW26896   7.750   8.441   0.113  0.5000  0.3899  0.5916
 8578SOL    HW126897   7.745   8.530   0.148 -1.7617  0.9418 -0.9383
 8578SOL    HW226898   7.758   8.453   0.018 -2.8679 -0.8997 -0.0012
 8579SOL     OW26899   4.952   8.659   7.002 -0.0037 -0.0260 -0.5975
 8579SOL    HW126900   4.969   8.738   7.054 -1.5238  0.1068 -0.2701
 8579SOL    HW226901   5.005   8.670   6.924  0.5956  0.8285 -0.0860
 8580SOL     OW26902   0.063   3.641   0.080  0.4102  0.0112  0.0779
 8580SOL    HW126903  -0.011   3.699   0.096  0.8399  0.5052  0.3078
 8580SOL    HW226904   0.107   3.634   0.165  0.4315 -0.5591  0.0266
 8581SOL     OW26905   7.847   6.291   2.931 -0.1823 -0.3782  0.1864
 8581SOL    HW126906   7.924   6.330   2.972  0.3136 -0.2084 -0.8801
 8581SOL    HW226907   7.875   6.204   2.903  0.1770  0.3088 -1.7425
 8582SOL     OW26908   3.610   8.453   5.110 -0.2666 -0.2066 -0.5353
 8582SOL    HW126909   3.567   8.407   5.038 -0.6079  1.1433 -1.2256
 8582SOL    HW226910   3.658   8.385   5.157  0.6237 -1.0102 -2.5156
 8583SOL     OW26911   4.067   3.207   8.479  0.1714 -0.4475 -0.2362
 8583SOL    HW126912   4.157   3.179   8.462  0.1027  0.0092 -1.4350
 8583SOL    HW226913   4.030   3.224   8.392 -0.4250  1.3174  0.3151
 8584SOL     OW26914   2.118   0.718   6.115  0.2326 -0.0281 -0.0598
 8584SOL    HW126915   2.111   0.623   6.126 -0.1324  0.0014 -0.0197
 8584SOL    HW226916   2.074   0.754   6.191 -0.8436  0.1714 -0.7487
 8585SOL     OW26917   5.130   7.006   8.599 -0.3099  0.0395 -0.0171
 8585SOL    HW126918   5.200   7.021   8.662  0.6202 -0.3721 -0.9217
 8585SOL    HW226919   5.129   7.085   8.545  1.5577 -1.1102 -1.9238
 8586SOL     OW26920   0.979   1.316   3.923 -0.5747  0.9017 -0.2721
 8586SOL    HW126921   1.051   1.254   3.935  0.5781  2.2103 -0.2313
 8586SOL    HW226922   0.968   1.357   4.009 -2.4757 -0.3819  0.1660
 8587SOL     OW26923   8.446   1.023   4.487 -0.3135 -0.2576  0.6400
 8587SOL    HW126924   8.537   1.022   4.517 -0.4033  0.5369  0.9621
 8587SOL    HW226925   8.415   1.111   4.507 -1.9072 -1.2190  2.8605
 8588SOL     OW26926   2.077   2.994   7.878 -0.1946 -0.0088 -0.2301
 8588SOL    HW126927   2.159   2.982   7.926 -0.5438  0.3654  0.4686
 8588SOL    HW226928   2.086   2.938   7.801  1.4453  1.3111 -1.0688
 8589SOL     OW26929   5.316   4.411   4.666 -0.5649 -0.2718 -0.3002
 8589SOL    HW126930   5.223   4.396   4.682 -0.4295  0.7868  2.0148
 8589SOL    HW226931   5.358   4.328   4.687 -0.9175 -0.4919 -0.4699
 8590SOL     OW26932   1.025   1.931   2.001 -0.1358 -0.0586  0.2662
 8590SOL    HW126933   1.019   2.018   2.042 -0.7250 -0.1354  0.3458
 8590SOL    HW226934   1.038   1.871   2.075 -0.4245 -0.1131  0.2730
 8591SOL     OW26935   1.491   2.376   2.238  0.2670 -0.5146  0.1078
 8591SOL    HW126936   1.404   2.367   2.199  0.4566 -0.6336 -0.2989
 8591SOL    HW226937   1.502   2.297   2.291  0.3390 -0.7606 -0.2705
 8592SOL     OW26938   2.689   1.300   0.762  0.0966 -0.5851 -0.2784
 8592SOL    HW126939   2.658   1.211   0.782 -0.3557 -0.2112  0.7378
 8592SOL    HW226940   2.778   1.288   0.730  0.6081 -1.2741  1.3500
 8593SOL     OW26941   7.982   0.373   5.236 -0.4093 -0.4224 -0.2896
 8593SOL    HW126942   7.919   0.326   5.180  2.5839 -2.1561 -2.4781
 8593SOL    HW226943   8.006   0.309   5.304  0.6793 -0.6603 -0.8753
 8594SOL     OW26944   6.056   5.212   1.156  0.0705 -0.6252  0.1581
 8594SOL    HW126945   6.040   5.302   1.186  0.4241 -0.9923  1.5265
 8594SOL    HW226946   5.972   5.183   1.122 -0.3749 -0.1763  0.8416
 8595SOL     OW26947   2.782   1.184   5.238 -0.1826 -0.4498 -0.1890
 8595SOL    HW126948   2.722   1.175   5.312  0.5462 -1.8924  0.2737
 8595SOL    HW226949   2.765   1.107   5.183  0.1113 -0.0221 -0.8898
 8596SOL     OW26950   1.962   6.232   3.655 -0.2089 -0.5351  0.4924
 8596SOL    HW126951   1.975   6.305   3.594  0.8508 -1.1587 -0.0503
 8596SOL    HW226952   2.050   6.202   3.676 -0.6204 -1.3861  1.0488
 8597SOL     OW26953   8.424   1.124   7.631 -0.2577  0.6265  0.1070
 8597SOL    HW126954   8.497   1.067   7.604 -1.0190 -0.3182 -0.0144
 8597SOL    HW226955   8.350   1.095   7.578 -0.8431  1.2677  0.5594
 8598SOL     OW26956   4.080   6.594   5.724 -0.1605 -0.3891  0.0861
 8598SOL    HW126957   4.132   6.674   5.727 -0.7467 -0.0138  0.4450
 8598SOL    HW226958   4.138   6.525   5.756  1.8067 -0.9546 -4.0042
 8599SOL     OW26959   6.331   6.183   3.057 -0.1668 -0.0617 -0.9428
 8599SOL    HW126960   6.310   6.112   2.997 -0.4995  0.2104 -1.1530
 8599SOL    HW226961   6.359   6.255   3.000  2.4345 -0.7396 -0.6588
 8600SOL     OW26962   3.558   8.024   4.261  0.0881  0.1810 -0.5494
 8600SOL    HW126963   3.532   7.934   4.279  1.8116 -0.0945  0.8295
 8600SOL    HW226964   3.653   8.020   4.252  0.1002  1.7199 -1.4872
 8601SOL     OW26965   3.493   4.592   7.736  0.0826 -0.0014  0.0959
 8601SOL    HW126966   3.532   4.663   7.788  2.2004 -0.2535 -1.0091
 8601SOL    HW226967   3.420   4.633   7.690 -0.1749  0.8703  1.2493
 8602SOL     OW26968   2.399   1.073   6.777 -0.8010 -0.0969 -0.1523
 8602SOL    HW126969   2.447   1.139   6.728 -0.6349 -0.1359 -0.0441
 8602SOL    HW226970   2.457   0.998   6.780 -0.7439 -0.0431  0.2326
 8603SOL     OW26971   2.282   8.063   3.570 -0.5914 -0.1253 -0.8804
 8603SOL    HW126972   2.357   8.123   3.569  0.7307 -1.6963 -1.3736
 8603SOL    HW226973   2.209   8.117   3.600  0.3864  1.8590 -1.8405
 8604SOL     OW26974   0.373   0.535   5.074 -0.5869 -0.3449  0.3279
 8604SOL    HW126975   0.438   0.543   5.004 -0.5512 -1.6022  0.1957
 8604SOL    HW226976   0.396   0.453   5.119 -1.9200 -0.6790  0.4420
 8605SOL     OW26977   5.720   2.795   1.480  0.0962  0.0892  0.8747
 8605SOL    HW126978   5.767   2.726   1.433  0.4218  2.3793 -2.5292
 8605SOL    HW226979   5.775   2.813   1.556  2.0357 -0.7802 -0.2441
 8606SOL     OW26980   0.697   7.908   1.116  0.2269 -0.5814  0.1385
 8606SOL    HW126981   0.612   7.926   1.077  0.0283 -0.8767  0.4317
 8606SOL    HW226982   0.679   7.900   1.210  0.7811  0.6801  0.3678
 8607SOL     OW26983   2.972   7.795   6.260 -0.4603  0.1669 -0.5875
 8607SOL    HW126984   2.976   7.759   6.171 -0.5489 -0.4849 -0.3315
 8607SOL    HW226985   2.916   7.734   6.308 -0.5958  0.6412 -0.1386
 8608SOL     OW26986   1.027   6.050   6.108  0.1505 -0.5775  0.0297
 8608SOL    HW126987   0.931   6.045   6.115  0.2163 -1.3976  0.4942
 8608SOL    HW226988   1.045   6.024   6.018 -0.1108  0.5439 -0.3663
 8609SOL     OW26989   4.506   6.948   8.568 -0.5819  0.1405  0.1655
 8609SOL    HW126990   4.563   6.894   8.624 -0.7265 -0.2918 -0.1037
 8609SOL    HW226991   4.462   7.008   8.629 -0.2324  0.1257  0.4360
 8610SOL     OW26992   6.927   6.222   6.241  0.6676 -0.1499 -0.2066
 8610SOL    HW126993   6.988   6.150   6.225  0.0372 -0.7577  0.0521
 8610SOL    HW226994   6.978   6.301   6.224  1.0990 -0.6718 -1.4521
 8611SOL     OW26995   1.247   3.216   2.131 -0.3899 -0.0824 -0.0638
 8611SOL    HW126996   1.195   3.135   2.130  0.1498 -0.4520  0.7341
 8611SOL    HW226997   1.185   3.283   2.159 -0.7301 -0.3096 -0.2665
 8612SOL     OW26998   2.926   7.228   6.786 -0.0071 -0.0227 -0.1133
 8612SOL    HW126999   2.959   7.314   6.812 -2.3201  0.3144  2.1649
 8612SOL    HW227000   2.892   7.241   6.698 -0.1038  1.3786  0.1050
 8613SOL     OW27001   2.561   2.205   0.905  1.0807 -0.0947 -0.2949
 8613SOL    HW127002   2.645   2.210   0.950  1.5122 -1.0762 -0.9655
 8613SOL    HW227003   2.576   2.145   0.832 -0.1919 -0.2592 -0.4440
 8614SOL     OW27004   8.141   5.385   7.118  0.1871  0.2222 -1.1954
 8614SOL    HW127005   8.134   5.474   7.154  0.0707 -0.3167  0.1957
 8614SOL    HW227006   8.108   5.393   7.029 -1.1056  1.3321 -0.6674
 8615SOL     OW27007   6.258   0.743   4.734  0.1293 -0.2731 -0.2663
 8615SOL    HW127008   6.279   0.682   4.664  0.8447  0.4736 -0.7278
 8615SOL    HW227009   6.196   0.804   4.695 -0.2451 -0.4480  0.0573
 8616SOL     OW27010   2.780   8.007   8.150  0.3028  0.3866 -0.0167
 8616SOL    HW127011   2.755   8.099   8.140 -0.2729  0.2950  0.5858
 8616SOL    HW227012   2.852   7.996   8.088  1.2561  1.5896  0.8255
 8617SOL     OW27013   7.257   3.197   6.667  0.2024  0.5310 -0.2148
 8617SOL    HW127014   7.351   3.196   6.647  0.5386 -0.3626  1.2884
 8617SOL    HW227015   7.250   3.247   6.748 -0.6585  0.7606 -0.4183
 8618SOL     OW27016   5.036   0.245   7.728  0.2240 -0.2869  0.0758
 8618SOL    HW127017   5.043   0.176   7.663 -1.2206 -0.7388  0.3651
 8618SOL    HW227018   4.979   0.311   7.686 -0.5126 -0.4717  0.7596
 8619SOL     OW27019   0.343   4.058   4.340  0.0237  0.2415 -0.6571
 8619SOL    HW127020   0.399   4.116   4.392 -1.6817  1.7982 -0.4198
 8619SOL    HW227021   0.354   3.972   4.380  2.3449  0.4356 -0.7655
 8620SOL     OW27022   5.451   6.950   5.480 -0.4532  0.4197 -0.1873
 8620SOL    HW127023   5.455   6.971   5.387  2.4146  1.3745  0.0507
 8620SOL    HW227024   5.448   6.855   5.483  0.1147  0.3440 -1.2866
 8621SOL     OW27025   5.879   6.051   2.796 -0.1466 -0.6453 -0.1874
 8621SOL    HW127026   5.967   6.082   2.775 -0.7211 -0.5286 -2.6564
 8621SOL    HW227027   5.891   6.002   2.878  2.5141 -1.9707 -1.2188
 8622SOL     OW27028   7.932   6.820   3.096  0.0318 -1.1111  0.7625
 8622SOL    HW127029   7.907   6.883   3.163  1.3379 -1.0595  1.2267
 8622SOL    HW227030   7.864   6.752   3.099 -3.1881  1.6172 -1.7716
 8623SOL     OW27031   3.667   4.173   0.874 -0.1440 -0.4805 -0.1477
 8623SOL    HW127032   3.720   4.207   0.947 -0.7338 -1.7914  0.9357
 8623SOL    HW227033   3.694   4.082   0.866 -1.9813 -1.0912  0.2252
 8624SOL     OW27034   3.058   6.027   5.045 -0.8375 -0.3547  0.3186
 8624SOL    HW127035   3.069   6.030   5.140  2.3251  0.2663  0.0511
 8624SOL    HW227036   3.100   5.945   5.019  1.2618  0.9343 -0.7047
 8625SOL     OW27037   8.057   5.745   0.551  0.1821 -0.2669  0.1169
 8625SOL    HW127038   8.148   5.762   0.575  0.2742 -1.9037  1.0652
 8625SOL    HW227039   8.013   5.725   0.634 -1.0644  0.5332 -0.3190
 8626SOL     OW27040   6.775   5.103   3.561  0.0459  0.0934  0.3088
 8626SOL    HW127041   6.829   5.051   3.621  1.7984 -0.1655 -1.3925
 8626SOL    HW227042   6.788   5.194   3.589 -0.2816 -0.1096  1.1592
 8627SOL     OW27043   3.437   6.619   3.601  0.1592  0.2047 -0.4593
 8627SOL    HW127044   3.372   6.677   3.561  0.4730  0.6078 -0.3874
 8627SOL    HW227045   3.493   6.592   3.528  0.2031  0.2411 -0.4388
 8628SOL     OW27046   0.696   2.243   4.073  0.5164 -0.0679  0.1198
 8628SOL    HW127047   0.708   2.337   4.076 -0.4045  0.0814 -0.4835
 8628SOL    HW227048   0.701   2.220   3.980  1.6928 -0.7612  0.3285
 8629SOL     OW27049   7.768   7.610   5.975 -0.6509  0.6811 -0.0658
 8629SOL    HW127050   7.754   7.702   5.993  1.9480  0.9014  1.4463
 8629SOL    HW227051   7.779   7.605   5.880  0.1560  2.1096 -0.0690
 8630SOL     OW27052   6.837   4.684   3.794 -0.7076  0.5269  0.3365
 8630SOL    HW127053   6.752   4.688   3.838 -1.0655  0.1675 -0.3084
 8630SOL    HW227054   6.899   4.663   3.864 -1.1851  0.5379  0.7702
 8631SOL     OW27055   0.038   6.593   0.192  0.2953 -0.4730  0.4261
 8631SOL    HW127056  -0.002   6.557   0.271 -0.8444 -0.2099 -0.0187
 8631SOL    HW227057   0.014   6.532   0.122 -2.1058  1.3010 -0.4377
 8632SOL     OW27058   0.509   3.545   4.053 -0.3537 -0.2580 -0.5049
 8632SOL    HW127059   0.483   3.485   4.124  0.4990 -0.8244 -0.6622
 8632SOL    HW227060   0.528   3.627   4.098  0.2309 -0.6284 -0.0595
 8633SOL     OW27061   2.762   2.091   7.590  0.1345  0.3722  0.7739
 8633SOL    HW127062   2.766   2.055   7.678  1.8842  3.6656  2.2514
 8633SOL    HW227063   2.854   2.102   7.565 -0.3029 -0.9444 -1.7659
 8634SOL     OW27064   5.249   2.367   6.601  0.5191 -0.0449  0.6771
 8634SOL    HW127065   5.225   2.349   6.510  0.8016  0.0473  0.5832
 8634SOL    HW227066   5.240   2.284   6.646 -1.7101  0.3289  1.0333
 8635SOL     OW27067   5.828   5.243   3.703  0.5902  0.2919  0.6001
 8635SOL    HW127068   5.797   5.315   3.649  3.3902  0.4575 -0.9576
 8635SOL    HW227069   5.818   5.274   3.793 -2.9159  0.5357  0.2682
 8636SOL     OW27070   6.119   2.969   3.922 -0.0412 -0.0563 -0.2462
 8636SOL    HW127071   6.046   2.923   3.881 -0.4860  0.9026 -0.5482
 8636SOL    HW227072   6.141   3.039   3.861  0.2156  0.5154  0.4854
 8637SOL     OW27073   5.901   7.790   3.467  0.1214  0.0392  0.4472
 8637SOL    HW127074   5.919   7.870   3.418 -3.0520 -0.3880 -1.7103
 8637SOL    HW227075   5.869   7.821   3.552  0.7362  0.9811  0.3474
 8638SOL     OW27076   7.730   1.594   6.581 -0.0395 -0.0215 -0.0380
 8638SOL    HW127077   7.657   1.548   6.539  0.5952 -0.1215 -1.0832
 8638SOL    HW227078   7.714   1.585   6.675 -0.3328 -1.7364 -0.2218
 8639SOL     OW27079   3.825   8.411   7.337  0.0441 -0.0171  0.1337
 8639SOL    HW127080   3.757   8.424   7.270  0.1172  0.7780  0.2085
 8639SOL    HW227081   3.898   8.465   7.308  1.5254 -2.4997 -1.1101
 8640SOL     OW27082   4.113   5.556   5.444  0.3091  0.6467 -0.5446
 8640SOL    HW127083   4.174   5.583   5.376  0.8253  1.0835  0.0816
 8640SOL    HW227084   4.060   5.633   5.461 -1.5632 -0.1719 -2.2326
 8641SOL     OW27085   4.431   6.025   6.551 -0.3854 -0.2572  0.4079
 8641SOL    HW127086   4.377   5.948   6.569 -0.8882 -0.3564 -1.3444
 8641SOL    HW227087   4.397   6.092   6.611 -0.3587 -1.1929  1.5140
 8642SOL     OW27088   4.664   6.343   5.514 -0.1228  0.6411 -0.1425
 8642SOL    HW127089   4.667   6.343   5.609  0.1685  0.3704 -0.1529
 8642SOL    HW227090   4.570   6.342   5.493 -0.2631  2.8830  0.1418
 8643SOL     OW27091   0.959   1.463   7.631  0.2667 -0.1307 -0.1276
 8643SOL    HW127092   0.894   1.448   7.563  1.9299 -0.6358 -1.6626
 8643SOL    HW227093   0.999   1.547   7.609  0.2855  0.0856  0.6868
 8644SOL     OW27094   0.553   2.203   3.663  0.7562 -0.3864 -0.1724
 8644SOL    HW127095   0.460   2.224   3.667  0.3295 -2.0613 -0.4697
 8644SOL    HW227096   0.595   2.268   3.720 -0.7770 -0.6064  1.2819
 8645SOL     OW27097   5.000   4.101   4.686 -0.1933  0.4464 -0.4584
 8645SOL    HW127098   4.913   4.084   4.651 -0.7991  2.5361 -0.0696
 8645SOL    HW227099   5.040   4.014   4.694 -1.7788 -0.4555 -1.7656
 8646SOL     OW27100   1.119   2.291   4.712 -0.4717 -0.3441  0.2406
 8646SOL    HW127101   1.057   2.363   4.722 -1.3909 -0.8692 -1.3136
 8646SOL    HW227102   1.119   2.247   4.797 -0.8426  0.7278  0.8155
 8647SOL     OW27103   6.895   1.189   1.356  0.1799  0.0234 -0.1266
 8647SOL    HW127104   6.988   1.171   1.373  0.9710  1.9574 -1.9611
 8647SOL    HW227105   6.866   1.237   1.433  0.9780  0.2224  0.0615
 8648SOL     OW27106   5.589   2.500   7.478 -0.8712 -0.2815  0.4221
 8648SOL    HW127107   5.625   2.538   7.558 -2.5468  1.7339  0.3108
 8648SOL    HW227108   5.499   2.478   7.501 -0.8600 -1.2808 -0.4431
 8649SOL     OW27109   7.508   0.595   6.903  0.0361  0.1713  0.0805
 8649SOL    HW127110   7.564   0.666   6.872 -0.8680  0.2715 -1.4091
 8649SOL    HW227111   7.459   0.632   6.976  1.6579  0.1687  1.2177
 8650SOL     OW27112   7.017   3.064   3.992  0.5710  0.3998  0.1732
 8650SOL    HW127113   7.065   2.997   4.042 -0.5320 -0.4815  0.0876
 8650SOL    HW227114   7.057   3.061   3.905 -0.2630 -1.0444 -0.1901
 8651SOL     OW27115   3.584   7.485   8.180 -0.4912 -0.3474  0.0166
 8651SOL    HW127116   3.520   7.501   8.111  0.1120  0.8707 -0.3004
 8651SOL    HW227117   3.667   7.471   8.133 -0.1079  0.3285  0.4610
 8652SOL     OW27118   4.976   1.009   7.177  0.4018 -0.2414  0.6330
 8652SOL    HW127119   5.046   0.975   7.232  0.2641 -0.5092  0.6443
 8652SOL    HW227120   4.921   1.060   7.236 -1.0232 -2.3692  1.2550
 8653SOL     OW27121   4.830   8.722   2.990  0.5641 -0.1422  0.1379
 8653SOL    HW127122   4.917   8.733   3.029  0.3079 -1.0107  1.0203
 8653SOL    HW227123   4.833   8.635   2.951  0.4086  0.2319 -0.7132
 8654SOL     OW27124   4.300   3.259   8.118  0.1626 -0.0590 -0.3473
 8654SOL    HW127125   4.342   3.287   8.200  0.3501 -0.2289 -0.3836
 8654SOL    HW227126   4.337   3.172   8.101 -1.0340 -0.6987  0.2006
 8655SOL     OW27127   7.613   0.842   6.798 -0.4974  0.1101 -0.2261
 8655SOL    HW127128   7.673   0.892   6.854 -1.7480  1.1617  0.2295
 8655SOL    HW227129   7.571   0.908   6.743 -0.7524 -0.6880 -1.0094
 8656SOL     OW27130   3.588   1.549   1.134  0.1655 -0.1015 -0.0795
 8656SOL    HW127131   3.550   1.572   1.219  0.2843 -0.0274 -0.0464
 8656SOL    HW227132   3.607   1.456   1.141 -0.8969 -0.3643 -0.4325
 8657SOL     OW27133   0.317   2.830   6.743 -0.3282  0.4446 -0.2977
 8657SOL    HW127134   0.237   2.830   6.797 -0.6745  1.0315 -0.7945
 8657SOL    HW227135   0.333   2.738   6.724 -1.3101  0.3687 -0.8085
 8658SOL     OW27136   3.070   0.138   6.560  0.2154 -0.0392  0.3652
 8658SOL    HW127137   3.154   0.135   6.606  0.2476 -0.5717  0.2841
 8658SOL    HW227138   3.012   0.083   6.612  0.0484 -0.0564  0.1649
 8659SOL     OW27139   2.501   3.185   0.749 -0.4287 -0.3703 -0.3637
 8659SOL    HW127140   2.494   3.092   0.726 -0.8656 -0.2933 -0.5568
 8659SOL    HW227141   2.423   3.225   0.710 -0.2464  0.0760 -0.2741
 8660SOL     OW27142   4.992   7.080   5.020 -0.5430 -0.1980  0.2699
 8660SOL    HW127143   4.930   7.069   4.949 -2.2254  1.9555  1.2704
 8660SOL    HW227144   4.942   7.063   5.099  0.6381 -0.2151  1.0415
 8661SOL     OW27145   5.370   7.089   3.487 -0.5371  0.1279 -0.4478
 8661SOL    HW127146   5.304   7.050   3.429 -2.0517  0.9160  0.6911
 8661SOL    HW227147   5.355   7.183   3.481  0.9715  0.3679 -0.7065
 8662SOL     OW27148   3.659   0.541   4.246 -0.6693 -0.3167 -0.0630
 8662SOL    HW127149   3.731   0.498   4.199  0.6658  1.1265  0.5503
 8662SOL    HW227150   3.594   0.559   4.178  0.7593  0.7793 -1.2071
 8663SOL     OW27151   5.289   5.981   0.046 -0.4745 -0.4497 -0.3196
 8663SOL    HW127152   5.375   5.943   0.030 -1.0443 -1.3308 -1.4905
 8663SOL    HW227153   5.263   6.017  -0.039 -0.7988  0.7997  0.2979
 8664SOL     OW27154   7.690   3.117   0.967  0.1381  0.2319 -0.0419
 8664SOL    HW127155   7.606   3.125   0.922 -0.4455 -2.2029  0.4874
 8664SOL    HW227156   7.680   3.173   1.044 -0.8341  0.3396 -0.2278
 8665SOL     OW27157   7.565   6.649   6.276 -0.4649  0.0003  0.4611
 8665SOL    HW127158   7.498   6.705   6.315 -1.1018 -0.6970  0.3892
 8665SOL    HW227159   7.555   6.564   6.319 -1.8023 -1.0736 -1.7599
 8666SOL     OW27160   4.091   6.968   8.229 -0.0279 -0.3415  0.3862
 8666SOL    HW127161   4.133   6.948   8.146  0.4776  2.7639 -0.2455
 8666SOL    HW227162   4.042   6.889   8.252  2.1505 -2.3248 -1.3488
 8667SOL     OW27163   4.722   5.744   6.613 -0.6356  0.0752  0.1881
 8667SOL    HW127164   4.809   5.754   6.576 -0.3289  0.9377  1.1061
 8667SOL    HW227165   4.683   5.672   6.563  0.0320  0.6802 -1.2521
 8668SOL     OW27166   7.819   4.584   3.665 -0.1185  0.1399 -0.0611
 8668SOL    HW127167   7.731   4.570   3.698 -0.0044  1.9078  1.1099
 8668SOL    HW227168   7.819   4.674   3.633  2.1237  1.4451  3.1088
 8669SOL     OW27169   2.830   8.673   6.000  0.6028 -0.4315  0.1832
 8669SOL    HW127170   2.820   8.738   6.069  2.5692  0.0452  0.0685
 8669SOL    HW227171   2.905   8.703   5.949  0.6556 -2.0337 -0.7456
 8670SOL     OW27172   7.767   1.734   4.653 -0.2922 -0.3585  0.4938
 8670SOL    HW127173   7.699   1.720   4.720 -1.4333  0.7491 -0.3735
 8670SOL    HW227174   7.794   1.645   4.628 -2.6201 -0.9546 -0.2687
 8671SOL     OW27175   6.546   1.040   6.464  0.5751  0.1494 -0.1308
 8671SOL    HW127176   6.481   1.109   6.453 -0.2225 -0.8510 -2.2334
 8671SOL    HW227177   6.498   0.967   6.504  1.0928  0.3375  0.8614
 8672SOL     OW27178   0.532   0.827   7.952 -0.0591 -0.2928 -0.7014
 8672SOL    HW127179   0.605   0.870   7.997 -1.5959  0.8712  0.7863
 8672SOL    HW227180   0.513   0.750   8.005 -0.8129  0.1892 -0.2535
 8673SOL     OW27181   3.559   7.917   8.286  0.3251 -0.7082 -0.1069
 8673SOL    HW127182   3.624   7.934   8.354 -0.5695 -1.5287  0.9969
 8673SOL    HW227183   3.508   7.998   8.280 -0.5551 -1.1252  1.3208
 8674SOL     OW27184   1.739   3.826   6.124 -0.3547  0.6287 -0.0641
 8674SOL    HW127185   1.724   3.732   6.139  2.2792  0.1853  0.3378
 8674SOL    HW227186   1.667   3.869   6.169 -1.7601 -1.2023 -0.4374
 8675SOL     OW27187   0.567   4.005   0.582  0.1517 -0.0929  0.0455
 8675SOL    HW127188   0.479   3.995   0.546 -0.1096  1.5744  0.1551
 8675SOL    HW227189   0.624   3.964   0.518 -0.6247 -0.3792 -0.4779
 8676SOL     OW27190   2.381   7.615   6.140  0.6553  0.9342 -0.6921
 8676SOL    HW127191   2.311   7.660   6.189  1.5630  2.9896 -1.1568
 8676SOL    HW227192   2.334   7.558   6.079 -0.5254 -0.2661  1.2247
 8677SOL     OW27193   1.026   3.410   7.779  0.2717  0.8834  0.1596
 8677SOL    HW127194   1.011   3.327   7.735 -0.3625  0.5852  0.9326
 8677SOL    HW227195   1.104   3.446   7.736 -0.3125  0.6009 -1.1937
 8678SOL     OW27196   0.251   5.182   6.526 -0.0257 -0.2412  0.2378
 8678SOL    HW127197   0.211   5.202   6.610 -0.8825 -1.5372  0.1660
 8678SOL    HW227198   0.254   5.086   6.523  0.4862 -0.2083 -0.9756
 8679SOL     OW27199   2.354   3.735   5.134 -0.1891 -0.2921 -0.2198
 8679SOL    HW127200   2.305   3.760   5.212  1.2576 -1.1268  0.9958
 8679SOL    HW227201   2.316   3.650   5.108 -1.7211  0.6874 -1.4106
 8680SOL     OW27202   2.128   7.400   1.117 -0.1682  0.0239  0.2096
 8680SOL    HW127203   2.166   7.408   1.029 -0.8359 -0.1633 -0.1029
 8680SOL    HW227204   2.197   7.430   1.176 -0.8284  3.4274 -0.5587
 8681SOL     OW27205   1.151   7.261   4.113  0.0722 -0.4556 -0.3983
 8681SOL    HW127206   1.142   7.297   4.025  0.9722  0.7698 -0.0271
 8681SOL    HW227207   1.062   7.250   4.145 -0.2594  1.4631 -0.5594
 8682SOL     OW27208   6.582   4.076   4.495 -0.2017 -0.8321 -0.1989
 8682SOL    HW127209   6.490   4.054   4.487 -0.5007  0.8547 -3.8030
 8682SOL    HW227210   6.583   4.159   4.542 -0.4773 -1.0996  0.2767
 8683SOL     OW27211   6.378   8.111   2.765  0.2302 -0.8269  0.2850
 8683SOL    HW127212   6.294   8.145   2.797 -0.9694  0.7550 -3.8363
 8683SOL    HW227213   6.361   8.018   2.747 -1.2281 -0.2442 -1.7591
 8684SOL     OW27214   1.956   7.209   7.443  0.1891  0.2400  0.2542
 8684SOL    HW127215   1.903   7.245   7.514  1.2632  0.9283  0.7353
 8684SOL    HW227216   2.032   7.169   7.487 -0.1838 -1.2362 -0.3825
 8685SOL     OW27217   8.518   8.353   2.255 -0.4189 -0.0328  0.0469
 8685SOL    HW127218   8.526   8.373   2.162 -1.0976 -1.6945 -0.4069
 8685SOL    HW227219   8.588   8.403   2.297  0.3080  0.2341 -1.4288
 8686SOL     OW27220   5.788   0.254   5.164 -0.7911 -0.2753  0.0068
 8686SOL    HW127221   5.847   0.329   5.169 -0.2319 -0.7494  0.5485
 8686SOL    HW227222   5.771   0.244   5.070 -0.5614  0.2780 -0.0991
 8687SOL     OW27223   7.118   6.705   1.672 -0.6668 -0.0672 -0.6202
 8687SOL    HW127224   7.056   6.771   1.701 -0.7963 -0.2820 -0.4032
 8687SOL    HW227225   7.126   6.719   1.578  1.4550  2.1036 -0.2293
 8688SOL     OW27226   2.800   8.290   5.586  0.4512 -0.2576  0.0820
 8688SOL    HW127227   2.735   8.361   5.585 -0.1250 -0.7383  0.8885
 8688SOL    HW227228   2.880   8.330   5.619 -0.2270 -0.2251  1.7879
 8689SOL     OW27229   5.065   5.165   4.821 -0.1227  0.2797  0.4295
 8689SOL    HW127230   5.125   5.192   4.751 -2.4712 -0.1172 -1.9022
 8689SOL    HW227231   5.107   5.195   4.902  1.5503  3.0485 -1.3107
 8690SOL     OW27232   8.685   2.752   7.801 -0.6026 -0.0078 -0.1808
 8690SOL    HW127233   8.639   2.837   7.800 -0.4465  0.0734 -0.6825
 8690SOL    HW227234   8.685   2.726   7.893 -0.6877  0.5199 -0.0273
 8691SOL     OW27235   6.424   8.264   2.488  0.7271  0.5890 -0.3680
 8691SOL    HW127236   6.480   8.241   2.563 -1.0720 -0.9403  0.5906
 8691SOL    HW227237   6.423   8.185   2.434 -1.1825  0.2265  0.1234
 8692SOL     OW27238   1.082   2.258   2.887  0.0875 -0.0403 -0.3616
 8692SOL    HW127239   1.047   2.335   2.931 -0.2201 -1.2133  1.5987
 8692SOL    HW227240   1.006   2.209   2.859  0.2207 -0.6146  0.2545
 8693SOL     OW27241   4.702   8.364   3.619  0.3751  0.0778  0.3581
 8693SOL    HW127242   4.723   8.320   3.701 -2.2402  0.7607  1.4971
 8693SOL    HW227243   4.699   8.293   3.555  3.1013 -0.3831  0.6222
 8694SOL     OW27244   5.948   5.009   2.103  0.0323 -0.4293 -0.0699
 8694SOL    HW127245   5.928   4.964   2.021 -1.2688 -0.2590  0.1321
 8694SOL    HW227246   5.972   5.098   2.077 -1.9559  0.1126 -0.2062
 8695SOL     OW27247   4.608   1.958   8.765 -0.6602  0.1778 -0.3661
 8695SOL    HW127248   4.571   1.953   8.677 -1.1824  0.2590 -0.1509
 8695SOL    HW227249   4.559   2.028   8.808  0.0797  0.6392 -0.2411
 8696SOL     OW27250   2.748   6.982   8.284  0.3374 -0.1276  0.6900
 8696SOL    HW127251   2.692   7.059   8.276  1.1797  0.2690 -3.6830
 8696SOL    HW227252   2.701   6.913   8.237  2.9694  0.0417 -2.5555
 8697SOL     OW27253   5.814   7.275   7.870  0.3043  0.2416 -0.1443
 8697SOL    HW127254   5.844   7.363   7.894 -0.4258  0.4839 -0.0873
 8697SOL    HW227255   5.869   7.250   7.796  0.5138  0.7500 -0.1622
 8698SOL     OW27256   3.209   7.251   6.524 -0.0051  0.1452  0.2501
 8698SOL    HW127257   3.270   7.232   6.595 -0.6292  1.3762  1.1591
 8698SOL    HW227258   3.254   7.318   6.471  0.1629 -0.2581 -0.1288
 8699SOL     OW27259   3.308   1.656   0.364 -0.3416  0.1860 -0.1415
 8699SOL    HW127260   3.371   1.607   0.417  1.6182  0.1783 -2.2703
 8699SOL    HW227261   3.257   1.589   0.319 -0.5983  0.1532  0.2042
 8700SOL     OW27262   3.970   1.894   5.252 -0.0830 -0.8830  0.1994
 8700SOL    HW127263   3.979   1.862   5.341 -0.8919 -0.2727  0.5150
 8700SOL    HW227264   4.040   1.958   5.241 -0.8215  0.0618  0.8772
 8701SOL     OW27265   5.075   7.304   3.370 -0.0710  0.3345 -0.0057
 8701SOL    HW127266   5.079   7.376   3.306 -2.9132  1.4901  0.9400
 8701SOL    HW227267   5.042   7.230   3.319 -3.5609  1.5842  0.1729
 8702SOL     OW27268   6.718   6.947   6.680 -0.4586  0.2534 -0.4168
 8702SOL    HW127269   6.709   6.912   6.591 -0.8409  1.3658 -0.8256
 8702SOL    HW227270   6.776   7.023   6.670  2.7622 -1.8052  0.8938
 8703SOL     OW27271   5.172   0.422   8.428  0.4119 -0.2965 -0.0706
 8703SOL    HW127272   5.240   0.489   8.440 -0.9098  1.3506 -1.2359
 8703SOL    HW227273   5.205   0.368   8.356  0.7833  0.0882 -0.1927
 8704SOL     OW27274   5.233   6.721   8.470  0.0576 -0.1811 -0.2563
 8704SOL    HW127275   5.318   6.741   8.432 -0.6191 -0.6645 -2.1442
 8704SOL    HW227276   5.201   6.806   8.502  1.1321  0.0382  0.2818
 8705SOL     OW27277   5.055   4.226   7.873  0.1993  0.1417  0.5763
 8705SOL    HW127278   5.126   4.245   7.934 -0.5660  1.9352  0.9955
 8705SOL    HW227279   4.980   4.274   7.908 -1.4013 -2.0813  0.4340
 8706SOL     OW27280   6.389   3.119   1.611 -0.7421  0.8750  0.3261
 8706SOL    HW127281   6.342   3.048   1.568  0.1626 -0.2455  1.1625
 8706SOL    HW227282   6.428   3.168   1.538 -3.9622  2.5120 -0.5192
 8707SOL     OW27283   6.645   5.348   3.745 -0.0362 -0.3916  0.0849
 8707SOL    HW127284   6.700   5.363   3.668  0.4479 -0.6789  0.3644
 8707SOL    HW227285   6.555   5.353   3.712  0.1250  0.8995 -0.2402
 8708SOL     OW27286   7.770   2.307   7.091 -0.1388 -0.0488  0.3868
 8708SOL    HW127287   7.700   2.242   7.098 -0.1576 -0.0741  0.0223
 8708SOL    HW227288   7.803   2.296   7.002 -1.2638  1.5715 -0.2806
 8709SOL     OW27289   7.718   4.232   0.718  0.2256 -0.1366  0.9657
 8709SOL    HW127290   7.799   4.203   0.759  0.2242 -1.4590  0.0810
 8709SOL    HW227291   7.746   4.274   0.636 -0.0225 -1.9549 -0.1022
 8710SOL     OW27292   3.951   4.223   6.316 -0.4890 -0.4511  0.1597
 8710SOL    HW127293   3.864   4.228   6.356 -0.7707 -2.5047 -0.0566
 8710SOL    HW227294   3.974   4.130   6.323  2.3446  0.2443  1.5356
 8711SOL     OW27295   2.561   3.480   8.394 -0.1794  0.1814  0.5746
 8711SOL    HW127296   2.507   3.400   8.389 -0.0106  0.1163 -3.4069
 8711SOL    HW227297   2.499   3.551   8.380  0.2539  0.2921 -1.0983
 8712SOL     OW27298   4.658   5.710   0.178 -0.4182 -0.4066 -0.1991
 8712SOL    HW127299   4.710   5.787   0.201  0.8679 -0.6533 -2.0641
 8712SOL    HW227300   4.583   5.746   0.130 -1.3670 -0.1478  1.4071
 8713SOL     OW27301   3.506   7.974   2.727 -0.0929  0.3591 -0.3128
 8713SOL    HW127302   3.444   7.942   2.662 -0.2679  2.4905 -1.2635
 8713SOL    HW227303   3.589   7.983   2.680  0.6621 -1.2507  0.6303
 8714SOL     OW27304   0.203   3.852   6.079 -0.5622 -0.9410 -0.1831
 8714SOL    HW127305   0.289   3.814   6.059 -0.1368  0.5395 -1.3121
 8714SOL    HW227306   0.209   3.942   6.049 -2.4661 -0.7545 -0.1124
 8715SOL     OW27307   1.292   1.414   7.247  0.0102  0.2376 -0.2212
 8715SOL    HW127308   1.219   1.367   7.286 -0.3240 -1.9204 -3.0595
 8715SOL    HW227309   1.256   1.499   7.222 -1.2272 -0.3279 -0.4597
 8716SOL     OW27310   8.248   3.275   3.198 -0.3476 -0.3939  0.1122
 8716SOL    HW127311   8.341   3.258   3.181 -0.0778 -0.2256  1.3274
 8716SOL    HW227312   8.203   3.242   3.120  0.8507  0.9860 -1.2099
 8717SOL     OW27313   2.082   2.901   7.574 -0.3922  0.5661 -0.6371
 8717SOL    HW127314   1.996   2.877   7.539 -0.6562 -2.0400  1.4846
 8717SOL    HW227315   2.144   2.848   7.524 -0.2167  0.8776 -0.7552
 8718SOL     OW27316   1.727   5.916   6.301 -0.4775 -0.3113 -0.0965
 8718SOL    HW127317   1.685   5.862   6.233 -0.9817 -0.5776  0.4218
 8718SOL    HW227318   1.791   5.969   6.253 -3.2974  2.2280 -1.4219
 8719SOL     OW27319   8.862   4.458   4.875  0.1662 -0.2923  0.1666
 8719SOL    HW127320   8.860   4.362   4.873 -0.7727 -0.3136  1.3620
 8719SOL    HW227321   8.936   4.479   4.932  0.7095 -0.2699 -0.5187
 8720SOL     OW27322   7.409   6.676   5.295  0.0415  0.4549 -0.0696
 8720SOL    HW127323   7.394   6.754   5.242 -0.7005  0.5107  0.2134
 8720SOL    HW227324   7.504   6.676   5.312  0.1236  0.9964 -0.5195
 8721SOL     OW27325   6.233   3.205   6.432  0.1763  0.1595 -0.3295
 8721SOL    HW127326   6.172   3.147   6.386  1.4443  0.0491 -1.9798
 8721SOL    HW227327   6.260   3.269   6.366  0.6100  1.2023  0.8116
 8722SOL     OW27328   7.521   4.043   3.089  0.0716  0.3430 -0.0951
 8722SOL    HW127329   7.519   4.131   3.128 -1.8393  0.3915 -0.2089
 8722SOL    HW227330   7.583   3.994   3.143 -0.3137  1.2179  1.1958
 8723SOL     OW27331   2.241   4.480   2.443  0.2037 -0.9246 -0.0794
 8723SOL    HW127332   2.315   4.425   2.416  1.5233  0.9240 -0.4275
 8723SOL    HW227333   2.210   4.521   2.362 -0.8465 -1.2332  0.1490
 8724SOL     OW27334   3.289   0.338   1.074 -0.7762  0.0111  0.2324
 8724SOL    HW127335   3.255   0.425   1.054 -0.7222 -0.3056 -1.4115
 8724SOL    HW227336   3.268   0.286   0.996  1.3267 -0.8134  0.1680
 8725SOL     OW27337   4.066   1.994   8.226 -0.0803 -0.1991  0.2530
 8725SOL    HW127338   4.097   1.904   8.233  0.3424 -0.1841 -1.0996
 8725SOL    HW227339   3.980   1.993   8.267  0.5301 -0.8730  1.5657
 8726SOL     OW27340   5.678   2.208   8.129  0.3394  0.1822  0.7240
 8726SOL    HW127341   5.773   2.201   8.124  0.3512  1.1036 -0.6041
 8726SOL    HW227342   5.653   2.140   8.192  1.7993 -0.5780  0.5302
 8727SOL     OW27343   3.252   2.760   8.684  0.4538 -0.0592  0.3263
 8727SOL    HW127344   3.208   2.748   8.768  1.8315  0.2609  1.1171
 8727SOL    HW227345   3.188   2.729   8.619 -0.3711 -0.9720  1.5258
 8728SOL     OW27346   7.911   1.097   7.322  0.4557 -0.6442 -0.5412
 8728SOL    HW127347   7.958   1.178   7.338 -2.3726  0.7872  1.3596
 8728SOL    HW227348   7.841   1.121   7.261  0.2379 -1.9387 -0.8486
 8729SOL     OW27349   8.369   0.372   0.814  1.0947  0.1366  0.0023
 8729SOL    HW127350   8.423   0.449   0.796  0.6499  0.1247 -1.4931
 8729SOL    HW227351   8.346   0.338   0.728  1.3832 -1.7515  0.6256
 8730SOL     OW27352   0.137   4.897   4.099  0.0419  0.4928 -0.0258
 8730SOL    HW127353   0.160   4.854   4.181  0.5412 -0.7147 -0.7770
 8730SOL    HW227354   0.041   4.893   4.095  0.0855 -0.6491 -0.1205
 8731SOL     OW27355   2.273   1.176   4.032  0.2615  0.1362 -0.4023
 8731SOL    HW127356   2.246   1.267   4.034  0.4592  0.2054  1.6156
 8731SOL    HW227357   2.216   1.135   3.967  0.8741  1.8683 -2.1011
 8732SOL     OW27358   7.151   0.507   0.082  0.0207  0.1709 -0.0661
 8732SOL    HW127359   7.121   0.436   0.139  0.9113  1.6412  2.3715
 8732SOL    HW227360   7.247   0.498   0.082  0.2873  2.2435  1.6366
 8733SOL     OW27361   7.732   4.836   1.285 -0.3386  0.1520  0.5157
 8733SOL    HW127362   7.798   4.884   1.235  0.3816 -1.1876  0.1294
 8733SOL    HW227363   7.687   4.903   1.336  1.8861  1.0262  1.4480
 8734SOL     OW27364   3.770   0.149   7.738 -0.1830  0.4289  0.7749
 8734SOL    HW127365   3.738   0.233   7.703  0.3950  0.2277 -0.2958
 8734SOL    HW227366   3.817   0.173   7.818 -1.5085  0.9177  1.4439
 8735SOL     OW27367   1.846   1.682   1.212 -0.2896  0.3197 -0.6573
 8735SOL    HW127368   1.804   1.690   1.127 -1.3378  1.1684 -0.0892
 8735SOL    HW227369   1.922   1.627   1.197  0.5499  1.9030 -2.4958
 8736SOL     OW27370   6.710   7.327   4.765  0.2063 -0.2639 -0.6029
 8736SOL    HW127371   6.758   7.253   4.802  3.0510  1.0576 -1.3267
 8736SOL    HW227372   6.763   7.356   4.691 -1.7552  1.3823 -1.4741
 8737SOL     OW27373   0.922   2.271   3.840  0.0527  0.4862 -0.2712
 8737SOL    HW127374   0.940   2.201   3.776  3.4653 -0.1319  1.1606
 8737SOL    HW227375   0.994   2.333   3.828  2.5037 -0.9848  4.5549
 8738SOL     OW27376   3.381   4.876   1.495  0.7305  0.3903  0.3338
 8738SOL    HW127377   3.345   4.806   1.550  0.5182  1.1600  1.2012
 8738SOL    HW227378   3.362   4.848   1.406  2.0367 -1.4066  0.5669
 8739SOL     OW27379   5.864   2.925   6.505 -0.7069  0.1118 -0.0873
 8739SOL    HW127380   5.877   2.835   6.534 -0.4827  0.2775  0.3402
 8739SOL    HW227381   5.769   2.932   6.490 -0.6535 -0.3516 -0.6730
 8740SOL     OW27382   0.164   7.230   7.525  0.7209  0.4102 -0.1155
 8740SOL    HW127383   0.115   7.173   7.465 -1.2372  1.4126  0.4271
 8740SOL    HW227384   0.250   7.238   7.485  0.1994 -0.7750 -1.5935
 8741SOL     OW27385   8.301   0.149   4.840  0.2573 -0.3573 -0.0468
 8741SOL    HW127386   8.247   0.154   4.919  0.4958  0.5414  0.0693
 8741SOL    HW227387   8.348   0.232   4.838  1.5567 -1.0748 -0.2088
 8742SOL     OW27388   3.910   4.713   1.330  0.1159 -0.0979 -0.2122
 8742SOL    HW127389   3.990   4.735   1.378 -0.4273  1.6090 -0.0422
 8742SOL    HW227390   3.845   4.699   1.398 -0.9682  3.5009 -0.3014
 8743SOL     OW27391   5.123   5.864   1.519  0.0123 -0.1855  0.1645
 8743SOL    HW127392   5.185   5.907   1.578 -0.3108 -0.6103  0.8150
 8743SOL    HW227393   5.069   5.809   1.575 -0.0670 -0.8815 -0.5641
 8744SOL     OW27394   8.291   3.510   5.807 -0.4532 -0.3198  0.6242
 8744SOL    HW127395   8.375   3.475   5.777 -0.2395  1.4016 -0.9715
 8744SOL    HW227396   8.266   3.453   5.880  2.1821 -0.7684  1.2967
 8745SOL     OW27397   8.720   2.429   8.347 -0.3854  0.7552  0.3434
 8745SOL    HW127398   8.745   2.510   8.393 -2.1308  1.4811  0.0809
 8745SOL    HW227399   8.678   2.375   8.415 -0.2342  0.5443  0.2700
 8746SOL     OW27400   0.100   2.544   3.540  0.3585  0.0633  0.4505
 8746SOL    HW127401   0.038   2.539   3.613 -0.2532 -1.7719 -0.1391
 8746SOL    HW227402   0.050   2.511   3.465  0.8988  2.1115 -0.8684
 8747SOL     OW27403   0.100   8.796   0.082  0.7395 -0.5057  0.3126
 8747SOL    HW127404   0.075   8.831  -0.004  3.1241  0.4774 -0.0590
 8747SOL    HW227405   0.102   8.872   0.139  3.4807 -0.3411  0.1157
 8748SOL     OW27406   3.473   0.925   6.477 -0.3801  0.5397 -0.6770
 8748SOL    HW127407   3.428   0.883   6.550 -0.6306 -1.4716 -1.9007
 8748SOL    HW227408   3.426   1.007   6.463 -0.5094  0.8174  1.1893
 8749SOL     OW27409   7.359   4.541   3.289  0.1880  0.3130 -0.0162
 8749SOL    HW127410   7.293   4.602   3.322 -0.1987  1.1555 -2.1441
 8749SOL    HW227411   7.320   4.507   3.208  0.2206 -3.1194  1.2734
 8750SOL     OW27412   6.692   2.103   1.875  0.4070 -0.4939 -0.2143
 8750SOL    HW127413   6.728   2.173   1.820  0.1247  0.1322  0.3883
 8750SOL    HW227414   6.759   2.088   1.942 -0.9834  1.7434  1.8470
 8751SOL     OW27415   3.371   7.122   7.545  0.5302  0.7157  0.0404
 8751SOL    HW127416   3.283   7.138   7.581  0.8920  2.2446  0.2767
 8751SOL    HW227417   3.405   7.209   7.524  1.2684  0.0302 -1.8206
 8752SOL     OW27418   2.098   5.195   0.837 -0.2217 -0.1618  0.1808
 8752SOL    HW127419   2.052   5.262   0.888  0.4466 -0.1421  0.7814
 8752SOL    HW227420   2.191   5.210   0.857 -0.1166 -1.9652  1.1968
 8753SOL     OW27421   3.074   3.031   1.192  0.3479  0.3583  0.4507
 8753SOL    HW127422   2.996   3.028   1.137  0.8240  0.1315 -0.2303
 8753SOL    HW227423   3.087   2.941   1.221  0.6889  0.2799  0.0707
 8754SOL     OW27424   6.952   3.478   1.727  0.7147 -0.2957 -0.4243
 8754SOL    HW127425   6.903   3.430   1.794  0.6763  2.4722  1.7472
 8754SOL    HW227426   6.884   3.513   1.669  0.6186 -1.3052 -0.9438
 8755SOL     OW27427   8.839   2.341   2.232 -0.7974 -0.0317  0.1699
 8755SOL    HW127428   8.911   2.368   2.176  0.5483 -0.1083  1.7849
 8755SOL    HW227429   8.836   2.245   2.224 -0.1746 -0.1022  0.7072
 8756SOL     OW27430   2.729   2.341   0.464 -0.3242 -0.2262 -0.3476
 8756SOL    HW127431   2.773   2.367   0.383  2.4362 -1.5435  0.6160
 8756SOL    HW227432   2.695   2.253   0.445  0.6552 -0.6954 -0.0227
 8757SOL     OW27433   1.781   6.497   6.517  0.1088  0.2045  0.1011
 8757SOL    HW127434   1.853   6.509   6.579  1.4278  1.6249 -1.6128
 8757SOL    HW227435   1.753   6.406   6.529  0.0052  0.5254  3.0334
 8758SOL     OW27436   7.011   0.634   6.276 -0.5105  0.4169 -0.1496
 8758SOL    HW127437   6.978   0.633   6.366 -0.7654 -1.7042 -0.2105
 8758SOL    HW227438   7.100   0.600   6.283 -0.1153  1.3615 -0.5672
 8759SOL     OW27439   8.436   4.959   6.629 -0.0811  0.0600  0.3442
 8759SOL    HW127440   8.355   4.940   6.677 -0.0354 -1.0228  0.0267
 8759SOL    HW227441   8.496   4.889   6.656  0.0676 -0.3392 -0.9724
 8760SOL     OW27442   3.995   2.500   1.553  0.1152 -0.2870  0.5641
 8760SOL    HW127443   3.954   2.492   1.467  0.3234 -0.2123  0.4557
 8760SOL    HW227444   3.939   2.450   1.612 -0.2401 -0.0222  0.4558
 8761SOL     OW27445   8.853   4.255   1.093  0.0447 -0.0952  0.7425
 8761SOL    HW127446   8.890   4.169   1.074 -2.0860 -0.6977 -1.0577
 8761SOL    HW227447   8.771   4.258   1.043  0.5096  3.3593 -0.0958
 8762SOL     OW27448   2.480   8.780   8.696 -0.6717  0.3601 -0.3174
 8762SOL    HW127449   2.549   8.811   8.755 -1.3816 -0.9447  1.2641
 8762SOL    HW227450   2.484   8.685   8.702 -2.9649  0.2490  0.2573
 8763SOL     OW27451   2.129   8.299   5.031 -0.3568  0.3893 -0.6928
 8763SOL    HW127452   2.222   8.289   5.013 -0.2501  1.3659 -0.7529
 8763SOL    HW227453   2.099   8.211   5.055  0.3237 -0.1771 -1.8297
 8764SOL     OW27454   2.830   1.641   7.052  0.3792  0.5321 -0.5960
 8764SOL    HW127455   2.832   1.736   7.044  0.0260  0.3857 -3.0317
 8764SOL    HW227456   2.842   1.608   6.963 -1.2111 -1.6755 -0.1045
 8765SOL     OW27457   2.485   4.008   5.985  0.0520  0.6198  0.0439
 8765SOL    HW127458   2.393   4.034   5.991  0.0349  0.7539 -0.6984
 8765SOL    HW227459   2.492   3.967   5.898  0.4991 -0.1699  0.4431
 8766SOL     OW27460   8.757   1.760   8.784 -0.0772  0.3126  0.4765
 8766SOL    HW127461   8.807   1.835   8.751  0.9996  0.1020  1.5666
 8766SOL    HW227462   8.692   1.743   8.716  0.5551  1.3657 -0.4268
 8767SOL     OW27463   1.741   7.005   8.330  0.2581  0.0767  0.0912
 8767SOL    HW127464   1.776   7.091   8.351  1.1908 -0.1413 -0.5418
 8767SOL    HW227465   1.799   6.970   8.263 -0.8436 -0.5353 -0.5874
 8768SOL     OW27466   6.877   4.570   8.506 -0.3834 -0.3920  0.6112
 8768SOL    HW127467   6.874   4.484   8.465  0.8796 -0.7699  1.2424
 8768SOL    HW227468   6.831   4.628   8.446 -1.2949 -1.5100  0.1985
 8769SOL     OW27469   7.659   1.072   4.017  0.5929  0.4304  0.0573
 8769SOL    HW127470   7.615   1.151   3.985 -0.7578 -0.8695 -1.5082
 8769SOL    HW227471   7.658   1.012   3.942  0.7602 -1.4053  1.4498
 8770SOL     OW27472   2.453   0.368   3.765 -0.3024  0.4262 -0.5683
 8770SOL    HW127473   2.421   0.303   3.828 -1.5941  1.8306  0.3015
 8770SOL    HW227474   2.479   0.317   3.689 -2.0144 -1.0620 -0.2304
 8771SOL     OW27475   3.370   1.899   3.249 -0.0283  0.1929 -0.5916
 8771SOL    HW127476   3.457   1.936   3.235  0.4567  0.2463  1.9358
 8771SOL    HW227477   3.331   1.957   3.315 -0.1180 -2.4204  1.8225
 8772SOL     OW27478   2.652   8.484   8.410  0.1211 -0.2246 -0.2969
 8772SOL    HW127479   2.677   8.574   8.427  2.0689 -0.9306  0.9058
 8772SOL    HW227480   2.601   8.487   8.329 -0.8468  2.0651  0.3290
 8773SOL     OW27481   5.150   4.565   1.907  0.0394  1.0892 -0.2480
 8773SOL    HW127482   5.097   4.526   1.976  0.0908  1.2303 -0.1264
 8773SOL    HW227483   5.220   4.501   1.891 -0.0052  1.0309 -0.2088
 8774SOL     OW27484   5.504   1.825   3.001 -0.1425  0.0424 -0.1990
 8774SOL    HW127485   5.466   1.747   3.041 -0.7514 -0.0652 -0.9663
 8774SOL    HW227486   5.435   1.891   3.004 -0.8513 -0.4669 -2.5460
 8775SOL     OW27487   6.610   7.112   4.599  0.0325  0.4999  0.0559
 8775SOL    HW127488   6.540   7.170   4.571 -0.2827 -0.1802 -0.5747
 8775SOL    HW227489   6.673   7.170   4.642 -0.5324  1.2271 -0.0859
 8776SOL     OW27490   1.151   8.496   6.625 -0.1560  0.3901  0.6133
 8776SOL    HW127491   1.200   8.414   6.620 -0.3158  0.3762 -1.0776
 8776SOL    HW227492   1.106   8.503   6.541 -2.3810  0.8515  1.7526
 8777SOL     OW27493   6.015   8.514   2.593  0.1005 -0.3189  0.0290
 8777SOL    HW127494   6.054   8.436   2.554 -0.3424 -1.0870  1.0617
 8777SOL    HW227495   5.929   8.522   2.551  0.2286 -0.2738 -0.2211
 8778SOL     OW27496   5.117   1.070   2.257 -0.5652 -0.3783 -0.2308
 8778SOL    HW127497   5.202   1.025   2.264 -1.0911 -1.4100 -0.2728
 8778SOL    HW227498   5.138   1.163   2.268  0.5453 -0.6360 -0.0475
 8779SOL     OW27499   7.821   6.664   7.363  0.5148 -0.2263 -0.4592
 8779SOL    HW127500   7.890   6.727   7.382  0.8527 -0.8684  0.5677
 8779SOL    HW227501   7.858   6.605   7.298  0.9371 -0.5617  0.0808
 8780SOL     OW27502   1.120   0.767   7.166 -1.0884  0.4260  0.0881
 8780SOL    HW127503   1.118   0.763   7.070  0.5096 -0.9002  0.0551
 8780SOL    HW227504   1.172   0.844   7.186  0.4498 -0.4820 -0.2067
 8781SOL     OW27505   2.150   8.793   4.210  0.2786 -0.3387  0.4100
 8781SOL    HW127506   2.203   8.744   4.147 -0.3504  0.0753 -0.4583
 8781SOL    HW227507   2.072   8.739   4.222 -0.5237  0.5352 -0.7276
 8782SOL     OW27508   6.682   8.168   0.173 -0.3001 -0.0697 -0.1715
 8782SOL    HW127509   6.678   8.183   0.079  0.7277 -0.3563 -0.2705
 8782SOL    HW227510   6.732   8.086   0.182 -0.3960 -0.0479  0.6193
 8783SOL     OW27511   0.194   3.308   0.252  0.0076 -0.2712  0.2602
 8783SOL    HW127512   0.168   3.400   0.257 -0.5079 -0.2511 -1.9146
 8783SOL    HW227513   0.280   3.310   0.209 -0.3114 -0.8252 -0.4179
 8784SOL     OW27514   2.256   5.340   6.351  0.3470 -0.2491  0.3571
 8784SOL    HW127515   2.303   5.418   6.320  0.0005 -0.4604 -0.7169
 8784SOL    HW227516   2.262   5.277   6.279 -1.9018 -0.1507  0.0137
 8785SOL     OW27517   0.374   6.939   0.155  0.0952 -0.3294  0.4052
 8785SOL    HW127518   0.284   6.954   0.185  1.0150 -0.6051  3.6895
 8785SOL    HW227519   0.380   6.988   0.073 -2.7873  0.3839  0.4995
 8786SOL     OW27520   0.784   4.559   7.282  0.2820  0.4834 -0.6589
 8786SOL    HW127521   0.775   4.650   7.253  0.9394  0.6839 -0.2619
 8786SOL    HW227522   0.823   4.566   7.369  0.3547 -0.1847 -0.6340
 8787SOL     OW27523   2.231   7.311   2.294  0.3721 -0.0958 -0.1648
 8787SOL    HW127524   2.158   7.337   2.237 -0.0057  0.1585  0.4141
 8787SOL    HW227525   2.309   7.331   2.244  0.1442  3.0151  0.4994
 8788SOL     OW27526   2.578   5.275   1.014  0.0111  0.1217 -0.4519
 8788SOL    HW127527   2.626   5.298   0.935 -0.3103  2.4829 -0.0197
 8788SOL    HW227528   2.641   5.287   1.085 -0.6509  1.4983 -0.0580
 8789SOL     OW27529   5.957   5.440   6.200 -0.3769 -0.6849  0.1462
 8789SOL    HW127530   5.897   5.391   6.144 -1.1122 -0.2808  0.5645
 8789SOL    HW227531   5.926   5.422   6.289 -0.3099  0.0875  0.3335
 8790SOL     OW27532   6.200   8.577   0.720 -0.1851  0.3024  0.1139
 8790SOL    HW127533   6.229   8.525   0.645 -1.7404 -0.0166 -0.3095
 8790SOL    HW227534   6.119   8.618   0.691 -1.0895 -0.2082  1.7759
 8791SOL     OW27535   0.198   2.466   2.393 -0.3254 -0.0196  0.2765
 8791SOL    HW127536   0.116   2.416   2.404 -0.9869  0.6476 -1.3639
 8791SOL    HW227537   0.219   2.457   2.301  0.7509  0.9168  0.4183
 8792SOL     OW27538   6.243   2.897   6.107  0.3833  0.2251 -0.3265
 8792SOL    HW127539   6.180   2.835   6.145  0.5341  0.7982  0.8933
 8792SOL    HW227540   6.245   2.874   6.014 -1.1727 -0.2037 -0.2936
 8793SOL     OW27541   1.014   5.878   4.331 -0.7039  0.1288  0.3374
 8793SOL    HW127542   1.041   5.911   4.246 -0.9282  0.6748  0.4709
 8793SOL    HW227543   0.936   5.930   4.353 -1.4986 -0.9903  0.2316
 8794SOL     OW27544   6.050   3.524   6.467  0.0924  0.0018  0.0975
 8794SOL    HW127545   6.095   3.492   6.545  0.7887  1.0190  0.1357
 8794SOL    HW227546   5.968   3.475   6.464 -0.3349  0.5065  1.9330
 8795SOL     OW27547   2.876   7.923   6.993 -0.9560  0.3954  0.1249
 8795SOL    HW127548   2.834   7.962   7.069  0.2655 -0.4633  1.2962
 8795SOL    HW227549   2.818   7.852   6.967 -1.0438  0.2448  0.7117
 8796SOL     OW27550   6.685   2.955   2.383  0.4947  0.2486  0.2978
 8796SOL    HW127551   6.612   2.971   2.443  1.2359  0.1563  1.2415
 8796SOL    HW227552   6.763   2.979   2.433  1.2220 -0.9401 -0.2178
 8797SOL     OW27553   2.153   5.268   5.535 -0.3268  0.1887  0.3073
 8797SOL    HW127554   2.223   5.299   5.592 -1.1775 -1.1252  2.2012
 8797SOL    HW227555   2.087   5.337   5.539  0.0347  0.5451  0.1270
 8798SOL     OW27556   6.005   6.415   0.721  0.2800  0.2565  0.3139
 8798SOL    HW127557   6.014   6.346   0.655 -2.0862  0.2634 -0.1260
 8798SOL    HW227558   5.999   6.496   0.670  3.5482  0.9567  0.8450
 8799SOL     OW27559   4.516   1.952   8.503  0.5082  0.7219 -0.3033
 8799SOL    HW127560   4.553   1.972   8.417 -1.0917 -0.8672 -1.4316
 8799SOL    HW227561   4.457   1.879   8.487 -0.3452  0.8204  2.0497
 8800SOL     OW27562   7.811   0.520   0.963 -0.7560  0.1514 -0.6494
 8800SOL    HW127563   7.723   0.484   0.955 -0.5862 -0.2953 -0.4907
 8800SOL    HW227564   7.841   0.529   0.873 -1.2077  0.9148 -0.7347
 8801SOL     OW27565   5.602   8.702   2.552  0.4811 -0.0114 -0.3700
 8801SOL    HW127566   5.658   8.653   2.492  1.6324 -0.8951  1.3372
 8801SOL    HW227567   5.660   8.723   2.626 -1.3551 -0.8028  1.3806
 8802SOL     OW27568   4.273   7.060   3.897  0.5581 -0.8254  0.0936
 8802SOL    HW127569   4.280   6.980   3.949 -2.0975 -0.4960  1.1548
 8802SOL    HW227570   4.297   7.130   3.958 -0.7876 -0.5765  0.3713
 8803SOL     OW27571   2.735   1.046   0.828  0.5062  0.4826  0.7317
 8803SOL    HW127572   2.687   0.969   0.799 -0.6434  1.5339 -0.2631
 8803SOL    HW227573   2.716   1.052   0.922  1.4641 -0.9947  1.0607
 8804SOL     OW27574   7.609   2.796   6.375 -0.0053  0.3279 -0.2641
 8804SOL    HW127575   7.628   2.890   6.380  1.9951  0.0709 -1.5575
 8804SOL    HW227576   7.541   2.781   6.440  0.6449  2.4278  0.9973
 8805SOL     OW27577   5.028   3.168   2.534  0.2966  0.0835 -0.5498
 8805SOL    HW127578   4.981   3.106   2.479 -1.5561  2.5909 -1.9509
 8805SOL    HW227579   5.115   3.174   2.494 -0.4333  0.4980 -2.1592
 8806SOL     OW27580   8.342   4.779   3.563 -0.5703  0.3865  0.7598
 8806SOL    HW127581   8.260   4.730   3.556 -0.6490  0.5287  0.6834
 8806SOL    HW227582   8.352   4.822   3.478  1.3427 -2.3571 -0.5845
 8807SOL     OW27583   2.057   6.703   2.377 -0.1542  0.6309  0.2060
 8807SOL    HW127584   2.142   6.740   2.399  0.4270 -0.3981 -0.2245
 8807SOL    HW227585   2.007   6.776   2.341  0.4982  1.2707  0.5619
 8808SOL     OW27586   1.417   5.988   3.330 -0.2634  0.1479  0.1646
 8808SOL    HW127587   1.404   6.077   3.297  0.4008  0.7862  1.5567
 8808SOL    HW227588   1.330   5.959   3.358 -0.3546  0.6399  0.3931
 8809SOL     OW27589   8.367   0.218   2.189  0.0836 -0.8463  0.2112
 8809SOL    HW127590   8.337   0.169   2.266  0.9479 -0.8154  0.5713
 8809SOL    HW227591   8.321   0.302   2.196  0.5302 -0.6541  0.9686
 8810SOL     OW27592   5.096   2.405   0.907  0.5567 -0.1094  0.1163
 8810SOL    HW127593   5.184   2.441   0.917  0.5811 -0.0002 -0.4574
 8810SOL    HW227594   5.078   2.412   0.813 -0.0360 -0.1931  0.2214
 8811SOL     OW27595   5.311   5.682   0.900  0.0171  0.2700 -0.1618
 8811SOL    HW127596   5.305   5.641   0.987  0.4307  0.8684  0.1566
 8811SOL    HW227597   5.286   5.613   0.839  0.4585 -0.3786  0.3811
 8812SOL     OW27598   2.303   3.404   0.678 -0.0251  0.0417  0.5902
 8812SOL    HW127599   2.289   3.421   0.585  1.5611 -1.1287  0.0994
 8812SOL    HW227600   2.220   3.427   0.719 -0.4262  1.5366 -0.9684
 8813SOL     OW27601   2.411   5.797   2.372 -0.3322 -0.0248 -0.5386
 8813SOL    HW127602   2.473   5.724   2.380 -0.4054 -0.1070 -0.7208
 8813SOL    HW227603   2.352   5.786   2.447 -0.1450  0.0347 -0.3837
 8814SOL     OW27604   4.847   1.394   4.553  0.5275 -0.1648 -0.0308
 8814SOL    HW127605   4.767   1.343   4.568 -0.0264  0.7778  0.3307
 8814SOL    HW227606   4.815   1.477   4.518  1.5150 -0.8141 -2.7321
 8815SOL     OW27607   8.825   4.722   2.555 -0.8562  0.4893 -0.2218
 8815SOL    HW127608   8.740   4.753   2.527 -1.1532 -0.4748 -0.4240
 8815SOL    HW227609   8.878   4.721   2.475 -0.9543  0.1397 -0.2834
 8816SOL     OW27610   7.728   8.269   3.201  0.0113  0.3342 -0.3815
 8816SOL    HW127611   7.793   8.218   3.249  0.1012  0.8234  0.0260
 8816SOL    HW227612   7.773   8.294   3.120 -0.1440 -0.4974 -0.7307
 8817SOL     OW27613   5.501   2.027   6.455 -0.2092  0.2871  0.3515
 8817SOL    HW127614   5.558   1.963   6.413  0.4473  0.8677  0.3580
 8817SOL    HW227615   5.559   2.084   6.505 -0.8078  0.7529  0.5384
 8818SOL     OW27616   7.618   8.128   8.395  0.3311  0.3185  0.5187
 8818SOL    HW127617   7.670   8.053   8.366  2.7521  1.5924  1.3034
 8818SOL    HW227618   7.558   8.092   8.460  1.9087 -0.8838  1.3973
 8819SOL     OW27619   0.291   5.843   2.074 -0.2772  0.3460 -0.1191
 8819SOL    HW127620   0.230   5.838   2.001  0.5532 -0.2750 -0.8035
 8819SOL    HW227621   0.374   5.810   2.038  0.7546  2.1324  0.4709
 8820SOL     OW27622   5.499   8.309   5.628  0.5518  0.5016 -0.3379
 8820SOL    HW127623   5.475   8.281   5.540 -1.2922 -0.4511  0.4048
 8820SOL    HW227624   5.557   8.241   5.661 -0.1255 -0.0345 -0.2313
 8821SOL     OW27625   3.927   5.095   0.039  0.6916 -0.3450 -0.1590
 8821SOL    HW127626   3.999   5.104   0.102  0.0330  0.9760  0.4494
 8821SOL    HW227627   3.953   5.150  -0.035 -0.3061  1.3435  0.6846
 8822SOL     OW27628   4.794   8.530   6.588 -0.5722  0.4567  0.6162
 8822SOL    HW127629   4.772   8.463   6.652 -0.9411 -0.2220 -0.2070
 8822SOL    HW227630   4.869   8.576   6.627 -1.9738  1.3720  2.4475
 8823SOL     OW27631   7.994   3.995   2.329 -0.5207  0.2289  0.3831
 8823SOL    HW127632   7.963   4.008   2.240 -2.2497  1.5024  1.1051
 8823SOL    HW227633   8.069   3.937   2.321  0.5926  1.8615 -2.0971
 8824SOL     OW27634   4.904   2.591   8.559 -0.0315 -0.9165 -0.1615
 8824SOL    HW127635   4.992   2.583   8.521  0.2862 -0.3763  0.4219
 8824SOL    HW227636   4.896   2.684   8.580 -0.7612 -0.9578 -0.2418
 8825SOL     OW27637   3.308   8.743   0.261  0.0871 -0.5648 -0.7244
 8825SOL    HW127638   3.261   8.826   0.270  1.3359 -0.0161  1.4245
 8825SOL    HW227639   3.241   8.676   0.275 -0.4665  0.1548  0.1985
 8826SOL     OW27640   7.866   8.431   7.670  0.2523 -0.5066 -0.1141
 8826SOL    HW127641   7.841   8.522   7.680 -1.1280 -0.7409 -1.2576
 8826SOL    HW227642   7.924   8.414   7.745 -0.8550  0.8107  1.0831
 8827SOL     OW27643   4.926   3.483   2.219 -0.8463 -0.7574 -0.2167
 8827SOL    HW127644   4.851   3.486   2.278 -0.3100  1.6678  0.4549
 8827SOL    HW227645   4.993   3.434   2.267 -1.3104 -1.1574  0.0256
 8828SOL     OW27646   2.048   3.433   7.185  0.2809 -0.5174 -0.3759
 8828SOL    HW127647   2.092   3.411   7.267 -0.3533  0.2254  0.1772
 8828SOL    HW227648   1.984   3.364   7.173 -0.4437  0.0065  0.3913
 8829SOL     OW27649   2.083   0.606   8.654 -0.6354  0.1947 -0.0227
 8829SOL    HW127650   1.991   0.583   8.667  0.0663 -3.3364 -0.4770
 8829SOL    HW227651   2.112   0.637   8.740 -1.5474 -1.4913  0.9453
 8830SOL     OW27652   5.201   7.504   7.120  0.3254  0.2291  0.3215
 8830SOL    HW127653   5.181   7.572   7.056  0.4649 -2.6561 -3.0618
 8830SOL    HW227654   5.115   7.468   7.144  0.3784  0.0606  0.2612
 8831SOL     OW27655   3.552   7.249   4.634 -1.0254 -0.2645  0.2076
 8831SOL    HW127656   3.553   7.344   4.626 -0.5678 -0.3847 -1.5457
 8831SOL    HW227657   3.520   7.233   4.723  1.4357  1.5426  1.5240
 8832SOL     OW27658   7.262   7.344   8.501  0.3891 -0.2548  0.4835
 8832SOL    HW127659   7.208   7.328   8.424  0.0042 -0.3663  0.7745
 8832SOL    HW227660   7.292   7.435   8.490  2.2662 -0.9851 -0.9680
 8833SOL     OW27661   4.097   1.127   4.510  0.1115  0.2147  0.3603
 8833SOL    HW127662   4.084   1.135   4.604 -3.1840 -2.5147  0.3189
 8833SOL    HW227663   4.168   1.063   4.501 -0.1914 -0.2240  1.0131
 8834SOL     OW27664   8.743   3.460   2.024  0.1940 -0.7572 -0.1479
 8834SOL    HW127665   8.823   3.410   2.042  0.9959  0.7144  0.5601
 8834SOL    HW227666   8.751   3.538   2.078 -2.2739 -1.0651  0.7596
 8835SOL     OW27667   4.258   2.254   2.806 -0.2059 -0.0932 -0.1534
 8835SOL    HW127668   4.345   2.220   2.827 -0.7627 -0.4378  1.8185
 8835SOL    HW227669   4.232   2.302   2.884 -2.0930 -0.6310 -0.3967
 8836SOL     OW27670   1.097   3.753   3.327  0.0699 -0.4422 -0.3552
 8836SOL    HW127671   1.139   3.814   3.266  0.0315 -0.8619 -0.8083
 8836SOL    HW227672   1.032   3.806   3.373  2.6542  0.8498  2.0985
 8837SOL     OW27673   4.524   4.768   4.012 -0.1365 -0.1547  0.0274
 8837SOL    HW127674   4.473   4.846   4.032  1.3018  0.2826  2.3146
 8837SOL    HW227675   4.492   4.702   4.074  0.3217 -0.6499 -0.2546
 8838SOL     OW27676   4.116   5.949   1.360 -0.4802  0.1827  0.4121
 8838SOL    HW127677   4.131   5.866   1.406  2.6203 -0.4900 -1.5405
 8838SOL    HW227678   4.120   6.015   1.429 -1.0273 -1.1086  1.7493
 8839SOL     OW27679   2.806   7.258   5.841 -0.4164 -0.2275  0.6884
 8839SOL    HW127680   2.729   7.206   5.867 -0.6845 -0.9659 -1.3351
 8839SOL    HW227681   2.769   7.337   5.802 -0.1718 -0.5543 -0.2310
 8840SOL     OW27682   1.382   5.270   8.320  0.0927 -0.7849 -0.2516
 8840SOL    HW127683   1.369   5.346   8.263 -1.1439 -0.8197 -0.0406
 8840SOL    HW227684   1.410   5.200   8.261 -0.4122 -0.6123 -0.7042
 8841SOL     OW27685   6.656   0.695   8.634 -0.1866 -0.0219 -0.2720
 8841SOL    HW127686   6.730   0.720   8.579  1.0858  1.3388  1.8943
 8841SOL    HW227687   6.635   0.775   8.683 -0.5250 -1.3712  1.9361
 8842SOL     OW27688   7.844   6.695   1.183  0.3002 -0.1156 -0.2843
 8842SOL    HW127689   7.760   6.651   1.177  0.0735  0.3915 -0.9759
 8842SOL    HW227690   7.906   6.627   1.209 -0.4647 -0.3191  1.0956
 8843SOL     OW27691   3.043   8.529   1.664 -0.3935  0.1203 -0.0457
 8843SOL    HW127692   2.989   8.540   1.585 -1.4197 -0.9989  0.4774
 8843SOL    HW227693   2.983   8.495   1.730  0.9782 -1.2938  0.5331
 8844SOL     OW27694   0.450   2.277   2.606  0.3826  0.3822 -0.0587
 8844SOL    HW127695   0.445   2.310   2.516 -0.8289 -0.0136 -0.1597
 8844SOL    HW227696   0.478   2.186   2.598  1.6550  0.7447  0.0769
 8845SOL     OW27697   5.642   5.197   2.234 -0.0840 -0.7730 -0.4516
 8845SOL    HW127698   5.643   5.167   2.143 -0.7837  1.6725 -1.3367
 8845SOL    HW227699   5.549   5.212   2.254  0.2117  0.7687 -0.0976
 8846SOL     OW27700   6.470   2.515   5.357 -0.2804  0.3400  0.0777
 8846SOL    HW127701   6.441   2.445   5.299  1.4664 -0.1520 -0.2611
 8846SOL    HW227702   6.518   2.575   5.299 -1.1105  1.4434  0.4971
 8847SOL     OW27703   3.137   6.510   1.981 -0.1490  0.2238 -0.9261
 8847SOL    HW127704   3.048   6.514   1.947 -0.2928 -0.5005 -0.6578
 8847SOL    HW227705   3.159   6.600   2.002 -0.9702  0.3556 -0.6127
 8848SOL     OW27706   1.938   0.288   2.946 -0.6884 -0.0848  0.4692
 8848SOL    HW127707   1.866   0.346   2.972 -0.9486 -0.0858 -0.2535
 8848SOL    HW227708   1.916   0.259   2.858  1.5498  2.1824 -1.0071
 8849SOL     OW27709   8.642   1.374   7.456  0.1148 -0.0181 -0.4245
 8849SOL    HW127710   8.645   1.292   7.407  1.9699  0.3032 -0.9103
 8849SOL    HW227711   8.697   1.359   7.533 -0.8267  0.2749  0.3261
 8850SOL     OW27712   7.974   0.867   8.603  0.2796  0.4186 -0.4350
 8850SOL    HW127713   7.880   0.884   8.600  0.3706  0.8141 -1.8944
 8850SOL    HW227714   8.012   0.949   8.633  0.0465 -0.4624  2.6024
 8851SOL     OW27715   5.702   6.295   3.950 -0.0627 -0.0775  0.2443
 8851SOL    HW127716   5.671   6.329   4.034 -0.7583  0.0812 -0.0735
 8851SOL    HW227717   5.717   6.202   3.967  0.4665  0.0851  0.7246
 8852SOL     OW27718   3.000   5.984   4.405  0.0153 -0.2477  0.1543
 8852SOL    HW127719   3.073   6.034   4.440  0.6903 -0.8752 -0.3245
 8852SOL    HW227720   2.937   6.050   4.375  0.1731  0.2965  0.9733
 8853SOL     OW27721   4.841   3.219   4.767 -0.0983 -0.3419  0.3135
 8853SOL    HW127722   4.834   3.149   4.832 -1.7345 -0.8375 -0.3374
 8853SOL    HW227723   4.915   3.193   4.712 -0.1911 -1.1729  0.5585
 8854SOL     OW27724   5.987   8.557   8.127  0.0551 -0.1063  0.6274
 8854SOL    HW127725   5.926   8.484   8.128  0.1434 -0.1924 -0.1353
 8854SOL    HW227726   6.061   8.528   8.181  0.8708 -1.2685 -1.0254
 8855SOL     OW27727   5.905   2.429   4.744 -0.0338 -0.5022 -0.3807
 8855SOL    HW127728   5.898   2.472   4.659 -0.4793  0.3671  0.0785
 8855SOL    HW227729   5.815   2.427   4.777  0.2636  0.0834  0.5001
 8856SOL     OW27730   4.835   1.828   5.979 -0.2038 -0.4245  0.6887
 8856SOL    HW127731   4.923   1.862   5.967 -0.5350 -0.1126 -1.1249
 8856SOL    HW227732   4.814   1.848   6.071  1.3868 -0.0378  1.0024
 8857SOL     OW27733   3.687   6.870   1.259  0.0203  0.5546 -0.1108
 8857SOL    HW127734   3.667   6.920   1.180 -0.9775 -1.7835 -1.4320
 8857SOL    HW227735   3.601   6.845   1.293  0.4888 -0.3032  0.4623
 8858SOL     OW27736   4.949   3.426   4.516  0.2832 -0.2064  0.0866
 8858SOL    HW127737   4.926   3.519   4.507  0.8043 -0.0925 -0.1481
 8858SOL    HW227738   5.028   3.427   4.571  0.9308 -0.4222 -0.8132
 8859SOL     OW27739   4.682   4.834   7.908 -0.0088 -0.4347  0.4260
 8859SOL    HW127740   4.634   4.859   7.987  1.1356  1.1489  0.6639
 8859SOL    HW227741   4.756   4.782   7.940  0.4289  0.1672  0.4068
 8860SOL     OW27742   5.303   8.344   3.479  0.1277  0.2395 -0.3268
 8860SOL    HW127743   5.384   8.327   3.528 -0.4768 -0.0164  0.6249
 8860SOL    HW227744   5.260   8.259   3.475  0.6815  0.0219 -2.3143
 8861SOL     OW27745   4.701   8.102   5.729  0.5025  0.1092  0.1774
 8861SOL    HW127746   4.613   8.078   5.759 -0.2702  1.4703 -0.9200
 8861SOL    HW227747   4.755   8.097   5.808 -0.5815 -0.5918  0.9014
 8862SOL     OW27748   1.756   4.241   3.312 -0.3402 -0.1430  0.2625
 8862SOL    HW127749   1.742   4.262   3.404  0.7570 -1.5585  0.7956
 8862SOL    HW227750   1.670   4.220   3.278 -0.4888 -1.8994  1.6001
 8863SOL     OW27751   1.645   6.549   1.401  0.2845  0.6490  0.0197
 8863SOL    HW127752   1.728   6.514   1.368  0.7433  2.0643 -0.4136
 8863SOL    HW227753   1.654   6.644   1.392 -0.4966  0.9729  2.0669
 8864SOL     OW27754   6.142   1.070   8.574 -0.1239  0.2043 -0.1897
 8864SOL    HW127755   6.098   1.024   8.502 -0.4546  1.0651 -0.5498
 8864SOL    HW227756   6.216   1.114   8.533 -0.1379  0.4516  0.0492
 8865SOL     OW27757   2.660   5.909   6.886 -0.0653  0.4487  1.2283
 8865SOL    HW127758   2.663   5.998   6.852  0.6065  0.4937  1.4049
 8865SOL    HW227759   2.632   5.920   6.977  1.3655  0.6052  1.6714
 8866SOL     OW27760   0.178   1.052   8.366  0.1509 -0.6430  0.0612
 8866SOL    HW127761   0.131   1.097   8.436  0.3320 -0.9999  0.4133
 8866SOL    HW227762   0.197   1.121   8.302 -0.9258 -0.5024 -0.1352
 8867SOL     OW27763   5.973   5.460   4.132 -0.3240 -0.1460 -0.0651
 8867SOL    HW127764   5.962   5.554   4.116  0.6507 -0.0839 -0.4275
 8867SOL    HW227765   5.974   5.452   4.227  1.0694  0.4180 -0.0073
 8868SOL     OW27766   2.955   2.579   3.631  0.4196  0.6864 -0.3002
 8868SOL    HW127767   2.995   2.519   3.695  2.3447  2.4474  0.2385
 8868SOL    HW227768   2.982   2.543   3.546 -0.7714 -0.7329 -0.1236
 8869SOL     OW27769   1.715   5.228   1.844 -0.0328 -0.5863  0.6842
 8869SOL    HW127770   1.622   5.232   1.820  0.2422 -0.2883 -0.3862
 8869SOL    HW227771   1.749   5.153   1.796  0.5220 -0.0064  0.1549
 8870SOL     OW27772   2.305   4.986   0.557 -0.0152  0.6399 -0.0712
 8870SOL    HW127773   2.265   5.013   0.475 -0.2870  1.1562  0.2253
 8870SOL    HW227774   2.252   4.911   0.586 -0.3488  0.8939 -0.0201
 8871SOL     OW27775   7.238   1.459   4.271  0.2519  0.0047  0.6311
 8871SOL    HW127776   7.143   1.454   4.273  0.2539 -3.4329 -0.8380
 8871SOL    HW227777   7.257   1.514   4.194 -0.5774 -0.4545  0.0838
 8872SOL     OW27778   2.593   2.626   2.059  0.0308 -0.2154  0.1617
 8872SOL    HW127779   2.638   2.548   2.090 -1.5205 -0.9143  0.7676
 8872SOL    HW227780   2.644   2.699   2.095  0.9749 -0.9536  0.3523
 8873SOL     OW27781   0.187   4.787   6.615 -0.3813 -0.2651 -0.1873
 8873SOL    HW127782   0.217   4.701   6.644  1.2217  0.0022 -0.9086
 8873SOL    HW227783   0.245   4.809   6.542 -1.9404  0.6476 -1.2050
 8874SOL     OW27784   0.104   5.871   5.711  0.4219  0.6180 -0.3005
 8874SOL    HW127785   0.160   5.803   5.749  2.2846  2.1680 -0.1173
 8874SOL    HW227786   0.020   5.860   5.754  1.4924  0.1761  1.7966
 8875SOL     OW27787   3.166   5.257   6.924 -0.2787 -0.1705 -0.3620
 8875SOL    HW127788   3.187   5.340   6.881 -0.1020  0.3835  0.7322
 8875SOL    HW227789   3.239   5.242   6.985 -1.0158 -0.3486  0.5106
 8876SOL     OW27790   0.180   4.279   8.829  0.2564  0.0101 -0.2752
 8876SOL    HW127791   0.133   4.209   8.874  0.9883 -0.6632 -0.5243
 8876SOL    HW227792   0.254   4.298   8.886 -0.1473  0.8528 -0.0266
 8877SOL     OW27793   0.747   4.018   6.475 -0.1123 -0.3800  0.0708
 8877SOL    HW127794   0.679   4.075   6.440 -1.7696 -1.2788  1.6729
 8877SOL    HW227795   0.803   4.077   6.526 -0.2588  0.2095 -0.4392
 8878SOL     OW27796   1.157   3.698   5.889  0.2518  0.0062 -0.3892
 8878SOL    HW127797   1.101   3.659   5.822  0.4275 -0.9755  0.0106
 8878SOL    HW227798   1.097   3.741   5.950  0.1072  1.1291 -1.2964
 8879SOL     OW27799   1.155   1.314   6.767  0.1895  0.6511  0.1681
 8879SOL    HW127800   1.094   1.386   6.784  0.9356  1.4236 -0.3845
 8879SOL    HW227801   1.100   1.244   6.733 -0.9577  0.0273  3.0066
 8880SOL     OW27802   0.753   3.191   1.066  0.4435 -0.4695 -0.2068
 8880SOL    HW127803   0.668   3.236   1.067 -0.2241 -1.6872 -0.0483
 8880SOL    HW227804   0.731   3.100   1.048  1.0656 -2.1375  5.5705
 8881SOL     OW27805   6.508   2.225   8.565  0.4455  0.7120 -0.0199
 8881SOL    HW127806   6.473   2.168   8.633  0.9949  1.1403  0.6297
 8881SOL    HW227807   6.536   2.303   8.611  3.1355  0.0293 -0.3588
 8882SOL     OW27808   1.180   4.841   4.791  0.6317  0.3650  0.3669
 8882SOL    HW127809   1.096   4.884   4.807  1.1490  1.1679  1.0854
 8882SOL    HW227810   1.216   4.825   4.878  0.8782 -0.7038  0.0873
 8883SOL     OW27811   3.804   0.788   7.353  0.2244  0.3454  0.1081
 8883SOL    HW127812   3.852   0.859   7.395 -1.7379  1.4342  0.6430
 8883SOL    HW227813   3.712   0.806   7.373 -0.3625 -2.2406  0.0584
 8884SOL     OW27814   6.194   5.609   4.813 -0.2141  0.0500 -0.0519
 8884SOL    HW127815   6.280   5.614   4.854 -0.0615  0.3733 -0.4116
 8884SOL    HW227816   6.166   5.700   4.803 -0.2743 -0.0289 -0.6137
 8885SOL     OW27817   8.211   3.670   6.350  0.2808  0.1234 -0.1189
 8885SOL    HW127818   8.253   3.734   6.408  0.5244 -1.3179  1.4054
 8885SOL    HW227819   8.260   3.676   6.268  0.4268  1.7073  0.0564
 8886SOL     OW27820   4.457   5.857   0.084 -0.0321 -0.9511  0.1078
 8886SOL    HW127821   4.369   5.840   0.053 -0.7214 -1.7482  2.3384
 8886SOL    HW227822   4.454   5.946   0.119 -0.2453 -1.3204  1.0609
 8887SOL     OW27823   5.776   1.536   7.934  0.2304  0.4633  0.1511
 8887SOL    HW127824   5.843   1.485   7.979 -0.0638  0.4219  0.5434
 8887SOL    HW227825   5.702   1.538   7.995 -0.7892 -0.9624 -0.9670
 8888SOL     OW27826   8.655   8.159   8.041 -0.2657  0.2842  0.1687
 8888SOL    HW127827   8.720   8.159   7.971 -2.0546 -0.9633 -1.6041
 8888SOL    HW227828   8.661   8.072   8.080 -0.4581  0.3809  0.4190
 8889SOL     OW27829   7.173   5.995   0.607 -0.1821 -0.5236  0.1247
 8889SOL    HW127830   7.100   5.985   0.669  0.2471  2.3577  1.2876
 8889SOL    HW227831   7.135   6.041   0.532 -0.5259 -3.3337 -1.5604
 8890SOL     OW27832   0.080   2.965   5.511  1.0017  0.7341 -0.3293
 8890SOL    HW127833   0.013   3.029   5.538  0.6744  0.5229 -0.6266
 8890SOL    HW227834   0.085   2.903   5.584 -0.3216 -0.1832 -0.9863
 8891SOL     OW27835   4.458   2.994   8.210  0.3015 -0.3296  0.2962
 8891SOL    HW127836   4.554   2.994   8.214  0.3597 -0.7707 -0.7438
 8891SOL    HW227837   4.438   2.970   8.119 -0.7952 -0.1581  0.4813
 8892SOL     OW27838   7.550   8.151   5.583  0.3898  0.5096 -0.4437
 8892SOL    HW127839   7.643   8.137   5.565  0.6980  1.4618  0.3080
 8892SOL    HW227840   7.523   8.076   5.635  0.9056  0.5502 -0.1165
 8893SOL     OW27841   6.729   3.273   5.266  0.3832 -0.3706 -1.0466
 8893SOL    HW127842   6.651   3.219   5.281  0.4425 -0.1414  0.1210
 8893SOL    HW227843   6.765   3.288   5.353  2.0921 -0.9810 -1.6107
 8894SOL     OW27844   5.826   2.560   2.135  0.3702  0.5643  0.7571
 8894SOL    HW127845   5.863   2.646   2.155  0.8018  0.2990  1.1051
 8894SOL    HW227846   5.902   2.503   2.123  0.1101 -0.4160  3.3122
 8895SOL     OW27847   0.282   4.265   1.885  0.1042 -0.3745  0.2635
 8895SOL    HW127848   0.358   4.209   1.898 -0.5055 -1.8289 -1.8235
 8895SOL    HW227849   0.305   4.321   1.810 -0.3518  0.1936  0.5342
 8896SOL     OW27850   5.845   6.081   2.528  0.4235  0.2117 -0.7048
 8896SOL    HW127851   5.862   6.047   2.616 -0.0446  1.3196 -0.1660
 8896SOL    HW227852   5.931   6.084   2.487  0.5709 -0.8700 -0.5041
 8897SOL     OW27853   1.272   6.686   8.580  0.3203 -0.4038  0.6147
 8897SOL    HW127854   1.228   6.750   8.636  0.4069 -0.4344  0.7197
 8897SOL    HW227855   1.203   6.624   8.556 -0.3067  0.9820 -1.3997
 8898SOL     OW27856   2.894   0.276   0.119 -0.2809  0.3419 -0.0705
 8898SOL    HW127857   2.914   0.327   0.198 -1.0809 -0.9562  1.0224
 8898SOL    HW227858   2.980   0.251   0.085  0.0818  0.7812  0.4830
 8899SOL     OW27859   0.831   0.585   5.712  0.1840 -0.1093 -0.6056
 8899SOL    HW127860   0.767   0.549   5.773  0.0509 -3.3966 -2.4391
 8899SOL    HW227861   0.791   0.665   5.679 -1.9164 -0.8262  0.0543
 8900SOL     OW27862   3.102   0.752   6.080 -0.0938  0.3673 -0.1925
 8900SOL    HW127863   3.036   0.715   6.140 -0.2513  0.3236 -0.3900
 8900SOL    HW227864   3.147   0.676   6.044 -0.2277  0.3755 -0.3841
 8901SOL     OW27865   3.833   3.673   3.945  0.3367 -0.0794  0.8317
 8901SOL    HW127866   3.815   3.605   3.879  0.6308  0.3070  0.3446
 8901SOL    HW227867   3.819   3.629   4.029 -0.0679 -0.5747  0.5118
 8902SOL     OW27868   6.274   7.719   8.693 -0.3893  0.0843  0.1895
 8902SOL    HW127869   6.244   7.798   8.646 -1.4524 -0.1039  0.5352
 8902SOL    HW227870   6.311   7.663   8.624 -0.5970  0.4324 -0.2093
 8903SOL     OW27871   2.156   6.218   7.023  0.2011 -0.3352 -0.1917
 8903SOL    HW127872   2.070   6.186   7.050  0.4350 -0.8326 -0.0222
 8903SOL    HW227873   2.201   6.238   7.105  1.0624 -2.2388 -0.1575
 8904SOL     OW27874   6.768   0.400   6.665 -0.4454 -0.1839  0.3704
 8904SOL    HW127875   6.707   0.466   6.698 -2.1457 -0.7525 -1.4633
 8904SOL    HW227876   6.770   0.332   6.733 -1.1996  0.2305  0.8178
 8905SOL     OW27877   6.593   4.355   0.321  0.1225 -0.1737 -0.2243
 8905SOL    HW127878   6.523   4.302   0.360  0.3473  0.8622  1.7033
 8905SOL    HW227879   6.674   4.311   0.348  0.2720 -0.4977 -1.1511
 8906SOL     OW27880   6.557   7.110   2.137  0.1730  0.1132 -0.0338
 8906SOL    HW127881   6.466   7.125   2.163  0.4061  0.7474  0.4405
 8906SOL    HW227882   6.588   7.040   2.196  0.1899  0.3707  0.2683
 8907SOL     OW27883   1.204   5.994   6.302  0.0584  0.1093  0.0366
 8907SOL    HW127884   1.135   5.997   6.236  0.2850  0.1051 -0.2036
 8907SOL    HW227885   1.269   6.058   6.271 -0.9123  1.9045  1.4802
 8908SOL     OW27886   3.478   4.167   8.530 -0.5074 -0.7546 -0.2826
 8908SOL    HW127887   3.392   4.176   8.489 -0.3916 -1.1521 -0.6242
 8908SOL    HW227888   3.538   4.214   8.472 -0.5264 -0.2765  0.0795
 8909SOL     OW27889   4.129   3.574   2.911  0.2618 -0.5259 -0.2117
 8909SOL    HW127890   4.071   3.547   2.982  1.5950 -1.4906  0.5561
 8909SOL    HW227891   4.137   3.669   2.922 -0.8640 -0.4336 -0.1050
 8910SOL     OW27892   2.809   7.090   7.268  0.5327 -0.1521  0.5622
 8910SOL    HW127893   2.873   7.123   7.330 -0.2593  1.6174  0.4931
 8910SOL    HW227894   2.856   7.087   7.184  0.8799 -0.1312  0.7534
 8911SOL     OW27895   5.869   0.878   0.308 -0.4759 -0.2389  0.1153
 8911SOL    HW127896   5.908   0.806   0.259 -1.1570 -0.8465  0.4473
 8911SOL    HW227897   5.944   0.925   0.346 -0.0539 -1.2407  0.5483
 8912SOL     OW27898   5.882   1.245   4.795  0.0322 -0.0941  0.0783
 8912SOL    HW127899   5.810   1.287   4.749  0.5400  0.1079 -0.5549
 8912SOL    HW227900   5.841   1.174   4.844 -0.5842 -0.0482 -0.3577
 8913SOL     OW27901   7.007   7.634   3.111  0.2463  0.9929  0.0217
 8913SOL    HW127902   7.045   7.647   3.024  2.1355  2.2948  0.9807
 8913SOL    HW227903   6.927   7.686   3.111 -0.1785  0.3777 -1.1542
 8914SOL     OW27904   7.514   7.682   0.169 -0.1745 -0.5026 -0.0347
 8914SOL    HW127905   7.469   7.632   0.101  0.5510 -0.7260 -0.3675
 8914SOL    HW227906   7.593   7.631   0.187 -0.2653 -0.3504  0.8524
 8915SOL     OW27907   7.561   3.333   3.651 -0.2182  0.3900 -0.0470
 8915SOL    HW127908   7.519   3.376   3.577  2.6191  1.0183 -1.4423
 8915SOL    HW227909   7.583   3.245   3.620 -1.5485 -0.3694  1.0808
 8916SOL     OW27910   5.581   5.464   3.695  0.7323 -0.3290  0.0883
 8916SOL    HW127911   5.496   5.494   3.727  0.4948  1.7360 -2.2080
 8916SOL    HW227912   5.578   5.369   3.705 -0.5154 -0.0984  3.0418
 8917SOL     OW27913   6.162   7.506   1.748 -0.3685 -0.4897 -0.0649
 8917SOL    HW127914   6.155   7.421   1.791  0.7688 -0.2826  0.5519
 8917SOL    HW227915   6.169   7.569   1.819  0.9738 -0.0904 -0.5228
 8918SOL     OW27916   2.943   0.572   2.333 -0.0181  0.3361 -0.3825
 8918SOL    HW127917   2.934   0.555   2.427 -0.0919  2.7755  0.1133
 8918SOL    HW227918   3.009   0.509   2.303 -0.4736 -0.9268  1.1420
 8919SOL     OW27919   0.721   8.782   3.191  0.2460 -0.0739  0.2242
 8919SOL    HW127920   0.790   8.782   3.258  0.4606  0.7904  0.0056
 8919SOL    HW227921   0.730   8.866   3.146 -0.0175 -0.5548 -0.7700
 8920SOL     OW27922   7.074   8.501   3.314  0.0745 -0.2358 -0.2938
 8920SOL    HW127923   7.089   8.579   3.260  0.2035  1.3909  1.9420
 8920SOL    HW227924   7.149   8.444   3.295  1.4844  1.4318  0.0282
 8921SOL     OW27925   8.129   2.935   5.213  0.1583  0.2042 -0.3861
 8921SOL    HW127926   8.221   2.960   5.201  0.6377 -0.4291  1.6283
 8921SOL    HW227927   8.080   3.001   5.163  1.6795  0.5918 -1.4518
 8922SOL     OW27928   6.812   3.894   7.446 -0.5439 -0.0366  0.2049
 8922SOL    HW127929   6.863   3.826   7.402 -0.0345  1.5412 -1.8503
 8922SOL    HW227930   6.777   3.852   7.524  0.4343 -2.3803 -0.5275
 8923SOL     OW27931   6.983   3.942   5.447 -0.2287  0.1039  0.1429
 8923SOL    HW127932   6.964   3.975   5.359  0.1610  1.2727  0.4865
 8923SOL    HW227933   6.938   4.001   5.506 -1.8648 -1.6211  0.7258
 8924SOL     OW27934   0.172   5.430   0.661 -0.8876  0.6004  0.3161
 8924SOL    HW127935   0.139   5.520   0.657  0.3456  1.0257 -1.3161
 8924SOL    HW227936   0.262   5.439   0.692 -0.2517  0.1218 -1.2919
 8925SOL     OW27937   4.796   8.645   2.185 -0.2404  0.1871  0.6941
 8925SOL    HW127938   4.884   8.680   2.169 -0.0122 -0.2542  0.9928
 8925SOL    HW227939   4.799   8.614   2.275 -0.7901  0.4225  0.7967
 8926SOL     OW27940   5.570   7.767   4.410 -0.3636  0.2007  0.2407
 8926SOL    HW127941   5.602   7.855   4.428 -0.7616  0.4548 -0.2504
 8926SOL    HW227942   5.634   7.708   4.450  0.4015  0.7012 -0.2327
 8927SOL     OW27943   2.940   0.332   0.857 -0.5556  0.0647 -0.2645
 8927SOL    HW127944   2.852   0.316   0.822 -0.6540 -0.8577  0.3574
 8927SOL    HW227945   2.927   0.337   0.952 -0.1181  1.2578 -0.2550
 8928SOL     OW27946   8.217   4.633   1.514  0.3736 -0.0649 -0.1409
 8928SOL    HW127947   8.204   4.722   1.480  0.1227 -0.5238 -1.2982
 8928SOL    HW227948   8.147   4.582   1.474  1.2860 -1.0460 -0.5379
 8929SOL     OW27949   7.912   6.323   5.203  0.1793 -0.0017 -0.0523
 8929SOL    HW127950   7.982   6.274   5.158 -0.7214 -1.3423 -0.0587
 8929SOL    HW227951   7.861   6.363   5.131  0.8853  0.9389 -0.0490
 8930SOL     OW27952   1.400   1.817   2.289 -0.3253 -0.4652 -0.0676
 8930SOL    HW127953   1.475   1.811   2.229 -0.5153  0.1519 -0.3787
 8930SOL    HW227954   1.374   1.909   2.284 -2.0775 -0.9723 -1.1626
 8931SOL     OW27955   5.221   1.529   2.592 -0.6372  0.0916 -0.2764
 8931SOL    HW127956   5.157   1.461   2.613  0.4122 -1.4251 -1.6664
 8931SOL    HW227957   5.304   1.495   2.626 -0.3426  1.4396  0.3974
 8932SOL     OW27958   0.979   2.452   3.085 -0.4945  0.5782 -0.9831
 8932SOL    HW127959   1.033   2.520   3.124 -0.4500  0.4274 -0.7835
 8932SOL    HW227960   0.898   2.452   3.137 -0.0086 -0.3602 -0.1946
 8933SOL     OW27961   3.964   4.604   3.240  0.0679  0.1861 -0.4212
 8933SOL    HW127962   3.970   4.692   3.204 -2.1964  0.6760  0.2376
 8933SOL    HW227963   4.055   4.576   3.251  0.8276  1.8593 -1.9732
 8934SOL     OW27964   5.312   2.551   5.716  0.3835  0.3426  0.0768
 8934SOL    HW127965   5.319   2.645   5.700  1.5615  0.2600 -0.0015
 8934SOL    HW227966   5.220   2.537   5.739 -0.1395  1.2855 -1.3226
 8935SOL     OW27967   8.533   6.859   6.129  0.1473  0.4154  0.2568
 8935SOL    HW127968   8.612   6.842   6.181  0.7782  2.8443  0.2134
 8935SOL    HW227969   8.565   6.863   6.038 -0.6503 -1.9675 -0.2050
 8936SOL     OW27970   7.605   7.064   6.329  0.4373 -0.8109 -0.0643
 8936SOL    HW127971   7.587   7.053   6.423  0.4993  0.7769  0.1623
 8936SOL    HW227972   7.677   7.127   6.326 -1.1958  1.1262 -1.2033
 8937SOL     OW27973   8.507   2.737   4.520 -0.6640  0.2718  0.5597
 8937SOL    HW127974   8.583   2.690   4.485 -1.4992  0.4018 -1.5621
 8937SOL    HW227975   8.507   2.716   4.613  1.0278 -1.0455  0.3150
 8938SOL     OW27976   5.039   7.420   3.132 -0.5832  0.2507  1.0068
 8938SOL    HW127977   5.103   7.478   3.090 -2.4517  2.1623  0.6073
 8938SOL    HW227978   5.011   7.361   3.062 -0.9647  0.9824  0.5207
 8939SOL     OW27979   3.897   8.683   4.601 -0.4751 -0.0505  0.3312
 8939SOL    HW127980   3.836   8.615   4.571 -1.1791  0.3900  0.7251
 8939SOL    HW227981   3.913   8.661   4.693  1.6838 -1.4048 -0.2829
 8940SOL     OW27982   8.495   6.095   6.794 -0.7153 -0.4577 -0.1079
 8940SOL    HW127983   8.587   6.116   6.809 -0.8870  0.3650 -0.1342
 8940SOL    HW227984   8.468   6.047   6.872 -0.9943  1.7787  1.2599
 8941SOL     OW27985   1.406   7.536   1.339  0.7086  0.1763  0.5624
 8941SOL    HW127986   1.474   7.535   1.272 -1.5757  0.4761 -1.9501
 8941SOL    HW227987   1.404   7.627   1.370  1.0256  0.3154  0.1736
 8942SOL     OW27988   0.799   6.344   0.453 -0.4601 -0.0471  0.5678
 8942SOL    HW127989   0.708   6.317   0.468 -1.5696  2.0143 -1.7584
 8942SOL    HW227990   0.840   6.268   0.412 -1.5930 -0.4515  0.1588
 8943SOL     OW27991   1.431   4.934   0.027 -0.2607 -0.0653 -0.4273
 8943SOL    HW127992   1.512   4.896   0.060  0.0591  0.6125 -0.4096
 8943SOL    HW227993   1.382   4.860  -0.008  0.0673 -0.5805  0.1762
 8944SOL     OW27994   3.788   6.368   3.108  0.2975 -0.3976 -0.4885
 8944SOL    HW127995   3.800   6.456   3.073  1.1296 -0.0603  0.5946
 8944SOL    HW227996   3.706   6.372   3.156  0.5680 -0.0680 -0.0440
 8945SOL     OW27997   5.451   2.180   7.677 -1.0376  0.6382  0.1565
 8945SOL    HW127998   5.440   2.177   7.772  2.3151  3.0038  0.8293
 8945SOL    HW227999   5.394   2.250   7.647  0.5580  2.4337  1.1125
 8946SOL     OW28000   0.463   6.261   6.583 -0.5345 -0.0008  0.0321
 8946SOL    HW128001   0.436   6.204   6.511  0.4354  0.2426 -0.5397
 8946SOL    HW228002   0.385   6.268   6.638 -1.0858 -0.7456 -0.6268
 8947SOL     OW28003   0.650   4.434   8.166 -0.6254 -0.0189 -0.5316
 8947SOL    HW128004   0.740   4.452   8.193 -0.4703 -1.0495 -0.3232
 8947SOL    HW228005   0.597   4.495   8.218 -0.1539 -0.4239  0.4662
 8948SOL     OW28006   6.132   8.804   3.249  0.7090  0.4927  0.1540
 8948SOL    HW128007   6.111   8.745   3.321  1.2229 -0.3869 -0.3908
 8948SOL    HW228008   6.219   8.776   3.220  0.2809  0.4596 -1.1533
 8949SOL     OW28009   8.484   8.445   2.971 -0.2720  0.2254  0.4649
 8949SOL    HW128010   8.492   8.430   2.876  2.1110  0.9888  0.4779
 8949SOL    HW228011   8.441   8.367   3.004  0.0610 -0.6641 -1.0985
 8950SOL     OW28012   7.631   1.695   0.612 -0.1623  0.1623 -0.0658
 8950SOL    HW128013   7.581   1.772   0.588  1.9032  1.3691 -0.7427
 8950SOL    HW228014   7.624   1.637   0.537 -1.9371 -0.4902  0.5474
 8951SOL     OW28015   5.394   3.232   4.085 -0.2557 -0.1762  0.0269
 8951SOL    HW128016   5.437   3.268   4.163  1.0328  0.7106 -1.0548
 8951SOL    HW228017   5.423   3.288   4.013 -2.7835  0.1000 -0.8803
 8952SOL     OW28018   4.024   5.105   4.055  0.1555 -0.1009  0.0307
 8952SOL    HW128019   3.942   5.109   4.103 -0.2787  1.7336 -0.7742
 8952SOL    HW228020   4.010   5.160   3.978  1.5929 -1.0928 -1.0089
 8953SOL     OW28021   8.535   2.548   7.712  0.0028  0.2575  0.0378
 8953SOL    HW128022   8.600   2.478   7.707  0.6858  0.7679  1.5147
 8953SOL    HW228023   8.586   2.628   7.722 -0.8366  0.7493  0.4264
 8954SOL     OW28024   5.720   3.408   3.938  0.5513 -0.1531  0.0550
 8954SOL    HW128025   5.777   3.482   3.916 -0.2492  0.4230 -0.1426
 8954SOL    HW228026   5.762   3.367   4.013  2.5150 -1.2250 -1.5517
 8955SOL     OW28027   3.406   2.585   0.596 -0.2945 -0.1775 -0.0032
 8955SOL    HW128028   3.330   2.554   0.645  0.1255 -1.3806 -0.0880
 8955SOL    HW228029   3.395   2.549   0.509  1.1813 -1.7880  0.4183
 8956SOL     OW28030   5.392   0.473   5.496 -0.8942 -0.4414 -0.3841
 8956SOL    HW128031   5.366   0.381   5.504 -0.3270 -0.6723 -1.1414
 8956SOL    HW228032   5.480   0.470   5.457 -0.2987  0.3720  0.8235
 8957SOL     OW28033   0.952   0.179   6.342  0.4852 -0.6695 -0.3521
 8957SOL    HW128034   0.882   0.191   6.278  0.2536 -1.3139 -0.2315
 8957SOL    HW228035   0.910   0.134   6.416  1.2961 -2.3317 -0.8437
 8958SOL     OW28036   2.113   7.402   8.187 -0.0351 -0.3507 -0.0459
 8958SOL    HW128037   2.090   7.475   8.245 -0.5856 -0.1437 -0.5165
 8958SOL    HW228038   2.116   7.440   8.100 -0.7255 -0.9659 -0.3515
 8959SOL     OW28039   6.005   8.441   0.081 -1.1594 -0.5156  0.0288
 8959SOL    HW128040   6.065   8.380   0.037 -1.5805 -1.2492  0.4427
 8959SOL    HW228041   6.038   8.528   0.059 -0.1239 -0.9036 -0.0051
 8960SOL     OW28042   4.378   4.138   1.751 -0.5057  0.3499 -0.1186
 8960SOL    HW128043   4.407   4.060   1.703 -1.2722  1.3928 -2.4370
 8960SOL    HW228044   4.432   4.209   1.718 -0.4417  0.9902  1.2831
 8961SOL     OW28045   2.382   2.074   4.964  0.4493  0.2962  0.2178
 8961SOL    HW128046   2.341   2.043   5.044 -0.6933 -1.1734 -0.8838
 8961SOL    HW228047   2.350   2.164   4.954 -1.8214 -0.4691 -0.0793
 8962SOL     OW28048   8.303   4.543   2.158  0.3083 -0.3520 -0.5530
 8962SOL    HW128049   8.300   4.626   2.111  0.4338 -0.8549 -1.4800
 8962SOL    HW228050   8.395   4.519   2.160  0.0924 -1.6229 -2.4565
 8963SOL     OW28051   0.925   5.062   6.496 -0.2325  0.1535 -0.1130
 8963SOL    HW128052   0.959   4.973   6.483 -0.8555 -0.3616  1.4422
 8963SOL    HW228053   0.881   5.057   6.581 -0.2796  1.9618 -0.0109
 8964SOL     OW28054   5.723   2.520   7.724 -0.0013  0.0500 -0.2196
 8964SOL    HW128055   5.749   2.595   7.778  0.7918 -1.7423  2.0435
 8964SOL    HW228056   5.669   2.466   7.782 -0.1207 -1.3919 -1.6052
 8965SOL     OW28057   8.089   2.769   1.801  0.1346 -0.6782  0.1970
 8965SOL    HW128058   8.095   2.847   1.855 -0.2616 -0.0429 -0.6626
 8965SOL    HW228059   8.012   2.723   1.834  0.5283 -0.8685  0.8900
 8966SOL     OW28060   5.800   6.311   8.812 -0.3202  0.9483 -0.3254
 8966SOL    HW128061   5.753   6.276   8.887 -1.3119 -0.4979 -1.5516
 8966SOL    HW228062   5.733   6.357   8.761 -0.2370 -0.1984 -1.5352
 8967SOL     OW28063   2.016   7.618   0.026  0.3643 -0.6373  0.3664
 8967SOL    HW128064   2.020   7.611  -0.069 -3.2311 -1.3322  0.1359
 8967SOL    HW228065   1.969   7.699   0.043  1.2096 -0.3764  1.6010
 8968SOL     OW28066   7.124   2.949   6.692 -0.2181 -0.0574  0.4951
 8968SOL    HW128067   7.133   2.943   6.787  0.7183 -0.9981  0.3685
 8968SOL    HW228068   7.157   3.037   6.670  1.2014 -0.4685  0.8827
 8969SOL     OW28069   3.129   6.176   0.738 -0.2257  0.0443 -1.2085
 8969SOL    HW128070   3.103   6.267   0.720 -2.6596 -0.2580  0.4052
 8969SOL    HW228071   3.106   6.129   0.658 -4.0055  0.0024 -0.2661
 8970SOL     OW28072   5.556   1.617   4.818 -0.3790  0.0631  0.6471
 8970SOL    HW128073   5.518   1.540   4.861 -0.8049  0.7101  1.4548
 8970SOL    HW228074   5.491   1.642   4.753 -0.2724 -0.2183  0.4311
 8971SOL     OW28075   5.038   3.397   5.208 -0.1658 -0.2556 -0.2442
 8971SOL    HW128076   4.955   3.409   5.255 -1.1925  1.2187 -2.2574
 8971SOL    HW228077   5.022   3.321   5.152  0.2311 -0.5994  0.1024
 8972SOL     OW28078   1.279   1.095   5.599 -0.4688 -0.7558 -0.2890
 8972SOL    HW128079   1.243   1.059   5.680 -0.6178 -0.0581 -0.0393
 8972SOL    HW228080   1.328   1.172   5.627 -0.5933 -0.4612 -0.8742
 8973SOL     OW28081   2.173   4.898   3.616  0.0017  0.0419  0.1115
 8973SOL    HW128082   2.129   4.975   3.579  2.5727  1.5093 -0.1438
 8973SOL    HW228083   2.208   4.928   3.700  0.3823 -1.1041  0.3808
 8974SOL     OW28084   8.251   6.529   8.706 -0.1355  0.0858 -0.2927
 8974SOL    HW128085   8.215   6.610   8.671  0.0240  0.1713 -0.2570
 8974SOL    HW228086   8.345   6.544   8.712 -0.2252  0.2753  0.7216
 8975SOL     OW28087   0.290   5.505   1.995 -0.1171 -0.0927 -0.6946
 8975SOL    HW128088   0.360   5.474   2.053 -0.5262 -0.4870 -0.4034
 8975SOL    HW228089   0.213   5.510   2.051 -0.2289  0.7643 -0.9164
 8976SOL     OW28090   5.043   5.592   8.220  0.3403 -0.4546  0.0466
 8976SOL    HW128091   4.970   5.617   8.164  0.6114  0.4420  0.0716
 8976SOL    HW228092   5.119   5.635   8.181  0.9437 -1.7226 -0.2303
 8977SOL     OW28093   8.032   1.396   5.945  0.0880  0.2445 -0.0426
 8977SOL    HW128094   8.108   1.408   6.001  0.3352 -0.1068 -0.3002
 8977SOL    HW228095   7.977   1.473   5.962 -0.8894 -0.8805  2.2988
 8978SOL     OW28096   4.655   4.460   0.178 -0.2321 -0.0757  0.1863
 8978SOL    HW128097   4.686   4.550   0.171  0.3974 -0.3082 -0.0341
 8978SOL    HW228098   4.719   4.408   0.130  0.0498 -0.7975  1.3032
 8979SOL     OW28099   3.378   0.589   6.122 -0.1010 -0.3465 -0.3690
 8979SOL    HW128100   3.400   0.577   6.029  0.4286 -2.7310  0.0099
 8979SOL    HW228101   3.433   0.662   6.149 -0.5584  0.6667 -2.0077
 8980SOL     OW28102   1.901   5.653   7.468 -0.0889 -0.2632 -0.4925
 8980SOL    HW128103   1.824   5.710   7.466  1.0810  1.5678  1.3902
 8980SOL    HW228104   1.949   5.675   7.388 -1.4777 -1.4652 -1.7156
 8981SOL     OW28105   7.928   2.702   6.091  0.0192  0.3391  0.4641
 8981SOL    HW128106   7.974   2.628   6.129 -0.3376  0.2982  0.8181
 8981SOL    HW228107   7.944   2.775   6.151 -1.2168  0.0752  1.1357
 8982SOL     OW28108   6.786   0.559   0.588 -0.4016  0.0609  0.0557
 8982SOL    HW128109   6.696   0.527   0.589  0.0214 -1.5522 -2.8035
 8982SOL    HW228110   6.792   0.611   0.508  1.1094  0.5021  0.4251
 8983SOL     OW28111   4.308   7.509   4.539  0.1878 -0.8144 -0.2170
 8983SOL    HW128112   4.294   7.421   4.574  1.0999 -1.3012 -0.9930
 8983SOL    HW228113   4.346   7.493   4.452 -1.1896  0.3408 -1.0685
 8984SOL     OW28114   2.248   0.889   3.996 -0.0661  0.7608 -0.3018
 8984SOL    HW128115   2.304   0.894   3.918 -0.9898  1.3561 -0.9482
 8984SOL    HW228116   2.231   0.796   4.007 -0.2787  0.6993 -1.0826
 8985SOL     OW28117   0.259   3.261   5.933  0.0228 -0.0911  0.3752
 8985SOL    HW128118   0.233   3.169   5.931  0.1784 -0.1346  0.3472
 8985SOL    HW228119   0.337   3.265   5.878 -0.8054  0.3196 -0.7927
 8986SOL     OW28120   6.353   2.735   5.471 -0.3450 -0.1694 -0.3298
 8986SOL    HW128121   6.395   2.656   5.436  0.1747 -0.0952  0.1118
 8986SOL    HW228122   6.265   2.705   5.497  0.4960 -1.1393  1.7095
 8987SOL     OW28123   2.010   8.597   0.309 -0.2176  0.2117  0.1519
 8987SOL    HW128124   1.926   8.569   0.345 -0.6065 -0.1793 -1.0193
 8987SOL    HW228125   2.028   8.535   0.238  1.1767  0.1510  0.5181
 8988SOL     OW28126   2.693   4.723   6.626  0.0297  0.2969  0.1343
 8988SOL    HW128127   2.599   4.742   6.620  0.3809  3.0173  1.7004
 8988SOL    HW228128   2.725   4.734   6.536 -0.6436  3.0557  0.1300
 8989SOL     OW28129   6.811   6.420   4.798 -0.0891  0.0130 -0.0649
 8989SOL    HW128130   6.810   6.326   4.778 -0.3046  0.5331 -3.0437
 8989SOL    HW228131   6.797   6.425   4.892 -0.4034 -2.9257  0.1440
 8990SOL     OW28132   7.008   7.364   8.375  0.2355  0.2199  0.2181
 8990SOL    HW128133   7.049   7.290   8.330 -0.3808 -0.5983  0.9718
 8990SOL    HW228134   6.963   7.412   8.305  1.6308  0.6055 -0.4717
 8991SOL     OW28135   6.935   7.919   6.110 -0.1399 -0.3016  0.0974
 8991SOL    HW128136   6.992   7.848   6.141 -0.8005 -0.0428  2.0074
 8991SOL    HW228137   6.983   7.999   6.132 -0.9616 -0.0974  1.2268
 8992SOL     OW28138   5.891   0.355   6.775 -0.4470  0.5234  0.6475
 8992SOL    HW128139   5.968   0.322   6.728 -0.8466  2.0139 -1.2155
 8992SOL    HW228140   5.914   0.446   6.798 -1.4571  0.8353  0.4710
 8993SOL     OW28141   0.943   1.639   4.829  0.3413  0.2613  0.2381
 8993SOL    HW128142   0.961   1.640   4.923 -0.9695 -0.8127  0.5213
 8993SOL    HW228143   0.881   1.711   4.816  0.4427  0.3434  0.2048
 8994SOL     OW28144   5.304   6.517   3.139 -0.4971  0.8981 -0.0739
 8994SOL    HW128145   5.255   6.519   3.057  0.1440 -0.4059 -0.5151
 8994SOL    HW228146   5.320   6.609   3.160  0.4763  1.2641 -2.1225
 8995SOL     OW28147   4.276   4.433   2.383 -0.1102  0.6197  0.4424
 8995SOL    HW128148   4.216   4.506   2.367  0.9372  1.5500  0.6415
 8995SOL    HW228149   4.283   4.389   2.299  0.9948  2.1276 -0.3121
 8996SOL     OW28150   7.784   0.296   0.463  0.5173  0.2825  0.4897
 8996SOL    HW128151   7.796   0.348   0.384  0.8407  0.0013  0.3521
 8996SOL    HW228152   7.756   0.359   0.529 -2.1333  0.1923 -0.4209
 8997SOL     OW28153   3.527   7.223   3.411  0.1891 -0.4792 -0.1562
 8997SOL    HW128154   3.508   7.203   3.503  2.4188 -2.4957 -0.0265
 8997SOL    HW228155   3.562   7.312   3.413 -0.6435 -0.1504  0.7883
 8998SOL     OW28156   0.389   3.909   7.676 -0.1266 -0.2767  0.0442
 8998SOL    HW128157   0.377   3.995   7.716  0.7498 -0.2590  0.2788
 8998SOL    HW228158   0.465   3.920   7.618 -0.4738 -0.6916 -0.4958
 8999SOL     OW28159   4.559   1.285   0.507  0.2516 -0.1328 -0.1147
 8999SOL    HW128160   4.534   1.195   0.527  1.1281 -0.6536 -1.2131
 8999SOL    HW228161   4.648   1.278   0.473  1.0958  1.4054  1.6656
 9000SOL     OW28162   0.236   6.673   3.250  0.0471  0.6415  0.0467
 9000SOL    HW128163   0.233   6.759   3.208  0.0627  0.6362  0.0349
 9000SOL    HW228164   0.321   6.637   3.225 -0.4010  0.1704 -0.8370
 9001SOL     OW28165   2.866   8.315   8.397 -0.1504 -0.2618 -0.0033
 9001SOL    HW128166   2.795   8.379   8.408  1.5913  1.6948  0.4423
 9001SOL    HW228167   2.880   8.311   8.302 -0.8236 -0.6419 -0.0906
 9002SOL     OW28168   2.582   8.236   6.562  0.1598  0.2142 -0.1962
 9002SOL    HW128169   2.513   8.251   6.627 -0.4963 -0.4715 -0.7195
 9002SOL    HW228170   2.616   8.149   6.584  0.7043  0.4536 -0.0845
 9003SOL     OW28171   1.471   3.286   7.648  0.5504 -0.5316  0.0188
 9003SOL    HW128172   1.394   3.230   7.638  0.1513  0.0532 -0.2957
 9003SOL    HW228173   1.439   3.361   7.698  0.9476 -0.3379 -0.0169
 9004SOL     OW28174   7.788   3.259   2.751  0.0349  0.3364 -0.4846
 9004SOL    HW128175   7.807   3.190   2.687  1.1416 -0.4523  0.6416
 9004SOL    HW228176   7.753   3.331   2.699 -0.9821 -0.9956 -1.7274
 9005SOL     OW28177   6.568   3.529   2.820  0.9428 -0.0133 -0.2219
 9005SOL    HW128178   6.639   3.563   2.875  0.4365 -1.1988  1.2411
 9005SOL    HW228179   6.518   3.473   2.879 -1.4501  1.0805 -1.0858
 9006SOL     OW28180   6.253   5.025   6.273 -0.2752 -0.0837  0.2216
 9006SOL    HW128181   6.252   5.112   6.231 -0.6839 -0.3066 -0.2479
 9006SOL    HW228182   6.169   5.020   6.319 -0.3107 -0.2754  0.1393
 9007SOL     OW28183   3.530   6.903   7.587 -0.0266 -0.7187 -0.5642
 9007SOL    HW128184   3.449   6.854   7.580  0.3409 -1.7078  1.4791
 9007SOL    HW228185   3.504   6.995   7.578 -1.1583 -1.0844 -1.2096
 9008SOL     OW28186   4.905   5.159   3.797  0.0374  0.1064 -0.3284
 9008SOL    HW128187   4.956   5.208   3.861 -0.5919 -0.6037  0.7635
 9008SOL    HW228188   4.917   5.205   3.715  1.3844  0.6821  0.1766
 9009SOL     OW28189   8.841   0.375   8.779  0.5801  0.5077  0.1725
 9009SOL    HW128190   8.786   0.323   8.721  1.5303  1.3198 -1.5363
 9009SOL    HW228191   8.813   0.350   8.867  0.2513 -2.0328 -0.5769
 9010SOL     OW28192   6.522   2.648   1.249  0.5545  0.3368 -0.1608
 9010SOL    HW128193   6.465   2.624   1.322  2.3404 -2.2626  0.5048
 9010SOL    HW228194   6.561   2.732   1.276 -1.0784  0.9370  0.4439
 9011SOL     OW28195   6.876   8.450   5.225 -0.4639  0.2750 -0.3950
 9011SOL    HW128196   6.829   8.405   5.155 -1.5589 -0.4119  0.7148
 9011SOL    HW228197   6.893   8.381   5.290  1.0075  0.7786 -0.2138
 9012SOL     OW28198   8.355   3.355   2.687  0.1286  0.2420 -0.3062
 9012SOL    HW128199   8.436   3.400   2.709  0.4043 -0.6053  0.5006
 9012SOL    HW228200   8.353   3.280   2.746 -3.3148  2.4612  2.8483
 9013SOL     OW28201   0.584   5.575   3.240  0.1883  0.4889 -0.1567
 9013SOL    HW128202   0.536   5.497   3.214  0.6231  0.2085 -0.1269
 9013SOL    HW228203   0.624   5.552   3.324  0.9453  0.4745 -0.5136
 9014SOL     OW28204   6.504   3.835   1.423 -0.2758  0.0506 -0.2613
 9014SOL    HW128205   6.535   3.918   1.387  0.4631  0.0975  0.4514
 9014SOL    HW228206   6.503   3.776   1.348  1.0602  0.2001 -0.4354
 9015SOL     OW28207   5.379   3.846   6.854  0.2816  0.7436  0.2503
 9015SOL    HW128208   5.420   3.889   6.779  0.7659  0.3619  0.2888
 9015SOL    HW228209   5.440   3.862   6.926 -1.2582  3.1057  1.1581
 9016SOL     OW28210   0.162   2.036   2.507  0.3375  0.2197  0.0854
 9016SOL    HW128211   0.120   2.110   2.463 -0.0724 -0.3631 -0.5249
 9016SOL    HW228212   0.091   1.991   2.553  0.3933 -0.3590 -0.3689
 9017SOL     OW28213   7.635   2.008   6.895 -0.1284  0.4229  0.3345
 9017SOL    HW128214   7.648   2.067   6.821  0.1481 -0.9893 -0.7997
 9017SOL    HW228215   7.723   1.981   6.920 -0.2136  0.9681  1.2747
 9018SOL     OW28216   6.147   6.137   4.070 -0.2940 -0.1351  0.0875
 9018SOL    HW128217   6.165   6.183   3.988  2.7568 -0.8131  0.2395
 9018SOL    HW228218   6.159   6.203   4.138 -1.0586  0.0124  0.0857
 9019SOL     OW28219   3.990   4.957   6.600  0.0604  0.4683  0.1720
 9019SOL    HW128220   4.073   4.918   6.629 -1.2581 -1.1846  2.0164
 9019SOL    HW228221   4.009   4.992   6.513  2.4773 -0.5616  0.1988
 9020SOL     OW28222   3.158   3.016   2.239  0.3191  0.5211  0.0867
 9020SOL    HW128223   3.150   3.005   2.334  0.6844  1.2838  0.2137
 9020SOL    HW228224   3.090   3.079   2.216  0.4016  0.5367 -0.1176
 9021SOL     OW28225   4.385   0.310   8.831  0.4381  0.5140  0.3486
 9021SOL    HW128226   4.459   0.316   8.892 -0.1992 -1.1439  1.3655
 9021SOL    HW228227   4.396   0.225   8.788 -0.0363  0.9429 -0.6543
 9022SOL     OW28228   1.246   5.506   3.523 -0.1419 -0.3201 -0.8022
 9022SOL    HW128229   1.312   5.438   3.533 -0.3345 -0.2176  1.8133
 9022SOL    HW228230   1.283   5.565   3.457  0.4295 -2.4009 -2.4930
 9023SOL     OW28231   8.585   3.905   6.707  0.0389  0.0173  0.8240
 9023SOL    HW128232   8.490   3.910   6.699  0.0364 -0.5590  0.4096
 9023SOL    HW228233   8.602   3.899   6.801 -0.2908  0.8213  0.9404
 9024SOL     OW28234   8.486   6.029   0.440 -0.4006  0.0400 -0.3807
 9024SOL    HW128235   8.465   5.947   0.395 -0.9232 -0.0528  0.0235
 9024SOL    HW228236   8.489   6.005   0.533 -1.1574  0.5983 -0.2050
 9025SOL     OW28237   8.249   1.758   4.643  0.2294 -0.1764 -0.4956
 9025SOL    HW128238   8.253   1.727   4.552  1.7324  1.5386 -1.0555
 9025SOL    HW228239   8.320   1.712   4.687 -0.7673 -1.3365 -0.0253
 9026SOL     OW28240   6.395   0.348   0.350  0.3737 -0.0383 -0.3567
 9026SOL    HW128241   6.440   0.274   0.391 -0.6183 -0.2695  0.3504
 9026SOL    HW228242   6.302   0.330   0.364 -0.0431 -0.3095 -3.0642
 9027SOL     OW28243   8.326   0.491   1.581  0.0372  0.1753 -0.1849
 9027SOL    HW128244   8.262   0.468   1.649  0.1926  2.0350  0.6707
 9027SOL    HW228245   8.367   0.408   1.558 -2.0922 -0.9645 -0.1684
 9028SOL     OW28246   6.717   6.701   6.898  0.6043  0.1501  0.3336
 9028SOL    HW128247   6.710   6.788   6.859 -2.5260 -0.6050 -1.0655
 9028SOL    HW228248   6.753   6.718   6.985 -0.1489  2.8898  0.2300
 9029SOL     OW28249   6.419   7.754   1.904 -0.3874 -0.1490 -0.0049
 9029SOL    HW128250   6.419   7.659   1.920  0.7244 -0.4427 -1.5097
 9029SOL    HW228251   6.480   7.789   1.969 -0.6970 -0.4834  0.4717
 9030SOL     OW28252   2.585   1.866   2.346 -0.3255 -0.0865  0.4124
 9030SOL    HW128253   2.531   1.918   2.287 -0.1812  1.0276  1.2283
 9030SOL    HW228254   2.671   1.864   2.305 -0.7530 -1.1261 -0.4574
 9031SOL     OW28255   5.100   6.652   2.263  0.3124 -0.3437 -0.3649
 9031SOL    HW128256   5.192   6.633   2.283 -0.2643 -1.7988  1.2235
 9031SOL    HW228257   5.054   6.570   2.283 -1.3232  0.3251 -1.2173
 9032SOL     OW28258   5.893   7.506   0.410 -0.7548 -0.2721  0.0566
 9032SOL    HW128259   5.966   7.447   0.426 -0.3532  0.1429 -0.2032
 9032SOL    HW228260   5.901   7.530   0.318 -0.4566  0.7696  0.3336
 9033SOL     OW28261   2.646   3.775   5.144 -0.2233  0.4131 -0.3902
 9033SOL    HW128262   2.552   3.762   5.148 -0.3794  1.5977  0.1908
 9033SOL    HW228263   2.682   3.688   5.127 -1.4355  0.0126 -0.9556
 9034SOL     OW28264   3.731   0.733   2.206 -0.1342 -0.3441  0.1064
 9034SOL    HW128265   3.646   0.725   2.249 -0.8273 -1.4145 -1.4148
 9034SOL    HW228266   3.789   0.768   2.275 -1.0200 -2.6165  2.1272
 9035SOL     OW28267   8.463   7.960   4.157 -0.1328  0.3391  0.4990
 9035SOL    HW128268   8.447   7.882   4.105 -0.8040  0.4770  0.4966
 9035SOL    HW228269   8.537   7.936   4.214 -1.1987 -0.7747  1.4702
 9036SOL     OW28270   1.920   8.640   5.154 -0.0968  0.2613 -0.1886
 9036SOL    HW128271   1.903   8.549   5.177  0.6625 -0.1722 -1.2806
 9036SOL    HW228272   1.855   8.690   5.204  1.3130 -0.6051  2.7823
 9037SOL     OW28273   2.361   6.664   8.623  1.2865  0.0881  0.3617
 9037SOL    HW128274   2.276   6.645   8.584  0.8462  1.4243  0.6428
 9037SOL    HW228275   2.372   6.596   8.690  0.2967  0.0937  0.5473
 9038SOL     OW28276   4.376   7.563   0.216  0.1332 -0.4035  0.2638
 9038SOL    HW128277   4.470   7.549   0.206  0.3895 -0.0953  1.9560
 9038SOL    HW228278   4.366   7.658   0.214 -0.2501 -0.4531 -0.6311
 9039SOL     OW28279   6.675   3.328   7.601  0.4763  0.0976  0.0928
 9039SOL    HW128280   6.674   3.423   7.601  0.9183  0.1126 -0.8416
 9039SOL    HW228281   6.753   3.305   7.549  2.9235 -0.7749  3.7898
 9040SOL     OW28282   6.361   0.262   3.186  0.2214  0.3271  0.0627
 9040SOL    HW128283   6.384   0.220   3.269  0.5656 -0.5546 -0.4606
 9040SOL    HW228284   6.410   0.213   3.120  0.2142  1.2270 -0.6345
 9041SOL     OW28285   1.496   4.914   3.354  0.2388  0.2809 -0.3540
 9041SOL    HW128286   1.424   4.857   3.381  0.7627 -0.5859 -0.7417
 9041SOL    HW228287   1.504   4.978   3.424 -1.7373  1.1825 -0.8816
 9042SOL     OW28288   8.590   0.156   5.666 -0.4329  0.3780  0.5461
 9042SOL    HW128289   8.520   0.139   5.729 -0.0506  0.4616  1.0001
 9042SOL    HW228290   8.545   0.166   5.582 -1.0620  1.4322  0.9905
 9043SOL     OW28291   4.378   6.928   7.386 -0.3753 -0.4769  0.1642
 9043SOL    HW128292   4.319   6.912   7.459 -1.3767 -1.4719 -0.8129
 9043SOL    HW228293   4.398   7.022   7.390  0.6371 -0.7316  2.4304
 9044SOL     OW28294   5.155   2.254   8.171  0.3163 -0.8006  0.4770
 9044SOL    HW128295   5.173   2.194   8.099  0.3995 -0.5502  0.2872
 9044SOL    HW228296   5.122   2.333   8.129  0.0413 -0.7745  0.7368
 9045SOL     OW28297   3.616   5.475   2.445 -0.0059 -0.0499  0.9280
 9045SOL    HW128298   3.682   5.526   2.493  1.2280 -0.7015 -0.0229
 9045SOL    HW228299   3.604   5.396   2.499  0.6709 -0.3415  0.6640
 9046SOL     OW28300   1.702   4.597   1.664 -0.0463 -0.3294 -0.0169
 9046SOL    HW128301   1.636   4.542   1.621  1.8471 -1.2977 -1.8580
 9046SOL    HW228302   1.768   4.536   1.695  0.5701  0.7050  0.8019
 9047SOL     OW28303   5.885   7.711   2.686  0.3133  0.3037 -0.4114
 9047SOL    HW128304   5.976   7.689   2.664  1.0454  1.9831  0.7221
 9047SOL    HW228305   5.871   7.672   2.772 -0.2283 -0.3431 -0.7781
 9048SOL     OW28306   2.094   3.833   4.819 -0.5163 -0.0239  0.5575
 9048SOL    HW128307   2.041   3.870   4.890  1.1711  1.9992  0.8553
 9048SOL    HW228308   2.180   3.819   4.859 -0.4085 -1.9544 -0.2660
 9049SOL     OW28309   7.434   8.860   0.237  0.2237 -0.2055 -0.6080
 9049SOL    HW128310   7.414   8.924   0.168 -1.1767 -1.2649 -1.2389
 9049SOL    HW228311   7.478   8.911   0.305 -0.4863  1.3533 -1.2709
 9050SOL     OW28312   2.684   2.985   5.049  1.2015 -0.4541  0.2062
 9050SOL    HW128313   2.625   2.927   5.097  0.9816  0.8814  1.6407
 9050SOL    HW228314   2.634   3.013   4.972  0.5338 -0.5436  0.6021
 9051SOL     OW28315   0.497   7.543   4.988 -0.4115 -0.0263 -0.9286
 9051SOL    HW128316   0.556   7.598   5.039 -1.7191  0.2185  0.3756
 9051SOL    HW228317   0.488   7.462   5.038 -1.7911  0.2518 -0.6916
 9052SOL     OW28318   6.076   4.587   3.362 -0.5115 -0.0145  0.1778
 9052SOL    HW128319   6.170   4.580   3.377 -0.4503 -0.9567 -0.4642
 9052SOL    HW228320   6.043   4.640   3.434  0.6384  1.1195 -0.0974
 9053SOL     OW28321   5.482   0.987   4.494 -0.2195  0.4510 -0.0176
 9053SOL    HW128322   5.470   0.966   4.587 -0.3831  0.5442 -0.0159
 9053SOL    HW228323   5.443   0.914   4.448 -1.3256  1.0127 -0.0139
 9054SOL     OW28324   4.454   8.405   1.908  0.0666 -0.2804  0.5824
 9054SOL    HW128325   4.532   8.395   1.962  0.3769 -0.7529  0.0524
 9054SOL    HW228326   4.469   8.486   1.860  1.4589 -1.6603 -1.4716
 9055SOL     OW28327   0.063   4.011   7.166  0.5281 -0.0608  0.7602
 9055SOL    HW128328   0.126   4.073   7.131  1.4028 -1.2405  0.1610
 9055SOL    HW228329   0.106   3.973   7.243  0.2666 -0.3652  0.7624
 9056SOL     OW28330   1.961   7.551   7.356 -0.4705  0.0110 -0.3954
 9056SOL    HW128331   1.970   7.518   7.445 -0.8722  0.9443  0.0096
 9056SOL    HW228332   2.027   7.621   7.349  2.1845 -2.4229 -2.0669
 9057SOL     OW28333   0.198   3.380   0.915  0.2147  0.0457  0.0093
 9057SOL    HW128334   0.182   3.316   0.984  0.4573  0.6796  0.6685
 9057SOL    HW228335   0.285   3.357   0.882  1.3109  1.3596  1.7789
 9058SOL     OW28336   7.668   0.125   3.935  0.2514  0.9386  0.6767
 9058SOL    HW128337   7.605   0.173   3.988 -0.7741  1.4451 -0.9369
 9058SOL    HW228338   7.739   0.187   3.920  1.3877  0.2636  2.7726
 9059SOL     OW28339   1.790   4.888   4.389  0.1817  0.4302  0.0913
 9059SOL    HW128340   1.698   4.887   4.414  0.1176 -1.8899 -0.0369
 9059SOL    HW228341   1.798   4.964   4.331 -1.9293  0.0296 -0.8186
 9060SOL     OW28342   0.415   8.562   8.158  0.2441  0.6857 -0.1337
 9060SOL    HW128343   0.374   8.553   8.244 -2.1366  2.6144 -0.9624
 9060SOL    HW228344   0.436   8.655   8.150 -1.4410  0.9554 -2.3526
 9061SOL     OW28345   1.665   3.939   7.322  0.0717 -0.2361  0.8251
 9061SOL    HW128346   1.678   3.864   7.381  2.0284 -0.8586 -0.2902
 9061SOL    HW228347   1.748   3.945   7.274  0.6924  3.7015  2.0205
 9062SOL     OW28348   7.586   0.511   0.625 -0.1542 -0.2475  0.4811
 9062SOL    HW128349   7.673   0.495   0.660  0.0498 -1.4254 -0.5104
 9062SOL    HW228350   7.586   0.604   0.601  0.6161 -0.0945  1.0528
 9063SOL     OW28351   0.423   8.023   5.958 -0.3410 -0.1622  0.1006
 9063SOL    HW128352   0.454   8.112   5.940 -0.3343 -0.3545 -0.8677
 9063SOL    HW228353   0.503   7.970   5.959 -0.5051 -0.4661 -1.2474
 9064SOL     OW28354   5.652   4.904   0.999  0.2501  0.3489 -0.1008
 9064SOL    HW128355   5.577   4.954   1.031  1.3368  1.4257  0.8934
 9064SOL    HW228356   5.671   4.940   0.913 -0.5301 -0.1249 -0.4789
 9065SOL     OW28357   3.064   7.357   0.251  0.0292  0.5033  0.6610
 9065SOL    HW128358   3.118   7.361   0.330 -0.4839  2.0827  0.9741
 9065SOL    HW228359   3.025   7.444   0.245 -1.8282 -0.3271 -0.0021
 9066SOL     OW28360   1.889   6.374   0.522  0.2808  0.2297  0.3115
 9066SOL    HW128361   1.942   6.345   0.597 -0.4326 -0.5646  0.5221
 9066SOL    HW228362   1.939   6.447   0.485  0.0846  1.4345  2.2754
 9067SOL     OW28363   3.903   1.379   7.322 -0.1175 -0.2137  0.6702
 9067SOL    HW128364   3.925   1.418   7.238 -0.8121 -0.1345  0.5161
 9067SOL    HW228365   3.986   1.346   7.356  0.4182  1.0393  0.6189
 9068SOL     OW28366   0.076   8.193   3.905 -0.0902  0.7314  0.0033
 9068SOL    HW128367   0.048   8.104   3.886  0.8237 -0.1904  2.6084
 9068SOL    HW228368   0.105   8.228   3.820 -2.2948 -0.7094 -1.4214
 9069SOL     OW28369   2.578   0.140   1.689 -0.1737 -0.1769  0.1930
 9069SOL    HW128370   2.586   0.228   1.726 -0.8001  0.7083 -1.6449
 9069SOL    HW228371   2.666   0.103   1.696 -0.0610  0.3141  1.6198
 9070SOL     OW28372   3.366   2.952   7.271  0.4819 -0.0268 -0.7014
 9070SOL    HW128373   3.376   2.973   7.178  0.4370  1.4379 -0.4018
 9070SOL    HW228374   3.455   2.952   7.306  0.4057  0.6798 -0.4992
 9071SOL     OW28375   4.382   6.358   5.766 -0.1409  0.5354  0.2453
 9071SOL    HW128376   4.313   6.365   5.832 -1.0729  2.8958 -0.8935
 9071SOL    HW228377   4.409   6.448   5.750 -0.0174  0.0529 -2.6633
 9072SOL     OW28378   1.436   1.709   7.581 -0.2862  0.1050 -0.3971
 9072SOL    HW128379   1.516   1.747   7.617 -1.0804 -0.1816  1.8077
 9072SOL    HW228380   1.426   1.751   7.495  0.2823  2.9647  0.8112
 9073SOL     OW28381   2.876   3.292   6.805  0.2342 -0.2071 -0.5568
 9073SOL    HW128382   2.920   3.373   6.779  0.7861 -0.2724  0.1391
 9073SOL    HW228383   2.938   3.223   6.782 -0.2677 -0.4462 -1.2185
 9074SOL     OW28384   1.772   4.746   8.429  0.2717 -0.2635 -0.0618
 9074SOL    HW128385   1.811   4.833   8.423 -0.9878  0.3194 -0.0709
 9074SOL    HW228386   1.788   4.707   8.343  0.8681 -0.0467 -0.0480
 9075SOL     OW28387   7.045   8.826   1.867 -0.1402  0.1770 -0.6356
 9075SOL    HW128388   6.967   8.838   1.812  0.5890  1.7849 -1.3721
 9075SOL    HW228389   7.023   8.869   1.949  0.2476  1.3510 -1.1322
 9076SOL     OW28390   2.815   6.589   7.167 -0.5120 -0.0920  0.4025
 9076SOL    HW128391   2.799   6.668   7.220  2.4133  0.4399  0.6685
 9076SOL    HW228392   2.780   6.611   7.081 -0.6918  1.1031  0.7611
 9077SOL     OW28393   4.508   8.832   0.925 -0.3104 -0.6440  0.0117
 9077SOL    HW128394   4.509   8.855   1.018  2.5048  1.0131 -0.3292
 9077SOL    HW228395   4.432   8.774   0.916 -1.7630  0.5773  2.9563
 9078SOL     OW28396   7.456   2.984   1.338 -0.1981 -0.2922 -0.0684
 9078SOL    HW128397   7.421   2.928   1.407 -0.1241  1.9741  1.9549
 9078SOL    HW228398   7.544   2.949   1.321  0.6846  0.3206  2.6437
 9079SOL     OW28399   6.010   2.276   5.550  0.2544 -0.4390  0.1617
 9079SOL    HW128400   5.927   2.227   5.549  0.7012 -1.2072  0.1997
 9079SOL    HW228401   6.021   2.307   5.461  0.4588 -1.2635 -0.1106
 9080SOL     OW28402   6.076   0.553   6.169 -0.0297 -0.1489  0.4756
 9080SOL    HW128403   6.154   0.548   6.113 -0.8781 -0.7646 -0.6960
 9080SOL    HW228404   6.003   0.559   6.108 -0.8500  1.8888  1.5709
 9081SOL     OW28405   1.670   3.656   2.568 -0.2761 -0.1120  0.0962
 9081SOL    HW128406   1.641   3.706   2.645 -0.0940  0.5776 -0.2800
 9081SOL    HW228407   1.738   3.599   2.601  0.1938  0.5799  0.3445
 9082SOL     OW28408   7.606   1.196   7.658  0.5867 -0.4555  0.3426
 9082SOL    HW128409   7.689   1.239   7.677 -0.0688  0.7957  0.5497
 9082SOL    HW228410   7.551   1.267   7.623 -0.6167 -1.0868  0.9122
 9083SOL     OW28411   8.669   7.965   2.019 -0.0983  0.1145  0.4696
 9083SOL    HW128412   8.690   8.009   2.101  0.2051 -0.4233  0.6832
 9083SOL    HW228413   8.732   7.894   2.012 -0.2876 -0.0104 -0.1013
 9084SOL     OW28414   8.797   1.611   1.518  0.0761  0.4472  0.1256
 9084SOL    HW128415   8.846   1.529   1.517 -0.4022  0.0076  3.1128
 9084SOL    HW228416   8.848   1.670   1.462  1.1067 -1.4748 -1.0765
 9085SOL     OW28417   5.792   2.677   4.285  0.2338  0.6124  0.2918
 9085SOL    HW128418   5.754   2.764   4.296 -0.2605  0.4846 -0.3362
 9085SOL    HW228419   5.852   2.687   4.211  1.9985  0.9830  1.7020
 9086SOL     OW28420   4.355   1.214   0.953 -0.4716  0.4220  0.2346
 9086SOL    HW128421   4.374   1.206   0.859 -0.7696 -1.4629  0.3034
 9086SOL    HW228422   4.377   1.305   0.973 -0.6247  0.9521 -1.7063
 9087SOL     OW28423   1.087   5.577   6.866 -0.1398  0.0507 -0.2558
 9087SOL    HW128424   1.075   5.641   6.796 -1.2970 -0.2167 -0.3152
 9087SOL    HW228425   1.029   5.504   6.842 -0.9926  0.1970  1.2632
 9088SOL     OW28426   1.761   0.978   3.400  0.3507 -0.0685  0.2000
 9088SOL    HW128427   1.738   1.031   3.476 -3.5917  0.1500 -0.8684
 9088SOL    HW228428   1.850   1.003   3.378  0.1220  3.0507  2.2191
 9089SOL     OW28429   5.035   5.270   7.266  0.0577  0.4566 -0.1571
 9089SOL    HW128430   5.116   5.221   7.280 -0.3606 -0.2112 -0.0618
 9089SOL    HW228431   4.989   5.221   7.198  0.8023  2.1267 -1.9711
 9090SOL     OW28432   5.037   3.061   7.338  0.3208 -0.2102  0.7590
 9090SOL    HW128433   5.004   3.008   7.266  0.1400 -1.8363  1.9719
 9090SOL    HW228434   5.132   3.053   7.333  0.2659 -1.8478  1.7439
 9091SOL     OW28435   4.561   3.956   8.673 -0.1186 -0.0146  0.4435
 9091SOL    HW128436   4.499   3.997   8.732 -0.8148 -0.3346 -0.0549
 9091SOL    HW228437   4.513   3.946   8.590  1.6064  2.8632 -1.0604
 9092SOL     OW28438   8.859   3.870   7.935 -0.4190 -0.6855 -0.1885
 9092SOL    HW128439   8.891   3.925   7.864  2.3787 -0.6724  0.9368
 9092SOL    HW228440   8.903   3.904   8.013 -4.0651 -0.0803  1.8354
 9093SOL     OW28441   2.684   5.229   4.310 -0.0407  0.0720 -0.2106
 9093SOL    HW128442   2.623   5.293   4.275  1.3572  1.8822  0.5185
 9093SOL    HW228443   2.717   5.182   4.233 -0.5583  0.7072 -0.8229
 9094SOL     OW28444   4.779   5.284   1.798  0.6386 -0.1838 -0.1934
 9094SOL    HW128445   4.745   5.223   1.733 -0.8166 -0.8777  1.1616
 9094SOL    HW228446   4.785   5.368   1.751 -1.8520 -0.2981 -0.8686
 9095SOL     OW28447   0.668   6.773   2.025 -0.2936 -0.3043 -0.1987
 9095SOL    HW128448   0.676   6.866   2.004 -1.1153 -0.5332 -1.6383
 9095SOL    HW228449   0.612   6.771   2.103  0.1899  0.4153  0.1847
 9096SOL     OW28450   7.028   1.326   1.904 -0.5647 -0.2427 -0.0505
 9096SOL    HW128451   7.090   1.392   1.936 -0.8571  0.7347 -1.3697
 9096SOL    HW228452   7.076   1.278   1.837 -0.7329 -0.5306  0.0348
 9097SOL     OW28453   4.790   3.100   5.799 -0.7430  0.2630 -0.1096
 9097SOL    HW128454   4.799   3.151   5.879  0.0729  0.8877 -0.5706
 9097SOL    HW228455   4.707   3.128   5.761  0.2507  2.2673 -0.9940
 9098SOL     OW28456   8.157   7.841   2.793  0.9344 -0.6287  0.5501
 9098SOL    HW128457   8.161   7.863   2.886  0.8046 -0.0140  0.4114
 9098SOL    HW228458   8.113   7.756   2.791 -1.4279  0.4808  0.9129
 9099SOL     OW28459   0.731   3.412   5.440  0.0354  0.1619 -0.2577
 9099SOL    HW128460   0.781   3.428   5.360  0.1628  0.1564 -0.1796
 9099SOL    HW228461   0.640   3.405   5.410  0.1308 -0.2618 -0.4566
 9100SOL     OW28462   5.824   1.226   6.023 -0.2149  0.1580 -0.3429
 9100SOL    HW128463   5.775   1.291   5.972 -0.5809  0.8939  0.9146
 9100SOL    HW228464   5.757   1.172   6.063  0.0905 -1.5122 -1.9591
 9101SOL     OW28465   4.187   1.223   2.974 -0.0320  0.6953 -0.5263
 9101SOL    HW128466   4.184   1.236   3.068  2.9332 -1.1189 -0.0407
 9101SOL    HW228467   4.127   1.150   2.958  0.3476  0.2190  0.1682
 9102SOL     OW28468   4.865   6.919   1.108 -0.5112  0.2787  0.9701
 9102SOL    HW128469   4.909   6.835   1.122  0.4158  0.6922  0.5428
 9102SOL    HW228470   4.776   6.894   1.082 -0.1735 -0.5804  0.5843
 9103SOL     OW28471   2.792   3.302   4.333 -0.2285  0.5217  0.3309
 9103SOL    HW128472   2.853   3.242   4.377 -0.6669 -0.8323 -0.8361
 9103SOL    HW228473   2.846   3.379   4.312  0.6980 -0.0260  0.6321
 9104SOL     OW28474   0.688   7.460   2.218 -0.6971 -0.1471 -0.1915
 9104SOL    HW128475   0.615   7.516   2.242  0.4304  0.7738  1.3070
 9104SOL    HW228476   0.664   7.373   2.250 -0.8517  0.3019  0.9649
 9105SOL     OW28477   4.635   0.569   0.237 -0.4743 -0.0184  0.0677
 9105SOL    HW128478   4.624   0.581   0.331 -2.7120  1.3706 -0.2890
 9105SOL    HW228479   4.633   0.658   0.201  0.4190 -0.5194 -1.3165
 9106SOL     OW28480   0.442   2.004   4.665  0.4998 -0.6436  0.0935
 9106SOL    HW128481   0.508   2.022   4.599 -0.2133 -0.4439 -0.5730
 9106SOL    HW228482   0.480   2.037   4.747  1.5601 -1.2732 -0.1234
 9107SOL     OW28483   0.015   4.439   0.485 -0.1987 -0.4424  0.3955
 9107SOL    HW128484  -0.028   4.379   0.423 -0.6128  0.7852 -0.5446
 9107SOL    HW228485  -0.029   4.523   0.471  0.3014  0.0673  1.7657
 9108SOL     OW28486   0.534   5.624   8.145 -0.4975 -0.2825  0.3987
 9108SOL    HW128487   0.570   5.601   8.059  0.6390 -0.2362  0.8487
 9108SOL    HW228488   0.593   5.691   8.178 -0.4714 -0.8514  1.5417
 9109SOL     OW28489   1.163   2.236   8.058  0.2054 -0.0362 -0.0661
 9109SOL    HW128490   1.154   2.225   8.153 -1.4231 -0.6620 -0.2689
 9109SOL    HW228491   1.133   2.325   8.042  0.6062  0.1155  0.0160
 9110SOL     OW28492   8.303   7.523   2.945  0.2333  0.3328 -0.3116
 9110SOL    HW128493   8.311   7.576   3.024  1.2588  2.2786 -1.6509
 9110SOL    HW228494   8.243   7.452   2.970 -1.2180  2.0990  1.5632
 9111SOL     OW28495   0.977   4.751   1.941  0.2667  0.2061 -0.0479
 9111SOL    HW128496   0.913   4.693   1.982  1.1096  0.2892  1.4555
 9111SOL    HW228497   1.024   4.695   1.879  0.3049 -0.4362  0.5528
 9112SOL     OW28498   1.042   8.706   0.889  0.3980 -0.3049 -0.0239
 9112SOL    HW128499   1.045   8.751   0.805  2.2959  1.3134  0.8383
 9112SOL    HW228500   0.961   8.737   0.930 -0.0333 -0.3379 -0.8351
 9113SOL     OW28501   1.063   3.024   5.461 -0.7205 -0.3182 -0.6116
 9113SOL    HW128502   0.985   3.073   5.487 -0.2994  0.0980 -0.1010
 9113SOL    HW228503   1.065   2.949   5.520  0.0777  0.4731  0.3955
 9114SOL     OW28504   6.551   0.784   2.590  0.5477  0.3374 -0.4126
 9114SOL    HW128505   6.520   0.844   2.658 -0.9208 -2.6745  1.8072
 9114SOL    HW228506   6.472   0.740   2.559  1.5835 -0.6416 -1.7921
 9115SOL     OW28507   6.898   3.343   5.522 -0.1986 -0.2361  0.0381
 9115SOL    HW128508   6.828   3.325   5.585  0.7424  1.3450  1.6451
 9115SOL    HW228509   6.972   3.289   5.552  0.5894  1.3034  1.0040
 9116SOL     OW28510   6.564   2.927   5.121 -0.2158  0.4925  0.1462
 9116SOL    HW128511   6.517   2.966   5.046 -1.1030 -0.9361 -0.0754
 9116SOL    HW228512   6.530   2.974   5.197 -2.2503 -0.6573  0.0171
 9117SOL     OW28513   8.289   1.392   0.287 -0.2071  0.1271  0.3042
 9117SOL    HW128514   8.197   1.400   0.260 -0.0257 -0.3494 -0.4605
 9117SOL    HW228515   8.311   1.479   0.321 -0.1078  1.1057 -2.1149
 9118SOL     OW28516   6.542   0.857   2.089 -0.4553 -0.0685  0.8219
 9118SOL    HW128517   6.523   0.940   2.046  0.4279 -0.4069 -0.2691
 9118SOL    HW228518   6.533   0.876   2.183  0.7095  1.5277  0.6569
 9119SOL     OW28519   0.079   6.142   7.938 -0.5750 -0.0884 -0.5547
 9119SOL    HW128520  -0.012   6.168   7.951 -0.5040  0.0002 -0.2171
 9119SOL    HW228521   0.127   6.187   8.007 -0.4420 -1.0860  0.0273
 9120SOL     OW28522   5.599   4.079   8.830 -0.0460  0.5091  0.3010
 9120SOL    HW128523   5.522   4.069   8.774  1.2373 -2.3733 -1.1639
 9120SOL    HW228524   5.589   4.012   8.897  2.7258 -2.5737 -2.0416
 9121SOL     OW28525   8.500   8.030   4.759 -0.1370  0.0610  0.1451
 9121SOL    HW128526   8.471   7.998   4.844 -2.0450  3.3591  0.9209
 9121SOL    HW228527   8.530   8.119   4.776  1.6397  0.0363 -2.3110
 9122SOL     OW28528   4.676   3.193   6.496  0.7014  0.0298 -0.6627
 9122SOL    HW128529   4.586   3.225   6.485  0.4534 -0.4954 -0.2389
 9122SOL    HW228530   4.678   3.110   6.448  1.0536  0.1942 -0.9328
 9123SOL     OW28531   3.371   4.132   6.482  0.2869 -0.2845  0.0648
 9123SOL    HW128532   3.439   4.199   6.469  0.2222 -0.2812 -0.2583
 9123SOL    HW228533   3.413   4.050   6.457 -0.2704 -0.1059 -1.6209
 9124SOL     OW28534   2.980   2.557   7.551 -0.0749  0.2396 -0.2293
 9124SOL    HW128535   3.068   2.525   7.531 -0.4006  0.5481 -2.5361
 9124SOL    HW228536   2.991   2.610   7.630  1.8535  0.4619 -0.5843
 9125SOL     OW28537   3.232   2.140   0.473  0.1056 -0.0786 -0.4131
 9125SOL    HW128538   3.304   2.147   0.410  0.4835  0.1211  0.0392
 9125SOL    HW228539   3.269   2.089   0.545 -0.4865 -0.7607 -0.5849
 9126SOL     OW28540   6.975   6.360   0.577 -0.2806 -0.2125 -0.3072
 9126SOL    HW128541   6.976   6.347   0.482 -1.0737  1.2818 -0.5485
 9126SOL    HW228542   6.883   6.355   0.601 -0.1618  0.1911  0.2581
 9127SOL     OW28543   3.862   5.884   6.631 -0.7066  0.2778  0.1798
 9127SOL    HW128544   3.795   5.817   6.640  0.0535 -0.4927  0.2062
 9127SOL    HW228545   3.912   5.859   6.553  0.6768 -0.1909  1.1797
 9128SOL     OW28546   0.440   6.636   5.147  0.2085 -0.5915 -0.4620
 9128SOL    HW128547   0.408   6.548   5.163 -0.6000 -0.2800 -0.3273
 9128SOL    HW228548   0.371   6.677   5.094  1.4161 -0.6312 -2.1442
 9129SOL     OW28549   2.154   2.181   4.373 -0.2819  0.0564  0.3387
 9129SOL    HW128550   2.066   2.183   4.337 -0.0829 -1.7905 -0.4008
 9129SOL    HW228551   2.211   2.196   4.298  0.0433  0.2869  0.6318
 9130SOL     OW28552   2.507   2.719   1.832  0.1368  0.1417 -0.4929
 9130SOL    HW128553   2.426   2.758   1.866 -0.6236 -0.8877 -1.0627
 9130SOL    HW228554   2.545   2.675   1.908  0.1059  0.5227 -0.2508
 9131SOL     OW28555   4.607   5.346   7.436  0.0897  0.0047 -0.3543
 9131SOL    HW128556   4.641   5.373   7.350  0.2548 -1.0648 -0.6337
 9131SOL    HW228557   4.515   5.323   7.419 -0.4660  1.6817  0.1571
 9132SOL     OW28558   1.336   0.396   0.023 -0.2740 -0.5270  0.6921
 9132SOL    HW128559   1.315   0.355   0.107 -0.7138 -0.5743  0.5596
 9132SOL    HW228560   1.279   0.473   0.019  0.0611 -0.2816  0.6334
 9133SOL     OW28561   6.927   1.645   4.756  0.0732  0.3305 -0.0130
 9133SOL    HW128562   6.890   1.669   4.841 -0.6079 -1.8285  0.3735
 9133SOL    HW228563   6.975   1.722   4.728  0.7891  0.9294  2.5900
 9134SOL     OW28564   3.452   5.193   0.476  0.1153 -0.0351 -0.1153
 9134SOL    HW128565   3.495   5.109   0.495 -0.4394 -0.1261  0.8154
 9134SOL    HW228566   3.415   5.220   0.560 -2.7275 -0.5708 -1.0978
 9135SOL     OW28567   7.528   0.790   8.497  0.2908  0.2594  0.1756
 9135SOL    HW128568   7.487   0.830   8.421 -3.4059 -1.5432  0.9866
 9135SOL    HW228569   7.554   0.703   8.466  1.7857  0.6711  0.2070
 9136SOL     OW28570   5.797   3.925   5.256 -0.2628 -0.3937  0.0677
 9136SOL    HW128571   5.741   3.890   5.186  1.1734 -2.9874  0.1035
 9136SOL    HW228572   5.736   3.944   5.328 -1.3663 -0.7374 -0.7453
 9137SOL     OW28573   2.448   4.249   6.520  0.1781 -0.3851  0.4004
 9137SOL    HW128574   2.383   4.223   6.454  1.9239 -0.2747 -1.4395
 9137SOL    HW228575   2.490   4.167   6.546  1.5956 -0.1431 -0.9765
 9138SOL     OW28576   7.159   0.606   6.675 -0.0428 -0.2140  0.4129
 9138SOL    HW128577   7.081   0.600   6.619  0.2443 -1.2501  0.0937
 9138SOL    HW228578   7.222   0.656   6.623 -0.3480  0.2556  0.4937
 9139SOL     OW28579   3.806   4.080   1.130 -0.6895  0.4265 -0.1844
 9139SOL    HW128580   3.809   4.117   1.219 -1.1739  1.3767 -0.5495
 9139SOL    HW228581   3.730   4.022   1.131  0.1225 -0.6665  0.4166
 9140SOL     OW28582   1.308   5.752   6.113  0.6168 -0.1490 -0.5779
 9140SOL    HW128583   1.212   5.752   6.110  0.6338 -0.0261 -1.4729
 9140SOL    HW228584   1.331   5.844   6.123  0.6282 -0.3272  1.6056
 9141SOL     OW28585   4.695   8.290   4.168  0.1698 -0.0235 -0.1765
 9141SOL    HW128586   4.678   8.350   4.096  2.4075 -0.7384 -1.3978
 9141SOL    HW228587   4.619   8.231   4.168 -0.9605  1.3869 -0.4185
 9142SOL     OW28588   4.036   8.630   5.116  0.0491 -0.2161  0.2039
 9142SOL    HW128589   4.058   8.576   5.192 -0.1788 -1.3177 -0.4799
 9142SOL    HW228590   3.975   8.695   5.149 -1.0767 -1.4813  0.7237
 9143SOL     OW28591   4.598   1.933   0.414  0.0849  0.0940  0.3513
 9143SOL    HW128592   4.564   1.859   0.464 -1.6829  0.0134 -0.8986
 9143SOL    HW228593   4.693   1.919   0.414  0.0232 -0.7301  2.3221
 9144SOL     OW28594   8.049   7.647   2.016  0.1847  0.1371  0.0202
 9144SOL    HW128595   8.014   7.730   2.048 -0.3231 -0.7459  1.9656
 9144SOL    HW228596   7.999   7.629   1.936 -2.6904 -0.2062  1.7459
 9145SOL     OW28597   5.246   1.068   8.254  0.1880 -0.7714  0.2795
 9145SOL    HW128598   5.242   0.991   8.197 -1.6799 -0.3691 -0.2263
 9145SOL    HW228599   5.290   1.134   8.201 -0.0837 -0.8863 -0.1011
 9146SOL     OW28600   3.133   8.084   7.673  0.7528  0.5323  0.2777
 9146SOL    HW128601   3.195   8.030   7.623 -0.1736 -0.9482  0.6456
 9146SOL    HW228602   3.187   8.142   7.726  1.7935  0.1523 -0.3530
 9147SOL     OW28603   1.729   2.036   1.918  0.0872 -0.0808  0.5831
 9147SOL    HW128604   1.646   2.052   1.873  0.7338  1.1931 -0.2261
 9147SOL    HW228605   1.727   2.093   1.994  0.2526  0.0075  0.5216
 9148SOL     OW28606   5.715   0.656   7.715 -0.1711  0.2051 -0.4666
 9148SOL    HW128607   5.786   0.628   7.773 -0.2668 -0.3458 -0.6169
 9148SOL    HW228608   5.747   0.738   7.677 -0.3573  0.8995  0.8185
 9149SOL     OW28609   4.135   2.903   1.625  0.3878 -0.5847  0.1748
 9149SOL    HW128610   4.210   2.917   1.567 -0.7118  0.6417 -1.0387
 9149SOL    HW228611   4.158   2.952   1.705  1.7581 -1.9885  0.6868
 9150SOL     OW28612   1.905   6.728   3.468 -0.0114  0.3075  0.0372
 9150SOL    HW128613   1.941   6.758   3.552  0.7254 -1.4854  0.4170
 9150SOL    HW228614   1.968   6.756   3.403  0.7434 -0.5096  0.3987
 9151SOL     OW28615   4.726   3.132   2.789  0.2901 -0.6139 -0.4444
 9151SOL    HW128616   4.720   3.118   2.695  0.5859  2.3779 -1.0129
 9151SOL    HW228617   4.812   3.174   2.802 -0.2850  0.2362  0.9292
 9152SOL     OW28618   6.214   4.098   8.510  0.2639 -0.0831 -0.5128
 9152SOL    HW128619   6.263   4.178   8.492  1.2480 -1.0410 -2.3879
 9152SOL    HW228620   6.208   4.054   8.425 -2.5782 -0.7503 -0.0752
 9153SOL     OW28621   2.618   6.722   4.492 -0.7309  0.4479 -0.8316
 9153SOL    HW128622   2.594   6.654   4.429  0.4075  1.1825 -2.1349
 9153SOL    HW228623   2.573   6.801   4.459  0.0992  0.8992 -0.9116
 9154SOL     OW28624   0.854   1.352   6.879  0.0259  0.1365 -0.4598
 9154SOL    HW128625   0.900   1.397   6.951 -1.0964  1.1746 -0.3421
 9154SOL    HW228626   0.836   1.422   6.816 -0.3218 -0.4808 -1.0466
 9155SOL     OW28627   3.875   1.404   6.117  0.1819  0.2344  0.5356
 9155SOL    HW128628   3.940   1.346   6.156 -0.7793 -1.1669  0.1040
 9155SOL    HW228629   3.917   1.436   6.037  0.2994 -0.7579  0.1899
 9156SOL     OW28630   2.827   2.523   6.391  0.4034 -0.3704 -0.1065
 9156SOL    HW128631   2.782   2.443   6.418 -0.3943  0.3253  0.6336
 9156SOL    HW228632   2.766   2.567   6.333  0.9872 -0.4597 -0.8074
 9157SOL     OW28633   6.293   5.588   3.711 -0.4740  0.2658 -0.3787
 9157SOL    HW128634   6.329   5.501   3.696  2.9857  1.5206 -0.1098
 9157SOL    HW228635   6.211   5.588   3.661 -0.0641 -2.7459 -1.2762
 9158SOL     OW28636   5.393   5.894   1.195 -0.4320  0.5709 -0.4259
 9158SOL    HW128637   5.360   5.805   1.182  0.8724  0.0781 -0.4873
 9158SOL    HW228638   5.390   5.933   1.107  0.6290 -0.0122 -0.7415
 9159SOL     OW28639   7.773   0.461   1.936 -0.1952  0.5829 -0.0795
 9159SOL    HW128640   7.707   0.455   2.005 -0.5328  1.6479 -0.2989
 9159SOL    HW228641   7.836   0.392   1.957 -0.5425  0.5910  1.0298
 9160SOL     OW28642   8.641   3.395   5.075 -0.0020  0.4195 -0.6482
 9160SOL    HW128643   8.627   3.453   5.149 -0.1040  0.0219 -0.3541
 9160SOL    HW228644   8.715   3.340   5.100 -0.3716 -0.0741 -0.6174
 9161SOL     OW28645   1.230   8.390   1.846 -0.2341  0.5132 -0.2619
 9161SOL    HW128646   1.146   8.379   1.890 -0.1108  0.0698 -0.1358
 9161SOL    HW228647   1.261   8.476   1.873  0.4585 -0.2672  1.5579
 9162SOL     OW28648   7.624   0.986   8.075 -0.1815  0.4431  0.0134
 9162SOL    HW128649   7.661   0.966   7.989 -0.9265  0.2438 -0.2682
 9162SOL    HW228650   7.567   1.062   8.060  2.2367  2.5846  0.9802
 9163SOL     OW28651   3.416   7.867   6.126 -0.4077  0.1067  0.2188
 9163SOL    HW128652   3.328   7.904   6.120  0.5299  2.2442 -1.6148
 9163SOL    HW228653   3.431   7.825   6.041 -0.5296 -2.5306  1.4037
 9164SOL     OW28654   0.003   1.173   8.572 -0.2503  0.1525 -0.4080
 9164SOL    HW128655  -0.081   1.177   8.526 -0.5617 -0.1784  0.1274
 9164SOL    HW228656  -0.003   1.243   8.638  0.2799  0.7682 -0.9985
 9165SOL     OW28657   7.658   8.525   3.248  0.0804  0.1431 -0.0619
 9165SOL    HW128658   7.642   8.559   3.336  0.3010  0.4901 -0.1559
 9165SOL    HW228659   7.674   8.432   3.261 -0.4560  0.0858  0.2053
 9166SOL     OW28660   0.582   2.486   6.383 -0.0894  0.3768 -0.0811
 9166SOL    HW128661   0.643   2.424   6.424  0.0369 -0.1123 -0.9781
 9166SOL    HW228662   0.495   2.455   6.409 -0.0071  0.1460 -0.0725
 9167SOL     OW28663   8.432   4.955   0.510  0.0016  0.6358  0.1493
 9167SOL    HW128664   8.408   4.996   0.593 -1.2213 -1.5371  0.9527
 9167SOL    HW228665   8.431   5.026   0.446  2.9949  2.8030  2.2528
 9168SOL     OW28666   4.938   2.449   2.179 -0.8549 -0.2907 -0.2924
 9168SOL    HW128667   5.005   2.515   2.197 -0.6519 -0.9967  1.7498
 9168SOL    HW228668   4.867   2.499   2.137  0.2644  0.7509 -1.0347
 9169SOL     OW28669   2.473   5.942   2.624  0.4299 -0.4054  0.1045
 9169SOL    HW128670   2.400   5.944   2.561  0.6520 -0.2512 -0.1473
 9169SOL    HW228671   2.432   5.962   2.708  0.1563 -0.4622 -0.0113
 9170SOL     OW28672   1.440   0.115   3.983 -0.1319 -0.0225 -0.8671
 9170SOL    HW128673   1.419   0.035   3.935  1.6958 -1.4432  0.5455
 9170SOL    HW228674   1.463   0.085   4.071  1.5967  1.9369 -0.5755
 9171SOL     OW28675   1.360   5.652   6.889  0.4790  0.5340  0.6479
 9171SOL    HW128676   1.399   5.577   6.935 -1.0170 -0.1736  0.8114
 9171SOL    HW228677   1.274   5.621   6.862 -0.1869  2.2094  0.7575
 9172SOL     OW28678   8.683   6.953   3.613  0.4165  0.1289  0.2999
 9172SOL    HW128679   8.746   7.025   3.601  1.1414 -0.0991  2.2371
 9172SOL    HW228680   8.685   6.905   3.531 -1.6281  3.4197 -1.8882
 9173SOL     OW28681   1.223   6.199   5.243  0.3829 -0.1460  0.1989
 9173SOL    HW128682   1.174   6.138   5.299 -0.8633  0.4373 -0.2143
 9173SOL    HW228683   1.166   6.213   5.168  1.7347 -0.3807 -0.9212
 9174SOL     OW28684   0.235   0.808   3.740 -0.2950 -0.5074  0.6852
 9174SOL    HW128685   0.208   0.802   3.649 -2.0658 -0.7985  1.1891
 9174SOL    HW228686   0.214   0.898   3.766  0.1212 -0.4518  0.8515
 9175SOL     OW28687   0.796   2.964   0.454 -0.2668 -0.1498  0.2282
 9175SOL    HW128688   0.839   3.043   0.421 -1.6705  0.8735  0.7071
 9175SOL    HW228689   0.796   2.975   0.549  2.4676 -2.3750  0.5862
 9176SOL     OW28690   3.650   3.450   5.570 -0.1009  0.7965 -0.2170
 9176SOL    HW128691   3.631   3.543   5.575 -0.3074  0.7307  0.2623
 9176SOL    HW228692   3.567   3.407   5.589 -0.4656  0.5039 -2.3122
 9177SOL     OW28693   5.517   1.580   8.050  0.4581 -0.8739 -0.6816
 9177SOL    HW128694   5.487   1.493   8.024  1.1412 -1.1733 -0.4735
 9177SOL    HW228695   5.457   1.607   8.119  0.1211 -1.0914 -0.8866
 9178SOL     OW28696   4.229   1.293   8.495 -0.5513  0.7447  0.3217
 9178SOL    HW128697   4.250   1.334   8.579 -1.0181  0.6276  0.4987
 9178SOL    HW228698   4.256   1.357   8.429  0.8444  0.3871  0.5131
 9179SOL     OW28699   0.998   6.544   5.303  0.0092 -0.2551  0.4110
 9179SOL    HW128700   0.931   6.544   5.372 -0.4300  1.4998  0.0497
 9179SOL    HW228701   1.020   6.637   5.292  3.4596 -0.8168  1.4056
 9180SOL     OW28702   8.145   3.133   5.733 -0.1162 -0.2369 -0.4384
 9180SOL    HW128703   8.093   3.101   5.807  1.1143  0.5352  0.7835
 9180SOL    HW228704   8.194   3.056   5.703 -1.6589 -0.8986 -1.4072
 9181SOL     OW28705   6.405   1.774   1.707 -0.6302 -0.0732  0.0236
 9181SOL    HW128706   6.498   1.794   1.692  0.1153 -2.4700  0.9400
 9181SOL    HW228707   6.403   1.736   1.795 -2.2814 -1.2009 -0.4625
 9182SOL     OW28708   0.524   0.114   2.785  0.4399 -0.4692  0.1058
 9182SOL    HW128709   0.536   0.035   2.838  0.5479 -0.8202 -0.4347
 9182SOL    HW228710   0.612   0.136   2.753  0.3816 -0.2415  0.0976
 9183SOL     OW28711   7.370   7.497   0.811  0.3172  0.1346  0.1627
 9183SOL    HW128712   7.396   7.419   0.860  3.4246  0.6067 -0.5600
 9183SOL    HW228713   7.423   7.495   0.732 -0.2769  2.4619 -0.3735
 9184SOL     OW28714   2.895   2.123   0.003 -0.7734  0.0259 -0.4473
 9184SOL    HW128715   2.855   2.038  -0.015 -0.5166 -0.0316 -0.7535
 9184SOL    HW228716   2.929   2.152  -0.082  0.1097 -0.0755 -0.1378
 9185SOL     OW28717   1.466   2.853   3.320  0.1386 -0.0024 -0.1676
 9185SOL    HW128718   1.392   2.801   3.350 -1.4181  1.9549 -0.3877
 9185SOL    HW228719   1.521   2.792   3.271 -2.4153 -1.1182 -1.8374
 9186SOL     OW28720   2.548   3.696   8.616 -0.4213  0.2377  0.7092
 9186SOL    HW128721   2.509   3.726   8.698  0.3495  1.1782  0.7506
 9186SOL    HW228722   2.624   3.754   8.603  0.1920 -0.6972 -0.0250
 9187SOL     OW28723   5.625   6.155   0.809 -0.3244  0.2132 -0.0199
 9187SOL    HW128724   5.709   6.160   0.854  0.7999 -1.8984 -1.7038
 9187SOL    HW228725   5.590   6.244   0.815  2.0350  1.1849  0.6791
 9188SOL     OW28726   8.121   8.018   3.965  0.0975  0.0187 -0.5081
 9188SOL    HW128727   8.042   7.965   3.959 -0.5376  0.6342  1.5420
 9188SOL    HW228728   8.159   7.995   4.050  1.4222  0.6884 -0.8911
 9189SOL     OW28729   7.545   6.971   6.788  0.4811  0.1794  0.5496
 9189SOL    HW128730   7.491   7.033   6.737 -0.3756 -0.7123  0.3285
 9189SOL    HW228731   7.488   6.944   6.860  0.6960 -0.6553  0.4125
 9190SOL     OW28732   7.393   0.957   3.074 -0.1859  0.0660  0.1479
 9190SOL    HW128733   7.375   0.918   3.160  0.0276  0.2923  0.2958
 9190SOL    HW228734   7.436   1.041   3.094 -0.2764  0.1903 -0.1758
 9191SOL     OW28735   3.435   2.829   0.071 -1.0812 -0.5447 -0.5154
 9191SOL    HW128736   3.390   2.879   0.003 -1.1492  2.2772  1.4301
 9191SOL    HW228737   3.526   2.856   0.065 -0.4596 -2.6171 -1.3588
 9192SOL     OW28738   6.076   4.199   7.755 -0.0943 -0.5958 -0.3031
 9192SOL    HW128739   6.079   4.116   7.803 -0.5310 -0.0383  0.7065
 9192SOL    HW228740   6.022   4.180   7.679  1.2533 -1.7080 -1.0354
 9193SOL     OW28741   0.608   3.829   6.636  0.0401  0.5383 -0.3609
 9193SOL    HW128742   0.616   3.904   6.578 -0.1286 -0.4239 -1.6641
 9193SOL    HW228743   0.689   3.780   6.624 -0.7147 -0.5747 -1.1291
 9194SOL     OW28744   4.626   8.339   8.840  0.6074  0.1557  0.1699
 9194SOL    HW128745   4.543   8.297   8.861  0.6931 -0.8234 -1.2987
 9194SOL    HW228746   4.676   8.272   8.794  1.3865  1.3564 -0.8153
 9195SOL     OW28747   1.013   7.413   5.753  0.0328 -0.0282 -0.4759
 9195SOL    HW128748   0.961   7.483   5.715 -0.0017 -0.1354 -0.6253
 9195SOL    HW228749   1.001   7.339   5.694 -0.3923 -0.3392 -0.0080
 9196SOL     OW28750   8.463   7.185   2.150  0.1490 -0.1809 -0.0244
 9196SOL    HW128751   8.458   7.245   2.225 -0.0285 -0.3301  0.0853
 9196SOL    HW228752   8.521   7.115   2.178  0.6814  0.1478 -0.3021
 9197SOL     OW28753   7.284   2.337   8.342 -0.0015 -0.1925  0.2762
 9197SOL    HW128754   7.327   2.393   8.277 -0.8795  1.2150  0.8539
 9197SOL    HW228755   7.218   2.289   8.292  1.4597 -1.5900 -0.4220
 9198SOL     OW28756   2.013   0.994   0.093 -0.0602  0.4664  0.6995
 9198SOL    HW128757   2.108   0.989   0.081 -0.1238 -0.7328  0.5062
 9198SOL    HW228758   1.977   0.953   0.015 -0.7012 -0.1326  1.2927
 9199SOL     OW28759   5.417   4.667   3.485 -0.8844 -0.3224 -0.2423
 9199SOL    HW128760   5.499   4.667   3.436 -1.1208 -1.2965 -0.6580
 9199SOL    HW228761   5.360   4.727   3.437 -1.1559 -1.3542 -1.2575
 9200SOL     OW28762   4.756   6.839   6.680  0.5663  0.0735  0.6570
 9200SOL    HW128763   4.768   6.831   6.774  0.0155 -0.5911  0.6772
 9200SOL    HW228764   4.804   6.918   6.656 -0.2251  0.8873  1.6693
 9201SOL     OW28765   7.829   3.605   6.649 -0.3526 -0.0721  0.2412
 9201SOL    HW128766   7.789   3.555   6.578 -0.3793  1.7001 -1.0634
 9201SOL    HW228767   7.868   3.681   6.605  0.7740  0.4041  1.9869
 9202SOL     OW28768   6.925   0.505   1.032 -0.0572 -0.2980 -0.5731
 9202SOL    HW128769   7.002   0.480   1.083 -1.6846 -0.6576  1.8414
 9202SOL    HW228770   6.920   0.600   1.043  0.7377 -0.0829 -1.8428
 9203SOL     OW28771   5.558   0.512   8.176 -0.4964 -0.3393 -0.2889
 9203SOL    HW128772   5.493   0.582   8.164 -0.5916 -0.3175  0.3368
 9203SOL    HW228773   5.559   0.496   8.271  0.8294  0.0646 -0.2243
 9204SOL     OW28774   1.017   7.650   7.133  0.0125  0.3581  0.0754
 9204SOL    HW128775   1.070   7.585   7.180 -0.5101  0.8596  1.3814
 9204SOL    HW228776   1.081   7.715   7.103  0.2019  0.8070  1.3880
 9205SOL     OW28777   0.108   2.459   6.565 -0.5140 -0.4385  0.4120
 9205SOL    HW128778   0.113   2.550   6.534 -0.8740 -0.2572  0.8814
 9205SOL    HW228779   0.026   2.455   6.615  0.2824 -0.5873  1.7571
 9206SOL     OW28780   3.060   5.852   1.149  0.2074  1.0377  0.1643
 9206SOL    HW128781   3.142   5.879   1.191  0.1023  1.2538  0.2306
 9206SOL    HW228782   2.997   5.919   1.174  0.2960  1.5317 -0.8663
 9207SOL     OW28783   7.612   7.543   4.106  0.3363 -0.1931 -0.9349
 9207SOL    HW128784   7.583   7.616   4.051  0.3648  1.0536  0.6240
 9207SOL    HW228785   7.678   7.498   4.054 -0.0438  0.5924 -2.1359
 9208SOL     OW28786   1.138   6.453   2.254  0.1649  0.3408  0.5511
 9208SOL    HW128787   1.132   6.526   2.193  2.3399  1.3533  1.4347
 9208SOL    HW228788   1.108   6.377   2.204 -1.0505  1.6287 -0.7546
 9209SOL     OW28789   6.545   6.370   7.027  0.0342 -0.1115  0.1642
 9209SOL    HW128790   6.450   6.379   7.028  0.1346  1.2509 -0.6206
 9209SOL    HW228791   6.560   6.277   7.046 -1.3753 -0.0086  2.1596
 9210SOL     OW28792   2.728   5.961   1.266 -0.2947  0.2327 -0.0381
 9210SOL    HW128793   2.804   6.020   1.261 -0.2087  0.1793  0.5315
 9210SOL    HW228794   2.704   5.945   1.175  0.3292  0.3180 -0.2211
 9211SOL     OW28795   1.141   2.765   2.789  0.4881 -0.3212 -0.2101
 9211SOL    HW128796   1.073   2.758   2.856 -0.3253  3.4418 -0.4392
 9211SOL    HW228797   1.223   2.761   2.838 -0.0206 -0.2151  0.6810
 9212SOL     OW28798   8.577   6.595   6.071  0.1435 -0.3722 -0.6520
 9212SOL    HW128799   8.661   6.606   6.027  0.5082 -0.4901 -0.0110
 9212SOL    HW228800   8.539   6.683   6.075  2.4180  0.7051  3.2539
 9213SOL     OW28801   8.292   1.070   5.815  0.1392  0.0676  0.1838
 9213SOL    HW128802   8.325   0.996   5.866 -3.1668 -1.2162  0.7370
 9213SOL    HW228803   8.316   1.050   5.724  0.3751 -1.0574  0.4870
 9214SOL     OW28804   3.425   8.307   6.414 -0.1529  0.3430  0.0354
 9214SOL    HW128805   3.434   8.352   6.330 -1.2523  0.7253  0.1123
 9214SOL    HW228806   3.515   8.285   6.439  0.1184 -0.9024 -1.8360
 9215SOL     OW28807   4.326   8.536   8.134  0.0946  0.2299  0.6948
 9215SOL    HW128808   4.325   8.585   8.051 -0.1416 -0.2550  0.4058
 9215SOL    HW228809   4.390   8.582   8.188  1.1804 -0.1784 -0.2093
 9216SOL     OW28810   4.735   6.045   1.225  0.0434  0.0024 -0.0486
 9216SOL    HW128811   4.750   6.061   1.318  1.1350  1.0599 -0.3903
 9216SOL    HW228812   4.822   6.040   1.187 -0.4087  0.9288 -1.2388
 9217SOL     OW28813   0.815   7.159   4.081 -0.3190 -0.1793 -0.2414
 9217SOL    HW128814   0.830   7.161   4.176  1.5157  1.6424 -0.4823
 9217SOL    HW228815   0.771   7.242   4.062 -3.1534 -1.7029 -0.7151
 9218SOL     OW28816   5.193   0.629   7.991  0.8135 -0.3205 -0.3375
 9218SOL    HW128817   5.103   0.605   7.973  0.9618 -0.4268 -0.9455
 9218SOL    HW228818   5.242   0.548   7.981  1.1574 -0.0057 -1.2782
 9219SOL     OW28819   2.007   6.619   1.990  0.4200 -0.4076  0.1023
 9219SOL    HW128820   1.982   6.705   2.025 -1.1029 -0.2980 -1.1511
 9219SOL    HW228821   2.098   6.608   2.016  0.2304  0.9665  1.4936
 9220SOL     OW28822   6.755   2.214   6.629 -1.0198  0.9183  0.3128
 9220SOL    HW128823   6.742   2.269   6.707 -1.8415  1.9712 -0.5309
 9220SOL    HW228824   6.768   2.277   6.558  3.6483  0.0293  0.0806
 9221SOL     OW28825   1.578   7.242   3.693  0.0236  0.3886  0.6324
 9221SOL    HW128826   1.548   7.311   3.633  1.3112  2.4400  2.2227
 9221SOL    HW228827   1.536   7.264   3.776  1.2627 -0.1521  1.4156
 9222SOL     OW28828   2.481   1.408   0.318 -0.4070  0.2152 -0.5835
 9222SOL    HW128829   2.452   1.420   0.228 -1.0230 -0.5365 -0.5012
 9222SOL    HW228830   2.408   1.362   0.361  0.2465 -0.2439  0.0611
 9223SOL     OW28831   2.804   1.365   5.526  0.6595 -0.6521 -0.7152
 9223SOL    HW128832   2.887   1.397   5.561  1.0234 -0.5130 -1.6769
 9223SOL    HW228833   2.742   1.437   5.539  0.3761 -1.1667  1.0441
 9224SOL     OW28834   0.467   3.708   6.423 -0.1769  0.7458  0.0818
 9224SOL    HW128835   0.451   3.766   6.349  1.7249 -0.3025 -1.2140
 9224SOL    HW228836   0.558   3.723   6.446 -0.1875 -0.4048  0.9201
 9225SOL     OW28837   1.470   0.292   6.492 -0.4089  0.4441 -0.3448
 9225SOL    HW128838   1.435   0.232   6.559 -0.1784  0.4800 -0.1921
 9225SOL    HW228839   1.401   0.296   6.426 -1.7962  2.4107  1.0900
 9226SOL     OW28840   8.458   1.304   7.834 -0.1919  0.1897 -0.6919
 9226SOL    HW128841   8.489   1.252   7.908  0.4151  0.1600 -0.9581
 9226SOL    HW228842   8.439   1.240   7.766 -1.5132  0.1543 -0.3048
 9227SOL     OW28843   6.009   0.050   1.937 -0.3017 -0.3699  0.6048
 9227SOL    HW128844   6.076   0.038   2.004 -0.8174  0.7972  1.3597
 9227SOL    HW228845   6.031   0.133   1.894 -2.0968  0.8497  1.9197
 9228SOL     OW28846   3.167   4.911   3.807 -0.0843 -0.0045  0.1239
 9228SOL    HW128847   3.216   4.959   3.741  0.7518  0.6648  1.1842
 9228SOL    HW228848   3.224   4.913   3.885  0.0047 -2.7797  0.2120
 9229SOL     OW28849   2.497   1.018   3.434 -0.7534 -0.1472 -0.0028
 9229SOL    HW128850   2.507   1.108   3.404 -1.1647 -0.3359 -0.7461
 9229SOL    HW228851   2.552   0.967   3.374 -0.6924 -0.4155  0.2797
 9230SOL     OW28852   8.586   0.568   3.457 -0.2854 -0.2212 -0.1679
 9230SOL    HW128853   8.639   0.582   3.379  1.1201 -1.1267  0.5859
 9230SOL    HW228854   8.630   0.498   3.504 -1.3152  0.0459  1.2675
 9231SOL     OW28855   2.525   7.645   0.423  0.0790  0.1879 -0.3952
 9231SOL    HW128856   2.575   7.565   0.439  0.3989  0.5382  0.3753
 9231SOL    HW228857   2.445   7.634   0.475  0.7577  0.9747  0.8529
 9232SOL     OW28858   7.528   1.555   5.124  0.3966 -0.1115 -0.4452
 9232SOL    HW128859   7.613   1.600   5.128  0.1318  0.4916 -1.1768
 9232SOL    HW228860   7.550   1.462   5.122  1.0755  0.0506 -1.1127
 9233SOL     OW28861   6.133   2.585   8.652 -0.8119  0.4720 -0.0331
 9233SOL    HW128862   6.220   2.545   8.649 -1.2052 -0.3868 -0.5032
 9233SOL    HW228863   6.079   2.529   8.595 -1.2765  1.9916 -1.1418
 9234SOL     OW28864   3.902   6.924   6.773  0.6231 -0.3860  0.1160
 9234SOL    HW128865   3.944   6.993   6.721 -0.5735  0.6797  0.5169
 9234SOL    HW228866   3.974   6.885   6.823  1.3578  0.4343 -0.2660
 9235SOL     OW28867   3.510   4.403   4.947  0.2080 -0.2631  0.3730
 9235SOL    HW128868   3.601   4.379   4.927 -0.0166  0.3600 -1.6494
 9235SOL    HW228869   3.507   4.410   5.042  2.8752  1.9065  0.4285
 9236SOL     OW28870   8.437   4.016   0.518  0.4307  0.0460 -0.0702
 9236SOL    HW128871   8.346   4.023   0.547  0.2469 -2.3898  0.1727
 9236SOL    HW228872   8.440   4.067   0.437 -1.1405  0.2573 -0.0320
 9237SOL     OW28873   7.988   7.365   8.728 -0.0955  0.7350  0.1227
 9237SOL    HW128874   7.960   7.384   8.639  1.3454  2.7548  0.0331
 9237SOL    HW228875   8.063   7.306   8.718 -0.6391  0.0300  0.0905
 9238SOL     OW28876   5.977   0.157   7.309  0.3840 -0.1214 -0.2079
 9238SOL    HW128877   6.057   0.180   7.261  0.4201 -0.4343 -0.2996
 9238SOL    HW228878   6.002   0.167   7.401  0.1277  1.1029 -0.2477
 9239SOL     OW28879   1.541   6.294   7.620 -0.4397 -0.2049 -0.1943
 9239SOL    HW128880   1.505   6.372   7.576 -0.2153 -0.4325 -0.7899
 9239SOL    HW228881   1.470   6.230   7.615 -0.7313  0.0527  0.5573
 9240SOL     OW28882   0.050   8.719   6.112 -0.2223 -0.3672 -0.0327
 9240SOL    HW128883  -0.033   8.733   6.157 -0.2508 -0.8885  0.0929
 9240SOL    HW228884   0.107   8.681   6.180  0.1047 -0.0428 -0.1254
 9241SOL     OW28885   8.015   5.366   1.362 -0.3639  0.1921 -0.2094
 9241SOL    HW128886   8.040   5.448   1.404  1.7472 -0.5024  0.0191
 9241SOL    HW228887   8.082   5.352   1.295 -1.4548 -0.6985 -1.1737
 9242SOL     OW28888   0.917   0.411   5.500  0.0124 -0.1511  0.8260
 9242SOL    HW128889   1.012   0.420   5.505  0.0684 -0.6639  0.7340
 9242SOL    HW228890   0.883   0.492   5.538  0.4988  0.9827 -1.0332
 9243SOL     OW28891   3.064   4.994   6.111 -0.1727  1.0689  0.3021
 9243SOL    HW128892   3.006   5.036   6.048 -2.6280  1.4521  2.6181
 9243SOL    HW228893   3.057   4.900   6.092 -0.1953  1.2320 -0.5137
 9244SOL     OW28894   8.352   6.046   7.017 -0.1675  0.8736  0.0614
 9244SOL    HW128895   8.283   6.069   7.079 -0.4111  0.3471 -0.0077
 9244SOL    HW228896   8.392   5.967   7.054 -0.4705  0.4105 -0.5582
 9245SOL     OW28897   7.980   1.057   5.835 -0.2337  0.5047 -0.7756
 9245SOL    HW128898   8.041   1.118   5.794 -1.4600  1.8718 -0.6292
 9245SOL    HW228899   7.903   1.109   5.855 -1.0251 -0.9239  0.0913
 9246SOL     OW28900   3.347   4.099   6.873  0.1226 -0.1566 -0.1564
 9246SOL    HW128901   3.352   4.107   6.778  0.4736  2.5146  0.0012
 9246SOL    HW228902   3.290   4.171   6.900  1.1977  0.0431  1.7562
 9247SOL     OW28903   6.208   2.620   5.060 -0.0393 -0.2469 -0.2391
 9247SOL    HW128904   6.252   2.541   5.092  1.6032  0.8591  0.3283
 9247SOL    HW228905   6.162   2.655   5.136  0.1803 -0.0268 -0.2092
 9248SOL     OW28906   3.330   3.391   4.594  0.0627  0.0889  0.8413
 9248SOL    HW128907   3.350   3.374   4.686 -0.7067 -1.3362  0.7642
 9248SOL    HW228908   3.261   3.458   4.596  0.4306  0.4660  1.2621
 9249SOL     OW28909   5.258   3.770   6.553 -0.2479 -0.0843 -0.3629
 9249SOL    HW128910   5.204   3.696   6.580  0.6238 -0.0414  1.6527
 9249SOL    HW228911   5.339   3.730   6.521  1.3293 -0.0962  3.1815
 9250SOL     OW28912   2.579   5.361   3.341 -0.2010 -0.2773  1.2568
 9250SOL    HW128913   2.596   5.286   3.284 -1.3479 -1.3175  2.2301
 9250SOL    HW228914   2.654   5.419   3.329  0.4736 -1.3651  0.1309
 9251SOL     OW28915   6.428   4.419   0.603  0.6173 -0.5494 -0.4734
 9251SOL    HW128916   6.388   4.496   0.563 -0.7896 -1.3490 -0.6507
 9251SOL    HW228917   6.421   4.435   0.697  0.5433 -0.3533 -0.5107
 9252SOL     OW28918   2.996   4.508   2.912  0.0314 -0.5433 -0.1751
 9252SOL    HW128919   3.079   4.516   2.864  0.5297 -1.7808  0.4254
 9252SOL    HW228920   2.969   4.598   2.929  1.0137 -0.1130 -0.7851
 9253SOL     OW28921   5.729   2.371   6.394  0.5546 -0.6326 -0.0362
 9253SOL    HW128922   5.690   2.327   6.470 -0.9201  0.5940 -0.0304
 9253SOL    HW228923   5.786   2.304   6.355  0.8681 -1.4827  1.7682
 9254SOL     OW28924   4.724   1.257   8.238 -0.1263  0.5846  0.1042
 9254SOL    HW128925   4.673   1.316   8.295 -0.2443 -1.1458  1.9039
 9254SOL    HW228926   4.814   1.269   8.268 -0.3180 -1.1403  1.4930
 9255SOL     OW28927   5.263   0.733   1.419  0.1329  0.3300  0.0068
 9255SOL    HW128928   5.220   0.653   1.449  0.3752  0.2078  0.0363
 9255SOL    HW228929   5.272   0.721   1.324 -0.4425  0.6236 -0.0909
 9256SOL     OW28930   5.355   8.751   7.050 -0.2515 -0.1775 -0.3013
 9256SOL    HW128931   5.310   8.816   6.996 -0.0971  0.0546 -0.1517
 9256SOL    HW228932   5.284   8.700   7.091 -0.3667 -0.7394 -1.1743
 9257SOL     OW28933   4.865   7.579   8.265  0.1477 -0.2391 -0.3177
 9257SOL    HW128934   4.933   7.513   8.253 -0.2694 -1.0563  1.5510
 9257SOL    HW228935   4.899   7.656   8.219  1.8213 -0.9676 -0.3829
 9258SOL     OW28936   2.280   4.418   3.181 -0.3432  0.2340 -0.1719
 9258SOL    HW128937   2.188   4.393   3.184 -0.1390 -0.4247  1.5411
 9258SOL    HW228938   2.294   4.447   3.090 -2.2387  0.4362 -0.4362
 9259SOL     OW28939   2.961   0.157   2.111 -0.1051 -0.4475 -0.1094
 9259SOL    HW128940   2.991   0.086   2.055 -1.1957 -1.2410  0.2764
 9259SOL    HW228941   2.992   0.237   2.067  1.3496 -1.1413 -0.4199
 9260SOL     OW28942   7.113   1.182   5.239  0.0486 -0.7599 -0.0504
 9260SOL    HW128943   7.033   1.184   5.186 -0.0698  2.5928  0.0373
 9260SOL    HW228944   7.095   1.242   5.312  2.1123 -1.0775  0.7737
 9261SOL     OW28945   2.254   6.528   3.615  0.2116 -0.0706  0.3978
 9261SOL    HW128946   2.195   6.521   3.540  0.5612  1.2290 -0.0268
 9261SOL    HW228947   2.196   6.522   3.691 -0.0769 -1.9993  0.0680
 9262SOL     OW28948   5.134   7.369   6.590  0.0638  0.7214 -0.5129
 9262SOL    HW128949   5.053   7.392   6.636 -0.7798 -2.0036 -0.4356
 9262SOL    HW228950   5.201   7.368   6.658 -0.2695  1.0463 -0.1788
 9263SOL     OW28951   6.927   7.532   8.154  0.4473  0.0595 -0.2703
 9263SOL    HW128952   6.888   7.612   8.188  1.6230  0.7325 -0.4378
 9263SOL    HW228953   6.873   7.509   8.079 -1.2725 -0.6071  1.1008
 9264SOL     OW28954   6.102   2.044   0.406  0.0845  0.6484  0.1152
 9264SOL    HW128955   6.031   2.008   0.352 -0.6710 -1.0998  2.1200
 9264SOL    HW228956   6.095   2.139   0.394 -2.5204  0.5264  0.0889
 9265SOL     OW28957   8.412   2.780   5.851  0.6031  0.3802 -0.1470
 9265SOL    HW128958   8.478   2.836   5.809 -0.2558 -0.4286 -2.7792
 9265SOL    HW228959   8.355   2.841   5.897 -0.0072  1.7285 -2.4964
 9266SOL     OW28960   6.592   5.931   0.386 -0.1524 -0.4606  0.5595
 9266SOL    HW128961   6.517   5.947   0.329 -0.6660  0.0561  1.3634
 9266SOL    HW228962   6.668   5.962   0.336 -0.5183 -0.5867 -0.0813
 9267SOL     OW28963   4.191   6.276   4.362 -0.1045 -0.4693  0.0252
 9267SOL    HW128964   4.245   6.213   4.409  1.1958  0.9567  0.5315
 9267SOL    HW228965   4.238   6.292   4.280  2.0748  3.0196  1.6934
 9268SOL     OW28966   1.847   1.429   5.914  0.0659 -0.7931  0.0207
 9268SOL    HW128967   1.907   1.499   5.887 -2.0736  1.2572  0.2022
 9268SOL    HW228968   1.878   1.402   6.000  0.4411  0.6389  0.3702
 9269SOL     OW28969   2.246   5.527   2.415 -0.0153  0.1856  0.2851
 9269SOL    HW128970   2.168   5.549   2.364  0.1606 -0.3973 -0.2515
 9269SOL    HW228971   2.241   5.432   2.427 -0.6001  0.4278  2.2897
 9270SOL     OW28972   4.697   4.370   6.276 -0.3952 -0.5148  0.8678
 9270SOL    HW128973   4.691   4.337   6.366 -2.3760 -1.7126  0.3689
 9270SOL    HW228974   4.618   4.423   6.264 -0.1540 -0.3586 -0.1627
 9271SOL     OW28975   4.326   0.924   5.172 -0.1016 -0.3527  0.0812
 9271SOL    HW128976   4.318   1.010   5.214  0.7838 -1.0205  1.7034
 9271SOL    HW228977   4.420   0.909   5.165 -0.2455 -1.4050  0.2799
 9272SOL     OW28978   4.419   5.208   8.324  0.1591 -0.1338 -0.0112
 9272SOL    HW128979   4.367   5.217   8.244 -1.2525  0.0701  0.8966
 9272SOL    HW228980   4.506   5.241   8.300 -0.0360 -0.6932 -1.6259
 9273SOL     OW28981   8.698   8.157   1.815 -0.4491  0.1652 -0.0060
 9273SOL    HW128982   8.659   8.088   1.869 -2.2589 -0.0470 -1.5049
 9273SOL    HW228983   8.786   8.124   1.795 -1.4243 -2.0328 -1.0967
 9274SOL     OW28984   5.198   4.487   1.511  0.2643  0.5904 -0.3805
 9274SOL    HW128985   5.123   4.523   1.557 -0.4166  0.9255 -1.7082
 9274SOL    HW228986   5.173   4.397   1.489  1.1837 -0.0999  1.1740
 9275SOL     OW28987   4.010   2.033   0.436  0.2645  0.0389  0.3089
 9275SOL    HW128988   3.935   2.081   0.472 -0.0842 -1.9253  2.4161
 9275SOL    HW228989   3.991   1.941   0.454  2.5645 -0.6312 -0.3455
 9276SOL     OW28990   7.476   3.301   0.034  0.7378 -0.0733  0.1210
 9276SOL    HW128991   7.524   3.231  -0.010  1.1066  0.0250  0.3653
 9276SOL    HW228992   7.384   3.272   0.031  0.8777 -0.5353  0.1652
 9277SOL     OW28993   1.475   4.743   6.640  0.3506  0.1418  0.0983
 9277SOL    HW128994   1.509   4.661   6.603  0.6150  0.5665 -0.6216
 9277SOL    HW228995   1.432   4.786   6.566  0.1558  0.6267  0.4906
 9278SOL     OW28996   6.130   2.220   1.663 -0.3852 -0.0332 -0.3756
 9278SOL    HW128997   6.220   2.216   1.631 -0.3853 -0.2470 -0.3459
 9278SOL    HW228998   6.132   2.174   1.747 -0.7062 -0.8063 -0.7840
 9279SOL     OW28999   4.342   8.350   3.994  0.2943 -0.2252 -0.1635
 9279SOL    HW129000   4.299   8.335   4.078 -0.9309 -0.0300 -0.7256
 9279SOL    HW229001   4.322   8.271   3.943 -0.5685  0.4355 -0.8878
 9280SOL     OW29002   6.476   1.377   6.103  0.2273  0.0079  0.1205
 9280SOL    HW129003   6.395   1.401   6.147 -0.9403 -1.8493 -0.8888
 9280SOL    HW229004   6.462   1.402   6.012  1.7273  1.7424  0.3170
 9281SOL     OW29005   2.512   1.508   3.440 -0.9417 -0.1495 -0.4015
 9281SOL    HW129006   2.603   1.489   3.418 -0.9074  0.0787 -0.4549
 9281SOL    HW229007   2.500   1.473   3.528 -1.1601 -1.3568 -0.8769
 9282SOL     OW29008   7.241   4.578   2.622 -0.0536 -0.6505 -0.3623
 9282SOL    HW129009   7.254   4.673   2.627 -1.5138 -0.4891  2.1057
 9282SOL    HW229010   7.152   4.568   2.586  0.4872 -1.1650 -1.6317
 9283SOL     OW29011   1.335   8.046   0.058 -0.1153  0.2058 -0.3742
 9283SOL    HW129012   1.287   8.086  -0.015 -1.0711 -0.6729 -0.2475
 9283SOL    HW229013   1.267   8.004   0.111  0.6970 -0.2085  0.3543
 9284SOL     OW29014   6.354   6.019   5.978 -0.1140  0.2107  0.2747
 9284SOL    HW129015   6.355   5.980   5.890  2.1885 -1.0436  0.7663
 9284SOL    HW229016   6.292   5.965   6.027 -1.0444  0.6068 -0.4454
 9285SOL     OW29017   3.656   6.597   8.328 -0.8090 -0.0549  0.1756
 9285SOL    HW129018   3.713   6.620   8.401 -3.2979 -0.1717  2.3032
 9285SOL    HW229019   3.619   6.512   8.353 -3.3160  0.8732 -0.1646
 9286SOL     OW29020   8.361   3.417   6.401 -0.1744 -0.0916  0.5868
 9286SOL    HW129021   8.287   3.477   6.413 -1.1907 -1.2392  0.2510
 9286SOL    HW229022   8.321   3.336   6.369  1.3036 -0.5478 -0.1804
 9287SOL     OW29023   4.128   0.806   4.994 -0.4092  0.0514  0.3601
 9287SOL    HW129024   4.058   0.770   5.049 -0.1196 -0.1447  0.5972
 9287SOL    HW229025   4.189   0.846   5.055  0.8334 -1.7140  0.3493
 9288SOL     OW29026   4.440   2.113   0.236 -0.0482 -0.3484 -0.0240
 9288SOL    HW129027   4.401   2.197   0.259 -1.7114 -1.3121  0.8590
 9288SOL    HW229028   4.444   2.065   0.319  0.7306 -1.2046 -0.5360
 9289SOL     OW29029   6.710   1.207   3.340 -0.4773  0.2359 -0.2199
 9289SOL    HW129030   6.734   1.296   3.367  1.0950 -0.0850 -0.4959
 9289SOL    HW229031   6.760   1.150   3.399 -1.7022 -0.4937  0.1549
 9290SOL     OW29032   2.518   5.019   6.627  0.7064  0.1886  0.2169
 9290SOL    HW129033   2.545   4.932   6.655 -0.1201 -0.5232 -1.1158
 9290SOL    HW229034   2.596   5.057   6.586  1.2642  0.3631  1.4026
 9291SOL     OW29035   6.241   3.670   8.814 -0.0648 -0.1219  0.5420
 9291SOL    HW129036   6.193   3.630   8.886 -0.9183 -0.1194 -0.0054
 9291SOL    HW229037   6.178   3.729   8.773  1.2061  1.9514  1.4108
 9292SOL     OW29038   6.809   2.619   3.748  0.2569 -0.5471  0.0998
 9292SOL    HW129039   6.810   2.625   3.653 -0.2205  0.1182  0.1277
 9292SOL    HW229040   6.879   2.678   3.777 -1.1252  1.1398  0.2138
 9293SOL     OW29041   3.802   0.248   2.998  0.2930 -0.6995  0.1279
 9293SOL    HW129042   3.846   0.333   2.995  0.1264 -0.5149  1.9910
 9293SOL    HW229043   3.872   0.184   2.988  0.8025 -0.3746  1.3773
 9294SOL     OW29044   0.563   2.136   6.450 -0.3089 -0.1950  0.0559
 9294SOL    HW129045   0.469   2.153   6.446 -0.0588  1.3022 -0.3798
 9294SOL    HW229046   0.571   2.048   6.485 -1.8698 -0.2893  0.2242
 9295SOL     OW29047   8.606   5.375   7.890 -0.1341 -0.2782  0.2495
 9295SOL    HW129048   8.618   5.280   7.887 -2.4103 -0.7594  2.5443
 9295SOL    HW229049   8.665   5.404   7.960  0.7610  0.0751 -0.6322
 9296SOL     OW29050   5.793   2.966   3.786 -0.1973  0.6137  0.4948
 9296SOL    HW129051   5.706   2.927   3.788 -0.0042  0.0000 -1.1867
 9296SOL    HW229052   5.787   3.037   3.723  0.5221  0.5625  0.3578
 9297SOL     OW29053   7.787   1.019   6.455  0.1420  0.2268 -0.8012
 9297SOL    HW129054   7.799   0.926   6.435  0.3367  0.3276 -1.1537
 9297SOL    HW229055   7.751   1.056   6.375  0.9220  0.6340 -0.9760
 9298SOL     OW29056   4.724   3.115   3.377  0.0919  0.6158  0.2238
 9298SOL    HW129057   4.810   3.076   3.363  0.3123  0.9205  0.6984
 9298SOL    HW229058   4.700   3.151   3.292 -0.4404 -1.1724 -0.4237
 9299SOL     OW29059   6.270   8.483   8.283  0.1813 -0.2561 -0.1923
 9299SOL    HW129060   6.325   8.409   8.258 -0.0376 -0.4947  0.0226
 9299SOL    HW229061   6.270   8.541   8.206 -0.1164 -0.7594 -0.5779
 9300SOL     OW29062   7.370   3.432   8.104 -0.0359  0.0931  0.5819
 9300SOL    HW129063   7.393   3.480   8.183  0.5441  0.4500  0.1947
 9300SOL    HW229064   7.448   3.435   8.049 -0.4331 -0.1448 -0.0126
 9301SOL     OW29065   8.708   0.654   5.520 -0.0165 -0.9034 -0.1597
 9301SOL    HW129066   8.788   0.627   5.474 -0.1823 -1.3847 -0.1678
 9301SOL    HW229067   8.649   0.580   5.511 -0.4445 -0.5747 -0.0947
 9302SOL     OW29068   0.241   8.566   5.514 -0.3336 -0.2470 -0.2497
 9302SOL    HW129069   0.226   8.472   5.517 -2.3089  0.0072 -0.4854
 9302SOL    HW229070   0.333   8.577   5.538  0.9582 -2.4740 -3.5138
 9303SOL     OW29071   1.775   5.990   5.766  0.3508  0.0148 -0.5860
 9303SOL    HW129072   1.717   6.040   5.709 -0.4570 -0.1008  0.1308
 9303SOL    HW229073   1.757   6.022   5.854  1.2688 -0.1325 -0.3317
 9304SOL     OW29074   2.524   4.136   3.504 -0.0340  0.7285  0.1081
 9304SOL    HW129075   2.492   4.177   3.423 -0.0502 -1.9444 -1.3491
 9304SOL    HW229076   2.446   4.124   3.558 -0.6921 -0.8696 -1.1322
 9305SOL     OW29077   6.052   3.125   4.300 -0.2125 -0.2526  0.3534
 9305SOL    HW129078   5.993   3.111   4.226 -0.2891 -0.5686  0.4729
 9305SOL    HW229079   6.025   3.209   4.337 -0.6718 -0.4571  0.4827
 9306SOL     OW29080   1.870   2.359   5.187  0.4929  0.0547  0.1355
 9306SOL    HW129081   1.780   2.351   5.156  0.4084  0.9751  0.1220
 9306SOL    HW229082   1.864   2.356   5.282  0.7508 -2.7534  0.1609
 9307SOL     OW29083   8.736   6.203   8.792  0.0908  0.0802  0.5151
 9307SOL    HW129084   8.678   6.208   8.715  0.2905 -0.0396  0.3567
 9307SOL    HW229085   8.812   6.153   8.762  1.8717  3.0402 -0.2645
 9308SOL     OW29086   6.107   7.563   2.565  0.2140 -0.3252 -0.6076
 9308SOL    HW129087   6.082   7.536   2.477 -0.8375 -0.7940 -0.1760
 9308SOL    HW229088   6.201   7.577   2.559  0.2000 -0.5862 -1.7461
 9309SOL     OW29089   1.749   6.623   7.677 -0.4308 -0.2492 -0.1927
 9309SOL    HW129090   1.661   6.586   7.672  0.6580 -3.0271 -0.5590
 9309SOL    HW229091   1.791   6.596   7.595  0.9210  0.6045  0.1899
 9310SOL     OW29092   4.914   0.490   4.670  0.3341 -0.4934 -0.4557
 9310SOL    HW129093   4.866   0.479   4.752  1.7362 -1.4366  0.2860
 9310SOL    HW229094   4.908   0.404   4.628  0.0963 -0.1714 -1.0895
 9311SOL     OW29095   5.916   5.637   6.609 -0.5061 -0.1988 -0.1446
 9311SOL    HW129096   5.996   5.620   6.559  0.1205  1.1048  0.3581
 9311SOL    HW229097   5.894   5.728   6.589 -0.5671  0.1806  1.4827
 9312SOL     OW29098   8.709   4.670   5.111  0.0197  0.1412  0.7741
 9312SOL    HW129099   8.728   4.736   5.177 -0.1098  1.2245 -0.2339
 9312SOL    HW229100   8.717   4.716   5.027  1.3718 -1.4703 -0.0569
 9313SOL     OW29101   3.875   8.122   7.865  0.1482  0.1058  0.5528
 9313SOL    HW129102   3.851   8.191   7.928  1.6659  0.1596  1.1125
 9313SOL    HW229103   3.960   8.090   7.896  0.3957 -0.6542 -0.8401
 9314SOL     OW29104   6.388   1.524   0.416  0.3206  0.0592 -0.1741
 9314SOL    HW129105   6.314   1.567   0.374  0.3535  0.0374 -0.2558
 9314SOL    HW229106   6.361   1.510   0.507 -0.6338 -1.9383 -0.7234
 9315SOL     OW29107   8.795   6.275   3.510 -0.0621 -0.2676 -0.5249
 9315SOL    HW129108   8.722   6.247   3.455 -2.3595 -0.1880  2.2528
 9315SOL    HW229109   8.812   6.365   3.483 -1.4834 -0.0523 -0.7714
 9316SOL     OW29110   5.874   1.330   4.019  0.0079 -0.2628  0.3519
 9316SOL    HW129111   5.800   1.269   4.010  0.4990 -0.7485 -0.5805
 9316SOL    HW229112   5.835   1.417   4.011 -0.2039 -0.5262 -2.8296
 9317SOL     OW29113   0.927   4.268   1.033  0.5752 -0.8037 -0.0207
 9317SOL    HW129114   0.907   4.188   0.984 -1.8402 -0.7217  0.6678
 9317SOL    HW229115   0.863   4.332   1.001  0.5919 -0.0101  1.4402
 9318SOL     OW29116   2.608   4.170   1.945  0.2224 -0.0330  0.5544
 9318SOL    HW129117   2.540   4.152   2.010 -0.1952 -1.8326 -0.3359
 9318SOL    HW229118   2.591   4.260   1.917 -2.2354 -0.6261 -0.1204
 9319SOL     OW29119   5.270   2.097   2.281  0.0062  0.0461 -0.6950
 9319SOL    HW129120   5.205   2.161   2.307  2.2995  1.7615  1.3458
 9319SOL    HW229121   5.353   2.146   2.281  1.8367 -2.7872  0.5866
 9320SOL     OW29122   2.212   7.457   6.725 -0.6240 -0.0703  0.7204
 9320SOL    HW129123   2.150   7.484   6.657  0.4278  0.8952  0.1024
 9320SOL    HW229124   2.171   7.486   6.807 -0.4968  1.6174  0.2316
 9321SOL     OW29125   2.554   1.133   5.412  0.4011  0.5317 -0.2496
 9321SOL    HW129126   2.480   1.194   5.408 -0.0084  0.0208 -0.6457
 9321SOL    HW229127   2.572   1.123   5.505 -1.6743 -1.2666  0.0505
 9322SOL     OW29128   6.997   7.035   5.277 -0.0104 -0.4165 -0.0882
 9322SOL    HW129129   7.079   7.037   5.227 -0.6361  1.0998 -1.1544
 9322SOL    HW229130   7.019   6.989   5.358  1.9791  0.2130 -0.2155
 9323SOL     OW29131   3.417   1.678   7.593 -0.4657 -0.1628 -0.1751
 9323SOL    HW129132   3.378   1.641   7.672 -0.3642  1.1001  0.4862
 9323SOL    HW229133   3.482   1.740   7.625 -2.2050  2.3336 -1.1434
 9324SOL     OW29134   4.485   5.584   3.234 -0.7587  0.2388 -0.2226
 9324SOL    HW129135   4.498   5.497   3.196 -0.5327 -0.5449  1.5310
 9324SOL    HW229136   4.413   5.572   3.295 -0.0996  1.0458  0.7384
 9325SOL     OW29137   5.073   5.118   5.644 -0.4703 -0.2322  0.3134
 9325SOL    HW129138   5.004   5.062   5.609  1.7948 -2.7111 -0.5210
 9325SOL    HW229139   5.118   5.064   5.709  1.8317  0.5806 -0.5008
 9326SOL     OW29140   7.897   4.607   7.978  0.2696 -0.2475 -0.4068
 9326SOL    HW129141   7.809   4.577   7.955  0.3989  0.3444 -1.7789
 9326SOL    HW229142   7.899   4.604   8.074 -0.3137 -2.8939 -0.3846
 9327SOL     OW29143   1.946   1.391   6.446 -0.0872 -0.6259  0.0554
 9327SOL    HW129144   1.904   1.358   6.367 -2.6134  0.2084  0.9431
 9327SOL    HW229145   1.936   1.486   6.440  1.1968 -0.4479  0.5921
 9328SOL     OW29146   0.555   1.735   1.631  0.2600 -0.4396  0.2277
 9328SOL    HW129147   0.535   1.641   1.638  2.3309 -0.8906  0.7018
 9328SOL    HW229148   0.642   1.737   1.592 -0.8398  1.4017 -2.4370
 9329SOL     OW29149   5.643   8.029   1.449  0.3075  0.2611  0.3336
 9329SOL    HW129150   5.734   8.002   1.459 -0.3668 -1.8382  1.3086
 9329SOL    HW229151   5.646   8.124   1.455  2.4686  0.2714 -0.0681
 9330SOL     OW29152   6.473   1.412   5.811 -0.0458  0.0332  0.4621
 9330SOL    HW129153   6.456   1.386   5.721  0.3496  2.3617 -0.3625
 9330SOL    HW229154   6.457   1.506   5.812 -0.6064 -0.0251  2.9896
 9331SOL     OW29155   2.792   8.480   4.115 -0.5647  0.3845 -0.6170
 9331SOL    HW129156   2.774   8.561   4.163 -0.4346  1.4115 -2.2444
 9331SOL    HW229157   2.720   8.472   4.053 -0.1704 -0.3446 -0.9946
 9332SOL     OW29158   2.613   7.283   2.917  0.1746 -0.5625  0.6354
 9332SOL    HW129159   2.652   7.368   2.936 -0.1318  0.1452 -1.6519
 9332SOL    HW229160   2.686   7.227   2.891  0.0521 -0.0703 -0.8479
 9333SOL     OW29161   3.632   1.716   2.694  0.0911 -0.3099 -0.0620
 9333SOL    HW129162   3.619   1.810   2.682 -0.8548 -0.4642 -0.2867
 9333SOL    HW229163   3.712   1.697   2.645  0.1446  0.3286 -0.2368
 9334SOL     OW29164   0.256   6.930   5.242 -0.1765  0.4726 -0.4263
 9334SOL    HW129165   0.194   6.994   5.208 -0.9192  0.6713  1.2155
 9334SOL    HW229166   0.250   6.856   5.181  1.4016  2.2323 -2.9114
 9335SOL     OW29167   8.635   3.451   7.584  0.6513 -0.1392  0.0953
 9335SOL    HW129168   8.725   3.449   7.616  0.6456 -0.0909  0.1139
 9335SOL    HW229169   8.634   3.390   7.511  1.3076  1.6359 -1.4954
 9336SOL     OW29170   6.111   7.070   0.732 -0.4404 -0.5916 -0.4860
 9336SOL    HW129171   6.165   7.102   0.661 -1.1068  0.3222 -0.5933
 9336SOL    HW229172   6.171   7.058   0.805 -0.1250  0.5830 -0.5458
 9337SOL     OW29173   7.775   5.552   7.814 -0.2009 -0.2132  0.3608
 9337SOL    HW129174   7.845   5.581   7.872 -0.9452 -1.0123  1.7147
 9337SOL    HW229175   7.801   5.464   7.787  0.2440  0.2369 -0.7100
 9338SOL     OW29176   0.486   1.345   3.874 -0.2798 -0.9551 -0.4901
 9338SOL    HW129177   0.412   1.296   3.837 -0.1129 -2.0031  0.5087
 9338SOL    HW229178   0.550   1.277   3.898  0.0522 -0.2286  0.7436
 9339SOL     OW29179   4.524   5.509   3.604  0.5706  0.0152 -0.5988
 9339SOL    HW129180   4.562   5.438   3.552  0.4904 -0.7491  0.3650
 9339SOL    HW229181   4.474   5.464   3.672 -1.5377  0.9940 -1.4369
 9340SOL     OW29182   0.015   5.429   6.504 -0.8648 -0.2178 -0.1126
 9340SOL    HW129183   0.096   5.424   6.555 -0.0838  0.9692 -1.1571
 9340SOL    HW229184  -0.040   5.359   6.539  0.4725 -0.8315  0.8726
 9341SOL     OW29185   5.914   4.606   2.300 -0.3958 -0.0433  0.4298
 9341SOL    HW129186   5.928   4.693   2.265  0.9562 -0.4806 -0.1590
 9341SOL    HW229187   5.823   4.586   2.277 -0.6520  1.1118  0.3854
 9342SOL     OW29188   7.515   2.145   1.047 -0.2844 -0.4367  0.4443
 9342SOL    HW129189   7.455   2.207   1.088  0.4900 -0.4091  1.5925
 9342SOL    HW229190   7.596   2.194   1.036 -0.2583 -0.6701 -0.4640
 9343SOL     OW29191   1.982   8.279   8.199  0.1925 -0.3479  0.4967
 9343SOL    HW129192   1.972   8.364   8.156  0.6015 -0.6195 -0.1627
 9343SOL    HW229193   1.895   8.239   8.194  0.2124 -0.3352 -0.0052
 9344SOL     OW29194   7.188   8.455   0.227  0.1658  0.3345 -0.2839
 9344SOL    HW129195   7.272   8.462   0.182 -0.4285  0.7382 -1.3541
 9344SOL    HW229196   7.178   8.539   0.273  1.0737 -0.3226  1.1918
 9345SOL     OW29197   7.123   7.263   8.766  0.6596 -0.3088  0.5748
 9345SOL    HW129198   7.128   7.350   8.727  0.2927 -0.0151  1.1757
 9345SOL    HW229199   7.159   7.274   8.854 -0.7978 -0.4216  1.2102
 9346SOL     OW29200   4.633   0.528   5.565  0.1369 -0.2758 -1.0353
 9346SOL    HW129201   4.663   0.437   5.569  0.9287  0.0411  1.7516
 9346SOL    HW229202   4.538   0.521   5.560  0.0734 -1.3069  0.7735
 9347SOL     OW29203   8.557   7.103   7.866  0.3473 -0.0408 -0.5375
 9347SOL    HW129204   8.575   7.034   7.802  1.1526 -0.8915  0.5810
 9347SOL    HW229205   8.469   7.132   7.844 -0.1447 -1.6400 -0.8530
 9348SOL     OW29206   8.676   8.580   2.362  0.0243  0.2581  0.4809
 9348SOL    HW129207   8.725   8.655   2.332  0.9257 -0.2418  0.6664
 9348SOL    HW229208   8.742   8.512   2.376 -0.6082 -0.1740  1.5247
 9349SOL     OW29209   6.398   4.803   1.735  0.0482 -0.3004  0.0873
 9349SOL    HW129210   6.371   4.892   1.711  1.2693  0.0952  0.0590
 9349SOL    HW229211   6.343   4.780   1.810 -1.3346 -0.1315 -0.8381
 9350SOL     OW29212   5.020   6.381   8.177  0.2370 -0.6674  0.9390
 9350SOL    HW129213   4.972   6.430   8.244 -0.8877 -1.9980  1.1630
 9350SOL    HW229214   5.105   6.363   8.216 -0.1294 -0.7613  1.7078
 9351SOL     OW29215   8.395   3.187   1.905 -0.1669  0.2535  0.1296
 9351SOL    HW129216   8.451   3.110   1.911  0.7143  0.9258  0.7586
 9351SOL    HW229217   8.307   3.151   1.896 -0.0063 -0.8708  2.2318
 9352SOL     OW29218   5.271   6.830   8.015 -0.1753  0.2890  0.0350
 9352SOL    HW129219   5.182   6.804   8.041 -0.0661  0.4554  0.5816
 9352SOL    HW229220   5.296   6.897   8.078  0.9037 -0.7828  0.8011
 9353SOL     OW29221   4.677   6.017   5.607  0.1505 -0.4500 -0.6963
 9353SOL    HW129222   4.727   5.969   5.673  0.1598 -2.5979 -2.1712
 9353SOL    HW229223   4.743   6.066   5.558  0.4570 -0.8139 -0.6552
 9354SOL     OW29224   0.595   6.988   1.822 -0.2702  0.5804 -0.2314
 9354SOL    HW129225   0.544   6.975   1.742  0.9130  1.1392 -1.1007
 9354SOL    HW229226   0.673   7.035   1.794 -0.0926  1.3172  1.3479
 9355SOL     OW29227   4.360   3.021   5.016 -0.5117 -0.1476 -0.1489
 9355SOL    HW129228   4.434   3.021   4.955 -0.1853 -2.3692  0.1658
 9355SOL    HW229229   4.297   3.081   4.977 -0.8480 -2.3664 -3.3796
 9356SOL     OW29230   3.481   0.276   3.428  0.0598 -0.1654 -0.4593
 9356SOL    HW129231   3.565   0.295   3.470 -0.6607  1.1427  0.4636
 9356SOL    HW229232   3.468   0.182   3.441  0.9654 -0.2199  0.1597
 9357SOL     OW29233   8.218   1.352   6.319 -0.0711  0.0721 -0.1538
 9357SOL    HW129234   8.188   1.329   6.407 -0.0744  0.1460 -0.1352
 9357SOL    HW229235   8.215   1.269   6.270 -1.0679  0.2219 -0.3718
 9358SOL     OW29236   4.653   0.304   2.776  0.3285  0.3477 -0.5040
 9358SOL    HW129237   4.716   0.237   2.804 -0.8061 -1.2504 -1.6115
 9358SOL    HW229238   4.589   0.257   2.723 -0.4862  2.3429 -1.4164
 9359SOL     OW29239   3.256   1.429   8.134  0.3397  0.8143 -0.2155
 9359SOL    HW129240   3.260   1.523   8.151  1.5939  0.4798  1.5982
 9359SOL    HW229241   3.164   1.406   8.148  0.4819  1.3761  1.9292
 9360SOL     OW29242   3.572   1.921   0.079 -0.5960  0.3256  0.4599
 9360SOL    HW129243   3.651   1.969   0.102  1.3125 -1.9237 -0.8475
 9360SOL    HW229244   3.569   1.925  -0.017 -1.5546 -0.3448  0.4460
 9361SOL     OW29245   6.422   3.918   8.188 -0.2523 -0.7323  0.1694
 9361SOL    HW129246   6.463   3.931   8.273  0.3619 -0.3489 -0.1850
 9361SOL    HW229247   6.330   3.898   8.209  0.1790 -1.9710  0.9773
 9362SOL     OW29248   0.737   5.962   3.871  0.8714  0.0361  0.2056
 9362SOL    HW129249   0.655   6.011   3.881  1.2082  0.5151  0.6555
 9362SOL    HW229250   0.783   6.007   3.801  1.4244  0.7127  0.9887
 9363SOL     OW29251   5.788   4.698   4.504  0.5473 -0.0523  0.1609
 9363SOL    HW129252   5.808   4.715   4.412 -0.4205 -1.7120 -0.4124
 9363SOL    HW229253   5.872   4.671   4.541  0.9532  0.6514 -0.2158
 9364SOL     OW29254   1.877   6.832   1.163 -0.7010 -0.5138  0.0536
 9364SOL    HW129255   1.819   6.764   1.130  0.8896 -1.1753 -1.5313
 9364SOL    HW229256   1.965   6.802   1.141  0.2263  0.7618  1.7826
 9365SOL     OW29257   8.464   5.301   3.329  0.0601  0.2177 -0.0527
 9365SOL    HW129258   8.384   5.280   3.281  0.9064  0.9259 -1.8673
 9365SOL    HW229259   8.528   5.237   3.300  0.4659  0.3474  0.5302
 9366SOL     OW29260   8.276   6.789   1.482 -0.1631 -0.3197  0.1023
 9366SOL    HW129261   8.224   6.830   1.413 -0.3227  0.1001  0.4713
 9366SOL    HW229262   8.213   6.735   1.530 -0.0290 -0.7066 -0.1468
 9367SOL     OW29263   5.768   7.012   2.064  0.0404 -0.3992  0.4764
 9367SOL    HW129264   5.815   6.928   2.064  1.5490  0.3891 -0.6520
 9367SOL    HW229265   5.676   6.988   2.060  0.3982 -2.0089  1.0932
 9368SOL     OW29266   4.631   0.007   8.411 -0.7408 -0.1141 -0.3020
 9368SOL    HW129267   4.655  -0.016   8.501  3.9816 -0.7344 -1.4455
 9368SOL    HW229268   4.666   0.095   8.399  0.1419 -0.6412 -1.9012
 9369SOL     OW29269   8.215   3.552   2.920  0.2960  0.6151 -0.6859
 9369SOL    HW129270   8.139   3.599   2.885  0.1836  0.0687 -1.1945
 9369SOL    HW229271   8.216   3.470   2.872  0.9586  0.4324 -0.3669
 9370SOL     OW29272   0.943   8.300   5.976  0.0855  0.0135 -0.0010
 9370SOL    HW129273   1.009   8.270   6.039  0.6405  0.5967 -0.2949
 9370SOL    HW229274   0.859   8.277   6.017  0.4659 -1.1906  0.1519
 9371SOL     OW29275   0.396   2.372   6.565  0.7180  0.1674  0.2240
 9371SOL    HW129276   0.485   2.342   6.584  0.4762 -0.4161  0.4805
 9371SOL    HW229277   0.354   2.377   6.651  0.6501  0.9289  0.1488
 9372SOL     OW29278   6.517   2.851   2.086 -0.3088 -0.5974  0.2189
 9372SOL    HW129279   6.499   2.845   1.992  1.9305 -2.7607 -0.1895
 9372SOL    HW229280   6.431   2.850   2.127 -1.3218 -0.5373 -1.7777
 9373SOL     OW29281   2.819   6.316   1.909  0.0560  0.0028  0.5628
 9373SOL    HW129282   2.912   6.302   1.889  0.5752 -2.3051  3.7667
 9373SOL    HW229283   2.798   6.401   1.870  3.7958  1.1294  0.6217
 9374SOL     OW29284   3.245   2.943   5.015 -0.6415  0.3381 -0.0641
 9374SOL    HW129285   3.151   2.954   5.003 -0.9496 -1.5795  0.2239
 9374SOL    HW229286   3.276   2.910   4.930 -0.3092  0.5720 -0.0339
 9375SOL     OW29287   1.880   3.230   7.067 -0.0742  0.6227  0.1245
 9375SOL    HW129288   1.949   3.181   7.023 -1.0240 -0.6025 -0.0692
 9375SOL    HW229289   1.838   3.279   6.996  0.3134  1.0153  0.1673
 9376SOL     OW29290   4.580   2.288   5.212  0.3886  0.6372  0.3599
 9376SOL    HW129291   4.509   2.324   5.158  0.3498  0.9733  0.6273
 9376SOL    HW229292   4.563   2.322   5.300  1.1543  1.1307  0.3323
 9377SOL     OW29293   6.729   2.748   8.858 -0.0427  0.1473  0.6647
 9377SOL    HW129294   6.693   2.724   8.943  0.2346 -4.3066 -0.1949
 9377SOL    HW229295   6.655   2.738   8.798  0.6799 -1.0486 -0.0798
 9378SOL     OW29296   8.239   8.414   7.781 -0.6193  0.1162  0.2302
 9378SOL    HW129297   8.162   8.378   7.736 -0.9156 -0.9328  1.5234
 9378SOL    HW229298   8.313   8.389   7.725 -0.9616 -1.3745  0.3871
 9379SOL     OW29299   1.621   1.917   5.141 -0.0539  0.1686 -0.3226
 9379SOL    HW129300   1.590   1.946   5.055  1.4552 -0.0153 -0.9482
 9379SOL    HW229301   1.544   1.875   5.180 -0.6692 -0.0966 -1.7303
 9380SOL     OW29302   7.481   4.262   4.759  0.2165 -0.3457 -0.1613
 9380SOL    HW129303   7.422   4.191   4.736  0.0755 -0.0226 -0.8185
 9380SOL    HW229304   7.510   4.298   4.675  0.7131  0.0211  0.1580
 9381SOL     OW29305   8.411   5.370   0.847 -0.0903 -0.6434 -0.4464
 9381SOL    HW129306   8.427   5.451   0.895  0.5697 -1.1179  0.1474
 9381SOL    HW229307   8.469   5.376   0.771 -0.4752 -0.3006 -0.7187
 9382SOL     OW29308   3.619   3.726   5.594 -0.4725  0.3041 -0.2122
 9382SOL    HW129309   3.620   3.745   5.687 -1.2669  0.0794 -0.1504
 9382SOL    HW229310   3.648   3.807   5.552  0.8283  0.0997  0.2680
 9383SOL     OW29311   8.148   1.482   4.133 -0.1820 -0.3679  0.2028
 9383SOL    HW129312   8.081   1.416   4.115  0.5561 -0.8353 -0.9179
 9383SOL    HW229313   8.212   1.436   4.188 -1.0240  0.2434  1.7621
 9384SOL     OW29314   0.032   6.557   3.470 -0.1966  0.8430  0.2990
 9384SOL    HW129315   0.048   6.523   3.382 -2.0080  1.0088 -0.1352
 9384SOL    HW229316   0.114   6.542   3.517  0.4662 -0.1747 -1.1180
 9385SOL     OW29317   1.616   1.548   1.736 -0.3435 -0.1341 -0.4303
 9385SOL    HW129318   1.562   1.476   1.703  0.5803 -0.5333 -1.1348
 9385SOL    HW229319   1.559   1.597   1.794 -1.3931 -0.6596 -0.9997
 9386SOL     OW29320   0.355   6.339   8.540  0.2357  0.2239 -0.6210
 9386SOL    HW129321   0.328   6.331   8.449 -1.3030 -0.1374 -0.1665
 9386SOL    HW229322   0.373   6.249   8.567  0.2078  0.2754 -0.4287
 9387SOL     OW29323   8.671   5.168   5.761 -0.1997  0.2977  0.4992
 9387SOL    HW129324   8.643   5.170   5.852 -1.4876  3.6371  0.1918
 9387SOL    HW229325   8.592   5.148   5.712  0.1438  0.0623  0.0338
 9388SOL     OW29326   1.641   0.081   2.901 -0.1354  0.0081  0.1814
 9388SOL    HW129327   1.620   0.007   2.957 -0.9900  0.7410  0.8606
 9388SOL    HW229328   1.598   0.156   2.943  1.5408  1.0778  0.0710
 9389SOL     OW29329   3.859   3.614   7.411 -0.6527 -0.4959 -0.2793
 9389SOL    HW129330   3.780   3.630   7.361 -0.6280  0.0687 -0.1463
 9389SOL    HW229331   3.903   3.542   7.365 -0.1665  0.6166 -1.5992
 9390SOL     OW29332   3.126   5.326   5.332  0.0013  0.3701 -0.5778
 9390SOL    HW129333   3.116   5.366   5.419 -0.2804 -0.7094 -0.0940
 9390SOL    HW229334   3.037   5.297   5.309  0.1321  0.3769 -1.0950
 9391SOL     OW29335   3.225   6.821   7.772 -0.2512 -0.3478  0.1856
 9391SOL    HW129336   3.286   6.754   7.801 -0.2582 -0.4221  0.0289
 9391SOL    HW229337   3.229   6.818   7.676 -0.2552 -0.1292  0.1769
 9392SOL     OW29338   3.498   1.293   6.434 -0.0682 -0.1932  0.3164
 9392SOL    HW129339   3.423   1.235   6.440 -0.7064  0.2402 -2.3453
 9392SOL    HW229340   3.560   1.247   6.377  1.3936 -0.1783  1.8048
 9393SOL     OW29341   8.224   3.408   7.796  0.5063 -0.0867  0.2547
 9393SOL    HW129342   8.256   3.326   7.757 -0.1616 -0.2483  0.0389
 9393SOL    HW229343   8.162   3.442   7.732 -1.5357 -0.9548  1.6744
 9394SOL     OW29344   0.754   6.029   6.112  0.5711 -0.5359 -0.2107
 9394SOL    HW129345   0.670   6.057   6.076  0.1308  0.1676  1.2801
 9394SOL    HW229346   0.734   5.947   6.157  0.9535 -0.9983 -0.8619
 9395SOL     OW29347   5.194   8.432   5.300  0.7749 -0.0037 -0.5393
 9395SOL    HW129348   5.211   8.526   5.299  1.7472 -0.1203  1.4317
 9395SOL    HW229349   5.207   8.405   5.391 -0.9894 -1.7994 -0.7339
 9396SOL     OW29350   7.675   3.516   6.433 -0.0663  0.7939  0.0802
 9396SOL    HW129351   7.727   3.592   6.405  1.5125  1.4840  4.1483
 9396SOL    HW229352   7.730   3.441   6.411  0.4298  1.1841 -0.0551
 9397SOL     OW29353   7.317   0.578   8.246 -0.1014 -0.1211  0.2812
 9397SOL    HW129354   7.238   0.544   8.286  0.4333 -0.3997  1.1154
 9397SOL    HW229355   7.339   0.514   8.178 -0.7816  0.1426 -0.1940
 9398SOL     OW29356   4.204   0.612   0.007 -0.2534 -0.9633 -0.3996
 9398SOL    HW129357   4.127   0.556   0.003 -1.5556  0.6863  0.4582
 9398SOL    HW229358   4.273   0.555   0.043 -1.3800 -2.1304 -0.0000
 9399SOL     OW29359   7.803   6.078   6.875  0.0979 -0.1047  0.6336
 9399SOL    HW129360   7.793   6.123   6.791  0.4764 -0.7520  0.2303
 9399SOL    HW229361   7.714   6.069   6.908 -0.0170  0.5905  0.5426
 9400SOL     OW29362   5.416   7.876   2.973 -0.9647 -0.1319  0.2000
 9400SOL    HW129363   5.469   7.857   3.051 -0.6002 -2.9589 -0.6276
 9400SOL    HW229364   5.338   7.920   3.007 -0.1772 -0.0089  1.9797
 9401SOL     OW29365   4.070   7.910   6.165  0.7054  0.3673  0.2557
 9401SOL    HW129366   4.015   7.833   6.181  1.0148 -0.2832 -1.5829
 9401SOL    HW229367   4.137   7.906   6.233  0.3748 -0.6606  0.5430
 9402SOL     OW29368   4.843   0.703   7.213 -0.3222 -0.2079 -0.2131
 9402SOL    HW129369   4.793   0.754   7.277 -0.1893 -1.6197  1.0680
 9402SOL    HW229370   4.862   0.765   7.142 -1.1771  1.1797  0.7298
 9403SOL     OW29371   8.293   8.583   7.525 -0.0398 -0.2293  0.2065
 9403SOL    HW129372   8.224   8.570   7.459 -0.9616  0.2546  1.0527
 9403SOL    HW229373   8.340   8.661   7.496 -0.7183  0.2359  0.3476
 9404SOL     OW29374   2.657   7.940   1.650 -0.4718 -0.5078 -0.6288
 9404SOL    HW129375   2.661   7.875   1.720 -0.7176 -3.9048 -3.4939
 9404SOL    HW229376   2.745   7.941   1.613 -0.5559  0.5961 -0.8447
 9405SOL     OW29377   0.362   7.482   1.211 -0.2250  0.3153  0.3089
 9405SOL    HW129378   0.441   7.526   1.180 -0.4033  0.1944 -0.3516
 9405SOL    HW229379   0.295   7.506   1.147 -0.0770 -1.7455 -0.7054
 9406SOL     OW29380   7.393   7.342   3.009 -0.1467  0.7330 -0.4508
 9406SOL    HW129381   7.371   7.268   3.066  0.3529 -0.1140 -1.3116
 9406SOL    HW229382   7.374   7.419   3.061  1.3065  0.0055  1.2901
 9407SOL     OW29383   0.966   1.070   3.550 -0.4746 -0.8966 -0.5912
 9407SOL    HW129384   1.052   1.109   3.563  0.1210 -1.4051 -2.6395
 9407SOL    HW229385   0.943   1.032   3.636  1.2927 -0.6915  0.0021
 9408SOL     OW29386   1.808   2.091   1.560 -0.2272  0.0481  0.1766
 9408SOL    HW129387   1.750   2.165   1.542 -1.4437 -0.6818  0.9572
 9408SOL    HW229388   1.750   2.016   1.566  0.8618 -0.7922  0.5150
 9409SOL     OW29389   3.175   4.242   4.581  0.1678 -0.4216 -0.4919
 9409SOL    HW129390   3.175   4.294   4.662  1.1461 -0.3535 -0.5134
 9409SOL    HW229391   3.133   4.298   4.516  1.0405  0.3003 -0.4693
 9410SOL     OW29392   1.201   3.543   8.074  0.2135 -0.2327 -0.3019
 9410SOL    HW129393   1.153   3.462   8.055 -0.5097  0.2017 -0.3685
 9410SOL    HW229394   1.149   3.612   8.033  0.4109  0.3483  0.4046
 9411SOL     OW29395   1.334   5.496   3.883 -0.4177 -0.5686 -0.4264
 9411SOL    HW129396   1.276   5.424   3.909 -0.5813 -0.0502  0.7469
 9411SOL    HW229397   1.356   5.539   3.966 -0.8493  1.1231 -1.1344
 9412SOL     OW29398   7.418   8.757   7.123 -0.6221 -0.2066 -0.0474
 9412SOL    HW129399   7.331   8.795   7.137 -0.2760  1.3106 -1.6375
 9412SOL    HW229400   7.417   8.728   7.032  0.7306  0.4489 -0.2920
 9413SOL     OW29401   2.389   0.953   6.244  0.2677  0.0414 -0.0196
 9413SOL    HW129402   2.386   1.038   6.287  1.2763 -0.6836  1.5932
 9413SOL    HW229403   2.299   0.922   6.245 -0.1442  1.1529 -0.8197
 9414SOL     OW29404   4.098   4.241   6.719 -0.2310 -0.2987  0.8432
 9414SOL    HW129405   4.015   4.204   6.691 -0.7927  2.2843 -1.3874
 9414SOL    HW229406   4.093   4.244   6.814 -2.5044 -0.6747  0.7866
 9415SOL     OW29407   4.829   1.223   0.461 -0.4310 -0.7936 -0.1354
 9415SOL    HW129408   4.851   1.247   0.551  0.0933 -0.6678 -0.2928
 9415SOL    HW229409   4.875   1.140   0.446  0.3167 -0.3137 -0.6045
 9416SOL     OW29410   5.372   1.499   1.291 -0.1012 -0.5859  0.6636
 9416SOL    HW129411   5.355   1.589   1.260  0.0127 -0.3162  1.3733
 9416SOL    HW229412   5.316   1.489   1.367 -1.9907 -2.0003 -0.8264
 9417SOL     OW29413   3.944   1.029   3.729  0.3691  0.3905  0.1964
 9417SOL    HW129414   3.944   1.012   3.823  0.2910  0.9583  0.3058
 9417SOL    HW229415   3.945   0.942   3.689  1.3582  0.1408  0.7148
 9418SOL     OW29416   6.423   8.827   5.312  1.0835  0.1301  0.5585
 9418SOL    HW129417   6.500   8.797   5.265  1.0700 -0.5927  0.9823
 9418SOL    HW229418   6.407   8.760   5.378  1.9185  1.7567  2.5444
 9419SOL     OW29419   1.955   1.935   4.848  0.6892  0.8049 -0.1769
 9419SOL    HW129420   1.864   1.964   4.840  0.1575 -0.6780  0.1642
 9419SOL    HW229421   2.004   1.991   4.787 -0.5240  1.3024 -0.7187
 9420SOL     OW29422   6.466   8.512   5.861  0.8214  0.3942 -0.4276
 9420SOL    HW129423   6.480   8.491   5.769  0.7835  0.0474 -0.3555
 9420SOL    HW229424   6.395   8.575   5.861 -0.1342 -0.6517 -0.5463
 9421SOL     OW29425   7.565   2.166   5.392 -0.0486 -0.3637  0.0380
 9421SOL    HW129426   7.583   2.257   5.414 -0.9656 -0.3081  0.6144
 9421SOL    HW229427   7.482   2.147   5.435  0.6215 -1.7786  0.7623
 9422SOL     OW29428   0.443   8.054   4.673 -0.3636  0.0167  0.0022
 9422SOL    HW129429   0.512   7.995   4.700 -0.2777 -0.3092 -0.9017
 9422SOL    HW229430   0.382   8.056   4.747  0.8415  0.7034  1.0150
 9423SOL     OW29431   8.250   8.766   7.752 -0.0539 -0.3786 -0.4185
 9423SOL    HW129432   8.345   8.763   7.766  0.2388 -0.2907 -2.1738
 9423SOL    HW229433   8.232   8.693   7.693 -1.1053 -0.4229 -0.0709
 9424SOL     OW29434   7.265   6.364   3.742  0.1606  0.2332 -0.8144
 9424SOL    HW129435   7.178   6.327   3.757  0.5034 -0.1225  0.4193
 9424SOL    HW229436   7.262   6.397   3.652 -1.1096 -0.1419 -0.9291
 9425SOL     OW29437   3.884   1.623   0.891  0.2702  0.5674  0.0337
 9425SOL    HW129438   3.831   1.611   0.970  1.5378 -0.5323  0.7622
 9425SOL    HW229439   3.954   1.559   0.899  1.7024  1.9232 -0.9139
 9426SOL     OW29440   3.071   1.980   7.613  0.2379  0.0376 -0.1623
 9426SOL    HW129441   3.116   1.904   7.577  1.2172  0.0348  1.0095
 9426SOL    HW229442   3.090   1.978   7.706  0.3374  1.7407 -0.1025
 9427SOL     OW29443   6.887   4.910   5.261 -0.4416 -0.0902 -0.1488
 9427SOL    HW129444   6.848   4.997   5.262  0.5385  0.3571  0.0254
 9427SOL    HW229445   6.852   4.868   5.340  0.7484  0.9190  0.9644
 9428SOL     OW29446   3.639   2.107   2.551  0.5942 -0.7035  0.2726
 9428SOL    HW129447   3.576   2.178   2.535  1.1591 -0.6640 -2.2360
 9428SOL    HW229448   3.619   2.041   2.485  1.2806 -2.0629  1.3667
 9429SOL     OW29449   5.841   1.855   8.546 -0.0061 -0.3155  0.5165
 9429SOL    HW129450   5.748   1.838   8.562 -0.1030 -0.1429  0.1433
 9429SOL    HW229451   5.882   1.769   8.552 -0.5292 -0.7676 -1.6293
 9430SOL     OW29452   7.608   5.530   0.847 -0.0185  0.4745  0.7379
 9430SOL    HW129453   7.679   5.517   0.909  0.6996  0.8466  0.0118
 9430SOL    HW229454   7.650   5.527   0.761 -0.7592  1.3888  0.3238
 9431SOL     OW29455   8.408   6.802   5.867  0.4849  0.0204 -0.1501
 9431SOL    HW129456   8.374   6.818   5.779  1.3310  2.8933 -0.0606
 9431SOL    HW229457   8.502   6.788   5.854  0.2530 -2.1199  0.1268
 9432SOL     OW29458   2.513   1.454   3.709  0.0213  0.0734 -0.4598
 9432SOL    HW129459   2.499   1.360   3.698 -0.2479  0.0770 -0.1642
 9432SOL    HW229460   2.550   1.462   3.797  0.6718  0.1847 -0.7379
 9433SOL     OW29461   2.487   1.130   0.518 -0.3941 -0.3671  0.4972
 9433SOL    HW129462   2.429   1.184   0.465  0.9061 -0.1286 -0.7319
 9433SOL    HW229463   2.560   1.108   0.460  0.8010 -0.5713  2.0059
 9434SOL     OW29464   2.847   0.814   8.116  0.2074  0.4182 -0.3239
 9434SOL    HW129465   2.791   0.886   8.086 -0.4426 -0.0997 -0.3643
 9434SOL    HW229466   2.870   0.838   8.205  0.5837  1.0283 -0.5793
 9435SOL     OW29467   8.175   8.688   1.999 -0.4191  0.1255  0.2292
 9435SOL    HW129468   8.224   8.628   1.943 -2.1675 -1.4374  0.2685
 9435SOL    HW229469   8.196   8.660   2.088 -2.0955 -1.2662  0.2447
 9436SOL     OW29470   5.686   4.842   0.646  0.0071  0.1438 -0.1365
 9436SOL    HW129471   5.752   4.902   0.682 -0.0284  0.4969 -0.6482
 9436SOL    HW229472   5.688   4.859   0.552  1.3654 -2.0247 -0.5721
 9437SOL     OW29473   8.447   4.476   5.547 -0.4446 -0.1525 -0.4182
 9437SOL    HW129474   8.506   4.459   5.620  1.1598  1.2694 -1.3156
 9437SOL    HW229475   8.492   4.440   5.470 -0.5067  1.3076 -1.1803
 9438SOL     OW29476   0.551   7.281   4.364 -0.0253  0.2303 -0.3653
 9438SOL    HW129477   0.527   7.284   4.271 -1.2699  0.7011 -0.0524
 9438SOL    HW229478   0.624   7.341   4.372 -0.9617  1.4638 -0.7697
 9439SOL     OW29479   7.699   5.837   5.639  0.4935 -0.1505 -0.4709
 9439SOL    HW129480   7.703   5.907   5.574  0.7268 -1.3684 -1.8484
 9439SOL    HW229481   7.647   5.768   5.596 -0.4131 -0.5188  1.1461
 9440SOL     OW29482   7.286   6.061   1.610 -0.1467  0.2981  0.0455
 9440SOL    HW129483   7.357   6.059   1.675 -1.0769  1.5736  1.1674
 9440SOL    HW229484   7.331   6.066   1.526  1.1665  2.5669  0.7831
 9441SOL     OW29485   6.486   6.515   8.337 -0.2081 -0.2142 -0.2958
 9441SOL    HW129486   6.566   6.562   8.316 -1.2484  1.8244  0.0239
 9441SOL    HW229487   6.493   6.496   8.431  0.0367 -0.3084 -0.3345
 9442SOL     OW29488   2.964   1.855   3.631  0.2040  0.0222 -0.2334
 9442SOL    HW129489   2.925   1.923   3.685 -0.4988  0.4412 -1.2551
 9442SOL    HW229490   2.992   1.788   3.694 -1.9116 -0.1867  0.5717
 9443SOL     OW29491   3.438   6.840   2.445 -0.5097  0.1270 -0.0973
 9443SOL    HW129492   3.381   6.888   2.505 -1.3661 -0.7392 -0.1957
 9443SOL    HW229493   3.400   6.854   2.359 -0.6909 -0.6061 -0.1429
 9444SOL     OW29494   4.265   0.332   2.673 -0.2765 -0.2504 -0.4369
 9444SOL    HW129495   4.254   0.245   2.711  1.8697 -0.2156  0.3687
 9444SOL    HW229496   4.346   0.327   2.623 -1.7832  0.4032 -3.1541
 9445SOL     OW29497   4.042   8.497   6.095 -0.1967  0.2559  0.2715
 9445SOL    HW129498   4.065   8.504   6.187  0.7798  0.9040 -0.0066
 9445SOL    HW229499   3.947   8.486   6.094 -0.1328 -0.5021  1.3758
 9446SOL     OW29500   6.414   6.733   5.402 -0.6841 -0.2092  0.1088
 9446SOL    HW129501   6.402   6.786   5.481 -0.7210 -0.1791  0.0827
 9446SOL    HW229502   6.476   6.665   5.429 -0.0838  0.2650 -0.0512
 9447SOL     OW29503   6.098   3.195   1.852  0.0847 -0.4038 -0.2160
 9447SOL    HW129504   6.137   3.253   1.787  1.0140 -2.7788 -1.9302
 9447SOL    HW229505   6.023   3.156   1.807 -1.2128  0.2539  1.2924
 9448SOL     OW29506   8.331   3.488   8.526 -0.1852 -0.1052 -0.2530
 9448SOL    HW129507   8.374   3.433   8.461 -2.3864 -0.2753 -1.6969
 9448SOL    HW229508   8.362   3.577   8.506 -0.9912 -0.1245 -1.7451
 9449SOL     OW29509   7.179   1.809   1.821 -0.2333  0.4009 -0.2275
 9449SOL    HW129510   7.093   1.832   1.786 -0.3417  1.9089  0.9663
 9449SOL    HW229511   7.240   1.833   1.752 -0.6675  0.5749 -0.5572
 9450SOL     OW29512   8.137   8.246   2.914  0.3092  0.5731  0.3059
 9450SOL    HW129513   8.207   8.234   2.850  0.2248 -1.4511  0.5200
 9450SOL    HW229514   8.159   8.185   2.985 -2.0195 -0.6959  0.0317
 9451SOL     OW29515   4.379   3.912   7.269 -0.0367 -0.3806  0.3990
 9451SOL    HW129516   4.422   3.848   7.326 -0.8397  0.1526  1.6501
 9451SOL    HW229517   4.344   3.860   7.197  1.8526 -0.9515 -0.1656
 9452SOL     OW29518   4.631   0.297   3.793  0.2419 -0.1011  0.1703
 9452SOL    HW129519   4.631   0.364   3.861 -2.8508  1.1688 -0.9314
 9452SOL    HW229520   4.640   0.345   3.711 -0.0175 -1.2331 -0.5452
 9453SOL     OW29521   3.036   8.389   8.605 -0.0622 -0.0505 -0.4553
 9453SOL    HW129522   2.985   8.357   8.531  1.4988 -0.5312 -1.3789
 9453SOL    HW229523   2.971   8.421   8.667 -1.4699 -0.7700 -1.4997
 9454SOL     OW29524   2.092   5.749   1.344  0.0475 -0.2054  0.1641
 9454SOL    HW129525   2.033   5.774   1.273 -0.0443 -2.8028 -0.7549
 9454SOL    HW229526   2.179   5.745   1.303  0.3127  0.1111  0.6784
 9455SOL     OW29527   0.013   1.058   4.395  0.4558 -0.1530 -0.0599
 9455SOL    HW129528  -0.012   1.062   4.303 -0.1980  0.6012  0.1394
 9455SOL    HW229529   0.095   1.008   4.396  1.9604  2.0913 -1.3631
 9456SOL     OW29530   5.270   4.121   1.105 -0.6178 -0.0835  0.1002
 9456SOL    HW129531   5.300   4.209   1.081  0.0494 -0.5868 -0.9546
 9456SOL    HW229532   5.286   4.068   1.028  0.5554 -1.5171  1.2639
 9457SOL     OW29533   5.517   4.478   5.016 -0.3798  0.2602  0.7350
 9457SOL    HW129534   5.423   4.474   4.994 -0.4630 -0.9585  1.2723
 9457SOL    HW229535   5.533   4.400   5.070  1.0645  0.1757  0.2192
 9458SOL     OW29536   7.814   8.498   0.949  0.3819  0.0021 -0.4761
 9458SOL    HW129537   7.845   8.485   1.038 -0.6271 -0.7195 -0.2179
 9458SOL    HW229538   7.890   8.530   0.901  0.8888  0.5625  0.6770
 9459SOL     OW29539   2.510   2.141   3.835  0.1748 -0.4241 -0.0173
 9459SOL    HW129540   2.527   2.221   3.884  2.4335 -0.9235  0.1420
 9459SOL    HW229541   2.489   2.075   3.901 -1.1972 -0.1003 -0.1106
 9460SOL     OW29542   1.760   1.687   3.310  0.3261  0.1856  0.3153
 9460SOL    HW129543   1.839   1.672   3.259  1.7865  1.9914  1.9202
 9460SOL    HW229544   1.700   1.730   3.248  0.7995 -0.6287 -0.7411
 9461SOL     OW29545   0.765   4.072   5.894  0.4531 -0.6863 -0.2939
 9461SOL    HW129546   0.836   4.055   5.832 -0.9946 -5.1818 -1.1637
 9461SOL    HW229547   0.807   4.070   5.980  2.1529  3.3194 -0.8512
 9462SOL     OW29548   3.603   1.750   6.103 -0.1376  0.2816  0.3485
 9462SOL    HW129549   3.604   1.838   6.066  1.4647 -0.8687 -2.8139
 9462SOL    HW229550   3.690   1.739   6.141  1.2132 -1.0040 -2.7007
 9463SOL     OW29551   0.214   3.684   1.730 -0.2291  0.5590  0.0341
 9463SOL    HW129552   0.219   3.690   1.826  0.2549  0.5711  0.0085
 9463SOL    HW229553   0.305   3.683   1.701 -0.3649  2.0453 -0.5181
 9464SOL     OW29554   7.225   6.029   4.945  0.1857 -0.0814  0.5850
 9464SOL    HW129555   7.148   6.029   5.001  0.3152 -1.8088  0.8026
 9464SOL    HW229556   7.223   6.115   4.902 -0.8355  0.6175  1.9424
 9465SOL     OW29557   1.064   3.835   4.921 -0.2090  0.1369 -0.4041
 9465SOL    HW129558   1.074   3.927   4.896  0.9898  0.1307  0.0152
 9465SOL    HW229559   1.033   3.792   4.841 -2.8469  1.2264 -0.0764
 9466SOL     OW29560   8.092   2.705   4.033 -0.5767  0.4690  0.1898
 9466SOL    HW129561   8.154   2.707   4.106 -0.8845  0.5286  0.4495
 9466SOL    HW229562   8.145   2.677   3.958 -0.4902 -0.6781  0.6523
 9467SOL     OW29563   0.112   4.726   8.242 -0.2533  0.3172  0.1989
 9467SOL    HW129564   0.087   4.809   8.201 -1.4261 -0.6004 -1.0333
 9467SOL    HW229565   0.159   4.679   8.173  0.2400 -0.1188  0.8265
 9468SOL     OW29566   1.363   6.826   7.836  0.3645 -0.7189 -0.3728
 9468SOL    HW129567   1.414   6.750   7.808  2.2783 -0.9328  3.0536
 9468SOL    HW229568   1.418   6.869   7.901 -2.1734  1.5127  0.4925
 9469SOL     OW29569   6.132   0.425   2.923 -0.6775  0.0704  0.2373
 9469SOL    HW129570   6.147   0.516   2.950 -1.2369  0.0546  0.6125
 9469SOL    HW229571   6.181   0.373   2.985  0.3323  0.1382 -0.4782
 9470SOL     OW29572   2.196   7.990   3.106 -0.4200 -0.0235  0.6954
 9470SOL    HW129573   2.159   7.972   3.019 -0.7465 -1.8934  1.1807
 9470SOL    HW229574   2.263   8.056   3.090 -0.1933 -0.6238 -1.0388
 9471SOL     OW29575   5.879   5.497   7.405 -0.0995  0.3559  0.4157
 9471SOL    HW129576   5.931   5.442   7.464  0.7918  0.4356 -0.2608
 9471SOL    HW229577   5.827   5.435   7.353 -0.2169  0.2383  0.6728
 9472SOL     OW29578   4.959   6.996   8.335 -0.0531 -0.5178 -0.2319
 9472SOL    HW129579   4.930   6.976   8.424  2.7867 -0.5033  0.8047
 9472SOL    HW229580   4.878   7.009   8.285 -1.7398 -1.2754  2.1518
 9473SOL     OW29581   1.681   2.702   0.699  0.2471  0.1669 -0.0987
 9473SOL    HW129582   1.596   2.745   0.688 -1.6102 -3.0752  0.0693
 9473SOL    HW229583   1.699   2.663   0.613  0.0455 -1.5550  0.5965
 9474SOL     OW29584   6.554   7.977   3.608 -0.0801 -0.1048 -0.1270
 9474SOL    HW129585   6.518   8.062   3.581 -0.0036 -0.4542 -1.4281
 9474SOL    HW229586   6.497   7.948   3.678 -0.7269  0.5647 -0.3616
 9475SOL     OW29587   0.584   7.030   4.019  0.3005  0.4432 -0.3799
 9475SOL    HW129588   0.538   7.097   3.968  0.9423  1.1003 -0.0998
 9475SOL    HW229589   0.671   7.066   4.034  0.6561 -0.4499 -0.2130
 9476SOL     OW29590   1.340   5.099   8.543 -0.1664  0.0925 -0.0566
 9476SOL    HW129591   1.372   5.174   8.493  0.9193  0.0577  0.5432
 9476SOL    HW229592   1.418   5.048   8.562 -0.5210  0.1247  1.6863
 9477SOL     OW29593   6.880   1.051   2.494 -0.6779  0.0871 -0.1219
 9477SOL    HW129594   6.806   1.088   2.444 -0.3437  1.4653  0.3529
 9477SOL    HW229595   6.943   1.025   2.428 -0.8618  0.5366 -0.4821
 9478SOL     OW29596   6.158   1.062   3.036  0.0491  0.9470 -0.3511
 9478SOL    HW129597   6.084   1.110   3.074 -1.1329 -0.7425 -0.4104
 9478SOL    HW229598   6.118   0.987   2.993  1.8307 -0.0984 -0.2667
 9479SOL     OW29599   4.528   8.636   3.274 -0.5472 -0.4126  0.0465
 9479SOL    HW129600   4.550   8.702   3.208 -0.5331 -0.3384  0.1258
 9479SOL    HW229601   4.601   8.639   3.336 -1.4618  0.8640  1.1163
 9480SOL     OW29602   3.894   5.206   6.986 -0.0609 -0.0198 -0.1393
 9480SOL    HW129603   3.811   5.162   7.004  0.0507 -0.1949 -0.0525
 9480SOL    HW229604   3.944   5.195   7.067  0.3648 -0.6305 -0.4780
 9481SOL     OW29605   8.696   7.740   7.087 -0.0251 -0.1869  0.2371
 9481SOL    HW129606   8.721   7.647   7.085 -0.6670 -0.3603  0.1306
 9481SOL    HW229607   8.742   7.776   7.162  2.3404  0.0140 -1.1933
 9482SOL     OW29608   3.346   0.145   4.561 -0.0079 -0.7403  0.1585
 9482SOL    HW129609   3.378   0.153   4.471  2.4619  0.3902  1.0401
 9482SOL    HW229610   3.367   0.055   4.586  1.3552 -0.4179  0.2643
 9483SOL     OW29611   2.702   0.573   0.883  0.1279  0.3995 -0.4769
 9483SOL    HW129612   2.682   0.497   0.829 -0.3588  0.7835 -0.8469
 9483SOL    HW229613   2.715   0.536   0.971 -0.5533 -0.0692 -0.5556
 9484SOL     OW29614   8.857   5.976   3.179 -0.1898 -0.4597  0.5688
 9484SOL    HW129615   8.866   6.071   3.186 -2.4434 -0.1726  0.1091
 9484SOL    HW229616   8.771   5.957   3.214  0.0508 -2.3077  0.2489
 9485SOL     OW29617   4.769   1.096   5.012 -0.5189  0.2896  0.4093
 9485SOL    HW129618   4.791   1.119   5.103  2.3158  0.8684 -0.3113
 9485SOL    HW229619   4.739   1.178   4.974  1.3624  0.8771  0.0690
 9486SOL     OW29620   8.560   4.642   3.367 -0.1969 -0.4716 -0.8532
 9486SOL    HW129621   8.487   4.585   3.344 -1.4020 -0.5092  2.5064
 9486SOL    HW229622   8.528   4.731   3.354 -2.1858 -0.3419  3.3942
 9487SOL     OW29623   2.476   0.804   0.910  0.3564 -0.1024 -0.6727
 9487SOL    HW129624   2.414   0.731   0.903  0.4068 -0.3459  0.9207
 9487SOL    HW229625   2.562   0.763   0.911  0.3681 -0.0915  0.6453
 9488SOL     OW29626   7.138   0.046   3.250  0.7633 -0.0454 -0.7870
 9488SOL    HW129627   7.203   0.114   3.234  0.5483 -0.1804 -2.3954
 9488SOL    HW229628   7.114   0.057   3.342  1.6408  1.2320 -0.6836
 9489SOL     OW29629   3.727   8.490   6.054  0.2010  0.3035 -0.3756
 9489SOL    HW129630   3.633   8.475   6.045  0.3604 -0.3151 -1.1398
 9489SOL    HW229631   3.751   8.538   5.975  0.9128 -1.5611 -1.3400
 9490SOL     OW29632   3.062   0.463   5.681 -0.4979  0.0657 -0.2486
 9490SOL    HW129633   3.081   0.482   5.590 -2.1183 -0.4774 -0.7260
 9490SOL    HW229634   3.147   0.438   5.719  0.1802  0.2652 -1.5925
 9491SOL     OW29635   8.824   8.862   6.384  0.6401 -0.3561 -0.1098
 9491SOL    HW129636   8.901   8.917   6.371  0.6992 -0.4463 -0.1486
 9491SOL    HW229637   8.821   8.846   6.478  0.2467  0.2508 -0.0157
 9492SOL     OW29638   7.636   7.848   4.916 -0.0740  0.0595 -0.4867
 9492SOL    HW129639   7.585   7.885   4.844  1.8468  1.3049 -1.2677
 9492SOL    HW229640   7.649   7.921   4.977  0.2342 -0.4131  0.0265
 9493SOL     OW29641   0.612   1.884   6.545  0.1327 -0.0901 -0.3784
 9493SOL    HW129642   0.579   1.812   6.491  1.7713  1.7237 -4.1740
 9493SOL    HW229643   0.707   1.872   6.545  0.4380  1.9696 -1.0908
 9494SOL     OW29644   8.350   3.358   8.146 -0.0436  0.2923  0.3354
 9494SOL    HW129645   8.289   3.364   8.219 -0.3206  1.2732  0.0416
 9494SOL    HW229646   8.336   3.439   8.096  1.0419  0.2427 -0.0900
 9495SOL     OW29647   7.901   2.178   6.384 -0.3191 -0.0970 -0.4721
 9495SOL    HW129648   7.871   2.231   6.310 -1.3129 -0.8550 -0.6373
 9495SOL    HW229649   7.846   2.206   6.457  0.2382  0.2102 -0.1609
 9496SOL     OW29650   4.843   1.173   2.365  0.5009  0.0003 -0.1677
 9496SOL    HW129651   4.912   1.133   2.313  1.1306 -0.0602  0.6888
 9496SOL    HW229652   4.847   1.127   2.449 -0.8931 -0.3252 -0.2591
 9497SOL     OW29653   2.875   7.644   4.611  0.2507 -0.2456 -0.3467
 9497SOL    HW129654   2.932   7.581   4.566  1.1269  0.5658 -0.4109
 9497SOL    HW229655   2.881   7.724   4.558 -0.6483 -0.0281 -0.1349
 9498SOL     OW29656   8.405   3.461   7.307  0.2720  0.4247  0.8009
 9498SOL    HW129657   8.452   3.544   7.315 -0.2746  0.8997 -0.5387
 9498SOL    HW229658   8.463   3.397   7.349  0.5977  1.4964  2.0750
 9499SOL     OW29659   2.302   2.696   6.443 -0.0790  0.0455 -0.1247
 9499SOL    HW129660   2.229   2.685   6.382 -1.1071  1.5583  0.7663
 9499SOL    HW229661   2.312   2.790   6.452  2.2807 -0.1080 -0.5099
 9500SOL     OW29662   3.904   6.780   3.287 -0.6117 -0.2652 -0.0747
 9500SOL    HW129663   3.830   6.772   3.346 -1.2988  0.4969 -0.8107
 9500SOL    HW229664   3.979   6.795   3.344 -1.2242  0.2343  0.6207
 9501SOL     OW29665   5.741   1.592   2.222  0.1853  0.3944 -0.5188
 9501SOL    HW129666   5.780   1.611   2.308  1.2663 -0.2290 -0.8507
 9501SOL    HW229667   5.694   1.509   2.235  2.9935 -1.4557 -1.2365
 9502SOL     OW29668   6.008   6.627   1.015  0.0159 -0.3548 -0.4931
 9502SOL    HW129669   5.958   6.646   1.094 -0.7497 -3.2254 -0.1596
 9502SOL    HW229670   5.951   6.570   0.964  2.0218 -1.8961 -1.1573
 9503SOL     OW29671   0.737   1.810   2.510  0.3486  0.1049 -0.1818
 9503SOL    HW129672   0.748   1.780   2.419  0.1819  0.0375 -0.1810
 9503SOL    HW229673   0.665   1.757   2.543  0.8483 -0.3379  0.2029
 9504SOL     OW29674   5.294   2.145   7.305  0.3617 -0.5638 -0.7199
 9504SOL    HW129675   5.385   2.116   7.301  0.0744 -1.5005 -0.8014
 9504SOL    HW229676   5.282   2.197   7.225  1.2582  0.9500  0.0911
 9505SOL     OW29677   1.640   2.652   2.311  0.3397 -0.0856 -0.2175
 9505SOL    HW129678   1.640   2.614   2.224  1.7344 -0.6144 -0.0205
 9505SOL    HW229679   1.686   2.736   2.301 -0.8425  0.5670 -0.2605
 9506SOL     OW29680   0.546   7.358   5.781 -0.1809 -0.3284  0.2479
 9506SOL    HW129681   0.533   7.275   5.827  0.8355 -0.3065  0.5849
 9506SOL    HW229682   0.477   7.415   5.815  0.2350 -0.4733  1.3857
 9507SOL     OW29683   1.041   2.686   2.535 -0.3882 -0.3692 -0.0069
 9507SOL    HW129684   0.954   2.656   2.559 -1.0571  0.6826 -1.0458
 9507SOL    HW229685   1.086   2.699   2.619 -0.7137 -2.3168  0.5098
 9508SOL     OW29686   3.217   7.574   0.484  0.3303 -0.5223 -0.0545
 9508SOL    HW129687   3.250   7.635   0.418  2.0212  1.8356  2.7084
 9508SOL    HW229688   3.130   7.608   0.507  1.0348  0.6212  1.0701
 9509SOL     OW29689   0.384   4.263   5.822  0.1956 -0.5976  0.1042
 9509SOL    HW129690   0.342   4.333   5.772 -1.2144 -1.7122 -0.3536
 9509SOL    HW229691   0.461   4.240   5.771 -0.3021 -0.5685 -0.6753
 9510SOL     OW29692   6.039   8.253   3.738 -0.7005 -0.5214  0.3037
 9510SOL    HW129693   5.979   8.328   3.740  1.4407  1.2957  1.8474
 9510SOL    HW229694   6.069   8.250   3.647  1.8809  3.0252  0.7855
 9511SOL     OW29695   5.862   4.091   3.724  0.1299 -0.7287 -0.5904
 9511SOL    HW129696   5.854   4.123   3.634 -2.9538 -3.0900 -1.3206
 9511SOL    HW229697   5.941   4.037   3.723  1.1115  0.6410 -1.3376
 9512SOL     OW29698   5.779   7.562   7.950  0.1852 -0.0616  0.2989
 9512SOL    HW129699   5.788   7.638   8.006 -1.9000 -1.0258  2.1072
 9512SOL    HW229700   5.694   7.524   7.974  0.6970 -2.3982 -1.1980
 9513SOL     OW29701   8.501   0.242   1.009 -0.4642  0.0815  0.4907
 9513SOL    HW129702   8.453   0.295   0.946 -0.8738  0.0705  0.7894
 9513SOL    HW229703   8.588   0.281   1.012 -0.0517 -0.6591 -0.9867
 9514SOL     OW29704   2.539   4.351   0.536  0.3853 -0.0181 -0.0616
 9514SOL    HW129705   2.597   4.275   0.543  1.1422  0.5728  0.3326
 9514SOL    HW229706   2.542   4.376   0.444 -1.7825 -1.8940 -0.7166
 9515SOL     OW29707   3.968   4.124   0.723  0.1203  0.7814  0.2056
 9515SOL    HW129708   3.975   4.218   0.706  0.0481  0.9855  1.2110
 9515SOL    HW229709   3.986   4.116   0.817 -0.1576 -0.1756  0.1830
 9516SOL     OW29710   1.795   6.311   7.511 -0.8939 -0.0196 -0.1040
 9516SOL    HW129711   1.764   6.307   7.602  0.8732 -0.4813  0.5181
 9516SOL    HW229712   1.837   6.397   7.504 -0.5677 -0.1947 -0.3238
 9517SOL     OW29713   6.896   6.301   2.097  0.8494 -0.4111  0.0394
 9517SOL    HW129714   6.920   6.383   2.053 -0.6213 -0.5699 -1.1459
 9517SOL    HW229715   6.959   6.237   2.065  0.5387 -0.2477 -0.9470
 9518SOL     OW29716   6.824   6.578   2.379  0.8092  0.1809 -0.0598
 9518SOL    HW129717   6.740   6.556   2.421  1.1099 -2.0220 -0.5101
 9518SOL    HW229718   6.801   6.601   2.289  0.6681 -0.2834 -0.1434
 9519SOL     OW29719   8.441   4.188   7.296 -0.1565 -0.3554  0.3909
 9519SOL    HW129720   8.517   4.163   7.348  1.1684  3.3427  0.4789
 9519SOL    HW229721   8.393   4.250   7.351  0.2456  2.1900 -1.9360
 9520SOL     OW29722   3.284   2.022   6.082 -0.1964  0.0618  0.5717
 9520SOL    HW129723   3.338   2.090   6.123 -1.4995  1.5528 -0.0508
 9520SOL    HW229724   3.335   1.994   6.006  0.5190  0.1012  1.0322
 9521SOL     OW29725   0.164   8.768   2.628  0.2228 -0.4335  0.2982
 9521SOL    HW129726   0.209   8.852   2.616 -0.7792  0.1703  0.6177
 9521SOL    HW229727   0.181   8.720   2.547  0.4724  0.2428 -0.0611
 9522SOL     OW29728   0.744   3.726   3.384 -0.0087  0.9869  0.3294
 9522SOL    HW129729   0.792   3.804   3.410  0.8653  1.4118 -2.2829
 9522SOL    HW229730   0.717   3.743   3.294 -0.6879 -1.3248  0.0270
 9523SOL     OW29731   5.578   4.987   2.423 -0.2322  0.4828  0.1116
 9523SOL    HW129732   5.625   5.062   2.386 -0.1075  0.1695 -0.3883
 9523SOL    HW229733   5.580   4.922   2.352  0.2433 -0.2322  0.7692
 9524SOL     OW29734   8.457   1.433   4.335 -0.6724 -0.1605  0.0401
 9524SOL    HW129735   8.483   1.524   4.351  1.0134 -0.8345  1.5667
 9524SOL    HW229736   8.501   1.409   4.253 -1.1744  0.4033 -0.4007
 9525SOL     OW29737   3.913   4.239   7.014  0.1749 -0.1085  0.1338
 9525SOL    HW129738   3.891   4.298   7.086 -0.3317  1.0359 -0.9185
 9525SOL    HW229739   4.006   4.256   6.997  0.0261  0.4214 -0.1786
 9526SOL     OW29740   4.124   1.702   6.258  0.4253 -0.3404  0.8940
 9526SOL    HW129741   4.153   1.666   6.342  0.4302 -0.0352  1.0205
 9526SOL    HW229742   4.205   1.718   6.210  0.4210 -0.5432  0.8178
 9527SOL     OW29743   2.899   2.385   0.679  0.6004  0.5529 -0.5084
 9527SOL    HW129744   2.851   2.380   0.596 -0.2453 -0.6174  0.0258
 9527SOL    HW229745   2.858   2.319   0.734  1.1280  1.3470  0.8707
 9528SOL     OW29746   0.843   6.383   7.592 -0.3372  0.5385 -0.1784
 9528SOL    HW129747   0.913   6.317   7.589  0.3526  1.2700 -0.5674
 9528SOL    HW229748   0.773   6.341   7.642  0.3916 -0.1964  0.2573
 9529SOL     OW29749   5.478   0.558   5.203  0.3939 -1.0891 -0.6806
 9529SOL    HW129750   5.488   0.483   5.144  1.3126 -1.4338 -0.1216
 9529SOL    HW229751   5.546   0.544   5.270  0.1957 -0.0571 -0.2507
 9530SOL     OW29752   3.206   6.568   5.724 -0.2736 -0.2367  0.2861
 9530SOL    HW129753   3.250   6.495   5.768  0.0380  0.1281  0.5816
 9530SOL    HW229754   3.167   6.528   5.646  0.4449 -0.5975  0.0982
 9531SOL     OW29755   6.872   7.009   1.177  0.3814  0.3146  0.1376
 9531SOL    HW129756   6.868   7.088   1.123  1.5208  0.0714 -0.3230
 9531SOL    HW229757   6.820   6.945   1.128 -0.8473  0.8567  0.6887
 9532SOL     OW29758   8.315   7.399   4.574  0.0073  0.2830  0.3292
 9532SOL    HW129759   8.355   7.315   4.550 -2.3938 -1.3676  1.6833
 9532SOL    HW229760   8.332   7.408   4.668 -0.9068  0.6325  0.4715
 9533SOL     OW29761   4.497   3.005   1.433 -0.3139  0.4210  0.5356
 9533SOL    HW129762   4.477   3.097   1.416  2.1094  1.1877  1.5399
 9533SOL    HW229763   4.518   2.969   1.347 -0.1421  1.0935  0.2900
 9534SOL     OW29764   2.611   7.441   8.432  0.0046  0.1708 -0.8567
 9534SOL    HW129765   2.578   7.433   8.522  3.1207 -1.2276  0.3258
 9534SOL    HW229766   2.654   7.527   8.430 -0.6420  0.4949 -1.2722
 9535SOL     OW29767   4.390   6.078   3.329 -0.1395  0.1326  0.0231
 9535SOL    HW129768   4.477   6.039   3.340  0.2592  0.6378 -1.1682
 9535SOL    HW229769   4.336   6.036   3.396  1.2152  0.4411  1.3572
 9536SOL     OW29770   0.494   7.922   2.144  0.2060 -0.4346 -0.5927
 9536SOL    HW129771   0.452   7.921   2.230  0.1370  0.4245 -0.6020
 9536SOL    HW229772   0.534   8.009   2.138  2.0679 -1.2491 -0.5521
 9537SOL     OW29773   1.308   4.967   3.651 -0.2167  0.2010 -0.5544
 9537SOL    HW129774   1.213   4.979   3.648  0.0062  2.1759 -2.1891
 9537SOL    HW229775   1.324   4.889   3.597 -0.9631 -1.1952  1.1348
 9538SOL     OW29776   2.882   3.678   4.562 -0.6686 -0.0319 -0.5174
 9538SOL    HW129777   2.832   3.609   4.605  0.4443  0.1645  1.1820
 9538SOL    HW229778   2.973   3.654   4.576 -0.2664  1.4800 -0.3856
 9539SOL     OW29779   6.088   2.321   0.424 -0.4155  0.5195 -0.3383
 9539SOL    HW129780   6.022   2.337   0.491  1.3322  0.2776  1.5237
 9539SOL    HW229781   6.105   2.408   0.386  0.8411  1.2786  1.7960
 9540SOL     OW29782   5.918   2.612   7.088 -0.2444  0.0599  0.0394
 9540SOL    HW129783   5.927   2.685   7.150 -1.6929 -0.2820  0.6969
 9540SOL    HW229784   5.990   2.625   7.026  2.0360 -0.2444  2.4215
 9541SOL     OW29785   1.699   3.281   7.977 -0.2670 -0.5824 -0.5927
 9541SOL    HW129786   1.686   3.223   8.052  1.1305 -1.6386 -1.1268
 9541SOL    HW229787   1.721   3.223   7.904  0.1197  0.5364 -1.4044
 9542SOL     OW29788   5.444   5.351   8.470  1.2308  0.1797 -0.6377
 9542SOL    HW129789   5.473   5.442   8.483 -0.3554  0.7437 -0.8582
 9542SOL    HW229790   5.396   5.353   8.387 -0.6727 -0.3510  0.3826
 9543SOL     OW29791   4.585   7.027   7.015 -0.1796 -0.6466  0.2778
 9543SOL    HW129792   4.678   7.004   7.013 -0.4622 -1.9656  1.0750
 9543SOL    HW229793   4.568   7.066   6.929  0.9349 -1.0937 -0.1674
 9544SOL     OW29794   0.571   1.517   8.041  0.3337  0.2330 -0.3877
 9544SOL    HW129795   0.547   1.609   8.045 -2.6096 -0.4330 -0.0326
 9544SOL    HW229796   0.515   1.481   7.972  1.8036 -1.2164 -0.8893
 9545SOL     OW29797   4.260   8.074   7.321  0.1165  0.1127  0.0562
 9545SOL    HW129798   4.181   8.047   7.368  0.0548 -1.2218 -0.7449
 9545SOL    HW229799   4.328   8.015   7.353  0.7175  1.0071  0.4656
 9546SOL     OW29800   6.094   7.126   3.393 -0.3305 -0.0185  0.3969
 9546SOL    HW129801   6.175   7.149   3.347 -0.6014 -0.1496 -0.1414
 9546SOL    HW229802   6.029   7.187   3.359 -0.7899 -0.8435 -0.2173
 9547SOL     OW29803   7.668   1.874   2.817 -0.1742 -0.2193 -0.2202
 9547SOL    HW129804   7.758   1.875   2.786 -0.0598  0.1358  0.1236
 9547SOL    HW229805   7.646   1.966   2.833 -0.5823 -0.3058 -0.2706
 9548SOL     OW29806   2.597   6.079   5.063  0.1310  0.7267  0.2664
 9548SOL    HW129807   2.663   6.142   5.091 -0.0784  0.4740  1.3814
 9548SOL    HW229808   2.609   6.072   4.968  1.7714  0.6065  0.4520
 9549SOL     OW29809   6.810   8.737   5.578  0.1178  0.7093  0.1704
 9549SOL    HW129810   6.823   8.764   5.669 -1.2826 -1.9200  1.2492
 9549SOL    HW229811   6.717   8.717   5.572  0.4393 -0.4941 -1.4562
 9550SOL     OW29812   1.296   1.699   6.860  0.7187  0.5683  0.2722
 9550SOL    HW129813   1.357   1.772   6.860  2.1244 -0.5559 -0.2026
 9550SOL    HW229814   1.347   1.625   6.826 -0.9330 -0.4023 -0.2233
 9551SOL     OW29815   8.322   8.235   7.155 -0.3838 -0.0220  0.0255
 9551SOL    HW129816   8.302   8.188   7.235 -0.7944  1.1432  0.6249
 9551SOL    HW229817   8.240   8.277   7.130  0.4024  2.0133  0.6353
 9552SOL     OW29818   8.379   1.041   8.861  0.0540  0.2515  0.0287
 9552SOL    HW129819   8.339   1.093   8.791  1.0274 -0.4174 -1.0553
 9552SOL    HW229820   8.332   1.068   8.940 -0.2771  1.8912 -0.6788
 9553SOL     OW29821   7.918   3.626   1.343  0.0918  0.2126 -0.3360
 9553SOL    HW129822   7.997   3.681   1.350 -0.5910  1.4455 -1.6908
 9553SOL    HW229823   7.852   3.673   1.394 -0.3187  0.3247 -0.9607
 9554SOL     OW29824   5.903   4.199   1.620  0.5752 -0.2151  0.1091
 9554SOL    HW129825   5.855   4.280   1.602 -0.8826 -0.9285  0.6896
 9554SOL    HW229826   5.893   4.185   1.714  1.8462 -0.4473  0.2296
 9555SOL     OW29827   6.294   2.076   6.980 -0.2681 -0.3464  0.1378
 9555SOL    HW129828   6.226   2.017   7.012 -1.3236  1.0158  0.4974
 9555SOL    HW229829   6.349   2.093   7.056 -1.0407  0.5529  0.5127
 9556SOL     OW29830   6.925   8.423   7.407  0.1765 -0.0621 -0.0660
 9556SOL    HW129831   7.003   8.462   7.367  2.2314 -4.0772 -0.5053
 9556SOL    HW229832   6.859   8.426   7.338  1.3847 -0.4272 -1.2868
 9557SOL     OW29833   7.772   7.315   1.247  0.0397 -0.5593 -0.0694
 9557SOL    HW129834   7.757   7.318   1.153  1.3085 -1.2855 -0.3163
 9557SOL    HW229835   7.864   7.336   1.258  0.0150 -0.9144  0.9792
 9558SOL     OW29836   5.877   0.093   7.620  0.2351 -0.4735 -0.0591
 9558SOL    HW129837   5.872   0.125   7.710 -0.6000 -3.5605  1.1306
 9558SOL    HW229838   5.967   0.109   7.594  0.5199  0.4296  1.3452
 9559SOL     OW29839   2.890   0.592   6.174 -0.0084 -0.3090  0.1041
 9559SOL    HW129840   2.822   0.570   6.111 -0.4920 -0.4235  0.6549
 9559SOL    HW229841   2.847   0.585   6.260  1.1303 -2.0727  0.5895
 9560SOL     OW29842   5.769   2.485   8.420  0.0016  0.3978  0.0257
 9560SOL    HW129843   5.684   2.524   8.399 -0.8397 -0.4575  1.6617
 9560SOL    HW229844   5.749   2.392   8.434  1.5883 -0.2594 -1.6537
 9561SOL     OW29845   5.009   0.923   0.148 -0.6656 -0.8426 -0.3860
 9561SOL    HW129846   4.972   0.924   0.060  0.1971  0.0718 -0.7596
 9561SOL    HW229847   5.068   0.847   0.149  0.9342  0.3191 -1.3284
 9562SOL     OW29848   4.967   1.000   2.983  0.5668  0.3278  0.5236
 9562SOL    HW129849   4.897   1.065   2.986  0.7274  0.6368 -1.3316
 9562SOL    HW229850   5.047   1.050   2.999  0.8644  0.9744 -2.4099
 9563SOL     OW29851   3.027   8.413   5.704  0.2379 -0.3368 -0.3076
 9563SOL    HW129852   3.062   8.438   5.618 -2.5228  0.6369 -1.2509
 9563SOL    HW229853   3.091   8.351   5.738  1.6364 -0.4727 -2.8907
 9564SOL     OW29854   1.440   8.494   8.497  0.2672 -0.1540  0.3754
 9564SOL    HW129855   1.458   8.402   8.476 -0.2409  0.0299 -0.9073
 9564SOL    HW229856   1.516   8.522   8.547  0.6113 -1.1562  0.4466
 9565SOL     OW29857   1.401   8.529   6.854  0.6273 -0.5754  0.4027
 9565SOL    HW129858   1.418   8.437   6.832 -1.7747 -1.1617  0.6803
 9565SOL    HW229859   1.446   8.578   6.785 -1.0452 -2.1337 -1.9828
 9566SOL     OW29860   8.474   5.410   3.596 -0.2278  0.5412 -0.3306
 9566SOL    HW129861   8.470   5.460   3.514  0.9334 -0.4707 -1.0409
 9566SOL    HW229862   8.488   5.320   3.568 -0.3625  0.0937  0.9838
 9567SOL     OW29863   1.094   6.386   5.637  0.3166 -0.4524  0.6635
 9567SOL    HW129864   1.129   6.322   5.576  0.6701  0.3507  0.0111
 9567SOL    HW229865   1.021   6.428   5.591 -0.6314 -1.1235  1.4908
 9568SOL     OW29866   6.687   4.339   5.720 -0.1428 -0.3198  0.1180
 9568SOL    HW129867   6.767   4.391   5.711 -0.1018 -0.1500  1.3118
 9568SOL    HW229868   6.618   4.393   5.681 -0.1029  0.6714  1.3571
 9569SOL     OW29869   3.632   2.635   4.730  0.5894  0.5554 -0.4050
 9569SOL    HW129870   3.612   2.726   4.750 -1.8644  0.1929 -0.8921
 9569SOL    HW229871   3.699   2.610   4.794 -1.0052  1.7904  1.8711
 9570SOL     OW29872   4.832   5.631   5.629  0.0733 -0.4075  0.0923
 9570SOL    HW129873   4.796   5.543   5.638  2.0827 -1.3652 -0.4824
 9570SOL    HW229874   4.812   5.656   5.538  0.2674 -0.6668 -0.0251
 9571SOL     OW29875   3.164   8.518   6.815  0.2592  0.0550  0.4716
 9571SOL    HW129876   3.153   8.442   6.873 -0.1759  2.4348  3.7878
 9571SOL    HW229877   3.257   8.520   6.796 -0.0530 -2.7995 -2.0853
 9572SOL     OW29878   2.533   5.291   4.013 -0.1018  0.2354 -0.2695
 9572SOL    HW129879   2.520   5.370   3.960  0.5441 -0.4256 -1.4282
 9572SOL    HW229880   2.447   5.250   4.016 -0.8569  1.7681  1.6982
 9573SOL     OW29881   6.130   0.238   6.717 -0.2040  0.1565  0.5082
 9573SOL    HW129882   6.152   0.229   6.810  0.3850  0.4301  0.4030
 9573SOL    HW229883   6.207   0.204   6.671 -0.8852 -0.9123  0.1102
 9574SOL     OW29884   7.720   8.037   3.779  0.0251 -0.5983  0.0678
 9574SOL    HW129885   7.716   8.103   3.710  1.0096 -1.3083 -0.7047
 9574SOL    HW229886   7.641   7.985   3.767  0.6443 -1.3257 -1.2094
 9575SOL     OW29887   6.085   0.964   0.507  0.3597 -0.7363  0.1471
 9575SOL    HW129888   6.059   0.996   0.593 -0.0526  1.5809 -0.7491
 9575SOL    HW229889   6.166   0.916   0.522  0.7220  0.3019  1.7243
 9576SOL     OW29890   7.357   7.251   2.755 -0.0193  0.0937  0.1970
 9576SOL    HW129891   7.419   7.295   2.697  0.2337 -0.7908 -0.2149
 9576SOL    HW229892   7.380   7.282   2.843  0.8594 -0.0387  0.0228
 9577SOL     OW29893   2.756   1.686   2.503 -0.0031 -0.2399  0.2617
 9577SOL    HW129894   2.824   1.693   2.435  0.6288  0.8108  0.9872
 9577SOL    HW229895   2.804   1.682   2.585 -0.7790  2.9191  1.0157
 9578SOL     OW29896   5.222   4.471   2.823 -0.1830  0.0845 -0.1725
 9578SOL    HW129897   5.256   4.412   2.756 -1.3378 -2.1397  1.0572
 9578SOL    HW229898   5.134   4.494   2.793 -0.3191 -0.1063  0.0683
 9579SOL     OW29899   5.934   2.723   5.815  0.5281  0.2801  0.0948
 9579SOL    HW129900   5.864   2.667   5.849  0.5466 -0.2121 -0.6684
 9579SOL    HW229901   5.892   2.808   5.801 -0.7778 -0.7797 -3.2911
 9580SOL     OW29902   3.516   1.788   8.520 -0.6998 -0.1955 -0.0325
 9580SOL    HW129903   3.579   1.822   8.583  0.1253  2.3770 -2.0574
 9580SOL    HW229904   3.443   1.850   8.522 -1.5214 -1.1251 -0.3018
 9581SOL     OW29905   0.818   6.415   1.782  0.5571 -0.2221  0.2818
 9581SOL    HW129906   0.780   6.496   1.816 -1.2986 -0.9321 -0.0334
 9581SOL    HW229907   0.769   6.345   1.825  1.4715 -1.1773 -0.1911
 9582SOL     OW29908   6.425   3.590   5.060  0.4650  0.1857  0.3912
 9582SOL    HW129909   6.505   3.591   5.112 -0.5293 -1.5426  2.0833
 9582SOL    HW229910   6.414   3.498   5.035 -1.4064  0.2220  0.9298
 9583SOL     OW29911   1.994   0.598   4.614 -0.7727  0.8659 -0.5612
 9583SOL    HW129912   1.960   0.517   4.652 -0.6063  0.8719 -0.3976
 9583SOL    HW229913   1.943   0.668   4.656  0.8713  1.0344  1.3395
 9584SOL     OW29914   4.590   7.434   0.956 -0.5550  0.1361  0.2819
 9584SOL    HW129915   4.566   7.481   0.876  1.8050  0.9120 -0.0360
 9584SOL    HW229916   4.605   7.503   1.020  1.1790 -0.2370  0.3209
 9585SOL     OW29917   1.366   4.099   4.935  0.4101  0.2871  0.1442
 9585SOL    HW129918   1.276   4.111   4.904  1.1226  1.3714 -1.6764
 9585SOL    HW229919   1.383   4.176   4.989  0.5722  0.6145 -0.3679
 9586SOL     OW29920   7.632   1.989   1.465  0.5766  0.1163 -0.2343
 9586SOL    HW129921   7.647   2.084   1.473  2.5045 -0.1526 -0.2662
 9586SOL    HW229922   7.627   1.974   1.370  1.4987  0.0309 -0.2761
 9587SOL     OW29923   0.897   1.768   0.580 -0.0300 -0.1421  0.4978
 9587SOL    HW129924   0.983   1.757   0.539  0.1911  2.5597  0.0736
 9587SOL    HW229925   0.849   1.825   0.520 -1.4706 -0.1015  1.6373
 9588SOL     OW29926   8.848   5.822   1.498  0.3746 -0.0798  0.2711
 9588SOL    HW129927   8.822   5.747   1.552  0.6379  1.0165  2.0143
 9588SOL    HW229928   8.942   5.811   1.486  0.2608 -0.5011 -0.2767
 9589SOL     OW29929   8.833   1.470   6.768  0.5290 -0.2176  1.0368
 9589SOL    HW129930   8.917   1.453   6.810  2.5200  1.5722 -1.9103
 9589SOL    HW229931   8.804   1.553   6.805  0.8580 -0.0585  0.9413
 9590SOL     OW29932   3.109   5.797   3.911 -0.1051  0.0342 -0.2691
 9590SOL    HW129933   3.171   5.835   3.849 -0.7574  2.7592  0.6250
 9590SOL    HW229934   3.129   5.703   3.910  0.8984  0.1623 -3.4174
 9591SOL     OW29935   6.030   7.459   5.876 -0.5673 -0.1556 -0.1368
 9591SOL    HW129936   5.964   7.471   5.943 -0.9732 -0.1024 -0.5426
 9591SOL    HW229937   6.057   7.549   5.853  0.0407 -0.1904  0.4106
 9592SOL     OW29938   8.779   7.088   1.362  0.1660  0.1791  0.4312
 9592SOL    HW129939   8.750   7.012   1.412  0.5962 -0.4208 -0.2119
 9592SOL    HW229940   8.863   7.112   1.402 -0.4106  0.9158  1.2444
 9593SOL     OW29941   2.027   2.250   2.998  0.1511  0.0486  0.1738
 9593SOL    HW129942   2.046   2.236   3.091  0.7582  1.7234  0.3339
 9593SOL    HW229943   2.092   2.197   2.952 -0.4717 -1.1958  0.6711
 9594SOL     OW29944   3.297   7.109   4.756  0.1467  0.3180  0.5221
 9594SOL    HW129945   3.331   7.032   4.802  2.0424  1.5396  1.2744
 9594SOL    HW229946   3.333   7.101   4.667  0.6080  0.4945  0.6920
 9595SOL     OW29947   5.114   1.093   0.708  0.2688  0.6590 -0.4410
 9595SOL    HW129948   5.206   1.076   0.727  0.1411 -1.5223 -1.5245
 9595SOL    HW229949   5.112   1.185   0.680  1.6864  1.4765  1.8729
 9596SOL     OW29950   4.009   1.479   5.894  0.3776 -0.4896  0.8886
 9596SOL    HW129951   4.103   1.495   5.883  0.4077 -0.4124  1.2566
 9596SOL    HW229952   3.985   1.425   5.818  0.2342  1.4022 -0.4804
 9597SOL     OW29953   1.823   5.635   8.115  0.1719 -0.2905 -0.0524
 9597SOL    HW129954   1.792   5.677   8.035  1.1729 -0.6007 -0.6202
 9597SOL    HW229955   1.785   5.547   8.113 -0.7916  0.1062  0.4350
 9598SOL     OW29956   3.773   0.403   3.352 -0.0345  0.4986 -0.3433
 9598SOL    HW129957   3.705   0.406   3.284  1.7796  1.9119 -2.1925
 9598SOL    HW229958   3.809   0.314   3.345 -1.9639 -0.4982  1.0795
 9599SOL     OW29959   7.921   1.009   1.873 -0.1928 -0.2754 -0.0553
 9599SOL    HW129960   7.856   1.013   1.803 -0.1362  0.9558 -0.0541
 9599SOL    HW229961   7.993   0.958   1.836 -0.0933  0.5111 -0.9533
 9600SOL     OW29962   8.232   1.990   0.028 -0.0197  0.0751 -0.0494
 9600SOL    HW129963   8.206   1.938   0.104 -2.2034  0.8190 -0.2128
 9600SOL    HW229964   8.296   1.935  -0.018  0.4939 -0.8624  1.6847
 9601SOL     OW29965   5.570   0.301   8.002  0.3845  0.4571 -0.3269
 9601SOL    HW129966   5.655   0.275   7.967  0.6671  2.5106 -1.3451
 9601SOL    HW229967   5.591   0.360   8.074 -0.1816  0.2000  0.0520
 9602SOL     OW29968   3.579   6.653   6.937  0.3261 -0.4571 -0.3279
 9602SOL    HW129969   3.668   6.657   6.901  0.1478  0.6191 -0.6965
 9602SOL    HW229970   3.587   6.689   7.025  0.2969 -0.6087 -0.2627
 9603SOL     OW29971   2.143   2.595   7.201  0.0873  0.4595  0.0484
 9603SOL    HW129972   2.137   2.646   7.121 -0.3351 -1.0165 -0.9028
 9603SOL    HW229973   2.087   2.519   7.185  1.4712 -0.8118  1.0162
 9604SOL     OW29974   0.714   0.830   5.537 -0.5926  0.3783  0.1928
 9604SOL    HW129975   0.782   0.843   5.472  0.3878 -0.3826  1.0321
 9604SOL    HW229976   0.638   0.801   5.487 -0.6124  2.1350 -0.8604
 9605SOL     OW29977   8.744   0.123   7.218  0.0313  0.2933  0.5648
 9605SOL    HW129978   8.715   0.166   7.299 -2.5093  0.2175 -0.2316
 9605SOL    HW229979   8.775   0.037   7.248 -4.0167 -1.1357  1.2963
 9606SOL     OW29980   5.950   6.111   0.063  0.0913  0.2113 -0.0053
 9606SOL    HW129981   5.911   6.194   0.035 -1.8212 -1.1365 -1.5849
 9606SOL    HW229982   5.991   6.076  -0.016  0.3855 -0.6328  0.5042
 9607SOL     OW29983   3.597   3.866   8.285 -0.6537  0.0006 -0.0456
 9607SOL    HW129984   3.626   3.915   8.362  1.5785  0.3815 -1.0557
 9607SOL    HW229985   3.514   3.907   8.261 -1.1553  0.1754  1.8528
 9608SOL     OW29986   3.652   7.524   7.418 -0.2232  0.0937  0.0794
 9608SOL    HW129987   3.661   7.478   7.502  2.5449 -0.5712 -0.4803
 9608SOL    HW229988   3.629   7.614   7.442  0.0665 -0.2004  1.5424
 9609SOL     OW29989   8.032   8.216   5.330  0.2663 -0.0127 -0.1745
 9609SOL    HW129990   8.027   8.228   5.236 -1.6182  0.9633  0.0131
 9609SOL    HW229991   7.946   8.242   5.363  1.2618  0.8589  1.9411
 9610SOL     OW29992   3.035   6.109   8.140 -0.2947 -0.5034  0.3851
 9610SOL    HW129993   3.120   6.115   8.097  0.5317 -1.3866  1.7920
 9610SOL    HW229994   2.987   6.043   8.091 -1.3033  1.9221 -2.1269
 9611SOL     OW29995   3.920   0.798   5.229  0.3918  0.0132  0.0433
 9611SOL    HW129996   3.941   0.868   5.290  0.7914 -0.4522  0.4465
 9611SOL    HW229997   3.969   0.722   5.261  1.6019  0.0597 -1.5568
 9612SOL     OW29998   8.323   4.556   8.118 -0.6201  0.5704  0.2919
 9612SOL    HW129999   8.364   4.526   8.037  1.2199  0.7307  1.1172
 9612SOL    HW230000   8.344   4.488   8.182  1.2270  2.1823  1.5150
 9613SOL     OW30001   6.953   4.347   4.259 -0.0400  0.1455 -0.0937
 9613SOL    HW130002   7.013   4.419   4.281 -1.5531  0.7373  2.5847
 9613SOL    HW230003   6.883   4.389   4.208 -0.1020  0.2607  0.0837
 9614SOL     OW30004   6.160   8.454   2.298  0.7474 -0.3869 -0.1831
 9614SOL    HW130005   6.157   8.394   2.372 -2.5545  0.1614  0.2675
 9614SOL    HW230006   6.132   8.401   2.223  1.1331 -0.2045 -0.4616
 9615SOL     OW30007   7.641   4.299   5.233 -0.2200  0.1204  0.0216
 9615SOL    HW130008   7.648   4.206   5.209  1.6320  0.2689 -0.1680
 9615SOL    HW230009   7.592   4.299   5.315 -1.1371 -0.9331 -0.4927
 9616SOL     OW30010   0.591   2.912   1.935 -0.1740  0.2549 -0.5827
 9616SOL    HW130011   0.561   2.910   2.025  0.4284  1.7650 -0.3310
 9616SOL    HW230012   0.601   2.819   1.911  3.7657 -0.3380  2.3036
 9617SOL     OW30013   3.867   5.852   3.926  0.4013 -0.0814  0.6378
 9617SOL    HW130014   3.808   5.891   3.861 -0.2485 -0.4754  0.9770
 9617SOL    HW230015   3.874   5.918   3.994  0.1075 -0.1468  0.7351
 9618SOL     OW30016   8.547   4.947   2.233  0.4188 -0.2888 -0.2728
 9618SOL    HW130017   8.534   4.859   2.269 -1.1867 -0.0205 -0.1220
 9618SOL    HW230018   8.627   4.978   2.274 -0.2373 -0.8081  1.4814
 9619SOL     OW30019   6.832   7.408   6.393  0.0367  0.2722 -0.2940
 9619SOL    HW130020   6.841   7.313   6.397  3.2863  0.4199 -0.8724
 9619SOL    HW230021   6.902   7.441   6.450 -1.6855  2.3725  0.7690
 9620SOL     OW30022   4.446   8.769   1.403  0.3257  0.2162  1.0338
 9620SOL    HW130023   4.467   8.689   1.450 -0.2726  0.5893  1.9737
 9620SOL    HW230024   4.490   8.838   1.452  1.9103  0.3616 -0.5035
 9621SOL     OW30025   4.739   2.860   0.568 -0.2476  0.3384 -0.1808
 9621SOL    HW130026   4.712   2.934   0.514 -0.5094  0.2026 -0.2379
 9621SOL    HW230027   4.659   2.834   0.614 -0.4051 -0.5498 -0.9233
 9622SOL     OW30028   7.352   7.450   5.305 -0.3782  0.1037  0.0811
 9622SOL    HW130029   7.317   7.500   5.231 -0.3942  3.0856  1.9459
 9622SOL    HW230030   7.276   7.401   5.339 -1.3255  1.6834  0.3462
 9623SOL     OW30031   0.845   6.359   2.521  0.6859  0.2056 -0.2617
 9623SOL    HW130032   0.835   6.430   2.585 -1.6984 -1.4873  1.4273
 9623SOL    HW230033   0.799   6.391   2.443 -1.2355  0.2274  0.8159
 9624SOL     OW30034   6.985   6.074   3.785 -0.2989 -0.3823 -0.5198
 9624SOL    HW130035   6.965   6.037   3.699 -2.3523 -0.7208  0.0349
 9624SOL    HW230036   6.947   6.162   3.782  0.4164 -0.0629 -0.2595
 9625SOL     OW30037   7.987   6.475   7.213 -0.3987  0.0055 -0.1579
 9625SOL    HW130038   8.021   6.421   7.142  0.6823 -0.2110  0.5092
 9625SOL    HW230039   7.984   6.416   7.288 -0.1963  0.5988  0.3208
 9626SOL     OW30040   6.371   6.264   5.441 -0.1710 -0.5087  0.6028
 9626SOL    HW130041   6.387   6.170   5.431 -1.2714 -0.6070 -0.3919
 9626SOL    HW230042   6.423   6.304   5.372 -0.6173 -0.4787  0.2831
 9627SOL     OW30043   6.511   4.769   7.932 -0.6988 -0.2481  0.0588
 9627SOL    HW130044   6.452   4.698   7.957 -1.4931  0.8596  1.5242
 9627SOL    HW230045   6.595   4.726   7.915 -0.6638 -1.3904  2.6774
 9628SOL     OW30046   0.548   4.333   4.864  0.0342  0.1165 -0.1935
 9628SOL    HW130047   0.537   4.302   4.954 -0.5512 -0.7498 -0.5426
 9628SOL    HW230048   0.482   4.284   4.814 -2.0775  3.1174 -0.5707
 9629SOL     OW30049   7.215   6.520   5.777 -0.2868 -0.2095 -0.1920
 9629SOL    HW130050   7.299   6.510   5.734  0.0309  1.7962 -0.1087
 9629SOL    HW230051   7.156   6.463   5.728  0.9577 -1.1613 -0.6342
 9630SOL     OW30052   1.472   7.909   0.900  0.1189  0.3918  0.1662
 9630SOL    HW130053   1.536   7.934   0.967 -1.1400  2.1891  0.7657
 9630SOL    HW230054   1.423   7.838   0.941  1.6050 -0.9518 -0.2668
 9631SOL     OW30055   3.435   6.634   6.026  0.3680 -0.3030 -0.1624
 9631SOL    HW130056   3.456   6.618   6.119  0.1732  0.9200  0.1080
 9631SOL    HW230057   3.468   6.556   5.981 -1.3484 -1.8739  1.1521
 9632SOL     OW30058   4.728   7.926   6.195  0.2997 -0.1236  0.0479
 9632SOL    HW130059   4.700   7.897   6.282  1.3930 -0.4093  0.3168
 9632SOL    HW230060   4.791   7.996   6.212 -0.1222  0.4018 -0.5361
 9633SOL     OW30061   4.486   7.858   2.830  0.2132 -0.2488 -0.2404
 9633SOL    HW130062   4.538   7.894   2.902 -0.8211 -1.4927  1.1987
 9633SOL    HW230063   4.527   7.774   2.811 -1.7214 -1.7171  1.5927
 9634SOL     OW30064   2.334   8.724   3.982 -0.0001  0.2910 -0.5597
 9634SOL    HW130065   2.314   8.716   3.888 -0.8507  2.2000 -0.5877
 9634SOL    HW230066   2.411   8.780   3.985 -0.4197  0.8473 -0.0976
 9635SOL     OW30067   4.161   6.487   3.242 -0.5837  0.1168 -0.0701
 9635SOL    HW130068   4.190   6.510   3.330 -1.6861 -0.9192  0.5957
 9635SOL    HW230069   4.179   6.565   3.190  3.6712 -0.5096  0.1217
 9636SOL     OW30070   3.662   2.936   6.571 -0.1635 -0.3899 -0.3221
 9636SOL    HW130071   3.670   2.844   6.545  1.3828 -0.4254  0.1396
 9636SOL    HW230072   3.753   2.964   6.585 -0.7302  0.5526  1.7816
 9637SOL     OW30073   0.549   0.702   0.943  0.2319 -0.0555  0.4594
 9637SOL    HW130074   0.567   0.640   0.872  0.2889 -2.7286  2.6030
 9637SOL    HW230075   0.635   0.721   0.981  0.1399  0.7603  0.2553
 9638SOL     OW30076   5.983   0.509   4.702 -0.2055  0.0744  0.2730
 9638SOL    HW130077   6.003   0.508   4.609  0.5011  1.0064  0.3926
 9638SOL    HW230078   6.007   0.422   4.733  2.3208  0.6248  0.0959
 9639SOL     OW30079   8.546   8.785   3.605 -0.9673 -0.0743  0.1181
 9639SOL    HW130080   8.563   8.700   3.566 -0.3149 -0.6616  1.6040
 9639SOL    HW230081   8.455   8.782   3.632 -0.4079 -1.1789  2.1025
 9640SOL     OW30082   7.754   6.111   8.672 -0.2585 -0.2010 -0.2119
 9640SOL    HW130083   7.746   6.055   8.750 -1.7192 -2.1362 -1.6491
 9640SOL    HW230084   7.804   6.187   8.702  0.5092 -1.5626  2.2262
 9641SOL     OW30085   4.261   0.666   8.281 -0.4402  0.3346 -0.4949
 9641SOL    HW130086   4.243   0.659   8.187  0.8486 -0.3644 -0.7138
 9641SOL    HW230087   4.202   0.735   8.312  0.0787  1.5626 -2.0847
 9642SOL     OW30088   7.152   0.795   3.084 -0.1189  0.1256  0.2853
 9642SOL    HW130089   7.082   0.850   3.051 -0.0524  0.5352  0.8189
 9642SOL    HW230090   7.232   0.844   3.067  0.2893 -1.2298 -2.2511
 9643SOL     OW30091   8.846   8.515   2.051  0.0562  0.1794  0.2617
 9643SOL    HW130092   8.892   8.432   2.040 -0.2991  0.1224 -1.0709
 9643SOL    HW230093   8.914   8.582   2.049  0.2709 -0.0320  0.5138
 9644SOL     OW30094   0.561   5.168   6.550 -0.0896  0.4195  0.5180
 9644SOL    HW130095   0.466   5.180   6.538  0.1027  1.7181  0.1981
 9644SOL    HW230096   0.592   5.141   6.463 -0.4090 -1.9146  1.0595
 9645SOL     OW30097   8.806   2.815   4.657  0.2103  0.0102 -0.1212
 9645SOL    HW130098   8.758   2.766   4.723  0.4111  0.0521  0.0592
 9645SOL    HW230099   8.778   2.778   4.573 -0.8336  0.6553 -0.0736
 9646SOL     OW30100   6.995   0.120   5.517 -0.3582  0.4249 -0.3324
 9646SOL    HW130101   6.921   0.147   5.464 -0.0196 -0.5339 -1.3233
 9646SOL    HW230102   6.956   0.093   5.601 -1.1098  0.0860 -0.7828
 9647SOL     OW30103   4.017   6.452   4.497 -0.1077  0.0458  0.2549
 9647SOL    HW130104   3.967   6.374   4.519  0.0790 -0.9471 -2.4617
 9647SOL    HW230105   4.106   6.420   4.479  0.1552  0.9806 -0.1883
 9648SOL     OW30106   2.892   4.850   6.750  0.3979  0.5734 -0.1479
 9648SOL    HW130107   2.817   4.803   6.713  1.2711  0.2150 -1.5460
 9648SOL    HW230108   2.919   4.797   6.825  0.1445 -0.0890 -0.5146
 9649SOL     OW30109   6.363   2.761   3.728 -0.1700 -0.1012 -0.2011
 9649SOL    HW130110   6.376   2.670   3.756  0.0336  0.1044  0.3901
 9649SOL    HW230111   6.285   2.757   3.673 -0.0678 -0.6614 -0.3187
 9650SOL     OW30112   5.126   5.617   8.464  0.6718 -0.2174 -0.3382
 9650SOL    HW130113   5.185   5.693   8.462  3.3865 -2.1945 -1.2903
 9650SOL    HW230114   5.097   5.607   8.373  1.9663 -1.4281 -0.6543
 9651SOL     OW30115   7.363   4.898   5.475  0.3916 -0.1454  0.3052
 9651SOL    HW130116   7.347   4.805   5.492 -0.1880 -0.2307 -0.6289
 9651SOL    HW230117   7.275   4.937   5.472  0.6593  0.6154  1.6146
 9652SOL     OW30118   0.123   4.084   1.535  0.7161 -0.0169 -0.0537
 9652SOL    HW130119   0.076   4.076   1.618 -1.4710  1.8925 -1.0124
 9652SOL    HW230120   0.199   4.137   1.556  0.3774  0.1527  0.8068
 9653SOL     OW30121   7.440   0.968   6.607  0.1621  0.1479 -0.2959
 9653SOL    HW130122   7.377   0.896   6.594  0.9888 -0.5324 -0.6403
 9653SOL    HW230123   7.464   0.994   6.519  2.8076 -1.8147 -0.2766
 9654SOL     OW30124   5.846   1.994   2.505 -0.1825 -0.4160 -0.6436
 9654SOL    HW130125   5.837   1.926   2.439 -2.6275  0.3412 -1.2137
 9654SOL    HW230126   5.773   1.979   2.566 -0.9989  1.8159 -0.9768
 9655SOL     OW30127   0.215   7.755   3.799 -0.2738 -0.4226  0.0484
 9655SOL    HW130128   0.164   7.820   3.847  0.0648 -0.9743  1.1934
 9655SOL    HW230129   0.304   7.790   3.799 -0.3148 -0.3215 -0.3608
 9656SOL     OW30130   8.441   0.627   1.137  0.2518  0.0324  0.3338
 9656SOL    HW130131   8.498   0.605   1.063  2.7302  1.0558  1.7919
 9656SOL    HW230132   8.441   0.548   1.191 -0.7978 -0.3986 -0.2738
 9657SOL     OW30133   8.117   2.722   7.949 -0.0969  0.3708  0.1501
 9657SOL    HW130134   8.069   2.676   8.017 -1.1287  0.7753 -0.2885
 9657SOL    HW230135   8.197   2.670   7.937  0.2123  0.4143  1.7976
 9658SOL     OW30136   1.589   4.032   7.955  0.8862  0.3741  0.3281
 9658SOL    HW130137   1.667   4.007   8.005  1.8080  0.0531 -1.1848
 9658SOL    HW230138   1.597   3.983   7.873 -0.0425  1.5995 -0.5372
 9659SOL     OW30139   7.696   3.064   3.317  0.1334  0.8886 -0.4281
 9659SOL    HW130140   7.725   3.000   3.251 -0.9416  1.3737 -1.4046
 9659SOL    HW230141   7.765   3.062   3.383  1.1989  0.3001 -1.5021
 9660SOL     OW30142   0.713   6.650   1.768  0.0804 -0.2176  0.3022
 9660SOL    HW130143   0.805   6.669   1.751  0.0907 -0.6001 -0.0786
 9660SOL    HW230144   0.690   6.707   1.842  0.6822 -0.2810  0.5457
 9661SOL     OW30145   3.360   3.919   0.040 -0.1919  0.3016 -0.2474
 9661SOL    HW130146   3.441   3.899   0.087  0.5650  1.2832 -1.0824
 9661SOL    HW230147   3.300   3.847   0.063  0.4943  0.1965  1.3339
 9662SOL     OW30148   1.417   6.395   0.764 -0.3345 -0.9788  0.7379
 9662SOL    HW130149   1.342   6.439   0.802  0.9748 -0.0379  2.3951
 9662SOL    HW230150   1.481   6.391   0.836  1.5189 -0.9437 -0.8419
 9663SOL     OW30151   0.045   6.479   1.111 -0.0376 -0.1058  0.5234
 9663SOL    HW130152   0.086   6.416   1.170  2.2522  0.3441 -0.4771
 9663SOL    HW230153   0.053   6.563   1.156  0.1311 -0.0158  0.3274
 9664SOL     OW30154   1.459   6.474   0.055  0.2571  0.4058 -0.2994
 9664SOL    HW130155   1.377   6.465   0.006  0.4782  1.3370 -0.8523
 9664SOL    HW230156   1.447   6.551   0.110 -0.3959 -1.2180  1.9889
 9665SOL     OW30157   0.050   3.814   4.797 -0.0865  0.5459 -0.3012
 9665SOL    HW130158   0.047   3.877   4.869 -0.7864  0.7522 -0.5004
 9665SOL    HW230159   0.054   3.729   4.841  0.8688  0.7244 -0.0325
 9666SOL     OW30160   6.817   6.862   8.123  0.3786 -0.2792  0.2370
 9666SOL    HW130161   6.752   6.795   8.100  1.8969 -1.4238 -0.9688
 9666SOL    HW230162   6.895   6.812   8.147  0.7059  1.0552  2.1067
 9667SOL     OW30163   8.415   1.984   2.014 -0.1474 -0.9004 -0.0692
 9667SOL    HW130164   8.507   1.975   2.039 -0.4684  1.2141  2.3249
 9667SOL    HW230165   8.417   2.036   1.933  0.7712 -0.8991 -0.0521
 9668SOL     OW30166   4.199   3.615   8.614 -0.2456 -0.3603 -0.2189
 9668SOL    HW130167   4.234   3.527   8.606  0.9879 -0.0396  1.0949
 9668SOL    HW230168   4.153   3.631   8.532  0.3721 -1.8432 -0.8819
 9669SOL     OW30169   1.066   4.922   4.391  0.0158  0.0417 -0.1910
 9669SOL    HW130170   1.028   4.998   4.348  0.1679 -0.5346 -1.3892
 9669SOL    HW230171   1.004   4.851   4.372  0.9273 -0.5815 -0.9131
 9670SOL     OW30172   6.720   3.099   7.760  0.1562  0.1099  0.1078
 9670SOL    HW130173   6.755   3.141   7.838 -0.8098  0.7927  0.1960
 9670SOL    HW230174   6.679   3.170   7.710 -0.4999 -0.5355 -0.3060
 9671SOL     OW30175   4.662   3.733   2.393  0.2080 -0.1626 -0.1233
 9671SOL    HW130176   4.647   3.644   2.427  2.0210 -0.1339  0.8627
 9671SOL    HW230177   4.757   3.742   2.392  0.0402  1.9315  0.1926
 9672SOL     OW30178   8.832   1.838   5.272 -0.0360  0.0320  0.2968
 9672SOL    HW130179   8.741   1.813   5.290 -0.5352  1.2163 -0.4161
 9672SOL    HW230180   8.829   1.875   5.184  1.0033  0.7859  0.5611
 9673SOL     OW30181   1.809   6.057   3.920 -0.0093  0.5267 -0.3435
 9673SOL    HW130182   1.718   6.029   3.927  0.3689 -0.4248  1.1470
 9673SOL    HW230183   1.824   6.067   3.826 -0.3688 -3.6779 -1.0086
 9674SOL     OW30184   2.701   7.606   8.029 -0.1367 -0.4478  0.2926
 9674SOL    HW130185   2.629   7.543   8.037 -0.8297  0.3716  0.6137
 9674SOL    HW230186   2.737   7.611   8.118 -0.0497 -0.4304  0.2557
 9675SOL     OW30187   8.556   8.105   2.818  0.3310 -0.2117 -0.2554
 9675SOL    HW130188   8.574   8.048   2.893 -0.3753  0.8589  0.7470
 9675SOL    HW230189   8.643   8.135   2.791  0.5432  0.1936  0.7962
 9676SOL     OW30190   6.775   5.474   1.833  0.2983 -0.4433  0.3230
 9676SOL    HW130191   6.755   5.544   1.895  0.9709 -0.0428  0.1030
 9676SOL    HW230192   6.859   5.439   1.863  1.6193  1.0240 -1.4234
 9677SOL     OW30193   0.065   0.410   0.281 -0.2721  0.1330  0.0970
 9677SOL    HW130194   0.087   0.493   0.323  0.8207 -0.3497  0.5120
 9677SOL    HW230195   0.128   0.347   0.317 -0.2920 -0.6142 -1.1144
 9678SOL     OW30196   7.879   7.248   7.551  0.0768  0.1910 -0.1843
 9678SOL    HW130197   7.906   7.173   7.497  0.1269 -1.9383  2.6072
 9678SOL    HW230198   7.792   7.225   7.582 -0.6553  2.1553 -0.6515
 9679SOL     OW30199   4.652   3.567   7.327 -0.6555  0.1882 -0.0012
 9679SOL    HW130200   4.680   3.567   7.235  1.1428 -1.1657  0.4932
 9679SOL    HW230201   4.733   3.570   7.377 -1.5286 -0.6550  1.5545
 9680SOL     OW30202   7.549   7.480   8.075 -0.0440 -0.0530  0.4882
 9680SOL    HW130203   7.466   7.527   8.074 -0.0689 -0.0653 -1.0698
 9680SOL    HW230204   7.547   7.425   7.996  2.3407  1.6674 -0.9484
 9681SOL     OW30205   0.012   0.233   4.223 -0.0271 -0.2263  0.6363
 9681SOL    HW130206   0.013   0.248   4.128 -3.2656  0.4500  0.6075
 9681SOL    HW230207   0.041   0.316   4.261 -0.1322 -0.0127  0.2520
 9682SOL     OW30208   5.116   8.157   0.261 -0.0442  0.0046 -0.0998
 9682SOL    HW130209   5.091   8.117   0.344 -0.6763 -0.2329 -0.3999
 9682SOL    HW230210   5.194   8.109   0.234  1.0294  1.0314  1.0537
 9683SOL     OW30211   0.888   1.367   1.193 -0.1028  0.4335  0.2358
 9683SOL    HW130212   0.897   1.441   1.254 -3.7037  0.0141  1.5422
 9683SOL    HW230213   0.815   1.392   1.136  0.5003 -0.9639 -1.2219
 9684SOL     OW30214   5.554   2.969   7.180  0.2121  0.1679 -0.1935
 9684SOL    HW130215   5.585   3.003   7.096  1.7792  1.0312  0.6920
 9684SOL    HW230216   5.631   2.929   7.220 -0.4919 -0.1625  0.8785
 9685SOL     OW30217   5.940   1.754   0.539  0.3472  0.1461 -0.0766
 9685SOL    HW130218   6.012   1.703   0.502 -0.3209 -1.2023  0.4287
 9685SOL    HW230219   5.937   1.727   0.631 -1.2995 -0.4235 -0.2740
 9686SOL     OW30220   4.601   5.201   3.943 -0.6767 -0.3852  0.5757
 9686SOL    HW130221   4.568   5.179   3.855 -3.0751  2.0504  0.7428
 9686SOL    HW230222   4.682   5.250   3.927 -2.1289  1.8103 -0.4863
 9687SOL     OW30223   1.196   0.336   1.326  0.2912  0.2186 -0.3455
 9687SOL    HW130224   1.128   0.340   1.259 -0.0626  1.6581  0.0698
 9687SOL    HW230225   1.254   0.266   1.297 -0.7716 -0.3043 -1.2718
 9688SOL     OW30226   2.659   1.933   0.032  0.6425  0.1786 -0.0809
 9688SOL    HW130227   2.569   1.925   0.063  0.1923  1.4091 -0.9908
 9688SOL    HW230228   2.680   1.846  -0.003 -0.4984  0.0975 -0.6236
 9689SOL     OW30229   4.263   1.467   2.908 -0.4427 -0.1284 -0.3183
 9689SOL    HW130230   4.185   1.519   2.889 -0.0843  0.4460 -0.2664
 9689SOL    HW230231   4.233   1.377   2.909 -1.3470  0.1659  0.8980
 9690SOL     OW30232   3.956   7.632   6.464  0.2336  0.6465  0.4883
 9690SOL    HW130233   3.866   7.616   6.493  0.2683 -1.1169 -0.2811
 9690SOL    HW230234   3.946   7.670   6.377  0.2288 -1.5575 -0.5140
 9691SOL     OW30235   4.684   1.680   4.146  0.1310 -0.3414 -0.4270
 9691SOL    HW130236   4.717   1.752   4.199 -3.4767  0.9025  0.4172
 9691SOL    HW230237   4.650   1.617   4.209 -1.5174 -0.2513 -1.1880
 9692SOL     OW30238   6.667   1.863   1.711 -0.1131 -0.5028 -0.3898
 9692SOL    HW130239   6.761   1.850   1.722 -0.0954 -1.2023 -1.2355
 9692SOL    HW230240   6.648   1.942   1.762  0.8040 -0.7291  0.3412
 9693SOL     OW30241   0.587   7.094   2.855 -0.2399  0.0841  0.1664
 9693SOL    HW130242   0.634   7.177   2.844  0.3835 -0.1266  1.0592
 9693SOL    HW230243   0.637   7.048   2.923 -1.2632 -0.5151  0.5276
 9694SOL     OW30244   1.870   0.278   8.228  0.0163  0.3323 -0.2217
 9694SOL    HW130245   1.926   0.253   8.301 -0.1088 -1.1063 -0.5760
 9694SOL    HW230246   1.931   0.304   8.159  0.3488 -1.6871 -0.7745
 9695SOL     OW30247   7.836   7.102   2.115 -0.9968  0.0708  0.3565
 9695SOL    HW130248   7.765   7.064   2.167 -1.1080 -0.6296 -0.2858
 9695SOL    HW230249   7.852   7.188   2.155 -0.5567 -0.7431  2.0066
 9696SOL     OW30250   3.990   1.306   4.350 -0.0203  0.5152 -0.0904
 9696SOL    HW130251   4.018   1.239   4.412  0.1075  1.3760  0.8253
 9696SOL    HW230252   3.964   1.258   4.272 -0.5823 -0.6440  0.7771
 9697SOL     OW30253   8.673   2.051   0.753 -0.3129  0.9114 -0.7223
 9697SOL    HW130254   8.757   2.098   0.752  0.8733 -1.0894 -0.0240
 9697SOL    HW230255   8.679   1.992   0.829 -3.5142  2.6456  1.1167
 9698SOL     OW30256   2.844   4.569   7.185  0.2323  0.2586 -0.0822
 9698SOL    HW130257   2.806   4.543   7.269  0.0773  0.8854  0.0431
 9698SOL    HW230258   2.894   4.492   7.158 -0.6316 -0.3687  0.0343
 9699SOL     OW30259   8.469   3.103   6.728 -0.3168 -0.0364  0.3646
 9699SOL    HW130260   8.552   3.122   6.685 -0.1911 -1.8104 -0.2770
 9699SOL    HW230261   8.420   3.184   6.722  0.6246  0.4803 -1.0056
 9700SOL     OW30262   1.981   2.052   5.393 -0.1991 -0.5108  0.3407
 9700SOL    HW130263   1.919   2.123   5.407 -1.2084 -1.3430  0.2687
 9700SOL    HW230264   1.927   1.978   5.365  1.0329 -0.6876 -1.8074
 9701SOL     OW30265   8.165   7.921   4.240  0.0862  0.4376 -0.1033
 9701SOL    HW130266   8.107   7.874   4.300 -1.1841  0.0860 -1.5506
 9701SOL    HW230267   8.174   8.008   4.279 -0.1808  0.0146  0.9322
 9702SOL     OW30268   8.028   5.359   8.128 -0.1000  0.3639 -0.7955
 9702SOL    HW130269   8.106   5.318   8.091  0.9127  3.0435 -1.8820
 9702SOL    HW230270   8.008   5.308   8.206  1.4096 -1.7040 -1.6826
 9703SOL     OW30271   5.303   2.818   5.653 -0.0926  0.0308 -0.4935
 9703SOL    HW130272   5.250   2.879   5.602 -1.2168 -0.5724 -0.0598
 9703SOL    HW230273   5.393   2.844   5.633 -0.5071  0.4390 -2.0098
 9704SOL     OW30274   2.477   5.803   6.296 -0.0109  0.3959  0.6763
 9704SOL    HW130275   2.556   5.773   6.252 -0.7985 -0.6018 -0.1224
 9704SOL    HW230276   2.501   5.886   6.336  1.9012 -0.6659  1.8717
 9705SOL     OW30277   4.568   7.683   6.154  0.0950  0.2311  0.3165
 9705SOL    HW130278   4.486   7.721   6.121 -0.8238 -0.6345  1.4824
 9705SOL    HW230279   4.630   7.756   6.155 -0.0460  0.4845 -2.4450
 9706SOL     OW30280   3.897   1.607   5.098  0.1087 -0.1198  0.0159
 9706SOL    HW130281   3.843   1.620   5.020 -0.3926  0.0489  0.3868
 9706SOL    HW230282   3.836   1.573   5.163  0.5620 -0.4124  0.2849
 9707SOL     OW30283   1.166   4.317   1.808  0.2651  0.3318 -0.5814
 9707SOL    HW130284   1.235   4.268   1.852 -0.0614  0.2944 -0.1143
 9707SOL    HW230285   1.090   4.307   1.864  0.2596  1.5858 -0.3535
 9708SOL     OW30286   2.243   8.690   2.706 -0.4424  1.1179  0.2469
 9708SOL    HW130287   2.158   8.734   2.710 -0.1431  1.6202  1.4077
 9708SOL    HW230288   2.254   8.650   2.792 -0.9859 -1.8530 -0.9643
 9709SOL     OW30289   5.169   1.793   8.495 -0.6096  0.0562  0.2161
 9709SOL    HW130290   5.170   1.817   8.402  0.5648  2.6842  0.8217
 9709SOL    HW230291   5.150   1.874   8.541  2.0917 -0.4070  2.4326
 9710SOL     OW30292   6.888   8.011   8.670 -0.1278 -0.5379  0.3380
 9710SOL    HW130293   6.849   8.093   8.699 -1.4138 -0.5134 -1.3171
 9710SOL    HW230294   6.846   7.944   8.724 -1.4805 -0.3659 -0.4387
 9711SOL     OW30295   6.491   2.390   3.473  0.3429  0.0590  0.2166
 9711SOL    HW130296   6.444   2.307   3.469 -3.4035  1.9602  0.0025
 9711SOL    HW230297   6.459   2.432   3.553  3.3949  0.6994  1.2003
 9712SOL     OW30298   8.379   5.739   4.307  0.0298  0.4636 -0.2550
 9712SOL    HW130299   8.283   5.737   4.311  0.0656 -1.2914  2.5431
 9712SOL    HW230300   8.399   5.752   4.214 -2.9135 -1.0802 -1.2410
 9713SOL     OW30301   4.939   4.496   7.770  0.0625  0.7247 -0.2106
 9713SOL    HW130302   5.026   4.466   7.743 -0.1375 -0.5110  0.4741
 9713SOL    HW230303   4.880   4.462   7.702 -0.1633 -0.4808  0.5626
 9714SOL     OW30304   5.930   0.914   5.014  0.1530  0.3311  0.3528
 9714SOL    HW130305   5.891   0.900   4.928  1.5357 -0.5264 -0.1651
 9714SOL    HW230306   5.876   0.862   5.073  0.0344 -0.2138 -0.2200
 9715SOL     OW30307   1.829   2.674   8.151  0.1754  0.2066  0.3924
 9715SOL    HW130308   1.844   2.607   8.217 -0.5095  0.1946  0.5406
 9715SOL    HW230309   1.910   2.675   8.099  0.1668 -0.7910  0.3378
 9716SOL     OW30310   4.313   2.844   1.107  0.1453 -0.2089 -0.2922
 9716SOL    HW130311   4.264   2.765   1.088 -0.4559  0.2942 -0.8692
 9716SOL    HW230312   4.401   2.813   1.130 -1.0275 -1.3265  3.3080
 9717SOL     OW30313   5.865   0.721   2.795 -0.2705  0.0678  0.0269
 9717SOL    HW130314   5.819   0.742   2.713 -2.0701  1.2829  1.2649
 9717SOL    HW230315   5.823   0.640   2.825 -1.3685  0.9441  0.9404
 9718SOL     OW30316   6.627   4.360   7.819 -0.1980  0.7364 -0.1548
 9718SOL    HW130317   6.676   4.282   7.793  0.2404  1.8782 -3.1597
 9718SOL    HW230318   6.539   4.346   7.785 -0.0166  1.6552 -1.0582
 9719SOL     OW30319   8.359   3.214   0.814  0.3452 -0.2472 -0.1969
 9719SOL    HW130320   8.373   3.148   0.881  1.6892 -0.0044 -0.2058
 9719SOL    HW230321   8.322   3.288   0.860  2.3807  0.3723  0.5680
 9720SOL     OW30322   2.001   6.125   7.580  0.4251  0.4303  0.0716
 9720SOL    HW130323   1.967   6.114   7.669  0.1845  1.1973  0.0832
 9720SOL    HW230324   1.955   6.202   7.546 -0.5039 -0.6511 -1.2094
 9721SOL     OW30325   2.228   1.295   5.908  0.0279 -0.3024  0.3536
 9721SOL    HW130326   2.173   1.253   5.842  1.9437 -2.6736  0.1165
 9721SOL    HW230327   2.215   1.389   5.894 -1.8375 -0.7492 -1.4334
 9722SOL     OW30328   5.237   3.607   5.193  0.1152  0.1424 -0.2713
 9722SOL    HW130329   5.198   3.682   5.239 -1.4096 -0.9470  0.2865
 9722SOL    HW230330   5.170   3.539   5.198  0.8103 -0.7434 -2.1958
 9723SOL     OW30331   6.781   2.996   5.776  0.1905  0.2590 -0.3899
 9723SOL    HW130332   6.699   2.949   5.796  0.8901  0.1302  2.6615
 9723SOL    HW230333   6.848   2.927   5.776  0.6658  0.7100  0.0720
 9724SOL     OW30334   7.042   3.168   6.503 -0.7340  0.2105 -0.3186
 9724SOL    HW130335   7.104   3.192   6.572  0.0315 -0.2124 -0.8476
 9724SOL    HW230336   7.087   3.189   6.422 -0.5346 -1.7660 -0.7760
 9725SOL     OW30337   2.618   6.029   2.889 -0.2965 -0.5499 -0.6426
 9725SOL    HW130338   2.620   6.015   2.983 -0.6673  1.2515 -0.3327
 9725SOL    HW230339   2.526   6.020   2.865 -0.2717 -0.4967 -0.7598
 9726SOL     OW30340   1.657   2.886   8.098  0.2392 -0.3380  0.0175
 9726SOL    HW130341   1.723   2.820   8.119  1.1506  0.4465 -0.2972
 9726SOL    HW230342   1.584   2.867   8.156  0.8033 -1.1362  0.4794
 9727SOL     OW30343   7.448   6.902   2.310 -0.0140  0.2569  0.1826
 9727SOL    HW130344   7.386   6.924   2.380  0.4503 -1.0682  1.0534
 9727SOL    HW230345   7.500   6.982   2.298 -2.1482  1.5706 -0.9234
 9728SOL     OW30346   8.338   1.655   8.167 -0.1579 -0.4605  0.2822
 9728SOL    HW130347   8.313   1.712   8.094 -0.1868 -0.1554  0.5297
 9728SOL    HW230348   8.335   1.712   8.244  1.0158 -0.4859  0.3622
 9729SOL     OW30349   6.682   4.594   7.212 -0.2165 -0.5649  0.4323
 9729SOL    HW130350   6.742   4.550   7.153 -0.5578 -0.2822 -0.1360
 9729SOL    HW230351   6.647   4.524   7.267  1.6389 -0.5540  1.7087
 9730SOL     OW30352   8.204   0.514   5.167  0.0513 -0.3539 -0.2258
 9730SOL    HW130353   8.157   0.564   5.100  0.9309  1.0177  0.1614
 9730SOL    HW230354   8.134   0.479   5.223 -0.5525  1.1327 -0.0160
 9731SOL     OW30355   7.233   8.760   8.462  0.1262  0.1828  0.0208
 9731SOL    HW130356   7.193   8.678   8.431  1.2541  0.2267 -1.6701
 9731SOL    HW230357   7.279   8.735   8.542 -0.4566 -0.5843  0.1349
 9732SOL     OW30358   0.257   1.342   5.940  0.5711  0.0154 -0.4986
 9732SOL    HW130359   0.194   1.299   5.882  0.4041 -0.5659  0.0947
 9732SOL    HW230360   0.216   1.426   5.962 -1.7089 -1.6791  2.5689
 9733SOL     OW30361   2.436   0.631   6.893  0.1658 -0.0702 -0.1971
 9733SOL    HW130362   2.489   0.577   6.834  0.2659  0.0683 -0.2379
 9733SOL    HW230363   2.440   0.719   6.854 -0.3501 -0.1190 -0.3693
 9734SOL     OW30364   0.024   3.198   6.988  0.1326 -0.2690 -0.1062
 9734SOL    HW130365   0.047   3.202   6.895  1.4318 -0.3884  0.1938
 9734SOL    HW230366   0.020   3.104   7.007  1.6901 -0.2639  0.3660
 9735SOL     OW30367   6.233   3.994   2.305 -0.0427 -0.5284 -0.1763
 9735SOL    HW130368   6.152   4.033   2.270 -0.4061 -0.2324  0.9369
 9735SOL    HW230369   6.286   4.069   2.331  0.9665 -0.6986 -1.6522
 9736SOL     OW30370   0.981   5.559   7.132  0.0281 -0.3521  0.1214
 9736SOL    HW130371   1.007   5.589   7.045  1.7773  0.2904  0.8179
 9736SOL    HW230372   1.051   5.589   7.189 -1.7406  0.4156  1.9988
 9737SOL     OW30373   1.311   3.168   3.993 -0.4013  0.0107  0.4906
 9737SOL    HW130374   1.272   3.150   4.078  0.0389 -0.7265  0.5437
 9737SOL    HW230375   1.264   3.111   3.932  0.3058 -0.5882  0.4922
 9738SOL     OW30376   8.043   5.687   2.016 -0.1536 -0.6275 -0.4200
 9738SOL    HW130377   8.082   5.765   1.977 -1.3866 -0.2584 -0.9807
 9738SOL    HW230378   7.983   5.655   1.948  1.0771 -2.6783 -0.6258
 9739SOL     OW30379   1.536   2.833   7.602  0.3319  0.0780  0.3464
 9739SOL    HW130380   1.572   2.855   7.688  0.1231  1.8231  0.0185
 9739SOL    HW230381   1.506   2.917   7.566  1.9856 -0.3146 -2.1714
 9740SOL     OW30382   1.130   1.719   5.341  0.1807 -0.6523  0.0231
 9740SOL    HW130383   1.132   1.814   5.353  1.2670 -0.5948 -0.5388
 9740SOL    HW230384   1.069   1.688   5.408 -0.9751  0.5248 -0.4366
 9741SOL     OW30385   3.080   7.440   6.874 -0.4572  0.1818 -0.4774
 9741SOL    HW130386   3.119   7.486   6.801 -1.9026  1.1327 -0.7000
 9741SOL    HW230387   3.082   7.503   6.946 -0.3418 -0.2412 -0.1031
 9742SOL     OW30388   2.524   2.904   0.677  0.0176  0.5922 -0.8382
 9742SOL    HW130389   2.580   2.826   0.673  1.2025  1.3823 -0.3680
 9742SOL    HW230390   2.444   2.873   0.719  0.0518 -0.5951 -1.5948
 9743SOL     OW30391   7.490   3.079   5.296  0.4467 -0.1690  0.0641
 9743SOL    HW130392   7.438   2.998   5.297  0.6547 -0.3432 -1.4694
 9743SOL    HW230393   7.577   3.052   5.327  0.6227 -0.6328 -0.8014
 9744SOL     OW30394   1.376   1.789   1.574 -0.8227  0.3506 -0.8088
 9744SOL    HW130395   1.306   1.768   1.636 -2.7169  1.3650 -2.5165
 9744SOL    HW230396   1.392   1.707   1.527  0.9488 -0.5582  1.1945
 9745SOL     OW30397   5.074   1.395   6.514  0.0730  0.5199  0.3945
 9745SOL    HW130398   5.152   1.347   6.541  0.2476  1.1848  1.0920
 9745SOL    HW230399   5.091   1.485   6.539  0.2280  1.1996 -1.9057
 9746SOL     OW30400   5.521   5.205   3.754 -0.0210  0.3264 -0.1094
 9746SOL    HW130401   5.427   5.188   3.756  0.0551 -0.0737  0.1413
 9746SOL    HW230402   5.562   5.120   3.770  0.3785  0.5890  0.3009
 9747SOL     OW30403   8.561   4.886   5.003 -0.3390  0.4378  0.2956
 9747SOL    HW130404   8.548   4.857   4.912 -4.4019  1.8278  0.2375
 9747SOL    HW230405   8.539   4.979   5.001 -2.0617  0.1830  2.9044
 9748SOL     OW30406   2.113   1.438   3.555  0.0577 -0.1131  0.4837
 9748SOL    HW130407   2.156   1.458   3.471  0.0835  1.5929  0.8778
 9748SOL    HW230408   2.078   1.522   3.585 -1.9004 -1.0983  1.1199
 9749SOL     OW30409   8.184   1.128   2.596 -0.1854  0.6116  0.4506
 9749SOL    HW130410   8.119   1.199   2.601  0.3654  1.0676  1.3488
 9749SOL    HW230411   8.251   1.161   2.537 -0.6185  0.2385 -0.2795
 9750SOL     OW30412   1.457   2.941   0.075  0.3028  0.0230  0.0461
 9750SOL    HW130413   1.552   2.941   0.057  0.4411 -0.9090  0.7270
 9750SOL    HW230414   1.431   3.033   0.064  1.2390  0.2568 -0.3591
 9751SOL     OW30415   6.657   3.656   5.840 -0.1170 -0.0547  0.5047
 9751SOL    HW130416   6.673   3.675   5.932 -2.4762  0.2881  0.8926
 9751SOL    HW230417   6.734   3.606   5.812  0.1377 -1.1432  2.9386
 9752SOL     OW30418   7.440   1.021   6.351 -0.1902 -0.8505  0.2332
 9752SOL    HW130419   7.380   0.967   6.298  0.0623 -1.4820  0.5814
 9752SOL    HW230420   7.519   1.028   6.297  0.0404 -1.4336  0.4866
 9753SOL     OW30421   6.703   8.502   8.039 -0.0821  0.4093 -0.0314
 9753SOL    HW130422   6.770   8.446   7.999  1.2377  1.0662  1.1844
 9753SOL    HW230423   6.666   8.551   7.965  1.3146  0.5721 -0.6661
 9754SOL     OW30424   1.548   4.131   3.771 -0.5650  0.2918  0.1330
 9754SOL    HW130425   1.595   4.180   3.704 -0.3588 -0.2101 -0.0936
 9754SOL    HW230426   1.462   4.173   3.776 -1.5534 -1.2022 -2.2961
 9755SOL     OW30427   5.280   3.296   2.833 -0.0964 -0.1385 -0.4547
 9755SOL    HW130428   5.309   3.227   2.892 -1.1982 -1.2719 -1.1879
 9755SOL    HW230429   5.291   3.259   2.745 -1.2772  0.3756 -0.8362
 9756SOL     OW30430   4.318   7.650   5.308  0.0099  0.1068  0.0943
 9756SOL    HW130431   4.347   7.563   5.336 -1.1209 -0.1818  0.4038
 9756SOL    HW230432   4.387   7.680   5.249  0.1438 -1.2362 -0.4690
 9757SOL     OW30433   7.164   8.724   6.302 -0.2068 -0.2764  0.7382
 9757SOL    HW130434   7.077   8.763   6.304 -0.1828 -0.0419 -0.9726
 9757SOL    HW230435   7.211   8.767   6.373 -0.8618  1.1968  0.3350
 9758SOL     OW30436   3.809   5.798   2.497  0.2243  0.1012 -0.3232
 9758SOL    HW130437   3.873   5.780   2.428  1.7991  2.6776  0.3412
 9758SOL    HW230438   3.761   5.875   2.467 -0.3010  0.1789  0.6685
 9759SOL     OW30439   0.281   8.828   8.391  0.2291 -0.0554  0.3217
 9759SOL    HW130440   0.280   8.733   8.404  1.2558 -0.2743 -0.9751
 9759SOL    HW230441   0.345   8.860   8.455  3.0557 -0.7847 -1.9163
 9760SOL     OW30442   4.482   8.725   5.304  0.1052 -0.6695 -0.1948
 9760SOL    HW130443   4.492   8.743   5.398  2.2932 -0.1536 -0.4508
 9760SOL    HW230444   4.463   8.632   5.299  0.0392 -0.7204  0.7619
 9761SOL     OW30445   7.650   0.625   0.005  0.0594  0.9888  0.1590
 9761SOL    HW130446   7.674   0.716   0.018 -1.7405  1.4148  0.8073
 9761SOL    HW230447   7.682   0.603  -0.082  0.8793  2.0941  0.1635
 9762SOL     OW30448   4.037   3.596   0.249  0.3318  0.0676 -0.1942
 9762SOL    HW130449   3.959   3.603   0.304  0.9788 -0.2416  0.7826
 9762SOL    HW230450   4.065   3.686   0.234  0.3049  0.1410  0.2083
 9763SOL     OW30451   2.140   1.794   8.182  0.9542  0.2649 -0.0176
 9763SOL    HW130452   2.047   1.810   8.199  1.0073  2.0027 -1.0527
 9763SOL    HW230453   2.179   1.786   8.268 -0.0268  0.4511  0.4582
 9764SOL     OW30454   0.387   8.794   7.387  0.1729 -0.3555 -0.3327
 9764SOL    HW130455   0.311   8.756   7.431 -0.5675  1.6990  0.2846
 9764SOL    HW230456   0.391   8.749   7.302 -0.7661 -1.5910  0.2459
 9765SOL     OW30457   5.557   7.791   3.199 -0.0665 -0.5606  0.4567
 9765SOL    HW130458   5.548   7.881   3.229 -0.3674 -0.9516  1.6148
 9765SOL    HW230459   5.601   7.746   3.271 -1.2738 -1.6591  0.5545
 9766SOL     OW30460   6.361   1.295   2.378  0.0897 -0.2617  0.2034
 9766SOL    HW130461   6.414   1.253   2.446 -0.3564 -0.0033  0.7202
 9766SOL    HW230462   6.338   1.380   2.415 -0.7806 -0.4120  0.0335
 9767SOL     OW30463   5.367   2.449   0.866 -0.2233 -0.2060 -0.5852
 9767SOL    HW130464   5.375   2.438   0.771  1.9743 -0.1796 -0.4573
 9767SOL    HW230465   5.451   2.417   0.901 -1.3434 -1.1261  1.4395
 9768SOL     OW30466   3.812   6.247   4.756 -0.1811  0.3030 -0.2198
 9768SOL    HW130467   3.756   6.268   4.682  0.5847  1.9324 -0.4011
 9768SOL    HW230468   3.757   6.196   4.815 -0.5799 -1.7095 -2.2221
 9769SOL     OW30469   1.727   7.150   0.493 -0.4065 -0.0623 -0.2786
 9769SOL    HW130470   1.656   7.200   0.533  0.2979 -0.8744  2.2087
 9769SOL    HW230471   1.794   7.145   0.562  0.7546 -1.9173 -1.4515
 9770SOL     OW30472   8.678   7.355   8.358 -0.1667 -0.8284 -0.1699
 9770SOL    HW130473   8.772   7.375   8.363 -0.0330 -1.3895 -0.4004
 9770SOL    HW230474   8.636   7.424   8.411  0.4727 -1.3452  1.0490
 9771SOL     OW30475   4.787   7.700   7.661  0.7181 -0.6977 -0.0781
 9771SOL    HW130476   4.843   7.666   7.731 -2.3576 -3.1710  1.4405
 9771SOL    HW230477   4.722   7.753   7.706  0.3237  0.0553 -1.4764
 9772SOL     OW30478   1.531   5.531   0.093 -0.4312  0.3261 -0.0577
 9772SOL    HW130479   1.442   5.513   0.124  0.3464  0.0584  2.1363
 9772SOL    HW230480   1.573   5.446   0.088  0.2325  0.6088  0.6016
 9773SOL     OW30481   6.759   8.132   4.625  1.0052 -0.5805 -0.5951
 9773SOL    HW130482   6.734   8.088   4.706 -1.2255 -0.9818 -1.4236
 9773SOL    HW230483   6.758   8.063   4.559 -0.7292  0.3351 -1.5809
 9774SOL     OW30484   0.633   5.754   1.352 -0.2919  0.5147 -0.1498
 9774SOL    HW130485   0.640   5.849   1.363 -0.3902  0.5112 -0.0582
 9774SOL    HW230486   0.592   5.723   1.433  0.8170  0.2601  0.3307
 9775SOL     OW30487   6.764   7.080   2.369 -0.3687  0.0623 -0.5960
 9775SOL    HW130488   6.786   6.998   2.324 -1.6382 -0.3059 -0.5867
 9775SOL    HW230489   6.670   7.074   2.384 -0.1475  0.5896  1.2726
 9776SOL     OW30490   3.327   0.884   4.563 -0.0687 -0.7118 -0.4762
 9776SOL    HW130491   3.271   0.862   4.637 -0.4379 -4.2721 -1.6233
 9776SOL    HW230492   3.272   0.938   4.506 -0.6140 -0.0572  0.6372
 9777SOL     OW30493   5.464   2.529   8.001 -0.3352  0.3947  0.0165
 9777SOL    HW130494   5.378   2.532   8.042 -0.3116 -0.3115  0.1458
 9777SOL    HW230495   5.520   2.580   8.058 -0.6253  0.6743  0.0512
 9778SOL     OW30496   4.728   7.773   0.026  0.1183  0.0526 -0.0294
 9778SOL    HW130497   4.651   7.827   0.038  1.1732  2.0509 -1.6822
 9778SOL    HW230498   4.731   7.755  -0.068  0.1270 -2.4821  0.3681
 9779SOL     OW30499   0.959   6.172   0.062  0.4544 -0.5610  0.0875
 9779SOL    HW130500   0.970   6.100   0.001  1.8684 -0.6039  0.3564
 9779SOL    HW230501   0.900   6.233   0.017  1.4707 -0.5809 -1.3508
 9780SOL     OW30502   5.614   3.178   8.107 -0.0381  0.4088 -0.2442
 9780SOL    HW130503   5.540   3.190   8.047  0.4097  0.7350 -0.7370
 9780SOL    HW230504   5.579   3.121   8.176 -0.3406 -0.6657 -1.2371
 9781SOL     OW30505   4.612   6.969   3.957 -0.0350  0.7376 -0.4589
 9781SOL    HW130506   4.563   6.939   4.033 -0.2877  3.2965  0.4587
 9781SOL    HW230507   4.690   6.913   3.955 -0.1214  0.4981  1.5471
 9782SOL     OW30508   3.472   1.007   2.526 -0.0272  0.1712  0.5292
 9782SOL    HW130509   3.507   0.925   2.493 -0.3248  0.2447  0.0128
 9782SOL    HW230510   3.478   1.067   2.451  1.7497  1.1116  1.3690
 9783SOL     OW30511   0.764   7.452   4.394  0.0382 -0.2295 -0.9611
 9783SOL    HW130512   0.813   7.399   4.457 -0.2068 -1.4646 -1.7700
 9783SOL    HW230513   0.742   7.532   4.441 -0.0349 -1.0730  0.4815
 9784SOL     OW30514   0.225   5.194   3.346 -0.4437 -0.3785 -0.2224
 9784SOL    HW130515   0.191   5.118   3.298 -1.1481 -0.0443 -0.2626
 9784SOL    HW230516   0.178   5.193   3.429  1.0232 -1.1529  0.6233
 9785SOL     OW30517   2.582   1.378   8.222 -0.3330  0.2727 -0.2174
 9785SOL    HW130518   2.564   1.317   8.293 -0.1951 -0.0552 -0.4589
 9785SOL    HW230519   2.579   1.324   8.143 -0.3325  0.6028 -0.4443
 9786SOL     OW30520   1.278   5.449   2.019  0.3853  0.9383 -0.2921
 9786SOL    HW130521   1.190   5.447   1.981  0.0475  1.7464  0.4156
 9786SOL    HW230522   1.327   5.509   1.963  0.2906  1.0373 -0.2676
 9787SOL     OW30523   0.307   0.542   6.276 -0.3173 -0.1992 -0.2318
 9787SOL    HW130524   0.323   0.633   6.302 -0.7370  0.1436 -1.1301
 9787SOL    HW230525   0.228   0.517   6.323 -0.1829 -0.1170  0.0421
 9788SOL     OW30526   5.319   1.176   7.493 -0.2917  0.1702  0.4305
 9788SOL    HW130527   5.404   1.134   7.503 -0.4627 -0.2773  0.0343
 9788SOL    HW230528   5.313   1.195   7.400 -0.3953  0.7012  0.5414
 9789SOL     OW30529   6.033   8.465   6.198  0.5430 -0.1347 -0.2509
 9789SOL    HW130530   6.015   8.559   6.193 -0.8841 -0.3453  0.3603
 9789SOL    HW230531   6.098   8.457   6.267 -0.4135  0.3032  0.7363
 9790SOL     OW30532   6.553   5.061   2.548  0.0504 -0.4854 -0.3029
 9790SOL    HW130533   6.513   4.975   2.565  0.5202 -0.5248  0.6758
 9790SOL    HW230534   6.647   5.044   2.548  0.1468  0.0377 -0.0509
 9791SOL     OW30535   3.367   3.824   5.577 -0.0463 -0.2005  0.0682
 9791SOL    HW130536   3.384   3.884   5.650  0.7288 -2.7235  2.1016
 9791SOL    HW230537   3.433   3.755   5.587 -1.9817 -2.3453 -1.0231
 9792SOL     OW30538   7.515   6.087   3.360 -0.2297  0.5842  0.1524
 9792SOL    HW130539   7.463   6.024   3.411  0.4988 -0.5267 -0.4448
 9792SOL    HW230540   7.602   6.083   3.399 -0.3955  1.9930  0.7493
 9793SOL     OW30541   2.342   3.807   6.884 -0.3498  0.4085  0.2040
 9793SOL    HW130542   2.308   3.753   6.812 -1.0650  0.9814  0.0983
 9793SOL    HW230543   2.436   3.813   6.867 -0.6550  1.4264 -1.3001
 9794SOL     OW30544   5.153   6.160   4.510  0.0144 -0.3036 -0.1060
 9794SOL    HW130545   5.205   6.146   4.589  0.3197 -2.1634 -0.5925
 9794SOL    HW230546   5.200   6.113   4.441 -0.5685  0.7674 -1.2671
 9795SOL     OW30547   4.918   5.273   5.891  0.1079  0.0912 -0.4928
 9795SOL    HW130548   4.872   5.264   5.807 -1.0937 -2.3452  0.3339
 9795SOL    HW230549   4.851   5.308   5.950 -0.2156 -1.7792  0.2970
 9796SOL     OW30550   5.341   8.783   7.496  0.3669  0.1689  0.3967
 9796SOL    HW130551   5.326   8.724   7.422  1.6458  1.2253 -0.7728
 9796SOL    HW230552   5.317   8.870   7.462  1.8308  0.8004  0.8818
 9797SOL     OW30553   0.011   8.604   8.302 -0.2393 -0.5453  0.3886
 9797SOL    HW130554  -0.017   8.513   8.290  0.1870 -0.5777 -0.4284
 9797SOL    HW230555   0.089   8.598   8.357 -0.0959 -0.6899  0.1701
 9798SOL     OW30556   0.276   2.703   3.675 -0.2582  0.2104  0.5089
 9798SOL    HW130557   0.255   2.668   3.762 -2.5680  3.2476  1.3873
 9798SOL    HW230558   0.225   2.650   3.615 -0.4117 -0.5383  1.2802
 9799SOL     OW30559   2.749   8.282   2.777 -0.2502  0.7180 -0.0538
 9799SOL    HW130560   2.774   8.248   2.691  0.3259  1.9820 -0.4155
 9799SOL    HW230561   2.696   8.213   2.816 -1.5130  0.5796 -1.8967
 9800SOL     OW30562   2.807   6.576   4.652  0.4740  0.7112 -0.5425
 9800SOL    HW130563   2.765   6.497   4.687  0.5112  0.2695 -1.4751
 9800SOL    HW230564   2.741   6.614   4.594  1.5065 -0.2947 -2.4668
 9801SOL     OW30565   2.933   1.433   8.627 -0.5807 -0.1212 -0.4347
 9801SOL    HW130566   2.893   1.451   8.542  0.1952  0.0506 -0.7700
 9801SOL    HW230567   2.909   1.508   8.681 -0.1257  0.3232 -0.8419
 9802SOL     OW30568   5.484   5.343   5.806  0.0438  0.1885  0.1476
 9802SOL    HW130569   5.434   5.399   5.746 -0.3243 -1.0005 -0.7106
 9802SOL    HW230570   5.512   5.270   5.751  1.5906  0.1526  0.9393
 9803SOL     OW30571   1.100   4.911   0.794 -0.4053  0.8141 -0.1974
 9803SOL    HW130572   1.185   4.946   0.766  0.4894 -1.3363 -0.3529
 9803SOL    HW230573   1.036   4.972   0.758  1.0637  2.6955  0.2313
 9804SOL     OW30574   4.336   8.672   8.768  0.2534  0.7601 -0.0585
 9804SOL    HW130575   4.366   8.607   8.832 -2.4289 -0.4973  0.0796
 9804SOL    HW230576   4.328   8.623   8.686 -2.1507  0.7163  0.1230
 9805SOL     OW30577   7.241   6.268   2.795  0.4400  0.2653 -0.2570
 9805SOL    HW130578   7.222   6.174   2.793 -0.4448  0.4383 -0.5841
 9805SOL    HW230579   7.334   6.274   2.772  0.7193 -0.5759  0.5682
 9806SOL     OW30580   5.362   4.935   2.595  0.5155  0.0991 -0.0673
 9806SOL    HW130581   5.340   4.853   2.552 -0.6330  0.3318  0.0243
 9806SOL    HW230582   5.418   4.981   2.532  0.1578 -0.2420 -0.6521
 9807SOL     OW30583   5.324   4.748   0.758 -0.0037  0.0866  0.1464
 9807SOL    HW130584   5.380   4.680   0.797  0.9134 -1.7044 -3.7993
 9807SOL    HW230585   5.370   4.830   0.777  2.1830 -1.0105 -0.0292
 9808SOL     OW30586   2.744   1.619   3.903  0.1199  0.0001  0.1458
 9808SOL    HW130587   2.759   1.661   3.987  1.1966  1.1490 -0.5958
 9808SOL    HW230588   2.823   1.637   3.852 -0.3179 -1.0544 -0.9616
 9809SOL     OW30589   1.626   2.309   1.575  0.1831 -0.3112 -0.0442
 9809SOL    HW130590   1.547   2.313   1.521 -0.9446  1.8257  1.5531
 9809SOL    HW230591   1.601   2.355   1.656  1.8256 -3.0511  2.2261
 9810SOL     OW30592   3.797   1.096   2.007  0.0593 -0.7121  0.1800
 9810SOL    HW130593   3.796   1.153   1.931 -3.0139 -1.0934 -0.1992
 9810SOL    HW230594   3.872   1.124   2.058  1.0275  0.8845 -1.9991
 9811SOL     OW30595   0.544   4.997   4.297  0.0502 -0.2793 -0.4005
 9811SOL    HW130596   0.553   4.935   4.225 -0.3444 -0.4574 -0.2968
 9811SOL    HW230597   0.633   5.009   4.329  0.1854 -0.4484 -0.7091
 9812SOL     OW30598   1.942   1.153   1.986 -0.3213  0.2657  0.0702
 9812SOL    HW130599   1.888   1.232   1.984  1.1743  1.3920  1.0162
 9812SOL    HW230600   1.899   1.096   2.049 -2.0019 -0.1713 -1.4005
 9813SOL     OW30601   7.223   2.517   1.124  0.0463  0.3215  0.0779
 9813SOL    HW130602   7.288   2.579   1.090  0.4660 -1.0466 -1.8079
 9813SOL    HW230603   7.270   2.465   1.189  0.3756  0.4448 -0.0601
 9814SOL     OW30604   7.026   7.592   6.474  0.3990 -0.1170 -0.2963
 9814SOL    HW130605   7.031   7.647   6.396  0.0922  1.6504  0.8587
 9814SOL    HW230606   7.115   7.593   6.510  0.0248  1.2023  0.6977
 9815SOL     OW30607   3.356   8.792   2.239  0.3648  0.2595 -0.3772
 9815SOL    HW130608   3.410   8.713   2.235 -1.0652 -0.7421 -1.3927
 9815SOL    HW230609   3.273   8.762   2.277 -0.0174  1.3835 -0.2972
 9816SOL     OW30610   7.889   2.910   2.774 -0.0454  0.4159 -0.0516
 9816SOL    HW130611   7.971   2.933   2.731  0.6162 -0.4617  0.7057
 9816SOL    HW230612   7.894   2.815   2.788 -0.6806  0.5109  1.0127
 9817SOL     OW30613   2.116   7.360   5.070 -0.1929 -0.3800 -0.1903
 9817SOL    HW130614   2.157   7.366   4.984  0.4364  2.9641  0.2180
 9817SOL    HW230615   2.167   7.294   5.116  1.9551  0.5125 -1.1606
 9818SOL     OW30616   4.519   3.953   3.108  0.1485 -0.1683  0.2075
 9818SOL    HW130617   4.603   3.918   3.081  1.1240  0.7312  1.8815
 9818SOL    HW230618   4.533   4.047   3.117 -0.8537 -0.0684  1.0764
 9819SOL     OW30619   0.548   3.243   1.327  0.0793  0.4326  0.0723
 9819SOL    HW130620   0.510   3.166   1.370  0.8552  0.1079  0.1909
 9819SOL    HW230621   0.509   3.318   1.373  1.0055  0.0999  1.4625
 9820SOL     OW30622   4.551   6.509   6.694 -0.1879 -0.8384 -0.0675
 9820SOL    HW130623   4.585   6.555   6.618 -0.0808 -2.9129 -1.3161
 9820SOL    HW230624   4.552   6.575   6.764  1.9557  0.4444 -1.2251
 9821SOL     OW30625   7.200   4.071   7.975  0.0547 -0.1117 -0.1369
 9821SOL    HW130626   7.228   4.020   7.899 -1.1963 -0.4347 -0.3975
 9821SOL    HW230627   7.104   4.067   7.973 -0.0389  1.3484  0.4625
 9822SOL     OW30628   1.654   3.818   0.015  0.4350 -0.4398  0.0439
 9822SOL    HW130629   1.692   3.795   0.100 -0.0991 -1.7472 -0.0427
 9822SOL    HW230630   1.589   3.885   0.035  0.9120 -0.1182  0.5483
 9823SOL     OW30631   4.792   0.413   7.634 -0.1048  0.2617 -0.1620
 9823SOL    HW130632   4.735   0.489   7.647  1.1144  0.8898  2.0224
 9823SOL    HW230633   4.734   0.337   7.641 -1.4033  0.8829 -2.7003
 9824SOL     OW30634   1.159   7.425   1.155 -0.5191 -0.0582  0.4640
 9824SOL    HW130635   1.246   7.436   1.192 -0.6395 -0.0761  0.7529
 9824SOL    HW230636   1.121   7.513   1.154  0.6021  0.5062 -2.4478
 9825SOL     OW30637   8.420   6.395   0.862 -0.0219 -0.3498 -0.0212
 9825SOL    HW130638   8.393   6.484   0.885  0.8188 -0.3524  1.0693
 9825SOL    HW230639   8.398   6.343   0.940 -1.8295 -1.4026 -1.1807
 9826SOL     OW30640   1.178   1.982   8.067 -0.2909  0.6122 -0.1095
 9826SOL    HW130641   1.159   2.074   8.046 -1.4760  0.2850 -0.5615
 9826SOL    HW230642   1.233   1.952   7.994 -1.9741  0.2979 -1.3193
 9827SOL     OW30643   0.689   2.404   3.791 -0.3831  0.0860 -0.3685
 9827SOL    HW130644   0.768   2.350   3.785  0.1767  0.9520 -0.8874
 9827SOL    HW230645   0.709   2.469   3.858 -0.2811  0.8955 -1.1630
 9828SOL     OW30646   7.111   4.819   5.691 -0.0621  0.3505  0.3961
 9828SOL    HW130647   7.178   4.860   5.746 -0.3981  0.3274  0.8324
 9828SOL    HW230648   7.029   4.833   5.739 -0.3490  0.2426 -0.0545
 9829SOL     OW30649   6.941   4.078   8.030  0.3766 -0.1287 -0.5142
 9829SOL    HW130650   6.927   4.115   8.117 -0.2583  0.5117 -0.8804
 9829SOL    HW230651   6.864   4.025   8.014  0.8219 -0.8242 -0.4065
 9830SOL     OW30652   1.897   1.933   7.799  0.6685  0.0252  0.5528
 9830SOL    HW130653   1.950   1.863   7.838  2.0110 -0.0894 -1.3000
 9830SOL    HW230654   1.911   2.008   7.856  4.1723  0.4355 -0.5889
 9831SOL     OW30655   5.696   4.646   1.899  0.2143  0.3309  0.3790
 9831SOL    HW130656   5.652   4.654   1.815 -0.3215  1.5534  0.7540
 9831SOL    HW230657   5.645   4.581   1.947 -1.1951  1.6958  0.7930
 9832SOL     OW30658   2.930   8.584   1.379 -0.0464 -0.8372  0.1993
 9832SOL    HW130659   2.855   8.578   1.438  0.1827  1.7634  0.8760
 9832SOL    HW230660   2.901   8.542   1.298 -2.2681  0.1114  0.4378
 9833SOL     OW30661   1.296   3.825   0.920 -0.0104  0.2458 -0.5680
 9833SOL    HW130662   1.381   3.870   0.922 -0.1297  0.4535  0.1314
 9833SOL    HW230663   1.232   3.894   0.905  0.0424 -0.0925 -2.6331
 9834SOL     OW30664   7.591   1.362   3.633  0.7239 -0.3751  0.0708
 9834SOL    HW130665   7.646   1.431   3.596  0.9720 -0.2709  0.6316
 9834SOL    HW230666   7.512   1.363   3.579  0.6392  0.4884  0.2051
 9835SOL     OW30667   6.242   7.472   3.636  0.2365 -0.2760 -0.1343
 9835SOL    HW130668   6.301   7.413   3.589 -0.8751 -0.3957 -1.4343
 9835SOL    HW230669   6.157   7.461   3.593 -0.5077  0.6424  1.0333
 9836SOL     OW30670   0.085   0.884   8.128  0.3866  0.1721 -0.7176
 9836SOL    HW130671   0.082   0.922   8.040 -0.4800 -0.3235 -0.9159
 9836SOL    HW230672   0.110   0.956   8.185 -1.4036  1.1188 -1.0583
 9837SOL     OW30673   6.293   5.601   4.128  0.1597 -0.3949 -0.1290
 9837SOL    HW130674   6.227   5.670   4.130  0.6334  0.0416  1.1878
 9837SOL    HW230675   6.241   5.520   4.127 -0.4068 -0.0503  0.2907
 9838SOL     OW30676   3.601   5.228   5.009  0.0419  0.4386 -0.3234
 9838SOL    HW130677   3.591   5.317   5.042  0.3694 -0.2534  1.8141
 9838SOL    HW230678   3.584   5.172   5.085 -0.6484 -1.3600 -1.7166
 9839SOL     OW30679   1.081   2.887   0.347 -0.1055  0.3952  0.0248
 9839SOL    HW130680   1.047   2.814   0.295 -0.8817  0.5877  0.2576
 9839SOL    HW230681   1.175   2.869   0.353 -0.1353 -0.0900 -0.7055
 9840SOL     OW30682   4.946   6.001   2.019 -0.1952 -0.3751  0.3848
 9840SOL    HW130683   4.879   5.959   2.073  0.8405 -1.5083  0.8137
 9840SOL    HW230684   5.001   6.048   2.082  0.7523 -1.3340  0.2950
 9841SOL     OW30685   3.913   1.726   3.342  0.3964 -0.1787 -0.0316
 9841SOL    HW130686   3.897   1.820   3.335  0.2742 -0.0852  1.2862
 9841SOL    HW230687   3.881   1.690   3.259 -0.4124  0.8276 -0.1774
 9842SOL     OW30688   5.133   3.297   1.878 -0.3900  0.0037 -0.4000
 9842SOL    HW130689   5.195   3.239   1.834 -0.1878 -1.5710  1.8070
 9842SOL    HW230690   5.183   3.376   1.896  0.4244 -0.5241 -0.2937
 9843SOL     OW30691   6.384   2.216   0.526 -0.3153 -0.6607 -1.0963
 9843SOL    HW130692   6.291   2.215   0.505 -0.2084 -0.3864 -1.6071
 9843SOL    HW230693   6.410   2.308   0.516 -0.0076 -0.7182 -0.8651
 9844SOL     OW30694   0.486   5.802   3.877  0.1134  0.6100 -0.7156
 9844SOL    HW130695   0.508   5.893   3.862 -0.7244  0.8279 -0.6910
 9844SOL    HW230696   0.395   5.794   3.847 -0.4261  0.2165  0.9163
 9845SOL     OW30697   7.225   4.848   2.338  0.3831 -0.1346 -0.1665
 9845SOL    HW130698   7.244   4.814   2.250 -0.3120 -0.0927 -0.3371
 9845SOL    HW230699   7.293   4.913   2.353 -1.0088  1.8322 -1.7950
 9846SOL     OW30700   5.355   7.038   6.946  0.0345  0.9670  0.2615
 9846SOL    HW130701   5.398   7.112   6.989 -1.3126  2.5462 -0.9579
 9846SOL    HW230702   5.389   7.039   6.856  0.3300 -0.1961  0.3393
 9847SOL     OW30703   0.089   6.336   6.523 -0.0804  0.1932 -0.4503
 9847SOL    HW130704   0.038   6.257   6.539  1.2242 -1.0405 -2.1119
 9847SOL    HW230705   0.101   6.339   6.428  0.3480  2.1219 -0.3817
 9848SOL     OW30706   5.108   8.449   4.222 -0.4051 -0.0905  0.1441
 9848SOL    HW130707   5.043   8.461   4.153 -0.2720  1.7057  0.2849
 9848SOL    HW230708   5.101   8.527   4.276  1.0932 -0.3831  0.8334
 9849SOL     OW30709   0.946   3.177   0.076 -0.1757  0.5764 -0.9415
 9849SOL    HW130710   0.959   3.087   0.047  1.0382  0.5131 -0.2636
 9849SOL    HW230711   1.004   3.229   0.020  2.0784  0.4709  1.1315
 9850SOL     OW30712   4.960   7.411   7.174 -0.1869 -0.0635 -0.1994
 9850SOL    HW130713   4.885   7.438   7.122 -0.4367  0.0793  0.2264
 9850SOL    HW230714   4.922   7.366   7.249  0.0909  0.9636  0.5841
 9851SOL     OW30715   7.773   4.366   0.491  0.3199 -0.7207 -0.9387
 9851SOL    HW130716   7.858   4.339   0.455  1.0912  0.9024 -0.4323
 9851SOL    HW230717   7.751   4.446   0.444 -0.5554 -0.6975 -0.5180
 9852SOL     OW30718   8.269   4.828   0.290 -0.1129 -0.7854  0.1311
 9852SOL    HW130719   8.225   4.911   0.310  1.5418  0.1381  0.0507
 9852SOL    HW230720   8.360   4.842   0.314  0.2273 -2.5537 -0.0157
 9853SOL     OW30721   2.777   5.083   8.268  0.3134 -0.3670 -0.2060
 9853SOL    HW130722   2.718   5.152   8.237 -1.4390  0.2395  3.7763
 9853SOL    HW230723   2.865   5.120   8.257 -0.3485  0.8831 -1.6405
 9854SOL     OW30724   1.703   0.730   3.333  0.4740  0.2323 -0.2746
 9854SOL    HW130725   1.784   0.704   3.377  1.1983  1.3446 -0.9016
 9854SOL    HW230726   1.694   0.823   3.351 -1.2209 -0.0752  0.6079
 9855SOL     OW30727   1.390   6.250   3.271  0.0182  0.0071  0.3212
 9855SOL    HW130728   1.339   6.313   3.220 -0.2743 -1.0379 -0.7420
 9855SOL    HW230729   1.385   6.281   3.361  0.2622  1.7291 -0.2358
 9856SOL     OW30730   0.480   1.744   8.817  0.2845 -0.5487 -0.3819
 9856SOL    HW130731   0.570   1.760   8.844 -0.1114  0.3558  0.4654
 9856SOL    HW230732   0.472   1.649   8.816  1.3421 -0.6431 -0.8019
 9857SOL     OW30733   7.737   3.658   3.268 -0.0156  0.3099  0.2812
 9857SOL    HW130734   7.796   3.597   3.225  0.7664  0.1533  1.5212
 9857SOL    HW230735   7.795   3.714   3.320 -0.6441  2.4299 -1.1492
 9858SOL     OW30736   1.970   4.446   6.848 -0.1065  0.3984  0.5865
 9858SOL    HW130737   1.987   4.517   6.911  0.0202 -0.2052  1.2437
 9858SOL    HW230738   2.032   4.377   6.873 -0.6620 -0.1904  0.3568
 9859SOL     OW30739   2.376   2.420   5.454 -0.9936 -0.1229 -0.2743
 9859SOL    HW130740   2.284   2.394   5.446 -0.9692 -0.2015 -0.2957
 9859SOL    HW230741   2.425   2.348   5.415 -0.8789 -0.4299  0.4185
 9860SOL     OW30742   8.094   5.967   3.660 -0.2603 -0.1137 -0.4674
 9860SOL    HW130743   8.154   5.903   3.697  0.2850  0.7074  0.1084
 9860SOL    HW230744   8.008   5.940   3.694 -0.0232 -0.4666 -0.1300
 9861SOL     OW30745   3.747   7.019   3.878  0.3483 -0.0256 -0.0921
 9861SOL    HW130746   3.794   7.099   3.855 -0.8589  0.3855 -1.2358
 9861SOL    HW230747   3.704   7.038   3.961  0.2563  0.4350 -0.2464
 9862SOL     OW30748   6.946   8.162   5.785 -0.3559  0.1317  0.0253
 9862SOL    HW130749   6.950   8.070   5.811 -0.8088 -0.5265 -2.0340
 9862SOL    HW230750   6.852   8.182   5.783 -0.2744  0.5188  0.0169
 9863SOL     OW30751   1.699   1.484   0.751  0.0353 -0.1440 -0.1485
 9863SOL    HW130752   1.610   1.463   0.779  1.0016 -1.3080  2.3449
 9863SOL    HW230753   1.745   1.399   0.750  1.2088  0.4660 -1.1244
 9864SOL     OW30754   6.796   0.168   7.775 -0.3533 -0.4260  0.3706
 9864SOL    HW130755   6.881   0.210   7.761 -0.6832 -0.0490 -0.5758
 9864SOL    HW230756   6.757   0.217   7.848 -1.0608  1.4867 -1.1903
 9865SOL     OW30757   8.657   7.589   1.744 -0.6172 -0.2383 -0.1968
 9865SOL    HW130758   8.586   7.640   1.704 -0.8605  0.6608  1.2935
 9865SOL    HW230759   8.734   7.609   1.690 -1.1029  0.2913 -0.7088
 9866SOL     OW30760   1.944   2.745   6.437  0.0251 -0.0727  0.4182
 9866SOL    HW130761   1.969   2.781   6.522  2.3118 -0.3122 -0.0844
 9866SOL    HW230762   1.973   2.811   6.374  0.1622 -0.7662 -0.2591
 9867SOL     OW30763   7.675   4.406   8.762  0.1428 -0.7204 -0.2225
 9867SOL    HW130764   7.588   4.408   8.721 -0.7008  1.4199  1.5014
 9867SOL    HW230765   7.669   4.335   8.826 -1.1226  0.6889  1.3200
 9868SOL     OW30766   5.039   2.202   7.685 -0.0932  0.3369  0.5572
 9868SOL    HW130767   5.064   2.143   7.614 -1.1296 -0.1947  0.6152
 9868SOL    HW230768   4.944   2.213   7.675 -0.2588  0.2519  1.8588
 9869SOL     OW30769   3.298   1.240   1.035  0.0496  0.1088 -0.5246
 9869SOL    HW130770   3.235   1.231   1.107  0.3340  2.0334  0.0384
 9869SOL    HW230771   3.261   1.188   0.964 -1.3976 -0.0333  0.2954
 9870SOL     OW30772   6.475   6.975   5.270  0.0735 -0.2638 -0.1233
 9870SOL    HW130773   6.521   6.948   5.191 -0.6585 -0.9529 -0.3323
 9870SOL    HW230774   6.443   6.893   5.308  0.9569 -0.0021  1.2447
 9871SOL     OW30775   7.483   8.072   8.628 -0.1245 -0.0509 -0.0062
 9871SOL    HW130776   7.512   7.994   8.675 -0.1006 -0.8709 -1.3554
 9871SOL    HW230777   7.498   8.144   8.690  0.6851 -0.9977  0.9241
 9872SOL     OW30778   0.763   1.091   6.919 -0.3047 -0.3051 -0.2914
 9872SOL    HW130779   0.811   1.057   6.995  0.4506 -1.6712 -1.3270
 9872SOL    HW230780   0.785   1.184   6.916  0.9103 -0.5490  0.2687
 9873SOL     OW30781   2.284   8.056   1.543  0.3017  0.0442 -0.2256
 9873SOL    HW130782   2.323   7.969   1.558  0.1889 -0.1901 -1.2326
 9873SOL    HW230783   2.357   8.117   1.553  0.3892 -0.1626  0.4585
 9874SOL     OW30784   0.308   2.778   5.254 -0.1586  0.1050  0.5632
 9874SOL    HW130785   0.213   2.782   5.256 -0.2015  1.3345 -1.3458
 9874SOL    HW230786   0.328   2.697   5.207 -0.3042  0.3915 -0.0033
 9875SOL     OW30787   5.231   1.531   7.344  0.0525  0.3939  0.1643
 9875SOL    HW130788   5.310   1.478   7.343 -0.7667 -0.8863 -1.5905
 9875SOL    HW230789   5.213   1.550   7.252 -0.8913  1.9245  0.6099
 9876SOL     OW30790   5.835   2.149   6.330 -0.3036 -0.4646  0.1633
 9876SOL    HW130791   5.923   2.166   6.298 -1.1360 -0.3033 -2.1923
 9876SOL    HW230792   5.798   2.086   6.268 -1.6187 -1.1185  1.5270
 9877SOL     OW30793   5.746   8.502   7.145  0.2813 -0.1946 -0.0536
 9877SOL    HW130794   5.796   8.555   7.205 -0.5351  0.8883 -0.3032
 9877SOL    HW230795   5.767   8.536   7.058  0.8218 -1.2057 -0.3430
 9878SOL     OW30796   2.549   0.864   6.721 -0.2485  0.0542 -0.6942
 9878SOL    HW130797   2.486   0.827   6.660 -0.4144  0.3606 -0.7086
 9878SOL    HW230798   2.634   0.852   6.678 -0.3252 -0.0784 -0.8105
 9879SOL     OW30799   4.107   8.855   7.179 -0.2484  0.1194 -0.1815
 9879SOL    HW130800   4.182   8.809   7.141  0.1523 -1.3355  2.1311
 9879SOL    HW230801   4.130   8.948   7.173  0.2852 -0.1052 -2.3079
 9880SOL     OW30802   2.037   8.072   5.119  0.6084  0.2492  0.2500
 9880SOL    HW130803   2.027   8.061   5.214 -0.2358  0.9487  0.2553
 9880SOL    HW230804   2.001   7.991   5.082 -1.7723  1.1290  0.4426
 9881SOL     OW30805   6.639   3.181   3.834  0.3199  0.4001 -0.5904
 9881SOL    HW130806   6.575   3.114   3.808  0.1987  0.5414 -0.6587
 9881SOL    HW230807   6.689   3.199   3.755  0.2988  0.4481 -0.5931
 9882SOL     OW30808   5.737   1.617   5.383  0.3418  0.1638 -0.1091
 9882SOL    HW130809   5.792   1.623   5.305  0.9682 -1.9647  0.1077
 9882SOL    HW230810   5.650   1.596   5.350  0.2937  0.6594 -0.3012
 9883SOL     OW30811   5.842   6.210   8.162 -0.7297 -0.8039  0.3727
 9883SOL    HW130812   5.856   6.222   8.255 -0.3006 -0.8697  0.3203
 9883SOL    HW230813   5.913   6.259   8.120 -1.5317  0.1122  0.0475
 9884SOL     OW30814   5.876   0.001   0.132  0.2012 -0.3711  0.5973
 9884SOL    HW130815   5.857  -0.021   0.041 -0.7253 -0.7674  0.8751
 9884SOL    HW230816   5.921  -0.076   0.166  1.0274 -0.0114  0.3359
 9885SOL     OW30817   5.116   6.822   0.320  0.2540 -0.1039  0.1396
 9885SOL    HW130818   5.071   6.891   0.271 -0.4764 -0.7233 -0.0760
 9885SOL    HW230819   5.047   6.765   0.350  0.7585 -0.0931  1.3640
 9886SOL     OW30820   7.536   8.395   2.499  0.3578 -0.0189 -0.1802
 9886SOL    HW130821   7.480   8.408   2.422  0.9269 -2.4187 -1.0915
 9886SOL    HW230822   7.625   8.411   2.466  0.5793 -0.8166 -0.0034
 9887SOL     OW30823   6.038   6.702   0.637 -0.2712 -0.5018 -0.2409
 9887SOL    HW130824   6.027   6.765   0.566 -1.0552 -0.6952 -0.3011
 9887SOL    HW230825   5.984   6.737   0.708  1.1696  0.1454  0.5879
 9888SOL     OW30826   1.795   4.807   6.409  0.0771 -0.3842  0.0957
 9888SOL    HW130827   1.749   4.726   6.429  0.0314 -0.3267  0.2262
 9888SOL    HW230828   1.795   4.812   6.313  1.9961 -1.6609 -0.0373
 9889SOL     OW30829   7.821   6.693   4.957  0.4453 -0.2700 -0.9733
 9889SOL    HW130830   7.845   6.738   5.038 -0.0359 -0.7366 -0.5620
 9889SOL    HW230831   7.815   6.762   4.892 -0.9609  0.3743 -0.2040
 9890SOL     OW30832   2.714   6.341   0.313 -0.2124 -0.5907  0.0147
 9890SOL    HW130833   2.726   6.259   0.266  0.4507 -0.5679  0.1426
 9890SOL    HW230834   2.763   6.406   0.263 -2.4279  0.1979 -1.2832
 9891SOL     OW30835   2.950   1.918   3.175  0.1771 -0.2729 -0.4702
 9891SOL    HW130836   2.878   1.971   3.140  0.5638  0.4003 -0.2641
 9891SOL    HW230837   2.910   1.869   3.247  0.1799  1.0114  0.4443
 9892SOL     OW30838   2.178   6.432   6.854  0.1575  0.7141 -0.2844
 9892SOL    HW130839   2.259   6.479   6.872  0.4614 -0.1939  0.8524
 9892SOL    HW230840   2.180   6.357   6.913 -0.6158 -0.3808 -1.5775
 9893SOL     OW30841   5.083   8.261   8.423  0.3570 -0.2492 -0.1056
 9893SOL    HW130842   5.145   8.193   8.396 -0.4133 -0.5853 -1.0775
 9893SOL    HW230843   5.034   8.222   8.496 -0.8810 -1.2087 -1.4133
 9894SOL     OW30844   5.301   1.797   7.484  0.1311  0.2719  0.3459
 9894SOL    HW130845   5.263   1.736   7.421  0.5005  0.0764  0.3053
 9894SOL    HW230846   5.391   1.811   7.452 -0.4633  2.2265 -0.6738
 9895SOL     OW30847   1.987   1.413   5.041 -0.2428 -0.3044 -0.3555
 9895SOL    HW130848   1.988   1.459   5.125 -0.7390  0.2380 -0.6424
 9895SOL    HW230849   2.004   1.482   4.976  1.8302 -0.9713 -0.5993
 9896SOL     OW30850   7.816   2.384   7.356  0.1078 -0.3314  0.0145
 9896SOL    HW130851   7.786   2.475   7.350 -0.3928 -0.2685  2.5842
 9896SOL    HW230852   7.792   2.346   7.272  0.9604  2.0538 -1.4384
 9897SOL     OW30853   3.749   7.296   6.746  0.0226 -0.1778  0.0115
 9897SOL    HW130854   3.771   7.303   6.653  2.1167 -0.2861  0.4378
 9897SOL    HW230855   3.772   7.382   6.782 -2.0193  0.3223  0.2482
 9898SOL     OW30856   8.348   0.330   7.323 -0.3168 -0.2653  0.2996
 9898SOL    HW130857   8.393   0.405   7.284  0.7612 -0.1069  1.7393
 9898SOL    HW230858   8.255   0.347   7.308  0.0316 -0.7483 -3.0416
 9899SOL     OW30859   8.549   6.715   0.395 -0.2529  0.5076 -0.2875
 9899SOL    HW130860   8.472   6.659   0.387  0.6957 -1.1012  1.3458
 9899SOL    HW230861   8.600   6.697   0.316  0.1241 -1.1096  0.3003
 9900SOL     OW30862   1.140   2.330   8.603 -0.3412  0.3459  0.1358
 9900SOL    HW130863   1.067   2.272   8.625 -0.7749  1.2666  1.2530
 9900SOL    HW230864   1.215   2.293   8.649 -0.2374 -0.2463 -0.4997
 9901SOL     OW30865   0.880   6.840   6.579  0.3539 -0.9589 -0.2599
 9901SOL    HW130866   0.851   6.771   6.520 -0.9732 -0.2170 -0.5274
 9901SOL    HW230867   0.973   6.825   6.591  0.1277 -2.6742 -0.4528
 9902SOL     OW30868   6.063   1.441   1.596  0.5431 -0.3653 -0.1890
 9902SOL    HW130869   5.980   1.467   1.636  1.6924 -0.0557  2.1748
 9902SOL    HW230870   6.078   1.506   1.527  0.3936  1.6470  1.5761
 9903SOL     OW30871   8.781   7.802   2.374  0.4012  0.5024  0.6227
 9903SOL    HW130872   8.724   7.736   2.336  1.8654 -0.8565  0.6561
 9903SOL    HW230873   8.803   7.768   2.461  2.8275 -0.0972 -0.1305
 9904SOL     OW30874   2.870   0.318   5.294 -0.1637  0.2560  0.1483
 9904SOL    HW130875   2.919   0.400   5.286 -2.1265  1.5848  1.0345
 9904SOL    HW230876   2.892   0.269   5.215  2.2021  0.9629  0.3071
 9905SOL     OW30877   5.178   7.950   8.073 -0.3529 -0.1389 -0.4891
 9905SOL    HW130878   5.123   8.028   8.082 -1.0329 -0.6451 -0.1677
 9905SOL    HW230879   5.154   7.912   7.989 -0.4828 -0.3417 -0.3635
 9906SOL     OW30880   4.088   0.468   3.670  0.7038  0.2741 -0.0618
 9906SOL    HW130881   4.043   0.389   3.702  0.9704  0.0968 -0.1158
 9906SOL    HW230882   4.180   0.444   3.671  0.7198  0.2808 -0.9384
 9907SOL     OW30883   8.735   4.492   1.622  0.4266  0.0837  0.0061
 9907SOL    HW130884   8.792   4.532   1.556 -0.1304 -0.9170 -1.1269
 9907SOL    HW230885   8.795   4.464   1.691  1.2546 -0.4146 -0.8924
 9908SOL     OW30886   8.684   7.304   4.311  0.5052 -0.2851  0.3377
 9908SOL    HW130887   8.739   7.284   4.386 -0.6897 -0.2098  1.2612
 9908SOL    HW230888   8.611   7.242   4.316  0.7038 -0.6807 -1.1114
 9909SOL     OW30889   8.206   3.685   7.241 -0.0485  0.1459 -0.6700
 9909SOL    HW130890   8.283   3.731   7.207 -1.5294 -0.1177 -4.9561
 9909SOL    HW230891   8.141   3.754   7.254  0.1620  0.0990  0.8107
 9910SOL     OW30892   2.297   0.373   0.013 -0.1313  0.0767 -0.3602
 9910SOL    HW130893   2.361   0.437   0.045  0.2674 -1.1804  1.4899
 9910SOL    HW230894   2.335   0.341  -0.069  0.7215  0.6519 -0.2097
 9911SOL     OW30895   1.251   2.098   0.457  0.2528  0.0233 -0.0252
 9911SOL    HW130896   1.238   2.165   0.525 -0.1243  0.6767 -0.7260
 9911SOL    HW230897   1.345   2.102   0.438 -0.3027  3.4936 -3.1267
 9912SOL     OW30898   2.546   3.438   6.973  0.3213 -0.0123  0.1544
 9912SOL    HW130899   2.571   3.351   6.941  1.4764 -0.8106  2.9056
 9912SOL    HW230900   2.629   3.483   6.986 -0.1996  0.9560  0.2274
 9913SOL     OW30901   4.080   6.902   4.115  0.2184  0.0272  0.9230
 9913SOL    HW130902   4.162   6.895   4.163  0.5402  0.3448  0.4231
 9913SOL    HW230903   4.012   6.902   4.183  0.4636 -2.3816  1.2716
 9914SOL     OW30904   8.217   4.150   4.762  0.1052 -0.1413  0.3861
 9914SOL    HW130905   8.301   4.121   4.728 -0.1743  0.5956 -1.0007
 9914SOL    HW230906   8.238   4.196   4.843  1.2267  1.3262 -0.6890
 9915SOL     OW30907   3.913   0.189   4.633  0.1375 -0.3303  0.0937
 9915SOL    HW130908   3.833   0.160   4.679  0.7118  0.6755  1.8344
 9915SOL    HW230909   3.979   0.194   4.702  1.4548 -0.1519 -1.1409
 9916SOL     OW30910   1.947   5.945   3.260 -0.1686  0.6809 -0.2120
 9916SOL    HW130911   1.945   5.884   3.187  0.3393  0.7067 -0.2522
 9916SOL    HW230912   1.949   6.032   3.219  2.0819  0.6787 -0.2423
 9917SOL     OW30913   0.496   0.187   6.096  0.1307 -0.2428 -0.4558
 9917SOL    HW130914   0.502   0.184   6.192 -1.3796  0.8418 -0.3002
 9917SOL    HW230915   0.437   0.260   6.078  0.8891 -0.0280 -2.2537
 9918SOL     OW30916   7.477   1.073   0.027 -0.2918 -0.1087 -0.4348
 9918SOL    HW130917   7.569   1.091   0.046 -0.2214  0.0053 -0.8620
 9918SOL    HW230918   7.472   1.071  -0.069 -0.2884 -2.5016 -0.4287
 9919SOL     OW30919   0.672   3.451   0.018  0.1679 -0.1397  0.1451
 9919SOL    HW130920   0.713   3.396  -0.049 -0.7521  1.7719 -2.1627
 9919SOL    HW230921   0.590   3.407   0.039 -0.9575  0.6094 -2.2944
 9920SOL     OW30922   2.053   6.050   4.884  0.4306 -0.0624 -0.0078
 9920SOL    HW130923   1.989   5.998   4.835  0.7446  0.3448 -0.8658
 9920SOL    HW230924   2.133   6.045   4.832  1.5383 -1.6637  1.7199
 9921SOL     OW30925   3.002   3.194   2.152  0.6964 -0.8223  0.0381
 9921SOL    HW130926   2.941   3.250   2.199 -0.6291 -3.0052  1.0985
 9921SOL    HW230927   3.061   3.254   2.107 -0.6562  1.3679  1.0472
 9922SOL     OW30928   5.024   2.927   4.776  0.3819 -0.0601  0.0485
 9922SOL    HW130929   5.114   2.960   4.769  1.0692 -1.9121 -0.2584
 9922SOL    HW230930   5.027   2.865   4.848 -0.2019 -1.5126 -1.1364
 9923SOL     OW30931   5.340   8.820   4.579  0.2009  0.0329  0.3585
 9923SOL    HW130932   5.328   8.880   4.505 -0.7454  0.3028  0.7145
 9923SOL    HW230933   5.392   8.869   4.642  0.1155  0.1838  0.3106
 9924SOL     OW30934   5.484   6.378   0.921 -0.1891 -0.6749  0.1824
 9924SOL    HW130935   5.466   6.331   1.003  0.2776 -2.2290 -0.5849
 9924SOL    HW230936   5.420   6.449   0.921 -0.6854 -1.0840  1.5518
 9925SOL     OW30937   8.695   0.982   0.764  0.3576 -0.1451  0.3486
 9925SOL    HW130938   8.735   1.066   0.786 -2.5505  1.5089 -0.1046
 9925SOL    HW230939   8.739   0.955   0.684  1.2121  1.0433  0.3829
 9926SOL     OW30940   0.554   5.731   5.001 -0.3682  0.4119  0.4019
 9926SOL    HW130941   0.478   5.786   4.982 -0.9496 -1.0147 -1.8114
 9926SOL    HW230942   0.625   5.770   4.950 -0.5789 -0.3659 -0.5154
 9927SOL     OW30943   6.397   4.674   5.202 -0.3349  0.2771 -0.0466
 9927SOL    HW130944   6.485   4.635   5.206 -0.5981 -0.2127  1.2577
 9927SOL    HW230945   6.394   4.735   5.275 -0.9547  0.5747 -0.3141
 9928SOL     OW30946   8.410   8.301   4.939  0.4563  0.5609 -0.5287
 9928SOL    HW130947   8.338   8.238   4.934  2.0299 -1.4134  0.3091
 9928SOL    HW230948   8.447   8.301   4.850  0.1466  0.6530 -0.6565
 9929SOL     OW30949   2.943   8.759   6.697 -0.0524 -0.9214 -0.1361
 9929SOL    HW130950   2.998   8.817   6.750  0.4969  0.2400 -1.8615
 9929SOL    HW230951   3.005   8.704   6.650 -0.3717 -0.2975 -1.3317
 9930SOL     OW30952   3.756   1.968   1.431  0.2650 -0.1964  0.2150
 9930SOL    HW130953   3.835   2.018   1.449 -0.2877  0.1720  1.8593
 9930SOL    HW230954   3.720   2.007   1.351  0.5149  1.2221  0.7643
 9931SOL     OW30955   8.049   6.782   3.741 -0.1975 -0.0298 -0.0616
 9931SOL    HW130956   8.072   6.732   3.663 -0.6008  0.8603 -0.7693
 9931SOL    HW230957   8.128   6.783   3.794  0.5780  0.6824 -1.1968
 9932SOL     OW30958   2.280   0.425   5.233  0.0185 -0.1924 -0.3464
 9932SOL    HW130959   2.305   0.517   5.226 -1.0608  0.0593 -1.2310
 9932SOL    HW230960   2.208   0.424   5.297  1.1169 -0.6740  0.9258
 9933SOL     OW30961   5.407   0.408   7.797 -0.3865 -0.3213 -0.0023
 9933SOL    HW130962   5.478   0.372   7.850 -0.4569 -3.2288 -1.6887
 9933SOL    HW230963   5.338   0.342   7.800 -0.3783 -0.6942 -3.6315
 9934SOL     OW30964   6.590   8.287   6.208 -0.7953 -0.4133  0.0198
 9934SOL    HW130965   6.575   8.373   6.248 -1.8805 -0.7294  0.3210
 9934SOL    HW230966   6.680   8.265   6.231 -0.3293  0.8688 -0.4923
 9935SOL     OW30967   1.478   2.817   8.581  0.1972  0.3333 -0.0327
 9935SOL    HW130968   1.392   2.819   8.623  0.9320  1.4948  1.5009
 9935SOL    HW230969   1.478   2.892   8.522  1.0135  1.9406  1.8863
 9936SOL     OW30970   8.115   5.016   2.296 -0.4229 -0.1103  0.1628
 9936SOL    HW130971   8.023   5.006   2.320 -0.3579 -2.8315 -0.3967
 9936SOL    HW230972   8.113   5.030   2.201 -0.2662 -0.6833  0.0704
 9937SOL     OW30973   8.566   1.462   4.053  0.1098  0.0204 -0.7096
 9937SOL    HW130974   8.530   1.551   4.059 -0.5989 -0.2938 -0.1835
 9937SOL    HW230975   8.655   1.470   4.089 -0.0556  0.4541 -0.3895
 9938SOL     OW30976   6.581   1.137   7.199 -0.1328  0.4366 -0.0643
 9938SOL    HW130977   6.581   1.090   7.115  0.6560 -0.6809  0.5315
 9938SOL    HW230978   6.673   1.148   7.220 -0.2560 -1.2829  1.6970
 9939SOL     OW30979   6.636   7.233   5.129  0.1590  0.4994 -0.3130
 9939SOL    HW130980   6.682   7.176   5.191  1.4401  1.2980 -0.4899
 9939SOL    HW230981   6.547   7.198   5.126 -0.2296  0.9203  2.6467
 9940SOL     OW30982   8.007   7.929   5.127  0.0013  0.3787 -0.2662
 9940SOL    HW130983   8.070   7.949   5.058  0.3852 -0.7631 -0.2669
 9940SOL    HW230984   8.048   7.858   5.177 -0.7418  0.4710  0.4922
 9941SOL     OW30985   4.157   7.561   8.703 -0.3326  0.5027  0.0724
 9941SOL    HW130986   4.207   7.641   8.684 -0.8198  1.9605  4.0035
 9941SOL    HW230987   4.074   7.572   8.655  0.2469  1.5667 -0.7109
 9942SOL     OW30988   6.329   7.715   5.718  0.4464 -0.0574 -0.1799
 9942SOL    HW130989   6.347   7.798   5.674 -0.7781 -0.2241 -1.0582
 9942SOL    HW230990   6.250   7.732   5.770 -0.7912 -1.0713 -1.6458
 9943SOL     OW30991   5.378   1.605   3.178  0.2351  0.3976  0.5255
 9943SOL    HW130992   5.282   1.609   3.175  0.2692  0.9725 -1.6167
 9943SOL    HW230993   5.399   1.518   3.145  0.4471  1.2693 -1.8306
 9944SOL     OW30994   1.308   5.612   5.826 -0.4817  0.4822 -0.3850
 9944SOL    HW130995   1.317   5.663   5.907  0.9891 -0.9729  0.4469
 9944SOL    HW230996   1.237   5.550   5.844  1.3976 -1.4696  0.8163
 9945SOL     OW30997   3.912   4.506   3.677  0.4040  0.1866 -0.1505
 9945SOL    HW130998   3.932   4.429   3.623 -0.5170  0.6903 -1.2377
 9945SOL    HW230999   3.915   4.473   3.767 -0.3399 -1.2237 -0.6138
 9946SOL     OW31000   6.769   5.163   0.890 -0.0480 -0.1179 -0.5710
 9946SOL    HW131001   6.850   5.156   0.941 -0.0323 -0.6326 -0.6561
 9946SOL    HW231002   6.723   5.081   0.909 -1.3338  0.8681  0.7917
 9947SOL     OW31003   6.132   2.811   8.495  0.0872  0.4113  0.3779
 9947SOL    HW131004   6.148   2.889   8.549  2.5438 -0.2379  0.6788
 9947SOL    HW231005   6.129   2.739   8.558 -1.4409  0.1237  0.0240
 9948SOL     OW31006   0.824   0.541   4.003  0.2238  0.1193  0.2873
 9948SOL    HW131007   0.763   0.553   3.931 -0.1767  2.0685  0.8984
 9948SOL    HW231008   0.905   0.512   3.961  0.1981  1.8309 -1.0421
 9949SOL     OW31009   1.076   5.535   8.020 -0.3572 -1.0168 -0.4029
 9949SOL    HW131010   1.066   5.600   8.090  1.7417 -0.3442 -0.6334
 9949SOL    HW231011   1.044   5.580   7.941  0.0991 -0.6321 -0.3764
 9950SOL     OW31012   0.295   7.951   5.707  0.3660  0.1886 -0.4097
 9950SOL    HW131013   0.321   7.962   5.798  1.2216  3.0109 -0.9148
 9950SOL    HW231014   0.224   7.886   5.710  0.1406  0.4610  2.2713
 9951SOL     OW31015   7.825   2.836   2.293 -0.4869 -0.2158  0.2097
 9951SOL    HW131016   7.840   2.807   2.383  1.7918 -0.5220 -0.2023
 9951SOL    HW231017   7.913   2.858   2.260 -1.4340  1.4194 -1.4400
 9952SOL     OW31018   2.753   3.199   8.183  0.3608  0.2751  0.0972
 9952SOL    HW131019   2.801   3.126   8.143 -0.5001 -1.5523  2.2213
 9952SOL    HW231020   2.661   3.180   8.166  0.1140  0.8034  0.7834
 9953SOL     OW31021   4.947   0.370   2.529  0.6446 -0.0368 -0.1914
 9953SOL    HW131022   4.903   0.337   2.608 -0.4430 -0.5270 -0.9686
 9953SOL    HW231023   4.991   0.293   2.492  0.9337  0.1341 -0.2046
 9954SOL     OW31024   0.586   8.633   1.426  0.1560 -0.3133  0.5308
 9954SOL    HW131025   0.527   8.559   1.437 -1.4773  1.0474  1.2535
 9954SOL    HW231026   0.533   8.701   1.386  2.1014 -0.0816 -1.9563
 9955SOL     OW31027   0.365   6.729   1.579 -0.4153 -0.0439 -0.0002
 9955SOL    HW131028   0.286   6.783   1.577 -0.3024  0.1079 -0.5647
 9955SOL    HW231029   0.432   6.786   1.617 -0.7279 -0.3925  1.1124
 9956SOL     OW31030   1.207   3.997   2.519  0.0755 -0.5883  0.3115
 9956SOL    HW131031   1.160   3.997   2.435 -0.6805 -0.1645  0.7321
 9956SOL    HW231032   1.257   3.916   2.517  1.0407 -0.0108 -1.0919
 9957SOL     OW31033   3.670   8.459   5.680  0.0489 -0.4000  0.3563
 9957SOL    HW131034   3.620   8.402   5.738 -1.5556 -0.0044 -0.5918
 9957SOL    HW231035   3.685   8.539   5.732  2.7108 -1.7250  1.8624
 9958SOL     OW31036   0.905   6.789   5.100  0.2989  0.7190 -0.4156
 9958SOL    HW131037   0.879   6.701   5.074  2.3618  0.0143 -0.2446
 9958SOL    HW231038   0.974   6.813   5.039  0.8744  1.5636  0.5285
 9959SOL     OW31039   3.900   5.647   6.067 -0.2299 -0.3099  0.0445
 9959SOL    HW131040   3.908   5.575   6.129  1.0656  0.0179  0.2994
 9959SOL    HW231041   3.808   5.648   6.041 -0.2824 -1.9770  0.1146
 9960SOL     OW31042   0.370   4.753   2.914 -0.2852 -0.2887 -0.1726
 9960SOL    HW131043   0.455   4.727   2.878  0.4073  1.5168  0.0475
 9960SOL    HW231044   0.306   4.729   2.847  0.4968 -0.8425 -0.7341
 9961SOL     OW31045   3.681   8.035   1.735 -0.0011 -1.0733 -1.0061
 9961SOL    HW131046   3.703   8.050   1.827 -0.9457 -0.9409 -0.7888
 9961SOL    HW231047   3.659   8.122   1.701 -1.3224 -1.3259 -0.8818
 9962SOL     OW31048   0.478   3.425   7.586  0.5738 -0.2533 -0.6409
 9962SOL    HW131049   0.516   3.510   7.607  2.2775 -0.8829 -1.0312
 9962SOL    HW231050   0.386   3.443   7.570 -0.4030  0.7473  4.4389
 9963SOL     OW31051   3.747   8.317   0.716  0.0136 -0.0599  0.2742
 9963SOL    HW131052   3.777   8.353   0.800  0.9453  0.3629 -0.2318
 9963SOL    HW231053   3.651   8.325   0.720 -0.0004 -0.4789  1.4844
 9964SOL     OW31054   3.542   1.289   0.631 -0.1789 -0.2522 -0.1343
 9964SOL    HW131055   3.540   1.249   0.718 -1.5038  1.5045  0.7143
 9964SOL    HW231056   3.608   1.358   0.638  0.9953 -1.2331 -1.1086
 9965SOL     OW31057   5.832   4.739   8.121  0.0480 -0.4613  0.1378
 9965SOL    HW131058   5.872   4.658   8.088  0.2340 -0.6415  0.7900
 9965SOL    HW231059   5.906   4.792   8.150 -0.1605 -0.7195  1.1798
 9966SOL     OW31060   2.826   3.625   1.312 -0.9372  0.0860 -0.2783
 9966SOL    HW131061   2.767   3.688   1.269  2.6801  3.3449 -1.0155
 9966SOL    HW231062   2.835   3.657   1.401  2.8533  2.4971 -1.2912
 9967SOL     OW31063   3.858   7.191   8.245  0.1185  0.0570 -0.6707
 9967SOL    HW131064   3.948   7.169   8.270  0.8625  0.5583 -2.6929
 9967SOL    HW231065   3.850   7.284   8.265 -0.7946 -0.4507  1.6702
 9968SOL     OW31066   4.795   6.980   3.179  0.3153 -0.0144 -0.2365
 9968SOL    HW131067   4.886   6.993   3.207 -0.0737  0.0889  1.0260
 9968SOL    HW231068   4.745   6.980   3.260 -0.5608 -2.4088 -0.6995
 9969SOL     OW31069   7.894   0.773   6.381 -0.1051 -0.4792 -0.1122
 9969SOL    HW131070   7.833   0.700   6.390  0.8319 -1.1074  1.4098
 9969SOL    HW231071   7.939   0.757   6.298 -1.1129 -0.6550 -0.6523
 9970SOL     OW31072   0.054   5.802   6.262  0.4715  0.2487 -0.1438
 9970SOL    HW131073   0.057   5.813   6.357 -0.8785  2.4314 -0.2953
 9970SOL    HW231074   0.025   5.712   6.249 -3.0970  0.9897  1.6045
 9971SOL     OW31075   7.230   5.406   8.837  0.3606 -0.2526  0.2279
 9971SOL    HW131076   7.176   5.444   8.907  0.4140 -1.3724  0.9101
 9971SOL    HW231077   7.183   5.326   8.812 -0.3790  0.8039 -2.0045
 9972SOL     OW31078   6.012   5.072   4.692 -0.0225 -0.5825  0.1918
 9972SOL    HW131079   6.087   5.063   4.634 -2.6065  0.9751 -3.7603
 9972SOL    HW231080   6.022   5.159   4.730  0.3605 -0.5418  0.0020
 9973SOL     OW31081   2.704   0.779   5.134 -0.5967  0.6923  0.0734
 9973SOL    HW131082   2.796   0.803   5.131 -0.1434 -1.0135 -1.5933
 9973SOL    HW231083   2.657   0.862   5.122  0.7998  1.2612 -1.8861
 9974SOL     OW31084   7.687   6.373   7.861  0.0005  0.2749 -0.3907
 9974SOL    HW131085   7.755   6.308   7.843  0.8857  1.0374  0.0965
 9974SOL    HW231086   7.622   6.325   7.913  1.4527  0.1572  1.4186
 9975SOL     OW31087   4.142   7.380   5.911 -0.0382 -0.5020 -0.2592
 9975SOL    HW131088   4.142   7.400   5.817 -0.1181  0.2738 -0.1034
 9975SOL    HW231089   4.050   7.367   5.932  0.0787 -1.8356 -0.5140
 9976SOL     OW31090   3.551   2.409   2.076 -0.5928  0.4292 -0.0465
 9976SOL    HW131091   3.527   2.452   2.158 -0.2908 -0.6813  0.6372
 9976SOL    HW231092   3.470   2.409   2.025 -0.8822  0.7866  0.4022
 9977SOL     OW31093   5.884   4.832   8.745 -0.0045 -0.7290  0.4995
 9977SOL    HW131094   5.824   4.874   8.683  0.8480  0.7650  0.6671
 9977SOL    HW231095   5.826   4.792   8.811 -0.8373 -0.1513  0.1278
 9978SOL     OW31096   3.305   6.516   8.517  0.3148 -0.2492 -0.4351
 9978SOL    HW131097   3.362   6.454   8.472 -0.2961 -0.7717 -0.5015
 9978SOL    HW231098   3.217   6.494   8.488 -0.0897 -0.5131  0.8945
 9979SOL     OW31099   5.357   1.132   1.920 -0.1332  0.4347 -0.1099
 9979SOL    HW131100   5.405   1.067   1.868 -1.3019  0.0696 -0.7726
 9979SOL    HW231101   5.403   1.136   2.003  0.1037 -1.0806 -0.1453
 9980SOL     OW31102   8.490   1.736   1.052  0.1985  0.2486 -0.0507
 9980SOL    HW131103   8.459   1.678   1.122  1.5964  0.1496  0.5168
 9980SOL    HW231104   8.488   1.682   0.973  1.1486 -0.4970  0.4094
 9981SOL     OW31105   1.199   6.164   0.901  0.4161 -0.2171  0.3838
 9981SOL    HW131106   1.139   6.237   0.913  0.5858 -0.3169  2.0981
 9981SOL    HW231107   1.204   6.152   0.807 -1.7661  0.1930  0.1678
 9982SOL     OW31108   5.912   6.532   4.279 -0.2977 -0.1365  0.6272
 9982SOL    HW131109   5.858   6.540   4.200  0.2671 -0.3827  0.2142
 9982SOL    HW231110   5.900   6.616   4.324  0.1659  0.4083 -0.2277
 9983SOL     OW31111   4.467   2.157   5.982  0.1066  0.4874  0.2495
 9983SOL    HW131112   4.522   2.083   5.958 -0.3191  0.5683 -1.1197
 9983SOL    HW231113   4.465   2.157   6.077  3.0089  0.8916  0.3873
 9984SOL     OW31114   2.429   3.829   3.585 -0.2041  0.2790 -0.0597
 9984SOL    HW131115   2.353   3.841   3.529  0.2871  0.0161 -0.7906
 9984SOL    HW231116   2.491   3.780   3.532  1.0140  1.6350  0.0510
 9985SOL     OW31117   2.143   5.656   5.573 -0.3275 -0.1699  0.0450
 9985SOL    HW131118   2.221   5.616   5.612 -0.5525 -0.7903 -0.1318
 9985SOL    HW231119   2.171   5.745   5.549  0.2335 -0.2846  0.2658
 9986SOL     OW31120   7.001   7.281   4.298 -0.4654 -0.0542 -0.4535
 9986SOL    HW131121   7.079   7.271   4.354 -1.2277  0.1420  0.6871
 9986SOL    HW231122   6.939   7.216   4.332 -0.0076 -1.9245 -2.8918
 9987SOL     OW31123   3.620   7.767   1.621  0.2385 -0.0360  0.4417
 9987SOL    HW131124   3.603   7.745   1.712 -0.4566  1.1929  0.6362
 9987SOL    HW231125   3.643   7.860   1.623  0.4605 -0.0551 -0.6111
 9988SOL     OW31126   2.789   7.303   6.544 -0.5303  0.1757 -0.1756
 9988SOL    HW131127   2.730   7.240   6.503  0.1965 -0.4762 -0.2439
 9988SOL    HW231128   2.732   7.360   6.596 -1.3315  0.2434 -1.1022
 9989SOL     OW31129   7.361   0.947   5.478  0.2710 -0.1155 -0.2244
 9989SOL    HW131130   7.280   0.954   5.428  1.0908 -1.1595 -1.7989
 9989SOL    HW231131   7.412   0.880   5.432  2.0755  0.5922  0.6265
 9990SOL     OW31132   4.209   6.669   3.053 -0.3769 -0.0716  0.8810
 9990SOL    HW131133   4.181   6.760   3.045  0.3301  0.1624  0.9747
 9990SOL    HW231134   4.199   6.633   2.965  0.2478  0.3746  0.6207
 9991SOL     OW31135   0.677   0.903   1.310  0.1295 -0.2370  0.2772
 9991SOL    HW131136   0.759   0.860   1.334  1.3268 -0.1603 -3.0949
 9991SOL    HW231137   0.703   0.967   1.243 -2.4444  1.3036  0.6348
 9992SOL     OW31138   5.104   3.934   8.767 -0.0240 -0.3771 -0.1207
 9992SOL    HW131139   5.054   3.853   8.778 -0.1026 -0.2622  0.4155
 9992SOL    HW231140   5.043   4.003   8.791  1.0200 -0.3495  2.9966
 9993SOL     OW31141   8.500   3.955   8.303  0.3485  0.5375 -0.2132
 9993SOL    HW131142   8.412   3.991   8.296  0.4843  1.2255  1.1475
 9993SOL    HW231143   8.548   3.993   8.230 -0.5639 -0.1331 -1.1770
 9994SOL     OW31144   8.102   3.925   6.078 -0.1137  0.1926  0.1006
 9994SOL    HW131145   8.135   3.938   6.167  1.8462  2.6436 -0.8523
 9994SOL    HW231146   8.042   3.999   6.064 -1.3519 -0.8505 -0.2412
 9995SOL     OW31147   7.035   0.886   6.724 -0.0864  0.0526 -0.0673
 9995SOL    HW131148   7.074   0.915   6.641 -0.0328  1.5412  0.4503
 9995SOL    HW231149   7.096   0.822   6.758 -0.1428 -0.6371 -1.2130
 9996SOL     OW31150   5.065   5.545   7.892  0.5009 -0.3589  0.0021
 9996SOL    HW131151   5.033   5.473   7.946  0.8169 -1.1070 -0.7783
 9996SOL    HW231152   5.160   5.536   7.894  0.5024 -1.3166 -1.8363
 9997SOL     OW31153   4.401   6.089   1.879  0.1695  0.3119  0.1192
 9997SOL    HW131154   4.325   6.032   1.864  0.2315  0.5125 -1.0928
 9997SOL    HW231155   4.392   6.118   1.970 -0.8758 -0.1463  0.1773
 9998SOL     OW31156   6.439   1.590   4.611  0.5935 -0.2585  0.2346
 9998SOL    HW131157   6.505   1.632   4.556 -0.2791  0.0353 -0.6221
 9998SOL    HW231158   6.398   1.524   4.555  0.6076 -0.9027  0.9613
 9999SOL     OW31159   0.043   5.263   4.985  0.3933 -0.1949  0.1329
 9999SOL    HW131160   0.089   5.300   4.910  0.7567  1.5762  1.1883
 9999SOL    HW231161   0.101   5.192   5.015  0.1343 -1.0780 -1.3452
10000SOL     OW31162   2.729   6.147   7.475  0.0458  0.0993  0.0937
10000SOL    HW131163   2.636   6.166   7.470  0.0266 -0.0381 -0.0755
10000SOL    HW231164   2.772   6.231   7.460 -0.0583  0.2881  0.8190
10001SOL     OW31165   2.445   2.572   8.487  0.1339  0.1292 -0.1300
10001SOL    HW131166   2.387   2.578   8.563 -0.2127  0.4434 -0.4148
10001SOL    HW231167   2.504   2.499   8.508  0.9924  1.1254  1.0684
10002SOL     OW31168   5.515   2.150   1.398 -0.0276  0.2679  0.1677
10002SOL    HW131169   5.579   2.179   1.464  0.9688  0.6238 -0.9325
10002SOL    HW231170   5.505   2.226   1.340 -2.6208  0.7828  1.1437
10003SOL     OW31171   8.448   8.811   3.906 -0.4598  0.4759 -0.5872
10003SOL    HW131172   8.419   8.778   3.991 -0.6059 -2.3172 -1.6150
10003SOL    HW231173   8.367   8.825   3.857 -0.3463  1.3429 -0.5427
10004SOL     OW31174   0.504   6.101   6.027  0.4780 -0.1474 -0.7464
10004SOL    HW131175   0.415   6.135   6.034  1.1182  1.6795 -0.9266
10004SOL    HW231176   0.517   6.085   5.934  0.4045 -0.2075 -0.7457
10005SOL     OW31177   2.836   7.347   2.598 -0.2993  0.1240  1.1851
10005SOL    HW131178   2.843   7.435   2.561  0.3543 -0.0227  0.9378
10005SOL    HW231179   2.744   7.325   2.591 -0.4024  0.6321  0.8729
10006SOL     OW31180   3.325   8.222   0.332 -0.0140 -0.3042 -0.0295
10006SOL    HW131181   3.308   8.300   0.385  1.1814 -1.3714  2.0270
10006SOL    HW231182   3.245   8.171   0.340  0.1589 -0.4596  0.7795
10007SOL     OW31183   3.792   7.632   3.979 -0.5310 -0.0086 -0.0383
10007SOL    HW131184   3.725   7.700   3.991 -0.1909 -0.0352  2.4937
10007SOL    HW231185   3.743   7.550   3.983 -0.9680 -0.0367 -3.2765
10008SOL     OW31186   2.097   0.039   7.942  1.0263  0.2675 -0.6519
10008SOL    HW131187   2.024   0.095   7.914  1.0559  0.3605 -0.5461
10008SOL    HW231188   2.162   0.049   7.873  1.2091  0.7097 -0.4209
10009SOL     OW31189   5.523   4.186   6.734 -0.3435 -0.5494  0.3479
10009SOL    HW131190   5.510   4.239   6.655  1.1286  1.0886  1.1424
10009SOL    HW231191   5.528   4.096   6.701  1.7444  0.1984 -1.6829
10010SOL     OW31192   8.735   3.996   6.410  0.2131  0.4173  0.1011
10010SOL    HW131193   8.824   3.969   6.390 -0.1050 -0.0232 -0.8192
10010SOL    HW231194   8.714   4.060   6.341 -0.5502 -0.3100 -0.3555
10011SOL     OW31195   1.440   4.052   0.709 -0.4266  0.4958 -0.6012
10011SOL    HW131196   1.454   3.959   0.696  0.9105  0.4678  0.7396
10011SOL    HW231197   1.480   4.093   0.633  2.0907  0.0872  0.3885
10012SOL     OW31198   5.866   4.791   3.268 -0.4955  0.6832  0.3954
10012SOL    HW131199   5.871   4.698   3.243 -0.9898  0.5170  0.9060
10012SOL    HW231200   5.953   4.812   3.300 -0.0895  0.6690 -0.6371
10013SOL     OW31201   0.835   4.428   2.342 -0.4152  0.4696 -0.6072
10013SOL    HW131202   0.843   4.473   2.426  0.1282  0.0947 -0.4547
10013SOL    HW231203   0.859   4.494   2.277 -3.2286  1.5548 -0.6955
10014SOL     OW31204   5.408   0.122   7.687  0.1981  0.5611  0.5509
10014SOL    HW131205   5.494   0.162   7.671  0.4495  0.0624  0.6467
10014SOL    HW231206   5.404   0.049   7.626  0.1190  0.1794  1.0062
10015SOL     OW31207   6.197   8.350   1.840  0.2628 -0.2485  0.1029
10015SOL    HW131208   6.184   8.265   1.799  1.6391 -0.2551 -0.3763
10015SOL    HW231209   6.270   8.336   1.901  1.6518  0.9403 -1.2088
10016SOL     OW31210   6.547   3.480   6.453  0.4069 -0.4695 -0.3071
10016SOL    HW131211   6.482   3.550   6.460  0.3104 -0.4837 -0.9791
10016SOL    HW231212   6.525   3.420   6.524  1.2911  0.8170  1.1021
10017SOL     OW31213   1.323   2.754   1.796  0.6299  0.1785  0.1374
10017SOL    HW131214   1.256   2.808   1.838  0.4024 -0.1332  0.1755
10017SOL    HW231215   1.296   2.748   1.705 -0.5484 -1.6929  0.5731
10018SOL     OW31216   1.232   8.758   6.458 -0.0722  0.3494  0.0166
10018SOL    HW131217   1.158   8.700   6.443  0.4485 -0.1617 -0.5860
10018SOL    HW231218   1.302   8.701   6.489  0.4025  0.6641 -0.4509
10019SOL     OW31219   2.085   4.871   0.191  0.4275 -0.1927 -0.1281
10019SOL    HW131220   2.032   4.853   0.269  0.2854  1.7649  0.2758
10019SOL    HW231221   2.129   4.954   0.211  1.5774 -0.4367 -1.5376
10020SOL     OW31222   5.832   4.478   1.610  0.1367  0.3171  0.1384
10020SOL    HW131223   5.925   4.478   1.632 -0.0011  2.9609  1.1462
10020SOL    HW231224   5.828   4.509   1.520  0.2168  0.2972  0.1284
10021SOL     OW31225   3.063   6.109   8.745  0.1762 -0.5266  0.1017
10021SOL    HW131226   3.112   6.141   8.820  0.0346 -1.5586  0.6398
10021SOL    HW231227   3.111   6.143   8.669  0.2600  0.6100  0.6379
10022SOL     OW31228   5.104   4.635   3.079  0.3093  0.6860  0.0231
10022SOL    HW131229   5.127   4.708   3.022  1.1311 -0.4470 -1.1583
10022SOL    HW231230   5.180   4.577   3.075 -0.5567 -0.5200  0.4522
10023SOL     OW31231   8.550   1.638   3.703 -0.4397 -0.1065  0.0872
10023SOL    HW131232   8.541   1.565   3.643 -1.7586 -0.3334  0.5148
10023SOL    HW231233   8.626   1.687   3.672 -1.0437 -0.2564 -1.7049
10024SOL     OW31234   5.313   6.412   5.507  0.8860  0.5440 -0.6308
10024SOL    HW131235   5.361   6.418   5.425 -0.5779 -1.4841 -1.7164
10024SOL    HW231236   5.226   6.445   5.487  0.3887 -0.3559 -0.0150
10025SOL     OW31237   3.384   4.468   1.962 -0.8895 -0.2917  0.1293
10025SOL    HW131238   3.314   4.426   1.911 -0.3634 -2.2435  0.9367
10025SOL    HW231239   3.409   4.403   2.027  1.0217  0.7343  0.4965
10026SOL     OW31240   0.800   5.358   3.195  0.3607  0.2817 -0.0373
10026SOL    HW131241   0.770   5.273   3.160 -0.9772  0.5475  0.3873
10026SOL    HW231242   0.775   5.421   3.128 -0.0605  0.5112  0.3293
10027SOL     OW31243   7.359   1.683   3.647  0.0665  0.2095  0.1365
10027SOL    HW131244   7.309   1.758   3.614 -0.6439  1.0940  2.9196
10027SOL    HW231245   7.296   1.611   3.650 -0.5180  0.7484  1.6267
10028SOL     OW31246   7.591   2.785   1.470  0.4665 -0.1310 -0.1655
10028SOL    HW131247   7.623   2.698   1.448  0.5803 -0.0998 -0.1216
10028SOL    HW231248   7.669   2.839   1.479  0.4870 -0.3386  1.1929
10029SOL     OW31249   0.571   5.204   3.098 -0.5990 -0.0620 -0.4646
10029SOL    HW131250   0.573   5.256   3.018  0.9967 -0.4571 -0.7237
10029SOL    HW231251   0.502   5.244   3.152 -1.1827  0.6642 -1.7214
10030SOL     OW31252   6.679   4.383   6.639  0.0689 -0.3478 -0.2509
10030SOL    HW131253   6.627   4.409   6.562 -0.6166  0.0950  0.3492
10030SOL    HW231254   6.737   4.458   6.654  0.4669 -0.5922 -0.5607
10031SOL     OW31255   1.075   5.986   4.753 -0.3511  0.2493  0.5624
10031SOL    HW131256   0.987   6.023   4.743 -0.0760  0.5572 -1.1136
10031SOL    HW231257   1.068   5.898   4.717  0.4528  0.9962 -1.5969
10032SOL     OW31258   2.773   4.545   0.468 -0.0847 -0.2039 -0.1972
10032SOL    HW131259   2.680   4.539   0.447 -0.2686  0.9712  0.2215
10032SOL    HW231260   2.777   4.535   0.563  0.1193  0.6168 -0.1106
10033SOL     OW31261   3.647   3.733   1.169 -0.3933 -0.3604  0.4331
10033SOL    HW131262   3.730   3.721   1.124  0.6319  0.4817  2.0498
10033SOL    HW231263   3.582   3.694   1.109  1.2658 -2.1468 -0.3110
10034SOL     OW31264   7.872   8.231   6.933  0.0647 -0.2540 -0.1278
10034SOL    HW131265   7.869   8.265   6.844 -0.7407 -1.7650 -0.7058
10034SOL    HW231266   7.830   8.298   6.986 -0.4307  0.1788 -1.0508
10035SOL     OW31267   6.046   0.170   8.510  0.8354  0.3989  0.3148
10035SOL    HW131268   6.076   0.081   8.494 -0.6591  0.2402 -2.1378
10035SOL    HW231269   6.087   0.194   8.593  2.2981 -2.0828  0.4317
10036SOL     OW31270   7.468   0.378   0.988  0.6221 -0.1769  0.1203
10036SOL    HW131271   7.488   0.334   0.905 -0.8816  1.2790 -1.0810
10036SOL    HW231272   7.446   0.308   1.048 -0.9851 -1.1397 -1.5200
10037SOL     OW31273   2.696   0.881   0.003  0.2502 -0.2362  0.2068
10037SOL    HW131274   2.782   0.901   0.039  0.0839 -0.3255  0.6567
10037SOL    HW231275   2.714   0.852  -0.087  0.9288 -2.6164  1.0319
10038SOL     OW31276   6.145   1.425   5.473  0.2087 -0.0841  0.9902
10038SOL    HW131277   6.062   1.421   5.520 -0.3539  0.9658  0.1251
10038SOL    HW231278   6.120   1.440   5.382  1.3389 -0.2882  0.6306
10039SOL     OW31279   2.201   6.212   2.983 -0.6696 -0.6329  0.5035
10039SOL    HW131280   2.261   6.200   3.056  0.1782 -0.4353 -0.1439
10039SOL    HW231281   2.116   6.182   3.016 -0.5997  0.6786  1.9838
10040SOL     OW31282   1.564   0.899   5.549  0.0942 -0.0343 -0.2285
10040SOL    HW131283   1.492   0.841   5.574  0.6721 -1.8661 -2.4433
10040SOL    HW231284   1.638   0.841   5.535  0.8485  1.2701 -2.0547
10041SOL     OW31285   4.782   7.071   1.327  0.1192 -0.1250 -0.4753
10041SOL    HW131286   4.776   7.012   1.403  0.0202  1.7035  1.0197
10041SOL    HW231287   4.806   7.014   1.254 -0.2018 -2.0368  0.8318
10042SOL     OW31288   4.127   7.367   0.932 -0.2678  0.0695 -0.2897
10042SOL    HW131289   4.219   7.345   0.916 -0.9905 -2.5775 -1.2738
10042SOL    HW231290   4.107   7.326   1.016 -0.4082  1.2557  0.2831
10043SOL     OW31291   0.534   5.792   1.960 -0.1059 -0.0321 -0.1179
10043SOL    HW131292   0.568   5.778   1.872  1.3036 -0.7791  0.5031
10043SOL    HW231293   0.559   5.882   1.982  0.9673 -0.3681  0.0958
10044SOL     OW31294   0.767   3.660   3.656  0.4946 -0.2093  0.2680
10044SOL    HW131295   0.774   3.691   3.566  0.3180  1.2570  0.7369
10044SOL    HW231296   0.677   3.630   3.664  0.0093  1.2129  0.4041
10045SOL     OW31297   5.530   5.477   4.049 -0.1033 -0.4876  0.9063
10045SOL    HW131298   5.440   5.452   4.029  0.2456 -0.5400 -0.7605
10045SOL    HW231299   5.583   5.422   3.992  0.7198  3.5118 -2.7371
10046SOL     OW31300   8.702   5.410   4.248 -0.0332  0.4399  0.2681
10046SOL    HW131301   8.779   5.428   4.303 -1.0617 -0.2687  1.9960
10046SOL    HW231302   8.693   5.315   4.249 -0.4754  0.4659 -0.5921
10047SOL     OW31303   1.600   7.822   8.018 -0.8378  0.0277  0.4076
10047SOL    HW131304   1.599   7.881   7.942 -2.4026 -0.5074 -0.0173
10047SOL    HW231305   1.668   7.758   7.998  0.9178  1.6400  0.8849
10048SOL     OW31306   3.469   8.412   6.114  0.0619  0.1943  0.5405
10048SOL    HW131307   3.483   8.322   6.085  1.6650  0.7045 -0.3935
10048SOL    HW231308   3.375   8.427   6.100  0.1375 -0.6689 -1.3001
10049SOL     OW31309   6.561   2.227   7.605 -0.2196  0.0485 -0.3638
10049SOL    HW131310   6.526   2.138   7.602  1.3866 -0.6369  0.3419
10049SOL    HW231311   6.516   2.268   7.678 -0.7119 -0.2927 -0.4715
10050SOL     OW31312   6.007   0.514   4.433  0.3698  0.7110  0.3838
10050SOL    HW131313   6.077   0.568   4.396  0.8376  1.1444  1.8349
10050SOL    HW231314   5.926   0.562   4.411  0.3088 -0.5669 -2.6379
10051SOL     OW31315   0.523   0.099   1.725  0.2705  0.6239 -0.5081
10051SOL    HW131316   0.531   0.192   1.746 -0.2501  0.4378  0.6011
10051SOL    HW231317   0.606   0.061   1.754  0.7244  0.8366 -1.5230
10052SOL     OW31318   6.259   7.149   8.742 -0.3437  0.1858 -0.3913
10052SOL    HW131319   6.313   7.124   8.817 -1.0208  1.8028  0.6899
10052SOL    HW231320   6.312   7.213   8.694  0.3472 -1.3120 -1.6974
10053SOL     OW31321   6.069   3.374   0.276  0.3235  0.1812 -0.1365
10053SOL    HW131322   6.043   3.388   0.185 -0.4343  1.2332  0.2284
10053SOL    HW231323   6.164   3.362   0.272  0.8167  3.4781 -0.7703
10054SOL     OW31324   2.791   4.832   5.736  0.2304  0.5997 -0.4332
10054SOL    HW131325   2.790   4.737   5.720 -1.0771  0.3186  1.0280
10054SOL    HW231326   2.766   4.870   5.652 -0.8956 -0.4726 -0.6260
10055SOL     OW31327   3.773   8.524   8.712 -0.1347 -0.2904  0.0417
10055SOL    HW131328   3.843   8.501   8.652 -1.0718 -1.3997 -0.6734
10055SOL    HW231329   3.758   8.618   8.698 -0.3626 -0.5318 -1.5062
10056SOL     OW31330   5.377   6.620   6.184  0.1229 -0.5976  0.2608
10056SOL    HW131331   5.325   6.556   6.135 -0.9139  0.7115 -0.4118
10056SOL    HW231332   5.345   6.612   6.274 -1.4326  0.3116 -0.1769
10057SOL     OW31333   2.213   7.822   5.936  0.1731 -0.3298  0.2576
10057SOL    HW131334   2.235   7.793   6.025  0.1168  0.0436  0.3975
10057SOL    HW231335   2.292   7.867   5.905 -0.0566  0.1927  0.4071
10058SOL     OW31336   7.895   5.522   4.770  0.3260  0.0722 -0.2212
10058SOL    HW131337   7.973   5.562   4.731  1.2399 -1.3693  0.0458
10058SOL    HW231338   7.847   5.487   4.695 -1.0285  2.4500 -0.5726
10059SOL     OW31339   1.478   1.359   0.164 -0.6794 -0.1452  0.3341
10059SOL    HW131340   1.542   1.401   0.221 -0.1557 -0.6968  0.1516
10059SOL    HW231341   1.493   1.265   0.174 -1.5982 -0.2914  0.4511
10060SOL     OW31342   1.082   6.954   0.190  0.0372 -0.3998  0.0794
10060SOL    HW131343   1.161   6.927   0.238 -0.1808  2.6430  2.4408
10060SOL    HW231344   1.020   6.883   0.205  0.8230 -0.7187  2.2281
10061SOL     OW31345   6.826   4.099   1.025 -0.1102 -0.2851 -0.1037
10061SOL    HW131346   6.838   4.026   1.086 -0.6535 -1.2401 -1.0896
10061SOL    HW231347   6.736   4.088   0.994 -0.0019  0.4788 -0.7024
10062SOL     OW31348   8.676   4.849   8.231  0.1391 -0.1749  0.1663
10062SOL    HW131349   8.619   4.805   8.294  0.0831 -0.4967 -0.1084
10062SOL    HW231350   8.765   4.830   8.262  0.1032  0.1790  0.4930
10063SOL     OW31351   0.831   4.182   4.408 -0.3697 -0.2371  0.3120
10063SOL    HW131352   0.862   4.172   4.317  0.8277 -0.0373  0.6798
10063SOL    HW231353   0.878   4.115   4.457  0.4701  0.8784  1.1087
10064SOL     OW31354   6.970   6.344   1.410 -0.3670 -0.0865  1.1513
10064SOL    HW131355   6.888   6.300   1.432 -1.8321  1.4309 -0.8321
10064SOL    HW231356   6.946   6.406   1.341  2.9050 -1.2476 -1.2654
10065SOL     OW31357   2.817   8.372   4.351 -0.0577  0.2307  0.5018
10065SOL    HW131358   2.817   8.388   4.256  0.5521 -1.2039  0.2291
10065SOL    HW231359   2.779   8.451   4.389  2.3167  2.0878 -0.7138
10066SOL     OW31360   4.601   7.767   8.389 -0.0747 -0.3844 -0.3724
10066SOL    HW131361   4.657   7.761   8.311 -0.2636  0.3710 -0.5726
10066SOL    HW231362   4.512   7.778   8.354 -0.0745  0.7281 -0.0634
10067SOL     OW31363   6.854   4.471   8.144  0.0881  0.2553  0.3497
10067SOL    HW131364   6.925   4.506   8.091 -0.2375  0.7070  0.2054
10067SOL    HW231365   6.890   4.392   8.184 -0.6521 -2.0798 -3.1203
10068SOL     OW31366   7.919   5.529   3.616 -0.1431 -0.2490  0.7724
10068SOL    HW131367   7.925   5.538   3.711 -1.5711 -0.9963  0.9618
10068SOL    HW231368   7.876   5.444   3.602 -0.0202 -0.1215 -0.5330
10069SOL     OW31369   0.042   6.811   0.015 -0.0841  0.4926 -0.1206
10069SOL    HW131370   0.016   6.775  -0.069  0.2931  0.0969 -0.0709
10069SOL    HW231371   0.072   6.736   0.066 -0.3300  0.7235  0.3781
10070SOL     OW31372   0.334   2.162   3.920  0.6829  0.1258 -0.2221
10070SOL    HW131373   0.309   2.073   3.943  0.7748  0.5242  1.5762
10070SOL    HW231374   0.429   2.166   3.934  0.5366  0.7582  0.6483
10071SOL     OW31375   6.981   4.464   0.442  0.0204 -0.0042 -0.0266
10071SOL    HW131376   6.970   4.403   0.369 -0.8139 -1.6785  1.4148
10071SOL    HW231377   7.033   4.415   0.506 -1.5216  0.3880  1.5976
10072SOL     OW31378   7.006   2.524   6.352 -0.6051 -0.0064  0.3085
10072SOL    HW131379   7.024   2.528   6.446 -2.1294 -0.9997  0.6820
10072SOL    HW231380   7.064   2.590   6.314 -0.5330  0.9933  2.0303
10073SOL     OW31381   5.839   8.729   3.258  0.2916 -0.2070  0.5470
10073SOL    HW131382   5.797   8.807   3.223  1.4177  1.0590  1.9164
10073SOL    HW231383   5.838   8.740   3.353  1.0134 -1.5681  0.7512
10074SOL     OW31384   7.934   8.733   1.875 -0.2727  0.2608 -0.2784
10074SOL    HW131385   8.018   8.725   1.921 -0.2718  2.5330  0.2099
10074SOL    HW231386   7.957   8.766   1.788 -0.7177  3.0220  0.5580
10075SOL     OW31387   5.755   8.205   4.738 -0.4417 -0.2439 -0.2140
10075SOL    HW131388   5.834   8.255   4.717 -1.4163  1.2611 -0.5172
10075SOL    HW231389   5.696   8.270   4.777 -2.2290 -0.8371 -1.7538
10076SOL     OW31390   4.998   4.995   2.095  0.4386  0.5019  0.1045
10076SOL    HW131391   5.008   5.064   2.029  0.8942 -0.8786 -1.3392
10076SOL    HW231392   4.909   4.963   2.082  1.3948 -1.6317 -1.8259
10077SOL     OW31393   5.825   8.851   5.161 -0.0748  0.1532  0.1395
10077SOL    HW131394   5.820   8.946   5.170 -1.1415  0.1809 -0.5719
10077SOL    HW231395   5.852   8.837   5.070  2.2437 -0.2191  0.8092
10078SOL     OW31396   7.817   6.908   1.393  0.3602  0.2293 -0.2306
10078SOL    HW131397   7.837   6.842   1.327  3.4309  2.0739 -1.3994
10078SOL    HW231398   7.797   6.859   1.472  1.5023 -2.1025 -1.3033
10079SOL     OW31399   8.855   3.303   6.491 -0.4458  0.2970 -0.0644
10079SOL    HW131400   8.931   3.315   6.434 -0.2297  0.4002  0.2436
10079SOL    HW231401   8.798   3.377   6.471 -0.4882  0.1901 -0.3351
10080SOL     OW31402   0.037   8.462   7.953 -0.4369 -0.2042 -0.0257
10080SOL    HW131403   0.083   8.409   7.888  1.6307 -1.7251  2.4377
10080SOL    HW231404   0.099   8.531   7.976 -0.4433 -0.6175  1.3562
10081SOL     OW31405   1.749   4.471   0.596 -0.1482  0.0537 -0.4838
10081SOL    HW131406   1.667   4.455   0.550  0.1242 -0.7992 -0.6906
10081SOL    HW231407   1.816   4.465   0.529  0.2716 -1.4031  0.0185
10082SOL     OW31408   5.665   3.549   6.287 -0.1923 -0.1901  0.2773
10082SOL    HW131409   5.745   3.596   6.264  0.1636 -0.8768  0.0858
10082SOL    HW231410   5.671   3.536   6.381 -0.0192 -0.3580  0.2418
10083SOL     OW31411   8.554   4.199   7.753 -0.0077 -0.2494  0.2378
10083SOL    HW131412   8.582   4.112   7.723  0.3676  0.2857 -1.0259
10083SOL    HW231413   8.635   4.246   7.770 -0.2033 -0.5416  2.2358
10084SOL     OW31414   1.951   2.154   8.007  0.0225  0.4779 -0.0046
10084SOL    HW131415   2.047   2.161   8.004  0.0337  0.2503 -0.2680
10084SOL    HW231416   1.919   2.237   7.973  0.1361 -0.0840 -1.5562
10085SOL     OW31417   7.119   8.169   0.351 -0.3190  0.0461 -0.1449
10085SOL    HW131418   7.042   8.213   0.317  0.2144  0.4011 -0.9348
10085SOL    HW231419   7.181   8.240   0.370  0.2032 -0.2862 -0.5561
10086SOL     OW31420   2.701   7.953   2.507  0.1190 -0.3962 -0.1252
10086SOL    HW131421   2.788   7.921   2.532  0.4408  0.0687 -0.6253
10086SOL    HW231422   2.689   7.920   2.418  0.5862  1.0987 -0.7735
10087SOL     OW31423   8.026   2.001   1.704  0.1285 -0.5397  0.3788
10087SOL    HW131424   8.118   1.987   1.683  0.0953 -1.8543  1.0038
10087SOL    HW231425   8.022   2.089   1.739  0.9868 -0.1322 -0.4953
10088SOL     OW31426   6.465   4.189   7.165  0.2015  0.2211  0.4999
10088SOL    HW131427   6.521   4.260   7.195  0.5530  0.6356 -1.0204
10088SOL    HW231428   6.379   4.229   7.153  0.3164  0.3204 -0.0235
10089SOL     OW31429   3.733   4.490   8.595 -0.2165  0.4398  0.1005
10089SOL    HW131430   3.764   4.431   8.663  1.4191 -0.0587 -1.0287
10089SOL    HW231431   3.724   4.574   8.638  0.4147  0.0536  1.0111
10090SOL     OW31432   3.310   7.020   0.642 -0.4007 -0.0962 -0.2134
10090SOL    HW131433   3.358   7.095   0.606 -0.1699 -0.1025  0.0742
10090SOL    HW231434   3.378   6.956   0.661 -0.1108  0.9428  2.8611
10091SOL     OW31435   3.657   1.406   7.805 -0.0867  0.7399 -0.8288
10091SOL    HW131436   3.727   1.356   7.847 -1.0942  0.3513  0.4784
10091SOL    HW231437   3.652   1.371   7.716  0.6287 -0.0055 -0.5896
10092SOL     OW31438   5.144   4.907   6.955  0.1679  0.4540  0.2755
10092SOL    HW131439   5.206   4.916   6.883 -0.7298  0.2726 -0.5439
10092SOL    HW231440   5.086   4.835   6.928 -1.4206  1.6922  0.2229
10093SOL     OW31441   2.595   8.778   3.924  0.0150 -0.5565 -0.2209
10093SOL    HW131442   2.653   8.740   3.991  0.6910 -1.2477 -1.1788
10093SOL    HW231443   2.653   8.804   3.853 -0.6096  0.8848 -0.2569
10094SOL     OW31444   0.397   3.625   0.881 -0.5933  0.6080 -0.3168
10094SOL    HW131445   0.367   3.716   0.882 -0.5217  0.6312  0.2795
10094SOL    HW231446   0.326   3.578   0.837 -1.4816  0.6836  0.9794
10095SOL     OW31447   8.654   2.985   2.431 -0.3423 -0.5444  0.5575
10095SOL    HW131448   8.629   2.901   2.394 -1.3190  0.5610 -1.5014
10095SOL    HW231449   8.664   3.042   2.355 -0.0173  1.2732  1.8998
10096SOL     OW31450   7.305   5.795   4.826  0.3166 -0.0747 -0.1881
10096SOL    HW131451   7.283   5.886   4.847  1.8057  0.6503 -1.5383
10096SOL    HW231452   7.224   5.759   4.790 -0.3060  0.6876  0.4096
10097SOL     OW31453   1.428   0.578   4.001 -0.9624 -0.1981  0.2889
10097SOL    HW131454   1.436   0.515   3.929  1.0619 -0.1524  0.4016
10097SOL    HW231455   1.476   0.655   3.970 -0.7267  0.1143  1.3797
10098SOL     OW31456   2.936   1.981   1.218  0.9529  0.2924 -0.2092
10098SOL    HW131457   3.006   1.955   1.157  0.0286  0.4383 -1.3573
10098SOL    HW231458   2.916   1.901   1.266  2.0174  0.2861  0.2469
10099SOL     OW31459   3.703   7.607   2.692 -0.5746 -0.3451  0.7091
10099SOL    HW131460   3.685   7.655   2.773 -2.9396 -1.9506  1.2209
10099SOL    HW231461   3.789   7.567   2.706 -0.0838  0.9383  1.5960
10100SOL     OW31462   2.967   2.934   4.994  0.1038  0.8742  0.5676
10100SOL    HW131463   2.920   2.893   4.922 -0.7481 -0.2000  1.6969
10100SOL    HW231464   2.900   2.979   5.045  0.2418 -0.4805  2.0674
10101SOL     OW31465   0.467   0.288   5.568 -0.0402  0.1805  0.4026
10101SOL    HW131466   0.554   0.254   5.587  0.2600  0.7672  0.0905
10101SOL    HW231467   0.446   0.345   5.643 -0.5066 -0.6019  0.8824
10102SOL     OW31468   1.838   3.373   3.099 -0.4798  0.0105  0.5121
10102SOL    HW131469   1.841   3.391   3.005 -0.3340 -0.6201  0.3878
10102SOL    HW231470   1.759   3.417   3.129 -0.1582  0.8100  0.2317
10103SOL     OW31471   6.289   3.376   2.733 -0.0592  0.0347  0.6275
10103SOL    HW131472   6.245   3.376   2.819  0.6810  0.8485  1.0219
10103SOL    HW231473   6.320   3.466   2.722 -0.6916  0.1107 -0.7914
10104SOL     OW31474   4.972   2.235   8.373  0.1850  0.3382 -0.0750
10104SOL    HW131475   5.062   2.231   8.339  0.6141  1.8033  0.8201
10104SOL    HW231476   4.948   2.327   8.367  0.3149  0.7505  3.5525
10105SOL     OW31477   5.008   5.633   3.861 -0.0570 -0.1051 -0.0205
10105SOL    HW131478   4.970   5.688   3.792 -0.0010  1.1230  0.8826
10105SOL    HW231479   5.060   5.694   3.914 -1.8802 -0.5183  2.4217
10106SOL     OW31480   0.109   1.114   6.403 -0.4099  0.5093 -0.5462
10106SOL    HW131481   0.025   1.136   6.364 -1.1481 -1.6303 -0.3025
10106SOL    HW231482   0.110   1.162   6.486 -1.6142  0.2275 -0.3447
10107SOL     OW31483   1.365   5.269   3.526 -0.2074 -0.2401 -0.1638
10107SOL    HW131484   1.286   5.274   3.472 -1.6145 -0.8069  1.7127
10107SOL    HW231485   1.365   5.180   3.560  0.7155  0.0531  0.6521
10108SOL     OW31486   2.792   1.496   4.755  0.0716 -0.1904  0.0894
10108SOL    HW131487   2.865   1.549   4.784  1.0921 -0.4516 -1.8390
10108SOL    HW231488   2.736   1.487   4.832  1.7751  0.4866  1.4568
10109SOL     OW31489   6.655   5.642   2.834  0.4728 -0.2581  0.7298
10109SOL    HW131490   6.655   5.546   2.838 -0.6884 -0.3654 -0.8218
10109SOL    HW231491   6.563   5.665   2.824  0.8683  0.9279 -0.3829
10110SOL     OW31492   2.165   5.967   7.157  0.0032  0.2511 -0.9342
10110SOL    HW131493   2.071   5.976   7.142 -0.0069  1.0277 -0.4760
10110SOL    HW231494   2.177   5.993   7.249  0.5631 -0.6119 -0.7552
10111SOL     OW31495   1.177   7.836   6.666  0.1460 -0.5135  0.2567
10111SOL    HW131496   1.155   7.920   6.705 -0.7313 -0.0744 -1.1143
10111SOL    HW231497   1.228   7.858   6.589  0.2029 -1.2535  0.0788
10112SOL     OW31498   3.564   0.278   4.081  0.5011 -0.5364  0.4088
10112SOL    HW131499   3.482   0.328   4.078 -0.2766 -1.8043 -0.0313
10112SOL    HW231500   3.601   0.300   4.167  0.1519  0.7256  0.2600
10113SOL     OW31501   5.091   4.753   8.437  0.2660  0.5446  0.0416
10113SOL    HW131502   5.123   4.743   8.347  0.1891  1.5412 -0.1019
10113SOL    HW231503   5.052   4.840   8.439 -2.9786 -0.7904  0.0525
10114SOL     OW31504   7.576   1.192   0.966 -0.3263 -0.0746  0.6681
10114SOL    HW131505   7.624   1.111   0.946 -0.5645 -0.1028  0.2170
10114SOL    HW231506   7.645   1.258   0.980 -0.1652  0.2291 -1.3678
10115SOL     OW31507   6.009   5.685   7.776  0.0543  0.1930 -0.2164
10115SOL    HW131508   5.916   5.710   7.772  0.1102  0.5553  0.5671
10115SOL    HW231509   6.008   5.594   7.806 -0.0318  0.3447  0.2418
10116SOL     OW31510   1.297   5.233   4.749 -0.7529 -0.5197  0.4420
10116SOL    HW131511   1.360   5.166   4.776  0.0130  0.8467  2.2128
10116SOL    HW231512   1.223   5.183   4.715  0.5170 -2.2143  0.0488
10117SOL     OW31513   3.552   4.740   0.840  0.2502 -0.1873  0.2509
10117SOL    HW131514   3.462   4.766   0.860 -0.0335  0.8838 -2.0219
10117SOL    HW231515   3.548   4.647   0.822 -0.3419 -0.1979  0.4371
10118SOL     OW31516   3.045   0.392   1.954  0.2053  0.0160 -0.2638
10118SOL    HW131517   3.064   0.398   1.860 -0.2185  0.5588 -0.3187
10118SOL    HW231518   3.129   0.412   1.996  1.1407 -2.8944 -0.4991
10119SOL     OW31519   0.935   3.892   4.468 -0.5813 -0.3408 -0.2246
10119SOL    HW131520   1.015   3.912   4.420  0.1512  0.2597  1.1659
10119SOL    HW231521   0.919   3.799   4.453  1.0612 -0.7613  0.4011
10120SOL     OW31522   8.751   1.846   4.242 -0.6675 -0.5168 -0.1055
10120SOL    HW131523   8.757   1.915   4.307  0.5699 -1.6412  1.0449
10120SOL    HW231524   8.702   1.776   4.286 -1.2478 -0.6685 -0.9735
10121SOL     OW31525   8.171   1.984   5.635  0.4677  0.6672  0.2541
10121SOL    HW131526   8.215   2.005   5.717 -0.2557 -0.2942  0.9212
10121SOL    HW231527   8.188   1.890   5.622 -1.1840  0.3076  0.4487
10122SOL     OW31528   5.175   6.393   2.059  0.0671 -0.1412  0.4307
10122SOL    HW131529   5.227   6.455   2.110 -2.6335  0.7437  2.3652
10122SOL    HW231530   5.125   6.448   1.998  0.0792 -0.7723 -0.1676
10123SOL     OW31531   5.786   1.440   6.782  0.2071  0.2507 -0.4920
10123SOL    HW131532   5.870   1.433   6.827 -0.0635 -1.8156 -0.2044
10123SOL    HW231533   5.810   1.459   6.691  0.8265  2.5057  0.0833
10124SOL     OW31534   3.635   7.160   5.961  0.1969 -0.6152  0.1930
10124SOL    HW131535   3.621   7.236   5.903  2.8166 -0.2950 -0.1635
10124SOL    HW231536   3.658   7.199   6.046  0.5989 -1.0015  0.2649
10125SOL     OW31537   2.462   6.892   1.672 -0.0367  0.5449 -0.1660
10125SOL    HW131538   2.429   6.802   1.676  0.4876  0.3563 -0.0276
10125SOL    HW231539   2.534   6.889   1.609  1.7894  0.2590  1.8125
10126SOL     OW31540   4.427   1.129   7.137 -0.0744  0.3067  0.0207
10126SOL    HW131541   4.403   1.215   7.171  0.0925  0.0497  0.7996
10126SOL    HW231542   4.523   1.129   7.137 -0.0732 -0.1136  0.6272
10127SOL     OW31543   2.565   3.590   2.000  0.4617  0.2301  0.5886
10127SOL    HW131544   2.528   3.616   1.916  1.6296 -0.5616 -0.1997
10127SOL    HW231545   2.499   3.533   2.039  1.6102 -2.9393 -1.7526
10128SOL     OW31546   0.301   6.661   0.646 -0.2664 -0.5069  0.0467
10128SOL    HW131547   0.351   6.601   0.701 -0.1972 -0.2289  0.2911
10128SOL    HW231548   0.282   6.735   0.703 -1.1744 -0.7167  0.0326
10129SOL     OW31549   3.436   4.577   5.814 -0.2805  0.2302 -0.2502
10129SOL    HW131550   3.367   4.529   5.769  0.3447 -0.0661 -0.9228
10129SOL    HW231551   3.501   4.510   5.837 -1.8239 -0.1473  3.6790
10130SOL     OW31552   8.285   0.867   4.628 -0.0540 -0.2919  0.1069
10130SOL    HW131553   8.273   0.941   4.688  0.1245 -0.1973  0.0278
10130SOL    HW231554   8.327   0.905   4.551  2.8637 -0.9146  1.2365
10131SOL     OW31555   7.370   8.662   1.008 -0.3171 -0.5167  0.3216
10131SOL    HW131556   7.365   8.594   1.074  2.0800 -0.8362  0.2537
10131SOL    HW231557   7.464   8.675   0.993 -0.6952  2.1679 -0.3141
10132SOL     OW31558   5.324   6.796   5.230 -0.0742  0.3626  0.3706
10132SOL    HW131559   5.248   6.743   5.252  0.4697 -0.0024  1.5066
10132SOL    HW231560   5.289   6.871   5.182 -0.9585 -0.5537 -0.4434
10133SOL     OW31561   5.549   7.137   1.744  0.3270  0.1957  0.1278
10133SOL    HW131562   5.539   7.226   1.709 -1.0052  0.0933  0.1889
10133SOL    HW231563   5.632   7.106   1.708  0.9854  1.5821  0.3764
10134SOL     OW31564   5.775   2.602   3.667  0.5641 -0.3358  0.0254
10134SOL    HW131565   5.826   2.528   3.636  0.6774 -0.4701  0.5171
10134SOL    HW231566   5.717   2.625   3.594 -0.5856 -1.8976  0.4094
10135SOL     OW31567   7.699   0.953   8.639  0.2303  0.2809 -0.3454
10135SOL    HW131568   7.661   1.041   8.643 -1.3006 -0.3372 -0.4713
10135SOL    HW231569   7.632   0.901   8.594  1.8360 -0.5822 -1.8430
10136SOL     OW31570   5.343   8.303   0.118 -0.3318  0.2777  0.5255
10136SOL    HW131571   5.372   8.280   0.206  1.6434  0.5104 -0.0256
10136SOL    HW231572   5.398   8.378   0.094 -0.9847  0.3443 -0.8328
10137SOL     OW31573   1.820   4.864   5.781 -0.1286  0.5053 -0.0729
10137SOL    HW131574   1.749   4.926   5.764 -0.8308 -0.3837 -0.4674
10137SOL    HW231575   1.896   4.900   5.735 -1.3793 -0.6688 -3.3735
10138SOL     OW31576   7.917   7.514   6.772 -0.0002  0.0733 -0.3651
10138SOL    HW131577   7.847   7.472   6.821  1.1730 -1.9185 -0.3144
10138SOL    HW231578   7.940   7.592   6.824  0.7615 -1.6137  1.9791
10139SOL     OW31579   7.130   2.414   8.531 -0.7977 -0.1390 -0.0553
10139SOL    HW131580   7.164   2.394   8.618 -2.4972 -1.0547  0.4565
10139SOL    HW231581   7.197   2.383   8.470  1.6644  2.8990  0.8704
10140SOL     OW31582   1.738   1.845   6.962  0.0860 -0.1648 -0.1139
10140SOL    HW131583   1.782   1.927   6.940 -1.3488  0.2035 -1.8947
10140SOL    HW231584   1.689   1.822   6.883 -1.2251 -1.6382  1.0456
10141SOL     OW31585   2.774   1.032   7.411  0.4268  0.5697 -0.3290
10141SOL    HW131586   2.727   1.054   7.492 -1.3838 -1.0874 -0.8727
10141SOL    HW231587   2.825   0.955   7.434  1.6396  1.3767 -0.2146
10142SOL     OW31588   3.305   3.424   8.282 -0.1297  0.2137  0.0525
10142SOL    HW131589   3.377   3.389   8.335  0.3757 -0.3135 -0.9662
10142SOL    HW231590   3.348   3.466   8.207 -0.6324  3.8682  1.5983
10143SOL     OW31591   8.812   6.702   4.799 -0.1251  0.0926 -0.2569
10143SOL    HW131592   8.772   6.670   4.718 -3.1974 -2.4578  2.0041
10143SOL    HW231593   8.887   6.644   4.812 -0.7933 -0.8134 -0.3377
10144SOL     OW31594   7.428   6.171   0.759  0.1681 -0.1548 -0.3626
10144SOL    HW131595   7.442   6.191   0.667 -0.0929  0.8206 -0.2016
10144SOL    HW231596   7.457   6.250   0.805  1.1447 -0.9544  0.4563
10145SOL     OW31597   7.406   5.228   4.796  0.3346  0.1349  0.1497
10145SOL    HW131598   7.479   5.284   4.769 -0.6540  1.0802 -0.6136
10145SOL    HW231599   7.444   5.172   4.864  2.2894 -0.7703 -1.5674
10146SOL     OW31600   6.020   7.311   6.595  0.0291  0.4049 -0.1125
10146SOL    HW131601   6.011   7.265   6.678 -0.1163  1.0946  0.2540
10146SOL    HW231602   5.938   7.358   6.584 -0.4178 -0.5789 -1.2051
10147SOL     OW31603   7.775   4.458   5.010  0.1026 -0.0788  0.3623
10147SOL    HW131604   7.788   4.380   5.063 -0.6559 -0.0135  0.6462
10147SOL    HW231605   7.824   4.527   5.056  1.8161 -0.6226 -0.5392
10148SOL     OW31606   5.671   8.470   3.200 -0.3053 -0.0864  0.3541
10148SOL    HW131607   5.752   8.517   3.182  0.4451 -1.2105  0.6836
10148SOL    HW231608   5.662   8.473   3.295 -0.8555  0.3451  0.2953
10149SOL     OW31609   7.303   2.467   3.621  0.0965  0.5625  0.7177
10149SOL    HW131610   7.345   2.384   3.640 -0.5812  0.1460  0.4384
10149SOL    HW231611   7.314   2.479   3.527 -0.9013  0.1654  0.5425
10150SOL     OW31612   7.066   1.477   6.123 -0.1679  0.5687 -0.2333
10150SOL    HW131613   7.032   1.442   6.040  1.1655  0.3951 -0.7216
10150SOL    HW231614   7.078   1.570   6.106 -0.7958  0.7154  0.0855
10151SOL     OW31615   8.300   8.220   1.700  0.3881  0.2996 -0.2862
10151SOL    HW131616   8.266   8.178   1.778 -0.0830  0.6610 -0.2916
10151SOL    HW231617   8.254   8.304   1.695  1.3916  0.8744 -0.2093
10152SOL     OW31618   8.276   3.202   5.397  0.4705  0.0499 -0.1353
10152SOL    HW131619   8.235   3.281   5.432 -0.6025 -0.5453  0.0146
10152SOL    HW231620   8.212   3.132   5.414  0.4255 -0.4702 -2.1879
10153SOL     OW31621   7.961   8.051   0.586  0.2187 -0.2590  0.2091
10153SOL    HW131622   7.898   7.979   0.584 -1.3570  1.0084  0.8879
10153SOL    HW231623   7.954   8.091   0.499 -0.4981  0.3057  0.5078
10154SOL     OW31624   8.484   6.329   7.779  0.2315 -0.1289  0.6382
10154SOL    HW131625   8.569   6.364   7.806  0.0815  0.0287  0.9160
10154SOL    HW231626   8.421   6.372   7.837 -0.2490  1.1736 -0.7651
10155SOL     OW31627   4.568   8.070   4.916  0.0851 -0.6559 -0.1363
10155SOL    HW131628   4.556   8.107   4.829 -0.1160  0.7786  0.4791
10155SOL    HW231629   4.499   8.109   4.969  0.9386 -0.5616  0.9516
10156SOL     OW31630   2.917   7.119   0.193 -0.1417  0.3491  0.2122
10156SOL    HW131631   2.901   7.061   0.268  3.9709  0.3000  1.2542
10156SOL    HW231632   2.963   7.194   0.230  1.6542  0.5448 -2.1972
10157SOL     OW31633   5.762   8.699   4.825  0.5199 -0.1188 -0.6871
10157SOL    HW131634   5.774   8.783   4.869 -0.3302 -0.5862  0.4762
10157SOL    HW231635   5.667   8.688   4.819  0.5967 -1.5978  0.3839
10158SOL     OW31636   1.854   0.290   3.384  0.2346  0.0978  0.1759
10158SOL    HW131637   1.886   0.376   3.413 -0.6701  0.3757  0.4088
10158SOL    HW231638   1.885   0.229   3.451 -1.2832  0.6398  1.4276
10159SOL     OW31639   0.435   3.904   4.716 -0.2839 -0.1622 -0.0397
10159SOL    HW131640   0.416   3.891   4.809  0.9753  0.4618  0.3283
10159SOL    HW231641   0.439   3.999   4.705  3.0058 -0.1578  0.0855
10160SOL     OW31642   1.835   1.133   1.049 -0.1993 -0.5790  0.0418
10160SOL    HW131643   1.863   1.222   1.032  0.6040 -0.4188  1.9668
10160SOL    HW231644   1.910   1.079   1.026  0.1121 -0.5498  0.9662
10161SOL     OW31645   1.927   3.018   3.868  0.3530 -0.2592  0.2507
10161SOL    HW131646   2.004   3.039   3.920 -0.3281  1.0834  0.7678
10161SOL    HW231647   1.881   3.101   3.859 -1.6112 -1.2206  0.9017
10162SOL     OW31648   4.292   1.171   6.520  0.4617 -0.4750  0.1419
10162SOL    HW131649   4.320   1.090   6.478  0.6308  0.0464 -0.7830
10162SOL    HW231650   4.346   1.239   6.479  0.1749  0.1391  0.7495
10163SOL     OW31651   3.992   0.508   5.531 -0.6385 -0.5918 -0.2477
10163SOL    HW131652   4.056   0.480   5.465 -0.7605 -1.6325  0.0609
10163SOL    HW231653   4.001   0.603   5.534  0.8413 -0.7068 -0.2686
10164SOL     OW31654   1.582   3.186   1.658 -0.0068  0.0101 -0.3027
10164SOL    HW131655   1.525   3.126   1.704  0.5443 -0.6457 -0.4610
10164SOL    HW231656   1.641   3.130   1.608  1.6738  0.6165  0.9231
10165SOL     OW31657   0.993   4.546   7.909 -0.8060  0.4715 -0.5379
10165SOL    HW131658   1.036   4.551   7.994  0.1969 -0.2149 -0.9966
10165SOL    HW231659   0.977   4.452   7.895 -0.4685  0.5282 -1.3468
10166SOL     OW31660   4.860   3.761   3.660 -0.5138 -0.2303  0.4750
10166SOL    HW131661   4.921   3.701   3.703  1.1218  0.6559 -0.5150
10166SOL    HW231662   4.860   3.839   3.716 -0.2394  0.0060  0.1511
10167SOL     OW31663   7.021   7.339   3.044 -0.2998 -0.6935  0.0842
10167SOL    HW131664   7.073   7.401   2.992 -1.0687 -0.5109 -0.4956
10167SOL    HW231665   7.022   7.375   3.132  0.6413 -0.7529  0.1147
10168SOL     OW31666   6.108   7.773   0.051 -0.3060  0.3236  0.1529
10168SOL    HW131667   6.192   7.744   0.017  0.3955  0.7068  1.4537
10168SOL    HW231668   6.052   7.695   0.050 -0.3724  0.3434 -1.8724
10169SOL     OW31669   5.628   8.812   8.561  0.3707  0.1274 -0.1662
10169SOL    HW131670   5.539   8.841   8.539  0.2014 -0.4711 -0.2698
10169SOL    HW231671   5.670   8.798   8.477 -0.3087 -2.2560 -0.1811
10170SOL     OW31672   5.569   6.793   2.231 -0.5904  0.0719 -0.5039
10170SOL    HW131673   5.520   6.717   2.262  2.1033 -2.3166 -1.5143
10170SOL    HW231674   5.533   6.811   2.144 -0.3027 -1.0901 -0.8854
10171SOL     OW31675   8.689   7.486   5.470  0.1417  0.1626  0.6907
10171SOL    HW131676   8.673   7.467   5.563 -1.5092  0.5578  0.5191
10171SOL    HW231677   8.768   7.436   5.449 -0.8126 -1.9117  1.7039
10172SOL     OW31678   2.025   2.616   8.419 -0.0847  0.7991  0.0666
10172SOL    HW131679   1.934   2.597   8.396 -0.1572 -0.5023  1.2713
10172SOL    HW231680   2.074   2.541   8.385  0.6106  1.6576 -0.8773
10173SOL     OW31681   8.565   3.270   1.633  0.0571  0.0561 -0.4620
10173SOL    HW131682   8.496   3.310   1.580 -0.0532 -1.8472 -1.8928
10173SOL    HW231683   8.521   3.201   1.682  0.1281  1.8703  2.4175
10174SOL     OW31684   1.687   7.205   3.984 -0.4719 -0.6463  0.2404
10174SOL    HW131685   1.711   7.174   4.072 -0.5228  0.1813  0.5620
10174SOL    HW231686   1.593   7.191   3.979 -0.8751  1.3595  1.2168
10175SOL     OW31687   0.609   4.836   3.503  0.3551 -0.0272 -0.0547
10175SOL    HW131688   0.547   4.783   3.453 -0.8287  0.1440  1.1852
10175SOL    HW231689   0.570   4.924   3.503  1.2792  0.3986 -0.3691
10176SOL     OW31690   5.058   8.520   8.339 -0.4366  0.0741  0.0907
10176SOL    HW131691   5.063   8.431   8.375  3.1244  0.9117  2.1003
10176SOL    HW231692   4.968   8.547   8.354 -1.5940 -3.0680 -0.4345
10177SOL     OW31693   7.412   6.801   6.504 -0.4362  0.1290 -0.5326
10177SOL    HW131694   7.479   6.818   6.570 -1.1680  0.2036  0.2135
10177SOL    HW231695   7.381   6.713   6.524 -1.0812  0.3797 -0.3889
10178SOL     OW31696   2.440   7.155   6.121  0.2343 -0.0957 -0.2200
10178SOL    HW131697   2.360   7.169   6.172  1.3095 -0.8637  1.7883
10178SOL    HW231698   2.495   7.231   6.141  0.6980 -0.4394 -0.1598
10179SOL     OW31699   1.879   7.776   0.559  0.8983 -0.0125  0.3086
10179SOL    HW131700   1.801   7.810   0.515  0.0701 -2.5134 -0.2824
10179SOL    HW231701   1.865   7.797   0.652 -0.3380 -0.1737  0.1686
10180SOL     OW31702   1.274   4.905   5.054  0.2918 -0.3579 -0.0453
10180SOL    HW131703   1.303   4.881   5.141 -1.8102 -0.8152  0.5916
10180SOL    HW231704   1.235   4.992   5.065  0.0950 -0.3805 -0.5278
10181SOL     OW31705   3.633   2.406   4.108 -0.0196  0.5747  0.1647
10181SOL    HW131706   3.639   2.319   4.146  3.2236  0.9498  0.8084
10181SOL    HW231707   3.584   2.458   4.172 -2.2499 -0.7249 -0.3668
10182SOL     OW31708   0.574   8.264   6.507  0.0307  0.5011  0.0789
10182SOL    HW131709   0.521   8.304   6.576  0.2796 -0.3331  0.7720
10182SOL    HW231710   0.586   8.334   6.443 -2.2354  0.5924 -0.3190
10183SOL     OW31711   1.537   8.741   0.643  0.2290 -0.1961  0.1121
10183SOL    HW131712   1.459   8.777   0.602 -0.4717 -1.6517  0.1021
10183SOL    HW231713   1.604   8.744   0.575  0.3132  1.3490  0.2177
10184SOL     OW31714   3.977   4.713   5.007  0.2500 -0.0048  0.4101
10184SOL    HW131715   3.956   4.790   5.061  2.1218  0.5987  0.3613
10184SOL    HW231716   4.005   4.647   5.070  1.0580  0.2147  0.2871
10185SOL     OW31717   6.589   0.138   6.853  0.5709  0.0289  0.4898
10185SOL    HW131718   6.528   0.165   6.922 -1.2188 -0.1250 -0.9495
10185SOL    HW231719   6.549   0.059   6.816  0.7964  0.8093 -1.5374
10186SOL     OW31720   5.226   0.496   0.873 -0.0749  0.1300 -0.3370
10186SOL    HW131721   5.198   0.495   0.965 -1.7143 -1.0033 -0.7861
10186SOL    HW231722   5.144   0.508   0.824  0.8542  1.4175 -1.6510
10187SOL     OW31723   0.844   8.492   2.189  0.3686  0.1167  0.4702
10187SOL    HW131724   0.924   8.523   2.232 -0.2803  1.0244  1.0257
10187SOL    HW231725   0.810   8.425   2.248  0.4013  0.1460  0.5227
10188SOL     OW31726   8.488   4.527   1.787 -0.1794 -0.4780 -0.1401
10188SOL    HW131727   8.487   4.436   1.815  2.6058 -0.6689 -0.4768
10188SOL    HW231728   8.559   4.533   1.723  0.0634  2.0324  0.2557
10189SOL     OW31729   7.650   5.434   4.132  0.6391  0.2570  0.6640
10189SOL    HW131730   7.686   5.509   4.179  0.2838  0.2720  0.9151
10189SOL    HW231731   7.575   5.406   4.185  0.6786 -0.1796  0.4906
10190SOL     OW31732   2.624   1.978   5.762 -0.0268 -0.0252  0.4625
10190SOL    HW131733   2.555   1.935   5.712 -1.4509  0.9550  1.5114
10190SOL    HW231734   2.625   2.068   5.729 -0.7255  0.5276  1.8741
10191SOL     OW31735   2.676   4.144   2.253 -0.0030 -0.1824  0.1593
10191SOL    HW131736   2.727   4.114   2.177  0.6766  1.4567 -0.0791
10191SOL    HW231737   2.629   4.066   2.282  2.1860 -1.6646  0.0202
10192SOL     OW31738   6.336   7.946   6.567 -0.1694  0.5468  0.6233
10192SOL    HW131739   6.268   7.969   6.631 -0.4804 -0.8661  0.8263
10192SOL    HW231740   6.414   7.993   6.597 -0.9174  1.8510  0.6316
10193SOL     OW31741   1.596   7.022   6.564  0.1456 -0.0663  0.6987
10193SOL    HW131742   1.545   6.949   6.528 -1.2470  2.0706 -2.0884
10193SOL    HW231743   1.687   6.994   6.556 -0.0150 -0.0352 -4.6055
10194SOL     OW31744   7.016   0.439   3.166 -0.9250  0.2227  0.4992
10194SOL    HW131745   7.060   0.428   3.082 -1.3291 -0.2646  0.3456
10194SOL    HW231746   6.989   0.350   3.191 -1.8229  0.5127  0.5901
10195SOL     OW31747   5.121   2.416   6.316 -0.0630 -0.6519 -0.0088
10195SOL    HW131748   5.079   2.498   6.287  0.6463 -0.3598 -0.2326
10195SOL    HW231749   5.214   2.438   6.324 -0.1685 -0.8020  2.2189
10196SOL     OW31750   3.947   5.249   7.277 -0.3114  0.1183  0.3302
10196SOL    HW131751   3.956   5.159   7.308  0.4151 -0.0880 -0.4629
10196SOL    HW231752   3.860   5.276   7.307 -0.8353 -1.0986 -0.0513
10197SOL     OW31753   6.817   6.109   2.313  0.3923 -0.7256  0.2477
10197SOL    HW131754   6.892   6.081   2.366  0.8276  0.5943  0.3770
10197SOL    HW231755   6.852   6.179   2.257 -0.8402  0.2597  0.6680
10198SOL     OW31756   5.982   1.881   5.704  0.0733  0.1130  0.0341
10198SOL    HW131757   5.950   1.832   5.779  1.1868  0.9845  1.1132
10198SOL    HW231758   5.949   1.970   5.716 -0.4861  0.0597 -0.9904
10199SOL     OW31759   2.316   8.529   3.740  0.0402  0.1563 -0.2477
10199SOL    HW131760   2.233   8.530   3.788  0.2999 -0.6846  0.2413
10199SOL    HW231761   2.336   8.621   3.726 -0.2252  0.4240  0.9722
10200SOL     OW31762   4.388   0.143   7.036  0.3529 -0.1379  0.4273
10200SOL    HW131763   4.478   0.130   7.067  1.6450 -0.3909 -3.0423
10200SOL    HW231764   4.381   0.087   6.959 -2.6214  0.3671  0.2254
10201SOL     OW31765   8.178   8.155   5.546  0.1282  0.5846 -0.6224
10201SOL    HW131766   8.140   8.159   5.458 -1.8652  0.6322  0.1933
10201SOL    HW231767   8.119   8.208   5.600 -0.2132 -1.5996  1.2753
10202SOL     OW31768   3.609   8.742   1.787  0.5376  0.0002 -0.1495
10202SOL    HW131769   3.687   8.707   1.829  1.0896  2.8739  1.4988
10202SOL    HW231770   3.636   8.761   1.697  0.9752 -1.2396 -0.2915
10203SOL     OW31771   4.788   6.963   1.617 -0.1899  0.4522  0.1317
10203SOL    HW131772   4.855   6.910   1.574  1.4107  1.2490  1.5073
10203SOL    HW231773   4.791   6.935   1.709 -1.6421  0.6368  0.2598
10204SOL     OW31774   7.992   8.544   4.596 -0.2494  0.1325 -0.3163
10204SOL    HW131775   7.920   8.517   4.653 -0.2298  0.2622 -0.2307
10204SOL    HW231776   7.985   8.639   4.590 -0.5181  0.0781 -0.8924
10205SOL     OW31777   6.164   0.840   6.281 -0.1500 -0.4525 -0.4619
10205SOL    HW131778   6.250   0.882   6.278  0.3413 -1.3740  0.2696
10205SOL    HW231779   6.157   0.805   6.370 -1.2506 -0.4630 -0.5367
10206SOL     OW31780   0.324   1.798   0.541  0.1404 -0.2988  0.4964
10206SOL    HW131781   0.406   1.816   0.496 -0.4847 -0.7839 -0.8769
10206SOL    HW231782   0.271   1.749   0.478 -0.9714 -0.5591  1.5720
10207SOL     OW31783   5.302   4.270   5.308  0.0257 -0.1643 -0.2179
10207SOL    HW131784   5.214   4.242   5.332  0.5452 -0.3340  1.6124
10207SOL    HW231785   5.360   4.220   5.365  1.4307 -1.0826 -2.3213
10208SOL     OW31786   3.367   4.365   3.349 -0.2386 -0.3175  0.3330
10208SOL    HW131787   3.330   4.295   3.295  0.1072 -0.4236  0.2325
10208SOL    HW231788   3.373   4.440   3.290 -2.5404  0.4530  0.9394
10209SOL     OW31789   0.033   2.908   0.864  0.0196  0.3273 -0.2748
10209SOL    HW131790   0.125   2.888   0.879  0.1328  0.9093 -0.1386
10209SOL    HW231791   0.033   2.999   0.834 -0.3855 -0.1128 -1.6953
10210SOL     OW31792   8.685   4.540   7.524 -0.2465  0.0340 -0.7217
10210SOL    HW131793   8.675   4.612   7.585  0.3927  0.7206 -1.4130
10210SOL    HW231794   8.772   4.505   7.541 -0.0300  0.2862 -1.3058
10211SOL     OW31795   8.234   4.313   3.443 -0.1957  0.2241 -0.2476
10211SOL    HW131796   8.146   4.302   3.408 -0.2513  2.6688 -1.0291
10211SOL    HW231797   8.226   4.294   3.536 -1.5923  0.6198 -0.2743
10212SOL     OW31798   3.154   1.742   8.678 -0.4436  0.0022 -0.6192
10212SOL    HW131799   3.160   1.698   8.763  0.4634  1.5386  0.1601
10212SOL    HW231800   3.060   1.744   8.659 -1.0917  2.6294  2.0631
10213SOL     OW31801   3.320   1.776   5.693 -0.6003 -0.1395  0.6046
10213SOL    HW131802   3.341   1.743   5.606  0.8836  0.0031  0.8876
10213SOL    HW231803   3.246   1.835   5.679  0.5432  1.0374 -0.8015
10214SOL     OW31804   7.369   1.244   1.427 -0.0480 -0.4960  0.1695
10214SOL    HW131805   7.436   1.183   1.394 -1.3307  0.1894 -4.4169
10214SOL    HW231806   7.290   1.190   1.436 -0.3393 -0.2241 -0.5983
10215SOL     OW31807   1.967   7.230   3.536 -0.5714 -0.1421  0.2216
10215SOL    HW131808   1.897   7.165   3.536 -1.6526  0.9141  2.2251
10215SOL    HW231809   1.949   7.285   3.613  0.3101  2.4691 -1.2930
10216SOL     OW31810   4.742   6.993   4.918  0.0403  0.3206 -0.3571
10216SOL    HW131811   4.717   6.952   4.835  1.2039  2.1359 -1.6769
10216SOL    HW231812   4.670   7.053   4.937  0.6571  1.3249 -1.1115
10217SOL     OW31813   4.825   7.591   4.214  0.7623 -0.4840 -0.4629
10217SOL    HW131814   4.847   7.552   4.298  1.1132  0.8652  0.0943
10217SOL    HW231815   4.898   7.567   4.156  1.6468  0.4751  0.2396
10218SOL     OW31816   1.156   1.426   8.483  0.2467  0.4011  0.3712
10218SOL    HW131817   1.173   1.421   8.577 -0.6113 -0.3145  0.4989
10218SOL    HW231818   1.073   1.474   8.476  0.5141  0.8208 -0.0554
10219SOL     OW31819   5.201   1.654   0.510  0.7544  0.1509  0.1585
10219SOL    HW131820   5.162   1.696   0.434 -1.5316 -0.6762  0.7714
10219SOL    HW231821   5.197   1.561   0.491 -1.0758 -0.1703  1.7137
10220SOL     OW31822   3.419   5.945   4.433 -0.5969 -0.1207 -0.2755
10220SOL    HW131823   3.342   6.002   4.432 -1.3423 -1.0642  0.7916
10220SOL    HW231824   3.446   5.942   4.524  1.1392  0.7108 -0.7228
10221SOL     OW31825   1.772   6.860   7.806 -0.1042 -0.0743 -0.2929
10221SOL    HW131826   1.755   6.770   7.779  3.2773 -0.8727 -0.2012
10221SOL    HW231827   1.761   6.912   7.727 -1.6375 -0.6006 -0.4540
10222SOL     OW31828   3.504   6.698   4.535  0.0603  0.5418  0.1498
10222SOL    HW131829   3.506   6.794   4.531 -0.2340  0.5193 -0.6449
10222SOL    HW231830   3.537   6.670   4.450 -1.1640 -0.0560 -0.1397
10223SOL     OW31831   2.777   2.130   5.396 -0.8741 -0.2508  0.2824
10223SOL    HW131832   2.739   2.186   5.464  0.2180  1.4223 -0.4107
10223SOL    HW231833   2.860   2.101   5.433  0.1481  1.3884 -0.5893
10224SOL     OW31834   0.199   8.119   6.582  0.1636  0.1534  0.3436
10224SOL    HW131835   0.264   8.188   6.581 -0.5001  0.7870  0.1982
10224SOL    HW231836   0.130   8.149   6.523 -0.1871 -0.5797  0.3599
10225SOL     OW31837   7.240   4.770   7.302  0.5753 -0.1231 -0.1897
10225SOL    HW131838   7.230   4.823   7.382  0.5012  1.0903 -0.9803
10225SOL    HW231839   7.160   4.718   7.297  0.3602  0.1640  0.2585
10226SOL     OW31840   3.899   3.380   5.471  0.0937 -0.0196 -0.1648
10226SOL    HW131841   3.807   3.396   5.490 -0.7735 -1.2764 -2.7600
10226SOL    HW231842   3.924   3.310   5.531 -2.2242 -3.2378 -2.5817
10227SOL     OW31843   4.588   1.903   4.566 -0.8053 -0.0875 -0.4206
10227SOL    HW131844   4.678   1.933   4.554 -0.7475 -0.5330 -1.2088
10227SOL    HW231845   4.591   1.849   4.644 -0.7267  1.1885  0.4870
10228SOL     OW31846   2.664   4.232   3.748 -0.3215 -0.2503 -0.0040
10228SOL    HW131847   2.741   4.285   3.728 -0.8370  0.4588 -0.1597
10228SOL    HW231848   2.619   4.224   3.664 -1.7908  1.5876  0.5339
10229SOL     OW31849   2.898   3.415   7.433 -0.4156  0.4063  0.0268
10229SOL    HW131850   2.946   3.485   7.390  0.6252 -0.4355 -0.2080
10229SOL    HW231851   2.904   3.341   7.373 -1.1596 -0.0174  0.4529
10230SOL     OW31852   5.650   7.074   3.775 -0.1212  0.3633 -0.0605
10230SOL    HW131853   5.662   7.051   3.683  1.4069  1.3891 -0.1651
10230SOL    HW231854   5.628   7.167   3.773 -1.9016 -0.0054  0.5494
10231SOL     OW31855   2.894   5.023   3.828  0.1186  0.0157  0.0751
10231SOL    HW131856   2.926   5.113   3.833 -0.5942  0.3552 -1.0076
10231SOL    HW231857   2.971   4.971   3.805  0.2972  0.5408 -0.5495
10232SOL     OW31858   1.407   5.607   3.078  0.4518  0.3273  0.4859
10232SOL    HW131859   1.493   5.608   3.037  0.4472  0.2983  0.4761
10232SOL    HW231860   1.420   5.558   3.160 -0.3695 -3.0851 -1.2388
10233SOL     OW31861   6.129   8.433   5.916 -0.5622 -0.0341 -0.3300
10233SOL    HW131862   6.113   8.460   6.007  3.3954 -2.2503  1.2745
10233SOL    HW231863   6.088   8.347   5.909 -2.3481  0.8462 -1.3157
10234SOL     OW31864   3.532   6.847   0.619 -0.6991 -0.5166 -0.7080
10234SOL    HW131865   3.611   6.896   0.642 -1.1468 -0.2835  0.3660
10234SOL    HW231866   3.538   6.836   0.524  0.5007 -0.2935 -0.6754
10235SOL     OW31867   5.773   1.721   3.089 -0.1632  0.1785  0.0183
10235SOL    HW131868   5.713   1.685   3.155 -1.0154 -1.4525 -1.5516
10235SOL    HW231869   5.727   1.797   3.054  0.2507  0.9952  1.1853
10236SOL     OW31870   7.764   1.707   1.602 -0.1608  0.2342 -0.2972
10236SOL    HW131871   7.719   1.721   1.518  0.1337  1.1550 -0.3162
10236SOL    HW231872   7.856   1.721   1.583 -0.0838  0.3831  0.1671
10237SOL     OW31873   8.456   1.375   8.762 -0.2087  0.0580 -0.8313
10237SOL    HW131874   8.470   1.385   8.856  1.1954  0.3170 -1.0502
10237SOL    HW231875   8.374   1.325   8.755  1.1475 -2.6185  0.6160
10238SOL     OW31876   4.217   0.798   0.458  0.0617 -0.4861  0.3315
10238SOL    HW131877   4.185   0.878   0.417  3.1657  0.0373 -1.3795
10238SOL    HW231878   4.169   0.728   0.414 -1.2114  0.3021  0.3984
10239SOL     OW31879   6.888   5.968   1.087 -0.4186  0.2198  0.3554
10239SOL    HW131880   6.902   5.954   1.180 -1.7302  1.7308  0.8154
10239SOL    HW231881   6.793   5.974   1.077 -0.3604 -0.9104 -1.2528
10240SOL     OW31882   1.408   8.582   7.672 -0.3364 -0.2727 -0.1059
10240SOL    HW131883   1.499   8.555   7.691  0.4491  1.7737 -0.6976
10240SOL    HW231884   1.414   8.627   7.589 -1.7642  0.6523  0.2705
10241SOL     OW31885   1.012   5.797   6.754 -0.0330  0.0070  0.0245
10241SOL    HW131886   0.933   5.846   6.732  0.9251  1.1638 -0.9797
10241SOL    HW231887   1.081   5.838   6.702  0.9496 -1.9989 -0.3526
10242SOL     OW31888   3.066   2.442   3.439 -0.2509  0.4050 -0.8860
10242SOL    HW131889   3.026   2.355   3.437 -0.3635  0.3634  0.9200
10242SOL    HW231890   3.148   2.432   3.390 -0.5955 -0.5264 -1.2998
10243SOL     OW31891   6.282   5.221   6.946  0.2340 -0.1693 -0.3531
10243SOL    HW131892   6.266   5.307   6.983 -0.7514 -0.5072  0.0123
10243SOL    HW231893   6.323   5.239   6.861  0.9888  0.6277  0.1696
10244SOL     OW31894   3.486   3.526   1.611 -0.5700 -0.7696  0.1968
10244SOL    HW131895   3.505   3.607   1.659 -2.6788  0.2720 -0.6109
10244SOL    HW231896   3.408   3.547   1.559  0.1452 -2.6513 -1.7388
10245SOL     OW31897   5.349   0.669   8.240 -0.2237  0.2458  0.0192
10245SOL    HW131898   5.307   0.702   8.319 -0.3822  0.1164 -0.0102
10245SOL    HW231899   5.277   0.651   8.180 -0.0933  0.5255 -0.2273
10246SOL     OW31900   4.787   4.161   0.327  0.2684 -0.3795 -0.8636
10246SOL    HW131901   4.806   4.197   0.241  2.9970  0.4598  0.0026
10246SOL    HW231902   4.794   4.066   0.316 -1.2811 -0.4092 -1.9141
10247SOL     OW31903   1.144   1.100   4.666 -0.3481  0.1015  0.5778
10247SOL    HW131904   1.136   1.171   4.730  0.2322  0.1850  0.5597
10247SOL    HW231905   1.225   1.055   4.689  1.0146  1.3925 -1.3090
10248SOL     OW31906   6.281   1.433   7.278  0.3267 -0.5952 -0.0547
10248SOL    HW131907   6.228   1.465   7.350 -1.0337 -0.7094 -0.9817
10248SOL    HW231908   6.320   1.352   7.311  1.0068  0.1720  1.0849
10249SOL     OW31909   1.352   3.821   8.040 -0.0010 -0.7361 -0.2779
10249SOL    HW131910   1.289   3.787   7.977  0.0095 -1.8846  0.3171
10249SOL    HW231911   1.418   3.753   8.048  0.4344 -0.2531  0.3635
10250SOL     OW31912   6.909   1.327   0.990  0.2238  0.1529 -0.2096
10250SOL    HW131913   6.856   1.406   1.007  0.0060 -0.0612  0.1159
10250SOL    HW231914   6.953   1.345   0.907 -0.7261  0.1420 -0.7286
10251SOL     OW31915   0.734   5.489   1.281  0.4323 -0.3196  0.9685
10251SOL    HW131916   0.666   5.522   1.222  1.1758 -0.4791  0.0044
10251SOL    HW231917   0.779   5.568   1.311  0.3367 -0.2653  0.9697
10252SOL     OW31918   0.496   4.382   0.608  0.1541  0.3262 -0.1377
10252SOL    HW131919   0.532   4.468   0.628 -0.1128  0.8313 -1.6691
10252SOL    HW231920   0.422   4.400   0.550 -0.0284 -0.9275 -0.3286
10253SOL     OW31921   3.861   4.943   5.133  0.3921 -0.7394 -0.3444
10253SOL    HW131922   3.924   4.944   5.205  1.0047 -0.5393 -0.8791
10253SOL    HW231923   3.881   5.021   5.082  1.4667 -2.0398 -2.0133
10254SOL     OW31924   8.761   8.012   6.720  0.2293  0.4446  0.1084
10254SOL    HW131925   8.836   8.049   6.674  0.0992 -1.4801 -1.8274
10254SOL    HW231926   8.797   7.937   6.768 -0.3654 -0.3653 -0.6692
10255SOL     OW31927   7.479   6.838   5.082 -0.4765  0.2935 -0.3163
10255SOL    HW131928   7.521   6.753   5.066 -0.1024  0.2256  0.9175
10255SOL    HW231929   7.439   6.861   4.998 -0.5395 -1.0787 -0.6916
10256SOL     OW31930   7.197   8.217   7.969  0.4741  0.2090  0.3816
10256SOL    HW131931   7.247   8.279   7.916  0.4664 -1.3991 -1.6811
10256SOL    HW231932   7.133   8.180   7.908 -0.7123 -0.5131  1.9869
10257SOL     OW31933   4.566   1.737   2.757  0.3955 -0.1031 -0.2675
10257SOL    HW131934   4.581   1.652   2.799 -0.1043 -0.3869 -0.6535
10257SOL    HW231935   4.650   1.781   2.761  0.4989 -0.3594  0.5179
10258SOL     OW31936   2.959   7.438   3.049 -0.2758  0.0023 -0.1962
10258SOL    HW131937   2.881   7.473   3.006 -1.1333 -0.7943  0.6431
10258SOL    HW231938   2.989   7.509   3.106 -0.9742 -0.0037  0.1964
10259SOL     OW31939   2.914   5.869   3.344 -0.3642 -0.4849 -0.2444
10259SOL    HW131940   2.958   5.887   3.427  0.1245 -0.3735 -0.5207
10259SOL    HW231941   2.972   5.907   3.277 -2.4935  2.7374 -0.4621
10260SOL     OW31942   7.368   3.929   7.801  0.2474  0.4462 -0.6060
10260SOL    HW131943   7.328   3.842   7.805  0.0871  0.5454  0.0833
10260SOL    HW231944   7.444   3.918   7.744  0.3352 -0.1969 -0.3741
10261SOL     OW31945   3.780   3.474   5.838 -0.2584  0.0830 -0.1600
10261SOL    HW131946   3.802   3.564   5.815  1.3345  0.0531  1.0998
10261SOL    HW231947   3.764   3.431   5.754  2.7487  0.6026 -1.1181
10262SOL     OW31948   8.713   5.378   6.890 -0.1494 -0.0854 -0.2448
10262SOL    HW131949   8.676   5.367   6.978  1.6517 -1.4302  0.3976
10262SOL    HW231950   8.637   5.378   6.832 -1.3042 -0.2816  1.1988
10263SOL     OW31951   4.259   0.410   1.701  0.5022 -0.5809 -0.5527
10263SOL    HW131952   4.199   0.337   1.683  0.2373 -0.4616 -0.1451
10263SOL    HW231953   4.202   0.483   1.725  0.8586 -0.8026  1.0243
10264SOL     OW31954   3.965   0.243   2.543  0.0590 -0.2758  0.3865
10264SOL    HW131955   3.965   0.289   2.627 -3.7468 -0.3372  0.5943
10264SOL    HW231956   4.038   0.182   2.549  2.7441  2.8026  1.7360
10265SOL     OW31957   2.103   1.955   8.548 -0.1171 -0.5893  0.0043
10265SOL    HW131958   2.193   1.924   8.532  0.0282 -1.1346  1.7154
10265SOL    HW231959   2.111   2.014   8.623 -1.1788 -0.6115  0.1450
10266SOL     OW31960   5.412   3.729   1.125 -0.1625 -0.2617  0.3511
10266SOL    HW131961   5.360   3.706   1.202 -0.4458  2.4050  1.0508
10266SOL    HW231962   5.464   3.805   1.153  3.7051 -2.3321 -0.4971
10267SOL     OW31963   2.092   8.329   1.978  0.3988  0.0214  0.3504
10267SOL    HW131964   2.136   8.396   2.032  0.0288 -0.7411  1.6512
10267SOL    HW231965   2.160   8.264   1.961 -0.0048 -0.8571  1.8547
10268SOL     OW31966   6.658   3.610   0.601  0.3484 -0.1442 -0.0452
10268SOL    HW131967   6.711   3.581   0.675 -0.3130 -0.3240  0.3598
10268SOL    HW231968   6.645   3.532   0.548  0.3263 -0.1376 -0.0495
10269SOL     OW31969   1.614   6.442   8.425  0.6111  0.1660 -0.2427
10269SOL    HW131970   1.627   6.503   8.497  1.9850 -0.3318 -0.0216
10269SOL    HW231971   1.628   6.356   8.464  1.1161 -0.1274 -1.0261
10270SOL     OW31972   2.880   3.677   1.963 -0.2091 -0.0200 -0.1131
10270SOL    HW131973   2.853   3.587   1.977 -0.5421 -0.0017 -0.6256
10270SOL    HW231974   2.971   3.671   1.936  0.4752 -0.0625  1.9635
10271SOL     OW31975   7.704   6.790   8.591 -0.1640 -0.4127  0.3006
10271SOL    HW131976   7.677   6.725   8.656 -1.2351 -0.1040  0.1770
10271SOL    HW231977   7.622   6.822   8.554  0.3681  0.7617  0.1184
10272SOL     OW31978   6.752   1.493   5.987  0.8663 -0.6190  0.1468
10272SOL    HW131979   6.757   1.588   5.999 -0.5599 -0.6586  1.3367
10272SOL    HW231980   6.666   1.469   6.021  0.6622 -2.1876 -1.3250
10273SOL     OW31981   1.450   2.170   4.956  0.3375  0.2978 -0.1998
10273SOL    HW131982   1.439   2.217   4.874 -1.3857 -1.5820 -1.1412
10273SOL    HW231983   1.367   2.124   4.969  0.9873 -0.3932  2.0030
10274SOL     OW31984   3.036   4.423   3.182 -0.1974  0.0213  0.5647
10274SOL    HW131985   3.061   4.501   3.132 -0.4710  0.4977  1.1612
10274SOL    HW231986   2.949   4.443   3.215 -1.5335 -1.6736 -1.6144
10275SOL     OW31987   0.428   1.300   6.791 -0.1128  0.1010  0.1104
10275SOL    HW131988   0.430   1.216   6.836  1.2407  0.0332 -0.0466
10275SOL    HW231989   0.500   1.296   6.729 -0.5008  1.0960 -0.4276
10276SOL     OW31990   4.348   5.748   2.099 -0.3599  0.2898  0.5308
10276SOL    HW131991   4.259   5.713   2.101 -0.2334 -0.1968 -1.1674
10276SOL    HW231992   4.355   5.799   2.180 -2.5096  1.1787  0.2277
10277SOL     OW31993   6.548   2.924   7.653  0.0415 -0.0336  0.0757
10277SOL    HW131994   6.598   2.979   7.712 -1.1417 -1.1444  2.2336
10277SOL    HW231995   6.461   2.965   7.650 -0.3452 -0.8142  0.3458
10278SOL     OW31996   5.494   1.670   6.156  0.1624 -0.0184 -0.0410
10278SOL    HW131997   5.449   1.753   6.173 -0.1331 -0.7193  3.3178
10278SOL    HW231998   5.426   1.603   6.169  1.2406 -0.9248  1.1592
10279SOL     OW31999   0.493   8.171   0.308  0.5421 -0.3291  0.1784
10279SOL    HW132000   0.406   8.211   0.310  0.6961  0.0855 -0.8148
10279SOL    HW232001   0.485   8.099   0.245  0.7029 -0.8537  0.7374
10280SOL     OW32002   0.940   8.429   7.360 -0.1117  0.2842 -0.2462
10280SOL    HW132003   0.862   8.427   7.415  0.7613  0.2395  1.0276
10280SOL    HW232004   0.993   8.501   7.396  0.9396 -0.4134 -0.3568
10281SOL     OW32005   6.823   5.913   4.828 -0.3343 -0.0975  0.6378
10281SOL    HW132006   6.913   5.931   4.803 -0.7626 -0.1197 -1.0375
10281SOL    HW232007   6.829   5.875   4.916  1.4254 -1.6685 -0.1012
10282SOL     OW32008   4.589   4.862   5.242 -0.5060  0.4392  0.8869
10282SOL    HW132009   4.565   4.797   5.309 -0.1914  1.3451  1.8938
10282SOL    HW232010   4.678   4.888   5.264 -0.6035  1.1662  0.4461
10283SOL     OW32011   7.901   0.569   1.457  0.1600  0.3423  0.3735
10283SOL    HW132012   7.930   0.585   1.367  0.6926 -3.0955 -0.1956
10283SOL    HW232013   7.945   0.637   1.508  1.7373  0.9776 -1.6566
10284SOL     OW32014   5.568   4.672   8.219 -0.1172  0.4074  0.3510
10284SOL    HW132015   5.643   4.681   8.160  0.3388 -1.4798  0.5468
10284SOL    HW232016   5.602   4.697   8.305 -0.0523  0.7061  0.2389
10285SOL     OW32017   3.588   2.977   4.243  0.0167 -0.2779  0.0439
10285SOL    HW132018   3.520   2.969   4.310 -0.1930  0.1547 -0.1100
10285SOL    HW232019   3.587   2.893   4.197 -0.4388 -0.2641  0.0245
10286SOL     OW32020   5.477   7.043   4.974  0.2562  0.1441 -0.0418
10286SOL    HW132021   5.385   7.019   4.965  0.5954 -1.3459  0.1871
10286SOL    HW232022   5.521   6.999   4.901  0.9047  0.1159  0.3563
10287SOL     OW32023   5.747   2.238   8.416 -0.1908  0.8916  0.0711
10287SOL    HW132024   5.780   2.190   8.492  0.4383  0.6556 -0.3379
10287SOL    HW232025   5.765   2.179   8.342 -2.6428  0.2147 -0.0537
10288SOL     OW32026   8.563   8.377   4.142 -0.0778 -0.0837  0.6167
10288SOL    HW132027   8.629   8.309   4.128 -1.1866 -0.7282 -1.9873
10288SOL    HW232028   8.479   8.331   4.140 -0.7600  1.0768  1.1114
10289SOL     OW32029   6.462   0.544   3.206  0.4925  0.2299  0.4310
10289SOL    HW132030   6.443   0.453   3.183 -0.8234  0.3019  1.1494
10289SOL    HW232031   6.386   0.573   3.256  1.3931  1.3750  1.2019
10290SOL     OW32032   4.808   5.833   1.831 -0.0443 -0.2609 -0.2870
10290SOL    HW132033   4.859   5.888   1.890 -0.3662 -1.4050  1.1228
10290SOL    HW232034   4.871   5.800   1.767  0.3252  0.9611 -0.5643
10291SOL     OW32035   3.860   4.165   7.658 -0.2966 -0.4515  0.6204
10291SOL    HW132036   3.933   4.227   7.657  0.3781 -1.2071  1.5458
10291SOL    HW232037   3.784   4.217   7.629  0.8760 -0.0509 -1.9924
10292SOL     OW32038   3.052   2.692   3.308  0.1845 -0.2469  0.1293
10292SOL    HW132039   3.060   2.620   3.371  1.8413 -1.2842 -1.1505
10292SOL    HW232040   2.968   2.732   3.327 -0.1248 -1.5879  1.8646
10293SOL     OW32041   1.993   1.936   3.333  0.5079  0.1855 -0.1913
10293SOL    HW132042   2.062   1.907   3.392 -0.0090 -0.0418  0.3191
10293SOL    HW232043   2.007   1.886   3.253 -0.5374 -1.7730  0.7666
10294SOL     OW32044   7.640   7.469   4.940  0.3840  0.1256  0.2036
10294SOL    HW132045   7.547   7.485   4.956  0.5408 -0.2458  1.6125
10294SOL    HW232046   7.659   7.515   4.857 -0.6561  1.6328  0.7597
10295SOL     OW32047   1.532   7.766   1.930  0.2352 -0.9558  0.0106
10295SOL    HW132048   1.621   7.756   1.963  0.9026  1.4427 -0.8591
10295SOL    HW232049   1.539   7.831   1.860 -1.9325 -2.0517 -1.3620
10296SOL     OW32050   3.686   0.202   5.764  0.3357  0.7166 -0.1684
10296SOL    HW132051   3.774   0.220   5.798  0.4361 -0.2791  0.1233
10296SOL    HW232052   3.629   0.205   5.841  0.1405  1.1148 -0.3221
10297SOL     OW32053   4.189   3.513   1.702  0.0174  0.5924 -0.0768
10297SOL    HW132054   4.175   3.521   1.608  3.3330  2.8046 -0.5593
10297SOL    HW232055   4.256   3.445   1.711  2.2801  2.7059  0.2104
10298SOL     OW32056   1.687   2.662   4.773  0.3906  0.5000 -0.4330
10298SOL    HW132057   1.685   2.633   4.864 -0.4966  0.9047 -0.3160
10298SOL    HW232058   1.726   2.750   4.777 -0.3049  0.8117 -0.3507
10299SOL     OW32059   0.081   5.346   1.225  0.4731  0.0746 -0.1942
10299SOL    HW132060   0.103   5.377   1.137  0.4299  3.2590  0.7835
10299SOL    HW232061  -0.011   5.320   1.220  0.4816  0.1966 -1.0771
10300SOL     OW32062   3.308   3.626   3.461 -0.4803  0.4095 -0.8396
10300SOL    HW132063   3.227   3.672   3.440 -1.0786 -0.7316 -1.1204
10300SOL    HW232064   3.282   3.535   3.472  0.6508  0.1413 -0.1709
10301SOL     OW32065   8.059   4.802   2.529 -0.2548 -0.0743  0.3281
10301SOL    HW132066   8.133   4.862   2.513  1.3233 -1.6823  1.1941
10301SOL    HW232067   8.061   4.742   2.454 -0.6843 -0.1230  0.3569
10302SOL     OW32068   4.915   5.408   6.756 -0.5763  0.3161 -0.3748
10302SOL    HW132069   4.876   5.357   6.684 -1.1067 -1.3507  1.0193
10302SOL    HW232070   4.840   5.445   6.802 -0.3022  0.4547 -0.0426
10303SOL     OW32071   6.240   0.994   4.417  0.5813  0.3556  0.5403
10303SOL    HW132072   6.300   1.067   4.432 -1.1290  1.5933  1.7317
10303SOL    HW232073   6.191   0.986   4.499 -0.0494 -1.4240  0.0413
10304SOL     OW32074   3.117   8.740   3.928 -0.5326 -0.1725 -0.5626
10304SOL    HW132075   3.114   8.656   3.974  0.5424  0.2755  0.3950
10304SOL    HW232076   3.104   8.718   3.836 -3.2414 -1.0440 -0.0585
10305SOL     OW32077   8.499   2.514   4.223 -0.1478 -0.3514 -0.1263
10305SOL    HW132078   8.497   2.421   4.243 -1.4735 -0.0684  1.2101
10305SOL    HW232079   8.590   2.540   4.238  0.2579 -1.4348 -0.6307
10306SOL     OW32080   0.465   0.345   8.440 -0.0972 -0.0105 -0.2660
10306SOL    HW132081   0.539   0.405   8.430  1.3330 -1.6204  0.2086
10306SOL    HW232082   0.401   0.374   8.375  0.0787  2.6296  0.6298
10307SOL     OW32083   6.902   3.294   8.558  0.2920 -0.3562 -0.1619
10307SOL    HW132084   6.906   3.203   8.586 -0.3803  0.0239  1.2602
10307SOL    HW232085   6.833   3.296   8.492 -1.4342 -0.5095  1.5295
10308SOL     OW32086   6.436   2.333   3.982 -0.2375  0.4239  0.0737
10308SOL    HW132087   6.427   2.361   4.073 -1.8674  0.1753  0.0258
10308SOL    HW232088   6.404   2.243   3.981  0.3672  0.2079 -0.6358
10309SOL     OW32089   5.043   1.943   5.879 -0.0160 -0.5549  0.1448
10309SOL    HW132090   5.138   1.949   5.882 -0.0316 -0.5432  0.6870
10309SOL    HW232091   5.015   2.024   5.836  0.0522  1.0446  2.8781
10310SOL     OW32092   8.810   2.805   4.003  0.3583  0.4267  0.3704
10310SOL    HW132093   8.790   2.899   3.996 -1.5032  0.0347 -0.0018
10310SOL    HW232094   8.809   2.788   4.097 -0.6369  0.5500  0.4007
10311SOL     OW32095   5.867   7.356   5.586 -0.0668 -0.4631 -0.3837
10311SOL    HW132096   5.867   7.260   5.584 -0.9804 -0.4981  0.5972
10311SOL    HW232097   5.859   7.379   5.678 -0.3384  0.5557 -0.6451
10312SOL     OW32098   2.238   4.586   8.506 -0.1574  0.1669 -0.3892
10312SOL    HW132099   2.252   4.680   8.508 -2.1790  0.5026  0.2311
10312SOL    HW232100   2.230   4.561   8.598 -0.6992 -0.4141 -0.5851
10313SOL     OW32101   1.420   4.077   7.254  0.8834 -0.5068  0.6171
10313SOL    HW132102   1.465   4.159   7.233  1.4166 -0.7346  0.8615
10313SOL    HW232103   1.489   4.019   7.283  0.8560 -1.7433 -1.5432
10314SOL     OW32104   4.891   6.690   7.625  0.1147 -0.7378 -0.1600
10314SOL    HW132105   4.986   6.688   7.629  0.0825 -1.8641  0.3243
10314SOL    HW232106   4.871   6.722   7.536  0.9514 -2.2154 -0.9065
10315SOL     OW32107   7.181   3.286   8.546 -0.2454 -0.1963 -0.1035
10315SOL    HW132108   7.089   3.312   8.543 -0.3208 -0.4214  0.1951
10315SOL    HW232109   7.202   3.284   8.639  0.9737  3.0230 -0.1849
10316SOL     OW32110   6.183   0.858   5.576  0.1635 -0.0782 -0.5516
10316SOL    HW132111   6.136   0.853   5.659 -0.3209 -1.1134 -0.8745
10316SOL    HW232112   6.135   0.923   5.525 -0.4471 -0.5378 -0.5759
10317SOL     OW32113   1.815   8.108   0.189  0.1504  0.3812 -0.0031
10317SOL    HW132114   1.735   8.082   0.144 -1.0158  3.1015  0.2708
10317SOL    HW232115   1.794   8.100   0.282  0.6604 -0.1208  0.0731
10318SOL     OW32116   8.178   4.715   8.281  0.0354 -0.1931 -0.5530
10318SOL    HW132117   8.245   4.691   8.217  1.5517 -0.1492  0.9474
10318SOL    HW232118   8.174   4.640   8.341 -0.3683  0.3078  0.0615
10319SOL     OW32119   3.103   1.471   6.161  0.0251  0.1045 -0.1562
10319SOL    HW132120   3.173   1.415   6.128  1.0374  1.2095  0.0411
10319SOL    HW232121   3.071   1.519   6.084 -1.5707 -1.4496 -0.5265
10320SOL     OW32122   4.469   4.884   2.297 -0.4114 -0.0332  0.4542
10320SOL    HW132123   4.544   4.920   2.250 -1.7397  2.7906  0.2948
10320SOL    HW232124   4.503   4.861   2.384  0.7939  0.3652  0.1078
10321SOL     OW32125   3.467   6.506   6.659  0.1880 -0.7149  0.0823
10321SOL    HW132126   3.410   6.489   6.733  1.9488  1.0544  1.9845
10321SOL    HW232127   3.438   6.591   6.625  1.8080  0.4001  1.3231
10322SOL     OW32128   0.292   1.215   2.089 -0.3576 -0.3362 -0.0009
10322SOL    HW132129   0.385   1.194   2.076 -0.2522  0.2269 -0.1828
10322SOL    HW232130   0.293   1.289   2.150 -0.7588 -1.4780  1.4483
10323SOL     OW32131   2.304   3.013   3.243 -0.6987 -0.0034  0.0700
10323SOL    HW132132   2.337   2.931   3.278  0.0353 -0.3135 -1.2929
10323SOL    HW232133   2.220   2.990   3.202 -1.1750  0.2113  0.8960
10324SOL     OW32134   4.503   0.001   4.569  0.9470  0.0397 -0.5073
10324SOL    HW132135   4.524   0.094   4.569  3.2019 -0.3339  2.0011
10324SOL    HW232136   4.583  -0.042   4.538  0.0788 -1.1185 -1.2378
10325SOL     OW32137   0.382   3.363   4.241 -0.0578  0.0080 -0.3793
10325SOL    HW132138   0.322   3.377   4.315  0.2747  1.3470 -0.3444
10325SOL    HW232139   0.435   3.287   4.267 -0.4214  0.0275  0.4471
10326SOL     OW32140   3.390   6.449   6.904  0.0948  0.0095  0.0040
10326SOL    HW132141   3.460   6.514   6.916  0.9023 -0.6672 -0.9060
10326SOL    HW232142   3.421   6.373   6.953 -0.7297  0.2065  0.8518
10327SOL     OW32143   5.167   5.915   7.631 -0.0052  0.1188  0.2689
10327SOL    HW132144   5.157   5.970   7.553  0.0038  1.4283  1.1543
10327SOL    HW232145   5.226   5.845   7.604 -1.4773 -0.5299 -1.4170
10328SOL     OW32146   6.424   7.102   4.814  0.0493  0.1904 -0.1609
10328SOL    HW132147   6.427   7.096   4.718 -0.0497  1.5824 -0.2705
10328SOL    HW232148   6.350   7.160   4.832  0.3572  0.3203  0.7391
10329SOL     OW32149   2.090   2.152   1.579 -0.2101 -0.3955  0.3090
10329SOL    HW132150   2.014   2.100   1.604  0.7754 -1.7297  0.6317
10329SOL    HW232151   2.155   2.135   1.647  0.6706  0.0654 -0.3861
10330SOL     OW32152   8.683   6.220   1.337 -0.2306 -0.5798  0.6960
10330SOL    HW132153   8.634   6.156   1.286  0.2984 -0.9984  0.6926
10330SOL    HW232154   8.718   6.170   1.411  2.3758 -0.9599 -0.6613
10331SOL     OW32155   7.301   6.360   1.769  0.0666 -0.3551 -0.0974
10331SOL    HW132156   7.285   6.360   1.675  0.2641 -0.9783 -0.1351
10331SOL    HW232157   7.334   6.272   1.788  0.2048 -0.1745  0.5237
10332SOL     OW32158   3.983   7.649   7.355  0.0524  0.2143  0.3668
10332SOL    HW132159   4.047   7.694   7.410  0.3704  2.1661 -1.4568
10332SOL    HW232160   3.911   7.712   7.346 -0.1111 -0.1508 -1.1764
10333SOL     OW32161   7.073   7.911   0.382  0.0717 -0.0150  0.2103
10333SOL    HW132162   7.041   7.913   0.472  2.2542 -1.3264  1.0985
10333SOL    HW232163   7.104   8.000   0.365  1.1240 -0.1510  1.3512
10334SOL     OW32164   7.174   1.063   4.621 -0.0343  0.3123 -0.8314
10334SOL    HW132165   7.248   1.018   4.661  0.0460 -0.5106 -1.8623
10334SOL    HW232166   7.214   1.126   4.560 -0.1611  1.2553  0.0314
10335SOL     OW32167   2.857   0.130   8.705  0.2211  0.1435  0.2850
10335SOL    HW132168   2.933   0.165   8.753  1.1126 -0.9276 -0.3055
10335SOL    HW232169   2.874   0.037   8.697  1.0552  0.4560 -3.6568
10336SOL     OW32170   4.320   2.330   3.947  0.3976 -0.1112 -0.4688
10336SOL    HW132171   4.405   2.370   3.929 -0.5510  2.1448 -0.3283
10336SOL    HW232172   4.274   2.395   4.001 -1.9495 -0.5733 -1.7592
10337SOL     OW32173   6.544   6.343   1.493 -0.2227  0.2083 -0.0559
10337SOL    HW132174   6.524   6.356   1.400 -1.3154  1.0908  0.2868
10337SOL    HW232175   6.564   6.430   1.526  0.2796 -0.1189  0.5166
10338SOL     OW32176   0.348   0.886   5.901  0.8650 -0.2587  0.2754
10338SOL    HW132177   0.394   0.829   5.963 -1.2493 -1.0827  1.1728
10338SOL    HW232178   0.292   0.941   5.956  2.2596  2.2772 -0.6236
10339SOL     OW32179   8.632   5.538   4.610  0.2277  0.0730 -0.1994
10339SOL    HW132180   8.581   5.457   4.600  0.8753 -0.4021  0.2026
10339SOL    HW232181   8.704   5.529   4.548  0.8597 -0.1265  0.5405
10340SOL     OW32182   0.498   7.330   4.108 -0.1211  0.3367  0.4978
10340SOL    HW132183   0.415   7.357   4.070  0.0723  0.5480  0.2171
10340SOL    HW232184   0.563   7.388   4.068  0.2105 -0.0904  0.4077
10341SOL     OW32185   1.095   0.862   8.692 -0.2925  0.3569 -0.4007
10341SOL    HW132186   1.045   0.891   8.768  1.4804 -0.2006  1.0496
10341SOL    HW232187   1.117   0.942   8.645 -1.1771  0.7269 -0.2039
10342SOL     OW32188   2.018   5.433   7.578  0.0078  0.1971 -0.0627
10342SOL    HW132189   2.097   5.487   7.581  0.8773 -0.7837 -2.5160
10342SOL    HW232190   1.963   5.475   7.510 -2.4859  1.8481  2.6982
10343SOL     OW32191   6.879   1.773   4.187  0.1966  0.0574  0.0711
10343SOL    HW132192   6.795   1.798   4.148 -0.6973 -1.9161  0.6175
10343SOL    HW232193   6.935   1.849   4.173 -0.9876  0.5978 -2.3462
10344SOL     OW32194   7.064   5.631   2.004  0.4012 -0.4210  0.5538
10344SOL    HW132195   7.084   5.539   1.993  0.5485 -0.2862 -0.3782
10344SOL    HW232196   7.125   5.677   1.946 -0.0879  0.2189  0.5206
10345SOL     OW32197   8.122   4.262   1.350 -0.3425 -0.2095 -0.4350
10345SOL    HW132198   8.070   4.189   1.316 -0.4842  0.5205 -1.8490
10345SOL    HW232199   8.060   4.315   1.400 -0.7306  0.0801 -1.2081
10346SOL     OW32200   6.969   4.795   8.040  0.1478  0.1945 -0.3452
10346SOL    HW132201   6.921   4.745   7.974  0.2247 -1.4508  0.7870
10346SOL    HW232202   7.059   4.762   8.034  0.3080  0.5278  0.1326
10347SOL     OW32203   2.018   3.097   8.817 -0.0604  0.1187  0.3598
10347SOL    HW132204   1.956   3.029   8.789 -0.7235 -0.1195  2.2548
10347SOL    HW232205   2.077   3.108   8.743 -1.6225 -0.5395 -1.0441
10348SOL     OW32206   5.127   1.900   6.836 -0.9501  0.0852  0.3770
10348SOL    HW132207   5.052   1.952   6.866 -0.3418  0.6245  0.9953
10348SOL    HW232208   5.105   1.810   6.859 -1.1289  0.3203  1.1444
10349SOL     OW32209   6.086   0.465   6.436  0.1616 -0.5914  0.1966
10349SOL    HW132210   6.069   0.498   6.348  2.3532 -0.0889 -0.1059
10349SOL    HW232211   6.171   0.420   6.429  0.1668 -0.9399  1.9567
10350SOL     OW32212   4.742   7.271   6.570 -0.8481  0.8671  0.4338
10350SOL    HW132213   4.736   7.267   6.665  1.9856  2.5664  0.8021
10350SOL    HW232214   4.715   7.359   6.547  2.0169  1.7724  0.1696
10351SOL     OW32215   3.514   7.564   2.507 -0.3099  0.3883  0.4334
10351SOL    HW132216   3.549   7.525   2.427  0.0087 -0.3447  0.9214
10351SOL    HW232217   3.589   7.569   2.567 -0.8653 -0.5294  1.2340
10352SOL     OW32218   6.038   4.027   5.149 -0.1336  0.1545  0.2937
10352SOL    HW132219   6.029   4.069   5.234  0.0285  1.6549 -0.4028
10352SOL    HW232220   5.961   3.969   5.143  0.7209 -1.2852  2.1212
10353SOL     OW32221   7.785   8.215   4.927 -0.1749 -0.5463 -0.2971
10353SOL    HW132222   7.805   8.304   4.955 -1.6443 -0.0297 -0.7835
10353SOL    HW232223   7.690   8.214   4.916 -0.0491 -1.7641 -1.6511
10354SOL     OW32224   1.654   2.800   1.002  0.4487  0.4622  0.0443
10354SOL    HW132225   1.662   2.706   1.016  0.0954  0.4095 -0.0872
10354SOL    HW232226   1.701   2.816   0.920 -2.6553 -0.2250 -2.0276
10355SOL     OW32227   5.575   1.321   3.763  0.9559  0.7558 -0.2983
10355SOL    HW132228   5.491   1.351   3.799  0.4171  0.4333 -1.2487
10355SOL    HW232229   5.635   1.323   3.838  0.4548  2.2695  0.1045
10356SOL     OW32230   4.219   7.858   8.736  0.1619 -0.1330 -0.6170
10356SOL    HW132231   4.283   7.862   8.807 -0.9211  0.4978  0.3486
10356SOL    HW232232   4.272   7.843   8.657  1.3271 -1.4534  0.3692
10357SOL     OW32233   3.504   6.234   7.011 -0.1543 -0.1839 -0.5679
10357SOL    HW132234   3.595   6.265   7.011 -0.3647  0.5215 -2.2536
10357SOL    HW232235   3.509   6.149   7.054  0.9804  0.6723  1.1042
10358SOL     OW32236   2.618   1.188   6.605  0.2855 -0.3691  0.6496
10358SOL    HW132237   2.579   1.233   6.529 -0.7527 -2.6014 -0.2263
10358SOL    HW232238   2.684   1.249   6.637  1.4971  0.2996 -2.6727
10359SOL     OW32239   5.081   4.241   1.460  0.1006 -0.4243  0.5331
10359SOL    HW132240   5.042   4.173   1.405  2.5031 -0.4755 -1.2463
10359SOL    HW232241   5.024   4.245   1.537 -1.4853 -2.7138 -0.4197
10360SOL     OW32242   1.123   1.429   0.265 -0.0071  0.7162  0.5221
10360SOL    HW132243   1.085   1.438   0.352  1.1215 -1.3130  1.2738
10360SOL    HW232244   1.060   1.374   0.217  1.6294 -2.4148  1.6846
10361SOL     OW32245   2.116   8.140   8.001  0.0675  0.5388 -0.4781
10361SOL    HW132246   2.085   8.172   8.085 -0.3197  0.7015 -0.6774
10361SOL    HW232247   2.050   8.171   7.938  0.6306  0.8867 -0.9102
10362SOL     OW32248   4.206   6.206   5.547  0.2732 -0.7110 -0.3495
10362SOL    HW132249   4.266   6.169   5.611  0.3853  0.2507  0.1198
10362SOL    HW232250   4.263   6.245   5.480  0.2643  1.5615  0.8667
10363SOL     OW32251   0.081   5.244   0.257 -0.0941 -0.4159 -0.6805
10363SOL    HW132252   0.074   5.335   0.287 -1.6024 -0.9085  0.6430
10363SOL    HW232253   0.156   5.209   0.305 -0.1321 -0.1293 -0.4042
10364SOL     OW32254   3.147   4.954   8.519 -0.4342 -0.4353 -0.1378
10364SOL    HW132255   3.239   4.947   8.493 -0.6025 -0.0016 -0.8631
10364SOL    HW232256   3.139   4.892   8.592  0.4476 -0.4236 -0.0132
10365SOL     OW32257   4.865   0.526   0.944  0.1532  0.6884 -0.4216
10365SOL    HW132258   4.804   0.528   0.871  0.6885 -0.3105 -0.9122
10365SOL    HW232259   4.925   0.599   0.928 -0.0776  0.8213 -0.6715
10366SOL     OW32260   2.609   7.685   1.139  0.0637 -0.1681  0.1193
10366SOL    HW132261   2.562   7.676   1.056 -0.4415  1.0154  0.2482
10366SOL    HW232262   2.541   7.675   1.206 -0.3647  2.8068  0.2926
10367SOL     OW32263   4.719   4.616   7.340 -0.7970 -0.5681 -0.2323
10367SOL    HW132264   4.750   4.562   7.412  1.1804  2.1078  1.0566
10367SOL    HW232265   4.636   4.575   7.314  0.0641 -3.5505  1.2877
10368SOL     OW32266   1.304   0.876   2.780  0.0231  0.0178 -0.1172
10368SOL    HW132267   1.261   0.846   2.860 -1.5555  2.3762  0.0379
10368SOL    HW232268   1.353   0.954   2.808  2.9280 -1.4851 -0.7005
10369SOL     OW32269   2.768   5.473   4.773 -0.2343  0.3043  0.1575
10369SOL    HW132270   2.691   5.445   4.724 -0.5456  0.0729  0.7699
10369SOL    HW232271   2.733   5.520   4.848  0.2172  0.0473  0.5335
10370SOL     OW32272   2.824   3.936   4.412  0.0218  0.2327 -0.1865
10370SOL    HW132273   2.767   3.993   4.463 -0.8628 -1.1107  0.3744
10370SOL    HW232274   2.816   3.850   4.453  2.4450 -0.0270 -0.1069
10371SOL     OW32275   0.383   6.634   1.978 -0.1854 -0.0578 -0.6596
10371SOL    HW132276   0.443   6.576   1.931 -0.5044 -0.2161 -0.8756
10371SOL    HW232277   0.364   6.589   2.059 -2.5242 -1.5546 -1.9380
10372SOL     OW32278   7.054   0.325   1.524  0.3820  0.6248 -0.1479
10372SOL    HW132279   7.092   0.262   1.463 -1.0398  0.2565 -0.6841
10372SOL    HW232280   6.992   0.376   1.471 -3.1217 -1.6062  1.4081
10373SOL     OW32281   5.830   1.439   1.956 -0.3779  0.1451 -0.0207
10373SOL    HW132282   5.847   1.518   2.007  0.7943  0.0899 -0.2823
10373SOL    HW232283   5.890   1.446   1.881 -0.6152 -0.7427 -0.3094
10374SOL     OW32284   4.533   2.361   8.687  0.2567 -0.2517  0.4847
10374SOL    HW132285   4.573   2.318   8.611  0.7991 -1.2066  1.2858
10374SOL    HW232286   4.571   2.316   8.762  0.5865  1.4101  1.3647
10375SOL     OW32287   2.111   6.220   0.196 -0.1532 -0.0247 -0.2475
10375SOL    HW132288   2.059   6.172   0.131 -0.2438 -0.5261  0.1896
10375SOL    HW232289   2.199   6.224   0.159 -0.3452  0.2411 -0.6854
10376SOL     OW32290   5.222   3.298   2.260 -0.3098  0.2387  0.8837
10376SOL    HW132291   5.290   3.279   2.324  0.6431 -1.0460 -0.4626
10376SOL    HW232292   5.261   3.363   2.202 -0.1649 -0.5802  0.0451
10377SOL     OW32293   8.321   0.702   3.051  0.0096  0.1518 -0.3995
10377SOL    HW132294   8.262   0.747   3.111 -0.0370 -0.8536  0.3381
10377SOL    HW232295   8.373   0.772   3.011 -0.5998  0.9119  0.1133
10378SOL     OW32296   8.401   2.485   2.553  0.4337  0.6075 -0.0338
10378SOL    HW132297   8.320   2.448   2.519  0.2762  1.8345 -1.0707
10378SOL    HW232298   8.425   2.428   2.626 -2.0339  0.9039  1.1237
10379SOL     OW32299   5.664   0.423   1.290  0.0033 -0.8873 -0.3214
10379SOL    HW132300   5.662   0.371   1.370 -0.0519 -0.5590 -0.1073
10379SOL    HW232301   5.577   0.411   1.251  0.7142 -2.7543 -1.4464
10380SOL     OW32302   4.404   8.466   1.116 -0.2717  0.5694  0.4202
10380SOL    HW132303   4.381   8.446   1.025  1.2916  0.3518  0.0527
10380SOL    HW232304   4.496   8.492   1.113 -0.2057  0.6187  1.9377
10381SOL     OW32305   3.297   6.725   7.527  0.2138 -0.2414  0.5653
10381SOL    HW132306   3.243   6.647   7.514  0.4108 -0.1584 -1.0151
10381SOL    HW232307   3.332   6.744   7.440 -0.0449  1.7541  0.8460
10382SOL     OW32308   7.820   3.157   0.545 -0.0524 -0.2276  0.0806
10382SOL    HW132309   7.832   3.151   0.450 -0.5574 -1.5954  0.0828
10382SOL    HW232310   7.889   3.217   0.573  0.6658 -0.4839 -1.0435
10383SOL     OW32311   4.232   1.259   4.157 -0.1265  0.2630 -0.4046
10383SOL    HW132312   4.141   1.250   4.128 -0.6755  0.1459  1.2641
10383SOL    HW232313   4.276   1.183   4.118 -0.2335  1.3454 -2.8541
10384SOL     OW32314   2.349   5.802   4.401  0.2984 -0.3374 -0.5164
10384SOL    HW132315   2.274   5.743   4.403  0.1145 -0.0859  0.6114
10384SOL    HW232316   2.370   5.812   4.308 -2.1967  1.0127 -1.0187
10385SOL     OW32317   4.490   3.253   7.096  0.2572 -0.5453  0.0100
10385SOL    HW132318   4.582   3.266   7.118  0.2600  0.5757 -0.5937
10385SOL    HW232319   4.443   3.314   7.153 -0.2401 -1.9225  1.1460
10386SOL     OW32320   3.087   7.777   0.052 -0.2264 -0.1107 -0.0537
10386SOL    HW132321   3.142   7.854   0.037  0.1680 -0.3979 -0.0874
10386SOL    HW232322   3.057   7.751  -0.035  0.6627 -0.7460 -0.1764
10387SOL     OW32323   4.494   7.489   5.828  0.0720  0.1811 -0.2262
10387SOL    HW132324   4.483   7.431   5.752  0.8605  0.7963 -0.8293
10387SOL    HW232325   4.588   7.487   5.845 -0.0119  0.6007  0.2995
10388SOL     OW32326   4.378   7.274   0.876 -0.2277  0.8204  0.1780
10388SOL    HW132327   4.395   7.182   0.898 -1.4285  0.8495  1.2906
10388SOL    HW232328   4.457   7.320   0.906  0.0261  0.2648  0.3829
10389SOL     OW32329   8.251   1.340   3.534 -0.1807 -0.4870  0.3164
10389SOL    HW132330   8.246   1.245   3.528 -0.2649 -0.4602 -0.0525
10389SOL    HW232331   8.160   1.368   3.543 -0.3659 -0.3099 -1.6609
10390SOL     OW32332   1.507   2.789   7.224 -0.3389  0.2390  0.3410
10390SOL    HW132333   1.486   2.740   7.303 -1.6483 -1.2664 -0.8760
10390SOL    HW232334   1.601   2.777   7.213 -0.4762 -1.2811  0.5819
10391SOL     OW32335   0.769   4.326   3.811  0.5462  0.1731 -0.4885
10391SOL    HW132336   0.776   4.331   3.716 -1.4004  0.0599 -0.6889
10391SOL    HW232337   0.744   4.414   3.838 -0.5576 -0.1848 -0.2882
10392SOL     OW32338   6.252   7.454   7.191  0.1121 -0.5974 -0.5576
10392SOL    HW132339   6.274   7.418   7.105 -0.9479  1.2984 -1.6896
10392SOL    HW232340   6.156   7.460   7.191  0.1867  0.9107  0.1213
10393SOL     OW32341   7.770   7.367   0.948 -0.4024  0.0851  0.1592
10393SOL    HW132342   7.770   7.338   0.857  2.1295 -0.4992  0.2795
10393SOL    HW232343   7.858   7.403   0.962 -0.8789  0.5879  2.2580
10394SOL     OW32344   4.744   2.687   2.810  0.2805  0.5626 -0.1433
10394SOL    HW132345   4.788   2.755   2.859  1.0424  0.3296 -0.4893
10394SOL    HW232346   4.713   2.625   2.876 -1.3201  1.7413  0.2511
10395SOL     OW32347   0.623   5.826   4.651  0.0274  0.3049 -0.0222
10395SOL    HW132348   0.649   5.748   4.602  1.0465  0.1542  0.7164
10395SOL    HW232349   0.678   5.896   4.615  1.3390  0.0410  1.3760
10396SOL     OW32350   8.809   2.346   8.588 -0.5735 -0.0250  0.2643
10396SOL    HW132351   8.816   2.404   8.664 -0.2363 -0.2388  0.3966
10396SOL    HW232352   8.897   2.345   8.550 -0.0636 -1.9046  1.3389
10397SOL     OW32353   1.062   7.118   6.177 -0.7550 -0.3091  0.6758
10397SOL    HW132354   0.990   7.056   6.165  0.2605 -1.3099 -0.3656
10397SOL    HW232355   1.110   7.117   6.095  2.0300 -1.7060  2.1946
10398SOL     OW32356   8.145   4.533   0.994  0.4771 -0.0093 -0.0271
10398SOL    HW132357   8.203   4.599   1.033  0.2599  0.8713 -1.1148
10398SOL    HW232358   8.197   4.453   0.993  0.6528  0.0504  1.5859
10399SOL     OW32359   5.721   1.030   8.520  0.6353 -0.1795 -0.6124
10399SOL    HW132360   5.760   0.969   8.582  1.3423 -0.5787 -1.4191
10399SOL    HW232361   5.684   0.974   8.452 -0.6103  0.2319 -0.2857
10400SOL     OW32362   7.044   8.489   2.982  0.0925 -0.7085  0.6960
10400SOL    HW132363   7.098   8.550   3.031  0.5482 -0.4032 -0.1611
10400SOL    HW232364   7.038   8.411   3.038  0.5144 -0.3369  1.2664
10401SOL     OW32365   2.418   7.130   0.907  0.1791 -0.1773 -0.2167
10401SOL    HW132366   2.479   7.120   0.980 -0.7110 -1.4032  0.3975
10401SOL    HW232367   2.472   7.162   0.835  1.1506  0.6942  0.8650
10402SOL     OW32368   4.352   0.316   0.364 -0.6175 -0.2196  0.8493
10402SOL    HW132369   4.293   0.271   0.303  0.8461 -0.7423 -0.2299
10402SOL    HW232370   4.391   0.387   0.312  1.3661 -1.2522  0.8365
10403SOL     OW32371   6.437   0.118   1.467  0.9047 -0.1027  0.4308
10403SOL    HW132372   6.494   0.145   1.395 -0.3618 -1.0300 -1.0075
10403SOL    HW232373   6.350   0.112   1.427  0.2161 -0.9962  1.9619
10404SOL     OW32374   5.599   0.811   0.258 -0.8842 -0.2213 -0.7865
10404SOL    HW132375   5.690   0.842   0.266 -1.1938  0.8578 -1.1823
10404SOL    HW232376   5.547   0.891   0.268 -1.7638 -0.7544 -1.0743
10405SOL     OW32377   6.084   2.281   2.941  0.0357  0.5202 -0.1208
10405SOL    HW132378   6.109   2.348   2.878  0.0111 -0.5651 -1.3060
10405SOL    HW232379   6.050   2.209   2.888 -0.4529 -0.2226  1.1566
10406SOL     OW32380   0.080   3.189   3.820 -0.3833  0.2629 -0.0214
10406SOL    HW132381   0.131   3.108   3.818 -0.5285  0.1530  0.7012
10406SOL    HW232382   0.097   3.229   3.735  0.6387  0.0621  0.0733
10407SOL     OW32383   4.943   3.853   5.815  0.2668  0.6495 -0.2383
10407SOL    HW132384   4.860   3.895   5.792  0.0671  0.3694 -0.0383
10407SOL    HW232385   4.990   3.920   5.866  0.0774  0.7383 -0.1770
10408SOL     OW32386   1.138   5.296   3.922  0.0801  0.1224  0.1673
10408SOL    HW132387   1.101   5.309   3.835 -2.8152 -2.5046  0.8204
10408SOL    HW232388   1.156   5.202   3.927 -1.2271 -0.1023  2.8065
10409SOL     OW32389   7.319   2.886   8.283  0.2327  0.3637  0.8338
10409SOL    HW132390   7.340   2.883   8.376  0.3669  1.6754  0.8638
10409SOL    HW232391   7.377   2.953   8.247 -0.1702  0.2306 -0.1067
10410SOL     OW32392   3.322   7.498   1.292  0.1334 -0.1210  0.7586
10410SOL    HW132393   3.373   7.467   1.217 -3.2340 -1.4051 -1.2071
10410SOL    HW232394   3.388   7.526   1.355  3.2422  1.7131 -2.8492
10411SOL     OW32395   8.266   6.821   3.895 -0.1649 -0.3073  0.0367
10411SOL    HW132396   8.330   6.855   3.833 -2.5673  0.8307 -2.0274
10411SOL    HW232397   8.239   6.898   3.946  0.2976 -0.8367  1.1155
10412SOL     OW32398   4.788   4.443   2.329  0.1723  0.3893  0.2557
10412SOL    HW132399   4.790   4.443   2.424 -1.6011  1.6362  0.3321
10412SOL    HW232400   4.698   4.465   2.306  0.4173 -0.3876 -1.7265
10413SOL     OW32401   7.119   3.079   4.896  0.2463  0.3685 -0.6832
10413SOL    HW132402   7.061   3.119   4.960  0.7828 -0.0080  0.0480
10413SOL    HW232403   7.166   3.153   4.857 -0.0736  0.5986 -0.6390
10414SOL     OW32404   5.211   3.876   1.735  0.5225 -0.3084  0.3207
10414SOL    HW132405   5.138   3.815   1.750  0.7122 -0.3380  1.1977
10414SOL    HW232406   5.210   3.892   1.641  0.2057 -1.3411  0.1359
10415SOL     OW32407   2.080   2.372   6.355 -0.2565  0.2974 -0.4261
10415SOL    HW132408   2.017   2.300   6.349 -0.1248 -0.1351  2.1853
10415SOL    HW232409   2.163   2.334   6.325 -0.5387 -0.1522 -0.6435
10416SOL     OW32410   2.226   6.794   0.125  0.4189  0.7989  0.5147
10416SOL    HW132411   2.181   6.724   0.077 -0.0923  1.0321  0.6513
10416SOL    HW232412   2.179   6.874   0.102  1.2451  1.1650  0.0572
10417SOL     OW32413   5.360   4.931   4.724  0.1674 -0.5888  0.2516
10417SOL    HW132414   5.396   4.941   4.636  1.7371 -0.8553  0.8249
10417SOL    HW232415   5.390   4.844   4.752  0.0248 -0.3522  1.1788
10418SOL     OW32416   0.298   8.624   7.881  0.2296  0.2659  0.1906
10418SOL    HW132417   0.337   8.588   7.961  1.3672  1.3604  0.1552
10418SOL    HW232418   0.253   8.703   7.911 -0.6632 -0.1560 -0.0209
10419SOL     OW32419   1.129   6.879   7.986  0.4911 -0.2106  0.0497
10419SOL    HW132420   1.058   6.872   7.922 -0.4699  1.8711  0.7892
10419SOL    HW232421   1.209   6.865   7.936 -0.3449 -0.6637 -1.1911
10420SOL     OW32422   0.324   8.776   5.275 -0.2373  0.5866  0.1195
10420SOL    HW132423   0.272   8.805   5.350 -1.1525 -2.5841  0.8953
10420SOL    HW232424   0.307   8.840   5.207 -2.6999  1.3625  1.3454
10421SOL     OW32425   1.417   3.783   6.233  0.1325  0.2760  0.0409
10421SOL    HW132426   1.330   3.784   6.273  0.5725 -1.9166  1.1756
10421SOL    HW232427   1.405   3.737   6.150  0.0114  1.0873 -0.4060
10422SOL     OW32428   6.893   3.618   2.591 -0.3620 -0.4186  0.0593
10422SOL    HW132429   6.876   3.684   2.658 -2.2242 -0.2355 -0.5561
10422SOL    HW232430   6.940   3.548   2.637  0.6834  0.8185  0.9481
10423SOL     OW32431   5.742   5.885   5.468 -0.1598 -0.3883  0.2594
10423SOL    HW132432   5.707   5.823   5.404  1.1236 -0.8306 -0.0351
10423SOL    HW232433   5.701   5.860   5.550 -1.4281 -0.1465 -0.2735
10424SOL     OW32434   5.150   4.908   2.990  0.2303 -0.4610  0.4471
10424SOL    HW132435   5.227   4.852   2.985 -0.1789 -1.1342  1.3345
10424SOL    HW232436   5.166   4.965   3.066  0.7206  0.7856 -0.5448
10425SOL     OW32437   3.389   1.700   0.653 -0.4430 -0.4016 -0.4196
10425SOL    HW132438   3.327   1.675   0.721 -1.6878  1.0660 -0.9513
10425SOL    HW232439   3.355   1.782   0.618  1.0313 -0.2897 -1.7339
10426SOL     OW32440   6.637   4.125   5.894  0.4828 -0.3239 -0.5417
10426SOL    HW132441   6.685   4.154   5.972 -1.3010 -1.4539  1.0545
10426SOL    HW232442   6.659   4.190   5.827  2.5857  0.3358  0.6820
10427SOL     OW32443   1.314   8.720   8.348  0.5303 -0.3410 -0.4969
10427SOL    HW132444   1.365   8.657   8.398 -1.0560 -1.2197  0.1072
10427SOL    HW232445   1.378   8.779   8.309  2.1745 -2.9775 -2.0044
10428SOL     OW32446   7.106   1.962   0.146 -0.4088 -0.1085 -0.4166
10428SOL    HW132447   7.142   1.888   0.196 -0.2498  0.2130 -0.0421
10428SOL    HW232448   7.067   1.922   0.069 -0.0302 -0.5553 -0.3868
10429SOL     OW32449   6.033   5.619   8.615  0.4812  0.1438 -0.6407
10429SOL    HW132450   5.960   5.662   8.571 -0.0370  0.6861  0.6961
10429SOL    HW232451   6.034   5.657   8.703  1.1368 -1.2770  0.0003
10430SOL     OW32452   8.059   0.391   0.433  0.1752 -1.0490 -0.0869
10430SOL    HW132453   8.019   0.436   0.359  0.3790  1.2177  1.0857
10430SOL    HW232454   8.001   0.410   0.507  1.1640 -1.2981  0.7784
10431SOL     OW32455   7.527   2.053   8.836  0.4242 -0.2583 -0.9778
10431SOL    HW132456   7.488   2.140   8.822  1.3452  0.2445 -0.5649
10431SOL    HW232457   7.612   2.058   8.792  2.4736  0.6480  2.6545
10432SOL     OW32458   5.622   3.402   0.832  0.0457  0.0934 -0.6207
10432SOL    HW132459   5.652   3.311   0.821  0.4480  0.0285  0.8042
10432SOL    HW232460   5.534   3.393   0.869  0.2861  0.2627  0.0121
10433SOL     OW32461   1.346   8.712   7.901  0.1141 -0.9027 -0.3104
10433SOL    HW132462   1.387   8.675   7.822  0.9334 -1.2665  0.2732
10433SOL    HW232463   1.390   8.668   7.974 -0.7242 -0.6594  0.3534
10434SOL     OW32464   8.543   1.750   6.318  0.1108  0.2509  1.0967
10434SOL    HW132465   8.579   1.720   6.402  1.4127  1.7717  1.1401
10434SOL    HW232466   8.566   1.843   6.315 -1.2525  0.5746 -0.2838
10435SOL     OW32467   4.032   2.583   3.495 -0.6249  0.0265 -0.3490
10435SOL    HW132468   4.088   2.646   3.541 -1.5207  0.5926 -0.0071
10435SOL    HW232469   4.082   2.501   3.496  0.0334  0.4229  0.2741
10436SOL     OW32470   1.443   6.652   3.362  0.3192  0.3118 -0.2327
10436SOL    HW132471   1.534   6.625   3.348  0.9816  2.3907 -0.2727
10436SOL    HW232472   1.449   6.725   3.424 -1.4128 -0.0536  0.4317
10437SOL     OW32473   1.913   5.388   6.200 -0.2751  0.0962  0.1367
10437SOL    HW132474   1.926   5.332   6.276  1.1919 -0.2993 -0.3708
10437SOL    HW232475   1.921   5.477   6.233 -1.1743 -0.0247  0.6988
10438SOL     OW32476   1.965   0.180   6.582 -0.1768  0.4398  0.0389
10438SOL    HW132477   2.043   0.149   6.629 -0.0435  0.1021 -0.3880
10438SOL    HW232478   1.977   0.146   6.493 -0.2945  1.2831 -0.3089
10439SOL     OW32479   1.292   1.176   1.323  0.0005  0.0056  0.1067
10439SOL    HW132480   1.250   1.093   1.299 -0.4753  0.2630  0.0463
10439SOL    HW232481   1.385   1.154   1.330 -0.0720 -0.4543 -0.2863
10440SOL     OW32482   8.590   3.469   2.466 -0.1188 -0.5540  0.3352
10440SOL    HW132483   8.562   3.479   2.557 -0.1689  0.0769  0.2565
10440SOL    HW232484   8.601   3.559   2.434 -0.4325 -0.7628 -0.3838
10441SOL     OW32485   6.880   2.086   3.674 -0.3918 -0.5983 -0.2872
10441SOL    HW132486   6.891   2.103   3.581 -0.3523  1.7288  0.0789
10441SOL    HW232487   6.969   2.076   3.708 -0.3131  0.1366 -0.2617
10442SOL     OW32488   3.358   8.267   7.722 -0.3764 -0.2795 -0.1687
10442SOL    HW132489   3.430   8.210   7.750 -0.3354 -0.2416 -0.1980
10442SOL    HW232490   3.383   8.295   7.634  0.5515  1.3485  0.5811
10443SOL     OW32491   1.649   4.524   7.125 -0.0706 -0.0034 -0.8756
10443SOL    HW132492   1.574   4.578   7.151 -0.0568  0.3773 -1.6099
10443SOL    HW232493   1.679   4.562   7.043  1.2764  0.1959 -0.3181
10444SOL     OW32494   4.093   8.610   4.272 -0.4369 -0.1806  0.4894
10444SOL    HW132495   4.057   8.545   4.332 -1.1568  0.7018  1.0406
10444SOL    HW232496   4.159   8.656   4.323 -1.2863  0.7945  0.7370
10445SOL     OW32497   7.601   7.243   6.685  0.6791 -0.0944 -0.2148
10445SOL    HW132498   7.607   7.321   6.629 -0.2538  0.1714  0.0315
10445SOL    HW232499   7.691   7.216   6.699  1.0579  1.3132  0.1980
10446SOL     OW32500   8.291   4.222   1.595 -0.5983 -0.0700  0.0152
10446SOL    HW132501   8.256   4.280   1.663 -1.4997 -1.7762  1.0947
10446SOL    HW232502   8.218   4.209   1.534 -0.4014 -0.0447 -0.2264
10447SOL     OW32503   2.506   1.094   3.932 -0.4430 -0.5765 -0.8460
10447SOL    HW132504   2.429   1.126   3.978 -1.9798 -0.2894 -3.4114
10447SOL    HW232505   2.483   1.004   3.907  0.6038 -0.9514 -0.4942
10448SOL     OW32506   2.261   0.089   7.275 -0.2557  0.7622  0.6877
10448SOL    HW132507   2.264   0.071   7.181 -0.0915  1.9761  0.4384
10448SOL    HW232508   2.248   0.004   7.316  1.0690  0.0225 -0.3501
10449SOL     OW32509   3.703   7.440   0.891 -0.0496 -0.1105 -0.0714
10449SOL    HW132510   3.760   7.481   0.956  0.4180  0.1240 -0.6192
10449SOL    HW232511   3.763   7.392   0.834 -0.2327  1.2198 -1.4500
10450SOL     OW32512   3.415   7.479   3.920 -0.0613 -0.2486  0.1363
10450SOL    HW132513   3.431   7.544   3.853 -0.4018 -0.2455  0.0553
10450SOL    HW232514   3.369   7.526   3.990  0.5900 -0.1743  0.5214
10451SOL     OW32515   8.742   6.459   0.404 -0.2741 -0.6193 -0.0190
10451SOL    HW132516   8.677   6.479   0.472 -0.8286  2.0323 -1.2082
10451SOL    HW232517   8.701   6.389   0.353 -0.8124 -1.1098  1.0404
10452SOL     OW32518   4.790   3.716   6.538 -0.0317 -0.0385  0.1650
10452SOL    HW132519   4.720   3.713   6.603 -0.3278  1.3013 -0.0677
10452SOL    HW232520   4.828   3.628   6.540 -2.3242 -1.1126 -0.3970
10453SOL     OW32521   5.390   2.361   4.292  0.6839  0.1086  0.1559
10453SOL    HW132522   5.447   2.438   4.291  1.4706 -0.4586  0.2788
10453SOL    HW232523   5.446   2.291   4.325  0.3234 -0.7899 -1.0849
10454SOL     OW32524   1.071   4.198   7.795  0.0266  0.2681  0.0113
10454SOL    HW132525   1.079   4.231   7.884 -1.1348  0.2207  0.1446
10454SOL    HW232526   1.151   4.146   7.781 -0.0641 -0.2235  1.2277
10455SOL     OW32527   5.208   8.522   1.742 -0.4176  0.0164  0.2461
10455SOL    HW132528   5.201   8.597   1.801 -0.0681 -0.6010  1.0968
10455SOL    HW232529   5.151   8.544   1.668 -0.1163  1.2239  0.3530
10456SOL     OW32530   2.791   3.194   3.124  0.2061 -0.1335 -0.2925
10456SOL    HW132531   2.845   3.223   3.198 -1.1174 -0.4085  0.8082
10456SOL    HW232532   2.777   3.101   3.140  0.8305 -0.4586 -1.5102
10457SOL     OW32533   8.663   0.066   1.545 -0.4867  0.2519  0.1057
10457SOL    HW132534   8.645   0.045   1.454  0.3531 -2.3325  0.4687
10457SOL    HW232535   8.757   0.083   1.548  0.4447 -3.9554  1.0502
10458SOL     OW32536   3.786   4.728   1.097  0.2622 -0.5075 -0.0261
10458SOL    HW132537   3.744   4.642   1.101  2.4098 -1.6033  0.4908
10458SOL    HW232538   3.842   4.731   1.174  0.3374  1.3250 -0.1164
10459SOL     OW32539   0.548   8.691   4.455 -0.5659  0.5711 -0.9592
10459SOL    HW132540   0.502   8.667   4.375 -0.5123  0.7237 -1.0354
10459SOL    HW232541   0.486   8.749   4.501 -1.5999 -1.3374  0.2276
10460SOL     OW32542   2.457   7.025   7.781 -0.1664 -0.5094  0.1006
10460SOL    HW132543   2.431   6.969   7.708 -1.3913 -0.5793  0.5606
10460SOL    HW232544   2.503   6.968   7.841 -0.7733 -0.8736  0.2292
10461SOL     OW32545   6.904   6.623   6.007  0.6266  0.4751 -0.1495
10461SOL    HW132546   6.809   6.633   6.001  0.4915 -1.2122 -1.5154
10461SOL    HW232547   6.918   6.564   6.081  0.5210 -0.2016 -0.6632
10462SOL     OW32548   2.707   4.997   6.913 -0.5953  0.6271 -0.1500
10462SOL    HW132549   2.734   4.962   6.828 -1.7340  2.7706 -1.4811
10462SOL    HW232550   2.765   5.072   6.927  1.8618 -1.5872  2.6737
10463SOL     OW32551   0.062   8.263   2.126 -0.0746 -0.6280  0.0758
10463SOL    HW132552   0.011   8.200   2.178  0.0056  0.2267  1.2388
10463SOL    HW232553   0.127   8.210   2.081  0.0860 -1.3800  1.1457
10464SOL     OW32554   1.761   7.710   2.066 -0.0069 -0.1636 -0.2298
10464SOL    HW132555   1.798   7.632   2.025 -0.6937 -1.2068  1.0782
10464SOL    HW232556   1.829   7.777   2.055  1.6848 -1.6210  0.7809
10465SOL     OW32557   7.021   8.237   3.822 -0.0875  0.5196 -0.0141
10465SOL    HW132558   6.960   8.169   3.793 -0.7869  1.1511 -0.0610
10465SOL    HW232559   7.040   8.287   3.743 -0.0634  0.7501  0.1363
10466SOL     OW32560   7.216   3.529   1.754  0.2274  0.1708  0.4906
10466SOL    HW132561   7.257   3.491   1.832 -0.6315 -1.9381  0.0018
10466SOL    HW232562   7.123   3.508   1.763  0.2400 -1.0843 -1.5495
10467SOL     OW32563   3.218   1.081   5.426 -0.6658  0.1735  0.2974
10467SOL    HW132564   3.160   1.157   5.435 -1.2519 -0.4203  2.0359
10467SOL    HW232565   3.159   1.006   5.435  0.2132 -0.4540  0.9509
10468SOL     OW32566   0.255   7.333   3.773  0.2199 -0.3299  0.1989
10468SOL    HW132567   0.166   7.305   3.753 -0.3352  0.3096  1.6502
10468SOL    HW232568   0.254   7.351   3.867  1.5369  0.9373  0.0037
10469SOL     OW32569   7.365   8.261   8.275  0.2621 -0.2561  0.3514
10469SOL    HW132570   7.405   8.215   8.201  0.7400  0.5051  0.1259
10469SOL    HW232571   7.386   8.207   8.351  0.5256 -0.5849  0.0506
10470SOL     OW32572   5.482   6.242   1.165  0.2984  0.2888 -0.2287
10470SOL    HW132573   5.568   6.207   1.188 -0.5819 -2.5582 -0.8952
10470SOL    HW232574   5.460   6.301   1.238  2.5166  0.6391  0.2316
10471SOL     OW32575   1.712   2.668   7.432 -1.2007 -0.1087  0.6849
10471SOL    HW132576   1.669   2.727   7.493  1.0146 -0.6611  2.9399
10471SOL    HW232577   1.795   2.711   7.410 -1.2441 -0.6676 -0.7080
10472SOL     OW32578   1.474   6.625   7.679  0.0881 -0.2238 -0.3035
10472SOL    HW132579   1.422   6.548   7.703  0.8113 -0.4837  0.4789
10472SOL    HW232580   1.477   6.623   7.583 -0.1346 -1.0116 -0.3014
10473SOL     OW32581   6.450   5.846   6.540  0.4028 -0.8703 -0.6428
10473SOL    HW132582   6.396   5.840   6.461 -1.5025 -0.0178  0.5076
10473SOL    HW232583   6.537   5.871   6.508 -0.7005  1.1400 -2.3860
10474SOL     OW32584   4.137   0.552   5.288  1.0918  0.1213  0.6305
10474SOL    HW132585   4.155   0.458   5.282 -0.0899 -0.0383 -2.2976
10474SOL    HW232586   4.202   0.593   5.230 -1.3711  0.4985 -2.1066
10475SOL     OW32587   3.131   5.193   4.910 -0.4459  0.0870  0.3224
10475SOL    HW132588   3.085   5.263   4.957 -0.3647  1.6336 -1.7302
10475SOL    HW232589   3.082   5.183   4.829  0.2250 -1.4677  0.0780
10476SOL     OW32590   0.109   0.327   1.427 -0.0120 -0.2029  0.3659
10476SOL    HW132591   0.193   0.324   1.383 -0.0729  0.8128  0.1405
10476SOL    HW232592   0.115   0.404   1.484 -1.7444  1.6550 -1.7538
10477SOL     OW32593   5.291   6.569   0.869 -0.3289  0.7468 -1.0301
10477SOL    HW132594   5.231   6.543   0.940  1.0524 -1.5711 -0.6061
10477SOL    HW232595   5.271   6.661   0.853 -0.7891  1.3428  2.3093
10478SOL     OW32596   5.577   5.587   7.559 -0.6617  0.2074 -0.5389
10478SOL    HW132597   5.553   5.576   7.467  1.4287 -0.9767 -1.0185
10478SOL    HW232598   5.601   5.499   7.588  1.9240  1.0213  0.1029
10479SOL     OW32599   0.779   4.729   3.228  0.2611  0.5479 -0.2266
10479SOL    HW132600   0.721   4.759   3.298  1.2441  4.1463 -0.7512
10479SOL    HW232601   0.741   4.646   3.199 -1.1842 -0.2037  3.3125
10480SOL     OW32602   4.618   6.422   4.958  0.3239 -0.2045  0.2105
10480SOL    HW132603   4.630   6.421   4.863 -2.5795  0.3978 -0.2343
10480SOL    HW232604   4.668   6.499   4.987  0.8473 -0.1139 -0.8633
10481SOL     OW32605   7.266   7.205   5.051  0.2658  0.0708  0.1530
10481SOL    HW132606   7.282   7.298   5.035  0.0306  0.1783  0.5124
10481SOL    HW232607   7.313   7.186   5.132  3.5464 -1.0762 -1.8367
10482SOL     OW32608   6.861   4.417   1.498  0.3745  0.3071 -0.1042
10482SOL    HW132609   6.845   4.458   1.582  0.3202  1.7874 -0.7990
10482SOL    HW232610   6.950   4.442   1.475  0.7410 -0.8798 -0.0753
10483SOL     OW32611   0.257   2.718   2.052 -0.6700  0.7340  0.3143
10483SOL    HW132612   0.232   2.793   1.998  0.7065  0.2273 -1.1122
10483SOL    HW232613   0.336   2.747   2.097 -0.9432  0.6121  0.8832
10484SOL     OW32614   2.648   6.598   1.525 -0.2317 -0.5446 -0.3972
10484SOL    HW132615   2.597   6.523   1.496 -2.5470  0.0236  1.8888
10484SOL    HW232616   2.674   6.577   1.615 -1.8546  1.7255  0.6942
10485SOL     OW32617   3.447   2.125   8.705  0.2225  0.3277  0.5931
10485SOL    HW132618   3.497   2.173   8.639 -1.9079  0.7275 -0.8403
10485SOL    HW232619   3.446   2.184   8.781  0.1129  1.2713 -0.1144
10486SOL     OW32620   1.104   3.252   4.732 -0.3445 -0.4042  0.1984
10486SOL    HW132621   1.068   3.271   4.819  0.1471 -0.6823  0.4624
10486SOL    HW232622   1.072   3.164   4.711 -0.9592 -0.1023 -0.1650
10487SOL     OW32623   0.121   4.742   6.291  0.1448  0.0550  0.0853
10487SOL    HW132624   0.075   4.808   6.343  3.2370  2.7310 -0.2991
10487SOL    HW232625   0.135   4.783   6.206  1.6556 -1.3206 -0.3963
10488SOL     OW32626   1.086   1.053   6.644  0.7370 -0.0152 -0.2022
10488SOL    HW132627   1.171   1.050   6.689  0.8159 -1.4307 -0.3910
10488SOL    HW232628   1.084   0.972   6.593  0.2655  1.0947 -2.0489
10489SOL     OW32629   1.252   1.529   7.641 -0.3097 -0.5144  0.5612
10489SOL    HW132630   1.298   1.445   7.645  0.4775 -0.2373 -1.2781
10489SOL    HW232631   1.313   1.586   7.594 -0.8899  1.0578  1.6725
10490SOL     OW32632   4.908   4.376   4.348 -0.4844 -0.4896 -0.0929
10490SOL    HW132633   5.004   4.371   4.352 -0.5759 -1.9905  0.8208
10490SOL    HW232634   4.880   4.290   4.318 -1.5909 -0.2725  0.2626
10491SOL     OW32635   7.817   2.862   3.151 -0.2937 -0.4461  0.1364
10491SOL    HW132636   7.786   2.845   3.062  0.9728  2.1900 -0.9109
10491SOL    HW232637   7.905   2.900   3.140 -1.3269  3.0611  2.1927
10492SOL     OW32638   6.029   3.375   2.524 -0.8088 -0.7128 -0.4210
10492SOL    HW132639   6.063   3.297   2.568 -2.0698 -0.7728  0.5101
10492SOL    HW232640   6.106   3.416   2.484  0.1930 -1.3608  0.7649
10493SOL     OW32641   0.840   7.943   0.361 -0.1708 -0.2789  0.1904
10493SOL    HW132642   0.918   7.936   0.415  1.4378 -1.2725 -2.1112
10493SOL    HW232643   0.775   7.888   0.406  1.0764 -1.0659  1.0895
10494SOL     OW32644   4.294   6.493   1.074 -0.2020 -0.5232  0.3467
10494SOL    HW132645   4.388   6.474   1.068  0.0255  0.3700  0.9328
10494SOL    HW232646   4.288   6.588   1.064 -0.9278 -0.4333  1.4753
10495SOL     OW32647   6.164   3.960   3.078  0.7663  0.3514 -0.3432
10495SOL    HW132648   6.255   3.986   3.089  0.7364 -0.1209  1.4441
10495SOL    HW232649   6.167   3.882   3.023  1.2361  1.5140 -2.0060
10496SOL     OW32650   4.971   0.324   8.175 -0.0440 -0.2483 -0.2496
10496SOL    HW132651   4.906   0.319   8.245 -1.0690 -1.3533 -1.2393
10496SOL    HW232652   5.053   0.344   8.220 -0.3236 -2.6319  1.4941
10497SOL     OW32653   3.359   4.134   3.163 -0.7183 -0.2569 -0.1587
10497SOL    HW132654   3.450   4.155   3.142 -1.1188  0.1805 -1.5352
10497SOL    HW232655   3.347   4.046   3.128 -1.0612  0.0200 -0.7465
10498SOL     OW32656   5.519   8.209   4.099  0.2489  0.4746 -0.1594
10498SOL    HW132657   5.563   8.239   4.178  2.0924 -0.8887 -0.6158
10498SOL    HW232658   5.472   8.130   4.126  0.3086  0.3997 -0.2775
10499SOL     OW32659   8.796   0.143   4.789  0.2270  0.2218  0.2264
10499SOL    HW132660   8.806   0.186   4.874 -0.6566  0.4096  0.2407
10499SOL    HW232661   8.878   0.095   4.778  0.9232  1.2685  0.5699
10500SOL     OW32662   2.480   3.708   5.717  0.1305  0.0900 -0.0093
10500SOL    HW132663   2.404   3.744   5.763  0.7864  0.6765  0.6424
10500SOL    HW232664   2.445   3.635   5.666 -1.2674  1.6749 -1.4392
10501SOL     OW32665   7.105   3.151   8.337 -0.2843 -0.3116  0.3425
10501SOL    HW132666   7.141   3.209   8.404 -0.0096 -0.6805  0.5218
10501SOL    HW232667   7.073   3.075   8.386 -1.5455  0.1193  0.2071
10502SOL     OW32668   1.976   6.931   7.328 -0.5066 -0.3656 -0.0361
10502SOL    HW132669   2.063   6.897   7.349 -0.8031 -0.6275  0.8284
10502SOL    HW232670   1.977   7.020   7.363 -0.7504 -0.5392  0.4152
10503SOL     OW32671   6.175   8.661   2.765  0.0668 -0.3125 -0.1637
10503SOL    HW132672   6.100   8.606   2.741 -0.0260 -1.7585  2.9209
10503SOL    HW232673   6.235   8.600   2.808  1.3834  1.4721  0.6242
10504SOL     OW32674   2.426   2.210   5.298 -0.5518 -0.3551  0.5916
10504SOL    HW132675   2.375   2.132   5.320  1.2362 -1.2636  1.8205
10504SOL    HW232676   2.414   2.222   5.204 -0.2344 -2.6240  0.2182
10505SOL     OW32677   1.190   3.032   3.798  0.6034  0.3298  0.1697
10505SOL    HW132678   1.241   2.997   3.725  2.8950 -0.0036  1.8117
10505SOL    HW232679   1.117   2.970   3.808 -0.3397  0.9106 -2.3572
10506SOL     OW32680   3.782   0.389   1.770 -0.2639  0.2137 -0.6282
10506SOL    HW132681   3.837   0.315   1.744 -0.1239  0.1544 -0.1785
10506SOL    HW232682   3.753   0.366   1.859  2.2080  2.0406  0.7709
10507SOL     OW32683   0.252   0.856   7.303  0.1607  0.2193 -0.8452
10507SOL    HW132684   0.172   0.865   7.354  0.0102  0.8393 -1.1775
10507SOL    HW232685   0.235   0.904   7.222  0.4066 -0.7138 -1.4790
10508SOL     OW32686   4.921   3.230   6.051  0.1618  0.1876  0.4355
10508SOL    HW132687   4.841   3.254   6.098  1.0425  1.8325  1.1856
10508SOL    HW232688   4.953   3.313   6.015  2.0381 -0.2582  0.9684
10509SOL     OW32689   6.203   7.371   5.650  0.2591  0.6070  0.3334
10509SOL    HW132690   6.125   7.371   5.706 -1.0781  2.4159 -1.3627
10509SOL    HW232691   6.188   7.299   5.589 -0.2673  1.1372 -0.1782
10510SOL     OW32692   7.641   4.351   1.192 -0.5342  0.2437  0.2414
10510SOL    HW132693   7.711   4.377   1.132 -0.1553  0.3630  0.7305
10510SOL    HW232694   7.643   4.417   1.261  0.9817 -1.4507  1.9414
10511SOL     OW32695   8.783   1.442   1.785  0.0096 -0.0510  0.2958
10511SOL    HW132696   8.804   1.351   1.762  1.3718  0.1549  0.6519
10511SOL    HW232697   8.796   1.491   1.704  0.8485  0.0590  0.4888
10512SOL     OW32698   1.975   7.455   0.561 -0.3914  0.5101  0.8138
10512SOL    HW132699   1.891   7.433   0.602  0.3804 -0.5389  1.9232
10512SOL    HW232700   1.981   7.551   0.566 -1.9062  0.6795 -0.1234
10513SOL     OW32701   1.553   7.945   3.764  0.2069 -0.0902 -0.3357
10513SOL    HW132702   1.645   7.917   3.759  0.7216  1.5221 -0.3942
10513SOL    HW232703   1.507   7.886   3.705  1.4289 -0.0967 -1.3238
10514SOL     OW32704   5.786   3.731   4.066  0.0636 -0.2095  0.1555
10514SOL    HW132705   5.699   3.707   4.098 -1.8118 -0.8599 -4.5504
10514SOL    HW232706   5.771   3.807   4.010  3.4385  2.5690  2.5811
10515SOL     OW32707   2.486   4.514   0.763  0.8385 -0.6626 -0.0087
10515SOL    HW132708   2.454   4.459   0.835 -2.5920  0.5986 -0.3634
10515SOL    HW232709   2.463   4.466   0.684  1.2784 -0.4115 -0.2915
10516SOL     OW32710   5.982   1.613   7.304  0.8803 -0.1594 -0.4260
10516SOL    HW132711   5.975   1.518   7.298  0.9902 -0.1580 -0.5863
10516SOL    HW232712   5.950   1.645   7.220  3.0781 -0.1715 -1.3429
10517SOL     OW32713   3.801   8.862   3.623  0.1272  0.2309 -0.6689
10517SOL    HW132714   3.876   8.802   3.622  0.8460  1.1080 -1.2531
10517SOL    HW232715   3.725   8.806   3.634  0.9241 -0.6168  0.8429
10518SOL     OW32716   1.275   2.043   2.541  0.0135 -0.2264 -0.0456
10518SOL    HW132717   1.196   1.996   2.567  0.1949 -0.1458  0.6726
10518SOL    HW232718   1.243   2.125   2.504 -0.2211  0.3251  1.3059
10519SOL     OW32719   2.443   0.746   2.852  0.2298  0.0323  0.0972
10519SOL    HW132720   2.449   0.676   2.787  0.1576 -0.1844  0.3222
10519SOL    HW232721   2.462   0.826   2.803 -1.8150  0.1281 -0.6533
10520SOL     OW32722   5.327   5.693   7.582  0.0437 -0.0891 -0.4975
10520SOL    HW132723   5.290   5.616   7.537 -1.8584 -1.3406  2.8655
10520SOL    HW232724   5.418   5.670   7.597 -0.1106 -1.0371 -0.8735
10521SOL     OW32725   8.540   5.849   6.239  0.1064 -0.0942 -0.4307
10521SOL    HW132726   8.461   5.879   6.194 -0.0161 -0.8609 -0.7576
10521SOL    HW232727   8.607   5.846   6.170  0.3574  0.3211 -0.2052
10522SOL     OW32728   7.469   0.549   1.200 -0.0888  0.3097 -0.5364
10522SOL    HW132729   7.546   0.510   1.240  0.7311  1.1535 -1.2577
10522SOL    HW232730   7.463   0.509   1.113 -0.3327  0.4209 -0.5730
10523SOL     OW32731   5.735   3.459   5.990  0.5134  0.0945  0.2628
10523SOL    HW132732   5.702   3.407   6.063 -0.7785  0.1253 -0.2740
10523SOL    HW232733   5.704   3.414   5.912  1.4966  0.3090 -0.2796
10524SOL     OW32734   5.025   6.359   1.759  0.3472  0.2714 -0.0407
10524SOL    HW132735   5.074   6.439   1.738 -0.5909  0.6204 -1.0228
10524SOL    HW232736   5.091   6.290   1.761  0.9541  0.8039 -0.9008
10525SOL     OW32737   4.782   3.465   4.850 -0.6529  0.4321 -0.3718
10525SOL    HW132738   4.687   3.452   4.851 -0.5932 -0.1409 -1.3913
10525SOL    HW232739   4.817   3.384   4.813 -0.0899  2.2933 -4.3488
10526SOL     OW32740   5.816   4.741   7.390 -0.6367  0.0917 -0.2413
10526SOL    HW132741   5.903   4.753   7.428 -0.9564 -3.9004  2.3977
10526SOL    HW232742   5.756   4.779   7.455 -0.9750 -2.4257  1.0434
10527SOL     OW32743   6.967   0.839   4.009 -0.3063 -0.4804 -0.0823
10527SOL    HW132744   6.882   0.861   3.969 -0.5209 -1.0481  0.0446
10527SOL    HW232745   7.017   0.801   3.937  0.1068  0.5088 -0.3300
10528SOL     OW32746   6.714   7.105   3.697  0.8090  0.1597 -0.1008
10528SOL    HW132747   6.740   7.081   3.786  1.1060 -1.6684 -0.6329
10528SOL    HW232748   6.693   7.198   3.702  1.2128  0.1860  1.7831
10529SOL     OW32749   1.648   8.824   4.609 -0.5805 -0.3252 -0.5141
10529SOL    HW132750   1.663   8.902   4.556  0.5435 -0.6183 -0.6416
10529SOL    HW232751   1.558   8.798   4.587 -0.4727  0.1125 -1.5485
10530SOL     OW32752   0.909   5.220   2.805  0.2280 -0.1241  0.8718
10530SOL    HW132753   0.893   5.167   2.727  3.1857 -0.0094  0.0826
10530SOL    HW232754   0.824   5.262   2.822 -0.8491 -1.1015 -1.5243
10531SOL     OW32755   0.427   6.989   3.052  0.2889 -0.2017 -0.6152
10531SOL    HW132756   0.456   7.035   2.973 -0.3769 -0.7114 -1.1637
10531SOL    HW232757   0.491   7.014   3.118  1.2434 -0.2929 -1.4737
10532SOL     OW32758   8.233   7.432   1.061  0.0196 -0.2382 -0.6180
10532SOL    HW132759   8.248   7.492   0.988 -0.9921  0.2561 -0.4349
10532SOL    HW232760   8.317   7.387   1.072  1.8935  3.3062  1.2437
10533SOL     OW32761   1.874   8.857   0.157 -0.8150 -0.1435  0.0897
10533SOL    HW132762   1.811   8.785   0.161 -0.2799 -0.7937 -2.2564
10533SOL    HW232763   1.829   8.926   0.108 -0.4799  0.2372  0.3091
10534SOL     OW32764   6.850   5.958   4.403 -0.2141  0.0574 -0.5305
10534SOL    HW132765   6.806   5.961   4.318 -1.7641  2.7213  0.2616
10534SOL    HW232766   6.933   6.002   4.389 -1.0294  1.6803 -0.4132
10535SOL     OW32767   1.910   7.818   8.002  0.3519  0.1898 -0.0964
10535SOL    HW132768   1.855   7.862   7.937 -0.5512  0.7700  0.9996
10535SOL    HW232769   1.917   7.882   8.073 -0.8201 -1.3083  1.4668
10536SOL     OW32770   1.157   6.424   4.607 -0.2771 -0.9626  0.1069
10536SOL    HW132771   1.078   6.373   4.625  0.1963 -2.5864 -1.9986
10536SOL    HW232772   1.166   6.421   4.512  1.4345  0.5926  0.1768
10537SOL     OW32773   0.645   7.036   0.279  0.0077  0.0757  0.3310
10537SOL    HW132774   0.670   7.112   0.227 -1.0645  0.8340  0.8900
10537SOL    HW232775   0.572   6.997   0.231  0.8811 -0.9328 -0.2280
10538SOL     OW32776   8.125   2.302   3.218 -0.4545 -0.3650  0.4842
10538SOL    HW132777   8.047   2.292   3.162 -2.1693  0.7351  2.5376
10538SOL    HW232778   8.166   2.215   3.216 -0.4704 -0.4041 -2.3335
10539SOL     OW32779   0.105   3.454   2.313 -0.1735 -0.5612 -0.3296
10539SOL    HW132780   0.152   3.401   2.248 -2.2693 -0.1865 -2.3000
10539SOL    HW232781   0.031   3.399   2.340  1.2983 -1.2239  2.8465
10540SOL     OW32782   2.605   1.951   0.756  0.0051  0.0295 -0.3799
10540SOL    HW132783   2.644   1.881   0.704 -0.4952 -0.6466  0.1346
10540SOL    HW232784   2.539   1.989   0.699  0.2937  0.0967 -0.6718
10541SOL     OW32785   0.608   3.676   5.450 -0.2913  0.6676  0.7199
10541SOL    HW132786   0.694   3.636   5.463 -1.0123 -0.4413  2.5963
10541SOL    HW232787   0.588   3.663   5.357  1.6066  1.0912  0.2280
10542SOL     OW32788   7.350   4.721   0.944 -0.5124 -0.0228  0.2603
10542SOL    HW132789   7.356   4.658   0.873  2.9977 -0.1232  0.4429
10542SOL    HW232790   7.428   4.704   0.998 -1.3005  2.1700  2.2939
10543SOL     OW32791   4.841   0.719   0.464 -0.2258 -0.4645 -0.3223
10543SOL    HW132792   4.914   0.680   0.416  0.4187  1.5848 -1.1458
10543SOL    HW232793   4.790   0.645   0.496  2.4971 -1.9820  0.7897
10544SOL     OW32794   3.555   1.850   7.740 -0.1296 -0.3337 -0.0213
10544SOL    HW132795   3.483   1.816   7.794 -0.7771  1.2376  0.1848
10544SOL    HW232796   3.576   1.935   7.781  3.1740 -1.5496  1.1061
10545SOL     OW32797   8.428   3.961   6.143 -1.0645 -0.1092 -0.0187
10545SOL    HW132798   8.439   3.871   6.175  0.6678 -0.5552 -1.6847
10545SOL    HW232799   8.365   3.953   6.071 -1.5131  0.1603  0.3367
10546SOL     OW32800   3.815   4.206   1.398 -0.0779  0.4241  0.4908
10546SOL    HW132801   3.841   4.141   1.464 -2.2481  1.2896  2.3423
10546SOL    HW232802   3.835   4.290   1.439  1.0743  1.0066 -1.1578
10547SOL     OW32803   3.285   0.670   8.207 -0.1197  0.1459 -0.1796
10547SOL    HW132804   3.280   0.575   8.198 -0.5804  0.2400 -1.0057
10547SOL    HW232805   3.292   0.685   8.302  3.2799 -0.8233 -0.1798
10548SOL     OW32806   0.121   5.527   0.300 -0.8266 -0.9322 -0.1743
10548SOL    HW132807   0.145   5.620   0.293  3.2372 -1.2408  4.3850
10548SOL    HW232808   0.189   5.481   0.252 -1.0870 -1.6174  0.0980
10549SOL     OW32809   8.309   8.502   3.994  0.0010 -0.1246 -0.1095
10549SOL    HW132810   8.323   8.578   4.050  1.2051 -0.7093  0.4050
10549SOL    HW232811   8.380   8.442   4.016 -1.1185 -1.5600 -0.2441
10550SOL     OW32812   0.845   8.125   3.005  0.2407  0.5466  0.1065
10550SOL    HW132813   0.871   8.064   3.073  0.2425  0.4629  0.0301
10550SOL    HW232814   0.922   8.133   2.949 -0.9134 -2.3470 -2.1062
10551SOL     OW32815   5.961   2.204   8.204 -0.3854  0.1092 -0.1169
10551SOL    HW132816   6.028   2.140   8.184 -1.0505 -0.0858 -1.8674
10551SOL    HW232817   5.989   2.284   8.160  0.2375  0.9627  1.7224
10552SOL     OW32818   1.899   2.665   5.112 -0.5001  0.8670  0.0778
10552SOL    HW132819   1.812   2.686   5.077 -0.6825  0.7532  0.4630
10552SOL    HW232820   1.889   2.579   5.152 -0.2657  0.9562  0.3330
10553SOL     OW32821   8.692   7.461   4.078 -0.3319  0.0255 -0.4479
10553SOL    HW132822   8.696   7.410   4.159  1.2048  1.3412  0.3586
10553SOL    HW232823   8.648   7.543   4.104 -1.6177 -0.3250 -1.4237
10554SOL     OW32824   5.830   1.651   7.564  0.3786  0.6854 -0.3258
10554SOL    HW132825   5.857   1.668   7.474 -0.7802 -0.9891 -1.0581
10554SOL    HW232826   5.750   1.701   7.576  0.5628  0.9517 -0.2058
10555SOL     OW32827   8.754   7.637   0.147  0.4877  0.1378 -0.3654
10555SOL    HW132828   8.667   7.631   0.188  0.6310  0.3006 -0.0321
10555SOL    HW232829   8.739   7.616   0.055  0.3560 -1.5563  0.0020
10556SOL     OW32830   5.363   8.786   2.219  0.1399 -0.1751  0.3330
10556SOL    HW132831   5.442   8.777   2.165  0.3160 -0.8302  0.6932
10556SOL    HW232832   5.315   8.704   2.204 -0.0558 -0.1403  0.7814
10557SOL     OW32833   4.740   1.371   4.945  0.1465 -0.0345 -0.5056
10557SOL    HW132834   4.788   1.431   5.001 -1.0036 -0.0212  0.4917
10557SOL    HW232835   4.683   1.427   4.892 -1.6542 -0.2252  1.1130
10558SOL     OW32836   4.130   2.141   0.820 -0.3092  0.0420  0.1438
10558SOL    HW132837   4.152   2.136   0.913 -0.0306  0.4147  0.1009
10558SOL    HW232838   4.062   2.075   0.808 -1.3399  0.9345  0.9013
10559SOL     OW32839   8.250   5.078   3.718  0.1183 -0.1390 -0.0453
10559SOL    HW132840   8.304   5.038   3.786 -1.6774 -0.3753  1.3317
10559SOL    HW232841   8.229   5.005   3.659  0.0804 -0.3748  0.2552
10560SOL     OW32842   3.263   4.852   0.610 -0.5928  0.2106  0.1078
10560SOL    HW132843   3.234   4.768   0.647 -1.6083  0.6573  0.3616
10560SOL    HW232844   3.321   4.889   0.677 -1.5174  0.4899  0.7764
10561SOL     OW32845   0.017   7.068   7.019  0.2127  0.5376  0.0988
10561SOL    HW132846   0.073   6.999   6.983 -1.6522 -0.0495 -1.8875
10561SOL    HW232847  -0.044   7.021   7.077  0.8733  0.9833  1.1792
10562SOL     OW32848   1.766   2.672   7.147 -0.7189  0.0458 -0.2940
10562SOL    HW132849   1.787   2.580   7.161 -0.5433  0.2722  1.0046
10562SOL    HW232850   1.815   2.696   7.068  0.1852 -0.6645  0.0321
10563SOL     OW32851   2.841   6.090   6.151  0.8060  0.5799  0.3184
10563SOL    HW132852   2.915   6.036   6.178  0.0735 -0.1481  0.9060
10563SOL    HW232853   2.810   6.049   6.070  0.1864  0.0410  0.8188
10564SOL     OW32854   5.607   3.912   0.772  0.0428  0.3680  0.7092
10564SOL    HW132855   5.683   3.932   0.827  1.0030  0.3990 -0.5727
10564SOL    HW232856   5.605   3.816   0.768  1.7514  0.3288 -1.4508
10565SOL     OW32857   7.956   4.374   3.566 -0.0543 -0.1559 -0.5284
10565SOL    HW132858   7.921   4.457   3.598  2.9002  1.1263 -0.3006
10565SOL    HW232859   7.930   4.310   3.633 -1.6212  0.7297 -0.2523
10566SOL     OW32860   3.857   1.396   2.979  0.4404 -0.2010  0.1986
10566SOL    HW132861   3.830   1.471   3.032 -1.0412 -0.2390 -0.4335
10566SOL    HW232862   3.816   1.321   3.021 -0.1193 -0.3242 -0.5421
10567SOL     OW32863   7.775   0.683   4.020  0.1312  0.2519  0.3038
10567SOL    HW132864   7.847   0.719   3.967  0.4373 -0.0531  0.5115
10567SOL    HW232865   7.717   0.758   4.035 -0.8859  0.0020 -1.9293
10568SOL     OW32866   0.933   0.954   7.439  0.6012  0.2854  0.1997
10568SOL    HW132867   0.982   0.919   7.514 -2.1032 -0.1351  1.9143
10568SOL    HW232868   0.879   0.880   7.409 -1.4324  1.5231  0.5844
10569SOL     OW32869   1.647   7.882   4.141  0.2971  0.2350  0.5468
10569SOL    HW132870   1.578   7.818   4.156 -1.1703  2.3989  4.6617
10569SOL    HW232871   1.606   7.949   4.086  0.4312 -0.3247 -0.2400
10570SOL     OW32872   6.942   6.924   4.624  0.6558 -0.2149 -0.4770
10570SOL    HW132873   6.877   6.897   4.560  0.1942  0.9772 -0.5280
10570SOL    HW232874   7.001   6.849   4.632  0.3139 -0.6302 -1.7643
10571SOL     OW32875   7.327   8.226   0.569 -0.2386  0.4233 -0.0179
10571SOL    HW132876   7.359   8.312   0.540 -2.1232  2.0167  2.2378
10571SOL    HW232877   7.321   8.234   0.664  1.7371 -3.0688  0.5761
10572SOL     OW32878   5.018   2.219   1.990 -0.1763  0.4031  0.0742
10572SOL    HW132879   5.095   2.164   2.004  0.3196  0.3673 -2.4482
10572SOL    HW232880   5.041   2.303   2.031  1.4707  0.5726 -1.1033
10573SOL     OW32881   0.539   5.298   3.652  0.0671 -0.6615 -0.6678
10573SOL    HW132882   0.631   5.311   3.677  0.7762  0.5587 -3.5481
10573SOL    HW232883   0.496   5.272   3.734  2.0459  3.2698  1.9564
10574SOL     OW32884   2.619   7.910   3.795  0.5543  0.5710  0.1471
10574SOL    HW132885   2.635   7.852   3.869 -1.1994 -0.7093 -0.4168
10574SOL    HW232886   2.566   7.981   3.831  0.7192  0.5885  0.3562
10575SOL     OW32887   8.640   2.777   2.223 -0.2784 -0.7057  0.2751
10575SOL    HW132888   8.633   2.702   2.283  0.4363 -0.2684  0.9229
10575SOL    HW232889   8.718   2.759   2.172  0.1732 -0.1833  0.7634
10576SOL     OW32890   1.968   8.641   1.924  0.2140 -0.4674  0.1665
10576SOL    HW132891   2.045   8.625   1.979  0.3535  1.5627  0.6362
10576SOL    HW232892   1.957   8.736   1.925  0.5278 -0.2283 -3.7454
10577SOL     OW32893   2.211   6.624   3.913 -0.1825  0.0932  0.3448
10577SOL    HW132894   2.283   6.612   3.974  0.8122  0.0433 -0.7987
10577SOL    HW232895   2.164   6.540   3.914  1.4398 -0.8970 -0.9502
10578SOL     OW32896   7.432   5.908   8.665 -0.1535 -0.1609  0.2327
10578SOL    HW132897   7.401   5.817   8.670  2.2834 -1.0496  0.3369
10578SOL    HW232898   7.502   5.906   8.600 -1.3423  2.1016 -1.2498
10579SOL     OW32899   3.066   4.002   8.472 -0.0039  0.8288  0.1931
10579SOL    HW132900   3.026   3.991   8.386 -1.5238  2.9026  0.5590
10579SOL    HW232901   3.117   4.082   8.466  0.9266  0.3200  0.8965
10580SOL     OW32902   2.263   1.766   5.826 -0.4522 -0.0067  0.1168
10580SOL    HW132903   2.275   1.843   5.881 -0.6250  0.7723 -0.9090
10580SOL    HW232904   2.339   1.766   5.767  0.9442 -2.0746  1.7181
10581SOL     OW32905   3.041   4.750   5.976  0.0568  0.3031 -0.1760
10581SOL    HW132906   2.960   4.709   6.006 -0.3087  1.5907  0.6808
10581SOL    HW232907   3.111   4.697   6.015 -0.4069  0.7773  1.3702
10582SOL     OW32908   0.613   2.059   2.584  0.0036  0.3219 -0.3726
10582SOL    HW132909   0.693   2.007   2.588 -0.9494 -1.5513 -2.7980
10582SOL    HW232910   0.546   1.998   2.552 -1.7149  2.5202 -1.2687
10583SOL     OW32911   8.016   8.029   5.729  0.0446 -0.6057  0.5547
10583SOL    HW132912   8.099   8.037   5.776  0.3081  0.0107 -0.0100
10583SOL    HW232913   8.042   8.020   5.637 -0.4617 -1.8872  0.5189
10584SOL     OW32914   0.542   8.485   8.568  0.1087  0.2397  0.5619
10584SOL    HW132915   0.591   8.535   8.502 -0.7029 -0.7184 -0.8246
10584SOL    HW232916   0.515   8.405   8.522 -1.5191  0.0832  1.7190
10585SOL     OW32917   7.191   3.591   0.974  0.4064 -0.0241  0.1288
10585SOL    HW132918   7.281   3.574   0.999  0.4396 -0.5114 -0.3015
10585SOL    HW232919   7.191   3.588   0.878  0.2339  1.5387  0.0404
10586SOL     OW32920   5.134   8.757   5.499  0.0504  0.7583 -0.4267
10586SOL    HW132921   5.176   8.697   5.560 -1.7025  1.6114  1.7753
10586SOL    HW232922   5.139   8.843   5.542  1.1716  1.9780 -2.7999
10587SOL     OW32923   3.600   2.909   5.342  0.3452 -0.0491  0.0780
10587SOL    HW132924   3.540   2.834   5.354 -0.0060  0.1300 -0.5277
10587SOL    HW232925   3.555   2.966   5.280  0.1936  1.1160  1.1963
10588SOL     OW32926   5.609   6.478   8.724  0.2507  0.5675 -0.2101
10588SOL    HW132927   5.590   6.570   8.743  0.2807  0.3203  1.0652
10588SOL    HW232928   5.531   6.431   8.754  0.9957 -0.0042  0.8714
10589SOL     OW32929   3.313   0.682   6.590 -0.0718  0.0309  0.8514
10589SOL    HW132930   3.288   0.650   6.503  0.7720 -0.6299  0.8420
10589SOL    HW232931   3.406   0.662   6.597  0.4095  2.1023  1.0181
10590SOL     OW32932   2.882   1.715   4.143  0.4502  0.3142 -1.0283
10590SOL    HW132933   2.935   1.780   4.188 -0.7054  0.1272  0.7166
10590SOL    HW232934   2.922   1.631   4.164 -0.5556  0.1590  0.4311
10591SOL     OW32935   0.002   2.956   7.125 -0.3294  0.2993 -0.3442
10591SOL    HW132936  -0.039   2.870   7.135 -2.1795  1.1388 -0.3289
10591SOL    HW232937   0.073   2.956   7.190 -1.6806 -0.4178  1.2010
10592SOL     OW32938   6.976   4.818   6.288 -0.1116  0.7370  0.1394
10592SOL    HW132939   6.912   4.748   6.274  0.6810  0.1370 -0.5426
10592SOL    HW232940   7.006   4.805   6.378  0.2919 -0.0377 -0.0921
10593SOL     OW32941   1.764   4.370   6.668  0.6465 -0.2994 -0.2144
10593SOL    HW132942   1.753   4.276   6.682 -2.2914 -0.0156 -0.0657
10593SOL    HW232943   1.805   4.402   6.748 -0.3881 -1.1677  0.7031
10594SOL     OW32944   1.429   7.151   3.963  0.4113  0.2062  0.0587
10594SOL    HW132945   1.444   7.060   3.935  0.0578  0.5388 -1.3196
10594SOL    HW232946   1.356   7.181   3.908  1.3403  1.7074 -0.4214
10595SOL     OW32947   2.568   5.575   0.537 -0.2296 -0.0334 -0.2824
10595SOL    HW132948   2.534   5.529   0.460  0.2164 -2.2759  0.7718
10595SOL    HW232949   2.662   5.585   0.518 -0.2543  0.1041 -0.3369
10596SOL     OW32950   1.852   0.937   6.306  1.4429 -0.0916 -0.0063
10596SOL    HW132951   1.790   0.877   6.348  2.3500 -1.1289 -0.0909
10596SOL    HW232952   1.798   1.006   6.268  0.2877 -1.2764 -0.5855
10597SOL     OW32953   4.112   1.385   1.231 -0.4014 -0.2127 -0.8598
10597SOL    HW132954   4.196   1.396   1.274 -1.2279  1.5434  0.4335
10597SOL    HW232955   4.054   1.448   1.274 -1.7757  0.3420 -3.3024
10598SOL     OW32956   0.746   0.263   5.666  0.6659  0.3188  0.5162
10598SOL    HW132957   0.724   0.341   5.717 -1.5416  1.4047 -1.8520
10598SOL    HW232958   0.803   0.296   5.597  0.4459 -0.3333  0.0145
10599SOL     OW32959   5.520   0.654   1.094 -0.3829  0.5239  0.1277
10599SOL    HW132960   5.495   0.563   1.083 -0.4495  0.6403 -0.7878
10599SOL    HW232961   5.550   0.681   1.007  0.2093  1.2002  0.5287
10600SOL     OW32962   3.298   0.250   5.362 -0.0041 -0.1063  0.0205
10600SOL    HW132963   3.256   0.195   5.296  1.7776 -1.1004 -0.3470
10600SOL    HW232964   3.267   0.214   5.445  0.5651 -1.2451 -0.2295
10601SOL     OW32965   8.329   0.404   3.712  0.1167  0.4791  0.6173
10601SOL    HW132966   8.420   0.431   3.724  0.7786 -1.4875  0.3536
10601SOL    HW232967   8.325   0.374   3.621 -1.3031  2.2332  0.0278
10602SOL     OW32968   7.180   3.290   8.843 -0.1556 -0.2647  0.4310
10602SOL    HW132969   7.150   3.334   8.923 -0.6252 -0.4665  0.3694
10602SOL    HW232970   7.186   3.197   8.868  0.8220 -0.1763  0.5604
10603SOL     OW32971   6.896   3.337   8.198 -0.4256 -0.0958  0.0979
10603SOL    HW132972   6.951   3.408   8.163  0.5481 -0.6509  0.4599
10603SOL    HW232973   6.958   3.278   8.240 -0.9891 -2.1260 -1.7713
10604SOL     OW32974   8.741   8.769   0.950  0.1808  0.0931  0.5938
10604SOL    HW132975   8.648   8.783   0.969  0.3993  0.7408  1.2318
10604SOL    HW232976   8.787   8.825   1.013  0.9434  2.7396 -2.0608
10605SOL     OW32977   5.858   7.120   4.906 -0.2107 -0.2195  0.2949
10605SOL    HW132978   5.937   7.108   4.853  0.1607  0.8166  0.5840
10605SOL    HW232979   5.850   7.039   4.956  0.6164 -0.3818  0.1858
10606SOL     OW32980   7.512   7.835   8.205  0.1967 -0.0594  0.0860
10606SOL    HW132981   7.556   7.881   8.133 -0.1295  2.1498  1.1932
10606SOL    HW232982   7.583   7.795   8.255  0.8369  1.7162  0.6867
10607SOL     OW32983   7.751   6.775   2.566 -0.3536 -0.0219  0.2391
10607SOL    HW132984   7.681   6.724   2.524 -1.4187  0.3833  1.4221
10607SOL    HW232985   7.704   6.840   2.619  0.9241  0.2657  1.0654
10608SOL     OW32986   8.416   6.200   4.781 -0.5930  0.4466 -0.0611
10608SOL    HW132987   8.418   6.265   4.711 -0.7329  1.5924  0.9579
10608SOL    HW232988   8.503   6.161   4.781 -0.1054  1.4945  0.0742
10609SOL     OW32989   7.863   1.090   4.449  0.4220  0.4867 -0.1462
10609SOL    HW132990   7.929   1.128   4.506  1.7538  2.9558 -3.0820
10609SOL    HW232991   7.830   1.163   4.397 -0.8537 -1.5042 -2.3725
10610SOL     OW32992   8.473   2.556   8.250 -0.1208  0.0118 -0.3197
10610SOL    HW132993   8.537   2.490   8.222 -0.0621  0.0608 -0.3017
10610SOL    HW232994   8.441   2.524   8.334 -1.2232 -0.7752 -1.0137
10611SOL     OW32995   0.990   2.946   4.987 -0.6203  0.0515  0.4654
10611SOL    HW132996   0.998   2.999   5.067 -0.0481  0.6616  0.0141
10611SOL    HW232997   0.963   3.008   4.919  1.2197  0.0610 -0.3374
10612SOL     OW32998   1.678   3.815   8.337  0.0504  0.4856 -0.2567
10612SOL    HW132999   1.669   3.788   8.428 -0.6661 -0.2944 -0.5424
10612SOL    HW233000   1.638   3.902   8.334  1.3243  1.1154  0.4382
10613SOL     OW33001   7.865   8.099   5.940  0.3008  0.3988 -0.4558
10613SOL    HW133002   7.909   8.064   5.862  0.0057 -0.4239 -0.2507
10613SOL    HW233003   7.925   8.080   6.012 -1.0304 -2.1517  0.0815
10614SOL     OW33004   3.529   7.837   7.296  0.0446 -0.0280 -0.1263
10614SOL    HW133005   3.454   7.889   7.323 -0.3384 -0.9487  0.6291
10614SOL    HW233006   3.507   7.808   7.207 -0.7381 -0.7136  0.2778
10615SOL     OW33007   6.457   0.153   5.752 -0.2082  0.3936  0.0892
10615SOL    HW133008   6.464   0.168   5.658 -2.4549 -0.3634 -0.2533
10615SOL    HW233009   6.388   0.213   5.781 -0.2616 -0.1153  1.0483
10616SOL     OW33010   8.489   1.944   2.604 -0.0405  0.4811  0.0232
10616SOL    HW133011   8.472   2.008   2.535  0.9504  1.4755  0.6565
10616SOL    HW233012   8.426   1.966   2.673 -0.2051  0.2742 -0.0581
10617SOL     OW33013   8.280   4.230   4.156 -0.5899  0.2176  0.0395
10617SOL    HW133014   8.221   4.299   4.187 -0.3095  0.2966  0.3979
10617SOL    HW233015   8.331   4.206   4.233  0.0841  0.3827 -0.3548
10618SOL     OW33016   1.582   7.855   3.315 -0.2196 -0.3517 -0.7686
10618SOL    HW133017   1.651   7.799   3.350 -0.4417 -0.9969 -1.3515
10618SOL    HW233018   1.549   7.809   3.238 -0.5843  0.4541 -1.1144
10619SOL     OW33019   7.748   5.201   3.303 -0.6451 -0.1562 -0.6567
10619SOL    HW133020   7.826   5.189   3.357  0.2861 -1.4257 -2.1901
10619SOL    HW233021   7.683   5.143   3.342 -0.7237  0.6002  0.3861
10620SOL     OW33022   4.603   0.971   5.407  0.2296  0.1421  0.0592
10620SOL    HW133023   4.645   1.040   5.356  1.0871 -1.0477 -0.8919
10620SOL    HW233024   4.644   0.977   5.494 -0.0151  1.0771  0.1238
10621SOL     OW33025   1.503   2.023   0.478  0.4254 -0.1755 -0.3119
10621SOL    HW133026   1.512   2.034   0.573  1.4329 -1.4798 -0.2216
10621SOL    HW233027   1.588   2.050   0.443 -0.6392  2.3923 -1.0987
10622SOL     OW33028   2.877   5.190   6.927 -0.1623 -0.1877 -0.6535
10622SOL    HW133029   2.965   5.208   6.895  0.6022  0.6473  1.6652
10622SOL    HW233030   2.828   5.271   6.908  0.2689  0.2806  0.1556
10623SOL     OW33031   7.470   0.155   8.546  0.0716 -0.0632 -0.5439
10623SOL    HW133032   7.399   0.100   8.579  0.3332  0.3515  0.7631
10623SOL    HW233033   7.452   0.242   8.581  1.0207  0.1316 -0.5120
10624SOL     OW33034   4.357   2.841   5.427  0.0602  0.0048  0.3717
10624SOL    HW133035   4.386   2.921   5.385  2.6213 -1.0573 -0.0734
10624SOL    HW233036   4.322   2.787   5.356 -0.0504  0.0597  0.3849
10625SOL     OW33037   5.930   2.097   5.910 -0.2597  0.1130  0.1880
10625SOL    HW133038   6.025   2.093   5.910 -0.2003 -1.1196 -2.5746
10625SOL    HW233039   5.909   2.186   5.883  0.3194 -0.4956 -2.6709
10626SOL     OW33040   8.594   5.887   7.762 -0.5222 -0.4956 -0.1092
10626SOL    HW133041   8.510   5.843   7.775 -0.4485 -0.2318  1.4223
10626SOL    HW233042   8.573   5.960   7.703 -1.1558 -1.0268 -0.5606
10627SOL     OW33043   4.291   8.579   0.182  1.0492 -0.7113 -0.4018
10627SOL    HW133044   4.276   8.566   0.276  1.0768  0.1107 -0.2775
10627SOL    HW233045   4.214   8.541   0.140  1.6352 -2.2557 -0.1279
10628SOL     OW33046   2.063   8.057   0.042  0.7423 -0.2668  0.2033
10628SOL    HW133047   1.968   8.070   0.052  0.7570 -0.0064  0.0081
10628SOL    HW233048   2.075   8.041  -0.052  1.0227  0.8110  0.0468
10629SOL     OW33049   2.194   6.399   4.729  0.3046 -0.0741  0.0597
10629SOL    HW133050   2.111   6.352   4.732 -0.4454  1.1600 -0.6313
10629SOL    HW233051   2.170   6.490   4.711  1.8619  0.1158 -1.2691
10630SOL     OW33052   8.697   2.870   8.184 -0.5833 -0.5280 -0.0354
10630SOL    HW133053   8.692   2.947   8.127  0.9897 -0.4848 -0.1584
10630SOL    HW233054   8.682   2.796   8.125 -0.9565 -0.3795 -0.1298
10631SOL     OW33055   1.801   2.214   0.118 -0.1367  0.3939  0.0227
10631SOL    HW133056   1.884   2.229   0.073 -0.1280  0.9767  0.2255
10631SOL    HW233057   1.766   2.134   0.079  1.7756 -1.4161  1.7513
10632SOL     OW33058   5.953   2.344   5.810 -0.3023  0.3413 -0.2500
10632SOL    HW133059   6.025   2.404   5.825 -0.4555  0.9645 -1.8162
10632SOL    HW233060   5.953   2.329   5.715 -1.9776  0.0523 -0.2404
10633SOL     OW33061   2.612   7.218   8.251  0.0783 -0.0183  0.0731
10633SOL    HW133062   2.552   7.244   8.181  1.5255 -0.1406 -1.2702
10633SOL    HW233063   2.612   7.293   8.311  0.6898  1.1893 -1.3662
10634SOL     OW33064   8.677   6.636   5.037  0.1975 -0.5390 -0.0618
10634SOL    HW133065   8.736   6.657   4.964 -1.6927  0.1834 -1.4733
10634SOL    HW233066   8.632   6.718   5.057 -0.2971 -1.0452  0.9922
10635SOL     OW33067   8.158   2.753   4.447  0.7963 -0.4202 -0.3482
10635SOL    HW133068   8.187   2.675   4.494 -0.4211 -0.8970 -0.3585
10635SOL    HW233069   8.083   2.785   4.498  0.8870  0.3742 -0.6998
10636SOL     OW33070   4.018   2.528   4.596  0.2595  0.5287  0.0053
10636SOL    HW133071   4.050   2.461   4.657 -1.7439  0.1659  0.7215
10636SOL    HW233072   4.013   2.608   4.648  1.5133  0.9935 -0.5423
10637SOL     OW33073   6.435   8.817   4.961 -0.2240  0.0447 -0.1675
10637SOL    HW133074   6.482   8.734   4.956  1.6268  1.1171 -2.8231
10637SOL    HW233075   6.343   8.792   4.962  0.2578 -2.0610 -1.2204
10638SOL     OW33076   1.756   4.641   3.009 -0.0620  0.2396 -0.1101
10638SOL    HW133077   1.794   4.723   2.977  0.2712  0.6717  1.2967
10638SOL    HW233078   1.749   4.654   3.104  1.1733 -1.8253  0.3221
10639SOL     OW33079   1.359   3.862   5.758  0.0457 -0.6316  0.3599
10639SOL    HW133080   1.300   3.798   5.796  0.7090 -1.3437  0.2057
10639SOL    HW233081   1.404   3.815   5.688  3.3912 -1.1992  2.6855
10640SOL     OW33082   0.798   8.517   1.276 -0.2611  0.5610  0.2236
10640SOL    HW133083   0.734   8.577   1.314 -0.9412  1.2025 -1.8502
10640SOL    HW233084   0.754   8.478   1.201  0.4592 -1.9490  0.9770
10641SOL     OW33085   0.622   0.141   7.058  0.1548  0.5050  0.2673
10641SOL    HW133086   0.540   0.121   7.011 -0.4685  0.7877  1.2064
10641SOL    HW233087   0.593   0.174   7.143  1.2514 -0.8731  1.2266
10642SOL     OW33088   3.290   1.209   0.566  0.2342 -0.0260 -0.2023
10642SOL    HW133089   3.381   1.235   0.584  0.1890 -0.9679  1.6232
10642SOL    HW233090   3.260   1.272   0.500  1.4752  1.7631  0.8428
10643SOL     OW33091   1.553   8.811   5.899  0.2039 -0.1140  0.1843
10643SOL    HW133092   1.617   8.800   5.828  1.1826  2.3715  0.6084
10643SOL    HW233093   1.520   8.900   5.888 -1.2247 -0.4330  1.5955
10644SOL     OW33094   0.238   8.697   7.590  0.0809  0.1946  0.1952
10644SOL    HW133095   0.259   8.726   7.679 -1.3727  0.5565  0.4603
10644SOL    HW233096   0.185   8.618   7.603 -0.1204  0.2365 -0.3504
10645SOL     OW33097   3.853   8.664   2.010 -0.2729  0.4569 -0.0981
10645SOL    HW133098   3.838   8.718   2.088 -0.9131 -1.1852  0.9758
10645SOL    HW233099   3.916   8.598   2.039  0.5379  0.6290 -1.3910
10646SOL     OW33100   8.600   3.371   6.096  0.1298  0.1287 -0.0140
10646SOL    HW133101   8.628   3.462   6.082 -1.2467  0.8737  1.6930
10646SOL    HW233102   8.681   3.321   6.094  0.7184  0.8695 -4.0058
10647SOL     OW33103   4.387   4.383   6.855  0.3296  0.1613  0.1014
10647SOL    HW133104   4.461   4.401   6.913  1.5239  1.3852 -1.6813
10647SOL    HW233105   4.424   4.328   6.786 -0.7148 -0.1310 -0.2491
10648SOL     OW33106   0.528   8.276   7.241  0.8257 -0.3035  0.6955
10648SOL    HW133107   0.539   8.368   7.267  1.0639 -0.6808  2.0027
10648SOL    HW233108   0.435   8.258   7.255  0.7700 -0.2606  0.3968
10649SOL     OW33109   6.699   5.465   7.817  0.0947 -0.0417  0.1291
10649SOL    HW133110   6.606   5.480   7.801  0.0550  1.8842  1.7448
10649SOL    HW233111   6.721   5.390   7.762 -2.1163  0.1947 -1.2067
10650SOL     OW33112   2.103   8.591   5.604 -0.1588  0.3781  0.3959
10650SOL    HW133113   2.063   8.659   5.549 -1.6015 -0.5956  0.1890
10650SOL    HW233114   2.170   8.638   5.655 -1.1210  1.9694  0.2683
10651SOL     OW33115   7.646   4.076   0.058  0.1315  0.0334 -0.0759
10651SOL    HW133116   7.627   4.157   0.104  1.5278  0.1584  0.3262
10651SOL    HW233117   7.561   4.048   0.023 -0.5489  1.1225  0.6308
10652SOL     OW33118   4.266   5.411   2.115  0.7588 -0.2066  0.6535
10652SOL    HW133119   4.265   5.424   2.020 -1.5750  1.0402  0.7847
10652SOL    HW233120   4.272   5.316   2.127 -1.9710 -0.6441 -0.8295
10653SOL     OW33121   7.654   7.017   7.169  0.1336  0.1376 -0.1447
10653SOL    HW133122   7.674   6.998   7.260  1.3359 -0.3125 -0.4768
10653SOL    HW233123   7.559   7.031   7.167  0.3219  1.9689  1.4679
10654SOL     OW33124   1.983   4.796   3.292 -0.0564 -0.0734 -0.0976
10654SOL    HW133125   2.021   4.884   3.299 -0.9128  0.3610 -0.6295
10654SOL    HW233126   2.052   4.737   3.319  0.4458  0.7936  0.5484
10655SOL     OW33127   3.518   8.087   5.000 -0.4254 -0.4530 -0.4505
10655SOL    HW133128   3.532   8.009   5.055 -1.1340 -0.3211 -0.0651
10655SOL    HW233129   3.443   8.064   4.946  0.0490 -0.4424 -1.1306
10656SOL     OW33130   3.222   0.815   2.955 -0.5238 -0.0316 -0.8001
10656SOL    HW133131   3.191   0.876   3.023 -0.3039 -0.6840 -0.0963
10656SOL    HW233132   3.251   0.872   2.884  1.3656  0.8054  0.5352
10657SOL     OW33133   0.187   1.229   3.080  0.1404  0.2574  0.2390
10657SOL    HW133134   0.143   1.203   2.999 -0.1770  2.8438 -0.5034
10657SOL    HW233135   0.140   1.307   3.109  0.5382 -0.3305  2.7137
10658SOL     OW33136   1.799   5.173   5.942  0.3449  0.1272  0.1272
10658SOL    HW133137   1.807   5.256   5.896  1.0003 -0.9183 -1.7313
10658SOL    HW233138   1.890   5.146   5.959  0.1278  0.3411  1.8114
10659SOL     OW33139   4.843   5.899   7.786  0.1209  0.9740  0.9577
10659SOL    HW133140   4.916   5.874   7.842 -0.3400  0.7506  1.4639
10659SOL    HW233141   4.768   5.849   7.819  0.0683 -0.0043 -0.5265
10660SOL     OW33142   5.564   1.629   6.643 -0.8723  0.2338  0.1903
10660SOL    HW133143   5.523   1.564   6.701 -2.2639  1.0177  0.1127
10660SOL    HW233144   5.540   1.713   6.681  0.1209  0.7303 -0.2570
10661SOL     OW33145   3.935   5.522   4.228 -0.3693 -0.0608 -0.4227
10661SOL    HW133146   3.895   5.547   4.145  0.5297  0.0535 -0.8429
10661SOL    HW233147   3.910   5.592   4.289  0.7907  1.0821 -1.1788
10662SOL     OW33148   4.420   7.710   6.614 -0.2180 -0.1301 -0.5254
10662SOL    HW133149   4.385   7.701   6.526 -0.3583  1.9155 -0.7151
10662SOL    HW233150   4.344   7.724   6.670 -0.1921 -2.0450  0.0698
10663SOL     OW33151   0.201   3.609   0.644 -0.1865 -0.4729  0.5405
10663SOL    HW133152   0.127   3.583   0.698  1.1976 -1.8145  1.8746
10663SOL    HW233153   0.208   3.704   0.658 -2.7281  0.0702 -1.0961
10664SOL     OW33154   1.801   6.743   6.388  0.7391  0.1361  0.1561
10664SOL    HW133155   1.814   6.711   6.299  2.8762 -0.8691  0.7910
10664SOL    HW233156   1.795   6.664   6.442  0.6485  0.7509  1.0712
10665SOL     OW33157   2.673   4.196   4.026 -0.3554  0.2303 -0.2612
10665SOL    HW133158   2.669   4.191   3.931  1.9641 -3.0067 -0.3480
10665SOL    HW233159   2.765   4.211   4.046 -0.6222 -0.1627  1.4765
10666SOL     OW33160   0.753   6.602   6.515 -0.2820 -0.8089 -0.1357
10666SOL    HW133161   0.764   6.593   6.610  0.4885  0.0272 -0.1293
10666SOL    HW233162   0.728   6.515   6.486  0.0313 -1.2166  0.7653
10667SOL     OW33163   5.696   3.715   1.381 -0.3240  0.1786 -0.2656
10667SOL    HW133164   5.630   3.753   1.437 -1.1723 -1.3449 -0.1668
10667SOL    HW233165   5.684   3.758   1.296 -1.5854 -0.1816 -0.2964
10668SOL     OW33166   3.889   6.720   5.554 -0.5464 -0.1354 -0.4610
10668SOL    HW133167   3.963   6.721   5.493 -1.2058 -0.7313 -1.2672
10668SOL    HW233168   3.930   6.703   5.639  0.5353  1.9056 -0.4851
10669SOL     OW33169   0.506   5.695   6.635  0.4644 -0.1280  0.1024
10669SOL    HW133170   0.580   5.755   6.643  1.6184 -1.6133  1.1545
10669SOL    HW233171   0.544   5.615   6.599 -0.9594 -0.4161 -0.8900
10670SOL     OW33172   1.995   1.474   3.946  0.4547 -0.1680 -0.0380
10670SOL    HW133173   2.065   1.448   3.886 -0.1754 -2.2177  0.0362
10670SOL    HW233174   1.940   1.534   3.895  2.0669  1.2616 -0.1777
10671SOL     OW33175   2.677   7.427   0.457 -0.7823 -0.4059  0.1538
10671SOL    HW133176   2.752   7.409   0.513 -0.3444 -1.0552 -0.6071
10671SOL    HW233177   2.686   7.365   0.384  0.8538  2.9302 -2.7544
10672SOL     OW33178   8.619   0.751   3.208 -0.3679 -0.0611  0.1463
10672SOL    HW133179   8.710   0.780   3.206  0.0356 -1.1181  1.7092
10672SOL    HW233180   8.585   0.774   3.121  0.3883  3.4351  0.5951
10673SOL     OW33181   5.937   7.343   3.304  0.4977 -0.3477 -0.4362
10673SOL    HW133182   5.959   7.419   3.357 -0.7383  0.9827 -1.7416
10673SOL    HW233183   5.852   7.314   3.337  1.0267 -1.2880  0.1511
10674SOL     OW33184   3.952   4.405   0.675 -0.3805  0.0419  0.2100
10674SOL    HW133185   3.885   4.472   0.658 -0.3869  0.1028  0.4678
10674SOL    HW233186   4.027   4.454   0.707 -0.5573 -0.1173  0.8798
10675SOL     OW33187   8.233   3.005   7.495  0.0243  0.4956  0.4464
10675SOL    HW133188   8.181   3.061   7.553 -0.8545  1.5269 -1.2533
10675SOL    HW233189   8.204   3.029   7.407  0.1671 -2.1170 -0.3990
10676SOL     OW33190   1.993   7.374   8.570  0.0296  0.3431 -0.1136
10676SOL    HW133191   1.912   7.425   8.570  1.2310  2.3556 -1.0117
10676SOL    HW233192   1.983   7.313   8.498 -0.4395  1.0320 -0.6487
10677SOL     OW33193   0.059   3.939   2.609  0.1721  0.3022  0.1729
10677SOL    HW133194   0.142   3.946   2.657  1.5877  0.5069 -2.1768
10677SOL    HW233195   0.028   3.851   2.629 -0.4225  1.0774  3.1006
10678SOL     OW33196   7.673   3.808   4.152  0.5304 -0.1399 -0.0116
10678SOL    HW133197   7.760   3.789   4.187  0.8952 -0.6751 -1.1585
10678SOL    HW233198   7.657   3.738   4.088 -0.6255  0.1051 -0.0127
10679SOL     OW33199   6.871   2.961   1.605  0.3792  0.1151  0.6355
10679SOL    HW133200   6.786   2.988   1.640 -1.1252 -2.4516 -0.7869
10679SOL    HW233201   6.866   2.866   1.601  3.9305 -0.2750  1.8840
10680SOL     OW33202   0.371   4.888   7.306 -0.1897  0.8154  0.5266
10680SOL    HW133203   0.376   4.914   7.214 -0.0500  0.0173  0.3047
10680SOL    HW233204   0.348   4.795   7.305  0.3265  0.6635  1.2836
10681SOL     OW33205   8.162   7.891   3.064 -0.2106 -0.0105  0.5554
10681SOL    HW133206   8.120   7.817   3.108 -0.0181  0.2486  1.1874
10681SOL    HW233207   8.176   7.955   3.134  0.5990  0.1837  0.2199
10682SOL     OW33208   6.408   0.474   6.070  0.0143 -0.0357 -0.3582
10682SOL    HW133209   6.444   0.484   5.981  1.1289 -1.2612 -0.0698
10682SOL    HW233210   6.387   0.381   6.078 -1.6398  0.3293  0.1241
10683SOL     OW33211   0.994   3.720   0.295  0.3812 -0.7843  0.0493
10683SOL    HW133212   1.042   3.802   0.307 -0.0671 -0.0858 -2.3729
10683SOL    HW233213   1.049   3.654   0.338  1.8854  0.4629  0.1468
10684SOL     OW33214   5.690   4.691   1.166  0.4552  0.0539  0.0086
10684SOL    HW133215   5.698   4.771   1.114  1.3746 -1.3147 -2.0836
10684SOL    HW233216   5.771   4.688   1.217  0.6122  0.2228 -0.2294
10685SOL     OW33217   8.580   8.151   2.407 -0.3876  0.4856 -0.2945
10685SOL    HW133218   8.530   8.219   2.361 -2.4174  0.1768  1.2911
10685SOL    HW233219   8.552   8.069   2.367  0.0758  0.3979 -0.4475
10686SOL     OW33220   6.600   2.179   8.132  0.0321  0.4114  0.1776
10686SOL    HW133221   6.568   2.096   8.096  1.1625 -0.5159  1.2069
10686SOL    HW233222   6.625   2.158   8.222  2.0890  1.4166 -0.1003
10687SOL     OW33223   0.567   2.135   4.277  0.0590  0.4864  0.3747
10687SOL    HW133224   0.534   2.217   4.313 -0.5627  0.5564 -0.3149
10687SOL    HW233225   0.617   2.162   4.199 -0.1853  0.2103  0.1215
10688SOL     OW33226   5.195   7.451   2.248  0.1449 -0.0588  0.1519
10688SOL    HW133227   5.215   7.381   2.187  0.9595 -1.2673  1.7437
10688SOL    HW233228   5.263   7.517   2.233  0.1848 -0.2292 -0.4162
10689SOL     OW33229   1.310   0.527   3.597 -0.0617 -0.0992  0.2457
10689SOL    HW133230   1.391   0.516   3.548 -1.1882  1.3450 -2.0836
10689SOL    HW233231   1.283   0.438   3.620 -0.0976 -1.0037 -2.9234
10690SOL     OW33232   2.444   1.380   0.062  0.2001 -0.5989 -0.4381
10690SOL    HW133233   2.362   1.377   0.011 -0.6071 -0.8907  0.8267
10690SOL    HW233234   2.478   1.290   0.057  0.2530 -0.5673 -0.6623
10691SOL     OW33235   3.422   1.512   2.484 -0.0986 -0.3079 -0.2659
10691SOL    HW133236   3.508   1.471   2.495  0.0892  0.5006  1.6129
10691SOL    HW233237   3.362   1.458   2.534 -0.3994 -0.0046 -0.2916
10692SOL     OW33238   1.234   3.746   1.791  0.4412  0.2444  0.0596
10692SOL    HW133239   1.237   3.724   1.698  0.0299  0.0181  0.0940
10692SOL    HW233240   1.156   3.802   1.799  1.4461  1.7186 -0.0197
10693SOL     OW33241   0.027   1.401   8.135  0.7039 -0.0717  0.3634
10693SOL    HW133242   0.078   1.409   8.055  0.0900  1.0833  0.0701
10693SOL    HW233243   0.091   1.412   8.206  1.0338  0.2507  0.0173
10694SOL     OW33244   0.274   5.426   2.402 -0.2398  0.0961 -0.1749
10694SOL    HW133245   0.200   5.404   2.458 -1.2902  0.7984 -1.2468
10694SOL    HW233246   0.299   5.514   2.428 -0.5045  0.2873 -0.5564
10695SOL     OW33247   1.454   2.401   2.933  0.2867  0.0606 -0.5213
10695SOL    HW133248   1.535   2.380   2.979 -0.4026 -0.1280  0.6314
10695SOL    HW233249   1.385   2.355   2.982 -0.3807 -0.8495 -2.2268
10696SOL     OW33250   5.919   6.766   7.092  0.2151 -0.1907 -0.4476
10696SOL    HW133251   5.980   6.747   7.163  0.8060 -0.5366 -1.0356
10696SOL    HW233252   5.847   6.704   7.104  0.7454 -0.8569 -0.6730
10697SOL     OW33253   0.872   2.107   5.728  1.4653 -0.2735 -0.4592
10697SOL    HW133254   0.822   2.039   5.773  2.0657 -0.3632  0.0957
10697SOL    HW233255   0.911   2.159   5.799  0.8720  0.7680 -0.8682
10698SOL     OW33256   2.292   1.250   7.289  0.1546 -0.5986 -0.7480
10698SOL    HW133257   2.284   1.229   7.196  0.0169 -0.7749 -0.6956
10698SOL    HW233258   2.280   1.167   7.335  2.9492 -1.0501 -0.6756
10699SOL     OW33259   7.761   2.899   3.696  0.1972 -0.5068 -0.1102
10699SOL    HW133260   7.791   2.927   3.782  0.3505 -0.6888 -0.1032
10699SOL    HW233261   7.691   2.837   3.714  0.1240 -0.4275 -0.1200
10700SOL     OW33262   5.598   6.678   4.411 -0.0186 -0.4797 -0.7503
10700SOL    HW133263   5.641   6.715   4.334  0.3829 -1.7354 -1.1457
10700SOL    HW233264   5.514   6.723   4.415  0.6564  0.8509 -0.9005
10701SOL     OW33265   0.483   8.837   0.251  0.0685 -0.4793  0.0002
10701SOL    HW133266   0.439   8.783   0.186 -0.0610 -0.1101 -0.2246
10701SOL    HW233267   0.478   8.926   0.216  1.0551 -0.4398 -0.0656
10702SOL     OW33268   0.851   7.511   8.441 -0.5063 -0.5726 -0.2775
10702SOL    HW133269   0.911   7.464   8.499 -0.1301  0.1239 -0.0972
10702SOL    HW233270   0.903   7.530   8.363 -0.2014  0.8146  0.2355
10703SOL     OW33271   7.599   8.128   1.781 -0.0048  0.4610 -0.0440
10703SOL    HW133272   7.642   8.146   1.697 -0.1030 -0.8764 -0.4018
10703SOL    HW233273   7.663   8.156   1.846  0.8744 -0.2501 -0.5757
10704SOL     OW33274   2.623   0.954   6.427 -0.1677  0.2992  0.2582
10704SOL    HW133275   2.696   0.929   6.483 -1.3155 -2.1544  0.7852
10704SOL    HW233276   2.580   1.025   6.474  1.0836  0.8750  0.5809
10705SOL     OW33277   5.928   5.445   1.518  0.2542 -0.1801 -0.3979
10705SOL    HW133278   5.924   5.539   1.539  0.2408 -0.5368  1.3455
10705SOL    HW233279   5.963   5.442   1.429 -2.3943  1.5901 -1.6227
10706SOL     OW33280   2.759   1.088   8.555  0.2256  0.4604 -0.2840
10706SOL    HW133281   2.744   0.994   8.566  3.4041 -0.4425 -2.1733
10706SOL    HW233282   2.786   1.118   8.642 -0.6158 -0.4128  0.2991
10707SOL     OW33283   3.151   7.838   5.669  0.4991 -0.0861  0.5007
10707SOL    HW133284   3.134   7.886   5.751 -2.9891  1.3103 -0.8630
10707SOL    HW233285   3.176   7.906   5.607 -1.9464 -0.2767 -0.8032
10708SOL     OW33286   6.509   5.682   3.279 -0.0316  0.2815 -0.1978
10708SOL    HW133287   6.508   5.603   3.226 -0.6848 -0.6795  1.1820
10708SOL    HW233288   6.419   5.714   3.277 -0.1385  0.0581  0.5534
10709SOL     OW33289   5.002   3.982   3.018  0.0281 -0.1234 -0.1207
10709SOL    HW133290   5.095   4.000   3.010 -0.1489  1.3941  0.8044
10709SOL    HW233291   4.964   4.065   3.047 -1.2986 -1.2578  1.6154
10710SOL     OW33292   8.386   1.765   8.785  0.2158  0.0633  0.8588
10710SOL    HW133293   8.394   1.796   8.695  1.6971  0.4729  1.0939
10710SOL    HW233294   8.471   1.726   8.804  0.6776  1.8289  2.7345
10711SOL     OW33295   7.888   3.137   0.266  0.1283  0.4028  0.5259
10711SOL    HW133296   7.950   3.118   0.195 -0.7765 -0.3640 -0.0973
10711SOL    HW233297   7.851   3.222   0.243  0.1195  0.3335  0.2713
10712SOL     OW33298   7.392   1.251   3.129 -0.4606  0.4252  0.4390
10712SOL    HW133299   7.437   1.275   3.049 -1.8259 -1.5426 -1.0350
10712SOL    HW233300   7.392   1.330   3.182  2.2959  1.2225 -0.5924
10713SOL     OW33301   7.255   0.775   6.484 -0.4349  0.0728  0.1126
10713SOL    HW133302   7.258   0.716   6.409 -0.3054  0.9477 -0.5885
10713SOL    HW233303   7.212   0.853   6.451 -1.4985  0.0142  1.2892
10714SOL     OW33304   1.191   7.508   5.374 -0.0732 -0.1332 -0.5647
10714SOL    HW133305   1.198   7.585   5.317  1.5779 -0.0268 -0.2501
10714SOL    HW233306   1.269   7.457   5.355 -0.5570 -1.1450  0.1119
10715SOL     OW33307   1.283   6.430   7.483  0.4014  0.2370  0.4076
10715SOL    HW133308   1.244   6.516   7.466 -0.2618 -0.0918  0.2328
10715SOL    HW233309   1.324   6.405   7.400  1.1159  0.6472  0.6325
10716SOL     OW33310   8.736   8.178   4.101  0.3973 -0.0629  0.3001
10716SOL    HW133311   8.697   8.092   4.118 -0.6901  0.2835 -0.3005
10716SOL    HW233312   8.794   8.163   4.026  1.9179 -0.6997  1.5451
10717SOL     OW33313   7.173   4.040   2.146  0.8767 -0.4972  0.1086
10717SOL    HW133314   7.199   4.085   2.066 -1.0627  1.7086  0.5994
10717SOL    HW233315   7.159   3.949   2.119  1.0777  0.0122 -1.8591
10718SOL     OW33316   6.507   1.547   3.750 -0.4162  0.2734  0.4113
10718SOL    HW133317   6.589   1.588   3.777 -0.8839  0.5791  1.4039
10718SOL    HW233318   6.442   1.616   3.757 -1.1858 -0.5705  1.9393
10719SOL     OW33319   6.125   6.811   6.725 -0.5295 -0.0039 -0.1770
10719SOL    HW133320   6.096   6.860   6.802  1.8782 -0.3132  1.0229
10719SOL    HW233321   6.175   6.737   6.761  0.4625 -0.3004 -2.0158
10720SOL     OW33322   8.227   6.082   4.087 -0.1748 -0.1695  0.0827
10720SOL    HW133323   8.134   6.087   4.111  0.0794 -0.4682  1.1539
10720SOL    HW233324   8.243   5.988   4.076  0.2926 -0.2056  1.0690
10721SOL     OW33325   5.770   6.011   7.527  0.0936 -0.4924  0.1633
10721SOL    HW133326   5.758   5.954   7.451  0.0869  1.0649 -1.0555
10721SOL    HW233327   5.692   6.066   7.527  0.0255 -0.5763  1.4136
10722SOL     OW33328   7.882   0.169   3.368 -0.2548  0.1839  0.2163
10722SOL    HW133329   7.799   0.173   3.416  0.3233 -0.6535  1.3703
10722SOL    HW233330   7.889   0.253   3.323 -1.3110  0.6132  0.8180
10723SOL     OW33331   6.350   1.076   5.676  0.1202  0.1060  0.3242
10723SOL    HW133332   6.312   1.082   5.764 -1.0555 -1.9135  0.0343
10723SOL    HW233333   6.312   0.996   5.640  0.7145  0.7910 -1.9698
10724SOL     OW33334   1.690   7.028   7.599  0.0882  0.1779  0.4673
10724SOL    HW133335   1.597   7.051   7.603 -0.1988 -1.0917  2.0197
10724SOL    HW233336   1.696   6.965   7.527 -0.3201 -0.0126  0.5970
10725SOL     OW33337   5.388   0.848   2.610 -0.5041 -0.2436  0.0330
10725SOL    HW133338   5.353   0.935   2.628 -0.7451 -0.1650 -0.8112
10725SOL    HW233339   5.332   0.789   2.660 -0.3678  0.0740  0.5708
10726SOL     OW33340   1.143   2.447   0.300  0.1314 -0.2009  0.1978
10726SOL    HW133341   1.218   2.404   0.340  1.9672  1.3145 -1.4606
10726SOL    HW233342   1.152   2.430   0.207 -0.9786  0.9382 -0.1399
10727SOL     OW33343   3.686   7.773   3.618  0.2329  0.2132  0.1055
10727SOL    HW133344   3.609   7.780   3.674 -0.5895  1.5713 -1.1457
10727SOL    HW233345   3.666   7.827   3.542  1.8854 -0.4779 -0.8740
10728SOL     OW33346   0.234   1.260   1.053  0.0941  0.3621 -0.2720
10728SOL    HW133347   0.199   1.201   0.987 -1.1028  1.3372 -0.5419
10728SOL    HW233348   0.160   1.277   1.112  0.4998  1.2981 -0.0080
10729SOL     OW33349   0.700   0.669   4.700 -0.5188 -0.0340  0.2976
10729SOL    HW133350   0.723   0.699   4.787  1.4616 -2.5818  0.7866
10729SOL    HW233351   0.767   0.706   4.643  0.9163 -1.9050  0.6490
10730SOL     OW33352   3.127   5.901   8.489 -0.2679  0.4284 -0.4683
10730SOL    HW133353   3.129   5.862   8.576 -0.7720  1.6335  0.1141
10730SOL    HW233354   3.067   5.846   8.438  0.0614 -0.3010 -0.0711
10731SOL     OW33355   8.504   0.993   2.712 -0.1030 -0.2888  0.5152
10731SOL    HW133356   8.536   1.007   2.623  0.4057  0.1609  0.7645
10731SOL    HW233357   8.442   0.920   2.704  0.2914 -0.5633 -0.1249
10732SOL     OW33358   1.502   2.521   1.786  0.6790  0.7791  0.2633
10732SOL    HW133359   1.524   2.602   1.740 -1.5483 -0.3313 -3.0822
10732SOL    HW233360   1.408   2.526   1.801  0.3784 -1.4067 -0.5815
10733SOL     OW33361   7.390   8.804   4.055  0.0443  0.3047  0.2489
10733SOL    HW133362   7.356   8.731   4.107  1.1572  0.0945  0.7209
10733SOL    HW233363   7.481   8.780   4.037  0.0965  1.0562 -0.5704
10734SOL     OW33364   8.338   5.637   6.529  0.0597 -0.6678  0.2485
10734SOL    HW133365   8.259   5.598   6.491 -0.4343  1.1556 -0.6849
10734SOL    HW233366   8.311   5.725   6.557  0.9890 -1.0814  2.7962
10735SOL     OW33367   7.451   1.747   2.096 -0.4524 -0.0332  0.4690
10735SOL    HW133368   7.378   1.809   2.091  0.0876  0.6210  0.5408
10735SOL    HW233369   7.457   1.710   2.008  0.2401  1.2297 -0.0539
10736SOL     OW33370   5.246   5.015   4.058  0.5452 -0.2143  0.4205
10736SOL    HW133371   5.322   5.062   4.091 -0.2129  0.7765  0.7675
10736SOL    HW233372   5.187   5.083   4.026  0.0408 -1.0010 -0.3870
10737SOL     OW33373   3.064   8.321   0.135  0.2157 -0.3112 -0.1159
10737SOL    HW133374   2.998   8.288   0.074 -0.2392  1.8663 -0.8848
10737SOL    HW233375   3.116   8.244   0.158 -0.6465 -1.5093 -1.9368
10738SOL     OW33376   4.820   8.273   8.286  0.2495  0.4481 -0.3826
10738SOL    HW133377   4.815   8.275   8.382 -0.1071  0.6441 -0.4062
10738SOL    HW233378   4.811   8.364   8.259 -0.7517  0.2855 -0.6523
10739SOL     OW33379   2.728   1.398   7.169  0.0251 -0.4569  0.0576
10739SOL    HW133380   2.639   1.427   7.191 -0.8826 -1.2136 -2.2404
10739SOL    HW233381   2.772   1.476   7.136  0.3459 -0.0089  1.5045
10740SOL     OW33382   1.693   1.274   2.154  0.1601 -0.1052 -0.7814
10740SOL    HW133383   1.685   1.234   2.240 -0.0792 -2.4672 -1.8396
10740SOL    HW233384   1.695   1.368   2.172  2.5474 -0.5267  1.9915
10741SOL     OW33385   5.200   4.305   4.355 -0.2281 -0.2320  0.0689
10741SOL    HW133386   5.168   4.264   4.275 -1.0695 -2.5494  1.4988
10741SOL    HW233387   5.272   4.248   4.385  0.5738  1.0034  0.5921
10742SOL     OW33388   8.477   7.400   1.465  0.1370 -0.3081 -0.1287
10742SOL    HW133389   8.548   7.445   1.511 -1.5510  0.1682  2.1746
10742SOL    HW233390   8.438   7.469   1.410  0.0935  0.0020  0.2857
10743SOL     OW33391   3.428   4.233   5.214 -0.2163  0.0873  0.4476
10743SOL    HW133392   3.462   4.322   5.223 -1.6000  0.6737  0.1816
10743SOL    HW233393   3.339   4.238   5.247 -0.4721 -1.0947 -0.0176
10744SOL     OW33394   6.723   4.136   0.730 -0.1787  0.0674  0.2471
10744SOL    HW133395   6.703   4.049   0.697  1.7541  0.6491 -2.8651
10744SOL    HW233396   6.805   4.124   0.780  0.0295  0.0844 -0.0906
10745SOL     OW33397   8.076   2.548   7.296 -0.3508  0.3222  0.0568
10745SOL    HW133398   8.078   2.453   7.300  1.1985  0.3565  2.2874
10745SOL    HW233399   7.985   2.570   7.276 -0.9909 -1.6181  0.6677
10746SOL     OW33400   1.971   3.476   2.048 -0.2419 -0.1923  0.2068
10746SOL    HW133401   1.910   3.453   2.118 -1.5083 -1.2693 -1.1797
10746SOL    HW233402   2.037   3.530   2.091 -0.3403 -1.7162  2.4562
10747SOL     OW33403   0.447   7.066   4.977 -0.0204 -0.5751  0.5557
10747SOL    HW133404   0.358   7.040   4.952 -0.5800 -0.5909  2.3950
10747SOL    HW233405   0.488   6.984   5.006  0.8296 -0.6774 -0.8428
10748SOL     OW33406   2.435   4.362   8.570 -0.2208 -0.1539 -0.2243
10748SOL    HW133407   2.397   4.337   8.487  0.1266  0.4797 -0.5853
10748SOL    HW233408   2.524   4.326   8.568 -1.1580 -2.8149  1.1820
10749SOL     OW33409   0.796   2.919   2.791 -0.0966 -0.0893  0.4965
10749SOL    HW133410   0.720   2.974   2.813  1.1828  0.8934  2.8900
10749SOL    HW233411   0.778   2.836   2.834 -1.5427 -1.3166 -2.2469
10750SOL     OW33412   8.618   4.720   6.253  0.1102  0.2449  0.4059
10750SOL    HW133413   8.539   4.728   6.307  0.1698  2.2635  0.2428
10750SOL    HW233414   8.680   4.783   6.290  0.5724  0.8357 -1.2876
10751SOL     OW33415   1.536   7.574   4.762  0.2800 -0.0285 -0.2168
10751SOL    HW133416   1.622   7.533   4.768 -0.0907 -1.2603 -2.3524
10751SOL    HW233417   1.473   7.503   4.779 -0.3401  0.3763 -0.7575
10752SOL     OW33418   7.577   2.456   7.883 -0.1054 -0.0940 -0.0832
10752SOL    HW133419   7.670   2.472   7.899  0.0143  0.1993 -1.0182
10752SOL    HW233420   7.567   2.361   7.894  0.1739 -0.0460  0.6269
10753SOL     OW33421   8.238   7.513   7.949  0.0552 -0.1921 -0.1193
10753SOL    HW133422   8.313   7.549   7.902  0.6638 -1.0011  0.2137
10753SOL    HW233423   8.257   7.420   7.956 -1.0988 -0.4478 -0.2312
10754SOL     OW33424   3.690   0.146   6.593  0.5382  0.0516  0.0626
10754SOL    HW133425   3.637   0.218   6.560  2.2653  1.6712  0.6311
10754SOL    HW233426   3.771   0.151   6.542  1.0618 -0.8976  0.7721
10755SOL     OW33427   0.464   0.569   4.788  0.0307  0.1665  0.2074
10755SOL    HW133428   0.466   0.477   4.761  2.1254  0.3835 -0.5568
10755SOL    HW233429   0.543   0.607   4.749 -1.1134  2.4563 -0.0240
10756SOL     OW33430   4.115   7.196   5.144  0.0578 -0.3995 -0.4463
10756SOL    HW133431   4.080   7.220   5.230 -0.2659  0.7182 -0.8671
10756SOL    HW233432   4.040   7.158   5.097  0.0689 -0.4198 -0.4473
10757SOL     OW33433   8.013   5.808   1.707 -0.5947  0.3370  0.1626
10757SOL    HW133434   7.941   5.747   1.701  0.7843 -1.4461  0.8710
10757SOL    HW233435   7.992   5.864   1.782 -0.1928 -1.6984  1.8747
10758SOL     OW33436   8.153   1.406   1.522 -0.1898 -0.4478 -0.2636
10758SOL    HW133437   8.093   1.396   1.448 -0.9181  1.4053 -0.0031
10758SOL    HW233438   8.193   1.492   1.508 -0.6165  0.1066  1.6456
10759SOL     OW33439   3.443   7.775   5.866  0.1003 -0.2595  0.0141
10759SOL    HW133440   3.474   7.688   5.840  0.3266  0.3326 -1.8600
10759SOL    HW233441   3.366   7.791   5.811 -0.9786  0.0705  1.5370
10760SOL     OW33442   1.126   4.614   8.599  0.2405  0.4224 -0.2948
10760SOL    HW133443   1.105   4.704   8.573 -2.2323 -0.4189 -1.5922
10760SOL    HW233444   1.043   4.579   8.633  1.0629 -1.4429 -0.0792
10761SOL     OW33445   6.401   2.671   6.230 -0.1165  0.7369 -0.6827
10761SOL    HW133446   6.451   2.677   6.148  0.4493  0.7016 -0.3443
10761SOL    HW233447   6.350   2.752   6.233  1.8648  2.0310  0.2152
10762SOL     OW33448   6.482   1.773   7.378 -0.3646  0.1671  0.8560
10762SOL    HW133449   6.389   1.790   7.365 -0.0791  1.0666 -0.1386
10762SOL    HW233450   6.526   1.851   7.344  0.9412 -1.7003 -2.1562
10763SOL     OW33451   1.238   0.432   5.546 -0.2293  0.0171  0.8353
10763SOL    HW133452   1.281   0.368   5.490  1.0252  0.4719  1.2443
10763SOL    HW233453   1.222   0.386   5.628 -0.5973 -0.1761  0.6567
10764SOL     OW33454   4.504   2.527   7.031  0.4241  0.1176 -0.1229
10764SOL    HW133455   4.551   2.534   7.114  0.8737 -0.2998 -0.3421
10764SOL    HW233456   4.501   2.617   6.997 -1.2128  0.5918  1.1280
10765SOL     OW33457   8.266   1.059   1.822  0.1929  0.1098 -0.3862
10765SOL    HW133458   8.331   1.129   1.809  0.3221 -0.0365 -0.5330
10765SOL    HW233459   8.203   1.072   1.752 -0.0318  0.3566 -0.1418
10766SOL     OW33460   0.917   4.250   6.068  0.3247 -0.2056  0.8362
10766SOL    HW133461   0.894   4.295   5.987  1.9080 -1.0002 -0.1362
10766SOL    HW233462   0.881   4.304   6.138 -1.9075  0.0282 -0.3997
10767SOL     OW33463   3.977   4.299   3.508 -0.1777  0.1406  0.2998
10767SOL    HW133464   4.052   4.265   3.558 -0.2994  0.0467  0.4185
10767SOL    HW233465   4.001   4.285   3.417  0.2600  0.7497  0.3085
10768SOL     OW33466   7.195   2.480   0.120 -0.5530  0.3192 -0.4943
10768SOL    HW133467   7.270   2.520   0.163 -1.3086  0.4920  0.7165
10768SOL    HW233468   7.205   2.387   0.135 -1.4460  0.4624  1.1793
10769SOL     OW33469   7.072   4.475   5.066  0.0599  0.0147 -0.2918
10769SOL    HW133470   7.147   4.416   5.074 -0.4316 -0.9169 -1.9586
10769SOL    HW233471   7.064   4.490   4.972 -0.9525  1.2978 -0.0316
10770SOL     OW33472   6.627   1.916   4.165  0.0544  0.6893  0.4377
10770SOL    HW133473   6.576   1.954   4.236 -1.9008  3.8658 -2.3669
10770SOL    HW233474   6.577   1.840   4.137  0.3499 -0.0221  1.7689
10771SOL     OW33475   1.448   4.916   0.772 -0.4148 -0.4802  0.1155
10771SOL    HW133476   1.396   4.940   0.696 -0.7468  0.3021  0.5733
10771SOL    HW233477   1.504   4.844   0.742 -1.6596 -1.2525 -0.4191
10772SOL     OW33478   3.136   1.104   1.989  0.7472 -0.3724 -0.6962
10772SOL    HW133479   3.215   1.156   1.982  0.1806  0.6191 -0.0432
10772SOL    HW233480   3.167   1.014   2.005  1.7312  0.1466  0.4710
10773SOL     OW33481   0.900   1.419   1.929  0.1858 -0.2671  1.0869
10773SOL    HW133482   0.858   1.423   1.844  1.5600 -2.8876  0.1702
10773SOL    HW233483   0.970   1.485   1.925  0.4592 -0.6044  0.0332
10774SOL     OW33484   1.245   0.370   2.032 -0.1156 -0.3416 -0.0055
10774SOL    HW133485   1.231   0.448   2.086 -2.3701 -1.2964  0.8866
10774SOL    HW233486   1.175   0.374   1.966  1.7589  0.0787 -2.1243
10775SOL     OW33487   6.067   3.561   4.622  0.5532 -0.3601  0.1828
10775SOL    HW133488   6.129   3.623   4.660 -0.2705 -0.1882  1.2943
10775SOL    HW233489   6.121   3.486   4.597  1.4929  0.6001 -0.7636
10776SOL     OW33490   1.464   7.409   3.156  0.0357  0.0119 -0.2722
10776SOL    HW133491   1.529   7.469   3.191 -0.0397  1.0540 -1.7941
10776SOL    HW233492   1.489   7.323   3.190  0.6410  0.7722  1.2682
10777SOL     OW33493   7.431   2.914   8.840  0.0877  0.3292  0.0014
10777SOL    HW133494   7.484   2.838   8.862 -0.0603 -0.9131 -3.4143
10777SOL    HW233495   7.493   2.977   8.804 -0.2197  0.5798 -0.0964
10778SOL     OW33496   0.257   3.176   3.154 -0.6134 -0.3704  0.3958
10778SOL    HW133497   0.309   3.232   3.096 -1.2761 -0.5251 -0.3746
10778SOL    HW233498   0.321   3.117   3.193 -0.3326 -1.4816 -1.5990
10779SOL     OW33499   4.004   4.375   8.589  0.0004  0.1642  0.4444
10779SOL    HW133500   3.918   4.379   8.631  0.6682 -0.1072  1.9262
10779SOL    HW233501   4.043   4.294   8.623  1.4081  1.0427  0.9854
10780SOL     OW33502   7.392   7.482   2.034 -0.0520  1.1047 -0.2498
10780SOL    HW133503   7.401   7.510   2.125  0.4360  0.2172 -0.0105
10780SOL    HW233504   7.297   7.471   2.022 -0.0361 -0.1180  0.5877
10781SOL     OW33505   3.304   7.920   6.695  0.7795 -0.1680 -0.0148
10781SOL    HW133506   3.320   7.855   6.763  1.7072  0.4270  0.3412
10781SOL    HW233507   3.366   7.990   6.712 -1.2234  1.5716  0.5470
10782SOL     OW33508   6.055   6.520   6.095 -0.0269 -0.2982 -0.0359
10782SOL    HW133509   5.981   6.562   6.138  0.2118  0.3491 -0.2520
10782SOL    HW233510   6.050   6.549   6.004  2.1600  2.1716  0.5207
10783SOL     OW33511   2.418   3.491   4.632 -0.0613  0.8129 -0.3992
10783SOL    HW133512   2.477   3.466   4.561  0.8707  1.2364  0.2098
10783SOL    HW233513   2.459   3.568   4.672 -1.0735  1.1670 -0.0226
10784SOL     OW33514   4.547   4.147   6.229  0.2485  0.6460  0.3271
10784SOL    HW133515   4.513   4.166   6.142 -0.5483  0.3089  0.5606
10784SOL    HW233516   4.622   4.207   6.239 -0.0374  1.1237 -0.3400
10785SOL     OW33517   5.906   2.273   0.775 -0.1384  0.1833 -0.4799
10785SOL    HW133518   5.932   2.197   0.723 -0.5494 -0.2169 -0.1064
10785SOL    HW233519   5.986   2.298   0.822 -0.2849 -0.7501  0.2964
10786SOL     OW33520   2.871   4.038   2.079 -0.6733 -0.2357 -0.6018
10786SOL    HW133521   2.875   4.054   1.984 -0.7798 -2.3447 -1.0329
10786SOL    HW233522   2.962   4.020   2.104 -0.7576 -0.5612 -0.5124
10787SOL     OW33523   4.480   2.823   0.691  0.0519  0.1308 -0.1332
10787SOL    HW133524   4.409   2.760   0.676 -0.6061  0.0677  2.6135
10787SOL    HW233525   4.536   2.779   0.755  1.0527  1.3021 -0.1897
10788SOL     OW33526   7.829   7.270   7.161  0.5572  0.3228 -0.1156
10788SOL    HW133527   7.912   7.270   7.210  0.5335 -1.7529  0.0263
10788SOL    HW233528   7.789   7.186   7.183 -2.1217  1.6847  0.6499
10789SOL     OW33529   0.736   3.808   4.906  0.0914 -0.7057  0.2912
10789SOL    HW133530   0.796   3.847   4.844  0.8014  0.0922  1.4463
10789SOL    HW233531   0.791   3.750   4.959  0.0038  0.4654  1.7289
10790SOL     OW33532   1.862   6.997   6.583  0.5147  0.0955 -0.1911
10790SOL    HW133533   1.880   6.920   6.637  1.6665  0.5268  0.0667
10790SOL    HW233534   1.921   6.988   6.508  0.2713  0.4606 -0.4324
10791SOL     OW33535   0.916   6.108   5.465  0.2387 -0.0913  0.5503
10791SOL    HW133536   0.860   6.031   5.476 -0.6676  0.2840 -1.1569
10791SOL    HW233537   0.988   6.076   5.410  0.0460  0.2103  0.1288
10792SOL     OW33538   7.209   6.026   7.229  0.0805  0.0118 -0.4612
10792SOL    HW133539   7.219   5.932   7.214  1.6484 -0.0763  0.8266
10792SOL    HW233540   7.130   6.050   7.180  0.3372 -1.7167 -1.8338
10793SOL     OW33541   8.011   5.881   6.819  0.2000 -0.2772 -0.4916
10793SOL    HW133542   7.965   5.953   6.862  1.7768  0.6771 -0.3472
10793SOL    HW233543   8.053   5.833   6.890  1.0246  0.0297 -0.7528
10794SOL     OW33544   8.463   6.070   1.728  0.0693  0.3756  0.1556
10794SOL    HW133545   8.522   6.042   1.797  0.4543  0.8430  0.0204
10794SOL    HW233546   8.516   6.128   1.673 -1.2035  3.0215  1.5271
10795SOL     OW33547   8.110   8.214   8.548  0.2779 -0.2725 -0.7522
10795SOL    HW133548   8.138   8.229   8.638 -1.3588 -0.2477 -0.2158
10795SOL    HW233549   8.015   8.225   8.550  0.2180 -0.1331 -2.5152
10796SOL     OW33550   2.635   6.693   2.839 -0.3006 -0.3584  0.0780
10796SOL    HW133551   2.665   6.700   2.930  0.4071  2.1691 -0.2645
10796SOL    HW233552   2.543   6.668   2.846 -1.8593  4.6233  1.9180
10797SOL     OW33553   1.791   3.141   3.215  0.1339  0.1020 -0.0458
10797SOL    HW133554   1.723   3.152   3.282 -1.3183  0.1459 -1.4762
10797SOL    HW233555   1.800   3.227   3.175 -1.5344 -0.6192 -2.1814
10798SOL     OW33556   0.266   0.751   4.154  0.5779  0.4363  0.0002
10798SOL    HW133557   0.186   0.785   4.113  1.1043  1.3268 -0.3186
10798SOL    HW233558   0.273   0.661   4.122 -0.1827  0.4216 -0.1419
10799SOL     OW33559   3.438   3.814   5.308 -0.4870 -0.7510 -0.8054
10799SOL    HW133560   3.444   3.719   5.297 -0.4238 -0.8813  0.2638
10799SOL    HW233561   3.398   3.825   5.394  0.9052  0.2055 -0.2540
10800SOL     OW33562   3.215   7.559   3.636 -0.3128  0.0730  0.3022
10800SOL    HW133563   3.127   7.555   3.675 -0.8250  1.4803 -0.6295
10800SOL    HW233564   3.211   7.503   3.559  0.7420 -2.8258  2.1847
10801SOL     OW33565   7.495   2.964   3.997 -0.1480 -0.0619 -0.1587
10801SOL    HW133566   7.509   2.992   4.087 -1.3045  2.6357 -0.7065
10801SOL    HW233567   7.574   2.991   3.951 -0.5243  0.6924 -0.3677
10802SOL     OW33568   0.099   6.344   7.165 -0.2511  0.3175 -1.1020
10802SOL    HW133569   0.017   6.321   7.207 -0.0091  0.3870 -0.5823
10802SOL    HW233570   0.084   6.329   7.072 -0.2678 -1.3983 -0.8464
10803SOL     OW33571   6.994   6.463   1.767  0.1323 -0.1458  0.5982
10803SOL    HW133572   7.061   6.519   1.727 -1.3878  2.0901  1.0320
10803SOL    HW233573   7.000   6.482   1.861 -0.0076 -1.2034  0.8357
10804SOL     OW33574   4.757   2.161   6.285  0.1347 -0.0171 -0.3668
10804SOL    HW133575   4.778   2.069   6.270 -0.1495 -0.4366  1.5880
10804SOL    HW233576   4.664   2.161   6.306  0.0577  0.7727 -0.6786
10805SOL     OW33577   2.643   7.583   3.288  0.1009 -0.3911 -0.3175
10805SOL    HW133578   2.732   7.602   3.318  0.5220 -1.3416 -0.9193
10805SOL    HW233579   2.650   7.498   3.244 -1.1770 -0.6565 -0.0505
10806SOL     OW33580   4.761   0.990   5.626  0.1820  0.3875 -0.4966
10806SOL    HW133581   4.755   1.020   5.717  1.1933  1.1218 -0.6540
10806SOL    HW233582   4.772   0.895   5.633 -2.1953  0.1034  0.0342
10807SOL     OW33583   2.121   0.052   1.058 -0.5558 -0.0663  0.8978
10807SOL    HW133584   2.033   0.078   1.087 -0.3163 -0.0061  1.5801
10807SOL    HW233585   2.177   0.070   1.133  0.5107  2.3946 -0.4088
10808SOL     OW33586   4.065   7.473   7.156 -0.3680 -0.0521 -0.1939
10808SOL    HW133587   4.035   7.383   7.168  1.1821 -0.3982  1.5362
10808SOL    HW233588   4.022   7.521   7.227  0.8629  0.0128  0.5312
10809SOL     OW33589   5.406   8.087   3.253  0.2647  0.6208  0.2241
10809SOL    HW133590   5.416   8.173   3.211  1.1219 -0.4715 -1.9769
10809SOL    HW233591   5.326   8.051   3.214  2.3277 -1.3916 -2.4965
10810SOL     OW33592   5.385   7.381   0.570  0.4160 -0.3852 -0.0332
10810SOL    HW133593   5.454   7.327   0.610 -0.3849 -1.5250 -0.1450
10810SOL    HW233594   5.419   7.401   0.482  0.6807 -0.8063 -0.0326
10811SOL     OW33595   1.854   2.355   0.895 -0.3964 -0.6464  0.3217
10811SOL    HW133596   1.869   2.261   0.904 -1.8107 -0.8096  1.4009
10811SOL    HW233597   1.838   2.368   0.801 -2.6846 -1.9361  0.4608
10812SOL     OW33598   5.985   3.668   3.065 -0.1810 -0.6977 -0.3380
10812SOL    HW133599   6.059   3.692   3.009  0.6305 -0.0951  0.9323
10812SOL    HW233600   5.973   3.574   3.049 -0.3991 -0.4257 -1.9614
10813SOL     OW33601   8.757   3.571   4.921 -0.2329 -0.2802  0.2773
10813SOL    HW133602   8.700   3.498   4.943  0.8081 -1.4355 -0.6855
10813SOL    HW233603   8.794   3.547   4.836 -0.8447  1.9829 -0.6832
10814SOL     OW33604   5.460   1.239   2.496  0.3207 -0.3748  0.1097
10814SOL    HW133605   5.531   1.272   2.551  1.1110 -2.2022  0.2700
10814SOL    HW233606   5.406   1.186   2.555 -0.4954  0.0251 -0.2670
10815SOL     OW33607   3.615   8.245   4.424  0.2458 -1.0467 -0.2205
10815SOL    HW133608   3.578   8.196   4.351  1.5327  0.0966 -1.6853
10815SOL    HW233609   3.613   8.183   4.497 -0.8306 -2.3050 -1.2603
10816SOL     OW33610   0.703   3.852   1.309  0.3184  0.2488  0.3431
10816SOL    HW133611   0.722   3.946   1.308  1.1106  0.1280  1.6135
10816SOL    HW233612   0.720   3.823   1.219  0.6811  1.1951  0.0929
10817SOL     OW33613   8.608   6.085   3.630 -0.0380 -0.4170  0.0523
10817SOL    HW133614   8.530   6.053   3.585  0.3111 -0.7632 -0.3216
10817SOL    HW233615   8.653   6.138   3.565 -0.4350  0.5785  0.5630
10818SOL     OW33616   6.259   5.238   1.481 -0.1743  0.0934  0.5701
10818SOL    HW133617   6.176   5.277   1.454  1.2724  1.5163 -2.2166
10818SOL    HW233618   6.298   5.303   1.540 -0.4980 -0.0448  0.9428
10819SOL     OW33619   2.957   0.920   1.641  0.0197 -0.5799  0.5738
10819SOL    HW133620   2.940   0.955   1.553 -1.5743  0.0065  1.0849
10819SOL    HW233621   2.966   0.826   1.628  0.0064 -0.4726 -0.2504
10820SOL     OW33622   5.309   4.333   7.993 -0.1638 -0.3006  0.0301
10820SOL    HW133623   5.281   4.405   8.049 -1.1192  0.1832 -1.0244
10820SOL    HW233624   5.403   4.346   7.981  0.1514 -0.6491  1.8151
10821SOL     OW33625   3.578   8.860   7.576 -0.4507  0.3910  0.0782
10821SOL    HW133626   3.546   8.935   7.525 -0.9469 -0.0005 -0.1909
10821SOL    HW233627   3.654   8.895   7.623  0.0595  0.7448 -0.9710
10822SOL     OW33628   6.522   3.899   5.801  0.1427  0.0253  0.4709
10822SOL    HW133629   6.575   3.971   5.836  0.5309  1.7769 -3.2026
10822SOL    HW233630   6.577   3.821   5.813  1.9426  1.1891  0.1003
10823SOL     OW33631   6.068   5.323   0.319  0.8339  0.1032 -0.3440
10823SOL    HW133632   6.139   5.383   0.342  0.8862  0.7551 -2.0798
10823SOL    HW233633   5.991   5.380   0.310  0.5144 -0.3313 -0.3719
10824SOL     OW33634   6.691   0.597   4.839 -0.3378  0.0432 -0.3307
10824SOL    HW133635   6.605   0.556   4.845  0.3702 -1.3646  0.5006
10824SOL    HW233636   6.672   0.690   4.823 -1.9723 -0.4755 -1.5707
10825SOL     OW33637   4.077   2.339   8.710  0.2062  0.0334 -0.2796
10825SOL    HW133638   3.998   2.342   8.655 -0.5485  0.6379  0.7996
10825SOL    HW233639   4.132   2.273   8.668 -0.4608  0.2689 -1.5932
10826SOL     OW33640   5.813   7.386   6.040 -0.3983  0.1253  0.2195
10826SOL    HW133641   5.832   7.296   6.011  0.1399 -0.4621  2.2140
10826SOL    HW233642   5.721   7.399   6.018 -0.0520 -0.2346 -1.6798
10827SOL     OW33643   0.582   4.341   7.516  0.5217 -0.0797  0.0438
10827SOL    HW133644   0.585   4.251   7.549  1.3213 -0.3074 -0.5990
10827SOL    HW233645   0.670   4.375   7.535  0.2269  0.5591  0.2640
10828SOL     OW33646   6.715   4.213   4.918  0.2382 -0.2808  0.4838
10828SOL    HW133647   6.700   4.119   4.916 -0.0721 -0.2831 -2.8331
10828SOL    HW233648   6.805   4.223   4.887 -0.3928  0.5543 -1.1455
10829SOL     OW33649   8.104   2.013   4.347 -0.2031 -0.3760  0.3701
10829SOL    HW133650   8.076   1.924   4.367  3.0582 -1.7307 -0.3742
10829SOL    HW233651   8.052   2.039   4.271 -1.0695 -1.7255  0.4721
10830SOL     OW33652   4.887   1.991   8.246 -0.1391  0.1430 -0.0172
10830SOL    HW133653   4.967   1.949   8.216  0.4406  0.3679  1.1503
10830SOL    HW233654   4.917   2.060   8.305 -1.1694 -2.0251  3.3673
10831SOL     OW33655   4.868   7.701   5.191 -0.5048 -0.7259  0.5189
10831SOL    HW133656   4.929   7.654   5.248  1.1231  1.7137  0.9407
10831SOL    HW233657   4.915   7.780   5.165 -2.3003 -0.3100 -1.8678
10832SOL     OW33658   3.163   7.972   6.185  0.5906 -0.1213 -0.7451
10832SOL    HW133659   3.103   7.910   6.227 -0.6492  0.5179 -1.5293
10832SOL    HW233660   3.209   8.013   6.259  0.7495 -1.2834 -0.1754
10833SOL     OW33661   0.870   6.041   7.204 -0.0523 -0.0546 -0.0535
10833SOL    HW133662   0.893   5.973   7.268  1.6846 -0.2632 -0.8421
10833SOL    HW233663   0.953   6.063   7.162 -0.9345  1.0808 -1.2762
10834SOL     OW33664   5.887   7.772   5.485  0.6742 -0.2057 -0.2744
10834SOL    HW133665   5.934   7.691   5.505 -0.1183 -1.0612 -1.7430
10834SOL    HW233666   5.955   7.840   5.490  1.2847 -0.8812  1.2973
10835SOL     OW33667   2.908   6.496   8.800 -0.2829  0.1011 -0.1094
10835SOL    HW133668   2.929   6.438   8.873  1.2208  2.1633  1.1737
10835SOL    HW233669   2.814   6.511   8.808 -0.3651 -0.7291  0.5934
10836SOL     OW33670   5.889   2.246   2.095  0.4385  0.9283  0.1649
10836SOL    HW133671   5.827   2.266   2.165 -1.3245  1.7982 -1.5533
10836SOL    HW233672   5.847   2.174   2.047  1.3855  0.6710 -0.2956
10837SOL     OW33673   0.652   6.474   2.347 -0.3058 -0.1338  0.6852
10837SOL    HW133674   0.557   6.462   2.345 -0.5271  0.8080  2.6124
10837SOL    HW233675   0.664   6.568   2.355  0.9321  0.0294 -1.9862
10838SOL     OW33676   5.746   4.999   8.597 -0.0255  0.0911  0.0142
10838SOL    HW133677   5.663   5.006   8.550  0.2491  6.1299 -0.4118
10838SOL    HW233678   5.812   5.025   8.533  1.5032  0.2334  1.5775
10839SOL     OW33679   3.730   3.157   5.302  0.2446 -0.0960  0.2725
10839SOL    HW133680   3.823   3.145   5.320  0.0520  0.8392  2.0976
10839SOL    HW233681   3.701   3.073   5.266  2.1792  0.2107 -2.3249
10840SOL     OW33682   4.249   5.334   3.964  0.5142  0.2933 -0.4679
10840SOL    HW133683   4.255   5.430   3.959  0.4881  0.5255  2.5232
10840SOL    HW233684   4.339   5.305   3.980  0.3931 -0.1246 -0.5307
10841SOL     OW33685   6.778   4.894   8.734 -1.4716  0.1009  0.1103
10841SOL    HW133686   6.710   4.960   8.727 -0.2863  1.3987  0.3453
10841SOL    HW233687   6.831   4.921   8.809  0.8587  0.7082 -1.6208
10842SOL     OW33688   0.973   6.292   7.929 -0.3019 -0.3523  0.2321
10842SOL    HW133689   1.024   6.251   7.999  0.7945  0.8476  0.1565
10842SOL    HW233690   1.017   6.265   7.849  0.5134  1.0524  0.1875
10843SOL     OW33691   2.783   3.526   6.264 -0.0804  0.4761  0.3273
10843SOL    HW133692   2.819   3.439   6.247  0.2633  0.3985  1.3947
10843SOL    HW233693   2.712   3.511   6.326 -0.8128  0.8377 -0.4002
10844SOL     OW33694   6.195   8.200   4.403 -0.4824 -0.1087  0.6372
10844SOL    HW133695   6.211   8.184   4.496  0.8826 -0.3140  0.3816
10844SOL    HW233696   6.100   8.215   4.397 -0.7691 -1.2878  1.8687
10845SOL     OW33697   7.556   3.712   1.881 -0.0482  0.0246  0.7210
10845SOL    HW133698   7.633   3.724   1.826 -0.7109  1.4181  0.0284
10845SOL    HW233699   7.550   3.792   1.932 -1.0567 -0.0326  0.7224
10846SOL     OW33700   7.560   8.658   7.869  0.0091  0.3618  0.1551
10846SOL    HW133701   7.473   8.621   7.881 -0.9272  1.8984 -1.4220
10846SOL    HW233702   7.620   8.585   7.884 -1.6506 -1.3825 -1.2194
10847SOL     OW33703   7.618   5.646   6.001  0.3495 -1.0588 -0.4307
10847SOL    HW133704   7.567   5.655   5.921  1.0542 -0.3410 -0.8035
10847SOL    HW233705   7.552   5.639   6.071 -0.3991  3.4032 -0.4440
10848SOL     OW33706   6.183   1.085   8.117 -0.1444  0.7853 -0.2474
10848SOL    HW133707   6.187   0.997   8.154  0.5604  0.6765 -0.5644
10848SOL    HW233708   6.245   1.136   8.170  1.9766  0.3024 -2.0695
10849SOL     OW33709   6.610   5.724   1.161 -0.4795 -0.1884  0.3902
10849SOL    HW133710   6.644   5.712   1.250  1.4463  0.1003 -0.2583
10849SOL    HW233711   6.619   5.818   1.145 -0.4992 -0.2910 -0.2308
10850SOL     OW33712   3.404   6.081   4.957 -0.0545 -0.2558 -0.4702
10850SOL    HW133713   3.469   6.016   4.985 -0.7293  0.7260  4.2768
10850SOL    HW233714   3.450   6.164   4.961 -0.2690 -0.0051 -2.4864
10851SOL     OW33715   4.163   0.405   2.367 -0.4936  0.1802  0.3431
10851SOL    HW133716   4.228   0.339   2.391 -1.4261 -1.3313 -1.0587
10851SOL    HW233717   4.088   0.386   2.423 -0.7575  0.0578 -0.0502
10852SOL     OW33718   5.950   3.039   5.355  0.2004  0.1574  0.1056
10852SOL    HW133719   5.950   3.046   5.259  0.7478 -3.0963 -0.2329
10852SOL    HW233720   5.959   3.130   5.385 -1.2328  1.4525 -2.8565
10853SOL     OW33721   0.751   2.869   7.360  0.5284  0.0882 -0.0528
10853SOL    HW133722   0.763   2.962   7.339  0.8940 -0.2058 -1.2066
10853SOL    HW233723   0.712   2.831   7.281  0.1272 -0.6922  0.5057
10854SOL     OW33724   1.305   8.187   0.423 -0.1451  0.2364  0.0171
10854SOL    HW133725   1.259   8.112   0.386  2.1895  0.3027 -3.5386
10854SOL    HW233726   1.387   8.152   0.455 -0.0371  0.9461  0.5484
10855SOL     OW33727   2.047   3.234   1.350  0.5409 -0.1991  0.4132
10855SOL    HW133728   2.055   3.304   1.285 -2.0026  0.3845  0.6102
10855SOL    HW233729   2.019   3.158   1.300  1.2643 -0.5168  0.4815
10856SOL     OW33730   7.302   0.067   7.379 -0.2900 -0.0785  0.0144
10856SOL    HW133731   7.224   0.038   7.331 -0.9094  0.3779  0.7210
10856SOL    HW233732   7.373   0.060   7.315 -0.8764 -0.6607 -0.5972
10857SOL     OW33733   0.542   4.927   7.942 -0.1228  0.3985  0.6168
10857SOL    HW133734   0.620   4.976   7.969  0.8578 -0.9597  0.3389
10857SOL    HW233735   0.513   4.972   7.862  1.6974 -0.3564 -0.5398
10858SOL     OW33736   7.489   4.728   7.577  0.1752 -0.3491  0.3258
10858SOL    HW133737   7.570   4.677   7.575  0.2822 -0.1855  0.4481
10858SOL    HW233738   7.423   4.668   7.612  0.4922 -0.1418  1.3064
10859SOL     OW33739   8.151   6.890   4.898 -0.0534  0.0032 -0.4676
10859SOL    HW133740   8.144   6.876   4.992  1.4383 -1.5532 -0.5405
10859SOL    HW233741   8.240   6.923   4.885  0.5543 -1.8857 -1.4864
10860SOL     OW33742   5.492   2.384   3.183 -0.2673  0.0147 -0.0484
10860SOL    HW133743   5.466   2.408   3.272  2.9109  0.3403  0.9337
10860SOL    HW233744   5.523   2.466   3.144 -1.5685 -0.1348 -1.4760
10861SOL     OW33745   8.379   6.338   0.000  0.0329 -0.3965 -0.2253
10861SOL    HW133746   8.376   6.249  -0.034 -1.0462 -1.7144  2.9356
10861SOL    HW233747   8.308   6.383  -0.044 -0.2158 -1.4666 -0.9478
10862SOL     OW33748   1.841   5.194   7.927 -0.2296 -0.2045  0.0121
10862SOL    HW133749   1.803   5.257   7.864  0.3061  3.5613  3.0576
10862SOL    HW233750   1.929   5.176   7.893 -0.5581  0.3632 -1.1861
10863SOL     OW33751   0.831   7.033   4.600 -0.1684 -0.4559 -0.0174
10863SOL    HW133752   0.796   6.945   4.589  0.8843 -1.2869  2.5681
10863SOL    HW233753   0.779   7.072   4.670 -0.2253  0.7889 -0.7134
10864SOL     OW33754   2.931   1.543   0.459  0.4061  0.5911  0.3991
10864SOL    HW133755   2.848   1.500   0.481  0.3792  0.3408 -0.1662
10864SOL    HW233756   2.906   1.608   0.393  0.8357 -0.3390 -0.7083
10865SOL     OW33757   7.041   4.527   7.947 -0.2982 -0.0545  0.0348
10865SOL    HW133758   7.105   4.458   7.963 -0.3432 -0.0391  0.2724
10865SOL    HW233759   7.001   4.503   7.863 -0.5024 -0.4617  0.2466
10866SOL     OW33760   1.252   5.471   4.395 -0.0947  0.4483  0.0397
10866SOL    HW133761   1.183   5.457   4.330  0.9978  0.2206 -1.1187
10866SOL    HW233762   1.265   5.566   4.396 -0.3392  0.4800  0.1639
10867SOL     OW33763   7.019   6.999   3.514 -0.5035 -0.6449  0.0716
10867SOL    HW133764   7.072   6.943   3.456 -1.6337 -0.6043 -1.0414
10867SOL    HW233765   6.938   7.013   3.466 -0.1482  2.2596  0.1185
10868SOL     OW33766   1.356   3.778   5.307  0.3591 -0.2031 -0.5120
10868SOL    HW133767   1.273   3.820   5.333  0.0396 -2.2957  2.2362
10868SOL    HW233768   1.364   3.800   5.214 -2.8823  0.7373 -0.7296
10869SOL     OW33769   5.980   6.747   3.679 -0.1033 -0.2717 -0.0441
10869SOL    HW133770   5.972   6.704   3.764 -1.2900 -2.4468 -1.1818
10869SOL    HW233771   5.945   6.684   3.617  1.1750  1.0659 -2.2337
10870SOL     OW33772   8.129   5.272   5.504 -0.6970  0.0819 -0.2547
10870SOL    HW133773   8.197   5.338   5.489 -2.7685  2.8845  1.6657
10870SOL    HW233774   8.149   5.237   5.591 -0.6377 -0.5440 -0.5146
10871SOL     OW33775   5.910   8.711   6.225  0.3083  0.4229 -0.1254
10871SOL    HW133776   5.927   8.793   6.272 -0.2381  0.2517  0.3823
10871SOL    HW233777   5.833   8.674   6.268 -0.1975  0.2456 -1.1497
10872SOL     OW33778   6.607   3.517   1.400 -0.0672 -0.2453  0.0569
10872SOL    HW133779   6.668   3.472   1.341 -0.1833 -0.0174 -0.2429
10872SOL    HW233780   6.544   3.558   1.341 -0.9769 -1.1451  0.3910
10873SOL     OW33781   5.981   8.801   7.013  0.8313 -0.0599 -0.1542
10873SOL    HW133782   5.931   8.842   7.084  1.8658  0.2938  0.3887
10873SOL    HW233783   6.032   8.732   7.057  1.0481 -0.2184 -0.6529
10874SOL     OW33784   6.147   2.330   7.546  0.0270  0.9786  0.2489
10874SOL    HW133785   6.233   2.370   7.560  1.4313 -1.9227  0.5362
10874SOL    HW233786   6.139   2.321   7.451 -0.3405  1.8978  0.1749
10875SOL     OW33787   6.967   4.038   4.853  0.3056 -0.3764 -0.1103
10875SOL    HW133788   7.060   4.059   4.838  0.2723  0.1798  0.4548
10875SOL    HW233789   6.933   4.021   4.765  0.9412 -0.5823 -0.3258
10876SOL     OW33790   0.549   1.422   6.162 -0.6771 -0.2349  0.1801
10876SOL    HW133791   0.623   1.483   6.171  1.0591 -1.9148 -1.5142
10876SOL    HW233792   0.494   1.439   6.238  0.0014  2.9869  0.0975
10877SOL     OW33793   8.830   3.529   8.677  0.1128  0.3020 -0.2201
10877SOL    HW133794   8.868   3.546   8.763  0.0012 -2.0343  0.3745
10877SOL    HW233795   8.738   3.512   8.694 -0.1013  0.6819 -0.9386
10878SOL     OW33796   2.624   7.752   6.233  0.2027  0.1738 -0.7543
10878SOL    HW133797   2.543   7.708   6.207  0.0977  0.1984 -0.4734
10878SOL    HW233798   2.615   7.765   6.328  1.1488 -1.1022 -0.4538
10879SOL     OW33799   1.655   1.160   1.272 -0.1097 -0.7113 -0.0479
10879SOL    HW133800   1.713   1.160   1.196  1.4055  0.7051  1.0461
10879SOL    HW233801   1.644   1.068   1.293  1.8917 -1.0354 -0.2151
10880SOL     OW33802   2.515   4.925   2.707  0.0184  0.1925 -0.2206
10880SOL    HW133803   2.573   4.852   2.728 -1.0188 -0.8361 -0.8184
10880SOL    HW233804   2.465   4.940   2.787 -0.0807 -0.0634 -0.2316
10881SOL     OW33805   6.738   3.747   4.691  0.4447 -0.6580 -0.0184
10881SOL    HW133806   6.761   3.828   4.644  0.5227 -0.8381 -0.2930
10881SOL    HW233807   6.678   3.776   4.759 -0.4002 -0.5148 -0.8102
10882SOL     OW33808   5.867   0.098   6.594 -0.5517 -0.5029  0.0496
10882SOL    HW133809   5.913   0.169   6.640 -0.6613 -0.4855  0.1343
10882SOL    HW233810   5.926   0.073   6.523 -1.0759  0.5615 -0.7901
10883SOL     OW33811   7.593   7.321   1.935  0.1834 -0.0987 -0.1909
10883SOL    HW133812   7.516   7.369   1.967  0.5928  1.4468 -1.3991
10883SOL    HW233813   7.640   7.294   2.014 -1.6718 -1.2865  0.5939
10884SOL     OW33814   3.936   8.288   2.858  0.4254  0.1209  0.5333
10884SOL    HW133815   3.970   8.376   2.845  0.1723  0.0733 -0.6214
10884SOL    HW233816   3.990   8.233   2.801  0.3723 -0.4199  0.9972
10885SOL     OW33817   0.259   6.959   3.693  0.1371 -0.2762 -0.3773
10885SOL    HW133818   0.326   7.024   3.715 -0.5856  0.8701 -1.4101
10885SOL    HW233819   0.200   6.959   3.769 -0.8134  1.5983 -1.0462
10886SOL     OW33820   1.382   6.328   5.510  0.4754 -0.2553 -0.0103
10886SOL    HW133821   1.408   6.238   5.490 -1.2525 -0.6111 -0.8769
10886SOL    HW233822   1.345   6.360   5.427 -0.8454  0.5345  0.8637
10887SOL     OW33823   1.538   0.637   7.159  0.1845  0.1865  0.4016
10887SOL    HW133824   1.525   0.731   7.152  2.9886  0.5523 -1.7536
10887SOL    HW233825   1.514   0.603   7.073 -1.0106 -1.1399  1.2149
10888SOL     OW33826   1.899   1.365   4.168 -0.5797 -0.0102  0.1041
10888SOL    HW133827   1.932   1.397   4.084  2.6621 -1.6932  0.5684
10888SOL    HW233828   1.902   1.269   4.160  2.9416 -0.3946  2.9769
10889SOL     OW33829   1.114   8.458   8.676  0.0858 -0.4300 -0.0378
10889SOL    HW133830   1.166   8.536   8.657 -0.4275  0.2683  1.2780
10889SOL    HW233831   1.084   8.470   8.766 -1.3542 -1.3888 -0.3493
10890SOL     OW33832   7.442   8.688   3.038 -0.3759  0.0759 -0.3603
10890SOL    HW133833   7.440   8.671   2.943  1.0691  0.6664 -0.5256
10890SOL    HW233834   7.519   8.640   3.069  0.8892  2.2105 -0.0097
10891SOL     OW33835   3.549   5.888   1.145 -0.2452 -0.0687 -0.1131
10891SOL    HW133836   3.475   5.872   1.204  1.4121  0.0170  2.1410
10891SOL    HW233837   3.623   5.907   1.204  1.4131  0.5898 -2.2655
10892SOL     OW33838   2.162   2.690   4.972  0.3495  0.0013 -0.1329
10892SOL    HW133839   2.097   2.736   5.025  0.6324  0.4123 -0.1363
10892SOL    HW233840   2.117   2.612   4.942  0.0437 -0.0180  0.3544
10893SOL     OW33841   7.358   8.305   7.670 -0.1808 -0.6001 -0.5040
10893SOL    HW133842   7.366   8.367   7.743 -1.2450  0.4379 -1.2385
10893SOL    HW233843   7.282   8.335   7.622 -0.0865 -1.8792 -1.4859
10894SOL     OW33844   6.662   3.611   7.677  0.1299 -0.2727 -0.1394
10894SOL    HW133845   6.758   3.607   7.680  0.5594  2.7618 -3.3268
10894SOL    HW233846   6.638   3.670   7.748  0.7071 -0.2250  0.0220
10895SOL     OW33847   3.862   4.090   1.656  0.5936 -0.2847 -0.6170
10895SOL    HW133848   3.877   3.996   1.652  0.4089 -0.7562  4.1416
10895SOL    HW233849   3.942   4.126   1.696 -0.8290  0.8543  1.4200
10896SOL     OW33850   5.996   3.685   0.491 -0.0138 -0.1210  0.2631
10896SOL    HW133851   5.980   3.772   0.526  1.2047  0.0327  0.4757
10896SOL    HW233852   5.913   3.639   0.502 -0.0632  0.3421  2.1008
10897SOL     OW33853   8.196   5.598   6.084 -0.1615 -0.0413 -0.6364
10897SOL    HW133854   8.166   5.621   5.995 -0.6664 -2.1190 -1.0601
10897SOL    HW233855   8.128   5.539   6.117  0.4033  0.1110  0.8521
10898SOL     OW33856   8.768   6.805   7.902 -0.2622  0.5854 -0.0597
10898SOL    HW133857   8.706   6.818   7.973  1.1922  1.5800  1.0832
10898SOL    HW233858   8.723   6.841   7.825 -1.7425 -0.2449  0.3661
10899SOL     OW33859   7.075   7.854   2.738 -0.2582 -0.4197 -0.0033
10899SOL    HW133860   7.128   7.907   2.798 -0.3068  0.7993 -1.0133
10899SOL    HW233861   7.122   7.857   2.655 -1.1397 -0.5572 -0.5236
10900SOL     OW33862   0.251   2.391   4.242  0.2163 -0.2457  0.0216
10900SOL    HW133863   0.205   2.465   4.281  0.3024 -0.1719 -0.0177
10900SOL    HW233864   0.343   2.418   4.238  0.1279 -0.0328 -0.7436
10901SOL     OW33865   7.561   2.623   6.722 -0.1913 -0.1581 -0.7625
10901SOL    HW133866   7.641   2.582   6.688 -0.1160 -0.4131 -0.2840
10901SOL    HW233867   7.491   2.565   6.694 -0.0406 -0.8877  0.3251
10902SOL     OW33868   6.067   1.145   7.451 -0.6846 -0.0282  0.3773
10902SOL    HW133869   6.142   1.163   7.395 -2.1554 -1.5722 -2.3287
10902SOL    HW233870   6.101   1.089   7.521  1.1558  1.7012  0.9561
10903SOL     OW33871   3.898   2.357   8.386  0.6765 -0.4333  0.5175
10903SOL    HW133872   3.933   2.442   8.414  1.1783 -0.2321 -0.6682
10903SOL    HW233873   3.952   2.333   8.310 -1.0484 -0.6329 -0.6942
10904SOL     OW33874   5.245   7.608   3.751  0.3064 -0.2168  0.4606
10904SOL    HW133875   5.208   7.640   3.833  1.9918 -0.0772  1.2172
10904SOL    HW233876   5.194   7.529   3.731 -0.2401 -0.1664  1.5609
10905SOL     OW33877   0.614   0.986   7.299 -0.3046  0.6312 -0.2737
10905SOL    HW133878   0.662   0.963   7.378  1.6811  0.4307 -1.4543
10905SOL    HW233879   0.529   1.018   7.330  0.3438  0.4023  1.8878
10906SOL     OW33880   0.687   3.884   8.769 -0.4824 -0.1700 -0.9588
10906SOL    HW133881   0.758   3.837   8.813 -1.0075  0.1221  0.2521
10906SOL    HW233882   0.630   3.816   8.735  0.2075 -0.4042 -1.6746
10907SOL     OW33883   4.815   0.022   5.336  0.3907 -0.0863 -0.3304
10907SOL    HW133884   4.789  -0.028   5.259 -2.1763  0.0072  0.3959
10907SOL    HW233885   4.888  -0.029   5.373 -1.4697 -2.8618 -0.1561
10908SOL     OW33886   3.071   3.078   3.199  0.0948  0.2811  0.1430
10908SOL    HW133887   3.113   3.000   3.234 -0.3313 -0.0205 -0.0202
10908SOL    HW233888   3.021   3.113   3.273  1.1470  1.0174  0.5378
10909SOL     OW33889   1.041   0.093   2.083  0.0632 -0.7031 -0.0499
10909SOL    HW133890   1.033   0.117   1.991  1.7989 -1.2585 -0.3713
10909SOL    HW233891   1.132   0.066   2.094 -0.0603 -0.5111  1.8711
10910SOL     OW33892   8.387   6.155   5.670 -0.1107 -0.0024 -0.2613
10910SOL    HW133893   8.361   6.095   5.741  0.6300  1.1980  1.0768
10910SOL    HW233894   8.464   6.114   5.631  0.3753  0.0377  0.6294
10911SOL     OW33895   3.113   0.762   3.732 -0.1082 -0.1729  0.3061
10911SOL    HW133896   3.072   0.676   3.722 -3.1806  1.1728  0.1385
10911SOL    HW233897   3.112   0.778   3.827 -0.6625  0.1192  0.2601
10912SOL     OW33898   8.459   7.427   4.870  0.4152 -0.0453 -0.0050
10912SOL    HW133899   8.460   7.351   4.928 -0.5974 -0.2281 -0.1985
10912SOL    HW233900   8.543   7.470   4.884  1.7366 -2.1030 -1.0993
10913SOL     OW33901   3.215   6.739   2.630 -0.1390  0.2064 -0.1388
10913SOL    HW133902   3.262   6.818   2.659  0.3437  0.0174 -0.3958
10913SOL    HW233903   3.125   6.768   2.617  0.1567  0.8501 -0.7836
10914SOL     OW33904   7.042   0.321   7.661 -0.0956 -0.5274 -0.3493
10914SOL    HW133905   7.068   0.381   7.592  0.6200 -2.3059 -1.7073
10914SOL    HW233906   7.113   0.257   7.667  0.9147  0.6973  3.5553
10915SOL     OW33907   0.877   8.822   4.798  0.4757 -0.0181  0.0574
10915SOL    HW133908   0.904   8.913   4.787  0.9791 -0.1214  0.4140
10915SOL    HW233909   0.860   8.791   4.709 -2.4316  1.2303  0.0650
10916SOL     OW33910   6.954   6.169   1.716 -0.1223 -0.0654 -0.9105
10916SOL    HW133911   7.006   6.248   1.734 -0.6454 -0.1996  1.5509
10916SOL    HW233912   6.885   6.199   1.656  0.2283  1.1273 -0.7404
10917SOL     OW33913   2.212   2.650   1.193  0.3000 -0.0726  0.0267
10917SOL    HW133914   2.204   2.697   1.109 -0.7580 -0.0602  0.1164
10917SOL    HW233915   2.187   2.560   1.172 -0.1207 -0.0350  0.3535
10918SOL     OW33916   7.748   1.145   1.424  0.0371  0.5202 -0.4883
10918SOL    HW133917   7.668   1.123   1.376  0.3731  0.7160 -1.1449
10918SOL    HW233918   7.805   1.186   1.359  0.5978  0.5611  0.0199
10919SOL     OW33919   6.258   3.139   4.928 -0.2914 -0.3432  0.2021
10919SOL    HW133920   6.219   3.065   4.881  0.0530 -1.4509  1.5965
10919SOL    HW233921   6.183   3.192   4.955 -0.5402 -0.1360 -0.8562
10920SOL     OW33922   6.539   7.445   8.084  0.1964  0.4510  0.2107
10920SOL    HW133923   6.483   7.372   8.058 -1.5542  1.0396  2.0964
10920SOL    HW233924   6.483   7.500   8.139  2.4456  1.4103  1.6788
10921SOL     OW33925   6.342   3.544   4.385  0.4890 -0.0715 -0.2924
10921SOL    HW133926   6.385   3.604   4.445  0.3810  0.1879 -0.4708
10921SOL    HW233927   6.344   3.589   4.300  1.7856 -0.9809 -0.7739
10922SOL     OW33928   6.768   8.213   5.076  0.4536 -0.4348 -0.3061
10922SOL    HW133929   6.677   8.200   5.101  0.3896  0.6156  0.0354
10922SOL    HW233930   6.812   8.132   5.104  0.1733  0.2087  2.2234
10923SOL     OW33931   2.359   7.680   7.993 -0.5437  0.0679 -0.2515
10923SOL    HW133932   2.419   7.739   8.036 -0.4454 -0.6061  0.5635
10923SOL    HW233933   2.281   7.733   7.976  0.3289  0.9981 -1.5045
10924SOL     OW33934   2.284   5.331   5.819 -0.7292  0.2466 -0.0994
10924SOL    HW133935   2.231   5.401   5.857 -0.7703  0.9094 -1.3103
10924SOL    HW233936   2.358   5.321   5.878 -0.7253  1.3196  0.0809
10925SOL     OW33937   3.263   8.646   5.177  0.4152 -0.1399  0.0485
10925SOL    HW133938   3.305   8.646   5.091  0.1731 -0.5989 -0.0715
10925SOL    HW233939   3.229   8.735   5.187  1.2199  0.1751  0.0563
10926SOL     OW33940   4.910   6.215   4.796 -0.5406  0.1030  0.0769
10926SOL    HW133941   4.829   6.174   4.767 -0.8572 -0.6879  1.8936
10926SOL    HW233942   4.977   6.148   4.781 -0.4979  0.1557  0.0333
10927SOL     OW33943   7.445   8.313   7.247  0.6733  0.1619  0.8448
10927SOL    HW133944   7.500   8.273   7.315  1.8877  1.3634  0.6032
10927SOL    HW233945   7.404   8.388   7.290  1.1486  0.7026  0.3616
10928SOL     OW33946   1.800   7.025   2.701  0.1614 -0.0284 -0.0211
10928SOL    HW133947   1.842   7.056   2.621  0.1633 -1.5121 -0.6202
10928SOL    HW233948   1.812   6.930   2.700 -2.1000 -0.3787  0.4222
10929SOL     OW33949   2.260   4.826   5.773  0.3220  0.3540 -0.0738
10929SOL    HW133950   2.197   4.885   5.814  0.4227  1.7998 -1.8749
10929SOL    HW233951   2.306   4.785   5.846 -1.9319  0.0588  1.2817
10930SOL     OW33952   6.153   5.788   2.391  0.2976 -0.3692 -0.0417
10930SOL    HW133953   6.105   5.756   2.315  0.3635  0.0324 -0.2546
10930SOL    HW233954   6.125   5.731   2.463 -0.4864 -0.1651 -0.1692
10931SOL     OW33955   3.084   8.337   7.396 -0.0969  0.0213  0.3612
10931SOL    HW133956   3.013   8.401   7.395  1.1742  1.5458  1.5707
10931SOL    HW233957   3.164   8.390   7.392  0.9942 -1.6060 -0.3462
10932SOL     OW33958   5.960   1.479   6.185 -0.0600  0.1740  0.3785
10932SOL    HW133959   5.964   1.411   6.252  1.6901 -0.1406  0.0073
10932SOL    HW233960   5.867   1.502   6.179 -0.8741 -2.8603 -0.1860
10933SOL     OW33961   4.630   8.016   3.014  0.0603 -0.2113 -0.5722
10933SOL    HW133962   4.575   8.094   3.004 -1.3168 -1.2512 -1.5998
10933SOL    HW233963   4.662   8.020   3.104  0.4451  1.7885 -0.7680
10934SOL     OW33964   8.296   5.337   4.965 -0.3162 -0.5742  0.0586
10934SOL    HW133965   8.203   5.358   4.970  0.0799  0.9714  2.9643
10934SOL    HW233966   8.338   5.420   4.941  0.3115 -1.4754 -2.1840
10935SOL     OW33967   7.319   2.431   8.006 -0.0132 -0.1134 -0.1945
10935SOL    HW133968   7.320   2.517   8.048  0.0666 -0.2249  0.0345
10935SOL    HW233969   7.397   2.430   7.952  1.2491 -0.8801  1.5287
10936SOL     OW33970   3.901   3.425   6.924 -0.0513  0.3669  0.3045
10936SOL    HW133971   3.954   3.349   6.947 -1.4600 -0.6898  0.1590
10936SOL    HW233972   3.886   3.416   6.829 -0.4285  0.6826  0.3323
10937SOL     OW33973   7.348   1.206   3.961  0.7983 -0.1354 -0.4506
10937SOL    HW133974   7.360   1.295   3.929 -1.1501 -0.2308 -1.5698
10937SOL    HW233975   7.296   1.216   4.041 -1.4486 -0.3086 -1.7913
10938SOL     OW33976   3.868   1.886   0.690  0.1410 -0.2475  0.3175
10938SOL    HW133977   3.801   1.825   0.719 -0.8637  0.0934 -1.1432
10938SOL    HW233978   3.820   1.952   0.640  1.4039  0.8149  0.4533
10939SOL     OW33979   7.498   0.725   4.407 -0.3584  0.1620 -0.2439
10939SOL    HW133980   7.467   0.814   4.391 -1.4155 -0.6010 -3.1370
10939SOL    HW233981   7.438   0.691   4.474 -1.2371  1.0191 -0.5634
10940SOL     OW33982   7.435   8.076   2.343 -0.5353 -0.1578 -0.2950
10940SOL    HW133983   7.516   8.094   2.390  0.1219 -1.6106 -0.7891
10940SOL    HW233984   7.439   8.132   2.265  0.3432 -0.7112 -0.6633
10941SOL     OW33985   3.260   0.358   6.684  0.4064 -0.2811  0.0515
10941SOL    HW133986   3.187   0.419   6.670  0.7739 -0.2269 -1.8083
10941SOL    HW233987   3.246   0.325   6.773 -0.6342  1.3878  0.5527
10942SOL     OW33988   2.033   5.096   3.235 -0.6943 -0.5982 -0.2587
10942SOL    HW133989   2.045   5.145   3.316  0.6724 -0.4543 -0.5266
10942SOL    HW233990   2.050   5.159   3.165  0.1157 -1.1971 -0.6209
10943SOL     OW33991   5.997   3.642   5.841 -0.0711 -0.5409  0.4195
10943SOL    HW133992   6.019   3.637   5.748  0.2389 -1.3146  0.5257
10943SOL    HW233993   6.081   3.654   5.885 -0.2577  0.2602  0.5847
10944SOL     OW33994   7.733   4.077   1.577  0.0244  1.3100 -0.3092
10944SOL    HW133995   7.780   3.996   1.559 -1.0723  0.1584  1.7500
10944SOL    HW233996   7.653   4.070   1.525 -0.0216  1.1359 -0.2144
10945SOL     OW33997   3.178   8.660   4.279 -0.2262  0.3934 -0.2714
10945SOL    HW133998   3.146   8.578   4.316 -0.3184  0.8910  0.7977
10945SOL    HW233999   3.273   8.651   4.278 -0.2713 -0.2530 -1.4696
10946SOL     OW34000   4.836   2.113   0.602 -0.2402  0.4618  0.0073
10946SOL    HW134001   4.899   2.107   0.673 -2.4231  2.9252  2.3842
10946SOL    HW234002   4.865   2.187   0.549  0.6084 -0.5011 -0.9322
10947SOL     OW34003   0.611   0.559   7.659 -0.2296 -0.3001  0.0207
10947SOL    HW134004   0.636   0.557   7.751 -1.0421 -0.0840  0.2595
10947SOL    HW234005   0.627   0.470   7.627 -0.8819 -0.6491  0.6384
10948SOL     OW34006   2.361   8.064   4.377  0.2889  0.2470  0.6756
10948SOL    HW134007   2.327   7.976   4.394 -0.5794 -0.0476 -2.1244
10948SOL    HW234008   2.299   8.122   4.421 -1.8439 -0.4266 -1.2699
10949SOL     OW34009   0.184   2.135   1.976 -0.6933  0.0595 -0.1724
10949SOL    HW134010   0.217   2.166   2.060  0.7584 -0.5440 -0.4982
10949SOL    HW234011   0.261   2.131   1.919 -1.5357 -0.1876 -1.3354
10950SOL     OW34012   1.204   8.582   3.042 -0.3847 -0.3419  0.4151
10950SOL    HW134013   1.129   8.524   3.046 -1.5553  1.0383 -0.4418
10950SOL    HW234014   1.274   8.535   3.088 -1.6896 -1.7549  1.0300
10951SOL     OW34015   6.914   8.135   2.724 -0.5983 -0.1614 -0.2166
10951SOL    HW134016   6.903   8.103   2.634 -0.6739  0.1060 -0.3021
10951SOL    HW234017   6.981   8.202   2.717  0.0554 -0.7746  0.0746
10952SOL     OW34018   6.566   0.972   5.495 -0.0023 -0.4824 -0.2613
10952SOL    HW134019   6.593   1.062   5.509  0.8695 -0.9230  1.0970
10952SOL    HW234020   6.566   0.961   5.400  0.1677  0.8443 -0.4305
10953SOL     OW34021   6.456   2.546   8.390  0.3643  0.1339  0.4316
10953SOL    HW134022   6.426   2.476   8.332  0.0625  0.0777  0.6532
10953SOL    HW234023   6.461   2.506   8.476 -1.9411  0.9219  0.9946
10954SOL     OW34024   0.652   3.212   2.008  0.0881 -0.0137 -0.2870
10954SOL    HW134025   0.585   3.278   1.990 -0.7065 -0.6626  0.2645
10954SOL    HW234026   0.615   3.130   1.977  0.6779 -0.3559 -0.1048
10955SOL     OW34027   8.599   3.008   1.999 -0.0923  0.4525  0.0282
10955SOL    HW134028   8.590   3.056   2.082  1.3055  1.5610 -0.4271
10955SOL    HW234029   8.692   2.990   1.992 -0.3413 -0.5981 -0.8041
10956SOL     OW34030   4.157   8.061   0.568  0.1023  0.1687 -0.1071
10956SOL    HW134031   4.132   8.148   0.598  1.0670  0.2428  0.5423
10956SOL    HW234032   4.116   8.051   0.483  2.3965  2.4748 -1.6200
10957SOL     OW34033   2.916   4.780   3.433 -0.0638 -0.0372 -0.2038
10957SOL    HW134034   2.942   4.866   3.399 -0.7205  0.4827  0.5612
10957SOL    HW234035   2.998   4.733   3.446  0.2420  0.0420 -1.7166
10958SOL     OW34036   3.369   2.597   7.881 -0.0363  0.0743  0.1408
10958SOL    HW134037   3.437   2.598   7.814 -0.1628 -0.9875 -0.0308
10958SOL    HW234038   3.337   2.687   7.885  0.7535  0.3908 -0.4146
10959SOL     OW34039   7.017   7.501   4.833 -0.0516  0.0503  0.0413
10959SOL    HW134040   7.081   7.439   4.797 -0.0515 -1.1231  1.9185
10959SOL    HW234041   6.980   7.455   4.908 -0.9930  1.8644  0.7320
10960SOL     OW34042   8.388   1.890   3.628  0.4375  0.2626  0.3604
10960SOL    HW134043   8.292   1.884   3.628  0.4394  0.1719 -0.3261
10960SOL    HW234044   8.418   1.805   3.659  0.3101 -0.0939 -0.4702
10961SOL     OW34045   2.478   1.481   7.276  0.1654  0.3434 -0.0421
10961SOL    HW134046   2.477   1.530   7.359 -0.3535 -0.7684  0.6258
10961SOL    HW234047   2.411   1.413   7.287  1.5401 -1.1536 -0.5750
10962SOL     OW34048   8.472   8.794   2.038  0.4790 -0.4033  0.0746
10962SOL    HW134049   8.561   8.801   2.005  1.1649  1.0743  2.0512
10962SOL    HW234050   8.466   8.705   2.074  1.7007 -0.0256  1.2978
10963SOL     OW34051   3.906   2.442   5.682 -0.2062  0.1640  0.1547
10963SOL    HW134052   3.932   2.398   5.763  0.8626  0.1363 -0.1997
10963SOL    HW234053   3.921   2.377   5.614 -1.2533  0.1318 -0.0736
10964SOL     OW34054   8.341   8.207   4.100  0.4700  0.9876  0.3641
10964SOL    HW134055   8.382   8.121   4.095  1.7458  1.5808  0.0092
10964SOL    HW234056   8.264   8.195   4.155  0.5921 -0.3868  0.2571
10965SOL     OW34057   6.865   3.154   6.012 -0.2039  0.1442  0.6413
10965SOL    HW134058   6.821   3.091   5.954  2.2572 -1.1424  0.0308
10965SOL    HW234059   6.796   3.213   6.040 -2.8061 -3.0798  1.6350
10966SOL     OW34060   5.870   2.223   3.947  0.0982  0.2137  0.8459
10966SOL    HW134061   5.808   2.151   3.943 -0.1395  0.4719 -0.8646
10966SOL    HW234062   5.817   2.301   3.930  0.8755  0.4227 -0.8093
10967SOL     OW34063   4.924   0.181   4.911  0.5321  0.5227  0.4297
10967SOL    HW134064   4.951   0.210   4.824 -0.6101 -1.3567 -0.6272
10967SOL    HW234065   4.828   0.178   4.907  0.3617 -5.1627 -0.4574
10968SOL     OW34066   7.158   5.195   3.781 -0.0078 -0.0003  0.8922
10968SOL    HW134067   7.217   5.130   3.821  0.4207  0.6989  1.4202
10968SOL    HW234068   7.075   5.183   3.828  0.3766  0.5444  1.7452
10969SOL     OW34069   0.727   6.881   3.022 -0.0653 -0.1306 -0.3057
10969SOL    HW134070   0.762   6.792   3.028 -0.9502 -0.4443  0.3387
10969SOL    HW234071   0.780   6.923   2.954  0.4579 -1.0999 -0.5106
10970SOL     OW34072   8.505   4.269   1.885 -0.5495  0.1955  0.0347
10970SOL    HW134073   8.561   4.211   1.936  0.7996  2.0193  0.7481
10970SOL    HW234074   8.432   4.214   1.857  1.0946 -2.0433 -0.1013
10971SOL     OW34075   3.159   8.505   0.351  0.6462 -0.4450 -0.1172
10971SOL    HW134076   3.109   8.463   0.421  0.7021 -1.2919 -0.5702
10971SOL    HW234077   3.136   8.456   0.272 -0.4104  1.2795 -0.9505
10972SOL     OW34078   6.466   2.295   6.362  0.7611 -0.0509 -0.9673
10972SOL    HW134079   6.461   2.309   6.456 -1.3275  0.2953 -1.0763
10972SOL    HW234080   6.552   2.255   6.348  0.9975 -0.3819  1.1102
10973SOL     OW34081   4.057   7.411   7.500 -0.2304  0.0003  0.4448
10973SOL    HW134082   4.042   7.334   7.445  1.0255  0.3896 -0.5147
10973SOL    HW234083   4.000   7.478   7.463 -0.8132 -0.2736  0.8428
10974SOL     OW34084   2.853   6.517   2.798  0.1408 -0.2749  0.8182
10974SOL    HW134085   2.840   6.480   2.710 -0.1067  0.3253  0.5936
10974SOL    HW234086   2.776   6.571   2.812 -0.0752 -0.7911  1.6338
10975SOL     OW34087   8.066   1.603   6.263  0.2506 -0.2706  0.1121
10975SOL    HW134088   8.024   1.601   6.349  0.2903 -1.1976  0.1286
10975SOL    HW234089   8.124   1.526   6.263  2.9895  1.6511  0.5840
10976SOL     OW34090   1.171   3.501   6.716 -0.0318 -0.0505 -0.0300
10976SOL    HW134091   1.114   3.531   6.787  0.9729 -0.6015  1.0310
10976SOL    HW234092   1.193   3.581   6.668 -0.1125  0.4379  0.7297
10977SOL     OW34093   4.908   7.343   2.009  0.7342 -0.0004 -0.0298
10977SOL    HW134094   4.853   7.392   1.947  1.4831 -0.2858 -0.9281
10977SOL    HW234095   4.967   7.292   1.954 -0.0775 -1.9978  0.8789
10978SOL     OW34096   6.164   1.566   4.023 -0.2278 -0.4853  0.3540
10978SOL    HW134097   6.082   1.540   4.065  0.8100 -1.0225  2.1642
10978SOL    HW234098   6.182   1.653   4.058  0.0191 -0.4119  0.0444
10979SOL     OW34099   1.582   5.327   0.621  0.1628  0.0811 -0.2075
10979SOL    HW134100   1.503   5.312   0.569 -0.9266  3.0718  0.3667
10979SOL    HW234101   1.600   5.421   0.611  2.7434 -0.1992  0.9692
10980SOL     OW34102   1.003   8.077   3.619 -0.0371 -0.8376 -0.1669
10980SOL    HW134103   0.927   8.073   3.678 -1.3285  1.1537 -1.5580
10980SOL    HW234104   1.065   8.134   3.664  0.6247 -2.3773  0.9271
10981SOL     OW34105   1.475   3.446   3.602  0.1933 -0.0018 -0.1259
10981SOL    HW134106   1.451   3.356   3.578  3.2709 -1.0270  0.1734
10981SOL    HW234107   1.435   3.500   3.534 -1.8809 -1.5491 -0.2213
10982SOL     OW34108   4.944   0.272   5.456  0.0951  0.2357  0.3508
10982SOL    HW134109   4.902   0.219   5.388  0.9662  0.7590 -0.6409
10982SOL    HW234110   4.901   0.246   5.537 -0.9286 -0.4714 -0.3872
10983SOL     OW34111   8.051   6.512   1.218  0.2376 -0.1195  0.1723
10983SOL    HW134112   8.133   6.558   1.200 -0.0847 -0.3059 -1.9891
10983SOL    HW234113   8.074   6.420   1.216  0.0479 -0.1622 -0.0485
10984SOL     OW34114   2.679   8.201   3.602 -0.0336  0.1723 -0.2090
10984SOL    HW134115   2.703   8.129   3.545 -4.1312 -0.5166 -1.4068
10984SOL    HW234116   2.742   8.271   3.582  2.3005 -2.0441 -1.0449
10985SOL     OW34117   2.838   1.666   3.018  0.5132  0.0853  0.1827
10985SOL    HW134118   2.909   1.715   3.060 -0.0877  1.2355 -0.0995
10985SOL    HW234119   2.817   1.717   2.939 -0.7772 -0.0944  0.3899
10986SOL     OW34120   5.076   6.762   7.363  0.8227  0.0384 -0.1639
10986SOL    HW134121   5.109   6.688   7.312  0.5860 -1.0029  1.1412
10986SOL    HW234122   5.144   6.829   7.357  1.0123 -0.2539 -1.4051
10987SOL     OW34123   4.939   6.168   8.439 -0.5819 -0.3240  0.1895
10987SOL    HW134124   4.972   6.079   8.451 -1.2636 -0.7585 -1.0173
10987SOL    HW234125   5.016   6.219   8.416 -0.3811 -0.8794 -0.4124
10988SOL     OW34126   0.853   1.106   1.459 -0.3908 -0.3790 -0.3756
10988SOL    HW134127   0.804   1.088   1.379  0.0795 -0.8002 -0.5764
10988SOL    HW234128   0.795   1.162   1.510 -1.5783 -1.7982 -0.0852
10989SOL     OW34129   3.860   4.414   2.459  0.1577 -0.0501  0.7907
10989SOL    HW134130   3.799   4.481   2.428  1.7602  1.6666  1.1562
10989SOL    HW234131   3.874   4.356   2.383 -0.0162  0.9949 -0.0586
10990SOL     OW34132   6.764   0.927   0.191  0.2186 -0.6080  0.7285
10990SOL    HW134133   6.704   1.002   0.194 -0.6944 -1.2678 -0.2445
10990SOL    HW234134   6.836   0.955   0.134  0.8257  0.1617  1.8384
10991SOL     OW34135   8.081   7.918   8.262 -0.2308 -0.1828  0.5153
10991SOL    HW134136   8.112   8.004   8.232 -0.0618 -0.6535 -0.6986
10991SOL    HW234137   8.132   7.902   8.342  0.3295  0.4872  0.3120
10992SOL     OW34138   2.913   0.003   1.429 -0.2164  0.1138 -0.0562
10992SOL    HW134139   2.954  -0.084   1.423  0.6030  0.2191  2.5871
10992SOL    HW234140   2.821  -0.015   1.448 -0.2684 -0.1733 -0.5834
10993SOL     OW34141   2.932   7.987   6.456  0.3490 -0.2474 -0.0700
10993SOL    HW134142   2.965   8.064   6.409  0.9628 -0.3372  0.1968
10993SOL    HW234143   2.955   7.913   6.399 -0.5743 -0.2119 -0.5048
10994SOL     OW34144   1.109   6.235   4.998  0.2253  1.0594  0.0981
10994SOL    HW134145   1.032   6.186   4.969  0.7767  0.7290 -0.8389
10994SOL    HW234146   1.167   6.235   4.922  1.6438  0.3034  1.1498
10995SOL     OW34147   5.328   0.651   8.514  0.1208 -0.0256  0.2027
10995SOL    HW134148   5.421   0.641   8.494  0.0372  2.0174 -1.7181
10995SOL    HW234149   5.326   0.693   8.600  0.9276 -0.6593  0.5462
10996SOL     OW34150   3.739   4.843   8.249  0.4343  0.2611  0.3266
10996SOL    HW134151   3.644   4.833   8.256  0.3080  1.5664  0.6305
10996SOL    HW234152   3.774   4.776   8.308 -0.2781 -0.2291  0.2154
10997SOL     OW34153   5.297   6.197   2.710 -0.3205 -0.0273 -0.2359
10997SOL    HW134154   5.379   6.233   2.676 -0.4472  0.8826  0.3679
10997SOL    HW234155   5.236   6.201   2.636 -0.2424  0.7478 -0.2731
10998SOL     OW34156   0.296   3.619   8.777  1.0053 -0.0011 -0.3255
10998SOL    HW134157   0.264   3.663   8.698 -0.5664  1.1291  0.8740
10998SOL    HW234158   0.217   3.601   8.829  1.8601 -1.9519  0.4136
10999SOL     OW34159   3.330   4.630   1.630 -0.2103 -0.0213  0.0780
10999SOL    HW134160   3.257   4.570   1.649 -0.7134  0.4331 -0.3553
10999SOL    HW234161   3.405   4.573   1.614  0.0241 -0.4544  2.4229
11000SOL     OW34162   8.242   8.682   3.556  0.3504  0.1958 -0.4306
11000SOL    HW134163   8.213   8.738   3.628 -0.5274  0.5516 -1.0461
11000SOL    HW234164   8.299   8.618   3.598  0.7371  1.0523  0.4172
11001SOL     OW34165   4.210   2.589   8.690  0.6041 -0.0774  0.5997
11001SOL    HW134166   4.169   2.507   8.719 -1.7515  0.2133 -1.5146
11001SOL    HW234167   4.195   2.651   8.761 -0.9129 -0.5226  0.6867
11002SOL     OW34168   1.758   5.733   5.667  0.2150 -0.3904  0.2892
11002SOL    HW134169   1.838   5.695   5.703  0.4790 -0.2316 -0.1237
11002SOL    HW234170   1.758   5.823   5.700 -2.0079 -1.5104  3.9152
11003SOL     OW34171   3.488   1.946   5.854  0.0845 -0.6741 -0.5995
11003SOL    HW134172   3.574   1.909   5.834  0.8855  0.7535  0.0749
11003SOL    HW234173   3.427   1.887   5.810  1.2114 -3.1345  0.8541
11004SOL     OW34174   1.067   6.449   1.247  0.2491  0.1488 -0.3161
11004SOL    HW134175   1.144   6.503   1.261  0.3352 -0.3207  1.1964
11004SOL    HW234176   1.035   6.474   1.160  0.4834  2.3581  0.1733
11005SOL     OW34177   4.488   4.477   5.378  0.6151 -0.1321  0.1197
11005SOL    HW134178   4.481   4.572   5.377 -2.0629 -0.1593 -3.2642
11005SOL    HW234179   4.562   4.458   5.320  1.6162 -0.1883  1.3659
11006SOL     OW34180   4.800   5.287   6.506  0.0875 -0.3338  0.2990
11006SOL    HW134181   4.710   5.319   6.504 -0.3443 -1.4279  1.1637
11006SOL    HW234182   4.838   5.316   6.423 -0.5429  1.5709  0.6358
11007SOL     OW34183   2.520   7.800   3.165  0.0083  0.4071 -0.1852
11007SOL    HW134184   2.431   7.792   3.129 -0.0066 -0.1966 -0.0372
11007SOL    HW234185   2.532   7.719   3.216  1.0311 -0.0155 -1.0604
11008SOL     OW34186   1.013   7.146   5.658  0.5004 -0.7488  0.2920
11008SOL    HW134187   1.068   7.141   5.579  0.0888 -2.3508  0.0745
11008SOL    HW234188   0.948   7.077   5.645 -0.8602  0.3649  1.0806
11009SOL     OW34189   8.539   8.167   4.443 -0.1281 -0.2381  0.4082
11009SOL    HW134190   8.605   8.190   4.377 -0.8437 -0.8772 -0.5628
11009SOL    HW234191   8.490   8.248   4.457 -0.6156 -0.3388 -0.6196
11010SOL     OW34192   2.342   0.860   3.077  0.3183 -0.1725 -0.2636
11010SOL    HW134193   2.312   0.944   3.041 -1.0388 -0.4968  0.0845
11010SOL    HW234194   2.360   0.807   2.999  1.9960  0.6770 -0.5116
11011SOL     OW34195   8.175   2.671   8.387 -0.4178 -0.0071  0.7383
11011SOL    HW134196   8.243   2.710   8.333 -1.1357  1.7986  1.0891
11011SOL    HW234197   8.183   2.713   8.472 -1.5446 -0.2460  0.9879
11012SOL     OW34198   2.188   1.193   0.830 -0.0907 -0.0860  0.3518
11012SOL    HW134199   2.229   1.276   0.854  1.8448 -0.7083 -0.6303
11012SOL    HW234200   2.249   1.153   0.768 -1.6011 -1.6656 -0.1863
11013SOL     OW34201   5.128   7.521   8.861 -0.1144  0.5865  0.4161
11013SOL    HW134202   5.054   7.461   8.850  0.3475 -0.2390  1.5996
11013SOL    HW234203   5.160   7.536   8.773  0.6128 -2.0556  0.1322
11014SOL     OW34204   1.731   5.124   6.798  0.6390 -0.0790  0.2058
11014SOL    HW134205   1.733   5.077   6.715  2.0932  0.6187 -0.1951
11014SOL    HW234206   1.649   5.174   6.796 -0.6524 -2.0888  0.4004
11015SOL     OW34207   0.315   0.772   1.062  0.0201  0.1851  0.0159
11015SOL    HW134208   0.246   0.738   1.005  2.1665 -1.8109 -1.5862
11015SOL    HW234209   0.396   0.755   1.014  1.6832  2.2948  1.8649
11016SOL     OW34210   0.021   1.110   7.950  0.0574  0.8319  0.1449
11016SOL    HW134211   0.061   1.190   7.915 -0.5513  1.0761 -0.0092
11016SOL    HW234212  -0.034   1.141   8.022  1.6230  0.2984  1.6546
11017SOL     OW34213   7.161   4.893   5.147 -0.3492 -0.4147  0.4417
11017SOL    HW134214   7.093   4.954   5.118  0.4563  0.0369 -0.6011
11017SOL    HW234215   7.229   4.949   5.185  1.0888 -0.4422 -1.9017
11018SOL     OW34216   3.104   6.660   3.856  0.2454 -0.3571  0.3932
11018SOL    HW134217   3.043   6.588   3.869 -0.4345  0.4472  1.9971
11018SOL    HW234218   3.188   6.627   3.887 -0.0850 -0.4607  1.2164
11019SOL     OW34219   7.590   4.302   3.483 -0.0507 -0.3337  0.3632
11019SOL    HW134220   7.655   4.331   3.547  0.9698 -0.0016 -0.7835
11019SOL    HW234221   7.572   4.211   3.506 -0.1629 -0.0398  1.4801
11020SOL     OW34222   7.524   6.095   4.766  0.3150 -0.5649 -0.4483
11020SOL    HW134223   7.518   6.173   4.822 -1.9414 -0.4497 -0.7865
11020SOL    HW234224   7.584   6.037   4.813 -0.6873 -0.0368  1.6024
11021SOL     OW34225   2.129   4.869   4.767 -1.0945  0.1945 -0.0890
11021SOL    HW134226   2.073   4.878   4.844  0.6610 -0.0232  1.2878
11021SOL    HW234227   2.194   4.804   4.792 -0.2109  0.4320 -1.6083
11022SOL     OW34228   8.295   8.454   1.437 -0.2605  0.3489  0.1474
11022SOL    HW134229   8.210   8.418   1.462 -0.0818 -0.0220  0.2263
11022SOL    HW234230   8.353   8.432   1.510  0.4787 -1.5391 -0.9189
11023SOL     OW34231   4.101   3.274   5.285  0.3814  0.3588  0.0979
11023SOL    HW134232   4.023   3.329   5.288  0.7677  0.8986  0.4078
11023SOL    HW234233   4.152   3.309   5.212  0.7116  0.5319  0.4082
11024SOL     OW34234   3.648   0.915   5.175 -0.0197  0.3937 -0.0391
11024SOL    HW134235   3.610   0.827   5.164  0.8574 -0.3005  1.9386
11024SOL    HW234236   3.703   0.927   5.098 -0.8573 -0.4206 -0.7866
11025SOL     OW34237   5.518   2.160   2.249 -0.0942  1.0831 -0.3483
11025SOL    HW134238   5.587   2.129   2.191 -0.7954  0.7532 -1.0153
11025SOL    HW234239   5.564   2.208   2.317  0.9640 -0.6464  0.2259
11026SOL     OW34240   1.498   7.813   5.175 -0.3721  0.2834 -0.3899
11026SOL    HW134241   1.523   7.888   5.120 -0.9738  0.1773 -0.8185
11026SOL    HW234242   1.402   7.814   5.175 -0.3808 -0.1131  0.1212
11027SOL     OW34243   1.050   7.046   7.255  0.4986  0.1675 -0.0264
11027SOL    HW134244   1.043   6.951   7.256 -0.9607  0.2397  0.6795
11027SOL    HW234245   1.089   7.068   7.340 -0.0954  0.2356  0.2329
11028SOL     OW34246   4.664   6.221   2.712  0.2680 -0.3567 -0.0170
11028SOL    HW134247   4.749   6.179   2.719  1.0728  1.2462  0.2164
11028SOL    HW234248   4.669   6.295   2.772 -1.0595  0.1395 -0.4882
11029SOL     OW34249   2.069   4.262   7.689  0.5868  0.3947 -0.4569
11029SOL    HW134250   2.080   4.339   7.744 -0.9518  0.0366  0.4354
11029SOL    HW234251   2.054   4.190   7.750 -1.2824  0.0010 -1.2748
11030SOL     OW34252   0.505   4.519   7.333  0.1661 -0.1542 -0.3309
11030SOL    HW134253   0.503   4.451   7.399 -0.3192  0.7353  0.5947
11030SOL    HW234254   0.598   4.543   7.327  0.2167 -0.2577  0.0080
11031SOL     OW34255   6.028   1.225   5.268  0.0668  0.3145  0.0534
11031SOL    HW134256   6.059   1.311   5.239  2.1909 -1.2585 -2.9482
11031SOL    HW234257   5.950   1.209   5.214  0.8538 -0.4069 -0.9059
11032SOL     OW34258   5.500   2.069   7.040  0.3176  0.2519 -0.2402
11032SOL    HW134259   5.526   1.977   7.048  0.0506  0.2255  0.3670
11032SOL    HW234260   5.545   2.113   7.113 -1.8096  0.0885  1.2518
11033SOL     OW34261   0.712   4.446   3.184 -0.2344 -0.5666 -0.0088
11033SOL    HW134262   0.651   4.436   3.112  0.0702  1.4144 -0.6131
11033SOL    HW234263   0.708   4.363   3.232 -1.5852 -1.3404 -1.4007
11034SOL     OW34264   4.458   8.619   5.985 -0.3163  0.1751  0.6015
11034SOL    HW134265   4.541   8.625   5.938  0.2333  1.2809  1.6665
11034SOL    HW234266   4.393   8.658   5.926  0.4854  2.2383  1.0100
11035SOL     OW34267   2.356   7.094   3.165  0.4602 -0.2818 -0.5546
11035SOL    HW134268   2.414   7.050   3.226  0.6724  0.7589  0.0218
11035SOL    HW234269   2.289   7.135   3.220  0.5324  0.4944 -1.0241
11036SOL     OW34270   1.544   6.673   4.367  0.6290 -0.3822 -0.0049
11036SOL    HW134271   1.502   6.758   4.360 -0.2443 -0.9174 -1.5238
11036SOL    HW234272   1.503   6.632   4.443  1.0008  0.4905  0.6874
11037SOL     OW34273   5.783   3.110   2.242 -0.2922  0.3497  0.3043
11037SOL    HW134274   5.875   3.095   2.266 -0.5627  0.9330  1.8222
11037SOL    HW234275   5.787   3.147   2.154  1.2676  3.7928  1.6125
11038SOL     OW34276   5.157   1.257   3.996 -0.7909  0.3480  0.2570
11038SOL    HW134277   5.092   1.304   4.049 -0.9893 -0.3689  0.6667
11038SOL    HW234278   5.228   1.320   3.985 -0.9155  0.6483  1.0560
11039SOL     OW34279   3.975   2.304   5.922 -0.4914 -0.0934 -0.0064
11039SOL    HW134280   3.942   2.328   6.008 -1.1229 -0.0649 -0.2469
11039SOL    HW234281   4.010   2.216   5.933  1.6873  0.8182  0.8463
11040SOL     OW34282   7.768   2.963   0.723 -0.1959 -0.1908  0.0353
11040SOL    HW134283   7.769   3.050   0.685 -1.1305  0.0343  0.5140
11040SOL    HW234284   7.768   2.977   0.818  1.9539 -0.7424  0.1704
11041SOL     OW34285   0.695   3.698   1.543 -0.0501 -0.0778  0.4288
11041SOL    HW134286   0.785   3.716   1.568  0.5442 -1.3926 -0.6201
11041SOL    HW234287   0.688   3.732   1.454 -0.9841  1.1117  0.9233
11042SOL     OW34288   5.866   0.607   1.486 -0.2779  0.5001  0.5195
11042SOL    HW134289   5.839   0.587   1.576  1.7221 -1.0980  0.8303
11042SOL    HW234290   5.847   0.526   1.437  1.6129  0.1651  0.2557
11043SOL     OW34291   3.769   7.139   7.929  0.0989  0.0774  0.5132
11043SOL    HW134292   3.718   7.059   7.917  0.0815  0.2826 -0.8548
11043SOL    HW234293   3.795   7.136   8.021 -1.3140 -0.6566  0.9249
11044SOL     OW34294   8.303   0.032   2.386 -0.4432 -0.2657  0.0870
11044SOL    HW134295   8.384  -0.014   2.408 -0.6894 -0.9581 -0.4116
11044SOL    HW234296   8.233  -0.027   2.413 -0.7603 -0.5326 -1.2338
11045SOL     OW34297   6.642   0.926   5.756  0.4793 -0.1097 -0.0840
11045SOL    HW134298   6.607   0.931   5.667 -1.1441 -1.0690  0.4642
11045SOL    HW234299   6.604   1.001   5.802 -1.2033 -1.3067  0.5862
11046SOL     OW34300   4.030   1.898   6.436  0.0861  0.2963  0.0446
11046SOL    HW134301   4.081   1.889   6.356  0.9125  0.2310  0.5756
11046SOL    HW234302   4.090   1.936   6.500 -0.5022  0.1590  0.6968
11047SOL     OW34303   8.111   1.973   2.871 -0.1598  0.2549  0.1941
11047SOL    HW134304   8.043   2.040   2.871 -1.6379 -1.1781 -0.3647
11047SOL    HW234305   8.135   1.963   2.779 -0.7306 -0.7244  0.1446
11048SOL     OW34306   0.386   4.661   6.304 -0.4579 -0.0798  0.4248
11048SOL    HW134307   0.425   4.643   6.390 -0.0007  0.4277  0.3288
11048SOL    HW234308   0.306   4.709   6.323 -0.5010 -0.2137  0.5814
11049SOL     OW34309   4.674   2.149   2.275  0.0551 -0.6807 -0.2623
11049SOL    HW134310   4.707   2.092   2.344  0.6422 -1.4293 -1.1360
11049SOL    HW234311   4.580   2.155   2.291  0.2560 -0.4062  0.9027
11050SOL     OW34312   6.598   1.986   0.213 -0.4273 -0.1098 -0.1298
11050SOL    HW134313   6.674   2.033   0.179 -0.9046 -0.5254 -1.8961
11050SOL    HW234314   6.541   2.054   0.247  0.8165  0.1875  1.5199
11051SOL     OW34315   8.569   5.812   2.220 -0.6066 -0.1742  0.6136
11051SOL    HW134316   8.501   5.756   2.184 -0.8479  1.2995 -1.3766
11051SOL    HW234317   8.522   5.882   2.265 -0.3685 -0.0881  0.7317
11052SOL     OW34318   2.880   4.023   0.979 -0.0717 -0.3489  0.4659
11052SOL    HW134319   2.924   3.974   0.909 -2.1833 -2.2055  0.3006
11052SOL    HW234320   2.904   4.114   0.963  0.3998 -0.8248 -2.0322
11053SOL     OW34321   0.967   6.743   1.752 -0.1098 -0.6973 -0.5784
11053SOL    HW134322   1.024   6.819   1.743 -0.2580 -0.6826 -1.3958
11053SOL    HW234323   1.023   6.668   1.728  0.3662 -0.9923  1.2748
11054SOL     OW34324   6.955   8.275   2.216 -0.1959  0.6648  0.2731
11054SOL    HW134325   6.926   8.264   2.125  0.8173 -0.2970  0.0400
11054SOL    HW234326   7.047   8.248   2.215 -0.3754 -0.0955  1.7340
11055SOL     OW34327   2.013   7.572   7.998 -0.1683  0.1914 -0.2563
11055SOL    HW134328   1.977   7.507   7.938 -0.0854 -1.0727  0.9914
11055SOL    HW234329   1.948   7.641   8.001  0.3211  0.8502 -2.6109
11056SOL     OW34330   0.631   1.238   4.157  0.1074  0.3924 -0.6084
11056SOL    HW134331   0.661   1.193   4.078 -3.2593  0.6112 -2.1564
11056SOL    HW234332   0.584   1.172   4.207  2.8699  0.0364  1.8117
11057SOL     OW34333   2.534   3.262   7.594  0.7886 -0.1538  0.2826
11057SOL    HW134334   2.493   3.195   7.648  0.3608 -0.2489 -0.1500
11057SOL    HW234335   2.553   3.218   7.511  0.5663  0.2360  0.0204
11058SOL     OW34336   3.659   7.138   8.849 -0.3071  0.3276 -0.0593
11058SOL    HW134337   3.654   7.044   8.831  2.1605  0.4323 -1.8664
11058SOL    HW234338   3.590   7.177   8.796  0.6144 -0.2645 -1.7660
11059SOL     OW34339   0.928   6.257   8.550 -0.6194  0.4000 -0.2234
11059SOL    HW134340   0.935   6.333   8.493  0.3285  1.1248  0.8147
11059SOL    HW234341   1.018   6.240   8.578 -0.9072 -0.7181  0.0695
11060SOL     OW34342   4.029   2.851   2.920 -0.0809  0.6724 -0.0461
11060SOL    HW134343   4.108   2.904   2.917  0.8695 -0.6850  0.0925
11060SOL    HW234344   3.977   2.880   2.846  0.4375  1.7381 -0.0092
11061SOL     OW34345   8.416   6.440   3.586 -0.8137  0.0080  0.1227
11061SOL    HW134346   8.498   6.483   3.610 -0.1179 -1.5821  0.7558
11061SOL    HW234347   8.379   6.495   3.517  1.0131  0.5082 -0.5154
11062SOL     OW34348   4.067   2.177   0.058  0.4622  0.1832  0.1896
11062SOL    HW134349   4.063   2.216   0.146 -1.0635  1.5659 -0.4343
11062SOL    HW234350   4.054   2.250  -0.002  1.6515 -0.7043 -1.2325
11063SOL     OW34351   4.710   2.053   5.255 -0.6406  0.1226  0.2174
11063SOL    HW134352   4.664   2.136   5.242 -1.3970 -0.3703 -0.3542
11063SOL    HW234353   4.660   2.009   5.324  0.3548  0.5535  1.2415
11064SOL     OW34354   3.871   0.185   0.150 -0.2949 -0.0244  0.0896
11064SOL    HW134355   3.782   0.219   0.157  0.1158  0.9273  1.0550
11064SOL    HW234356   3.919   0.231   0.219  0.8429 -0.8463 -0.1326
11065SOL     OW34357   7.865   3.231   7.178 -0.4542 -0.3003  0.0743
11065SOL    HW134358   7.943   3.235   7.122 -0.3501 -0.0462  0.2345
11065SOL    HW234359   7.830   3.319   7.176 -0.4445 -0.2877  0.4166
11066SOL     OW34360   1.197   4.098   6.093  0.0006 -0.4074 -0.1341
11066SOL    HW134361   1.162   4.186   6.109  0.5414 -0.2609  0.2742
11066SOL    HW234362   1.240   4.104   6.008 -1.5513 -0.7785 -0.9860
11067SOL     OW34363   2.528   0.858   5.395 -0.3904 -0.1499  0.3270
11067SOL    HW134364   2.479   0.934   5.426 -0.5079 -0.6345  1.3793
11067SOL    HW234365   2.601   0.896   5.346  1.3052  0.8259  3.3446
11068SOL     OW34366   4.526   4.086   2.516  0.5124 -0.1061  0.0623
11068SOL    HW134367   4.515   4.025   2.443  1.8805  0.3922 -0.5851
11068SOL    HW234368   4.547   4.031   2.591  0.4583 -0.5188 -0.2263
11069SOL     OW34369   4.370   4.696   7.045 -0.4570  0.2411  0.0021
11069SOL    HW134370   4.306   4.754   7.086  0.0898  2.1518 -1.6603
11069SOL    HW234371   4.335   4.679   6.958  0.6336  0.2560 -0.4656
11070SOL     OW34372   6.479   3.075   0.367  0.1874  0.1511  0.2342
11070SOL    HW134373   6.467   3.018   0.291 -1.0289  0.2969  0.2998
11070SOL    HW234374   6.563   3.048   0.405  0.2411 -0.7067 -0.4760
11071SOL     OW34375   1.037   4.967   7.140  0.0865  0.3423 -0.3565
11071SOL    HW134376   1.007   5.008   7.059 -1.9835  0.8727  0.6066
11071SOL    HW234377   0.992   5.015   7.210 -0.9180 -2.2642  0.9180
11072SOL     OW34378   2.245   6.920   5.698 -0.0352  0.8641 -0.3022
11072SOL    HW134379   2.197   6.919   5.781  1.5328  2.8245  0.6753
11072SOL    HW234380   2.303   6.844   5.703 -0.9818  0.1220 -0.2776
11073SOL     OW34381   5.727   8.428   5.686 -0.0803  0.0369 -0.5722
11073SOL    HW134382   5.705   8.490   5.755 -0.0996  1.1715 -1.5595
11073SOL    HW234383   5.645   8.415   5.638 -0.1581 -1.0400 -0.1521
11074SOL     OW34384   7.570   7.394   1.667  0.3570  0.3046 -1.0219
11074SOL    HW134385   7.581   7.369   1.759 -0.1442  2.8650 -0.1752
11074SOL    HW234386   7.476   7.386   1.652 -0.2147  3.5923  0.0065
11075SOL     OW34387   1.295   8.315   2.791 -0.1357 -0.2147  0.1586
11075SOL    HW134388   1.356   8.388   2.803 -0.7316  0.3778 -0.3089
11075SOL    HW234389   1.317   8.254   2.861  0.4780  0.3470  0.4719
11076SOL     OW34390   0.205   2.032   0.895 -0.4790 -0.7861  0.2835
11076SOL    HW134391   0.196   2.021   0.800 -1.3804  0.4501  0.2109
11076SOL    HW234392   0.138   2.096   0.919  1.0579  0.4830  1.4357
11077SOL     OW34393   1.096   5.991   2.891 -0.0733 -0.2516 -0.0551
11077SOL    HW134394   1.099   6.083   2.916 -0.1963 -0.1332 -0.4683
11077SOL    HW234395   1.152   5.947   2.955 -0.6819 -0.0129  0.6526
11078SOL     OW34396   6.018   8.638   4.455 -0.4271  0.0988  0.8378
11078SOL    HW134397   6.075   8.714   4.466  0.4744 -0.4751  0.3394
11078SOL    HW234398   6.057   8.590   4.381 -1.5610 -0.3218  0.4941
11079SOL     OW34399   3.750   8.673   0.436 -0.8010  0.3412 -0.0564
11079SOL    HW134400   3.736   8.740   0.504 -0.0885  0.2051  0.2325
11079SOL    HW234401   3.773   8.723   0.358 -0.0996  0.4386  0.2014
11080SOL     OW34402   3.521   4.284   7.342  0.3498 -0.4143 -0.1860
11080SOL    HW134403   3.540   4.304   7.433  2.0660 -3.3094  0.2219
11080SOL    HW234404   3.474   4.360   7.309 -0.3071  0.7200  3.0932
11081SOL     OW34405   6.926   2.005   2.112 -0.4286 -0.0146 -0.7300
11081SOL    HW134406   6.895   2.095   2.099  0.5678  0.2242 -1.6624
11081SOL    HW234407   6.969   2.006   2.197 -0.9062  0.2418 -0.4882
11082SOL     OW34408   3.683   2.327   8.741 -0.1615  0.1264 -0.1867
11082SOL    HW134409   3.626   2.339   8.818  0.3265  0.1956  0.1674
11082SOL    HW234410   3.742   2.402   8.743 -1.3039  1.1153 -1.6744
11083SOL     OW34411   3.321   7.321   0.433  0.4328 -0.5014  0.4510
11083SOL    HW134412   3.281   7.405   0.457  0.2747 -0.4467  0.0128
11083SOL    HW234413   3.410   7.344   0.404  1.0520 -0.7016  2.0950
11084SOL     OW34414   7.414   4.340   8.797  0.0689  0.3294  0.0066
11084SOL    HW134415   7.371   4.254   8.802 -2.2263  1.4000  0.0940
11084SOL    HW234416   7.360   4.390   8.736  2.3090  1.2523 -1.3384
11085SOL     OW34417   8.059   1.327   7.188  0.2232 -0.3874 -0.1175
11085SOL    HW134418   8.019   1.309   7.104 -0.4467 -1.1116  0.3425
11085SOL    HW234419   8.038   1.418   7.207  1.2225  0.0868 -1.1711
11086SOL     OW34420   4.724   1.016   0.919  0.4017 -0.0631  0.0569
11086SOL    HW134421   4.778   1.009   0.840  0.0403  1.2744 -0.3327
11086SOL    HW234422   4.749   0.941   0.972  0.1949 -1.3585 -1.6036
11087SOL     OW34423   3.155   4.669   0.105 -0.3379 -0.0571 -0.1445
11087SOL    HW134424   3.079   4.621   0.137 -0.5060  0.0192 -0.4239
11087SOL    HW234425   3.226   4.646   0.165 -0.8251  0.6619  0.7358
11088SOL     OW34426   1.856   0.984   6.017 -0.0380  0.1666 -0.0969
11088SOL    HW134427   1.833   1.031   5.937  2.2630 -0.0771 -0.9605
11088SOL    HW234428   1.863   1.053   6.084  2.2657  1.0190 -1.1144
11089SOL     OW34429   7.328   0.908   4.992  0.0085  0.2845 -0.9540
11089SOL    HW134430   7.411   0.955   4.999 -1.4775  2.9132  0.8379
11089SOL    HW234431   7.289   0.940   4.910  0.0713  0.3018 -0.9771
11090SOL     OW34432   5.212   5.007   3.629 -0.0157 -0.1546 -0.6154
11090SOL    HW134433   5.211   4.933   3.690 -1.8552 -1.3887 -2.0432
11090SOL    HW234434   5.215   5.085   3.685  1.3093 -1.2617  0.9395
11091SOL     OW34435   3.695   2.854   3.254 -0.3983  0.3820  0.1384
11091SOL    HW134436   3.746   2.904   3.190 -0.8146  0.3126 -0.2555
11091SOL    HW234437   3.620   2.821   3.204 -0.0998 -0.6887  0.3753
11092SOL     OW34438   7.835   7.113   1.843  0.3370 -0.0301 -0.0975
11092SOL    HW134439   7.930   7.102   1.839  0.6334  1.7454  1.1202
11092SOL    HW234440   7.814   7.109   1.936 -0.8447 -0.6668 -0.3639
11093SOL     OW34441   4.967   8.743   3.946 -0.5018 -0.0046  0.4128
11093SOL    HW134442   4.968   8.686   3.869  0.8653  0.3105  0.1813
11093SOL    HW234443   5.014   8.822   3.918 -2.7180  1.4810  0.5694
11094SOL     OW34444   7.716   1.193   8.295  0.0563 -0.1960 -0.2003
11094SOL    HW134445   7.728   1.119   8.236 -1.1565 -1.0210  0.5515
11094SOL    HW234446   7.684   1.263   8.239  3.0309  0.4563 -1.2944
11095SOL     OW34447   7.109   6.645   6.980  0.0575  0.4783  0.5886
11095SOL    HW134448   7.152   6.559   6.984  0.7951  0.6257 -2.0256
11095SOL    HW234449   7.029   6.635   7.031 -0.0320 -1.8927  0.0888
11096SOL     OW34450   6.219   6.672   8.603 -0.0607 -0.5567  0.4272
11096SOL    HW134451   6.141   6.659   8.548  2.7417  0.3913 -4.3567
11096SOL    HW234452   6.236   6.766   8.599  1.2544 -0.7211  1.5305
11097SOL     OW34453   8.218   2.337   0.838  0.1368 -0.5776  0.5860
11097SOL    HW134454   8.189   2.263   0.892 -1.1422 -0.4895  0.0540
11097SOL    HW234455   8.200   2.414   0.891 -0.3532 -0.5386  0.3649
11098SOL     OW34456   8.259   1.990   5.193 -0.4161  0.3492  0.4391
11098SOL    HW134457   8.223   2.067   5.149 -0.2252  1.2640  1.7857
11098SOL    HW234458   8.349   2.015   5.214 -0.7853  0.3533  2.1648
11099SOL     OW34459   4.287   4.830   7.841 -0.2691 -0.4272  0.0310
11099SOL    HW134460   4.373   4.807   7.806 -0.1128  1.9636 -1.3985
11099SOL    HW234461   4.224   4.782   7.787  0.1220 -0.5315 -0.3302
11100SOL     OW34462   3.425   3.337   5.934 -0.1127  0.1919 -0.2645
11100SOL    HW134463   3.492   3.313   5.998  0.0797  1.2223 -0.0566
11100SOL    HW234464   3.343   3.305   5.972  0.0161  0.6844  0.4443
11101SOL     OW34465   0.330   6.116   1.652 -0.5950  0.1808  0.1480
11101SOL    HW134466   0.354   6.188   1.711 -2.8221  0.3613  0.9529
11101SOL    HW234467   0.401   6.053   1.661  0.0669  1.0711  1.5806
11102SOL     OW34468   8.173   5.279   6.541  0.4677 -0.2391 -0.2752
11102SOL    HW134469   8.141   5.368   6.528  0.5275 -0.3129 -0.9923
11102SOL    HW234470   8.214   5.280   6.628  1.6160  0.7744 -0.7938
11103SOL     OW34471   0.719   8.658   8.342 -0.1637  0.5056 -0.3722
11103SOL    HW134472   0.715   8.709   8.261  0.3541  0.8017 -0.2171
11103SOL    HW234473   0.750   8.720   8.408 -0.4194  0.2250  0.0225
11104SOL     OW34474   6.444   0.291   4.407 -0.2660  0.3045 -0.5150
11104SOL    HW134475   6.533   0.324   4.394  0.3240 -1.5980 -1.6308
11104SOL    HW234476   6.411   0.272   4.319 -1.2578 -0.3193 -0.0335
11105SOL     OW34477   1.738   4.629   5.636 -0.2728  0.1194 -0.1269
11105SOL    HW134478   1.786   4.676   5.704  0.2451 -0.8251  0.1867
11105SOL    HW234479   1.806   4.585   5.585 -0.7656 -0.9328  0.0885
11106SOL     OW34480   3.152   5.423   8.050  0.3916  0.3735  0.7211
11106SOL    HW134481   3.210   5.481   8.001 -0.3824 -0.3832 -1.2374
11106SOL    HW234482   3.074   5.476   8.067 -0.1429  0.1039 -0.6953
11107SOL     OW34483   0.692   0.000   8.801 -0.6927  0.2296 -0.8613
11107SOL    HW134484   0.640  -0.078   8.786 -0.7125  0.0154  0.2299
11107SOL    HW234485   0.642   0.071   8.762 -1.3909 -0.0931 -0.5597
11108SOL     OW34486   2.255   5.319   3.899 -0.2169  0.9106  0.3745
11108SOL    HW134487   2.302   5.250   3.853 -1.0151  0.5300  0.1145
11108SOL    HW234488   2.270   5.397   3.846  1.4877  1.1919  1.1734
11109SOL     OW34489   5.370   1.509   3.890 -0.3019  0.1515 -0.6708
11109SOL    HW134490   5.315   1.498   3.812 -0.6030 -0.0747 -0.4255
11109SOL    HW234491   5.310   1.498   3.964 -0.2386  1.4607 -0.3990
11110SOL     OW34492   4.311   3.751   5.371 -0.0394 -0.3873 -0.0479
11110SOL    HW134493   4.298   3.823   5.432 -1.6231  0.0722 -0.8763
11110SOL    HW234494   4.300   3.672   5.425 -1.6295  0.0048  0.2667
11111SOL     OW34495   5.755   2.332   7.142 -0.2386 -0.5107  0.4048
11111SOL    HW134496   5.737   2.376   7.059 -1.2559 -0.5527  0.5889
11111SOL    HW234497   5.746   2.401   7.208  1.0131 -0.3739  0.4661
11112SOL     OW34498   8.177   7.210   5.185 -0.2812 -0.3576 -0.3329
11112SOL    HW134499   8.125   7.225   5.106 -0.2709  0.8544 -0.1197
11112SOL    HW234500   8.138   7.268   5.250  2.5787  2.1883 -0.6980
11113SOL     OW34501   5.310   2.057   4.363  0.1868 -0.6121  0.6145
11113SOL    HW134502   5.262   2.130   4.401  0.1425  0.4391 -1.3538
11113SOL    HW234503   5.243   2.001   4.325  0.3546 -0.5227  0.1861
11114SOL     OW34504   5.113   4.625   5.161 -0.7313  0.6703  0.2137
11114SOL    HW134505   5.084   4.716   5.150  0.4782  1.1045  0.4878
11114SOL    HW234506   5.180   4.613   5.094 -0.0822  0.3548  0.9041
11115SOL     OW34507   8.277   3.121   3.876  0.4164  0.4971 -0.3119
11115SOL    HW134508   8.217   3.138   3.803  0.0268 -0.9124 -0.3623
11115SOL    HW234509   8.219   3.099   3.949  0.7917  2.2308  0.5440
11116SOL     OW34510   7.307   6.651   8.473 -0.0831  0.2347 -0.4150
11116SOL    HW134511   7.231   6.690   8.517 -0.7100  0.1034 -1.3354
11116SOL    HW234512   7.269   6.581   8.419  0.8301 -0.5610 -0.0542
11117SOL     OW34513   3.540   4.277   4.518 -0.0430  0.2166  0.1996
11117SOL    HW134514   3.471   4.309   4.460 -0.3098 -0.3177  0.2144
11117SOL    HW234515   3.618   4.324   4.490 -0.3373  0.5631 -0.0576
11118SOL     OW34516   8.082   2.077   6.139 -0.3972  0.0949 -0.7095
11118SOL    HW134517   8.066   2.021   6.215  0.5216 -0.7813 -1.1332
11118SOL    HW234518   8.175   2.064   6.120 -0.6967  0.0282 -2.1990
11119SOL     OW34519   3.614   3.540   0.819 -0.1130  0.3849  0.5123
11119SOL    HW134520   3.532   3.573   0.857  0.1734  1.3462  0.3204
11119SOL    HW234521   3.682   3.581   0.873  0.2457 -0.5187  0.7581
11120SOL     OW34522   5.780   0.503   0.358  0.2836  0.2482 -0.3747
11120SOL    HW134523   5.700   0.468   0.398  0.7715 -0.9939 -0.4246
11120SOL    HW234524   5.758   0.517   0.266  0.1339 -0.1362 -0.3966
11121SOL     OW34525   0.943   1.189   5.083 -0.0895 -0.9409 -0.9528
11121SOL    HW134526   1.014   1.205   5.146 -0.4121  0.5869 -0.9459
11121SOL    HW234527   0.984   1.199   4.998  0.0001 -1.4488 -0.9726
11122SOL     OW34528   8.730   5.666   3.479  0.3865 -0.2326  0.7910
11122SOL    HW134529   8.787   5.671   3.556  1.1886 -0.4313  0.2228
11122SOL    HW234530   8.751   5.582   3.438 -3.1067 -2.2659  2.6553
11123SOL     OW34531   2.143   2.805   8.249 -0.3759  0.0434 -0.6371
11123SOL    HW134532   2.069   2.861   8.226 -1.3158 -1.9703 -2.9122
11123SOL    HW234533   2.107   2.736   8.304  0.9187  1.8751  2.8175
11124SOL     OW34534   1.285   4.934   6.956  0.0059  0.0469  0.1251
11124SOL    HW134535   1.246   5.012   6.995 -0.1066 -0.7624  1.7009
11124SOL    HW234536   1.227   4.913   6.883  0.4762  1.8569 -0.8423
11125SOL     OW34537   2.395   8.525   8.678 -1.1793  0.1364 -0.9079
11125SOL    HW134538   2.378   8.433   8.698 -2.1065  0.2443 -1.1418
11125SOL    HW234539   2.433   8.525   8.591 -0.9577 -0.0412 -0.8114
11126SOL     OW34540   6.471   5.606   4.340 -1.2181 -0.8868 -0.2275
11126SOL    HW134541   6.467   5.702   4.330 -0.3470 -0.9262 -1.0881
11126SOL    HW234542   6.400   5.574   4.284 -0.4214 -0.8029 -1.3219
11127SOL     OW34543   1.459   2.468   4.448 -0.2262  0.4522  0.0292
11127SOL    HW134544   1.460   2.502   4.537  2.3586  0.1033  0.2219
11127SOL    HW234545   1.367   2.453   4.429 -1.0951  3.1434  1.5989
11128SOL     OW34546   7.059   8.309   8.467  0.1025  0.4133 -0.4971
11128SOL    HW134547   7.083   8.310   8.374  0.6431  0.0239 -0.3712
11128SOL    HW234548   6.966   8.287   8.467  0.3614 -0.7839 -0.9169
11129SOL     OW34549   8.623   3.309   0.781  0.1859  0.1367  0.2163
11129SOL    HW134550   8.531   3.284   0.771  0.4848 -0.4548 -1.4070
11129SOL    HW234551   8.650   3.269   0.863 -0.8713 -0.1394  0.4438
11130SOL     OW34552   6.263   7.120   2.191 -0.1609 -0.5954  0.3359
11130SOL    HW134553   6.254   7.052   2.124  0.9292 -1.1569  0.7431
11130SOL    HW234554   6.202   7.093   2.260 -1.3934  0.0597 -0.4620
11131SOL     OW34555   2.027   6.803   4.498  0.3499 -0.2659  0.3999
11131SOL    HW134556   2.096   6.848   4.450 -1.5238  1.2215 -1.0906
11131SOL    HW234557   2.011   6.859   4.574 -1.0991  1.0322 -0.7803
11132SOL     OW34558   5.112   8.509   3.040 -0.0553 -0.4929 -0.1951
11132SOL    HW134559   5.175   8.576   3.012  0.4926 -0.5357  0.8771
11132SOL    HW234560   5.087   8.535   3.129 -1.9379 -0.2221 -0.7586
11133SOL     OW34561   3.480   2.835   3.087  0.3725 -0.0922  0.3145
11133SOL    HW134562   3.419   2.891   3.039  0.5759  0.7221  0.9842
11133SOL    HW234563   3.481   2.753   3.038  0.0471  0.4796 -0.6694
11134SOL     OW34564   6.026   1.930   8.810 -0.3659 -0.1392 -0.8439
11134SOL    HW134565   6.078   1.945   8.731 -0.3258 -0.7250 -0.9334
11134SOL    HW234566   6.062   1.991   8.874 -0.3611  0.3002 -1.2593
11135SOL     OW34567   1.017   4.999   1.825 -0.5353  0.2894  0.0340
11135SOL    HW134568   0.998   4.918   1.873 -2.2331 -0.2103 -1.3544
11135SOL    HW234569   0.941   5.055   1.842  0.5589  1.5564  0.8642
11136SOL     OW34570   3.795   7.419   3.330  0.2293  0.3490 -0.1297
11136SOL    HW134571   3.746   7.383   3.256  0.0011 -0.1234  0.2417
11136SOL    HW234572   3.875   7.367   3.333 -0.2380 -0.3717  0.5962
11137SOL     OW34573   7.498   7.029   7.908  0.1828 -0.0352  0.0865
11137SOL    HW134574   7.491   6.957   7.845  1.8187 -0.5520  0.4346
11137SOL    HW234575   7.418   7.024   7.959 -0.3847 -0.7049 -0.8329
11138SOL     OW34576   8.807   6.927   2.704  0.4434 -0.0375 -0.3945
11138SOL    HW134577   8.862   6.966   2.636  0.7469  1.0161  0.4314
11138SOL    HW234578   8.865   6.869   2.752 -0.3098 -2.6721 -2.4497
11139SOL     OW34579   4.702   3.319   5.571  0.0613 -0.0997 -0.6443
11139SOL    HW134580   4.752   3.318   5.489 -1.3975  1.4345 -1.6187
11139SOL    HW234581   4.641   3.245   5.563  1.2099 -1.1375 -0.0540
11140SOL     OW34582   8.207   3.661   5.377 -0.1940  0.0915 -0.2048
11140SOL    HW134583   8.155   3.603   5.322 -0.9403  1.5653 -1.1428
11140SOL    HW234584   8.259   3.712   5.315  0.5110  0.3678  0.5900
11141SOL     OW34585   4.760   4.591   4.800 -0.0445  0.0341  0.3070
11141SOL    HW134586   4.672   4.560   4.778 -0.0978 -0.2701  0.9329
11141SOL    HW234587   4.757   4.609   4.894  0.8590 -1.0296  0.5614
11142SOL     OW34588   7.740   2.210   8.213  0.4922  0.2525 -0.3930
11142SOL    HW134589   7.755   2.117   8.196 -0.7949  0.1254 -0.8964
11142SOL    HW234590   7.647   2.217   8.231  0.6591  1.3845  0.1283
11143SOL     OW34591   4.768   2.050   3.319 -0.2844  0.2787  0.1020
11143SOL    HW134592   4.745   1.997   3.244 -2.1230 -0.5429  1.1803
11143SOL    HW234593   4.860   2.073   3.305  0.1535 -1.9662 -1.1119
11144SOL     OW34594   8.186   5.134   0.410  0.1677  0.2551  0.2585
11144SOL    HW134595   8.136   5.081   0.472 -1.9662  1.2567 -0.5121
11144SOL    HW234596   8.147   5.221   0.417 -0.7480  0.2235 -3.0734
11145SOL     OW34597   3.113   7.629   7.071 -0.0840  0.1288  0.0417
11145SOL    HW134598   3.117   7.725   7.072 -2.1518  0.2453  0.2887
11145SOL    HW234599   3.047   7.607   7.136 -0.3150 -1.4099 -0.6789
11146SOL     OW34600   3.737   7.424   5.907  0.4649 -0.3125  0.1951
11146SOL    HW134601   3.803   7.478   5.864 -0.9133  2.5725  1.4255
11146SOL    HW234602   3.787   7.367   5.966  1.9518  0.2497 -0.4822
11147SOL     OW34603   4.539   3.570   8.827 -0.3484 -0.3839  0.3721
11147SOL    HW134604   4.604   3.577   8.897  0.3478 -1.0991 -0.1796
11147SOL    HW234605   4.589   3.584   8.747 -1.2708  1.1570  0.0409
11148SOL     OW34606   0.376   2.157   0.203 -0.0731 -0.3015 -0.2180
11148SOL    HW134607   0.294   2.207   0.198  0.3303  0.5141  1.0138
11148SOL    HW234608   0.353   2.070   0.170 -1.4513 -0.1042  0.1715
11149SOL     OW34609   6.291   0.850   8.200  0.5188 -0.3971  0.1818
11149SOL    HW134610   6.347   0.776   8.178  0.6169 -0.7543  1.5043
11149SOL    HW234611   6.308   0.866   8.293  0.0831  0.9382  0.0612
11150SOL     OW34612   5.208   1.513   4.117 -0.0887 -0.5016 -0.1348
11150SOL    HW134613   5.178   1.604   4.126 -1.3398 -0.8044 -1.0294
11150SOL    HW234614   5.200   1.477   4.206 -1.1679 -0.1964 -0.0885
11151SOL     OW34615   1.633   0.712   4.532 -0.7732  0.0205 -0.0927
11151SOL    HW134616   1.612   0.663   4.612  0.9241 -0.5713  0.0336
11151SOL    HW234617   1.549   0.721   4.487 -1.9979  1.3424  2.2466
11152SOL     OW34618   2.931   6.605   7.540 -0.1143 -0.0192  0.4003
11152SOL    HW134619   2.883   6.654   7.606 -0.5503 -0.4422  0.4075
11152SOL    HW234620   3.001   6.561   7.589 -0.0289  0.1988  0.4722
11153SOL     OW34621   8.800   8.538   3.579 -0.3083 -0.5618  0.0779
11153SOL    HW134622   8.715   8.551   3.537  0.5647  0.0611 -1.5910
11153SOL    HW234623   8.824   8.447   3.558 -0.1256 -0.4273 -0.3044
11154SOL     OW34624   7.263   0.142   5.425  0.2573  0.7768 -0.0501
11154SOL    HW134625   7.335   0.114   5.481 -0.2783  0.0658  0.3030
11154SOL    HW234626   7.184   0.128   5.479 -0.4197 -1.3223 -1.4737
11155SOL     OW34627   2.452   7.031   6.583  0.4335 -0.2214 -0.1189
11155SOL    HW134628   2.358   7.039   6.594  0.2731 -1.5173 -0.3805
11155SOL    HW234629   2.468   6.936   6.579  1.4598 -0.0233 -2.4700
11156SOL     OW34630   1.474   6.177   1.905  0.2221  0.5524  0.1856
11156SOL    HW134631   1.564   6.172   1.873 -0.2446  0.4052 -1.1645
11156SOL    HW234632   1.456   6.091   1.941  0.9638  0.9111  1.4981
11157SOL     OW34633   1.518   1.165   1.942  0.0964  0.8554 -0.6469
11157SOL    HW134634   1.549   1.209   1.863 -0.9265  1.0814 -0.9301
11157SOL    HW234635   1.579   1.193   2.011  1.1593  0.4393 -1.3903
11158SOL     OW34636   3.630   2.932   2.281 -0.7076  0.5527 -0.3321
11158SOL    HW134637   3.557   2.991   2.302 -0.3878  0.1499  2.2592
11158SOL    HW234638   3.596   2.844   2.298 -0.6644  0.0443 -2.5649
11159SOL     OW34639   0.534   8.475   5.648  0.5259 -0.2994 -0.0589
11159SOL    HW134640   0.557   8.550   5.592  0.9120  0.0350  0.5375
11159SOL    HW234641   0.488   8.514   5.722 -1.4835 -0.8985 -0.9352
11160SOL     OW34642   3.045   1.994   6.261  0.7733  0.1032 -0.3255
11160SOL    HW134643   2.964   2.034   6.230  0.1462  0.1256  1.2560
11160SOL    HW234644   3.114   2.034   6.207 -0.1938  0.5804 -1.2325
11161SOL     OW34645   4.110   7.185   3.157  0.7396  0.1947 -0.1294
11161SOL    HW134646   4.184   7.233   3.119 -0.3550  1.3797 -0.8685
11161SOL    HW234647   4.034   7.242   3.141 -0.5421 -1.5457 -0.5567
11162SOL     OW34648   8.670   4.100   6.116  0.3001  0.2385 -0.0740
11162SOL    HW134649   8.589   4.049   6.114  0.0989  0.5316  0.4028
11162SOL    HW234650   8.728   4.056   6.054 -0.5890  0.6386 -1.2484
11163SOL     OW34651   4.606   8.821   2.071 -0.4789  0.3932  0.1869
11163SOL    HW134652   4.670   8.759   2.105  1.6388  0.3511 -3.3740
11163SOL    HW234653   4.597   8.798   1.978 -0.7770  4.4010 -0.9456
11164SOL     OW34654   0.868   3.115   6.426  0.1526 -0.2061 -0.1177
11164SOL    HW134655   0.915   3.172   6.486  1.4753 -0.2270 -1.0903
11164SOL    HW234656   0.878   3.027   6.464  0.7428 -0.1839 -0.2136
11165SOL     OW34657   0.250   1.698   3.272  0.3664 -0.4736 -0.4629
11165SOL    HW134658   0.242   1.793   3.283  1.9324 -0.3243 -0.4089
11165SOL    HW234659   0.334   1.686   3.229 -0.0959 -1.8170 -1.0284
11166SOL     OW34660   6.901   1.613   8.621 -0.2931 -0.0320  0.3753
11166SOL    HW134661   6.847   1.534   8.623 -1.3736  0.6694 -0.3078
11166SOL    HW234662   6.839   1.685   8.616  0.6963  0.8091 -0.2236
11167SOL     OW34663   5.083   4.044   5.966  0.1662  0.5004  0.1847
11167SOL    HW134664   5.178   4.035   5.956  0.3334  0.9049  1.2913
11167SOL    HW234665   5.072   4.120   6.023 -0.9102  2.0280 -1.9128
11168SOL     OW34666   6.410   1.330   5.568 -0.2483 -0.1056 -0.7719
11168SOL    HW134667   6.333   1.343   5.512 -0.5428  0.3137 -0.2879
11168SOL    HW234668   6.397   1.244   5.606 -1.0006  0.3626  0.0736
11169SOL     OW34669   3.125   5.881   5.358  0.7421 -0.6655 -0.0546
11169SOL    HW134670   3.063   5.829   5.308  1.8366 -1.9772 -0.0849
11169SOL    HW234671   3.070   5.936   5.414 -0.4681 -2.7113  0.8812
11170SOL     OW34672   8.234   2.640   0.060 -0.0030  0.5648  0.4417
11170SOL    HW134673   8.282   2.667   0.139  0.4453  1.7857 -0.2191
11170SOL    HW234674   8.302   2.601   0.004 -0.6173 -2.0422  1.3411
11171SOL     OW34675   4.931   3.054   6.452  0.4519  0.1598  0.0272
11171SOL    HW134676   4.858   3.029   6.396  0.0680 -1.7583  1.3274
11171SOL    HW234677   4.992   3.098   6.392 -0.5085 -0.6514 -1.6188
11172SOL     OW34678   3.358   1.092   7.789  0.0924  0.6839  0.1690
11172SOL    HW134679   3.356   1.040   7.869 -0.3552 -0.4716 -0.5650
11172SOL    HW234680   3.448   1.086   7.758 -0.2757 -0.9542 -0.7029
11173SOL     OW34681   3.721   0.253   4.332 -0.2623  0.2518 -0.3863
11173SOL    HW134682   3.809   0.249   4.370 -0.5712  0.1196  0.3385
11173SOL    HW234683   3.674   0.317   4.385 -1.0006 -0.6714  0.1194
11174SOL     OW34684   0.019   1.401   0.279 -0.2365  0.2107  0.2240
11174SOL    HW134685   0.006   1.487   0.239 -0.1015  0.6492  1.0864
11174SOL    HW234686  -0.069   1.373   0.305 -0.2778  0.1004 -0.0404
11175SOL     OW34687   7.377   3.853   1.180 -0.4100 -0.3677 -0.0271
11175SOL    HW134688   7.297   3.899   1.154 -0.1288 -1.0580 -2.4221
11175SOL    HW234689   7.346   3.781   1.236 -1.0337  1.4395  2.0999
11176SOL     OW34690   2.756   5.441   2.687  0.2688 -0.0115 -0.0882
11176SOL    HW134691   2.792   5.384   2.755 -1.2423  0.9585  1.6262
11176SOL    HW234692   2.735   5.522   2.732 -1.1750  0.5323 -1.6214
11177SOL     OW34693   5.622   6.189   0.116 -0.0733 -0.5521 -0.7193
11177SOL    HW134694   5.625   6.111   0.062 -0.9613 -1.5607  0.6200
11177SOL    HW234695   5.595   6.158   0.203  1.2230  0.9969  0.3148
11178SOL     OW34696   4.340   0.827   5.431 -0.3897 -0.1750  0.0409
11178SOL    HW134697   4.327   0.844   5.337 -1.0649 -1.0189 -0.0274
11178SOL    HW234698   4.420   0.875   5.453  0.0296 -0.3397 -1.0662
11179SOL     OW34699   0.502   5.564   7.441 -0.0747 -0.3302 -0.7618
11179SOL    HW134700   0.514   5.635   7.378  2.3871 -0.0483 -0.1213
11179SOL    HW234701   0.588   5.521   7.445 -0.4999 -1.1429  1.4115
11180SOL     OW34702   4.596   8.001   0.206 -0.4218  0.1152 -0.6561
11180SOL    HW134703   4.666   8.046   0.159 -0.6850 -1.4890 -2.7330
11180SOL    HW234704   4.638   7.968   0.286  0.7099  0.7181 -0.9860
11181SOL     OW34705   4.791   7.307   0.077  0.2771 -1.1794  0.5500
11181SOL    HW134706   4.855   7.302   0.005 -1.2308  0.1206 -0.9871
11181SOL    HW234707   4.727   7.239   0.056 -0.4333 -0.4650  0.3643
11182SOL     OW34708   6.573   2.466   7.992 -0.0433  0.0980  0.2676
11182SOL    HW134709   6.642   2.453   8.057  1.5610 -0.2430 -1.4379
11182SOL    HW234710   6.538   2.553   8.012  0.4202  0.0152  1.5497
11183SOL     OW34711   0.279   0.993   4.864  0.3948  0.1547 -0.1906
11183SOL    HW134712   0.278   0.899   4.845  1.5398  0.1477 -0.3105
11183SOL    HW234713   0.285   0.997   4.960 -0.4079  0.1199 -0.1362
11184SOL     OW34714   0.755   1.667   7.793 -0.0576  0.2626  0.0913
11184SOL    HW134715   0.667   1.698   7.771  0.2980  0.5510 -0.9727
11184SOL    HW234716   0.741   1.579   7.827 -0.9672  1.0990  2.0626
11185SOL     OW34717   1.836   2.268   5.443  0.2016 -0.2244 -0.0917
11185SOL    HW134718   1.857   2.320   5.520  0.3298 -0.0394 -0.2492
11185SOL    HW234719   1.753   2.225   5.464  0.7259 -0.9483  0.5391
11186SOL     OW34720   3.787   4.662   8.039  0.8073 -0.0129 -0.6923
11186SOL    HW134721   3.774   4.729   8.106 -0.7879  1.0933 -2.0275
11186SOL    HW234722   3.822   4.709   7.964  0.1224 -0.7309 -1.4944
11187SOL     OW34723   8.206   2.273   0.052  0.0222 -0.4831  0.1274
11187SOL    HW134724   8.198   2.181   0.026 -2.2040 -1.1833  2.7507
11187SOL    HW234725   8.149   2.320  -0.009 -1.0625 -1.3058  0.4675
11188SOL     OW34726   7.171   1.556   7.063 -0.2377 -0.0966  0.8141
11188SOL    HW134727   7.159   1.632   7.119  1.3440  1.3778 -0.7091
11188SOL    HW234728   7.092   1.555   7.008  0.4073  1.5005 -0.2418
11189SOL     OW34729   3.765   1.503   6.588  0.0630  0.0417 -0.2962
11189SOL    HW134730   3.712   1.480   6.664 -0.1846  0.5525 -0.3125
11189SOL    HW234731   3.712   1.566   6.540  0.6400  0.4849 -0.3640
11190SOL     OW34732   7.022   0.344   4.777 -0.8698 -0.4402 -0.6919
11190SOL    HW134733   6.949   0.308   4.827 -0.3881 -0.7435 -0.2096
11190SOL    HW234734   7.055   0.416   4.831 -0.9380 -0.1643 -1.0093
11191SOL     OW34735   1.409   2.290   7.960 -0.0337  0.3624  0.5405
11191SOL    HW134736   1.330   2.258   8.002  0.0302 -0.1309  0.2916
11191SOL    HW234737   1.435   2.367   8.011  0.1317 -0.3096  1.4906
11192SOL     OW34738   6.927   4.470   5.694 -0.5321  0.4106 -0.3360
11192SOL    HW134739   6.986   4.478   5.769 -0.4388  0.7515 -0.4429
11192SOL    HW234740   6.892   4.558   5.682  0.1450  0.5642 -1.2562
11193SOL     OW34741   8.488   6.853   3.055 -0.3416  0.3801  0.5509
11193SOL    HW134742   8.394   6.871   3.062 -0.3503  0.1962  0.9540
11193SOL    HW234743   8.529   6.940   3.057 -0.4295  0.4203  1.6993
11194SOL     OW34744   6.683   5.778   8.680  0.3344  0.4655  0.2136
11194SOL    HW134745   6.699   5.834   8.605 -0.8688 -1.2615 -1.4057
11194SOL    HW234746   6.649   5.696   8.643 -2.2017  0.2203  2.7259
11195SOL     OW34747   7.182   6.721   6.317  0.0039  0.2975 -0.4118
11195SOL    HW134748   7.255   6.707   6.377  0.1581  0.0146 -0.6632
11195SOL    HW234749   7.105   6.726   6.373  0.2511  0.9305 -0.1139
11196SOL     OW34750   6.523   5.896   3.542 -0.0562  0.5834  0.1898
11196SOL    HW134751   6.538   5.902   3.636 -0.0173 -1.9646  0.4311
11196SOL    HW234752   6.570   5.971   3.505  1.6070  0.5442  2.0384
11197SOL     OW34753   5.822   8.177   5.368  0.2718  0.4288 -0.5302
11197SOL    HW134754   5.915   8.178   5.391 -0.1257 -0.1439  1.2427
11197SOL    HW234755   5.796   8.086   5.379 -0.5925  0.6606 -0.6010
11198SOL     OW34756   4.078   1.618   4.684  0.1292 -0.5281 -0.1743
11198SOL    HW134757   4.011   1.597   4.619 -1.0192  0.8894  0.4859
11198SOL    HW234758   4.092   1.537   4.732 -1.3536 -0.7984 -0.1474
11199SOL     OW34759   1.298   5.853   3.053  0.1481  0.5574 -0.4206
11199SOL    HW134760   1.375   5.902   3.025  0.5985 -0.9061 -1.9261
11199SOL    HW234761   1.326   5.762   3.053 -1.1081  0.1392  0.7071
11200SOL     OW34762   1.293   3.804   7.012 -0.0640 -0.9513  0.4469
11200SOL    HW134763   1.264   3.879   7.064 -0.6616 -0.4625 -0.5550
11200SOL    HW234764   1.364   3.765   7.063 -0.6854 -0.5411  1.6524
11201SOL     OW34765   7.172   5.563   6.711 -0.1359  0.2220 -0.2092
11201SOL    HW134766   7.082   5.581   6.684  0.0612 -0.2129 -1.2125
11201SOL    HW234767   7.174   5.468   6.724  0.6656 -0.1049 -2.2487
11202SOL     OW34768   0.319   4.121   0.583  0.1930  0.5089 -0.5574
11202SOL    HW134769   0.258   4.170   0.639 -0.2690  0.2970 -0.8712
11202SOL    HW234770   0.405   4.156   0.606  0.1349 -0.3165  1.0895
11203SOL     OW34771   0.117   6.447   0.855 -0.0712  0.4864 -0.1095
11203SOL    HW134772   0.126   6.465   0.949 -0.0310 -2.8489  0.6460
11203SOL    HW234773   0.024   6.462   0.837 -0.1285  0.9253  0.5097
11204SOL     OW34774   8.333   3.404   0.519  0.1699  0.5879 -0.0856
11204SOL    HW134775   8.343   3.420   0.613 -1.0383 -0.9618  0.3511
11204SOL    HW234776   8.422   3.390   0.487  0.8435  3.3732  0.3368
11205SOL     OW34777   2.220   4.203   6.332  0.3633  0.0443  0.2854
11205SOL    HW134778   2.198   4.294   6.314  3.1490  1.0804  1.5200
11205SOL    HW234779   2.149   4.172   6.388 -0.9569  1.2345 -0.6677
11206SOL     OW34780   1.646   6.092   7.848  0.3582  0.0219  0.2106
11206SOL    HW134781   1.577   6.042   7.804  0.3675  1.1440 -1.1683
11206SOL    HW234782   1.602   6.134   7.922  0.3221 -1.8508  1.3119
11207SOL     OW34783   7.674   5.208   7.015  0.6009  0.2153  0.1009
11207SOL    HW134784   7.713   5.272   7.073 -2.1016  0.4688  1.8101
11207SOL    HW234785   7.673   5.126   7.066 -1.1457  0.2686  0.2405
11208SOL     OW34786   0.287   1.902   1.531  0.0849 -0.1640  0.1083
11208SOL    HW134787   0.317   1.856   1.452  2.0871 -0.5103  1.0010
11208SOL    HW234788   0.339   1.863   1.602 -0.0323  1.6928  1.2619
11209SOL     OW34789   3.201   5.730   5.572 -0.3462  0.5266 -0.1365
11209SOL    HW134790   3.196   5.780   5.491  1.8348  1.4914  0.2630
11209SOL    HW234791   3.279   5.675   5.563  0.5782  1.4225  1.6494
11210SOL     OW34792   3.924   6.343   2.630  0.4846 -0.0101 -0.4558
11210SOL    HW134793   3.912   6.402   2.704  0.9633  0.3428 -0.6588
11210SOL    HW234794   3.861   6.373   2.564  2.1276  1.6071 -1.3760
11211SOL     OW34795   3.670   3.339   7.110 -0.2347  0.4836 -0.3219
11211SOL    HW134796   3.683   3.408   7.044 -1.5461  1.8413  0.7768
11211SOL    HW234797   3.575   3.332   7.119 -0.2019 -2.5385 -1.4137
11212SOL     OW34798   1.540   8.332   7.058 -0.1300 -0.7924 -0.1106
11212SOL    HW134799   1.551   8.385   7.137  1.3777  0.6505 -1.2108
11212SOL    HW234800   1.592   8.253   7.075 -0.4895 -0.8659  0.6569
11213SOL     OW34801   5.629   5.322   7.613  0.2136  0.1261 -0.2766
11213SOL    HW134802   5.655   5.272   7.536  1.8873  0.5636 -0.0422
11213SOL    HW234803   5.629   5.258   7.685  1.4926  0.2468 -0.1391
11214SOL     OW34804   7.969   8.732   4.164 -0.2129 -0.4214  0.2638
11214SOL    HW134805   8.037   8.761   4.224 -0.0115  0.9437 -0.5913
11214SOL    HW234806   7.953   8.807   4.107 -2.4597 -0.6941  0.4558
11215SOL     OW34807   1.791   3.016   0.631  0.3413  0.2778  0.2496
11215SOL    HW134808   1.875   2.972   0.617  0.9172  1.3980  0.1285
11215SOL    HW234809   1.731   2.972   0.570  1.9816  2.7047 -3.4639
11216SOL     OW34810   3.724   3.375   5.132  0.1734  0.3268  0.1329
11216SOL    HW134811   3.762   3.355   5.047 -0.1489  1.8318 -0.3785
11216SOL    HW234812   3.740   3.296   5.184  2.1030  0.1250 -0.7034
11217SOL     OW34813   1.712   8.306   8.163 -0.7583 -0.8919  0.2930
11217SOL    HW134814   1.695   8.397   8.190  1.0374 -0.6514  0.6906
11217SOL    HW234815   1.683   8.302   8.072  1.4195  0.8142 -0.5583
11218SOL     OW34816   6.289   4.285   4.549  0.4772  0.4984  0.2179
11218SOL    HW134817   6.337   4.289   4.632  0.5774  2.5822  0.1111
11218SOL    HW234818   6.225   4.215   4.562  2.3098 -1.1385  1.0003
11219SOL     OW34819   4.206   1.148   6.965  0.1745 -0.1518  0.0598
11219SOL    HW134820   4.140   1.112   7.024 -0.9073  0.3870 -0.7777
11219SOL    HW234821   4.289   1.116   7.000 -0.5816 -1.6670  0.5987
11220SOL     OW34822   6.110   0.854   7.737 -0.1459 -0.3179 -0.2813
11220SOL    HW134823   6.112   0.950   7.741  1.5295 -0.3752  1.1242
11220SOL    HW234824   6.118   0.826   7.828  3.7995 -1.7861 -0.9085
11221SOL     OW34825   5.764   5.176   5.106  0.8440  0.3387  0.2803
11221SOL    HW134826   5.670   5.158   5.098  0.8349  0.4419  0.1700
11221SOL    HW234827   5.797   5.177   5.016  0.8047  1.1252  0.2712
11222SOL     OW34828   2.382   2.935   2.248 -0.0383 -0.0882 -0.8094
11222SOL    HW134829   2.415   2.898   2.330  0.6219 -2.1508 -1.9418
11222SOL    HW234830   2.459   2.973   2.207  0.3747 -2.0588 -1.9751
11223SOL     OW34831   2.818   7.216   0.613 -0.5076  0.0280  0.5872
11223SOL    HW134832   2.895   7.256   0.655 -0.1030 -1.3715  1.2500
11223SOL    HW234833   2.854   7.168   0.539 -1.2236  2.5079 -1.5003
11224SOL     OW34834   6.415   8.753   6.728  0.7519 -0.2085  0.3075
11224SOL    HW134835   6.333   8.736   6.774  0.2240 -1.3391 -0.9830
11224SOL    HW234836   6.456   8.667   6.720  1.2095  0.0834 -0.6158
11225SOL     OW34837   3.474   8.744   7.276  0.5425  0.2643  0.6684
11225SOL    HW134838   3.399   8.801   7.291  0.5832  0.6453 -0.4726
11225SOL    HW234839   3.441   8.676   7.218  1.1471  0.5956 -0.0783
11226SOL     OW34840   5.022   7.764   2.949  0.6509  0.2737  0.2320
11226SOL    HW134841   4.988   7.755   3.038 -0.0544  1.1052  0.0582
11226SOL    HW234842   5.067   7.681   2.932 -0.0300 -0.2713  1.0204
11227SOL     OW34843   0.740   5.961   5.161  0.0671  0.0774  0.8942
11227SOL    HW134844   0.799   5.911   5.217  0.7603 -0.0033  0.1217
11227SOL    HW234845   0.736   5.910   5.080  2.2396  2.1074 -0.6190
11228SOL     OW34846   4.957   8.044   1.119 -0.7899 -0.0507  0.3552
11228SOL    HW134847   4.975   8.011   1.032 -1.6845 -1.0218  0.5085
11228SOL    HW234848   4.917   7.970   1.165 -0.1902  0.3879  1.6412
11229SOL     OW34849   0.812   0.150   3.044  0.3014  0.8270  0.0693
11229SOL    HW134850   0.787   0.222   2.987 -0.5617  1.6939  1.4956
11229SOL    HW234851   0.828   0.191   3.129  1.4736 -0.4378  0.4953
11230SOL     OW34852   2.189   4.920   1.126  0.0721  0.0063  0.6572
11230SOL    HW134853   2.122   4.851   1.136  0.5296 -0.1792  2.8637
11230SOL    HW234854   2.181   4.946   1.034 -1.9061 -1.1559  0.4145
11231SOL     OW34855   5.860   7.440   4.535 -0.5291  1.7021 -0.7474
11231SOL    HW134856   5.935   7.500   4.544 -0.0495  0.9979  0.1970
11231SOL    HW234857   5.798   7.470   4.601  1.2279 -0.9296  2.4271
11232SOL     OW34858   6.634   7.894   2.646  0.7338 -0.2296 -0.1960
11232SOL    HW134859   6.712   7.839   2.643  1.1666  0.4287 -1.6814
11232SOL    HW234860   6.563   7.834   2.622  1.0247 -0.4097 -0.6083
11233SOL     OW34861   3.424   3.105   2.266  0.2997  0.3073 -0.4300
11233SOL    HW134862   3.357   3.052   2.224 -1.1521  0.9518  0.9989
11233SOL    HW234863   3.415   3.192   2.227 -0.4346  0.6667  0.5028
11234SOL     OW34864   7.149   0.428   1.177 -0.4293  0.0212 -0.2455
11234SOL    HW134865   7.137   0.481   1.256 -1.4809 -2.0397  1.0588
11234SOL    HW234866   7.214   0.476   1.126 -0.3503  1.8697  1.4601
11235SOL     OW34867   6.283   6.475   5.617 -0.5614 -0.1765 -0.4881
11235SOL    HW134868   6.217   6.516   5.561 -0.6624  0.4445  0.0750
11235SOL    HW234869   6.326   6.411   5.560 -0.5861  0.5166 -1.3091
11236SOL     OW34870   3.375   0.556   1.620  0.1001  0.5367  0.0156
11236SOL    HW134871   3.447   0.506   1.582  0.0441 -0.9257  1.7316
11236SOL    HW234872   3.415   0.605   1.692 -0.6583 -0.6442  1.2782
11237SOL     OW34873   3.303   3.337   2.810  0.2983 -0.3789 -0.3897
11237SOL    HW134874   3.317   3.257   2.759  1.7769 -0.0913 -0.4738
11237SOL    HW234875   3.208   3.350   2.807  0.0833 -1.8124 -0.8432
11238SOL     OW34876   0.594   7.174   5.310  0.3309 -0.1209  0.2323
11238SOL    HW134877   0.540   7.191   5.388  1.2289 -1.0217  1.0720
11238SOL    HW234878   0.671   7.229   5.322  0.7594 -0.7280  0.2925
11239SOL     OW34879   5.827   5.239   1.633  0.1387 -0.2396 -0.0165
11239SOL    HW134880   5.740   5.222   1.599  0.2823 -1.8155  0.3048
11239SOL    HW234881   5.858   5.315   1.584 -0.6194 -0.9071 -1.5970
11240SOL     OW34882   3.275   6.326   7.181 -0.5903 -0.1219 -0.5858
11240SOL    HW134883   3.325   6.397   7.221 -1.5074 -0.7779  1.8663
11240SOL    HW234884   3.341   6.271   7.139  0.3538  0.9270 -0.5240
11241SOL     OW34885   4.347   1.399   7.350 -0.2671 -0.2379 -0.0474
11241SOL    HW134886   4.313   1.468   7.407  0.5621  0.3692 -0.2607
11241SOL    HW234887   4.305   1.414   7.266  1.3651  1.2495 -0.6471
11242SOL     OW34888   2.305   2.506   2.062 -0.1839  0.3227 -0.2610
11242SOL    HW134889   2.309   2.601   2.068  0.3418  0.2528  0.6721
11242SOL    HW234890   2.311   2.476   2.153  0.7925 -0.6391 -0.6177
11243SOL     OW34891   8.561   7.854   3.484 -0.1986 -0.2758  0.1268
11243SOL    HW134892   8.523   7.866   3.397 -0.9588 -0.9613  0.3582
11243SOL    HW234893   8.652   7.827   3.467 -0.0870  0.4139 -0.4358
11244SOL     OW34894   8.707   2.324   5.383 -0.0472 -0.4734 -0.5359
11244SOL    HW134895   8.725   2.336   5.290  1.3250 -0.0078 -0.2459
11244SOL    HW234896   8.698   2.413   5.417 -0.4366 -0.6351 -0.2070
11245SOL     OW34897   1.775   0.544   7.803  0.1545  0.6253  0.7906
11245SOL    HW134898   1.727   0.572   7.725 -1.3226  1.3562  1.9250
11245SOL    HW234899   1.839   0.481   7.770 -1.3139 -0.0921 -0.8217
11246SOL     OW34900   3.611   3.349   6.820 -0.0395 -0.8504 -0.3048
11246SOL    HW134901   3.589   3.419   6.881  0.4467 -0.8698 -0.0977
11246SOL    HW234902   3.554   3.276   6.844 -0.1198 -0.7276 -0.1240
11247SOL     OW34903   0.997   0.272   0.328 -0.1993  0.0285  0.2108
11247SOL    HW134904   1.042   0.340   0.278  0.4510 -1.0410 -0.7043
11247SOL    HW234905   0.907   0.276   0.298  0.0498 -0.1660 -0.5908
11248SOL     OW34906   2.818   1.774   6.169 -0.5458  0.6781  0.1138
11248SOL    HW134907   2.792   1.795   6.259 -1.3906 -0.2277  0.0966
11248SOL    HW234908   2.742   1.798   6.116 -0.2865  0.6172 -0.2891
11249SOL     OW34909   4.111   7.529   5.434  0.3050 -0.7570  0.0594
11249SOL    HW134910   4.140   7.536   5.525 -0.8545 -1.3482  0.4844
11249SOL    HW234911   4.157   7.600   5.389  0.8335 -0.4135  1.1137
11250SOL     OW34912   4.728   3.292   0.170  0.2504 -0.0140 -0.2161
11250SOL    HW134913   4.815   3.311   0.204 -0.0706  1.4160 -0.1106
11250SOL    HW234914   4.687   3.378   0.161 -0.8345 -0.6004 -1.1127
11251SOL     OW34915   0.416   6.215   3.422 -0.1566  0.0348  0.0472
11251SOL    HW134916   0.501   6.257   3.411 -0.3335  0.0251 -1.7196
11251SOL    HW234917   0.355   6.286   3.441  0.1749  0.0871  0.9320
11252SOL     OW34918   6.348   5.219   7.538 -0.2228 -0.7179  0.0205
11252SOL    HW134919   6.332   5.236   7.445  2.5247 -0.1559 -0.4307
11252SOL    HW234920   6.425   5.162   7.540 -0.5908 -1.2502  1.9744
11253SOL     OW34921   0.720   8.586   6.053 -0.3473 -1.0583 -0.6184
11253SOL    HW134922   0.644   8.537   6.084 -2.6698 -0.6664 -4.8828
11253SOL    HW234923   0.722   8.664   6.108 -1.8257 -2.0148  0.8772
11254SOL     OW34924   6.989   7.359   3.728 -0.0364 -0.4139 -0.0463
11254SOL    HW134925   7.013   7.384   3.817 -0.3911 -0.0675 -0.0440
11254SOL    HW234926   6.896   7.337   3.733 -0.2294  0.2682 -0.4600
11255SOL     OW34927   3.861   8.710   0.899 -0.8082 -0.6630  0.5123
11255SOL    HW134928   3.789   8.686   0.957  0.8171 -0.1845  2.8888
11255SOL    HW234929   3.919   8.633   0.900  0.3762  0.2004  1.4899
11256SOL     OW34930   6.717   3.659   7.141  0.0441  0.1277 -0.2020
11256SOL    HW134931   6.723   3.570   7.178 -0.1099  0.5090  0.7666
11256SOL    HW234932   6.627   3.686   7.159  0.5930  1.1723  1.1798
11257SOL     OW34933   2.770   6.591   0.561  0.2179 -0.2557  0.1200
11257SOL    HW134934   2.706   6.543   0.615  0.5853 -2.4272 -1.2500
11257SOL    HW234935   2.794   6.529   0.492  1.6305  1.5510 -1.0983
11258SOL     OW34936   6.266   6.018   6.890 -0.1101  0.2458 -0.0463
11258SOL    HW134937   6.198   5.954   6.869 -0.8419  0.6658  0.9680
11258SOL    HW234938   6.320   6.022   6.811  1.3846 -3.2997  0.5761
11259SOL     OW34939   8.478   4.686   3.764 -0.3693  0.4153 -0.4141
11259SOL    HW134940   8.443   4.712   3.679  0.8251  1.7224 -0.5364
11259SOL    HW234941   8.514   4.598   3.748 -0.9352  0.2792 -1.0165
11260SOL     OW34942   2.296   1.832   1.685  0.1223  0.5103 -0.1094
11260SOL    HW134943   2.213   1.814   1.639  0.0246 -0.1097  0.2940
11260SOL    HW234944   2.283   1.918   1.724 -0.0636  0.7309 -0.6457
11261SOL     OW34945   1.255   1.399   1.692  0.3381 -0.3333 -0.1976
11261SOL    HW134946   1.322   1.443   1.639  0.7980  1.0120  1.4251
11261SOL    HW234947   1.220   1.330   1.634  2.6743 -0.6904 -1.3082
11262SOL     OW34948   5.719   5.178   5.513 -0.5073  0.3969 -0.0747
11262SOL    HW134949   5.690   5.189   5.422 -1.3488  0.1353  0.1618
11262SOL    HW234950   5.800   5.127   5.505 -0.0457  1.2061 -0.7367
11263SOL     OW34951   5.834   6.136   5.662  0.0484  0.6330  0.2571
11263SOL    HW134952   5.773   6.097   5.724  1.3539 -1.0955  0.5289
11263SOL    HW234953   5.782   6.152   5.584 -0.7588 -0.8185  0.4686
11264SOL     OW34954   7.451   4.490   2.451  0.2989 -0.3079 -0.1626
11264SOL    HW134955   7.371   4.541   2.467  0.6361  0.6111 -1.3175
11264SOL    HW234956   7.454   4.429   2.524 -0.6806  0.6264  0.7064
11265SOL     OW34957   5.066   6.543   3.781 -0.0086  0.7263 -0.3794
11265SOL    HW134958   5.029   6.529   3.869 -1.6475 -0.9477 -1.2726
11265SOL    HW234959   5.153   6.580   3.798 -0.5612  1.1638  1.9257
11266SOL     OW34960   8.587   5.289   6.232  0.3146  0.0474  0.3041
11266SOL    HW134961   8.568   5.255   6.319  0.0932  1.6072  0.9016
11266SOL    HW234962   8.571   5.384   6.239 -0.5235  0.1124 -1.6358
11267SOL     OW34963   4.411   2.880   6.465  0.2260  0.4927  0.0522
11267SOL    HW134964   4.367   2.936   6.401 -0.3893  0.8738  0.7764
11267SOL    HW234965   4.359   2.800   6.467 -0.4053  0.9057  0.8396
11268SOL     OW34966   2.083   4.023   5.779 -0.2602  0.2741 -0.3770
11268SOL    HW134967   2.036   3.984   5.852  0.2760 -0.0291 -0.1861
11268SOL    HW234968   2.062   4.116   5.783 -1.7209 -0.0148 -0.9687
11269SOL     OW34969   1.336   4.362   0.040  0.0437 -0.2577 -0.2573
11269SOL    HW134970   1.257   4.317   0.069 -1.2466  1.9082 -0.1506
11269SOL    HW234971   1.365   4.312  -0.037 -1.1437 -1.3933 -0.0138
11270SOL     OW34972   7.910   6.321   8.699  0.0096 -0.1446  0.2599
11270SOL    HW134973   7.938   6.393   8.756 -0.6237  1.6812 -1.6029
11270SOL    HW234974   7.991   6.283   8.666  0.3543 -0.0696  1.0162
11271SOL     OW34975   5.958   8.106   1.116 -0.2673  0.0931 -0.0803
11271SOL    HW134976   5.947   8.095   1.211 -2.9760 -0.2509 -0.3645
11271SOL    HW234977   5.929   8.195   1.098  0.2186  0.1507 -0.6076
11272SOL     OW34978   4.788   7.752   6.882 -0.1498  0.3396  0.1458
11272SOL    HW134979   4.743   7.835   6.867  0.9590  0.9778  0.3042
11272SOL    HW234980   4.829   7.732   6.798  0.1466  0.2971  0.3007
11273SOL     OW34981   8.328   8.092   7.733 -0.1559  0.0570  0.0338
11273SOL    HW134982   8.242   8.132   7.727 -0.2490  0.0806  1.3100
11273SOL    HW234983   8.378   8.132   7.661 -1.0649  0.3557 -0.4519
11274SOL     OW34984   1.569   2.637   0.060 -0.3299 -0.4681  0.3845
11274SOL    HW134985   1.476   2.647   0.039 -0.0130  0.1722 -0.8373
11274SOL    HW234986   1.596   2.559   0.012  0.5875  1.4559 -2.5001
11275SOL     OW34987   1.635   4.454   3.991  0.2297 -0.4024 -0.0459
11275SOL    HW134988   1.672   4.522   3.935  0.0684  0.3697  0.7626
11275SOL    HW234989   1.591   4.502   4.061 -1.5676 -1.2937 -0.5047
11276SOL     OW34990   0.376   6.502   2.850  0.1762 -0.8533  0.3346
11276SOL    HW134991   0.392   6.457   2.933  0.7810 -0.5786  0.3722
11276SOL    HW234992   0.444   6.569   2.845  0.5621 -1.2968 -0.7040
11277SOL     OW34993   0.315   6.935   7.691  0.7064  0.5109 -0.1331
11277SOL    HW134994   0.399   6.979   7.678  0.7097  0.2929 -0.9645
11277SOL    HW234995   0.308   6.922   7.785  1.7588  0.2338 -0.0808
11278SOL     OW34996   2.459   7.161   2.396  0.6648 -0.1481  0.4958
11278SOL    HW134997   2.457   7.214   2.475  1.1884  0.8191 -0.1180
11278SOL    HW234998   2.454   7.224   2.324 -0.1987 -1.0269 -0.2473
11279SOL     OW34999   7.255   4.679   4.460 -0.2404 -0.2919  0.5522
11279SOL    HW135000   7.261   4.645   4.549  0.1546 -0.5532  0.4282
11279SOL    HW235001   7.310   4.756   4.460  0.4075 -0.7452  0.3264
11280SOL     OW35002   1.926   7.173   5.023  0.2248 -0.4709 -0.4391
11280SOL    HW135003   1.995   7.109   5.006  1.4136  1.2883 -2.8978
11280SOL    HW235004   1.973   7.254   5.041 -1.1723  0.7661 -2.0748
11281SOL     OW35005   6.801   0.874   3.359  0.4550 -0.2537 -0.1843
11281SOL    HW135006   6.848   0.854   3.279  0.3024  0.4261 -0.4550
11281SOL    HW235007   6.855   0.940   3.403 -1.0602  1.9367 -1.3887
11282SOL     OW35008   1.699   3.727   2.883  0.6686  0.5094 -0.2345
11282SOL    HW135009   1.763   3.656   2.880 -0.0685 -0.1664 -0.3080
11282SOL    HW235010   1.631   3.696   2.943 -0.8195  0.1574 -2.0153
11283SOL     OW35011   1.939   3.839   3.805 -0.3224  0.5014  0.0386
11283SOL    HW135012   1.943   3.869   3.714 -1.1608  0.5557  0.0051
11283SOL    HW235013   2.027   3.854   3.840 -0.0749  0.7530 -0.6792
11284SOL     OW35014   0.833   6.555   4.675  0.0680  0.4707  0.0757
11284SOL    HW135015   0.900   6.585   4.613  0.9830 -1.7969 -0.1106
11284SOL    HW235016   0.825   6.461   4.659 -1.5582  0.2778  1.6559
11285SOL     OW35017   7.021   5.150   4.963 -0.2667  0.1473  0.3466
11285SOL    HW135018   6.931   5.181   4.970 -0.7489 -0.5762 -1.7894
11285SOL    HW235019   7.017   5.080   4.897  1.9297  0.3791 -0.1072
11286SOL     OW35020   6.095   3.949   4.749  0.9577  0.2241 -0.4035
11286SOL    HW135021   6.013   3.919   4.711 -0.1931  2.3373  0.2356
11286SOL    HW235022   6.112   4.034   4.707  0.8147  1.5724  2.0673
11287SOL     OW35023   1.744   5.395   0.325 -0.4412  0.2681  0.4734
11287SOL    HW135024   1.658   5.393   0.367  0.3218  0.0832  2.0825
11287SOL    HW235025   1.792   5.323   0.364  1.2484  1.8264  1.4497
11288SOL     OW35026   2.693   6.659   3.109 -0.4906  0.1832 -0.2175
11288SOL    HW135027   2.766   6.663   3.170  0.0262 -0.5192 -0.7832
11288SOL    HW235028   2.623   6.709   3.152 -0.0803 -0.1483  0.8605
11289SOL     OW35029   4.562   0.236   3.079  0.6323  0.0837  0.1373
11289SOL    HW135030   4.500   0.309   3.086  1.0999  0.5320 -0.3300
11289SOL    HW235031   4.646   0.278   3.057  1.0556 -0.5327  0.5406
11290SOL     OW35032   1.382   1.214   2.411 -0.5781 -0.6510  0.6277
11290SOL    HW135033   1.356   1.133   2.456 -1.1091 -1.2094 -0.6315
11290SOL    HW235034   1.349   1.203   2.322  0.6997  0.2946  0.0111
11291SOL     OW35035   6.414   4.418   3.103 -0.0789  0.1285  0.5621
11291SOL    HW135036   6.502   4.451   3.083  0.0849 -1.0410 -0.8533
11291SOL    HW235037   6.394   4.452   3.190  1.8564  0.2722  0.9922
11292SOL     OW35038   0.703   8.479   5.366 -0.3862  0.2147 -0.6076
11292SOL    HW135039   0.641   8.414   5.400 -0.4925  0.6624  0.0847
11292SOL    HW235040   0.655   8.561   5.370  0.1964  0.5422 -0.2112
11293SOL     OW35041   2.759   6.397   5.028  0.0375  0.8616 -0.6165
11293SOL    HW135042   2.847   6.368   5.052 -0.4064  0.3535  0.4431
11293SOL    HW235043   2.764   6.413   4.934  0.6391 -1.4651 -1.0412
11294SOL     OW35044   1.105   2.850   1.093  0.1779 -0.2265 -0.2937
11294SOL    HW135045   1.196   2.860   1.068  0.1660  0.8369  0.0342
11294SOL    HW235046   1.072   2.779   1.038  0.6516  0.7509 -1.9141
11295SOL     OW35047   6.407   6.529   0.042  0.0075 -0.0958 -0.6105
11295SOL    HW135048   6.340   6.536  -0.026 -0.1686  1.4152 -0.3091
11295SOL    HW235049   6.396   6.440   0.077  0.5100 -1.1244 -2.9167
11296SOL     OW35050   3.311   7.185   5.128 -0.9598  0.0201  0.5279
11296SOL    HW135051   3.250   7.120   5.163 -1.7235  0.3122 -0.2339
11296SOL    HW235052   3.267   7.220   5.051  1.0941 -1.3854 -1.4329
11297SOL     OW35053   0.960   3.800   8.131  0.0837 -0.0253  0.3567
11297SOL    HW135054   0.889   3.849   8.091  1.3672  0.7535 -1.0305
11297SOL    HW235055   1.033   3.862   8.137  0.9756 -1.0784  0.8082
11298SOL     OW35056   1.450   8.770   2.790  0.3500 -0.4984  0.3305
11298SOL    HW135057   1.499   8.690   2.812 -0.2374 -0.5562  1.5132
11298SOL    HW235058   1.510   8.841   2.812  1.8691 -0.5180 -3.0149
11299SOL     OW35059   7.823   0.287   8.046 -0.7842 -0.5924 -0.2301
11299SOL    HW135060   7.840   0.381   8.042  0.7236 -0.8814 -1.9235
11299SOL    HW235061   7.758   0.271   7.977 -0.3679 -0.9061 -0.5545
11300SOL     OW35062   4.566   8.813   3.542 -0.4085 -0.0329 -0.1370
11300SOL    HW135063   4.599   8.844   3.626 -1.2160  0.9592 -0.1659
11300SOL    HW235064   4.580   8.887   3.483  0.3132 -0.7806 -0.9363
11301SOL     OW35065   7.790   2.408   3.821 -0.6407 -0.2395  0.0559
11301SOL    HW135066   7.761   2.433   3.909  0.2076 -0.3698  0.3893
11301SOL    HW235067   7.875   2.452   3.811 -1.0425  0.3285 -0.9726
11302SOL     OW35068   4.384   4.965   5.541 -0.3532 -0.9358 -0.6771
11302SOL    HW135069   4.321   4.940   5.609 -0.6474  0.6979 -0.3099
11302SOL    HW235070   4.465   4.980   5.588 -0.9188  1.6474 -0.4015
11303SOL     OW35071   5.284   2.275   5.679 -0.0628  0.0691  0.0709
11303SOL    HW135072   5.347   2.259   5.750  0.2722  1.6319  0.1801
11303SOL    HW235073   5.291   2.369   5.663  0.3261 -0.3293 -2.4687
11304SOL     OW35074   5.917   8.694   4.071 -0.4686  0.1292  0.7400
11304SOL    HW135075   5.948   8.741   3.993 -0.2723  0.5589  1.0744
11304SOL    HW235076   5.996   8.680   4.123 -0.5991 -0.1621  0.8584
11305SOL     OW35077   2.358   7.338   6.490  0.8482 -0.1615  0.0580
11305SOL    HW135078   2.330   7.411   6.546  0.7949 -0.6667  0.6950
11305SOL    HW235079   2.425   7.293   6.540  0.3000 -1.0447  0.0257
11306SOL     OW35080   1.414   3.498   8.678  0.2593 -0.2798 -0.1590
11306SOL    HW135081   1.379   3.587   8.681  0.2728 -0.1606 -2.3924
11306SOL    HW235082   1.509   3.509   8.672  0.2416 -0.4373 -0.7514
11307SOL     OW35083   6.863   8.430   3.996 -0.1106 -0.7625 -0.3104
11307SOL    HW135084   6.956   8.446   3.984 -0.0344 -0.0887  0.9633
11307SOL    HW235085   6.847   8.345   3.955  0.9168 -0.5786 -1.1256
11308SOL     OW35086   6.283   0.736   4.317 -0.0028  0.3981  0.2866
11308SOL    HW135087   6.363   0.697   4.353 -0.9575  0.2415  2.3483
11308SOL    HW235088   6.287   0.828   4.346 -1.5595 -0.1087  2.2780
11309SOL     OW35089   4.953   4.095   4.956 -0.2575  0.0433 -0.4967
11309SOL    HW135090   4.901   4.174   4.972 -0.1628  0.0440 -0.1877
11309SOL    HW235091   4.953   4.086   4.861 -2.5904 -1.1376 -0.4560
11310SOL     OW35092   1.161   3.749   7.850  0.7916  0.1117  0.1790
11310SOL    HW135093   1.087   3.765   7.793  1.6743  0.8727 -0.7820
11310SOL    HW235094   1.213   3.683   7.805  2.0395  1.4696 -0.4603
11311SOL     OW35095   7.726   6.368   3.202 -0.1144  0.6581 -0.5027
11311SOL    HW135096   7.808   6.375   3.250 -0.3725  1.6624 -0.1811
11311SOL    HW235097   7.750   6.327   3.119  0.2767 -1.4424  0.5900
11312SOL     OW35098   2.308   2.653   6.741 -0.1001 -0.1237 -0.2207
11312SOL    HW135099   2.349   2.569   6.759 -0.3075 -0.1352  0.2232
11312SOL    HW235100   2.355   2.688   6.665 -0.8390 -1.2001 -1.2001
11313SOL     OW35101   1.128   2.968   0.828 -0.0670 -0.5409  0.0011
11313SOL    HW135102   1.123   2.975   0.923  0.7674 -0.2920  0.0375
11313SOL    HW235103   1.222   2.965   0.810 -0.0316  2.7841 -1.0399
11314SOL     OW35104   8.379   4.833   6.365 -0.3214  0.6125 -0.0522
11314SOL    HW135105   8.390   4.863   6.455  0.0093  1.6119 -0.4037
11314SOL    HW235106   8.287   4.809   6.358 -0.1758 -0.2389  0.7608
11315SOL     OW35107   0.634   1.598   3.834 -0.0861  0.2927 -0.1141
11315SOL    HW135108   0.596   1.513   3.855 -1.3078  0.9954  0.6308
11315SOL    HW235109   0.634   1.646   3.917 -0.6341  1.4726 -0.7745
11316SOL     OW35110   5.545   3.885   7.072 -0.2280  0.2695 -0.4773
11316SOL    HW135111   5.492   3.958   7.106  1.2083  0.8533  0.6289
11316SOL    HW235112   5.618   3.879   7.133 -1.1229 -3.2204  0.4473
11317SOL     OW35113   5.147   7.966   3.796 -0.2420  0.1782  0.3963
11317SOL    HW135114   5.170   8.018   3.873 -1.3957  1.5202 -0.1127
11317SOL    HW235115   5.160   7.875   3.824 -0.7096  0.6161  2.2100
11318SOL     OW35116   0.738   1.520   0.256  0.2523 -0.1189  0.0739
11318SOL    HW135117   0.727   1.610   0.286 -2.1135 -0.2448 -0.2525
11318SOL    HW235118   0.687   1.515   0.176  1.5887 -1.3875 -0.7508
11319SOL     OW35119   3.949   4.795   8.542 -0.3587  0.4716  0.3516
11319SOL    HW135120   3.981   4.759   8.625 -0.4763  0.6725  0.4864
11319SOL    HW235121   3.944   4.720   8.483 -1.0300  0.1903  0.7642
11320SOL     OW35122   4.699   4.677   6.922  0.1684 -0.3548  0.0601
11320SOL    HW135123   4.787   4.685   6.884 -0.0358 -0.9826 -0.5822
11320SOL    HW235124   4.689   4.583   6.938  0.4130 -0.0661  2.1281
11321SOL     OW35125   3.046   2.781   6.682  0.0223  0.0966  0.5032
11321SOL    HW135126   2.954   2.760   6.668  0.1508  0.8056 -1.9092
11321SOL    HW235127   3.093   2.721   6.624  0.9428  0.9660  0.3291
11322SOL     OW35128   5.885   0.840   2.254 -0.3298  0.3129  0.7478
11322SOL    HW135129   5.975   0.831   2.288  0.5296  0.5443 -1.3385
11322SOL    HW235130   5.836   0.772   2.300  1.3162 -1.0377  0.6200
11323SOL     OW35131   7.468   0.521   5.761  0.4399  0.8650 -0.1850
11323SOL    HW135132   7.560   0.540   5.743  1.1320 -1.0514  0.9924
11323SOL    HW235133   7.470   0.460   5.834 -1.7043 -0.4880 -1.1513
11324SOL     OW35134   2.079   8.769   0.702 -0.1818 -0.0300  0.1185
11324SOL    HW135135   2.133   8.801   0.774 -2.5966  0.7647  1.6899
11324SOL    HW235136   2.060   8.678   0.724  1.7996 -0.8589 -1.3106
11325SOL     OW35137   2.801   1.663   2.044 -0.1908 -0.4765 -0.3340
11325SOL    HW135138   2.816   1.725   2.116 -1.6857  1.3574 -1.5177
11325SOL    HW235139   2.742   1.597   2.081 -0.5719  0.1894  0.2633
11326SOL     OW35140   6.626   5.644   4.810  0.4841 -0.0181 -0.0025
11326SOL    HW135141   6.632   5.698   4.731 -1.8387 -1.7391 -1.4900
11326SOL    HW235142   6.554   5.682   4.860  0.5103 -0.2089  0.1816
11327SOL     OW35143   4.500   3.567   0.542  0.4792 -0.1410 -0.0314
11327SOL    HW135144   4.459   3.599   0.622  1.2044  0.1770  0.2282
11327SOL    HW235145   4.501   3.472   0.553  0.3530 -0.1151  0.2262
11328SOL     OW35146   8.769   5.153   8.753  0.1143  0.2076  0.2152
11328SOL    HW135147   8.688   5.168   8.801  0.1898  0.4282  0.2753
11328SOL    HW235148   8.798   5.241   8.728  1.3905  0.3160  1.9206
11329SOL     OW35149   0.579   3.905   3.891  0.0118 -0.5253  0.3179
11329SOL    HW135150   0.547   3.818   3.917  0.5825 -0.5362  1.0101
11329SOL    HW235151   0.654   3.921   3.948  0.1222  0.2816 -0.0405
11330SOL     OW35152   7.769   6.782   6.159  0.2576 -0.1667 -0.2016
11330SOL    HW135153   7.680   6.764   6.191 -0.1098 -1.2296 -1.7031
11330SOL    HW235154   7.803   6.696   6.134  1.0001  0.4462 -1.3864
11331SOL     OW35155   3.728   2.232   1.954  0.3901  0.3252  0.5855
11331SOL    HW135156   3.697   2.310   2.000  0.4117 -0.5448  2.1412
11331SOL    HW235157   3.711   2.160   2.015  0.2397 -0.9189 -0.8570
11332SOL     OW35158   8.416   7.936   2.347  0.1206  0.2552 -0.3085
11332SOL    HW135159   8.467   7.870   2.395  1.0022  1.0962 -0.0565
11332SOL    HW235160   8.366   7.982   2.414 -0.7367 -0.3517 -0.5202
11333SOL     OW35161   7.900   8.451   0.364 -0.3661  0.6418 -0.1495
11333SOL    HW135162   7.867   8.470   0.452 -1.7439  0.4823 -0.6096
11333SOL    HW235163   7.947   8.531   0.338 -1.3945  1.3551  0.0905
11334SOL     OW35164   8.650   1.740   3.387  1.1083  0.3533 -0.5974
11334SOL    HW135165   8.640   1.649   3.415  0.3938  0.9944  1.4264
11334SOL    HW235166   8.706   1.780   3.454  0.6448  1.6172 -0.9299
11335SOL     OW35167   7.789   4.730   0.121  0.2318  0.2689 -0.2233
11335SOL    HW135168   7.777   4.824   0.136 -1.2045 -0.1452  1.7028
11335SOL    HW235169   7.734   4.710   0.045  0.2864  0.9161 -0.4364
11336SOL     OW35170   2.071   1.778   7.457  0.1009 -0.6226  0.0618
11336SOL    HW135171   1.982   1.745   7.465  0.4284 -1.3286  0.9287
11336SOL    HW235172   2.083   1.793   7.363 -1.3804  0.7888  0.0510
11337SOL     OW35173   1.933   3.442   8.009  0.2565  0.1743 -0.7612
11337SOL    HW135174   1.841   3.419   7.995  0.5860 -1.3690 -0.5494
11337SOL    HW235175   1.930   3.516   8.069 -0.8626  0.3592 -1.0281
11338SOL     OW35176   6.068   4.092   2.846 -0.0719  0.6682  0.2297
11338SOL    HW135177   6.131   4.164   2.837  0.0724  0.3572 -1.5275
11338SOL    HW235178   6.076   4.065   2.937  1.4608  1.4405  0.3562
11339SOL     OW35179   7.348   4.117   6.906  0.2162  0.6199 -0.1256
11339SOL    HW135180   7.337   4.211   6.918  1.2813  0.4775  2.7089
11339SOL    HW235181   7.277   4.078   6.957  0.0921 -0.1485 -0.8551
11340SOL     OW35182   6.823   2.532   1.867  0.0283 -0.8890 -0.3705
11340SOL    HW135183   6.832   2.573   1.953 -0.0070  0.1428 -0.8414
11340SOL    HW235184   6.859   2.597   1.806 -1.3471 -0.9405 -1.2857
11341SOL     OW35185   1.118   5.964   5.348  0.0417 -0.1681  0.2572
11341SOL    HW135186   1.100   5.886   5.400 -3.2546  0.4881  0.2988
11341SOL    HW235187   1.090   5.941   5.259 -0.5032  0.7889  0.1713
11342SOL     OW35188   4.334   7.439   7.460 -0.2594 -0.0871  0.2542
11342SOL    HW135189   4.368   7.471   7.544 -0.9776 -0.2244  0.6054
11342SOL    HW235190   4.239   7.452   7.466 -0.2873  0.2398 -0.6838
11343SOL     OW35191   7.533   7.903   4.672  0.0899 -0.1887 -0.1827
11343SOL    HW135192   7.594   7.925   4.602  0.6009 -2.6099 -0.5908
11343SOL    HW235193   7.449   7.936   4.641  0.3566 -0.9618 -1.8759
11344SOL     OW35194   7.872   4.375   7.609 -0.2432  0.7548  0.1228
11344SOL    HW135195   7.826   4.337   7.684 -0.0396 -0.6950 -0.4468
11344SOL    HW235196   7.964   4.381   7.637 -0.2065  0.4273  0.0797
11345SOL     OW35197   0.426   8.252   8.466 -0.2700  0.7504 -0.1300
11345SOL    HW135198   0.471   8.167   8.463  1.8375  1.8476 -2.2881
11345SOL    HW235199   0.343   8.237   8.420  0.1018 -0.1153 -0.5392
11346SOL     OW35200   2.541   3.159   3.281  0.1210 -0.4167  0.0553
11346SOL    HW135201   2.626   3.118   3.268  1.1679  2.0440 -1.4673
11346SOL    HW235202   2.479   3.099   3.238  1.2663 -1.3957 -0.2819
11347SOL     OW35203   6.260   5.972   1.961  0.7956 -0.0034 -0.0933
11347SOL    HW135204   6.220   5.928   1.886  1.9217 -0.6837 -0.3214
11347SOL    HW235205   6.191   5.972   2.028 -0.2092  0.5690 -1.0896
11348SOL     OW35206   7.913   0.787   5.243 -0.2202 -0.5124  0.0596
11348SOL    HW135207   7.852   0.717   5.268  0.0586 -0.7156  0.1706
11348SOL    HW235208   7.969   0.748   5.176 -0.2374 -0.3118 -0.0725
11349SOL     OW35209   5.253   8.612   7.312  0.9173 -0.0239  0.6339
11349SOL    HW135210   5.314   8.549   7.273  1.3037  0.5284  0.3365
11349SOL    HW235211   5.170   8.565   7.316  0.7632  0.0248 -1.2082
11350SOL     OW35212   4.983   0.697   6.741  0.1359  0.2710  0.6589
11350SOL    HW135213   4.963   0.786   6.711 -1.3859 -0.0015  0.7568
11350SOL    HW235214   5.074   0.683   6.716  0.2295  1.6431  0.1258
11351SOL     OW35215   4.883   2.539   5.424  0.1178  0.2502  0.0178
11351SOL    HW135216   4.857   2.449   5.444  1.7926 -0.1575  0.4640
11351SOL    HW235217   4.868   2.586   5.506  1.1682 -0.0910  0.4264
11352SOL     OW35218   5.719   1.112   3.961  0.2074  0.4086 -0.5634
11352SOL    HW135219   5.627   1.089   3.974 -0.1137  1.3398 -1.0839
11352SOL    HW235220   5.765   1.029   3.962 -0.4066  0.0454  1.4347
11353SOL     OW35221   1.580   4.025   6.602 -0.4361  0.3881  0.2809
11353SOL    HW135222   1.534   4.081   6.664 -0.5240  0.0811  0.4991
11353SOL    HW235223   1.612   3.952   6.655 -1.9404 -0.7443 -0.2745
11354SOL     OW35224   4.498   8.475   6.249 -0.1093 -0.5002  0.3830
11354SOL    HW135225   4.441   8.506   6.319  1.2006  1.3213  0.7008
11354SOL    HW235226   4.474   8.528   6.173  1.7595  0.9930  0.7756
11355SOL     OW35227   0.042   5.997   4.394 -0.4446  1.0167 -0.0267
11355SOL    HW135228   0.033   5.998   4.489 -2.7248 -1.8279 -0.0887
11355SOL    HW235229   0.030   6.088   4.368  0.5472  1.9181  2.3781
11356SOL     OW35230   7.728   6.508   7.626  0.5276  0.3852 -0.3161
11356SOL    HW135231   7.708   6.459   7.706  0.5733  0.4397 -0.2710
11356SOL    HW235232   7.693   6.454   7.555  1.6668 -0.3304 -0.3713
11357SOL     OW35233   5.425   5.999   2.572  0.1032 -0.1115 -0.3393
11357SOL    HW135234   5.349   6.034   2.619  0.9292  1.9473 -0.4451
11357SOL    HW235235   5.403   6.008   2.479  0.2394 -0.0756 -0.3689
11358SOL     OW35236   2.201   8.121   7.643 -0.0191  0.6502  0.2478
11358SOL    HW135237   2.266   8.051   7.634  0.4758  0.8320  2.0345
11358SOL    HW235238   2.121   8.077   7.671  0.3188  0.7753  1.4681
11359SOL     OW35239   1.534   5.727   7.185 -0.0193 -0.2537  0.5929
11359SOL    HW135240   1.482   5.800   7.152  0.8923  0.1626  0.0336
11359SOL    HW235241   1.495   5.649   7.145  0.6576  0.1830 -0.9884
11360SOL     OW35242   0.780   8.581   6.970 -0.3403 -0.1293  0.2831
11360SOL    HW135243   0.831   8.661   6.977  0.2400 -0.1547 -2.4911
11360SOL    HW235244   0.833   8.515   7.015  0.0665  0.6516  0.9794
11361SOL     OW35245   3.143   3.992   2.125 -0.2890 -0.2145  0.4943
11361SOL    HW135246   3.208   4.061   2.143 -0.2332 -0.6806  2.2204
11361SOL    HW235247   3.182   3.942   2.053  1.7621 -1.0361  2.0705
11362SOL     OW35248   5.545   4.173   7.597  0.0676  0.1326 -0.1329
11362SOL    HW135249   5.615   4.109   7.584 -0.2112 -0.1232 -0.4146
11362SOL    HW235250   5.512   4.156   7.685 -1.2608 -1.3910 -0.8748
11363SOL     OW35251   2.195   7.635   3.507  0.0702  0.4566 -0.0863
11363SOL    HW135252   2.162   7.704   3.450  0.4613 -1.1308 -2.3657
11363SOL    HW235253   2.239   7.574   3.448  0.5484 -1.2776  1.9400
11364SOL     OW35254   4.959   8.488   4.968 -0.6768  0.2462 -0.4284
11364SOL    HW135255   4.917   8.509   4.885 -1.3224 -2.5727 -0.9038
11364SOL    HW235256   4.983   8.396   4.961  1.4031  0.5220  1.6412
11365SOL     OW35257   8.538   7.345   7.047 -0.3191  0.2041  0.6929
11365SOL    HW135258   8.466   7.398   7.014  0.6558  1.8973  1.1671
11365SOL    HW235259   8.514   7.325   7.137 -0.2251  0.7446  0.8430
11366SOL     OW35260   1.887   8.722   4.253 -0.3114 -0.4692 -0.4347
11366SOL    HW135261   1.899   8.751   4.344  0.5629  0.0401 -0.6966
11366SOL    HW235262   1.795   8.738   4.234 -0.0603  1.3778 -0.2862
11367SOL     OW35263   2.533   4.058   3.157 -0.0094 -0.0015  0.0885
11367SOL    HW135264   2.542   4.122   3.227  1.1932 -0.3167  0.2298
11367SOL    HW235265   2.595   4.086   3.090 -1.4820  0.5809 -1.1093
11368SOL     OW35266   2.702   6.052   0.149  0.0563 -0.5002 -0.3462
11368SOL    HW135267   2.679   6.125   0.092  0.0475  0.8250  1.2737
11368SOL    HW235268   2.787   6.021   0.117  0.0454  0.2143 -1.0611
11369SOL     OW35269   5.748   8.072   8.838 -0.3607 -0.5485 -0.4141
11369SOL    HW135270   5.767   8.166   8.841 -1.1210 -0.3842 -0.5411
11369SOL    HW235271   5.753   8.050   8.745  3.0426 -1.3475 -0.1600
11370SOL     OW35272   5.688   0.277   4.342 -0.4062 -0.1581  0.6392
11370SOL    HW135273   5.781   0.293   4.327 -1.2636  3.4349 -2.6538
11370SOL    HW235274   5.665   0.208   4.280 -0.1341 -0.2586  0.6493
11371SOL     OW35275   8.082   8.061   6.096 -0.1392  0.7097  0.4235
11371SOL    HW135276   8.155   8.079   6.154  0.0131 -0.7945  0.7284
11371SOL    HW235277   8.110   7.986   6.044 -1.9114 -0.7477  1.4352
11372SOL     OW35278   6.512   4.315   5.069 -0.1535  0.3413  0.2464
11372SOL    HW135279   6.555   4.399   5.080  1.1224  0.3800 -3.5167
11372SOL    HW235280   6.583   4.253   5.052 -1.2291 -0.7359 -0.5805
11373SOL     OW35281   1.544   6.258   8.062  0.3710 -0.4198  0.2645
11373SOL    HW135282   1.561   6.229   8.152 -2.3786 -0.0985  0.9687
11373SOL    HW235283   1.564   6.352   8.064 -0.1789 -0.3074  0.6922
11374SOL     OW35284   0.172   8.022   6.047  0.2462 -0.2142 -0.5545
11374SOL    HW135285   0.263   8.042   6.025 -0.3811  2.8133 -0.7835
11374SOL    HW235286   0.124   8.034   5.965 -0.5978  0.0369 -0.0365
11375SOL     OW35287   4.379   6.446   5.148  0.7001 -0.0419 -0.4260
11375SOL    HW135288   4.445   6.464   5.081 -0.7420  1.6643 -1.4758
11375SOL    HW235289   4.324   6.378   5.108  1.0022 -0.4839 -0.1058
11376SOL     OW35290   0.294   5.464   6.641 -0.5814 -0.4690  0.3361
11376SOL    HW135291   0.318   5.465   6.734  1.3262  2.4385 -0.0855
11376SOL    HW235292   0.374   5.436   6.596 -0.5073  1.1215 -0.5817
11377SOL     OW35293   2.907   4.336   1.151 -0.8788 -0.4414  0.0918
11377SOL    HW135294   2.949   4.284   1.083 -1.0442 -0.4751  0.0156
11377SOL    HW235295   2.855   4.401   1.104  1.1602  1.3501  0.1418
11378SOL     OW35296   1.670   0.912   8.365  0.1685  0.0706 -0.0229
11378SOL    HW135297   1.681   0.921   8.271 -0.6248  0.0809 -0.1207
11378SOL    HW235298   1.617   0.832   8.375  2.6819 -1.6492  0.5681
11379SOL     OW35299   7.801   0.840   2.621 -0.3964 -0.1591  0.1033
11379SOL    HW135300   7.747   0.838   2.543  0.4938 -0.8294 -0.5107
11379SOL    HW235301   7.750   0.891   2.684 -0.2464  2.1625 -1.5401
11380SOL     OW35302   4.910   5.302   2.732 -0.5309 -0.0532 -0.6552
11380SOL    HW135303   4.837   5.241   2.723 -1.5939  1.2721 -1.2906
11380SOL    HW235304   4.869   5.385   2.756  0.8300  0.5808 -0.4490
11381SOL     OW35305   1.380   3.132   5.922 -0.0524  0.4168 -0.2161
11381SOL    HW135306   1.335   3.052   5.895  0.2844 -0.1422  0.8216
11381SOL    HW235307   1.354   3.198   5.857 -1.5065 -0.1574 -0.2424
11382SOL     OW35308   6.253   8.166   7.445 -0.8946 -0.2471 -0.2358
11382SOL    HW135309   6.293   8.249   7.469 -1.6629  0.5677 -1.6114
11382SOL    HW235310   6.161   8.187   7.429 -1.2177 -1.4678 -0.1060
11383SOL     OW35311   5.769   2.240   5.333 -0.4488  0.1867  0.1960
11383SOL    HW135312   5.692   2.297   5.334 -1.6569 -1.3399 -0.6407
11383SOL    HW235313   5.765   2.193   5.416 -1.2613 -0.8894 -0.4179
11384SOL     OW35314   7.190   8.740   0.219 -0.0904 -0.3344  0.5337
11384SOL    HW135315   7.282   8.758   0.234  0.6991 -3.1222 -0.3489
11384SOL    HW235316   7.175   8.767   0.128 -0.2341  0.3162  0.7429
11385SOL     OW35317   4.607   1.257   4.602 -0.4440  0.2865  0.5360
11385SOL    HW135318   4.557   1.240   4.522 -0.1877 -0.2185  0.4802
11385SOL    HW235319   4.622   1.170   4.639 -1.8941  0.6030  1.9584
11386SOL     OW35320   5.513   1.690   2.530 -0.3365 -0.0708  0.4076
11386SOL    HW135321   5.580   1.746   2.490  0.2661 -1.9234 -1.3899
11386SOL    HW235322   5.563   1.621   2.575 -1.0444 -0.3409  0.7958
11387SOL     OW35323   5.247   5.470   0.713 -0.1809  0.5565  0.6020
11387SOL    HW135324   5.209   5.385   0.691  1.0200  0.2965 -0.6374
11387SOL    HW235325   5.296   5.495   0.635 -0.4527  2.3825  0.9537
11388SOL     OW35326   5.452   4.627   4.731  0.6764 -0.6409 -0.2134
11388SOL    HW135327   5.506   4.620   4.652 -0.1811 -1.4066 -0.7572
11388SOL    HW235328   5.384   4.561   4.719 -0.4019  0.3067  0.4320
11389SOL     OW35329   5.537   4.937   8.024  0.4731  0.2535 -0.2999
11389SOL    HW135330   5.450   4.918   8.061  0.6367 -1.1870 -0.6094
11389SOL    HW235331   5.574   4.851   8.005  1.1321  0.9130 -2.1331
11390SOL     OW35332   3.781   1.953   4.150 -0.2542  0.2757 -0.1206
11390SOL    HW135333   3.834   1.902   4.210 -0.0928  1.8189  1.1159
11390SOL    HW235334   3.844   2.006   4.100 -0.5336  2.3959  1.6176
11391SOL     OW35335   3.271   6.706   0.559 -0.0627 -0.1695  0.0797
11391SOL    HW135336   3.356   6.714   0.603 -0.1345  1.0676  0.0316
11391SOL    HW235337   3.280   6.760   0.481 -1.2846  0.9692  0.6965
11392SOL     OW35338   6.758   0.765   7.835 -0.1228 -0.2091  0.2384
11392SOL    HW135339   6.674   0.778   7.792  0.5705 -1.1065 -1.4671
11392SOL    HW235340   6.808   0.845   7.816  0.0645 -0.4659 -0.3769
11393SOL     OW35341   8.190   0.300   6.932 -0.8950 -0.0676  0.5461
11393SOL    HW135342   8.204   0.358   7.007  2.2522 -2.1466  1.7940
11393SOL    HW235343   8.188   0.358   6.856  2.4942  1.7705  1.6570
11394SOL     OW35344   7.243   6.388   1.495 -0.0414  0.0417  0.4047
11394SOL    HW135345   7.272   6.307   1.453 -1.4796 -0.4787  0.3592
11394SOL    HW235346   7.149   6.391   1.479  0.1463  2.3537 -0.6555
11395SOL     OW35347   3.616   7.427   2.279  0.0616  0.4202 -0.3317
11395SOL    HW135348   3.686   7.390   2.332 -1.0253 -3.0683 -1.0851
11395SOL    HW235349   3.642   7.410   2.189 -0.2435  2.1339 -0.7790
11396SOL     OW35350   2.700   0.426   3.120 -0.0528  0.1907  0.3636
11396SOL    HW135351   2.730   0.353   3.066  1.3848 -0.0515  1.4323
11396SOL    HW235352   2.685   0.497   3.057 -0.4118 -0.6834 -0.5716
11397SOL     OW35353   4.779   5.115   4.434 -0.1497 -0.4080 -0.4154
11397SOL    HW135354   4.856   5.128   4.379  0.7391 -0.2072  0.8202
11397SOL    HW235355   4.704   5.131   4.376  0.7083 -1.1147 -1.7757
11398SOL     OW35356   2.143   8.239   1.235 -0.1701  0.4190  0.3634
11398SOL    HW135357   2.230   8.210   1.210  0.1361 -1.4755  3.0701
11398SOL    HW235358   2.086   8.212   1.162  1.2462  0.0263 -0.6270
11399SOL     OW35359   4.853   3.422   6.540  0.4893  0.4520  0.2557
11399SOL    HW135360   4.846   3.336   6.498 -0.2874  0.8011 -0.3335
11399SOL    HW235361   4.792   3.418   6.613  0.2348  0.6058  0.0519
11400SOL     OW35362   6.641   3.511   2.558 -0.1829  0.4425  0.1653
11400SOL    HW135363   6.607   3.513   2.648  0.7575 -0.5862  0.5831
11400SOL    HW235364   6.723   3.560   2.563 -0.5755  1.1499 -0.3445
11401SOL     OW35365   7.176   4.758   4.914 -0.4245  0.9481  0.3501
11401SOL    HW135366   7.268   4.779   4.898 -0.4263  0.8769  0.2467
11401SOL    HW235367   7.159   4.789   5.002 -0.0022 -0.0207  0.7897
11402SOL     OW35368   5.317   3.226   1.396  0.0592  0.1319  0.6146
11402SOL    HW135369   5.411   3.221   1.382  0.0912  0.6690  0.5938
11402SOL    HW235370   5.297   3.155   1.457  0.3143 -0.6216 -0.1617
11403SOL     OW35371   5.900   3.224   5.656 -0.0643 -0.2011 -0.3103
11403SOL    HW135372   5.948   3.292   5.701 -0.8605  0.0135  0.2428
11403SOL    HW235373   5.812   3.260   5.644 -0.1353 -0.6283 -1.1807
11404SOL     OW35374   3.994   4.140   4.657 -0.1139  0.7414 -0.0233
11404SOL    HW135375   4.075   4.175   4.618  1.1849 -1.8488  0.1341
11404SOL    HW235376   4.007   4.150   4.752  0.2323 -0.0770  0.0191
11405SOL     OW35377   3.185   7.867   2.644  0.3201 -0.7039 -1.0087
11405SOL    HW135378   3.176   7.801   2.713 -0.6819  1.0122  0.6052
11405SOL    HW235379   3.270   7.849   2.604  1.7521 -0.7832  1.8023
11406SOL     OW35380   7.882   4.120   6.106 -0.5879  0.0770  0.4060
11406SOL    HW135381   7.923   4.205   6.124  0.8763 -0.7775  1.3663
11406SOL    HW235382   7.843   4.094   6.190  1.1105 -1.2641  0.8436
11407SOL     OW35383   7.143   2.509   1.433  0.6285  0.2196 -0.2566
11407SOL    HW135384   7.199   2.580   1.463 -0.8455  1.1175  0.4915
11407SOL    HW235385   7.199   2.431   1.436  1.3767  0.7698  2.0921
11408SOL     OW35386   5.913   4.220   0.708  1.5226 -0.3544  0.1173
11408SOL    HW135387   5.916   4.156   0.780  0.6509 -1.6823 -0.9844
11408SOL    HW235388   5.988   4.198   0.653  1.3468 -0.2806 -0.1506
11409SOL     OW35389   5.035   5.725   1.759 -0.0022  0.5843  0.4727
11409SOL    HW135390   4.985   5.652   1.796 -0.6368 -0.3026 -1.9208
11409SOL    HW235391   5.127   5.699   1.771 -0.2155 -0.3041  0.2851
11410SOL     OW35392   2.610   7.269   0.248 -0.1360 -0.7329  0.3939
11410SOL    HW135393   2.613   7.179   0.215  1.5173  0.0532 -1.8555
11410SOL    HW235394   2.533   7.307   0.206  0.4665 -0.4888 -0.5257
11411SOL     OW35395   8.721   3.996   4.130  0.3532  0.4989  0.6006
11411SOL    HW135396   8.767   3.921   4.093 -1.2541 -1.1917  1.7782
11411SOL    HW235397   8.632   3.989   4.094  0.2158  1.9181  0.6301
11412SOL     OW35398   3.308   4.940   0.050  0.8442 -0.2567  0.0971
11412SOL    HW135399   3.325   4.850   0.077 -0.5810 -0.2882  0.9672
11412SOL    HW235400   3.332   4.993   0.126  0.7950  0.0249 -0.0810
11413SOL     OW35401   4.904   6.193   6.300  0.5798  0.1853 -0.5086
11413SOL    HW135402   4.947   6.251   6.238  0.9934  1.1048  0.6053
11413SOL    HW235403   4.814   6.225   6.304  0.2294 -0.6228 -1.5011
11414SOL     OW35404   5.044   2.383   7.889 -0.4919  0.1169 -0.0466
11414SOL    HW135405   5.007   2.459   7.844  0.8482 -0.1340 -1.6617
11414SOL    HW235406   5.056   2.318   7.820  0.6363 -0.6848  0.8732
11415SOL     OW35407   3.119   4.180   5.613 -0.5886  0.6247  0.1357
11415SOL    HW135408   3.028   4.200   5.635 -0.2638 -0.6462  2.9780
11415SOL    HW235409   3.118   4.087   5.588 -0.2882  1.0342 -1.5308
11416SOL     OW35410   0.140   4.134   0.242  0.4383 -0.2925 -0.3642
11416SOL    HW135411   0.174   4.046   0.226  0.5735 -0.1389 -0.9502
11416SOL    HW235412   0.086   4.125   0.320 -0.0665 -1.0304 -0.7868
11417SOL     OW35413   2.540   3.852   4.225  0.1152  0.2782 -0.0396
11417SOL    HW135414   2.467   3.914   4.224  0.7445  1.0533  0.5906
11417SOL    HW235415   2.509   3.780   4.280 -0.9688 -0.4335 -1.5150
11418SOL     OW35416   8.730   6.508   2.985 -0.1455  0.2086  0.3938
11418SOL    HW135417   8.808   6.559   2.963  0.2932 -1.1426 -1.4851
11418SOL    HW235418   8.690   6.487   2.900 -2.0396  0.0408  1.2593
11419SOL     OW35419   0.855   2.247   7.407 -0.1001  0.1000 -0.0886
11419SOL    HW135420   0.906   2.323   7.378 -1.2785  0.2502 -1.9449
11419SOL    HW235421   0.879   2.177   7.346 -1.7315  0.0575 -0.7282
11420SOL     OW35422   7.770   1.714   4.994 -0.1673  0.3080 -0.4623
11420SOL    HW135423   7.785   1.701   5.087 -0.9962  0.0418 -0.3614
11420SOL    HW235424   7.858   1.717   4.956  0.1837  0.7424  0.3633
11421SOL     OW35425   8.834   6.762   1.245 -0.7099  0.2161  0.3157
11421SOL    HW135426   8.811   6.728   1.332 -3.0344  1.3881  0.2290
11421SOL    HW235427   8.752   6.758   1.196  0.2263  0.9900 -1.3536
11422SOL     OW35428   8.001   2.684   7.708 -0.4275  0.7757 -0.4064
11422SOL    HW135429   8.057   2.706   7.783 -0.1968 -1.0961  0.0195
11422SOL    HW235430   8.057   2.700   7.632 -0.2577  1.5411 -0.1399
11423SOL     OW35431   3.916   7.742   0.925 -0.4137  1.2113  0.3259
11423SOL    HW135432   3.897   7.771   1.014 -1.1504  0.9316  0.2686
11423SOL    HW235433   3.830   7.743   0.881 -0.0875  1.1590 -0.3210
11424SOL     OW35434   2.223   1.035   7.445 -0.0160  0.2911  0.6149
11424SOL    HW135435   2.150   1.013   7.504 -0.1246 -1.5435 -0.1305
11424SOL    HW235436   2.297   0.986   7.481  0.0046 -0.5528 -0.5161
11425SOL     OW35437   5.293   7.193   4.291 -0.3000 -0.4338 -0.6808
11425SOL    HW135438   5.274   7.221   4.202  0.5520 -1.5619 -1.2465
11425SOL    HW235439   5.385   7.217   4.305 -0.0626 -1.3673 -0.5715
11426SOL     OW35440   2.189   6.072   7.405  0.4824  0.4386  0.9244
11426SOL    HW135441   2.243   6.006   7.448 -0.2469 -0.6947  0.1646
11426SOL    HW235442   2.110   6.076   7.459  0.5755  0.7958  1.0387
11427SOL     OW35443   7.259   2.933   2.528 -0.1347 -0.1896  0.3332
11427SOL    HW135444   7.302   2.869   2.472  0.0058 -1.4006  1.7575
11427SOL    HW235445   7.167   2.906   2.529 -0.0375 -0.5149  1.1100
11428SOL     OW35446   2.496   4.540   5.410 -0.6960  0.5359  0.4473
11428SOL    HW135447   2.512   4.446   5.417 -1.6958  0.3757  0.6529
11428SOL    HW235448   2.583   4.577   5.393 -0.1641 -0.3374  1.1443
11429SOL     OW35449   1.757   3.674   6.963 -0.1309  0.5409 -0.1017
11429SOL    HW135450   1.827   3.694   7.025  0.2017  1.1463 -0.6515
11429SOL    HW235451   1.776   3.729   6.887 -1.6184  1.2740  0.0248
11430SOL     OW35452   7.596   3.470   7.775 -0.3528  0.1469  0.4815
11430SOL    HW135453   7.639   3.453   7.858  0.7317 -0.5379 -0.1992
11430SOL    HW235454   7.555   3.386   7.752  0.1174  0.0689 -0.0991
11431SOL     OW35455   3.140   7.431   7.495 -0.2510 -0.5746 -0.2412
11431SOL    HW135456   3.157   7.424   7.589 -0.7882  0.6755 -0.0333
11431SOL    HW235457   3.227   7.441   7.456 -0.1003  0.1259  0.2520
11432SOL     OW35458   8.284   1.978   1.662 -0.3355  0.0471 -0.4085
11432SOL    HW135459   8.344   2.042   1.700 -0.8081 -0.2915  0.9554
11432SOL    HW235460   8.341   1.904   1.640  0.2454  0.9443 -2.1653
11433SOL     OW35461   7.670   4.032   2.678  0.3780 -0.5065  0.6252
11433SOL    HW135462   7.741   4.007   2.619 -0.4952 -0.2747 -0.5421
11433SOL    HW235463   7.715   4.054   2.760  1.7921  0.7646 -0.4260
11434SOL     OW35464   7.416   5.222   6.393  0.0284 -0.6646  0.2224
11434SOL    HW135465   7.424   5.220   6.298  0.2460 -1.5258  0.2504
11434SOL    HW235466   7.506   5.214   6.425  0.0385  0.4044  0.5118
11435SOL     OW35467   0.182   1.525   4.725  0.1588 -0.5048  0.5612
11435SOL    HW135468   0.123   1.461   4.684 -0.4531  1.2418 -1.5323
11435SOL    HW235469   0.267   1.508   4.685 -0.0369  0.0352 -0.1106
11436SOL     OW35470   2.228   4.535   4.519 -0.3924 -0.1097 -0.2845
11436SOL    HW135471   2.199   4.508   4.606 -0.7357  0.5954 -0.1687
11436SOL    HW235472   2.170   4.488   4.458  0.5736 -1.4844 -0.1977
11437SOL     OW35473   7.017   1.994   7.748  0.1440 -0.3623 -0.2873
11437SOL    HW135474   7.097   2.014   7.699  1.4784  2.2729  2.6347
11437SOL    HW235475   6.955   2.062   7.721  0.4547  0.3250  0.6952
11438SOL     OW35476   8.197   8.700   1.415  0.0956 -0.0532  0.0037
11438SOL    HW135477   8.193   8.706   1.320 -0.0977  0.5807  0.0498
11438SOL    HW235478   8.235   8.613   1.432  1.4820  0.3938 -0.6641
11439SOL     OW35479   0.889   1.742   3.709 -1.0030  0.4419  0.0793
11439SOL    HW135480   0.801   1.705   3.724 -0.6826  0.3458  1.9577
11439SOL    HW235481   0.948   1.668   3.725 -0.5415  0.6579 -0.6051
11440SOL     OW35482   3.007   1.333   6.748  0.1573  0.0167  0.2381
11440SOL    HW135483   3.016   1.295   6.836 -0.0005 -0.0530  0.2263
11440SOL    HW235484   2.951   1.409   6.761 -0.8853 -0.6812  0.0255
11441SOL     OW35485   1.607   4.557   2.019 -0.2601 -0.0240  0.5150
11441SOL    HW135486   1.612   4.648   1.992  0.2604  0.1068  1.0271
11441SOL    HW235487   1.606   4.507   1.937 -0.8608  0.4467  0.2302
11442SOL     OW35488   6.384   0.959   0.236 -0.7050 -0.1215 -0.0626
11442SOL    HW135489   6.423   0.909   0.308 -1.8820 -0.0648  0.6396
11442SOL    HW235490   6.454   1.017   0.206 -0.7406  1.3686  2.4340
11443SOL     OW35491   0.969   6.657   6.333 -0.4704  0.7081 -0.6440
11443SOL    HW135492   1.022   6.633   6.409  0.8280  3.1033 -0.7062
11443SOL    HW235493   0.882   6.623   6.353  0.2130 -0.0760  1.1887
11444SOL     OW35494   0.789   2.562   2.590 -0.0187  0.2769 -0.5382
11444SOL    HW135495   0.711   2.566   2.535  0.0437 -1.4465 -0.8060
11444SOL    HW235496   0.763   2.509   2.665  0.6805  0.3272 -0.2489
11445SOL     OW35497   3.832   5.885   3.417  0.3659 -0.1312  0.5125
11445SOL    HW135498   3.816   5.980   3.420 -0.1116 -0.1941  0.0715
11445SOL    HW235499   3.927   5.877   3.421  0.4650  0.4157 -0.3433
11446SOL     OW35500   3.285   0.147   1.299  0.1359  0.0441 -0.1401
11446SOL    HW135501   3.224   0.084   1.262 -3.3414  2.3001  1.2282
11446SOL    HW235502   3.306   0.206   1.226  1.1128 -0.9926 -0.7226
11447SOL     OW35503   8.854   5.747   3.709 -0.0957 -0.3229 -0.0943
11447SOL    HW135504   8.817   5.826   3.746  2.0207  0.1096  1.3032
11447SOL    HW235505   8.916   5.716   3.775  1.4460 -1.3707 -1.9150
11448SOL     OW35506   6.901   2.275   1.842 -0.0573 -0.2007 -0.3379
11448SOL    HW135507   6.870   2.365   1.839 -1.6457 -0.6992  0.2409
11448SOL    HW235508   6.946   2.262   1.759  0.0721  1.0772 -0.4861
11449SOL     OW35509   1.568   4.011   6.189  0.7392  0.0113  0.0167
11449SOL    HW135510   1.547   4.003   6.096  2.2438  3.0768 -0.7203
11449SOL    HW235511   1.512   3.947   6.232 -0.0245 -1.5009 -2.9733
11450SOL     OW35512   4.076   4.779   0.148  0.2909  0.1128 -0.4849
11450SOL    HW135513   4.045   4.771   0.239 -1.8805 -1.2755 -1.2744
11450SOL    HW235514   4.111   4.868   0.143 -2.1978  1.2813  0.9808
11451SOL     OW35515   6.566   0.551   1.982  0.6039  0.0514  0.3482
11451SOL    HW135516   6.578   0.514   2.069 -0.5827  1.7522  1.2983
11451SOL    HW235517   6.560   0.474   1.924  0.1753 -1.1660  1.9309
11452SOL     OW35518   8.458   5.066   5.297  0.2871 -0.3598 -0.4835
11452SOL    HW135519   8.495   5.130   5.236 -0.4499 -0.2752 -0.8564
11452SOL    HW235520   8.443   4.988   5.243  0.4490 -0.5804 -0.2094
11453SOL     OW35521   1.929   3.026   8.131  0.2230  0.0680 -0.1653
11453SOL    HW135522   1.952   3.044   8.040 -0.1043  0.2223 -0.2220
11453SOL    HW235523   1.835   3.004   8.128 -0.5812  2.9539  0.4855
11454SOL     OW35524   5.514   1.532   1.936 -0.2268  0.1094 -0.4284
11454SOL    HW135525   5.596   1.495   1.969 -0.9145 -0.6840  0.4477
11454SOL    HW235526   5.541   1.609   1.886  1.0186  0.0860  0.1619
11455SOL     OW35527   2.763   2.974   6.506  0.1083 -1.1212  0.1464
11455SOL    HW135528   2.831   2.925   6.459  0.2406 -1.4235  0.6458
11455SOL    HW235529   2.756   3.057   6.458  0.1845 -1.4519 -0.4494
11456SOL     OW35530   6.004   6.002   1.763  0.2129  0.3210 -0.0930
11456SOL    HW135531   5.944   5.945   1.716 -2.7748  2.6911  0.5480
11456SOL    HW235532   5.975   5.997   1.854  1.1461  1.3484  0.2793
11457SOL     OW35533   4.120   7.761   8.177 -0.5025 -0.5391 -0.1126
11457SOL    HW135534   4.080   7.806   8.252 -0.7083 -2.0286  0.7126
11457SOL    HW235535   4.052   7.760   8.110 -0.2097  1.0994 -0.4900
11458SOL     OW35536   1.664   1.824   2.136  0.0753  0.3286 -0.1264
11458SOL    HW135537   1.669   1.871   2.219 -0.0040  0.2439 -0.0729
11458SOL    HW235538   1.704   1.882   2.073  0.1605  0.3824 -0.0231
11459SOL     OW35539   1.902   8.606   2.367  0.4447 -0.0380  0.5362
11459SOL    HW135540   1.984   8.560   2.352 -0.1098 -0.8546 -0.0205
11459SOL    HW235541   1.911   8.643   2.455  1.0530 -0.8734  0.8365
11460SOL     OW35542   1.407   5.257   0.370  0.1535 -0.1220 -0.2722
11460SOL    HW135543   1.345   5.191   0.400 -1.3330  0.8617 -1.0843
11460SOL    HW235544   1.436   5.226   0.284  2.4668 -1.6315  0.9217
11461SOL     OW35545   2.470   8.619   1.032 -0.2281  0.5365 -0.1573
11461SOL    HW135546   2.499   8.666   0.953  1.0727 -0.3839 -0.2685
11461SOL    HW235547   2.453   8.530   1.001 -0.0425  0.2577  0.5353
11462SOL     OW35548   5.057   2.898   0.673  0.0624  0.0458 -0.5708
11462SOL    HW135549   5.055   2.834   0.744  0.1397 -1.2118 -1.6498
11462SOL    HW235550   4.966   2.908   0.646 -0.1653  1.7383  0.7138
11463SOL     OW35551   5.075   0.778   3.366  0.0837 -0.2956 -0.5031
11463SOL    HW135552   5.059   0.738   3.452  0.8130  0.7747  0.1594
11463SOL    HW235553   5.142   0.723   3.326 -0.3003 -0.8346 -0.4103
11464SOL     OW35554   2.569   2.742   2.781  0.0935  0.5700  0.7107
11464SOL    HW135555   2.644   2.709   2.831  0.1770  0.8351  0.7638
11464SOL    HW235556   2.500   2.678   2.796  0.6035 -0.2117 -0.1334
11465SOL     OW35557   1.713   3.467   4.721  0.1005  0.5600  0.9028
11465SOL    HW135558   1.683   3.455   4.811  0.4592 -1.8239  0.7804
11465SOL    HW235559   1.803   3.500   4.730  0.2303  0.0878  1.4418
11466SOL     OW35560   4.507   8.250   3.060  0.2955  0.0847  0.2335
11466SOL    HW135561   4.449   8.219   3.129 -0.1876 -1.8226 -0.9622
11466SOL    HW235562   4.467   8.331   3.028 -0.2910  0.1622  1.1502
11467SOL     OW35563   0.283   5.063   2.781  0.8690 -0.1468  0.2270
11467SOL    HW135564   0.357   5.005   2.764  0.7130 -0.5330  0.8366
11467SOL    HW235565   0.310   5.148   2.746  1.5813 -0.2920  0.4178
11468SOL     OW35566   2.163   3.917   0.286 -0.9123 -0.1764  0.4212
11468SOL    HW135567   2.226   3.985   0.311  0.4351 -1.0528 -0.5013
11468SOL    HW235568   2.079   3.950   0.318 -0.2226  1.6952  0.4158
11469SOL     OW35569   2.043   0.638   5.576 -0.4332  0.0590 -0.6310
11469SOL    HW135570   2.024   0.730   5.558 -0.0060  0.3230  0.2243
11469SOL    HW235571   2.064   0.635   5.669 -0.4301 -0.9059 -0.6501
11470SOL     OW35572   2.928   0.316   8.151 -0.0387  0.0925  0.0340
11470SOL    HW135573   2.975   0.265   8.217 -0.8664 -0.0742  0.5079
11470SOL    HW235574   2.897   0.394   8.198 -0.5493  0.0200 -0.1728
11471SOL     OW35575   1.536   8.145   6.712 -0.5429  0.2168 -0.3210
11471SOL    HW135576   1.565   8.062   6.750 -0.0159  0.5803  0.0826
11471SOL    HW235577   1.614   8.182   6.671 -0.1837  1.5716  1.4387
11472SOL     OW35578   8.151   3.934   5.262 -0.2394 -0.1654  0.0252
11472SOL    HW135579   8.099   3.990   5.320 -0.7749 -0.7517  0.1202
11472SOL    HW235580   8.090   3.867   5.233  0.5592 -1.1118  0.4709
11473SOL     OW35581   0.671   3.424   0.657 -0.0896 -0.2641  0.5080
11473SOL    HW135582   0.585   3.456   0.629  0.2199  0.7816  0.6855
11473SOL    HW235583   0.721   3.414   0.576  0.3461  1.3868  0.5182
11474SOL     OW35584   3.437   6.009   0.090  0.2866  0.3131 -0.1628
11474SOL    HW135585   3.411   6.101   0.089  3.2965  1.2698  0.5823
11474SOL    HW235586   3.394   5.971   0.014 -0.0354  2.6405 -1.2241
11475SOL     OW35587   0.548   1.219   1.040 -0.4671  0.0305  0.3231
11475SOL    HW135588   0.490   1.294   1.031 -0.1319  0.1674 -0.9392
11475SOL    HW235589   0.499   1.158   1.096 -1.8505  0.1305 -0.7156
11476SOL     OW35590   1.183   7.848   3.085 -0.2181  0.1622 -0.1519
11476SOL    HW135591   1.214   7.863   2.996  0.8903 -2.9131 -0.3924
11476SOL    HW235592   1.121   7.775   3.078  0.0366 -0.2722  1.5894
11477SOL     OW35593   3.151   6.337   2.918  0.4672 -0.1005  0.1264
11477SOL    HW135594   3.128   6.430   2.920 -2.3094 -0.6965  0.8733
11477SOL    HW235595   3.158   6.316   2.825 -3.4716 -0.0050 -0.3427
11478SOL     OW35596   7.051   2.254   7.438  0.1596  0.0595 -0.0359
11478SOL    HW135597   7.073   2.347   7.446  1.4939 -0.1037 -1.3977
11478SOL    HW235598   7.131   2.209   7.464 -0.2383 -0.7008 -0.1215
11479SOL     OW35599   5.594   6.766   8.782  0.3144  0.2410 -0.7043
11479SOL    HW135600   5.619   6.807   8.699  1.0439  0.8648 -0.1823
11479SOL    HW235601   5.676   6.754   8.829 -0.2298  1.1940  0.5305
11480SOL     OW35602   6.771   4.118   0.165 -0.2653  0.2738 -0.6241
11480SOL    HW135603   6.700   4.183   0.167 -0.2191  0.3766 -1.6308
11480SOL    HW235604   6.850   4.170   0.150  0.2544  0.3100  1.9030
11481SOL     OW35605   4.531   1.348   6.141 -0.0656 -0.1647 -0.7809
11481SOL    HW135606   4.599   1.357   6.074  0.7471  2.2657  0.2789
11481SOL    HW235607   4.567   1.285   6.204 -0.0368 -1.0168 -1.6189
11482SOL     OW35608   7.583   7.011   0.985 -0.2335  0.4502  0.1513
11482SOL    HW135609   7.563   6.917   0.980 -0.8756  0.6522 -2.3558
11482SOL    HW235610   7.678   7.014   0.997  0.2266 -0.6157 -2.4999
11483SOL     OW35611   5.468   6.975   3.960 -0.0873 -0.7360 -0.4320
11483SOL    HW135612   5.393   6.969   3.900 -1.5105  1.4585  0.9963
11483SOL    HW235613   5.531   7.031   3.914 -1.1851  0.9674  0.0702
11484SOL     OW35614   4.038   5.163   3.361  0.9657 -0.0854 -0.0708
11484SOL    HW135615   4.048   5.085   3.307  0.3492  0.8319 -1.5750
11484SOL    HW235616   3.948   5.192   3.346  1.0434  0.6620  0.8126
11485SOL     OW35617   7.083   0.436   6.867 -0.1814 -0.3135 -0.5795
11485SOL    HW135618   7.100   0.455   6.959 -0.6235 -0.8878 -0.3711
11485SOL    HW235619   7.103   0.518   6.821  1.9065 -0.5866 -0.2175
11486SOL     OW35620   8.165   2.442   4.243  0.3321 -0.4042 -0.4399
11486SOL    HW135621   8.122   2.503   4.182 -1.2053 -2.1441 -1.2008
11486SOL    HW235622   8.237   2.493   4.280 -0.5404  1.6981 -1.4181
11487SOL     OW35623   5.573   2.763   6.480 -0.7491 -0.7760  0.0291
11487SOL    HW135624   5.621   2.716   6.549 -0.7238 -1.7469 -0.6287
11487SOL    HW235625   5.592   2.855   6.496 -0.0379 -1.0404  0.8000
11488SOL     OW35626   3.921   3.112   0.430  1.0358 -0.7417  0.0505
11488SOL    HW135627   3.871   3.146   0.504  0.9410 -0.2955 -0.2153
11488SOL    HW235628   3.907   3.176   0.360  2.7305 -0.1037  0.2520
11489SOL     OW35629   3.778   7.641   3.081 -0.4911 -0.1858  0.1788
11489SOL    HW135630   3.764   7.617   3.173 -0.7412 -0.5264  0.0554
11489SOL    HW235631   3.865   7.681   3.080 -1.0896  1.1972  0.8153
11490SOL     OW35632   2.391   1.310   7.543 -0.0600  0.4359 -0.1127
11490SOL    HW135633   2.351   1.393   7.570 -0.1595  0.3988 -0.1461
11490SOL    HW235634   2.348   1.289   7.461  0.6845  0.8702 -0.6270
11491SOL     OW35635   2.989   0.243   4.324 -0.6844 -0.6470 -0.4974
11491SOL    HW135636   2.973   0.188   4.401 -0.3533  0.5194  0.4224
11491SOL    HW235637   3.021   0.181   4.258 -0.0774 -1.5388  0.5886
11492SOL     OW35638   8.327   0.703   4.953 -0.0730  0.2400 -0.0934
11492SOL    HW135639   8.372   0.621   4.976  1.0018  1.4777  2.6394
11492SOL    HW235640   8.391   0.752   4.903 -0.1088  0.0946 -0.2825
11493SOL     OW35641   0.725   8.122   6.788 -0.2320 -0.4556  0.0780
11493SOL    HW135642   0.784   8.187   6.750  2.1814 -2.5345  0.0286
11493SOL    HW235643   0.704   8.157   6.875 -1.5030  1.7633 -1.0270
11494SOL     OW35644   1.562   5.169   3.966 -0.1212  0.4168 -0.4231
11494SOL    HW135645   1.536   5.089   3.919  1.1407  0.6118 -1.5089
11494SOL    HW235646   1.487   5.188   4.022 -1.1694 -0.5612 -1.4194
11495SOL     OW35647   7.523   7.922   2.705  0.0651 -0.4016 -1.1411
11495SOL    HW135648   7.537   8.013   2.678  1.3238 -0.5994 -1.2184
11495SOL    HW235649   7.496   7.928   2.796  1.0305  0.0305 -0.8626
11496SOL     OW35650   7.015   1.516   6.608 -0.0945 -0.9477 -0.2003
11496SOL    HW135651   6.966   1.517   6.690 -0.4620  0.0988 -0.4120
11496SOL    HW235652   6.950   1.537   6.541  0.2187 -1.7129 -0.7529
11497SOL     OW35653   8.117   5.044   7.448  0.4402 -0.0829  0.2532
11497SOL    HW135654   8.030   5.071   7.419  0.3024  0.2183  0.9067
11497SOL    HW235655   8.148   4.984   7.381  1.0267  2.1684 -1.6309
11498SOL     OW35656   3.113   1.900   7.912  0.0185 -0.4714 -0.2864
11498SOL    HW135657   3.136   1.971   7.972  0.2801 -1.9600  1.4642
11498SOL    HW235658   3.032   1.863   7.949 -0.1174 -1.0858 -1.1665
11499SOL     OW35659   1.533   4.538   3.596  0.4559  0.6930  0.0510
11499SOL    HW135660   1.484   4.561   3.516 -0.1295  1.7252  0.6818
11499SOL    HW235661   1.611   4.593   3.593  0.4650  0.6859  0.1531
11500SOL     OW35662   4.631   5.026   1.138  0.0171  0.5989 -0.0984
11500SOL    HW135663   4.701   5.056   1.197 -0.0669  0.2901  0.1597
11500SOL    HW235664   4.625   4.932   1.154  0.9832  0.2477 -1.6573
11501SOL     OW35665   0.616   4.768   1.942  0.5057 -0.3207 -0.4844
11501SOL    HW135666   0.670   4.834   1.899 -0.3647  0.8782  0.1999
11501SOL    HW235667   0.575   4.815   2.015 -0.3585 -1.5465 -0.1519
11502SOL     OW35668   5.878   7.157   4.557  0.4981 -0.1909  0.2465
11502SOL    HW135669   5.811   7.128   4.494  2.7109 -0.1170 -2.3288
11502SOL    HW235670   5.887   7.251   4.540 -0.6406  0.4060  2.5693
11503SOL     OW35671   7.543   0.056   5.045  0.1229 -0.2906  0.0489
11503SOL    HW135672   7.622   0.102   5.015  0.1048  0.4953  1.1615
11503SOL    HW235673   7.499   0.119   5.102 -1.0523 -0.9125 -0.1469
11504SOL     OW35674   0.297   2.567   5.891 -0.0906  0.0404 -0.0379
11504SOL    HW135675   0.338   2.589   5.975 -0.4926  0.2055  0.1226
11504SOL    HW235676   0.366   2.525   5.840  0.3948  0.6812  0.0705
11505SOL     OW35677   3.482   0.368   6.483 -0.2480 -0.1869  0.3639
11505SOL    HW135678   3.528   0.440   6.524 -0.4997 -0.5389  1.2859
11505SOL    HW235679   3.397   0.364   6.528 -0.7171 -0.2963 -0.4921
11506SOL     OW35680   5.071   5.125   2.582 -0.5324 -0.4938 -0.6473
11506SOL    HW135681   5.034   5.208   2.612 -1.6122 -1.2566  0.2441
11506SOL    HW235682   5.017   5.101   2.507  0.7739  0.3443 -1.8914
11507SOL     OW35683   3.386   8.147   2.023 -0.1285 -0.4513 -0.2067
11507SOL    HW135684   3.405   8.227   1.974  0.6094 -0.0933  0.6360
11507SOL    HW235685   3.463   8.134   2.079 -0.8018 -1.0344  0.6125
11508SOL     OW35686   6.573   1.667   2.411  0.0234 -0.3206  0.6213
11508SOL    HW135687   6.602   1.579   2.386  1.6760  0.4776 -0.4230
11508SOL    HW235688   6.654   1.713   2.434 -0.6131  1.3959 -0.3840
11509SOL     OW35689   2.857   3.123   7.872 -0.2917  0.2870  0.3143
11509SOL    HW135690   2.930   3.180   7.897  0.2982 -0.8504  1.2889
11509SOL    HW235691   2.848   3.136   7.777  0.6160  1.0942  0.3219
11510SOL     OW35692   7.593   4.690   1.042  0.0471  0.0269 -0.0073
11510SOL    HW135693   7.651   4.665   1.114 -1.0909 -0.3382  0.8190
11510SOL    HW235694   7.625   4.640   0.967  1.6207  0.8606  0.0726
11511SOL     OW35695   2.541   7.758   2.658  0.1467  0.7085 -0.1761
11511SOL    HW135696   2.597   7.826   2.622 -0.0074  1.0233  0.1744
11511SOL    HW235697   2.493   7.801   2.728 -0.0164  0.2599 -0.0098
11512SOL     OW35698   1.123   3.895   4.274 -0.1409 -0.1159 -0.1610
11512SOL    HW135699   1.133   3.813   4.322  0.6739  0.9591  1.6136
11512SOL    HW235700   1.207   3.939   4.283 -0.7870  1.2390 -0.4126
11513SOL     OW35701   8.539   6.128   7.594  0.0065  0.4746 -0.2581
11513SOL    HW135702   8.587   6.182   7.532  1.2126  2.2061  2.0402
11513SOL    HW235703   8.495   6.190   7.652 -2.1456 -1.0701 -0.0994
11514SOL     OW35704   2.746   2.894   1.613 -0.1975 -0.0266 -0.0121
11514SOL    HW135705   2.817   2.926   1.669  0.2097  0.0955 -0.5777
11514SOL    HW235706   2.741   2.801   1.631 -1.0758  0.2525  1.3115
11515SOL     OW35707   4.015   7.568   4.513  0.0278 -0.1859 -0.4827
11515SOL    HW135708   3.966   7.497   4.471  0.6343  0.3036 -2.0927
11515SOL    HW235709   4.105   7.556   4.485  0.3777  0.4225  0.3431
11516SOL     OW35710   0.940   2.525   4.666 -0.5142  0.0299 -0.3538
11516SOL    HW135711   0.982   2.606   4.696 -0.5073 -0.3764  0.7687
11516SOL    HW235712   0.857   2.553   4.628 -0.3810  0.5942 -0.2331
11517SOL     OW35713   0.059   3.046   0.166 -0.0982 -0.2946 -0.2209
11517SOL    HW135714   0.141   3.041   0.215 -0.1267 -1.8609 -0.2679
11517SOL    HW235715   0.044   3.139   0.153  1.1488  0.0545  0.6671
11518SOL     OW35716   1.015   1.432   6.047  0.2456 -0.1814 -0.2637
11518SOL    HW135717   1.085   1.496   6.034 -0.2510  1.2250  2.9143
11518SOL    HW235718   0.982   1.451   6.134 -1.5254 -3.3389 -0.0947
11519SOL     OW35719   7.455   2.677   7.802 -0.2051  0.1658  0.0322
11519SOL    HW135720   7.406   2.624   7.739 -0.6051  0.7222 -0.1345
11519SOL    HW235721   7.498   2.613   7.859 -0.8377 -0.3380 -0.0443
11520SOL     OW35722   6.141   2.174   2.323  0.5960 -0.0073 -0.1295
11520SOL    HW135723   6.081   2.217   2.262 -1.1516 -0.0658  1.4536
11520SOL    HW235724   6.201   2.243   2.351 -0.9976  1.0032  0.9515
11521SOL     OW35725   3.259   3.571   7.094  0.0128  0.1035  0.1898
11521SOL    HW135726   3.315   3.648   7.088  0.1775 -0.1163 -1.8764
11521SOL    HW235727   3.317   3.501   7.125  0.9404 -0.0952 -1.8261
11522SOL     OW35728   6.042   3.655   2.175  0.6754  0.0084 -0.2734
11522SOL    HW135729   6.033   3.673   2.082 -0.8659 -1.2699 -0.4374
11522SOL    HW235730   6.010   3.733   2.219  1.8379  0.7928 -0.7874
11523SOL     OW35731   0.215   1.312   6.568  0.2013 -0.3593  0.2813
11523SOL    HW135732   0.205   1.391   6.513  1.1897 -1.9842 -2.4644
11523SOL    HW235733   0.300   1.323   6.609  1.6362 -1.1157 -2.2820
11524SOL     OW35734   1.251   8.134   7.620 -0.3276 -0.4269 -0.1669
11524SOL    HW135735   1.273   8.152   7.711 -0.1294 -0.2193 -0.2568
11524SOL    HW235736   1.228   8.219   7.583  0.7090 -0.3299 -0.6181
11525SOL     OW35737   4.527   7.114   7.896  0.5081 -0.3250  0.2138
11525SOL    HW135738   4.581   7.104   7.817  0.3539 -1.6486  0.2432
11525SOL    HW235739   4.443   7.145   7.864  1.0542  1.0832  0.0903
11526SOL     OW35740   3.698   5.805   4.927 -0.2770 -0.9232 -0.0061
11526SOL    HW135741   3.724   5.713   4.923  2.2728 -0.2441 -2.1827
11526SOL    HW235742   3.624   5.807   4.988 -0.1488 -4.3134  0.4357
11527SOL     OW35743   2.845   6.739   5.467 -0.2356  0.2509 -0.4984
11527SOL    HW135744   2.787   6.814   5.487 -1.6414 -0.9198  0.0093
11527SOL    HW235745   2.852   6.740   5.371 -0.9849  0.5121 -0.5616
11528SOL     OW35746   5.615   5.413   2.611 -0.2976  0.4784 -0.2550
11528SOL    HW135747   5.582   5.369   2.689  0.8118  0.2489  0.0988
11528SOL    HW235748   5.551   5.391   2.542  1.0904 -3.2198 -0.5640
11529SOL     OW35749   8.145   7.319   0.534  0.3820 -0.9197 -0.0539
11529SOL    HW135750   8.137   7.305   0.440 -0.2761  1.5757 -0.4347
11529SOL    HW235751   8.235   7.350   0.546  0.4535 -1.1971  0.1533
11530SOL     OW35752   3.551   4.099   6.181  0.1726 -0.1545 -0.2144
11530SOL    HW135753   3.473   4.082   6.128 -0.4200  3.1702 -0.6633
11530SOL    HW235754   3.624   4.091   6.119 -0.1248 -0.1830 -0.5630
11531SOL     OW35755   1.418   8.793   4.870  0.1768  0.8312 -0.1986
11531SOL    HW135756   1.387   8.738   4.799  0.6124  0.0320  0.2223
11531SOL    HW235757   1.492   8.842   4.833  2.3657 -1.7528  0.4715
11532SOL     OW35758   5.341   2.647   4.176 -0.0655  0.5931 -0.2012
11532SOL    HW135759   5.350   2.596   4.095 -0.2398  0.2800 -0.0226
11532SOL    HW235760   5.422   2.629   4.224  0.2015  1.0698 -0.4712
11533SOL     OW35761   8.807   6.463   8.848 -0.3562  0.4540 -0.0450
11533SOL    HW135762   8.771   6.378   8.825  2.9172 -1.0027 -0.3064
11533SOL    HW235763   8.866   6.485   8.776  0.5627  1.8443  1.0662
11534SOL     OW35764   5.677   3.161   7.445  0.3051  0.4825  0.7691
11534SOL    HW135765   5.584   3.179   7.459  0.6511  2.1556  1.0881
11534SOL    HW235766   5.678   3.079   7.396 -1.4371  1.7335 -1.5312
11535SOL     OW35767   8.781   0.326   5.751  0.3923  0.3387 -0.1360
11535SOL    HW135768   8.848   0.306   5.686 -0.4116  0.8404 -1.1524
11535SOL    HW235769   8.705   0.275   5.724  0.3600 -0.2882  1.0476
11536SOL     OW35770   5.009   5.354   1.543 -0.0005  0.4128 -0.2404
11536SOL    HW135771   5.009   5.260   1.560  2.0233  0.7934  2.5461
11536SOL    HW235772   4.928   5.386   1.582  0.2496  0.0644  0.5661
11537SOL     OW35773   7.544   4.438   7.229  0.0097  0.1645 -0.1527
11537SOL    HW135774   7.625   4.400   7.262  1.1717 -0.4813 -3.3740
11537SOL    HW235775   7.570   4.519   7.187 -1.4016  1.0661  0.6305
11538SOL     OW35776   8.808   4.936   6.361 -0.1706 -0.3839  0.1883
11538SOL    HW135777   8.837   5.025   6.339 -1.8062  0.4118  1.0792
11538SOL    HW235778   8.764   4.946   6.445 -2.4994 -1.5822 -0.8056
11539SOL     OW35779   7.942   4.343   1.045  0.2519 -0.1685 -0.2953
11539SOL    HW135780   8.010   4.399   1.009  1.8080 -0.9035  1.3205
11539SOL    HW235781   7.983   4.257   1.053 -0.8383 -0.6290  0.7524
11540SOL     OW35782   2.089   8.090   0.483 -0.5611 -0.0047  0.5512
11540SOL    HW135783   2.138   8.043   0.415 -1.3710  1.7202 -1.3367
11540SOL    HW235784   2.149   8.158   0.514 -0.5490 -0.1325  0.8117
11541SOL     OW35785   0.975   5.234   5.487 -0.4605  0.2536  0.6069
11541SOL    HW135786   1.052   5.290   5.498  0.3826 -0.8606  0.4694
11541SOL    HW235787   1.004   5.164   5.429 -1.9592  0.5164 -0.5009
11542SOL     OW35788   7.323   1.963   8.360 -0.3600  0.2517 -0.2005
11542SOL    HW135789   7.244   2.001   8.399  0.0538  0.3250  0.6008
11542SOL    HW235790   7.291   1.898   8.297 -1.0666 -0.4385  0.8337
11543SOL     OW35791   2.800   3.789   4.188  0.2046  0.5207  0.1508
11543SOL    HW135792   2.705   3.788   4.193  0.2277 -1.7973  1.4297
11543SOL    HW235793   2.828   3.838   4.266  0.0364 -1.2495  1.3814
11544SOL     OW35794   3.604   6.613   2.466  0.0356 -0.0354 -0.1901
11544SOL    HW135795   3.557   6.576   2.542  0.1141 -0.4769 -0.3523
11544SOL    HW235796   3.553   6.690   2.442 -1.0111 -0.8922 -0.7920
11545SOL     OW35797   6.757   5.207   4.943  0.0191 -0.4047  0.4213
11545SOL    HW135798   6.743   5.263   4.867  0.4618 -1.8370 -0.7575
11545SOL    HW235799   6.678   5.153   4.949 -0.0572 -0.2396  1.0518
11546SOL     OW35800   8.587   2.104   7.447  0.1123  0.3732  0.1028
11546SOL    HW135801   8.497   2.125   7.422 -0.2737 -2.4568 -1.2997
11546SOL    HW235802   8.583   2.089   7.542 -0.7616  0.8010  0.1424
11547SOL     OW35803   4.638   1.106   0.179  0.2687 -0.6222 -0.3624
11547SOL    HW135804   4.690   1.187   0.177 -0.2569 -0.1950  1.2890
11547SOL    HW235805   4.616   1.095   0.271 -0.6129 -2.0644 -0.7217
11548SOL     OW35806   6.062   7.131   1.665  0.0434  0.1192  0.0921
11548SOL    HW135807   6.097   7.084   1.589  1.2486 -1.1484  1.3796
11548SOL    HW235808   5.999   7.070   1.704 -1.5990  1.2844 -0.5777
11549SOL     OW35809   1.902   4.971   0.595  0.9047 -0.0689 -0.0248
11549SOL    HW135810   1.916   4.905   0.527 -0.2570  0.0687 -0.4147
11549SOL    HW235811   1.939   4.931   0.675  1.5574 -0.5588 -0.5577
11550SOL     OW35812   2.770   8.658   3.129 -0.0423  0.0828  0.4096
11550SOL    HW135813   2.750   8.714   3.055 -2.2818  0.3912  1.1821
11550SOL    HW235814   2.732   8.573   3.107  0.9346 -0.3667  0.4119
11551SOL     OW35815   4.043   7.197   7.230 -0.8135 -0.0219  0.0725
11551SOL    HW135816   3.981   7.151   7.174 -0.1519 -0.2547 -0.4736
11551SOL    HW235817   4.034   7.154   7.315 -0.6269 -0.7841 -0.2831
11552SOL     OW35818   4.579   5.763   7.008  0.0154 -0.0564  0.4950
11552SOL    HW135819   4.599   5.825   6.938 -1.5514 -0.9119 -0.7594
11552SOL    HW235820   4.496   5.793   7.043 -0.0647 -0.6544  0.8172
11553SOL     OW35821   4.159   5.873   8.801  0.0271  0.0762  0.4959
11553SOL    HW135822   4.074   5.876   8.756  0.6857  1.0895 -0.7623
11553SOL    HW235823   4.138   5.893   8.892 -0.8933  2.5671 -0.1722
11554SOL     OW35824   0.265   7.044   3.427 -0.7039 -0.4692 -0.0600
11554SOL    HW135825   0.239   7.005   3.344  1.3018 -1.5745 -0.2108
11554SOL    HW235826   0.243   6.978   3.493  2.9709 -2.1940 -0.3438
11555SOL     OW35827   6.069   4.766   8.572 -0.3204  0.2995 -0.1384
11555SOL    HW135828   5.997   4.779   8.633 -0.3982  1.7636 -0.5154
11555SOL    HW235829   6.123   4.698   8.613  0.3859  2.1872  2.2922
11556SOL     OW35830   6.326   4.684   8.278  0.1201 -0.5966 -0.1619
11556SOL    HW135831   6.398   4.624   8.297  0.2100 -0.5452 -0.3326
11556SOL    HW235832   6.358   4.770   8.306  0.9917 -0.1958 -2.2021
11557SOL     OW35833   8.635   0.162   2.297  0.2707 -0.6557  0.1948
11557SOL    HW135834   8.608   0.183   2.386 -0.2474  0.5686 -0.2221
11557SOL    HW235835   8.556   0.176   2.244  0.6582 -1.0268 -0.4959
11558SOL     OW35836   0.937   1.092   8.331 -0.0682  0.0742  0.3826
11558SOL    HW135837   0.843   1.076   8.322 -0.3357  1.3045  0.8067
11558SOL    HW235838   0.958   1.152   8.260  0.2168  0.4742  0.7959
11559SOL     OW35839   5.255   4.522   4.931  0.1319  0.1659 -0.3220
11559SOL    HW135840   5.228   4.451   4.874 -0.4061 -1.4483  1.7986
11559SOL    HW235841   5.219   4.601   4.890  0.2156 -0.8158 -2.4242
11560SOL     OW35842   8.172   8.467   4.333  0.0383 -0.3464 -0.3769
11560SOL    HW135843   8.114   8.448   4.407  0.2096  0.3623 -0.0480
11560SOL    HW235844   8.136   8.547   4.295  1.6952  1.0378  0.8176
11561SOL     OW35845   0.374   5.401   1.370  0.4175 -0.0855 -0.3731
11561SOL    HW135846   0.287   5.438   1.352  0.5439  1.2550  1.4497
11561SOL    HW235847   0.376   5.319   1.321 -1.4148  0.4266 -1.4098
11562SOL     OW35848   4.060   7.954   1.154 -0.9704  0.4345  1.0314
11562SOL    HW135849   4.143   7.907   1.167 -1.0899 -0.3778 -0.7570
11562SOL    HW235850   4.073   8.038   1.196  2.0888  1.6628 -1.8872
11563SOL     OW35851   7.765   3.480   2.222 -0.2602 -0.1176 -0.0708
11563SOL    HW135852   7.786   3.485   2.128 -1.6926 -1.1986 -0.4840
11563SOL    HW235853   7.670   3.488   2.225 -0.1799  0.4944  1.3575
11564SOL     OW35854   8.227   2.283   5.734  0.1725 -0.1281 -0.0334
11564SOL    HW135855   8.189   2.253   5.651  0.7280  0.3178 -0.4628
11564SOL    HW235856   8.189   2.369   5.748  0.5126  0.0411 -0.1294
11565SOL     OW35857   0.346   5.343   7.910 -0.0392  0.4490  0.0011
11565SOL    HW135858   0.418   5.331   7.972  0.9293 -0.4794 -1.2325
11565SOL    HW235859   0.366   5.425   7.865 -0.0011  0.4277 -0.0209
11566SOL     OW35860   8.747   5.402   3.803  0.1302 -0.0712  0.0643
11566SOL    HW135861   8.682   5.450   3.752  1.4084  0.6703 -0.9453
11566SOL    HW235862   8.758   5.455   3.882 -0.1687  0.0338  0.0372
11567SOL     OW35863   2.744   5.313   8.141  0.1807 -0.0296 -0.6852
11567SOL    HW135864   2.790   5.393   8.117 -0.2172  0.6470  0.7290
11567SOL    HW235865   2.715   5.276   8.057  2.3777  0.0482 -1.5385
11568SOL     OW35866   3.896   2.285   5.214  0.0611 -0.6318 -0.1067
11568SOL    HW135867   3.812   2.325   5.192 -0.9257 -1.5514  1.7889
11568SOL    HW235868   3.924   2.243   5.132 -0.6257  0.8251 -1.1336
11569SOL     OW35869   4.425   5.792   8.111 -0.0666  0.2769 -0.3204
11569SOL    HW135870   4.450   5.781   8.203 -0.0339 -0.6818 -0.4365
11569SOL    HW235871   4.368   5.718   8.092 -3.5937  2.6411  0.0797
11570SOL     OW35872   2.433   7.656   2.235 -0.0657  0.3701 -0.4273
11570SOL    HW135873   2.347   7.638   2.197 -0.0158  0.0124 -0.3764
11570SOL    HW235874   2.451   7.747   2.212 -1.1317  0.9296  0.8857
11571SOL     OW35875   1.118   5.191   5.864  0.0689 -0.0971 -0.3983
11571SOL    HW135876   1.135   5.148   5.948 -0.5250 -0.5373 -0.4985
11571SOL    HW235877   1.083   5.122   5.808  1.4108 -0.0429 -1.3449
11572SOL     OW35878   7.309   4.983   0.862 -0.0354 -0.1601  0.1544
11572SOL    HW135879   7.325   4.942   0.777 -0.5238 -0.5931  0.2689
11572SOL    HW235880   7.332   4.915   0.926 -0.4257 -0.1066  0.3539
11573SOL     OW35881   4.948   1.493   8.211  0.0317 -0.1612  0.2505
11573SOL    HW135882   4.857   1.525   8.216 -0.1351  0.1488 -2.8945
11573SOL    HW235883   4.972   1.478   8.302 -2.3336  2.1027  1.4169
11574SOL     OW35884   0.863   1.534   8.637  0.0667 -0.0400  0.7061
11574SOL    HW135885   0.783   1.486   8.659 -1.2532  1.2469 -1.0216
11574SOL    HW235886   0.912   1.537   8.719 -0.8757 -2.2466  1.4438
11575SOL     OW35887   2.700   8.525   2.673 -0.5900 -0.1050 -0.1845
11575SOL    HW135888   2.737   8.442   2.702  0.0404  0.0911 -0.4124
11575SOL    HW235889   2.707   8.522   2.577 -1.0347 -0.0039 -0.2229
11576SOL     OW35890   7.168   1.581   7.447 -0.2683  0.4088 -0.1022
11576SOL    HW135891   7.199   1.669   7.428  1.6301 -0.1566  0.2040
11576SOL    HW235892   7.156   1.579   7.542 -0.2694  0.3354 -0.1034
11577SOL     OW35893   3.656   1.330   5.513 -0.0524 -0.3402 -0.1999
11577SOL    HW135894   3.747   1.318   5.542  0.4132 -0.0660 -1.4718
11577SOL    HW235895   3.637   1.252   5.460 -0.3918 -0.1622 -0.3453
11578SOL     OW35896   1.198   5.179   6.729 -0.6953  0.4552 -0.0074
11578SOL    HW135897   1.275   5.159   6.676 -1.2662 -0.3690 -0.5588
11578SOL    HW235898   1.159   5.093   6.747 -1.4764  0.8588  0.2706
11579SOL     OW35899   7.198   3.584   2.814  0.0676  0.4317  0.4032
11579SOL    HW135900   7.215   3.678   2.807  0.2637  0.3914  0.3402
11579SOL    HW235901   7.227   3.560   2.902  0.5561  0.3189  0.2159
11580SOL     OW35902   5.254   5.614   2.455  0.1151  0.6070  0.1575
11580SOL    HW135903   5.203   5.562   2.516 -0.5217  1.1624  0.1039
11580SOL    HW235904   5.327   5.648   2.507  1.6987 -1.9049 -0.2210
11581SOL     OW35905   2.747   4.348   4.510 -0.1747  0.1651  0.9395
11581SOL    HW135906   2.731   4.258   4.536  2.4400 -0.5185  0.4707
11581SOL    HW235907   2.662   4.381   4.481 -1.0480 -2.3453  0.4528
11582SOL     OW35908   6.435   7.047   7.306  0.2665 -0.3226  0.1152
11582SOL    HW135909   6.460   6.988   7.377 -1.2080 -1.5324 -0.3368
11582SOL    HW235910   6.427   7.133   7.349  0.6049 -0.7899  1.1608
11583SOL     OW35911   8.855   5.034   7.251  0.5126 -0.3305  0.0154
11583SOL    HW135912   8.903   4.971   7.305  0.1100  0.0351  0.8093
11583SOL    HW235913   8.887   5.120   7.280 -0.7677 -0.0658  0.7289
11584SOL     OW35914   8.085   0.612   8.069  0.2507  0.9488 -0.1354
11584SOL    HW135915   8.133   0.564   8.135  0.5661  0.5932 -0.6205
11584SOL    HW235916   8.077   0.701   8.104  0.7687  0.8640  0.1935
11585SOL     OW35917   0.411   0.049   6.815 -0.0976 -0.1369 -0.2484
11585SOL    HW135918   0.343   0.037   6.881  0.1538 -0.4732 -0.0534
11585SOL    HW235919   0.467  -0.028   6.823  1.0457  0.7424  0.4444
11586SOL     OW35920   7.200   2.282   1.891  0.1279 -0.2316  0.0189
11586SOL    HW135921   7.130   2.222   1.918 -0.3282 -0.2195 -1.0958
11586SOL    HW235922   7.199   2.351   1.958 -0.7202 -0.3999  0.1963
11587SOL     OW35923   0.297   4.459   5.673 -0.3018 -0.5828 -0.5414
11587SOL    HW135924   0.202   4.446   5.666 -0.3354 -1.5867  1.1822
11587SOL    HW235925   0.318   4.517   5.599 -2.6792  1.9944  0.5743
11588SOL     OW35926   8.509   5.852   7.105 -0.5326  0.2575 -0.5608
11588SOL    HW135927   8.602   5.827   7.099  0.0073  0.9940  2.7358
11588SOL    HW235928   8.463   5.769   7.115  0.3740 -0.0435  2.1984
11589SOL     OW35929   4.898   0.792   2.814 -0.6476 -0.1136  0.4297
11589SOL    HW135930   4.835   0.743   2.866  0.6115 -0.3513  1.7921
11589SOL    HW235931   4.920   0.868   2.868 -0.0774  0.1909 -0.2127
11590SOL     OW35932   7.551   6.655   5.640  0.5247 -0.1761  0.0209
11590SOL    HW135933   7.546   6.634   5.733  0.5337  0.1461  0.0970
11590SOL    HW235934   7.602   6.736   5.636  3.6053 -1.9547 -0.5320
11591SOL     OW35935   0.649   6.916   6.755 -0.4802  0.2515 -0.3303
11591SOL    HW135936   0.717   6.878   6.700 -0.9036 -1.5351  0.3201
11591SOL    HW235937   0.693   6.987   6.802  0.3416  0.5971 -1.5872
11592SOL     OW35938   2.689   0.911   3.257  0.1220 -0.0152  0.1091
11592SOL    HW135939   2.719   0.828   3.221 -1.0577 -0.9281  1.1380
11592SOL    HW235940   2.746   0.926   3.332  0.4862  0.2295 -0.2144
11593SOL     OW35941   4.459   7.889   7.399  0.4921 -0.7632 -0.1372
11593SOL    HW135942   4.498   7.822   7.344  4.1423 -2.5642  4.0232
11593SOL    HW235943   4.533   7.944   7.426 -1.8295  2.9775 -0.5728
11594SOL     OW35944   6.140   2.545   1.327  0.4093 -0.7783  0.3532
11594SOL    HW135945   6.060   2.579   1.367  0.9685  0.2839  0.5912
11594SOL    HW235946   6.201   2.538   1.400  1.4179  1.1031 -0.2586
11595SOL     OW35947   1.449   5.039   7.415  0.1695  0.3071  0.0996
11595SOL    HW135948   1.369   4.989   7.398  0.0355  0.3503  0.5955
11595SOL    HW235949   1.514   5.002   7.355 -0.1697  0.1509 -0.1774
11596SOL     OW35950   7.985   6.548   5.545 -0.5094 -0.2419  0.1733
11596SOL    HW135951   7.964   6.463   5.583  1.0237 -0.4947  0.5245
11596SOL    HW235952   8.055   6.530   5.483  0.1854  0.8305  0.6084
11597SOL     OW35953   1.837   8.161   1.372 -0.5273  0.0088  0.0751
11597SOL    HW135954   1.753   8.142   1.414  0.2654 -0.7411  1.4090
11597SOL    HW235955   1.839   8.256   1.365 -0.7292  0.1755  1.7552
11598SOL     OW35956   1.648   0.568   5.206  0.3789  0.0809  0.2301
11598SOL    HW135957   1.648   0.660   5.234  0.9225  0.0537  0.3411
11598SOL    HW235958   1.738   0.539   5.221  0.4689 -0.1833 -0.7467
11599SOL     OW35959   7.869   7.517   4.325  0.2709 -0.1404 -0.1676
11599SOL    HW135960   7.829   7.480   4.246  0.7956 -0.9495 -0.0661
11599SOL    HW235961   7.963   7.509   4.310  0.3758 -1.0137  0.8540
11600SOL     OW35962   4.865   7.318   6.889 -0.0533 -0.1910 -0.2552
11600SOL    HW135963   4.796   7.269   6.935 -0.1194 -0.2823 -0.4477
11600SOL    HW235964   4.939   7.257   6.885  0.0775 -0.0547  0.0466
11601SOL     OW35965   7.578   5.956   0.440 -0.1152  0.0203 -0.4327
11601SOL    HW135966   7.500   5.905   0.461 -0.0742  0.6612  1.5179
11601SOL    HW235967   7.556   6.046   0.465  1.0119  0.3378 -0.4992
11602SOL     OW35968   8.845   2.596   6.308 -0.0218 -0.3489 -0.8828
11602SOL    HW135969   8.758   2.609   6.347  0.4155  1.2520 -0.3974
11602SOL    HW235970   8.853   2.665   6.242  0.0982 -1.7384 -2.3822
11603SOL     OW35971   7.354   0.819   3.583 -0.3435 -0.5770  0.3320
11603SOL    HW135972   7.312   0.736   3.606 -1.7646  0.3666  1.3220
11603SOL    HW235973   7.287   0.885   3.598  0.8533  0.8054 -0.1107
11604SOL     OW35974   2.880   0.170   6.106  0.3429 -0.2577  0.4184
11604SOL    HW135975   2.837   0.085   6.101 -0.1554  0.0542 -0.9563
11604SOL    HW235976   2.929   0.177   6.024  1.7925  0.0591  1.2624
11605SOL     OW35977   6.523   1.537   7.199  0.0667 -0.7787  0.2887
11605SOL    HW135978   6.507   1.631   7.201 -0.3292 -0.8154  2.9784
11605SOL    HW235979   6.449   1.499   7.246  0.3536 -2.4133 -0.5264
11606SOL     OW35980   6.140   0.909   0.975 -0.2010 -0.1309  0.0381
11606SOL    HW135981   6.097   0.970   1.035 -0.0427  1.0622 -1.0158
11606SOL    HW235982   6.156   0.830   1.028 -1.0211  0.4825  1.2460
11607SOL     OW35983   2.916   0.847   7.173  0.3307 -0.2077 -0.0003
11607SOL    HW135984   2.987   0.904   7.202  2.2585 -2.9038  0.9429
11607SOL    HW235985   2.871   0.898   7.106  2.5901  1.9836 -0.0043
11608SOL     OW35986   7.594   5.781   8.210  0.0917 -0.3869  1.0079
11608SOL    HW135987   7.654   5.831   8.154 -0.2728 -0.3810  0.6212
11608SOL    HW235988   7.595   5.693   8.172 -0.5857 -0.2463  0.6496
11609SOL     OW35989   4.736   4.724   0.226 -0.1781  0.2292  0.0882
11609SOL    HW135990   4.643   4.738   0.240 -0.4066 -0.7781 -0.3156
11609SOL    HW235991   4.765   4.799   0.175 -0.9280  0.1803 -0.4150
11610SOL     OW35992   5.907   0.888   8.120 -0.7959  0.1041  0.2275
11610SOL    HW135993   5.813   0.879   8.111 -0.6994 -0.9136  0.0891
11610SOL    HW235994   5.927   0.975   8.084 -1.4225 -0.5082 -1.7177
11611SOL     OW35995   0.098   5.653   5.272  0.5158 -0.6069 -0.3268
11611SOL    HW135996   0.159   5.702   5.327  0.3251 -1.0764  0.3132
11611SOL    HW235997   0.150   5.624   5.198  0.6246  0.5890 -0.7398
11612SOL     OW35998   5.862   4.170   4.101  0.0496 -0.4624 -0.1263
11612SOL    HW135999   5.903   4.257   4.104 -0.9670  0.0184  0.2975
11612SOL    HW236000   5.769   4.187   4.120 -0.2175 -1.6054 -0.3645
11613SOL     OW36001   4.091   2.846   6.352 -0.2914 -0.4903  0.1219
11613SOL    HW136002   4.047   2.864   6.435 -1.4348  0.0468 -0.5753
11613SOL    HW236003   4.080   2.752   6.338 -0.4851 -0.5020  0.3550
11614SOL     OW36004   2.077   5.915   2.791  0.1993 -0.3570 -0.3346
11614SOL    HW136005   2.128   5.897   2.869  0.4383 -0.4852 -0.5196
11614SOL    HW236006   1.992   5.873   2.807  0.3563 -0.6528 -0.2777
11615SOL     OW36007   2.513   2.709   8.825 -0.1005 -0.6379 -0.2631
11615SOL    HW136008   2.520   2.779   8.760  1.6993 -0.6957 -0.1739
11615SOL    HW236009   2.425   2.673   8.813 -0.5317  0.6873 -1.2733
11616SOL     OW36010   0.335   7.604   7.725  0.0696 -0.2548 -0.1687
11616SOL    HW136011   0.361   7.579   7.636  1.3189 -1.0528  0.3876
11616SOL    HW236012   0.354   7.527   7.778 -1.3232 -0.0340  0.6893
11617SOL     OW36013   3.685   4.493   0.304 -0.3727  0.1134 -0.1043
11617SOL    HW136014   3.769   4.502   0.258 -0.8205 -1.4759 -1.2873
11617SOL    HW236015   3.621   4.474   0.236 -1.6489  0.8087  0.8440
11618SOL     OW36016   3.240   6.217   6.542  0.2463 -0.2567 -0.0641
11618SOL    HW136017   3.217   6.267   6.464 -0.2633 -1.4038 -0.6728
11618SOL    HW236018   3.328   6.184   6.524  0.6357  0.5146  0.3939
11619SOL     OW36019   3.562   6.861   4.227  0.2344  0.3080  1.0141
11619SOL    HW136020   3.470   6.857   4.200  0.9667  1.5344 -2.1503
11619SOL    HW236021   3.592   6.947   4.196  2.3726  0.0840  2.2742
11620SOL     OW36022   4.383   1.891   0.764  0.1049 -0.1179 -0.7265
11620SOL    HW136023   4.355   1.982   0.770 -0.0017 -0.1406 -0.8758
11620SOL    HW236024   4.301   1.842   0.758  0.1668 -0.2129 -0.7883
11621SOL     OW36025   5.443   1.883   6.787  0.2973  0.2242 -0.1017
11621SOL    HW136026   5.352   1.909   6.803  0.1120 -0.1474 -0.5150
11621SOL    HW236027   5.482   1.958   6.743  0.2679  0.4921  0.3251
11622SOL     OW36028   1.304   3.998   6.777 -0.2927 -0.3932 -0.2863
11622SOL    HW136029   1.288   3.943   6.854 -1.3450 -0.1889 -0.3348
11622SOL    HW236030   1.229   4.058   6.775 -0.0647 -0.1251 -1.2429
11623SOL     OW36031   2.991   0.229   7.861  0.3707  0.3629  0.0167
11623SOL    HW136032   2.990   0.249   7.955 -2.3186  0.8584 -0.0320
11623SOL    HW236033   2.960   0.310   7.819 -1.0419 -0.6995 -1.0564
11624SOL     OW36034   2.700   0.174   8.047 -0.3092  0.1654 -0.5579
11624SOL    HW136035   2.704   0.208   7.958  0.8225 -1.4543 -1.1545
11624SOL    HW236036   2.748   0.239   8.099  0.7955  0.0990 -1.4675
11625SOL     OW36037   1.600   1.271   8.162 -0.1931 -0.3130 -0.0844
11625SOL    HW136038   1.563   1.295   8.247 -0.2755  1.9463 -0.7064
11625SOL    HW236039   1.682   1.319   8.156  0.4318 -1.4171 -0.7857
11626SOL     OW36040   7.962   0.150   6.859 -1.0599  0.4948 -0.5084
11626SOL    HW136041   8.040   0.176   6.908 -1.0539 -0.4948  0.0312
11626SOL    HW236042   7.935   0.230   6.812 -0.1331  1.0242 -0.1609
11627SOL     OW36043   2.895   0.776   0.938  0.1431 -0.3793 -0.4090
11627SOL    HW136044   2.829   0.716   0.903 -0.2519  0.0306 -0.3784
11627SOL    HW236045   2.922   0.737   1.021 -1.4092  0.3702  0.4952
11628SOL     OW36046   1.090   1.368   8.778 -0.5999 -1.2675  0.5543
11628SOL    HW136047   1.113   1.283   8.814 -0.6859 -0.8609  1.6148
11628SOL    HW236048   1.046   1.413   8.849 -0.4271 -0.2780  0.0571
11629SOL     OW36049   7.389   0.652   2.616  0.1709  0.8970  0.3676
11629SOL    HW136050   7.323   0.605   2.667 -1.3751  3.0446  0.4844
11629SOL    HW236051   7.457   0.674   2.680 -0.2429  0.8978  0.8126
11630SOL     OW36052   1.005   8.552   6.091 -0.0707 -0.2304  0.5869
11630SOL    HW136053   0.919   8.565   6.050 -0.3801 -0.3141  1.2092
11630SOL    HW236054   1.040   8.474   6.047  1.1257  1.6351 -2.0410
11631SOL     OW36055   6.132   1.843   7.024 -0.2225 -0.2891 -0.3120
11631SOL    HW136056   6.063   1.832   7.090  1.3107  1.1923  1.6662
11631SOL    HW236057   6.204   1.788   7.054 -0.7012 -2.5233 -2.8249
11632SOL     OW36058   2.658   3.635   7.387  0.0861 -0.1836 -0.4500
11632SOL    HW136059   2.567   3.665   7.395  0.3574  0.5495  0.0694
11632SOL    HW236060   2.672   3.582   7.465 -0.0759 -0.8066 -0.8407
11633SOL     OW36061   7.570   6.590   5.010  0.1299 -0.1819 -1.1722
11633SOL    HW136062   7.544   6.616   4.921 -0.4380  2.5840 -0.3217
11633SOL    HW236063   7.665   6.580   5.005  0.1623  0.3529 -2.0227
11634SOL     OW36064   4.689   5.739   4.407  0.1833 -0.2888  0.2096
11634SOL    HW136065   4.628   5.730   4.480  0.7294 -0.3374  0.6728
11634SOL    HW236066   4.707   5.649   4.379 -0.5536 -0.2408 -0.4398
11635SOL     OW36067   4.025   3.965   7.778  0.0333 -0.1919  0.1644
11635SOL    HW136068   4.006   4.046   7.731  0.0326  0.0164  0.5199
11635SOL    HW236069   4.016   3.897   7.712 -1.0187 -0.0101  0.0969
11636SOL     OW36070   5.189   1.766   2.978  0.0606 -0.2846 -0.1162
11636SOL    HW136071   5.098   1.778   3.006  0.1989  0.6352 -0.0022
11636SOL    HW236072   5.233   1.846   3.007  0.8551 -0.6129 -0.3856
11637SOL     OW36073   1.622   2.637   3.223 -0.0785  0.1091 -0.1493
11637SOL    HW136074   1.673   2.580   3.281 -0.1350 -0.5111 -0.7016
11637SOL    HW236075   1.655   2.618   3.135 -1.7411 -0.8527 -0.6206
11638SOL     OW36076   8.644   6.163   8.022  0.2731  0.2717  0.9215
11638SOL    HW136077   8.609   6.251   8.017  1.6140  0.7787 -0.1608
11638SOL    HW236078   8.571   6.106   7.998  0.2071  1.2999 -1.6394
11639SOL     OW36079   4.028   0.002   1.883 -0.5103 -0.0148  0.2939
11639SOL    HW136080   3.962  -0.059   1.914  0.1955 -0.0560  1.8312
11639SOL    HW236081   4.111  -0.043   1.899 -0.0743 -0.2666 -2.2530
11640SOL     OW36082   1.128   0.801   3.754 -0.4149 -0.2347  0.3979
11640SOL    HW136083   1.167   0.733   3.699 -0.2626  0.6208 -0.6057
11640SOL    HW236084   1.200   0.861   3.774 -0.7585  0.2151  0.3313
11641SOL     OW36085   8.738   5.132   2.591 -0.3678 -0.0842 -0.3516
11641SOL    HW136086   8.816   5.089   2.555 -0.5083 -0.8447  0.2160
11641SOL    HW236087   8.738   5.219   2.552  0.3295 -0.3541 -0.9737
11642SOL     OW36088   8.815   7.904   6.236 -0.1383  0.3132 -0.2191
11642SOL    HW136089   8.794   7.812   6.221 -0.5245  0.6307 -1.7827
11642SOL    HW236090   8.898   7.917   6.190 -0.3640  0.8698 -0.4781
11643SOL     OW36091   1.153   0.489   1.753  0.6534 -0.9420  0.2743
11643SOL    HW136092   1.187   0.569   1.713  0.4520 -0.0039  1.9287
11643SOL    HW236093   1.117   0.439   1.679 -1.2086  1.4566 -0.5539
11644SOL     OW36094   4.295   1.224   5.863  0.6275  0.2758  0.1323
11644SOL    HW136095   4.279   1.292   5.929 -1.0329  0.3440 -0.3186
11644SOL    HW236096   4.280   1.142   5.908 -3.1180  0.3360 -0.6727
11645SOL     OW36097   6.411   3.299   7.310 -0.3515  0.6029 -0.2433
11645SOL    HW136098   6.426   3.376   7.365 -2.0881  1.3143 -0.7122
11645SOL    HW236099   6.397   3.228   7.372 -0.4400  1.0103  0.2141
11646SOL     OW36100   4.685   4.373   5.205 -0.3110  0.0401 -0.1149
11646SOL    HW136101   4.759   4.414   5.249  1.6516 -1.8968 -1.3935
11646SOL    HW236102   4.685   4.283   5.238 -2.5420  0.1202  0.3055
11647SOL     OW36103   3.606   5.300   1.654  0.3862 -0.3658 -0.0363
11647SOL    HW136104   3.534   5.326   1.712 -0.7877  0.5513 -1.8171
11647SOL    HW236105   3.641   5.220   1.693 -3.1472 -2.2265 -0.3484
11648SOL     OW36106   1.456   7.598   2.555  0.1711 -0.1122 -0.2220
11648SOL    HW136107   1.438   7.536   2.484 -0.2175 -0.1973 -0.0478
11648SOL    HW236108   1.410   7.563   2.631  0.7473 -0.1289  0.1315
11649SOL     OW36109   0.640   1.160   7.776 -0.4649 -0.0505  0.4541
11649SOL    HW136110   0.574   1.105   7.734  0.0509  0.6436 -1.3932
11649SOL    HW236111   0.722   1.137   7.732 -0.3869  2.8430 -1.1807
11650SOL     OW36112   2.430   7.445   4.326 -0.0057 -0.3488  0.3585
11650SOL    HW136113   2.496   7.468   4.391 -0.7290 -0.4313  1.1388
11650SOL    HW236114   2.347   7.465   4.369 -0.5454 -1.6163 -0.0685
11651SOL     OW36115   7.056   4.415   5.440 -0.1903 -0.3802  0.0074
11651SOL    HW136116   7.023   4.445   5.525  0.7355  0.3048  0.1419
11651SOL    HW236117   7.086   4.495   5.397 -0.5344 -0.7410 -0.9183
11652SOL     OW36118   8.464   0.953   7.305  0.1625 -0.7216  0.2267
11652SOL    HW136119   8.545   0.934   7.353  1.8503  2.2020 -1.1778
11652SOL    HW236120   8.399   0.969   7.374  1.6570  0.1635  1.5046
11653SOL     OW36121   7.491   4.295   3.238 -0.2801 -0.0582 -0.0348
11653SOL    HW136122   7.556   4.293   3.309 -0.0290 -1.6151 -0.2740
11653SOL    HW236123   7.464   4.387   3.233  1.6851  0.5780  0.2658
11654SOL     OW36124   5.019   5.343   0.299  0.1297 -0.0980 -0.1472
11654SOL    HW136125   4.996   5.335   0.392 -0.0861 -0.8303 -0.2591
11654SOL    HW236126   4.966   5.416   0.268 -0.1441 -0.1427  0.2027
11655SOL     OW36127   1.807   2.220   0.629 -0.4115  0.2592 -0.2384
11655SOL    HW136128   1.726   2.208   0.680  0.1882 -1.6558  0.3658
11655SOL    HW236129   1.785   2.188   0.542 -0.7395  1.2273 -0.5188
11656SOL     OW36130   4.394   4.703   8.639  0.0879  0.4065  0.1337
11656SOL    HW136131   4.321   4.654   8.601  0.3361  0.4635 -0.4169
11656SOL    HW236132   4.471   4.674   8.591  0.6124 -0.4917  1.4663
11657SOL     OW36133   7.039   0.657   7.947  0.6382 -0.0573 -0.7601
11657SOL    HW136134   6.998   0.740   7.970  0.6614  0.6041 -2.8493
11657SOL    HW236135   7.036   0.605   8.027  0.6599  1.9616  0.6253
11658SOL     OW36136   8.723   5.298   8.454  0.3506  0.9662  0.6008
11658SOL    HW136137   8.732   5.342   8.538  0.2651 -1.3395  1.8655
11658SOL    HW236138   8.809   5.308   8.413  1.8059 -1.4644  2.8238
11659SOL     OW36139   5.329   6.261   0.397 -0.4058 -0.5512 -0.0185
11659SOL    HW136140   5.312   6.166   0.402  0.5266 -0.7913 -0.9775
11659SOL    HW236141   5.364   6.283   0.483 -0.2254 -1.1666  0.0759
11660SOL     OW36142   4.626   0.158   4.919  0.9644 -0.4085  0.1779
11660SOL    HW136143   4.630   0.103   4.841 -1.6002 -0.3398 -0.0848
11660SOL    HW236144   4.602   0.098   4.990  1.1211 -0.1230  0.4764
11661SOL     OW36145   0.223   5.888   8.207 -0.3360  0.1756 -0.9473
11661SOL    HW136146   0.128   5.899   8.214 -0.5881 -1.2882 -1.5766
11661SOL    HW236147   0.248   5.850   8.291 -0.4115 -0.0038 -1.0045
11662SOL     OW36148   4.150   1.749   1.078 -0.2174 -0.3106  0.1699
11662SOL    HW136149   4.196   1.807   1.139 -1.3410  1.0974 -0.2650
11662SOL    HW236150   4.081   1.708   1.131 -0.7716  0.4028  0.0137
11663SOL     OW36151   2.967   4.934   4.728  0.3329 -0.1242  0.4873
11663SOL    HW136152   2.918   4.919   4.809 -1.9887 -0.0995 -0.8211
11663SOL    HW236153   2.938   5.020   4.699 -0.8014 -1.1491 -1.5957
11664SOL     OW36154   0.888   2.605   7.790  0.2625 -0.0638  0.5359
11664SOL    HW136155   0.849   2.531   7.836  1.9451 -2.2626 -1.3109
11664SOL    HW236156   0.867   2.589   7.698  1.4352  1.2491  0.0099
11665SOL     OW36157   1.437   4.109   5.607 -0.2047  0.1255  0.4766
11665SOL    HW136158   1.527   4.112   5.640 -0.2836 -0.4607  0.7662
11665SOL    HW236159   1.396   4.038   5.657 -0.5376 -0.2872 -0.3722
11666SOL     OW36160   3.090   7.614   4.989  0.4486  0.7539 -0.2435
11666SOL    HW136161   3.116   7.597   4.899  1.9633  1.8921 -0.0598
11666SOL    HW236162   3.007   7.661   4.981 -2.3263 -3.6686 -0.8201
11667SOL     OW36163   5.922   1.138   1.100 -0.2304  0.1082  0.1248
11667SOL    HW136164   5.955   1.227   1.095 -0.5554  0.2348  0.1806
11667SOL    HW236165   5.939   1.111   1.191  3.8210 -1.4667 -0.8832
11668SOL     OW36166   4.421   6.121   7.220  0.2192  0.5009  0.6066
11668SOL    HW136167   4.416   6.194   7.282  1.2541  0.7240  0.4567
11668SOL    HW236168   4.514   6.097   7.219 -0.0280 -0.4826  0.2621
11669SOL     OW36169   1.973   1.720   6.991 -0.1979  0.2824  0.5506
11669SOL    HW136170   1.891   1.769   6.987 -0.6176 -0.2269  2.0740
11669SOL    HW236171   1.947   1.629   6.981  0.2488  0.1639  0.4344
11670SOL     OW36172   4.344   7.884   7.798 -0.3539  0.1789 -0.3279
11670SOL    HW136173   4.259   7.861   7.837 -1.2729  0.2685 -2.1626
11670SOL    HW236174   4.335   7.976   7.772  0.7979  0.5879  0.6375
11671SOL     OW36175   7.011   0.103   2.990  0.0256 -0.5294  0.0047
11671SOL    HW136176   6.931   0.052   2.980  0.0314 -1.0867  2.3823
11671SOL    HW236177   7.041   0.085   3.079  2.5672  0.0192 -0.6546
11672SOL     OW36178   2.140   3.874   4.338  0.7369 -0.5135  0.0058
11672SOL    HW136179   2.167   3.784   4.354 -0.7729 -1.2223 -1.0803
11672SOL    HW236180   2.085   3.897   4.413  2.0358 -0.0631  0.8427
11673SOL     OW36181   3.174   0.126   8.591  0.3120  0.2324 -0.1904
11673SOL    HW136182   3.145   0.211   8.625 -1.3693 -0.0118 -0.8781
11673SOL    HW236183   3.145   0.062   8.656  0.3045  0.0781 -0.3423
11674SOL     OW36184   3.915   5.717   8.571 -0.2458 -0.7128  0.1149
11674SOL    HW136185   3.922   5.685   8.661 -2.6063  0.3141  0.7533
11674SOL    HW236186   3.898   5.811   8.581  0.6962 -0.3411 -1.4745
11675SOL     OW36187   4.416   8.299   2.706 -0.1540 -0.2555  0.9322
11675SOL    HW136188   4.386   8.239   2.637  2.1402 -1.2111  0.6656
11675SOL    HW236189   4.362   8.276   2.782 -1.1875 -0.7481  0.0895
11676SOL     OW36190   7.658   3.296   2.990 -0.3570 -0.1054  0.1099
11676SOL    HW136191   7.692   3.251   2.913  0.6140  0.4920  0.1810
11676SOL    HW236192   7.693   3.248   3.065 -0.2019  0.1190  0.1832
11677SOL     OW36193   5.462   6.663   0.332 -0.3905  0.3286  0.2356
11677SOL    HW136194   5.516   6.597   0.289 -0.3159  1.6848 -1.9268
11677SOL    HW236195   5.375   6.652   0.293 -0.4652  1.2429  0.1122
11678SOL     OW36196   5.831   2.870   8.494 -0.2467  0.3618  0.1830
11678SOL    HW136197   5.823   2.822   8.412 -1.8918  0.2518  0.3834
11678SOL    HW236198   5.926   2.876   8.509  0.0453 -0.6683 -1.0917
11679SOL     OW36199   1.812   4.379   2.088 -0.3326 -0.4145 -0.5580
11679SOL    HW136200   1.730   4.428   2.082 -1.0038 -1.6239 -1.7110
11679SOL    HW236201   1.851   4.385   2.000  0.2611 -0.7786 -0.3316
11680SOL     OW36202   5.130   2.746   2.673 -0.3917  0.4519 -0.5253
11680SOL    HW136203   5.155   2.833   2.707 -1.7508  0.6348  0.0983
11680SOL    HW236204   5.176   2.684   2.730 -1.4603  0.7712  0.7206
11681SOL     OW36205   5.243   3.142   3.565  0.2860  0.2157 -0.1804
11681SOL    HW136206   5.270   3.189   3.644 -0.9926  0.6231  0.0488
11681SOL    HW236207   5.301   3.065   3.561  0.7528  0.5005  0.8242
11682SOL     OW36208   8.793   3.391   0.572  0.5203  0.2938 -0.6671
11682SOL    HW136209   8.878   3.347   0.578  0.7811  0.8553 -0.2083
11682SOL    HW236210   8.755   3.382   0.659  0.3785  0.5846 -0.6983
11683SOL     OW36211   0.337   8.857   2.246 -0.2661  0.3122  0.0914
11683SOL    HW136212   0.294   8.914   2.183 -2.5626 -0.0543  1.2089
11683SOL    HW236213   0.303   8.885   2.331  0.5804 -1.0138  0.9093
11684SOL     OW36214   6.348   4.264   8.324 -0.2935  0.2213  0.1695
11684SOL    HW136215   6.396   4.292   8.246 -0.3629  2.3825  0.8467
11684SOL    HW236216   6.292   4.338   8.346 -2.2663 -1.3499  0.7745
11685SOL     OW36217   5.145   8.328   2.514  0.1532 -0.3995 -0.3583
11685SOL    HW136218   5.185   8.374   2.588 -0.9035  1.2015 -0.7371
11685SOL    HW236219   5.091   8.260   2.554  0.3131 -0.1425  0.3051
11686SOL     OW36220   1.719   5.332   2.090 -0.6410 -0.7768 -0.1474
11686SOL    HW136221   1.719   5.286   2.006 -0.5235 -2.1440  0.5703
11686SOL    HW236222   1.718   5.425   2.067 -2.6118 -1.1066 -1.6638
11687SOL     OW36223   8.084   7.055   0.063  0.5733 -0.0730 -0.0396
11687SOL    HW136224   8.129   6.971   0.074 -1.0837 -1.0037 -0.0785
11687SOL    HW236225   7.992   7.032   0.053 -0.0396  1.8173  0.7896
11688SOL     OW36226   1.302   7.250   7.746  0.4122  0.2051 -0.1567
11688SOL    HW136227   1.249   7.291   7.678  1.0261  1.0973 -0.1051
11688SOL    HW236228   1.243   7.244   7.822  0.0815  0.2560 -0.4074
11689SOL     OW36229   4.970   4.754   4.648 -0.2225 -0.1875  0.1554
11689SOL    HW136230   4.928   4.838   4.666  0.3009  0.0505  0.3083
11689SOL    HW236231   4.915   4.689   4.690 -0.2474  0.1515  0.6489
11690SOL     OW36232   0.386   8.230   4.273  0.3821 -0.1870  0.2748
11690SOL    HW136233   0.442   8.299   4.311  0.2307 -0.3655  0.8172
11690SOL    HW236234   0.333   8.198   4.346 -0.1549 -0.2960 -0.1568
11691SOL     OW36235   5.638   5.978   8.802  0.0053 -0.6969  0.3832
11691SOL    HW136236   5.601   5.890   8.791 -1.6405  0.2004 -2.1766
11691SOL    HW236237   5.725   5.972   8.763  0.0374 -1.2829  0.5317
11692SOL     OW36238   6.919   7.242   1.032  0.1588 -0.3270  0.2545
11692SOL    HW136239   6.961   7.290   0.961  0.0964 -0.9736 -0.2329
11692SOL    HW236240   6.825   7.258   1.019  0.1586 -0.2795  0.3142
11693SOL     OW36241   5.071   6.964   5.775  0.6823  0.0186 -0.4829
11693SOL    HW136242   5.091   6.909   5.850 -0.6086  1.0694  0.6948
11693SOL    HW236243   5.153   7.010   5.757  0.3477  1.9150  2.2140
11694SOL     OW36244   3.834   7.131   1.286  0.0532  0.2715  0.3175
11694SOL    HW136245   3.906   7.132   1.349  0.3495 -0.1422 -0.0097
11694SOL    HW236246   3.777   7.060   1.315  0.3390 -0.1084 -0.0414
11695SOL     OW36247   7.332   8.236   0.819 -0.0672  0.2647  0.7479
11695SOL    HW136248   7.389   8.278   0.883  0.5080  1.8499 -0.7323
11695SOL    HW236249   7.362   8.145   0.816  2.5192  1.0484 -0.0170
11696SOL     OW36250   8.508   3.705   4.198 -0.3973  0.3607  0.4322
11696SOL    HW136251   8.474   3.660   4.121 -0.4104  0.8898  0.1243
11696SOL    HW236252   8.600   3.724   4.176 -0.3891  0.4776  0.5627
11697SOL     OW36253   8.410   8.618   2.219  0.6163 -0.4574 -0.1633
11697SOL    HW136254   8.468   8.668   2.277  0.6280 -1.0353  0.3407
11697SOL    HW236255   8.425   8.527   2.244 -2.5668 -0.5517  2.0142
11698SOL     OW36256   2.403   4.351   8.261  0.4982  0.2834 -0.6067
11698SOL    HW136257   2.463   4.426   8.263 -0.1643  0.8216 -0.5046
11698SOL    HW236258   2.453   4.281   8.218  0.8369  1.0396 -1.4772
11699SOL     OW36259   1.736   8.612   1.110  0.1041 -0.6709  0.7542
11699SOL    HW136260   1.721   8.533   1.060 -0.5028 -1.0540  1.5276
11699SOL    HW236261   1.655   8.663   1.101  0.0428 -0.6804  1.2276
11700SOL     OW36262   0.866   3.574   8.242  1.0598  0.0370  0.1223
11700SOL    HW136263   0.916   3.639   8.191  1.6414 -0.0842  0.5369
11700SOL    HW236264   0.829   3.516   8.175  1.1265  0.3741 -0.2146
11701SOL     OW36265   4.850   5.578   0.574  0.0786  0.5620 -0.0102
11701SOL    HW136266   4.819   5.587   0.484  0.8273  2.0222 -0.1625
11701SOL    HW236267   4.846   5.484   0.593 -1.3287  0.3825 -1.1019
11702SOL     OW36268   1.807   1.447   5.439 -0.0658  0.2247  0.1806
11702SOL    HW136269   1.810   1.520   5.500 -0.6430 -0.8178  1.5156
11702SOL    HW236270   1.735   1.467   5.380 -0.4417  0.5830  0.7539
11703SOL     OW36271   3.566   3.232   2.510 -0.0799 -0.5736 -0.9951
11703SOL    HW136272   3.499   3.194   2.567  0.4991 -0.7568 -0.4210
11703SOL    HW236273   3.533   3.218   2.421 -0.6573 -0.9347 -0.7285
11704SOL     OW36274   2.973   8.833   7.755 -0.3509  0.0744  0.6532
11704SOL    HW136275   2.998   8.921   7.784 -1.7222  0.9354 -0.6132
11704SOL    HW236276   2.888   8.845   7.711  0.6347 -1.4021 -1.8986
11705SOL     OW36277   5.030   7.065   0.231 -0.2015  0.0030 -0.0872
11705SOL    HW136278   4.957   7.074   0.170 -0.4965  0.4769  0.3318
11705SOL    HW236279   5.016   7.134   0.296 -1.3612 -2.0867  2.0442
11706SOL     OW36280   2.321   2.326   7.732  0.3251  0.0910 -0.0483
11706SOL    HW136281   2.329   2.368   7.818  2.3181 -0.1793 -0.0487
11706SOL    HW236282   2.411   2.318   7.701 -0.2066 -1.6297 -1.2962
11707SOL     OW36283   1.954   0.493   5.192  0.2347  0.2775  0.4988
11707SOL    HW136284   1.949   0.409   5.145 -1.4533  0.9467 -0.6206
11707SOL    HW236285   2.011   0.475   5.266 -2.9131 -2.9725  2.4984
11708SOL     OW36286   3.858   5.638   1.159  0.0850  0.3752  0.5165
11708SOL    HW136287   3.836   5.643   1.066 -1.3014 -0.1485  0.7939
11708SOL    HW236288   3.822   5.554   1.188  0.8725  0.3305  1.4412
11709SOL     OW36289   0.472   4.591   8.318  0.4664  0.2082  0.2758
11709SOL    HW136290   0.494   4.610   8.410  1.1417  1.7193 -0.1594
11709SOL    HW236291   0.465   4.678   8.278 -3.3313 -0.2045 -0.3398
11710SOL     OW36292   8.147   3.463   6.096 -0.0283  0.2266  0.4901
11710SOL    HW136293   8.102   3.547   6.086  1.4777  0.9707 -0.6235
11710SOL    HW236294   8.127   3.435   6.184 -2.3838  0.6509  0.1499
11711SOL     OW36295   4.008   0.860   1.606 -0.0323 -0.2337  0.1682
11711SOL    HW136296   4.014   0.845   1.700 -0.3403 -1.6690 -0.0157
11711SOL    HW236297   3.915   0.874   1.589 -0.0107 -0.2435  0.0382
11712SOL     OW36298   0.560   4.530   6.485  0.3451 -0.1940  0.4179
11712SOL    HW136299   0.608   4.476   6.548  0.3660 -1.6630 -0.8073
11712SOL    HW236300   0.597   4.507   6.400 -1.5585 -0.3365 -0.4336
11713SOL     OW36301   7.129   7.301   5.429 -0.6645  0.3050 -0.5088
11713SOL    HW136302   7.142   7.241   5.502 -0.3828  0.0225 -0.7889
11713SOL    HW236303   7.093   7.380   5.469 -1.6393 -0.2730 -0.2185
11714SOL     OW36304   1.455   3.238   4.343 -0.0852  0.1367  0.6060
11714SOL    HW136305   1.366   3.229   4.307  0.7884  1.0371 -1.9432
11714SOL    HW236306   1.453   3.321   4.390 -0.6448  0.0389  0.7723
11715SOL     OW36307   3.367   1.627   7.207  0.2360  0.2214 -0.2036
11715SOL    HW136308   3.320   1.582   7.276  0.6379 -0.0529 -0.1074
11715SOL    HW236309   3.460   1.606   7.222  0.5821  2.1616  0.6506
11716SOL     OW36310   0.520   6.846   2.637  0.3307  0.1010 -0.0710
11716SOL    HW136311   0.591   6.793   2.599  1.3305  0.8584  0.6756
11716SOL    HW236312   0.521   6.926   2.584 -0.2093 -0.0262 -0.2755
11717SOL     OW36313   6.713   0.428   4.603 -0.1840 -0.1825  0.2763
11717SOL    HW136314   6.695   0.506   4.551 -1.2482  0.3411  1.3802
11717SOL    HW236315   6.708   0.458   4.694 -1.7028 -1.7361  0.7625
11718SOL     OW36316   4.015   1.200   0.186  0.1712 -0.5022  0.6490
11718SOL    HW136317   4.078   1.271   0.174 -0.2849 -0.4354 -2.2161
11718SOL    HW236318   3.932   1.244   0.203  0.0554 -0.3383 -0.2605
11719SOL     OW36319   5.023   3.962   3.793 -0.0274 -0.1883  0.3381
11719SOL    HW136320   5.007   4.056   3.798 -0.0343 -0.2192  0.9364
11719SOL    HW236321   5.088   3.945   3.860 -0.6949 -0.7552  0.8558
11720SOL     OW36322   3.336   6.878   0.370  0.1454 -0.3662 -0.1044
11720SOL    HW136323   3.401   6.920   0.313 -0.6257  0.3682 -0.4693
11720SOL    HW236324   3.270   6.946   0.385 -1.3241 -1.5390 -0.9858
11721SOL     OW36325   0.794   8.798   4.498 -0.3864  0.1857  0.1627
11721SOL    HW136326   0.705   8.767   4.479 -1.1317  0.4229  2.8136
11721SOL    HW236327   0.795   8.889   4.469 -1.3048  0.4193  0.8037
11722SOL     OW36328   8.368   1.167   5.014 -0.2639 -0.3070 -0.0455
11722SOL    HW136329   8.361   1.229   5.087 -0.5150 -0.1728 -0.1850
11722SOL    HW236330   8.455   1.184   4.977  0.7155 -1.7391  1.4611
11723SOL     OW36331   5.599   5.052   5.723 -0.1065  0.5365 -0.3448
11723SOL    HW136332   5.615   5.073   5.631  0.2938  0.1141 -0.3769
11723SOL    HW236333   5.572   4.960   5.721  3.7075 -0.7854  0.2722
11724SOL     OW36334   8.462   3.750   5.470 -0.3318  0.0044 -0.7299
11724SOL    HW136335   8.369   3.728   5.464 -0.6076  0.8747  0.0706
11724SOL    HW236336   8.470   3.835   5.426 -0.1156  0.4167  0.0795
11725SOL     OW36337   2.023   0.435   2.178 -0.2081 -0.1894  0.4490
11725SOL    HW136338   2.026   0.356   2.125 -0.9790 -0.6267  1.0300
11725SOL    HW236339   2.087   0.494   2.137 -1.0685 -0.3426 -1.2203
11726SOL     OW36340   1.645   8.697   7.076 -0.4465  0.1311 -0.5604
11726SOL    HW136341   1.643   8.742   6.992  1.6138 -1.4122 -1.5210
11726SOL    HW236342   1.573   8.634   7.071 -1.6887  1.4752 -0.2472
11727SOL     OW36343   8.007   5.023   6.518 -0.1260  0.4715 -0.1310
11727SOL    HW136344   7.957   5.041   6.597  0.8108 -0.6627  0.7516
11727SOL    HW236345   8.069   5.095   6.512  1.3329 -0.5747  1.4853
11728SOL     OW36346   3.670   2.694   6.220  0.6414  0.2985 -0.4578
11728SOL    HW136347   3.695   2.729   6.305  0.1190 -0.5361  0.0538
11728SOL    HW236348   3.668   2.770   6.162  0.1801  1.0092  0.4694
11729SOL     OW36349   5.005   3.715   8.542 -0.5928  0.4871  0.4267
11729SOL    HW136350   5.037   3.792   8.494 -0.0823  0.0246  0.0155
11729SOL    HW236351   4.911   3.715   8.524 -1.2621  2.9506  3.2023
11730SOL     OW36352   6.826   6.894   5.100 -0.5828  0.0209  0.2281
11730SOL    HW136353   6.885   6.937   5.162 -1.1764 -0.7733  1.3871
11730SOL    HW236354   6.807   6.809   5.140  0.0808 -1.0947 -1.7120
11731SOL     OW36355   7.523   2.410   0.510 -0.5755 -0.1299  0.4984
11731SOL    HW136356   7.528   2.419   0.605 -0.5402 -1.0287  0.5907
11731SOL    HW236357   7.614   2.409   0.481 -0.5021 -1.7348  0.6675
11732SOL     OW36358   0.738   2.351   2.756 -0.0660  0.4135  0.0118
11732SOL    HW136359   0.779   2.271   2.788  0.6540  0.4541 -0.7540
11732SOL    HW236360   0.656   2.323   2.716  0.0093  0.1068  0.0724
11733SOL     OW36361   7.821   2.141   0.564  0.0347 -0.3214 -0.2050
11733SOL    HW136362   7.823   2.224   0.516  0.4320  0.6272  1.3506
11733SOL    HW236363   7.744   2.096   0.531 -0.1151  0.6117 -1.1863
11734SOL     OW36364   7.517   5.079   8.370  0.5692 -0.1149 -0.2964
11734SOL    HW136365   7.524   5.067   8.465  0.0939  1.8394  0.0322
11734SOL    HW236366   7.603   5.054   8.336  1.0607  0.0673  0.7636
11735SOL     OW36367   7.775   4.608   0.368  0.6526  0.2432 -0.3650
11735SOL    HW136368   7.770   4.640   0.278 -0.5241  1.5863  0.1258
11735SOL    HW236369   7.789   4.687   0.421  0.3785 -0.3965  0.6992
11736SOL     OW36370   3.264   4.161   1.811 -0.8046  0.2110 -0.6439
11736SOL    HW136371   3.314   4.188   1.734  2.1220 -1.3655  0.5486
11736SOL    HW236372   3.252   4.067   1.800  2.6466 -0.7946  2.1534
11737SOL     OW36373   8.169   2.750   3.577 -0.0185  0.2914  0.3294
11737SOL    HW136374   8.238   2.800   3.533  1.0572 -0.5028  1.0688
11737SOL    HW236375   8.091   2.768   3.525  0.8541  0.7493 -0.8857
11738SOL     OW36376   2.506   1.637   1.424  0.4276  0.0555 -0.4529
11738SOL    HW136377   2.428   1.600   1.381  1.0576 -0.0655 -1.5265
11738SOL    HW236378   2.551   1.685   1.355  1.5009 -0.1825  0.0632
11739SOL     OW36379   7.731   0.159   8.479 -0.0165 -0.3559 -0.1024
11739SOL    HW136380   7.644   0.166   8.518  0.6132 -0.5281  1.4041
11739SOL    HW236381   7.721   0.192   8.390 -1.3710  0.7111  0.4249
11740SOL     OW36382   6.700   0.555   7.246  0.8572  0.3169 -0.0459
11740SOL    HW136383   6.616   0.570   7.203  0.7861 -0.4234 -0.1799
11740SOL    HW236384   6.757   0.625   7.213  0.6472  0.0922 -0.9316
11741SOL     OW36385   7.963   0.667   8.818  0.5921  0.2351 -0.4768
11741SOL    HW136386   7.997   0.703   8.737 -1.7410 -1.5122 -2.3855
11741SOL    HW236387   7.915   0.588   8.792  1.6470 -1.7380  2.8956
11742SOL     OW36388   3.557   1.661   0.889 -0.1243 -0.1660 -0.1730
11742SOL    HW136389   3.562   1.625   0.978  0.6567  1.3236  0.4228
11742SOL    HW236390   3.463   1.664   0.869 -0.4846  1.6107  1.5379
11743SOL     OW36391   7.641   8.407   5.931 -0.0164  0.8378  0.0631
11743SOL    HW136392   7.657   8.420   5.838  0.5504 -0.2119 -0.0028
11743SOL    HW236393   7.552   8.439   5.945 -0.5848 -0.1554 -1.0998
11744SOL     OW36394   8.175   3.375   5.594 -0.6390  0.3953 -0.0272
11744SOL    HW136395   8.179   3.299   5.652  1.0697  0.7518  0.3952
11744SOL    HW236396   8.189   3.450   5.651 -2.2219  1.0494 -0.4497
11745SOL     OW36397   7.811   1.780   1.295 -0.1093 -0.9885  0.0842
11745SOL    HW136398   7.756   1.849   1.258  1.1453 -1.0711 -2.1139
11745SOL    HW236399   7.872   1.825   1.352  0.3544 -0.3144 -0.9208
11746SOL     OW36400   6.039   6.957   6.929 -0.7130  0.3853  0.3111
11746SOL    HW136401   6.000   6.889   6.984 -1.5154  0.9714  0.4832
11746SOL    HW236402   6.123   6.977   6.970 -0.1996 -0.8970 -0.0624
11747SOL     OW36403   5.113   5.184   3.271  0.5091  0.1198 -0.3812
11747SOL    HW136404   5.060   5.104   3.276 -1.9752  1.5356 -1.9245
11747SOL    HW236405   5.148   5.183   3.182  2.0298 -0.0907  0.1834
11748SOL     OW36406   5.348   3.609   1.475  0.3670 -0.1940  0.3069
11748SOL    HW136407   5.337   3.523   1.516  0.4012  0.1412  1.0484
11748SOL    HW236408   5.400   3.659   1.538  2.7776 -0.4669 -1.3464
11749SOL     OW36409   3.225   8.450   1.200 -0.8044  0.5476 -0.1456
11749SOL    HW136410   3.315   8.435   1.229 -0.5621  2.0859 -0.0075
11749SOL    HW236411   3.173   8.386   1.250  0.0582  0.5177  0.7606
11750SOL     OW36412   7.800   6.657   4.459 -0.2924  0.2160 -0.6790
11750SOL    HW136413   7.813   6.704   4.541  1.9014 -0.3726 -0.6232
11750SOL    HW236414   7.745   6.715   4.407 -1.6331  0.6608  1.1305
11751SOL     OW36415   4.301   0.819   3.947 -0.1222 -0.7101 -0.4194
11751SOL    HW136416   4.316   0.910   3.921 -0.3739 -0.7688 -0.7832
11751SOL    HW236417   4.299   0.771   3.864  0.6807 -1.1519 -0.1959
11752SOL     OW36418   1.965   3.345   4.956 -0.5662  0.1737 -0.2864
11752SOL    HW136419   1.901   3.358   5.025 -0.5717  0.0787 -0.2728
11752SOL    HW236420   2.010   3.264   4.980  1.3902  1.5947  1.1474
11753SOL     OW36421   3.662   1.485   0.306  0.0001 -0.6775 -0.5028
11753SOL    HW136422   3.751   1.511   0.280 -0.3401 -0.3882 -1.4064
11753SOL    HW236423   3.642   1.541   0.380  1.7414 -2.8461  1.7794
11754SOL     OW36424   3.384   5.988   5.622 -0.4465 -0.0644  0.1381
11754SOL    HW136425   3.304   5.940   5.641 -1.0055  0.2230 -1.2933
11754SOL    HW236426   3.453   5.922   5.619 -1.4369 -1.1603 -3.3241
11755SOL     OW36427   7.948   1.274   3.175  0.4099  0.0700  0.2615
11755SOL    HW136428   8.010   1.343   3.152  1.7602 -1.0475  0.4148
11755SOL    HW236429   7.933   1.227   3.093 -0.4830  0.4884  0.1642
11756SOL     OW36430   3.458   2.569   2.955  0.3825  0.3634  0.4074
11756SOL    HW136431   3.480   2.604   2.869  1.7119  1.1046  1.0171
11756SOL    HW236432   3.529   2.507   2.975 -0.6248 -0.8258  0.4121
11757SOL     OW36433   3.904   3.321   0.270  0.3832 -0.5124 -0.2021
11757SOL    HW136434   3.967   3.358   0.207  0.9177 -1.8178 -0.4790
11757SOL    HW236435   3.860   3.397   0.308  0.8833  0.3539 -1.3032
11758SOL     OW36436   3.626   3.953   8.571  0.1421  0.2638 -0.7997
11758SOL    HW136437   3.704   3.992   8.611 -0.7947  0.0545  1.3987
11758SOL    HW236438   3.571   4.028   8.546  1.3689  0.4462 -3.2440
11759SOL     OW36439   4.698   7.861   5.025 -0.6205 -0.2979 -0.2076
11759SOL    HW136440   4.780   7.909   5.031 -0.5040 -0.6379  3.3707
11759SOL    HW236441   4.635   7.924   4.991  0.7299  0.4758 -1.3836
11760SOL     OW36442   4.866   4.000   0.921  0.1323  0.2581 -0.1598
11760SOL    HW136443   4.822   4.084   0.935 -2.4036 -0.6218 -1.9896
11760SOL    HW236444   4.872   3.991   0.826  0.7517 -1.4073  0.0007
11761SOL     OW36445   7.772   3.992   8.208 -0.1452 -0.4862 -0.3593
11761SOL    HW136446   7.699   3.996   8.146 -0.3084 -0.2336 -0.1572
11761SOL    HW236447   7.805   3.903   8.201  0.0513 -0.3655 -1.0482
11762SOL     OW36448   5.543   2.412   5.324 -0.6047 -0.0916 -0.0924
11762SOL    HW136449   5.490   2.447   5.395  0.3104  1.6075 -0.2067
11762SOL    HW236450   5.495   2.333   5.295 -2.0205  0.3002  1.0643
11763SOL     OW36451   6.375   7.125   5.486  0.2598  0.3755 -0.2081
11763SOL    HW136452   6.452   7.180   5.501  0.1789 -0.0863  2.3270
11763SOL    HW236453   6.407   7.054   5.430  1.3661  0.8546 -0.2149
11764SOL     OW36454   3.325   6.379   7.512 -0.2038 -0.0917  0.0655
11764SOL    HW136455   3.385   6.411   7.444  0.9901 -1.7754  0.2743
11764SOL    HW236456   3.294   6.295   7.480 -1.5929  0.2182  0.5108
11765SOL     OW36457   7.386   3.602   5.302  0.0996 -0.7202 -0.3653
11765SOL    HW136458   7.479   3.584   5.295  0.5327  1.1876 -0.0417
11765SOL    HW236459   7.350   3.578   5.216  1.2794  0.4836 -1.2393
11766SOL     OW36460   0.378   8.474   2.500 -0.1668 -0.5612 -0.3959
11766SOL    HW136461   0.460   8.522   2.497 -0.8022  0.4996 -1.8578
11766SOL    HW236462   0.314   8.531   2.457 -1.2898 -2.0701 -0.8519
11767SOL     OW36463   5.774   2.242   2.356  0.5552  0.0097 -0.4976
11767SOL    HW136464   5.788   2.181   2.428  1.8255  0.6123 -0.2128
11767SOL    HW236465   5.726   2.315   2.396  1.4809  0.4590 -0.1958
11768SOL     OW36466   6.187   2.056   8.144 -0.3365  0.1825 -0.0614
11768SOL    HW136467   6.149   2.039   8.058  0.4329 -0.0666 -0.3650
11768SOL    HW236468   6.167   1.978   8.195 -2.3145  1.0365  0.5627
11769SOL     OW36469   8.633   7.035   2.314 -0.1548  0.2415  0.3075
11769SOL    HW136470   8.717   7.055   2.356 -1.0699  2.2633  1.3576
11769SOL    HW236471   8.579   7.000   2.385 -0.6648  0.4323  0.0169
11770SOL     OW36472   8.706   4.235   2.472 -0.0213 -0.2712  0.4747
11770SOL    HW136473   8.674   4.256   2.559  0.3522  0.6012  0.4112
11770SOL    HW236474   8.715   4.320   2.428 -0.1284 -0.6897 -0.3877
11771SOL     OW36475   1.622   8.825   4.204  0.0473  0.2947 -0.0308
11771SOL    HW136476   1.538   8.849   4.241  0.8505  1.0463  1.3712
11771SOL    HW236477   1.664   8.908   4.182  1.3336  0.0833  1.4357
11772SOL     OW36478   4.634   3.867   1.907 -0.0030 -0.2095  0.2979
11772SOL    HW136479   4.702   3.863   1.840 -0.6748  1.2609 -0.5034
11772SOL    HW236480   4.678   3.908   1.982  0.2573 -0.1341  0.1077
11773SOL     OW36481   2.301   8.291   3.968  0.4431 -0.1081 -0.3606
11773SOL    HW136482   2.272   8.354   3.901 -1.1186  1.3030  1.5071
11773SOL    HW236483   2.222   8.243   3.991  0.8438 -0.2573  0.7589
11774SOL     OW36484   5.077   1.186   8.647 -0.1293  0.4032 -0.4095
11774SOL    HW136485   5.040   1.203   8.734 -0.0892  1.1594 -0.5379
11774SOL    HW236486   5.031   1.246   8.589 -0.2392 -0.1829 -0.9358
11775SOL     OW36487   8.595   0.499   8.578  0.6004 -0.4999  0.4532
11775SOL    HW136488   8.543   0.486   8.657 -0.3544  0.5984  0.0458
11775SOL    HW236489   8.622   0.411   8.552 -2.0250 -1.2942  0.0644
11776SOL     OW36490   0.130   3.496   5.188  0.6164  0.2999  0.1660
11776SOL    HW136491   0.068   3.425   5.204  0.4237  0.5454  0.5334
11776SOL    HW236492   0.183   3.500   5.268  1.5643 -0.3560 -0.4036
11777SOL     OW36493   1.603   0.390   5.456  0.0771  0.1417  0.6085
11777SOL    HW136494   1.645   0.368   5.539 -0.6129  0.4149  1.0411
11777SOL    HW236495   1.645   0.471   5.428 -0.2073  0.4498  1.0732
11778SOL     OW36496   1.180   2.724   1.547 -0.0021  0.2046  0.3160
11778SOL    HW136497   1.121   2.662   1.591  1.0427 -0.9052  0.2029
11778SOL    HW236498   1.208   2.678   1.468 -0.4497  1.4751 -0.6091
11779SOL     OW36499   6.843   0.088   2.038  0.2799  0.0468  0.3215
11779SOL    HW136500   6.874   0.121   1.954  2.1514 -0.5325  0.7408
11779SOL    HW236501   6.747   0.090   2.031  0.3610  1.9509 -1.0329
11780SOL     OW36502   4.282   5.056   7.090  0.1960 -0.6354  0.5956
11780SOL    HW136503   4.273   5.042   7.184  1.3645 -2.9062  0.4294
11780SOL    HW236504   4.211   5.006   7.051  0.1454 -0.2815  0.2295
11781SOL     OW36505   1.150   7.489   7.296 -0.0307  0.1733 -0.2540
11781SOL    HW136506   1.119   7.474   7.385 -1.6996 -2.1358 -1.1154
11781SOL    HW236507   1.238   7.453   7.294  0.3847  1.1049  0.6772
11782SOL     OW36508   6.428   4.929   0.739  0.4638 -0.2755 -0.4582
11782SOL    HW136509   6.504   4.876   0.715  1.1249 -0.3511  1.6348
11782SOL    HW236510   6.459   5.019   0.728  0.8377 -0.3069  0.2651
11783SOL     OW36511   7.419   5.837   7.584  0.5274 -0.1728  0.1102
11783SOL    HW136512   7.427   5.838   7.679  2.1091  0.4600  0.0088
11783SOL    HW236513   7.397   5.928   7.561  2.7823  0.3370 -0.2576
11784SOL     OW36514   5.079   0.159   7.415 -0.3720  0.0210 -0.0938
11784SOL    HW136515   5.171   0.176   7.396 -0.1237 -0.3308  0.7828
11784SOL    HW236516   5.038   0.246   7.414  0.4157  0.4631  1.8074
11785SOL     OW36517   7.058   6.458   6.270 -0.0191 -0.3077 -0.8381
11785SOL    HW136518   7.120   6.492   6.206 -1.4444 -1.6842 -3.0809
11785SOL    HW236519   7.098   6.476   6.355  1.8378  1.8232 -2.0756
11786SOL     OW36520   0.726   5.327   4.124 -0.1174  0.8683  0.6687
11786SOL    HW136521   0.637   5.293   4.133 -0.5457  0.2506 -3.7152
11786SOL    HW236522   0.721   5.391   4.053  2.6790  2.1987  1.4932
11787SOL     OW36523   2.156   3.400   6.066 -0.1634  0.1922 -0.1039
11787SOL    HW136524   2.078   3.347   6.049 -1.4009  1.7870  0.3605
11787SOL    HW236525   2.154   3.468   5.999 -0.2495  1.3682  1.0543
11788SOL     OW36526   4.169   4.067   2.774 -0.1315 -0.4508  0.5238
11788SOL    HW136527   4.234   4.136   2.761 -0.3735 -0.2227  0.5125
11788SOL    HW236528   4.200   3.994   2.720 -0.1270 -0.1812  0.1539
11789SOL     OW36529   5.978   8.477   0.859 -0.2196  1.0117 -0.0837
11789SOL    HW136530   6.053   8.515   0.814 -1.3644  1.8556 -1.3733
11789SOL    HW236531   5.910   8.545   0.854 -1.6541 -0.3782 -0.6092
11790SOL     OW36532   7.417   6.348   2.497  0.1953 -0.4480 -0.6924
11790SOL    HW136533   7.456   6.429   2.530  0.2875  0.0151 -1.8947
11790SOL    HW236534   7.323   6.367   2.494  0.3173  0.0681 -2.0982
11791SOL     OW36535   0.938   2.009   7.746  0.5877 -0.5355  0.3976
11791SOL    HW136536   0.870   2.072   7.768 -0.7403 -2.0782  0.9217
11791SOL    HW236537   0.982   2.046   7.670 -0.2186  0.9389  0.6079
11792SOL     OW36538   5.502   7.327   0.311  0.3566  0.2940 -0.4294
11792SOL    HW136539   5.509   7.420   0.288 -0.6449  0.7477  0.9356
11792SOL    HW236540   5.585   7.288   0.284  1.0582  1.7306 -0.4059
11793SOL     OW36541   7.437   7.044   6.106  0.0857  0.4142 -0.1486
11793SOL    HW136542   7.443   7.104   6.032  1.0268 -0.8501 -1.1395
11793SOL    HW236543   7.500   7.078   6.170 -1.1204  1.8208  0.3415
11794SOL     OW36544   6.236   3.423   8.082 -0.0847 -0.4959  0.2841
11794SOL    HW136545   6.186   3.505   8.082  2.2565  1.1087  2.4140
11794SOL    HW236546   6.174   3.357   8.112 -1.3833  1.0685  1.2533
11795SOL     OW36547   0.842   1.261   2.140 -0.3791 -0.0376  0.5846
11795SOL    HW136548   0.899   1.260   2.217  0.8312 -1.5548 -0.2618
11795SOL    HW236549   0.881   1.327   2.082 -0.4496  0.0940  0.6875
11796SOL     OW36550   5.785   6.468   0.933  0.4934  0.3095  0.5270
11796SOL    HW136551   5.713   6.484   0.872 -0.1920 -0.7838  1.0117
11796SOL    HW236552   5.854   6.430   0.878  0.8638  1.6901 -0.0021
11797SOL     OW36553   2.110   0.177   8.837  0.3592 -0.1992 -0.4523
11797SOL    HW136554   2.184   0.238   8.840  0.2310 -0.0332 -0.7038
11797SOL    HW236555   2.068   0.194   8.753 -0.2356  0.0201 -0.1111
11798SOL     OW36556   7.805   3.594   6.916  0.2999  0.4053 -0.0228
11798SOL    HW136557   7.811   3.594   6.820  0.2670 -0.8751 -0.0487
11798SOL    HW236558   7.779   3.504   6.938  3.4319 -0.2784  1.3679
11799SOL     OW36559   2.733   8.510   6.228 -0.6848 -0.1967  0.6293
11799SOL    HW136560   2.728   8.595   6.185  2.5800  0.0251  0.4707
11799SOL    HW236561   2.682   8.521   6.309  0.3098  2.1791  1.0152
11800SOL     OW36562   0.853   7.773   6.178  0.5283  0.1427  0.3555
11800SOL    HW136563   0.860   7.699   6.238  0.7921 -1.6107 -1.7455
11800SOL    HW236564   0.934   7.822   6.191  0.6225 -0.2538  1.3521
11801SOL     OW36565   4.800   1.224   1.088  0.2803 -0.7497  0.2970
11801SOL    HW136566   4.894   1.228   1.109  0.7068 -2.1607 -1.1187
11801SOL    HW236567   4.786   1.133   1.060 -1.0379 -0.0537 -1.5237
11802SOL     OW36568   4.523   4.655   7.775 -0.2261  0.4535 -0.0177
11802SOL    HW136569   4.520   4.594   7.849 -1.3849 -0.5419 -0.8452
11802SOL    HW236570   4.596   4.713   7.795 -0.6608  0.3697  2.0238
11803SOL     OW36571   0.862   6.031   3.105  0.1050  0.4075 -0.6763
11803SOL    HW136572   0.832   5.941   3.120 -0.3540  0.6937  0.1966
11803SOL    HW236573   0.861   6.042   3.010  0.7304 -0.6993 -0.8254
11804SOL     OW36574   6.792   4.738   4.435  0.8183  0.2671 -0.6842
11804SOL    HW136575   6.764   4.648   4.416 -0.5278  0.7886 -1.2950
11804SOL    HW236576   6.735   4.793   4.380  0.5277  1.5740  0.8554
11805SOL     OW36577   3.845   1.027   0.012  0.7884 -0.8764  0.3208
11805SOL    HW136578   3.893   0.989  -0.062  1.0091 -1.9381  0.9784
11805SOL    HW236579   3.908   1.026   0.084  0.4096 -0.3461  0.6665
11806SOL     OW36580   7.800   0.955   0.530 -0.4407 -0.8271 -0.4804
11806SOL    HW136581   7.794   1.039   0.484 -0.6523 -2.1181 -2.9888
11806SOL    HW236582   7.832   0.978   0.618 -2.5408  2.0653 -0.3358
11807SOL     OW36583   2.353   8.137   6.266  0.0958  0.4633 -0.2245
11807SOL    HW136584   2.414   8.189   6.214 -0.8875  2.7371  0.7845
11807SOL    HW236585   2.277   8.124   6.209  0.4818 -0.1711 -0.5965
11808SOL     OW36586   3.534   5.108   1.057  0.1552  0.1192 -0.3037
11808SOL    HW136587   3.531   5.067   1.143  2.1882  0.1594 -0.1777
11808SOL    HW236588   3.457   5.073   1.012 -0.0536 -1.1584  0.9644
11809SOL     OW36589   0.030   3.572   5.811  0.2943 -0.1236 -0.8445
11809SOL    HW136590   0.025   3.637   5.881 -2.6639 -0.6385 -0.4408
11809SOL    HW236591   0.053   3.622   5.733  0.9296  0.9055 -0.0244
11810SOL     OW36592   0.352   2.663   5.565  0.1819  0.2297 -0.5430
11810SOL    HW136593   0.380   2.645   5.475  1.8587  0.3992 -0.1075
11810SOL    HW236594   0.431   2.650   5.617 -0.7327  0.2425  0.8997
11811SOL     OW36595   5.631   6.082   3.642 -0.4612 -0.5134  0.1708
11811SOL    HW136596   5.623   6.064   3.548 -0.3855  0.2733  0.0143
11811SOL    HW236597   5.720   6.056   3.664 -0.1256  0.3046 -0.1991
11812SOL     OW36598   5.809   7.838   4.184 -0.1376 -0.1325 -0.5243
11812SOL    HW136599   5.758   7.775   4.234  0.6850 -2.3776 -2.3329
11812SOL    HW236600   5.819   7.798   4.098  0.0271  2.7416 -1.9561
11813SOL     OW36601   7.013   6.354   4.488 -0.3897  0.1265  0.2030
11813SOL    HW136602   7.084   6.411   4.455 -1.6081  1.1591 -0.7639
11813SOL    HW236603   7.048   6.316   4.568  1.0204  1.1177  0.0989
11814SOL     OW36604   4.292   4.254   7.694  0.0668 -0.1620  0.0413
11814SOL    HW136605   4.381   4.262   7.727 -0.0680 -1.0681  0.6476
11814SOL    HW236606   4.296   4.181   7.632 -0.3270 -0.4324  0.3331
11815SOL     OW36607   0.706   3.663   4.596  0.3230  0.2110  0.0419
11815SOL    HW136608   0.695   3.605   4.672  0.8547  0.5021  0.3412
11815SOL    HW236609   0.685   3.750   4.630 -1.2296  0.1166 -0.5880
11816SOL     OW36610   1.101   1.884   0.882  0.4405 -0.1222 -0.3563
11816SOL    HW136611   1.103   1.979   0.869  3.6673 -0.1008 -0.5805
11816SOL    HW236612   1.142   1.871   0.968 -0.8522 -1.3165  0.1175
11817SOL     OW36613   5.048   5.235   3.550 -0.5272 -0.2460 -0.2416
11817SOL    HW136614   5.093   5.201   3.473 -1.6843 -3.0501  0.2025
11817SOL    HW236615   5.078   5.325   3.557  1.6792 -0.6996 -2.3944
11818SOL     OW36616   8.501   3.732   0.515 -0.2312 -0.1954 -0.0687
11818SOL    HW136617   8.512   3.826   0.530 -0.3233 -0.3639  1.2113
11818SOL    HW236618   8.436   3.725   0.446  1.4648  0.7070 -1.8580
11819SOL     OW36619   3.284   5.237   3.759  0.0626 -0.3863  0.0832
11819SOL    HW136620   3.292   5.252   3.854 -0.3332 -0.2080  0.0948
11819SOL    HW236621   3.222   5.304   3.730  1.1910  0.4165 -0.5351
11820SOL     OW36622   1.941   1.214   5.464  0.4975 -0.1046  0.2511
11820SOL    HW136623   1.920   1.305   5.444  1.1635 -0.0181 -0.0556
11820SOL    HW236624   1.857   1.176   5.492 -0.1162  0.2099 -1.0522
11821SOL     OW36625   6.214   6.860   0.339 -0.5686 -0.5113  0.3083
11821SOL    HW136626   6.149   6.849   0.269  2.2529  0.3470 -2.6994
11821SOL    HW236627   6.249   6.773   0.353 -1.0732 -0.6695  0.6173
11822SOL     OW36628   8.677   8.267   8.677 -0.7609 -0.5841 -0.2966
11822SOL    HW136629   8.663   8.356   8.645 -0.7996 -0.7687 -0.8053
11822SOL    HW236630   8.634   8.211   8.612  0.3611 -1.0384 -0.6738
11823SOL     OW36631   6.904   2.065   4.579  0.5510  0.0580 -0.1437
11823SOL    HW136632   6.983   2.112   4.553 -0.1923  0.8639 -1.0097
11823SOL    HW236633   6.904   2.068   4.675 -0.2032  3.1658 -0.1337
11824SOL     OW36634   0.945   5.412   5.838  0.5399 -0.5832 -0.1231
11824SOL    HW136635   1.023   5.358   5.851  0.5947 -0.6163 -0.5855
11824SOL    HW236636   0.886   5.357   5.787  0.3828 -0.3976 -0.1418
11825SOL     OW36637   6.076   4.048   4.362  0.0423 -0.2472  0.2996
11825SOL    HW136638   6.045   3.962   4.389  0.2932 -0.2087  0.7188
11825SOL    HW236639   6.077   4.045   4.266  2.1420 -1.4670  0.3172
11826SOL     OW36640   7.930   6.876   2.802  0.0272 -0.3533  0.1433
11826SOL    HW136641   7.988   6.893   2.876  0.7713 -0.5623 -0.3862
11826SOL    HW236642   7.869   6.950   2.803  1.2482  0.6860 -0.2053
11827SOL     OW36643   4.235   5.181   5.431 -0.4832  1.1324  0.1418
11827SOL    HW136644   4.232   5.248   5.500 -0.8917  0.9323  0.3201
11827SOL    HW236645   4.288   5.111   5.469 -1.8933  0.3966  0.8259
11828SOL     OW36646   3.538   2.485   3.848 -0.0319 -0.0138  0.3307
11828SOL    HW136647   3.460   2.511   3.898  0.1267 -0.6593  0.9413
11828SOL    HW236648   3.600   2.458   3.915  0.4546 -0.2050 -0.1944
11829SOL     OW36649   7.419   1.745   5.844  0.2494  0.2834  0.2640
11829SOL    HW136650   7.390   1.761   5.934  1.8932 -2.0509  1.3474
11829SOL    HW236651   7.349   1.692   5.805  0.2024 -0.0043  0.7263
11830SOL     OW36652   1.621   1.251   1.680 -0.1301 -0.0466  0.8364
11830SOL    HW136653   1.707   1.286   1.659  0.3502 -1.5108  0.2977
11830SOL    HW236654   1.610   1.176   1.622 -2.0568  0.4984  0.4183
11831SOL     OW36655   1.617   6.895   0.457 -0.1611  0.3294 -0.6338
11831SOL    HW136656   1.656   6.981   0.444  1.2055  0.0973  1.5523
11831SOL    HW236657   1.639   6.847   0.377  1.7271  1.0647 -0.6021
11832SOL     OW36658   7.173   8.603   6.061 -0.0840  0.3555  0.2282
11832SOL    HW136659   7.095   8.560   6.026  0.5886 -0.9306  0.2398
11832SOL    HW236660   7.145   8.639   6.145 -0.4858 -0.7721  0.5945
11833SOL     OW36661   1.052   7.597   4.761 -0.1882  0.1054  0.1001
11833SOL    HW136662   1.134   7.571   4.718  0.3804  1.3677  0.3748
11833SOL    HW236663   1.079   7.624   4.849 -0.9599  0.1495  0.3267
11834SOL     OW36664   6.502   5.231   4.664  0.1016 -0.0239  0.3002
11834SOL    HW136665   6.577   5.271   4.708  1.3209 -1.8963  0.0417
11834SOL    HW236666   6.533   5.210   4.576 -0.0323 -2.5410  0.7613
11835SOL     OW36667   0.690   5.812   8.218  0.8288  0.7197 -0.0496
11835SOL    HW136668   0.723   5.787   8.304  2.3271  0.1937 -0.7553
11835SOL    HW236669   0.645   5.896   8.233  1.8353  1.0746  1.0781
11836SOL     OW36670   2.541   3.098   7.368  0.0160 -0.8842  0.1425
11836SOL    HW136671   2.551   3.011   7.407 -0.0238 -1.7487 -1.6779
11836SOL    HW236672   2.607   3.100   7.299  1.6474  1.4611  1.6160
11837SOL     OW36673   8.376   2.913   1.335  0.1227  0.4705 -0.3201
11837SOL    HW136674   8.325   2.871   1.404  1.9895 -2.4935 -0.5691
11837SOL    HW236675   8.318   2.915   1.260 -0.9650  1.0572  0.5075
11838SOL     OW36676   6.337   0.180   4.661 -0.2164  0.2198  0.3753
11838SOL    HW136677   6.331   0.173   4.565  0.9510  2.0522  0.1190
11838SOL    HW236678   6.429   0.198   4.678 -0.3076 -0.6384  1.9227
11839SOL     OW36679   7.195   8.793   5.253 -0.5620 -0.0837 -0.3812
11839SOL    HW136680   7.204   8.869   5.311 -0.8449  0.7703 -1.4387
11839SOL    HW236681   7.107   8.760   5.271  0.7969 -2.5787  2.8861
11840SOL     OW36682   8.653   5.844   2.982  0.1714 -0.2301 -0.0326
11840SOL    HW136683   8.675   5.870   3.071 -0.5264 -0.8044  0.3166
11840SOL    HW236684   8.680   5.752   2.977 -1.9189 -0.9175  0.3563
11841SOL     OW36685   0.035   1.491   5.651 -0.3816  0.1453  0.0347
11841SOL    HW136686   0.077   1.405   5.659  0.5584  0.3790 -1.7647
11841SOL    HW236687  -0.051   1.479   5.690 -0.4324 -1.7587 -0.5256
11842SOL     OW36688   7.797   6.133   0.694 -0.4708 -0.2353 -0.4029
11842SOL    HW136689   7.752   6.145   0.778 -2.9814  1.8070 -1.8868
11842SOL    HW236690   7.821   6.221   0.667  1.3319 -0.9719 -1.3725
11843SOL     OW36691   5.002   6.717   2.955  0.4791  0.5972 -0.0027
11843SOL    HW136692   4.932   6.774   2.924 -0.0519 -0.0135  0.0533
11843SOL    HW236693   5.083   6.762   2.930  0.0656  1.3057 -0.0689
11844SOL     OW36694   6.011   5.308   7.126 -0.2219 -0.2577  0.3403
11844SOL    HW136695   6.028   5.317   7.220 -1.8706  1.3712  0.5280
11844SOL    HW236696   6.067   5.374   7.085  0.9795 -1.3910  0.0625
11845SOL     OW36697   3.363   8.637   1.443 -0.4654  0.5953 -0.3607
11845SOL    HW136698   3.424   8.711   1.448  0.0872  0.2061 -1.0968
11845SOL    HW236699   3.289   8.671   1.393  0.2728  0.3509 -1.6585
11846SOL     OW36700   1.126   6.666   6.008 -0.0543  0.0775  0.1933
11846SOL    HW136701   1.112   6.717   5.928 -0.3454  0.4799  0.4994
11846SOL    HW236702   1.110   6.576   5.982 -1.8442  0.3570  0.1838
11847SOL     OW36703   4.241   6.009   3.520  0.3040 -0.1269  0.0172
11847SOL    HW136704   4.250   5.985   3.612  0.5526 -0.1062 -0.0002
11847SOL    HW236705   4.174   6.077   3.519 -1.6617 -1.9595 -0.1204
11848SOL     OW36706   1.554   2.018   3.595  0.8356 -0.3778 -0.1958
11848SOL    HW136707   1.493   1.944   3.594  1.2909 -0.8233 -3.0398
11848SOL    HW236708   1.506   2.088   3.551  0.4610  1.0820  2.3464
11849SOL     OW36709   4.613   5.588   7.638  0.1648  0.5941 -0.3159
11849SOL    HW136710   4.552   5.635   7.582 -0.8123 -0.5793 -0.2804
11849SOL    HW236711   4.613   5.498   7.604  0.3221  0.0959  0.9283
11850SOL     OW36712   0.813   2.937   2.215  0.0364 -0.0253 -0.2499
11850SOL    HW136713   0.753   2.990   2.161 -0.0463 -0.7624 -0.8992
11850SOL    HW236714   0.757   2.903   2.285 -0.6061 -1.6570 -1.5020
11851SOL     OW36715   6.401   6.799   3.348  0.0890 -0.0715 -0.4358
11851SOL    HW136716   6.483   6.760   3.319  0.9518  0.6180  1.0105
11851SOL    HW236717   6.342   6.790   3.272  1.1777 -1.4449 -1.1518
11852SOL     OW36718   4.826   5.844   8.349 -0.0049  0.3151  0.2226
11852SOL    HW136719   4.916   5.878   8.345 -0.4042  1.2783 -1.7487
11852SOL    HW236720   4.781   5.887   8.276 -1.6085 -1.4945  0.0740
11853SOL     OW36721   2.409   8.701   1.291  0.8809  0.2171 -0.2710
11853SOL    HW136722   2.316   8.678   1.289  0.7903  0.2503  1.5798
11853SOL    HW236723   2.438   8.691   1.200 -1.3883  2.2399 -1.3192
11854SOL     OW36724   0.629   7.722   0.103 -0.3649 -0.2122 -0.1935
11854SOL    HW136725   0.631   7.727   0.008 -2.5898  1.5419 -0.2250
11854SOL    HW236726   0.667   7.805   0.132 -0.1557 -0.5244  0.4507
11855SOL     OW36727   0.072   3.286   7.637 -0.0737  0.7855  0.3966
11855SOL    HW136728   0.142   3.231   7.673 -0.2742 -0.3347 -0.8849
11855SOL    HW236729   0.118   3.348   7.579 -0.1167  0.1674 -0.3046
11856SOL     OW36730   0.335   2.379   3.547 -0.3468 -0.1140 -0.3298
11856SOL    HW136731   0.250   2.418   3.526 -1.2203 -0.9638  1.4152
11856SOL    HW236732   0.369   2.351   3.462 -3.3228 -2.7297 -0.8778
11857SOL     OW36733   6.780   5.151   2.275 -0.4986  0.6438  0.1555
11857SOL    HW136734   6.761   5.110   2.359  0.8554  1.1104  0.7136
11857SOL    HW236735   6.828   5.085   2.226  0.4408  1.0435  0.5165
11858SOL     OW36736   5.267   7.725   0.255 -0.1874  0.1356  0.5669
11858SOL    HW136737   5.174   7.701   0.258 -0.2805  0.1425 -1.0509
11858SOL    HW236738   5.275   7.777   0.175  1.5338 -1.4588 -0.3869
11859SOL     OW36739   8.200   0.699   6.806  0.7063 -0.0341 -0.1429
11859SOL    HW136740   8.207   0.692   6.901 -0.5352  1.3194  0.0820
11859SOL    HW236741   8.153   0.619   6.780  0.6274 -0.1850  0.4465
11860SOL     OW36742   8.557   2.342   4.534 -0.2442 -1.0418  0.0080
11860SOL    HW136743   8.485   2.310   4.480  0.6768 -2.1628 -0.6248
11860SOL    HW236744   8.589   2.419   4.488 -0.7811 -0.7861  0.0663
11861SOL     OW36745   7.256   7.666   1.032 -0.5692  0.1375 -0.0469
11861SOL    HW136746   7.246   7.603   1.103  0.1259 -0.3165 -0.3427
11861SOL    HW236747   7.327   7.631   0.978  2.0356  2.7212  1.4204
11862SOL     OW36748   0.130   3.804   5.594 -0.3795 -0.1585 -0.4850
11862SOL    HW136749   0.130   3.863   5.519  1.8357 -0.5642 -0.8725
11862SOL    HW236750   0.124   3.862   5.671  0.1996  0.4693 -0.9042
11863SOL     OW36751   0.548   3.639   5.196  0.0137 -0.0221 -0.1173
11863SOL    HW136752   0.554   3.556   5.149 -1.1903 -0.9093  1.1918
11863SOL    HW236753   0.518   3.702   5.130  2.4474 -0.2128 -1.5103
11864SOL     OW36754   5.679   4.427   1.079 -0.1510  0.2775  0.3573
11864SOL    HW136755   5.664   4.521   1.092  0.5126  0.3725  0.4527
11864SOL    HW236756   5.769   4.422   1.046  0.1641 -0.4006  1.3044
11865SOL     OW36757   6.859   8.677   0.350 -0.0968  0.5783  0.5384
11865SOL    HW136758   6.952   8.692   0.333  0.2656 -1.4743  0.4330
11865SOL    HW236759   6.830   8.620   0.279 -0.8505 -0.6624  1.7793
11866SOL     OW36760   6.681   6.485   6.176 -0.2731 -0.7028 -0.0996
11866SOL    HW136761   6.635   6.402   6.160  0.0737 -0.8837 -0.1729
11866SOL    HW236762   6.672   6.499   6.270  2.1133 -2.3221  0.4590
11867SOL     OW36763   8.841   6.178   5.094 -0.1956  0.2780 -0.2642
11867SOL    HW136764   8.824   6.092   5.133 -1.3130 -1.0439 -3.3644
11867SOL    HW236765   8.936   6.189   5.100 -0.1835 -0.4358  1.5051
11868SOL     OW36766   1.680   6.815   2.005 -0.4695 -0.2582 -0.0467
11868SOL    HW136767   1.681   6.719   2.002  1.7351 -0.3535  1.2194
11868SOL    HW236768   1.629   6.837   2.082 -0.0862 -0.4653  0.2677
11869SOL     OW36769   4.275   5.914   5.404  0.5080 -0.7777  0.5024
11869SOL    HW136770   4.308   5.937   5.491  2.0563 -1.0283  0.0260
11869SOL    HW236771   4.185   5.885   5.419 -0.1067  1.4937  1.6761
11870SOL     OW36772   4.285   4.978   1.304  0.5869  0.2359 -0.3437
11870SOL    HW136773   4.328   5.036   1.241 -0.2276  0.0919 -1.0462
11870SOL    HW236774   4.202   5.022   1.324 -0.0113 -0.6426 -0.8381
11871SOL     OW36775   2.181   1.812   6.798 -0.4624 -1.3171 -0.4523
11871SOL    HW136776   2.141   1.797   6.884 -4.2793  0.3326 -1.7144
11871SOL    HW236777   2.154   1.738   6.745  2.4900 -2.7081 -0.2037
11872SOL     OW36778   0.706   7.486   0.549  0.5436  0.4364  0.4866
11872SOL    HW136779   0.728   7.500   0.457 -1.1859 -0.0086 -0.0411
11872SOL    HW236780   0.721   7.392   0.563 -1.5519 -0.0443 -0.1009
11873SOL     OW36781   2.752   0.570   4.050  0.5242 -0.1398  0.0866
11873SOL    HW136782   2.732   0.615   4.133  1.2795 -0.5102  0.4751
11873SOL    HW236783   2.679   0.509   4.038 -0.1358  0.6638 -0.0702
11874SOL     OW36784   1.572   5.822   0.015  0.0111 -0.2843  0.0592
11874SOL    HW136785   1.574   5.730   0.041 -0.8628  0.0590  1.4588
11874SOL    HW236786   1.479   5.846   0.018  0.0417  0.2574 -1.8258
11875SOL     OW36787   5.415   0.454   6.721 -0.2577  0.3406 -0.2979
11875SOL    HW136788   5.470   0.380   6.743 -2.2494 -0.8871  0.8861
11875SOL    HW236789   5.475   0.528   6.714  1.6076 -1.0869  0.0002
11876SOL     OW36790   4.590   2.491   7.289  0.5013 -0.2463  0.2980
11876SOL    HW136791   4.643   2.499   7.369 -0.6242 -1.4317  1.2124
11876SOL    HW236792   4.628   2.416   7.243 -0.1933 -0.9620  0.8491
11877SOL     OW36793   5.230   3.894   5.666  0.2020  0.2726  0.1102
11877SOL    HW136794   5.143   3.862   5.688 -0.3070 -0.1844 -2.2844
11877SOL    HW236795   5.290   3.826   5.699 -0.5937 -1.0920 -1.1587
11878SOL     OW36796   6.723   1.717   8.139 -0.0695 -0.3443  0.9969
11878SOL    HW136797   6.730   1.812   8.146 -1.4066 -0.2368  1.1133
11878SOL    HW236798   6.798   1.691   8.084 -0.0096  0.8272  0.4996
11879SOL     OW36799   8.337   7.384   7.278 -1.1550 -0.3846  0.3787
11879SOL    HW136800   8.372   7.470   7.258  0.6639 -1.2246 -0.3219
11879SOL    HW236801   8.350   7.374   7.372 -1.2043  0.0482  0.4319
11880SOL     OW36802   4.938   6.111   5.578 -0.3043 -0.1420  0.4879
11880SOL    HW136803   4.973   6.098   5.666 -0.3395 -0.7118  0.4228
11880SOL    HW236804   4.949   6.205   5.562  2.1453 -0.4248  0.0793
11881SOL     OW36805   6.522   7.789   7.955 -0.1480 -0.0159  0.1259
11881SOL    HW136806   6.573   7.722   8.001 -0.2721  1.2117  2.1605
11881SOL    HW236807   6.493   7.746   7.874  1.7103 -1.6424  0.2608
11882SOL     OW36808   1.045   1.061   2.832  0.2165 -0.1473 -0.4197
11882SOL    HW136809   1.095   0.979   2.835  1.7958  0.7771 -0.2194
11882SOL    HW236810   1.038   1.087   2.924 -0.5884 -0.2125 -0.4540
11883SOL     OW36811   4.748   2.261   2.025 -0.4858  0.1110  0.0059
11883SOL    HW136812   4.733   2.226   2.113 -0.7428  2.5972  1.0683
11883SOL    HW236813   4.841   2.245   2.008 -0.8138 -1.9586 -0.0841
11884SOL     OW36814   8.293   7.710   4.775 -0.8616 -0.1517  0.0967
11884SOL    HW136815   8.376   7.699   4.728 -1.2654 -0.2143 -0.6084
11884SOL    HW236816   8.319   7.720   4.867 -0.1569 -1.4283  0.0525
11885SOL     OW36817   2.519   0.103   0.567 -0.5134 -0.6783 -0.3137
11885SOL    HW136818   2.475   0.153   0.636  0.4488  0.8269 -0.7386
11885SOL    HW236819   2.467   0.118   0.488 -0.1290 -0.1969 -0.4783
11886SOL     OW36820   1.867   8.013   5.657 -0.1722 -0.1604  0.5271
11886SOL    HW136821   1.897   7.957   5.729  0.1234 -1.5222 -0.6042
11886SOL    HW236822   1.906   7.974   5.579 -2.5377 -0.2851 -0.6889
11887SOL     OW36823   3.147   0.391   2.249 -0.1386 -0.2992 -0.8338
11887SOL    HW136824   3.187   0.342   2.177 -1.7280 -1.3089 -1.0778
11887SOL    HW236825   3.144   0.329   2.322 -1.9279 -0.5578 -1.0649
11888SOL     OW36826   5.895   0.457   3.665 -0.0142 -0.0460 -0.1233
11888SOL    HW136827   5.812   0.493   3.698 -0.1306 -0.2323 -0.2160
11888SOL    HW236828   5.960   0.523   3.690 -0.0680 -0.2823  0.6806
11889SOL     OW36829   4.563   2.758   5.126 -0.3054  0.0435 -0.6325
11889SOL    HW136830   4.509   2.838   5.121  1.0026  0.9481 -0.8907
11889SOL    HW236831   4.635   2.783   5.184  0.1798 -0.9296 -0.8136
11890SOL     OW36832   6.277   7.049   0.959  0.2960 -0.1155  0.8095
11890SOL    HW136833   6.256   7.128   1.009  0.3736  0.0521  0.5824
11890SOL    HW236834   6.282   6.979   1.024  1.5909  0.3106  1.2037
11891SOL     OW36835   2.735   4.353   3.446 -0.2193  0.0644  0.0075
11891SOL    HW136836   2.757   4.432   3.398 -0.5742 -1.0560 -2.1343
11891SOL    HW236837   2.675   4.305   3.388 -2.0785 -0.6090  2.3131
11892SOL     OW36838   2.321   6.269   5.150  0.1940 -0.0378  0.1949
11892SOL    HW136839   2.318   6.359   5.184  0.2162  0.1989 -0.4194
11892SOL    HW236840   2.378   6.274   5.073 -1.5056 -0.1419 -1.1205
11893SOL     OW36841   5.629   6.982   5.181 -0.2539  0.1213  0.0927
11893SOL    HW136842   5.642   7.069   5.217  1.0248  0.3965 -0.9616
11893SOL    HW236843   5.571   6.995   5.106 -1.3430 -0.1732  0.8705
11894SOL     OW36844   5.471   8.637   8.165  0.1652  0.1696 -0.1296
11894SOL    HW136845   5.464   8.596   8.079 -1.9671  0.1103  0.0351
11894SOL    HW236846   5.474   8.731   8.147  1.7283  0.1093 -0.3323
11895SOL     OW36847   0.236   7.455   4.024  0.0193 -0.2344  0.1152
11895SOL    HW136848   0.209   7.451   4.116  0.0366  0.1838  0.1378
11895SOL    HW236849   0.249   7.548   4.006 -0.1446 -0.2995 -0.3615
11896SOL     OW36850   5.572   8.600   7.415  1.0526 -0.4140 -0.3394
11896SOL    HW136851   5.592   8.693   7.428  0.6753 -0.5602  1.8096
11896SOL    HW236852   5.548   8.593   7.323  0.7277  1.6954 -0.4741
11897SOL     OW36853   1.357   3.088   4.809  0.1394 -0.0420 -0.1907
11897SOL    HW136854   1.262   3.103   4.804 -0.0665 -1.0662  0.4197
11897SOL    HW236855   1.382   3.060   4.721 -0.2455 -0.4016 -0.1879
11898SOL     OW36856   2.709   5.372   7.216  0.1814  0.2170 -0.4029
11898SOL    HW136857   2.731   5.290   7.260 -0.1397 -0.5140 -1.5550
11898SOL    HW236858   2.615   5.383   7.232  0.0747 -0.0230 -0.8354
11899SOL     OW36859   8.041   0.787   1.690 -0.6322  0.1790 -0.5681
11899SOL    HW136860   7.995   0.832   1.619  0.4668 -1.5334 -2.4327
11899SOL    HW236861   8.131   0.778   1.659 -1.0070 -4.4161 -0.9743
11900SOL     OW36862   4.189   5.383   7.718 -0.0913  0.1694  0.3805
11900SOL    HW136863   4.113   5.359   7.770 -0.8703  1.3074 -0.1993
11900SOL    HW236864   4.196   5.478   7.726  0.9816  0.1434  0.0340
11901SOL     OW36865   6.760   7.297   2.119 -0.0577  0.3942  0.3648
11901SOL    HW136866   6.727   7.372   2.169 -0.8245 -0.0453  0.5278
11901SOL    HW236867   6.687   7.235   2.117  0.8531 -0.7379  1.0031
11902SOL     OW36868   6.296   2.315   1.938  0.1551 -0.3993  0.0959
11902SOL    HW136869   6.341   2.380   1.884  0.9718  1.8933  3.2251
11902SOL    HW236870   6.366   2.260   1.972 -0.0695 -0.4601  0.4673
11903SOL     OW36871   3.377   0.916   3.251 -0.0099 -0.2081 -0.5948
11903SOL    HW136872   3.326   0.836   3.265  1.3629 -1.0984 -0.5416
11903SOL    HW236873   3.445   0.914   3.318  0.5253  0.5956 -1.0894
11904SOL     OW36874   3.722   8.711   4.230 -0.4077 -0.2844  0.1881
11904SOL    HW136875   3.809   8.742   4.254  0.1458 -2.4379  1.2074
11904SOL    HW236876   3.709   8.742   4.140  1.6359 -0.3999 -0.1849
11905SOL     OW36877   3.775   6.724   0.800 -0.0728 -0.2862  0.1147
11905SOL    HW136878   3.754   6.659   0.733  2.2476 -0.8895 -0.1327
11905SOL    HW236879   3.801   6.673   0.877 -0.6108  0.3826  0.7584
11906SOL     OW36880   6.118   8.293   8.718  0.5661  0.0541 -0.6677
11906SOL    HW136881   6.093   8.319   8.629  0.8291 -0.2747 -0.8401
11906SOL    HW236882   6.134   8.199   8.712  1.0521  0.1164 -0.3822
11907SOL     OW36883   4.117   1.640   5.258  0.0726  0.1331 -0.2915
11907SOL    HW136884   4.087   1.705   5.322  0.4847 -1.6737  1.8645
11907SOL    HW236885   4.046   1.634   5.195 -1.1013  0.8460  0.9083
11908SOL     OW36886   3.660   0.846   2.858 -0.3305 -0.2898 -0.2965
11908SOL    HW136887   3.704   0.784   2.800 -0.2601 -1.3985  0.8767
11908SOL    HW236888   3.668   0.806   2.945  1.3985  2.2482  0.8369
11909SOL     OW36889   6.001   5.077   0.464  0.1414 -0.0307 -0.3410
11909SOL    HW136890   6.052   4.996   0.456 -0.4829 -0.3298 -1.5889
11909SOL    HW236891   6.049   5.141   0.412  1.0747  0.6541  1.3158
11910SOL     OW36892   1.465   3.636   4.780 -0.1837 -0.3290 -0.0158
11910SOL    HW136893   1.520   3.601   4.851 -0.9776  0.8486  1.2401
11910SOL    HW236894   1.406   3.564   4.759  2.7497 -2.2289 -2.5512
11911SOL     OW36895   6.241   2.247   8.441  0.7881  0.7104  0.5593
11911SOL    HW136896   6.304   2.274   8.375  1.0429  1.2906  1.0310
11911SOL    HW236897   6.166   2.305   8.429  0.3136 -0.0012 -0.0228
11912SOL     OW36898   8.494   6.876   4.131 -0.0199  0.3693  0.1370
11912SOL    HW136899   8.444   6.847   4.054 -1.8293  1.7254  0.7258
11912SOL    HW236900   8.458   6.825   4.203  0.5689  0.2372  0.3407
11913SOL     OW36901   0.400   8.584   4.126 -0.2135  0.4033  0.0098
11913SOL    HW136902   0.355   8.659   4.164  0.5624  0.9487 -0.1223
11913SOL    HW236903   0.360   8.508   4.168 -2.4926  0.7418 -1.3750
11914SOL     OW36904   3.342   5.097   7.187  0.6075 -0.2231  0.5500
11914SOL    HW136905   3.425   5.119   7.144  0.6292  0.9788  1.1711
11914SOL    HW236906   3.362   5.019   7.239  1.1779 -0.3204  0.1960
11915SOL     OW36907   5.732   5.451   5.514  0.8132  0.5055 -0.3854
11915SOL    HW136908   5.727   5.483   5.604  3.0113  0.8136 -0.3038
11915SOL    HW236909   5.681   5.371   5.514 -0.6283  1.3794  0.6887
11916SOL     OW36910   8.087   3.877   7.792  0.1842 -0.2870 -1.0605
11916SOL    HW136911   8.027   3.950   7.807  0.1853 -0.4533 -0.1890
11916SOL    HW236912   8.164   3.899   7.845 -0.8360 -2.1656  1.3799
11917SOL     OW36913   7.575   6.120   2.507 -0.3487 -0.1312  0.2859
11917SOL    HW136914   7.509   6.189   2.503 -1.0088 -0.7072  1.0178
11917SOL    HW236915   7.599   6.114   2.599  0.1597 -0.4572  0.1380
11918SOL     OW36916   7.702   7.084   2.847 -0.5989  0.0669 -0.3923
11918SOL    HW136917   7.629   7.058   2.791  0.1130 -1.8700 -0.5071
11918SOL    HW236918   7.678   7.052   2.934  1.1707 -2.9966 -0.9094
11919SOL     OW36919   4.745   8.241   6.940 -0.2869  0.1677 -0.2324
11919SOL    HW136920   4.836   8.254   6.917 -0.9587  2.6853 -1.8658
11919SOL    HW236921   4.696   8.268   6.862 -2.4566 -0.0059  0.9753
11920SOL     OW36922   7.927   1.014   3.640  0.1220  0.0993 -1.1578
11920SOL    HW136923   7.911   1.031   3.547  0.4141 -0.6550 -1.3488
11920SOL    HW236924   8.011   0.967   3.642 -0.4080 -0.8544 -0.6042
11921SOL     OW36925   7.329   1.379   1.173 -0.6920  0.0120 -0.3647
11921SOL    HW136926   7.401   1.340   1.222 -0.5322  0.5599 -0.1562
11921SOL    HW236927   7.265   1.308   1.164 -0.7081 -0.1174  0.6077
11922SOL     OW36928   2.534   7.765   4.341 -0.1049  0.0697 -0.1582
11922SOL    HW136929   2.448   7.731   4.318  0.0729 -2.0855  1.9379
11922SOL    HW236930   2.593   7.728   4.276 -0.5551  0.3304 -0.7191
11923SOL     OW36931   1.185   7.272   1.756  0.0288 -0.1553 -0.5378
11923SOL    HW136932   1.274   7.240   1.746  0.4761  0.9820 -0.3552
11923SOL    HW236933   1.157   7.295   1.667 -0.4000 -1.2749 -0.7104
11924SOL     OW36934   6.539   2.751   4.261  0.4470 -0.3808  0.1291
11924SOL    HW136935   6.491   2.672   4.237 -1.4537  0.4578  0.9850
11924SOL    HW236936   6.531   2.808   4.184 -0.1577 -0.1606  0.3461
11925SOL     OW36937   3.811   8.481   4.131 -0.0527  0.3598 -0.0408
11925SOL    HW136938   3.769   8.555   4.174 -0.0961 -0.7044  1.8512
11925SOL    HW236939   3.893   8.468   4.178  0.8237  0.3032 -1.5100
11926SOL     OW36940   0.230   4.873   4.960 -0.3671 -0.6639 -0.0891
11926SOL    HW136941   0.219   4.815   4.885 -1.1050 -1.3073  0.5065
11926SOL    HW236942   0.211   4.818   5.036  0.0255  0.0710  0.5553
11927SOL     OW36943   6.621   8.100   2.301  0.3758  0.2737 -0.4867
11927SOL    HW136944   6.546   8.079   2.245 -0.2090 -0.6402  0.6058
11927SOL    HW236945   6.680   8.026   2.291  0.5363  0.3785 -0.3244
11928SOL     OW36946   5.087   3.088   2.134  0.3127 -0.2708  0.4790
11928SOL    HW136947   5.135   3.156   2.183 -0.2815  1.3882 -1.1554
11928SOL    HW236948   5.019   3.136   2.087 -1.2367 -2.2508  0.5948
11929SOL     OW36949   6.372   7.614   8.217  0.4198 -0.1560 -0.0432
11929SOL    HW136950   6.303   7.653   8.163 -0.0441 -1.0236 -0.1164
11929SOL    HW236951   6.412   7.687   8.263 -1.2502  0.3008  0.7880
11930SOL     OW36952   4.108   4.761   6.368  0.2842 -0.3240  0.1753
11930SOL    HW136953   4.158   4.732   6.444 -0.9570 -1.4699  0.5847
11930SOL    HW236954   4.068   4.681   6.334 -0.5374  0.4322 -0.6827
11931SOL     OW36955   6.212   0.516   3.336 -0.1744 -0.4031 -0.0265
11931SOL    HW136956   6.177   0.435   3.298 -2.1800 -0.5560  1.9163
11931SOL    HW236957   6.196   0.506   3.430 -0.6475  2.3479  0.2427
11932SOL     OW36958   7.955   1.501   0.790  0.3376 -0.3916 -0.0858
11932SOL    HW136959   7.937   1.571   0.726  0.7635 -0.1841  0.0197
11932SOL    HW236960   8.006   1.437   0.741  0.6154 -0.2589  0.0277
11933SOL     OW36961   1.317   1.781   8.501  0.1986 -0.5029 -0.2157
11933SOL    HW136962   1.409   1.760   8.487  0.1526 -0.5137 -0.5039
11933SOL    HW236963   1.270   1.722   8.442 -0.0376 -1.1059  0.5511
11934SOL     OW36964   0.288   1.629   2.037  0.2763 -0.3661 -0.0141
11934SOL    HW136965   0.324   1.547   2.001  1.1353 -0.3146  0.6935
11934SOL    HW236966   0.336   1.698   1.992  0.2515 -0.2745  0.1001
11935SOL     OW36967   3.327   7.307   1.085 -0.4233  0.1354 -0.1834
11935SOL    HW136968   3.397   7.273   1.029  0.8227  1.5365  0.4492
11935SOL    HW236969   3.247   7.294   1.035  0.3726 -0.8031 -1.2626
11936SOL     OW36970   3.520   4.675   5.408 -0.1997 -0.3220  0.5101
11936SOL    HW136971   3.466   4.750   5.432  0.0008 -1.0429  3.7310
11936SOL    HW236972   3.608   4.710   5.398 -0.7575  0.4935 -2.5611
11937SOL     OW36973   5.508   3.717   1.860 -0.0489 -0.6585  0.3090
11937SOL    HW136974   5.470   3.797   1.895  0.0430 -1.0953  1.4616
11937SOL    HW236975   5.504   3.728   1.765 -0.9016  0.2987  0.4348
11938SOL     OW36976   1.330   0.565   7.598 -0.2745  0.4639  0.2530
11938SOL    HW136977   1.343   0.603   7.685 -2.3710  0.7956  0.4506
11938SOL    HW236978   1.316   0.640   7.541  1.2336  0.2540 -0.4476
11939SOL     OW36979   4.789   6.533   2.213  0.2204 -0.5609 -0.0639
11939SOL    HW136980   4.711   6.586   2.228  1.4913  1.3224  0.2556
11939SOL    HW236981   4.802   6.537   2.118 -0.7698 -1.9550 -0.2737
11940SOL     OW36982   8.364   0.595   4.656  0.6711  0.5661 -0.2736
11940SOL    HW136983   8.411   0.585   4.573 -0.6600  0.4587 -1.0577
11940SOL    HW236984   8.335   0.687   4.656 -0.2385  0.2966 -0.4688
11941SOL     OW36985   7.078   6.337   8.652 -0.1968 -0.1278  0.0269
11941SOL    HW136986   7.058   6.293   8.735 -0.6186 -1.0831 -0.5600
11941SOL    HW236987   7.150   6.397   8.674 -0.9067  0.3066  1.2634
11942SOL     OW36988   0.644   6.376   6.417 -0.0670  0.2456  0.0594
11942SOL    HW136989   0.607   6.369   6.329 -0.1632  0.9101  0.0423
11942SOL    HW236990   0.569   6.363   6.476  0.0671 -0.5988  0.0529
11943SOL     OW36991   6.705   3.391   6.028 -0.6738  0.7517  0.2346
11943SOL    HW136992   6.615   3.358   6.026 -0.4677 -0.2391  3.0344
11943SOL    HW236993   6.705   3.457   6.097  0.7576  0.7492  0.2699
11944SOL     OW36994   0.295   3.725   3.212 -0.6471 -0.6563 -0.1469
11944SOL    HW136995   0.284   3.652   3.151 -0.9851  0.1935 -1.1236
11944SOL    HW236996   0.207   3.741   3.246 -0.7622 -0.0185 -0.7404
11945SOL     OW36997   7.376   4.443   3.561  0.1916 -0.5039  0.6766
11945SOL    HW136998   7.316   4.499   3.511 -0.3051 -0.0446  1.7588
11945SOL    HW236999   7.417   4.388   3.495  1.4921  1.8217 -0.5798
11946SOL     OW37000   6.181   0.226   1.349 -0.1654 -0.6303 -0.2107
11946SOL    HW137001   6.119   0.242   1.278 -1.0474  0.1365  0.6998
11946SOL    HW237002   6.202   0.312   1.383  2.8785 -0.6720 -1.6288
11947SOL     OW37003   6.922   1.802   5.881 -0.6077  0.6171 -0.4515
11947SOL    HW137004   6.997   1.753   5.914 -2.0117 -0.8524  0.8067
11947SOL    HW237005   6.895   1.857   5.955 -2.2679 -0.8050  0.0687
11948SOL     OW37006   0.217   2.889   1.071  0.7451  0.9764  0.5979
11948SOL    HW137007   0.185   2.886   1.161  1.7798 -0.6150  0.9619
11948SOL    HW237008   0.256   2.803   1.057 -0.8982  0.5400 -1.9664
11949SOL     OW37009   0.387   3.031   8.193  0.4087 -0.0107 -0.2313
11949SOL    HW137010   0.400   3.119   8.229  1.6525  0.4310 -1.6981
11949SOL    HW237011   0.408   2.972   8.266 -0.1440  0.8682  0.6716
11950SOL     OW37012   1.611   7.758   6.235  0.2710 -0.0838 -0.0979
11950SOL    HW137013   1.681   7.797   6.183  0.2093 -0.2400 -0.2980
11950SOL    HW237014   1.657   7.699   6.295  0.3633  0.2746  0.1937
11951SOL     OW37015   6.381   7.805   2.305 -0.4657 -0.3564 -0.4512
11951SOL    HW137016   6.342   7.886   2.338 -0.2271  0.8247 -2.8391
11951SOL    HW237017   6.398   7.753   2.383  1.1272  2.6750  1.4243
11952SOL     OW37018   7.866   0.469   7.789 -0.2020 -0.2350  0.2274
11952SOL    HW137019   7.955   0.436   7.798  0.5410  1.4928 -0.5904
11952SOL    HW237020   7.831   0.423   7.713 -0.1094 -1.0584  0.6642
11953SOL     OW37021   5.044   0.108   6.325  0.5227 -0.1654 -0.5195
11953SOL    HW137022   5.059   0.169   6.397  0.8030 -3.2241  2.2284
11953SOL    HW237023   5.113   0.128   6.262  0.3725  2.4944  0.0063
11954SOL     OW37024   6.671   8.611   8.302 -0.3942 -0.0275  0.5483
11954SOL    HW137025   6.702   8.583   8.216 -0.2472  0.7462  0.3449
11954SOL    HW237026   6.576   8.621   8.291 -0.3478  0.2729  0.4183
11955SOL     OW37027   8.624   7.060   5.648 -0.4841  0.3449 -0.3298
11955SOL    HW137028   8.598   6.986   5.593  0.1042 -0.4193  0.4009
11955SOL    HW237029   8.541   7.096   5.679 -0.7730 -0.0784 -0.5953
11956SOL     OW37030   4.826   3.302   8.107 -0.1399  0.3279 -0.0982
11956SOL    HW137031   4.894   3.300   8.174 -1.0227  0.1868  0.8240
11956SOL    HW237032   4.802   3.211   8.094  0.4135  0.3041 -1.0357
11957SOL     OW37033   1.571   4.496   1.019  0.4983  0.4216 -0.5026
11957SOL    HW137034   1.612   4.571   1.062 -0.6909  0.1051  1.3439
11957SOL    HW237035   1.480   4.523   1.007 -0.5801 -1.4327  2.3693
11958SOL     OW37036   2.392   6.194   6.289 -0.0173 -0.1480 -0.2472
11958SOL    HW137037   2.421   6.285   6.278  1.7993 -0.6518  0.0660
11958SOL    HW237038   2.471   6.142   6.276 -1.0191 -1.7013 -0.3844
11959SOL     OW37039   5.130   5.640   4.677 -0.3402 -0.0134  0.2159
11959SOL    HW137040   5.099   5.651   4.767 -0.7787 -3.3309  0.6161
11959SOL    HW237041   5.064   5.683   4.623 -1.4860 -0.2078  1.4097
11960SOL     OW37042   8.548   4.221   8.502 -0.3459  0.1629  0.1397
11960SOL    HW137043   8.570   4.152   8.565  0.0872  0.7093  0.6033
11960SOL    HW237044   8.589   4.193   8.420 -0.7266 -0.4499  0.1578
11961SOL     OW37045   8.285   7.944   3.764 -0.3017  0.6295 -0.2892
11961SOL    HW137046   8.227   7.876   3.730  1.4107 -1.8178  1.3044
11961SOL    HW237047   8.239   7.978   3.841 -0.8550  0.7403 -0.6659
11962SOL     OW37048   8.480   1.049   0.871  0.3067 -0.0989 -0.2216
11962SOL    HW137049   8.554   1.007   0.827 -0.0240  0.1363 -1.0168
11962SOL    HW237050   8.483   1.014   0.960  1.4642  0.0316 -0.1922
11963SOL     OW37051   3.904   7.310   0.252 -0.3152 -0.5925 -0.0290
11963SOL    HW137052   3.870   7.399   0.252  0.1690 -0.3028  2.7590
11963SOL    HW237053   3.998   7.320   0.266 -0.1792 -1.5306 -0.1866
11964SOL     OW37054   1.149   7.516   4.283  0.1472 -0.1836 -0.4990
11964SOL    HW137055   1.160   7.434   4.235  1.0433  0.2727 -1.1065
11964SOL    HW237056   1.107   7.574   4.221  1.4970  0.4754 -0.8322
11965SOL     OW37057   8.755   7.291   7.931  0.8401 -0.5823 -0.3807
11965SOL    HW137058   8.675   7.242   7.911  0.3297 -0.1405  0.5194
11965SOL    HW237059   8.826   7.237   7.894  0.1405 -1.0102 -1.1290
11966SOL     OW37060   6.808   8.819   3.309 -0.0888 -0.2143 -0.2287
11966SOL    HW137061   6.792   8.777   3.393 -0.2918  0.1914 -0.0594
11966SOL    HW237062   6.760   8.767   3.246 -0.8949  0.1483  0.0718
11967SOL     OW37063   2.631   2.544   7.425 -0.7268 -0.2084 -0.0166
11967SOL    HW137064   2.614   2.622   7.373  0.7341  0.6425  0.7023
11967SOL    HW237065   2.661   2.479   7.362  0.9902  0.7972 -0.3177
11968SOL     OW37066   4.427   2.848   3.555  0.5833  0.4276  0.1621
11968SOL    HW137067   4.464   2.936   3.562  2.1515 -0.1627 -0.4121
11968SOL    HW237068   4.502   2.791   3.543 -0.3407 -1.1153  1.3518
11969SOL     OW37069   5.969   8.247   1.366  0.3051  0.0411 -0.0115
11969SOL    HW137070   5.889   8.295   1.387  0.4530 -0.2597  1.3448
11969SOL    HW237071   6.015   8.303   1.304  0.7289  1.9504  1.8925
11970SOL     OW37072   6.193   2.572   3.358 -1.1333 -0.0335  0.4152
11970SOL    HW137073   6.144   2.491   3.371  1.9728 -1.8168  2.0202
11970SOL    HW237074   6.203   2.609   3.446 -1.2446  1.3381 -0.1234
11971SOL     OW37075   5.773   3.488   7.282 -0.1928  0.1502  0.3443
11971SOL    HW137076   5.729   3.451   7.358  1.6774 -1.1380  0.8723
11971SOL    HW237077   5.717   3.466   7.208 -1.7829  0.9642  1.2452
11972SOL     OW37078   8.560   4.000   0.776 -0.4202  0.7301  0.0412
11972SOL    HW137079   8.602   3.917   0.752  1.5186  1.0057  2.1786
11972SOL    HW237080   8.546   4.045   0.692  3.0894  0.3451 -0.8961
11973SOL     OW37081   4.430   5.003   0.149  0.3374  0.5900  0.5214
11973SOL    HW137082   4.499   5.046   0.200  1.8180  0.1449 -1.0091
11973SOL    HW237083   4.476   4.933   0.102 -1.0327  0.7377 -1.1163
11974SOL     OW37084   1.978   3.687   2.552 -0.3631  0.5927  0.1143
11974SOL    HW137085   2.073   3.698   2.560 -0.3267  0.2015  0.2536
11974SOL    HW237086   1.955   3.631   2.626 -0.3795 -1.1614 -1.1681
11975SOL     OW37087   3.351   8.543   3.783  0.1853  0.1251  0.5923
11975SOL    HW137088   3.393   8.529   3.698 -0.8431  0.4610  0.0135
11975SOL    HW237089   3.424   8.559   3.843  0.9701 -0.8086 -0.0776
11976SOL     OW37090   2.110   6.001   8.038 -0.1619 -0.5211  0.3625
11976SOL    HW137091   2.107   5.909   8.066 -2.6996 -0.4440  0.6372
11976SOL    HW237092   2.068   6.001   7.952  0.0451  0.3527  0.2510
11977SOL     OW37093   8.513   3.797   3.231 -0.7672  0.1564 -0.1121
11977SOL    HW137094   8.537   3.764   3.144  0.3743 -0.6405  0.4799
11977SOL    HW237095   8.546   3.887   3.232 -0.1760 -0.0529 -0.2749
11978SOL     OW37096   3.243   8.241   3.101  0.3439 -0.4089  0.4040
11978SOL    HW137097   3.264   8.178   3.032  2.9581  2.4095 -1.6286
11978SOL    HW237098   3.292   8.209   3.177  0.3757 -1.6086 -0.0862
11979SOL     OW37099   5.036   8.395   2.291  0.3012  0.0921 -0.0125
11979SOL    HW137100   5.083   8.360   2.366 -0.1231  1.9073  1.1693
11979SOL    HW237101   4.947   8.412   2.324 -0.1726  0.0273 -1.1959
11980SOL     OW37102   7.755   6.854   3.672  0.1702 -0.5599 -0.6021
11980SOL    HW137103   7.694   6.859   3.746  0.4347  0.1594 -0.4301
11980SOL    HW237104   7.840   6.840   3.712  0.1474 -1.4550 -0.8390
11981SOL     OW37105   0.105   2.140   6.576  0.3463  0.6163  0.8454
11981SOL    HW137106   0.088   2.232   6.593 -0.4150  0.5831  0.2915
11981SOL    HW237107   0.019   2.099   6.577  0.1317  0.6188 -3.0949
11982SOL     OW37108   8.063   4.833   7.620  0.1272  0.2558 -0.3523
11982SOL    HW137109   8.091   4.918   7.587 -0.1213  1.1500  1.6030
11982SOL    HW237110   8.106   4.770   7.562  2.4627  1.6499 -0.3033
11983SOL     OW37111   1.745   7.472   8.849  0.3588 -0.1498 -0.2410
11983SOL    HW137112   1.750   7.538   8.918 -1.3065  1.0411 -1.1689
11983SOL    HW237113   1.813   7.409   8.870  0.0056  0.2496  2.3905
11984SOL     OW37114   4.805   2.907   4.597  0.3193 -0.7776  0.8066
11984SOL    HW137115   4.748   2.859   4.657  0.2541 -0.0266  1.3617
11984SOL    HW237116   4.889   2.912   4.643  0.1446  0.1834  1.0412
11985SOL     OW37117   5.040   3.692   4.259  0.1367 -0.6712 -0.2607
11985SOL    HW137118   5.025   3.773   4.308 -3.1795 -1.6555  0.6746
11985SOL    HW237119   5.135   3.681   4.259  0.8086  3.4027 -0.8623
11986SOL     OW37120   1.622   5.604   7.660 -0.0089 -0.5394 -0.2643
11986SOL    HW137121   1.583   5.566   7.581  0.5130 -0.5611 -0.5133
11986SOL    HW237122   1.575   5.687   7.671  0.9820  0.2249 -1.5117
11987SOL     OW37123   2.413   4.269   2.360 -0.8081 -0.1032 -0.5359
11987SOL    HW137124   2.411   4.199   2.425 -2.1071  1.0930  0.7838
11987SOL    HW237125   2.417   4.224   2.276 -1.0914 -1.7364  0.2937
11988SOL     OW37126   3.553   5.525   6.247  0.1417 -0.3673 -0.5057
11988SOL    HW137127   3.507   5.563   6.323  0.2551  0.5720 -0.8980
11988SOL    HW237128   3.643   5.515   6.277  0.1975  0.0484 -0.5368
11989SOL     OW37129   0.513   2.486   7.451 -0.3889 -0.0724  0.1312
11989SOL    HW137130   0.476   2.397   7.457 -1.4241  0.3771  0.6101
11989SOL    HW237131   0.508   2.507   7.357 -1.2307 -0.0848  0.1586
11990SOL     OW37132   5.682   4.134   7.941 -0.2835 -0.5579  0.2085
11990SOL    HW137133   5.600   4.180   7.957 -0.4610 -1.2500  1.4011
11990SOL    HW237134   5.745   4.203   7.919 -1.0398  0.0318 -0.1192
11991SOL     OW37135   5.737   0.711   5.102 -0.3334  0.0485  0.4386
11991SOL    HW137136   5.657   0.722   5.154 -0.7582 -2.5789  0.4508
11991SOL    HW237137   5.709   0.669   5.022  0.8465  0.6316 -0.3114
11992SOL     OW37138   3.519   4.189   2.409 -0.2861  0.3848 -0.1381
11992SOL    HW137139   3.557   4.101   2.417 -1.3299  0.0128  1.2173
11992SOL    HW237140   3.573   4.243   2.466  1.1258  0.9531 -1.9097
11993SOL     OW37141   3.670   5.728   7.172  0.2803 -0.5002 -0.0599
11993SOL    HW137142   3.657   5.771   7.087 -0.5885 -0.8143 -0.0895
11993SOL    HW237143   3.696   5.638   7.149 -1.5008 -1.0530 -0.0130
11994SOL     OW37144   2.629   6.773   2.485  0.4894  0.2888  0.2077
11994SOL    HW137145   2.606   6.836   2.417  1.4059  0.3804 -0.0331
11994SOL    HW237146   2.621   6.687   2.443  1.9745  0.3848 -0.3251
11995SOL     OW37147   6.030   4.328   1.183  0.1938 -0.1695  0.0718
11995SOL    HW137148   6.102   4.338   1.246  0.0734 -1.7809  0.5134
11995SOL    HW237149   5.954   4.308   1.237  0.0617 -1.4595 -0.5600
11996SOL     OW37150   3.496   6.922   6.854 -0.4002 -0.2837  0.0572
11996SOL    HW137151   3.582   6.959   6.875 -1.0695  1.3403  0.0826
11996SOL    HW237152   3.505   6.828   6.871  1.7753 -0.3796 -1.2811
11997SOL     OW37153   5.273   7.801   5.841  0.4083  0.1593 -0.0537
11997SOL    HW137154   5.233   7.756   5.915  1.3957 -1.3015 -0.3596
11997SOL    HW237155   5.317   7.876   5.880 -0.4411  0.3308  0.6122
11998SOL     OW37156   6.256   4.811   7.765  0.2559  0.0622 -0.0742
11998SOL    HW137157   6.194   4.850   7.826 -0.9277 -0.2964 -0.9842
11998SOL    HW237158   6.216   4.727   7.741  1.9005 -0.9438  0.5384
11999SOL     OW37159   5.240   1.482   4.386  0.4442 -0.9296 -0.5524
11999SOL    HW137160   5.192   1.402   4.409  1.6459 -1.6693 -0.5249
11999SOL    HW237161   5.278   1.511   4.469  1.1295 -1.1042 -0.7996
12000SOL     OW37162   7.296   6.285   4.837  0.3164  0.3185  0.0839
12000SOL    HW137163   7.249   6.360   4.800  0.7508  1.3225  1.4953
12000SOL    HW237164   7.389   6.308   4.829  0.4380  0.2391  1.1314
12001SOL     OW37165   2.786   8.857   1.771 -0.2785 -0.3782 -0.5899
12001SOL    HW137166   2.866   8.816   1.738 -0.7516 -1.0955 -0.8784
12001SOL    HW237167   2.759   8.801   1.843  0.7831  1.2153  1.1415
12002SOL     OW37168   2.366   8.478   6.032 -0.0230  0.2378  0.4014
12002SOL    HW137169   2.442   8.434   6.072 -0.0414 -0.5509 -0.4050
12002SOL    HW237170   2.370   8.568   6.066  1.3855  0.2660  0.2250
12003SOL     OW37171   7.174   1.491   3.680  0.2381 -0.0590 -0.0948
12003SOL    HW137172   7.092   1.468   3.725 -0.2747  2.8968  0.6681
12003SOL    HW237173   7.157   1.473   3.588 -1.3776  0.6562  0.0313
12004SOL     OW37174   8.331   3.345   6.679 -0.4100  0.3483  0.3877
12004SOL    HW137175   8.354   3.382   6.594  0.2839  0.1906  0.5068
12004SOL    HW237176   8.385   3.392   6.742  0.9545 -1.2771  0.4834
12005SOL     OW37177   3.277   3.727   6.802  0.4286  0.3503  0.2009
12005SOL    HW137178   3.325   3.788   6.858  2.1659  0.9056 -1.7826
12005SOL    HW237179   3.276   3.768   6.716  0.5898 -1.8483 -0.9252
12006SOL     OW37180   5.610   3.734   3.769 -0.1696  0.5813 -0.3422
12006SOL    HW137181   5.687   3.677   3.769  1.3072  2.4803  0.1694
12006SOL    HW237182   5.639   3.813   3.813 -2.1078  1.7950 -1.1263
12007SOL     OW37183   8.503   1.349   0.929  0.1375 -0.1361 -0.7043
12007SOL    HW137184   8.471   1.382   0.845  0.3040 -0.9058 -1.0882
12007SOL    HW237185   8.481   1.255   0.927  0.2901 -0.1901  0.0394
12008SOL     OW37186   5.514   0.036   1.599  0.2457 -0.0263 -0.0903
12008SOL    HW137187   5.522  -0.055   1.570  0.7518  0.3314 -1.1105
12008SOL    HW237188   5.435   0.037   1.653  0.0766 -1.0080 -0.2997
12009SOL     OW37189   7.763   0.548   5.302  0.3534 -0.0507  0.4283
12009SOL    HW137190   7.826   0.488   5.342  0.5567  0.2337  0.5341
12009SOL    HW237191   7.761   0.523   5.210 -0.2884 -0.8652  0.6515
12010SOL     OW37192   8.306   0.904   5.137  0.3774 -0.1474  0.3343
12010SOL    HW137193   8.324   0.981   5.084  1.2110 -0.2889  0.4063
12010SOL    HW237194   8.288   0.835   5.074 -1.9990  0.4334  0.2516
12011SOL     OW37195   0.962   8.401   2.962  0.1171 -0.0278 -0.1191
12011SOL    HW137196   0.896   8.347   3.005 -0.2643 -0.4061 -1.1414
12011SOL    HW237197   1.041   8.348   2.963  0.3602  0.3350  0.9095
12012SOL     OW37198   3.309   5.210   8.031  0.1813 -0.2810  0.0312
12012SOL    HW137199   3.246   5.271   8.069  0.2704 -0.2832  0.1807
12012SOL    HW237200   3.305   5.228   7.937  0.3887  0.1328  0.0970
12013SOL     OW37201   6.278   0.789   3.600 -0.6970  0.7710 -0.3034
12013SOL    HW137202   6.213   0.835   3.653  3.8563  3.4144  3.7923
12013SOL    HW237203   6.300   0.850   3.530  0.9498  2.3313  1.4755
12014SOL     OW37204   6.065   1.907   6.485 -0.3552  0.1536 -0.0244
12014SOL    HW137205   6.132   1.951   6.432  0.3243  1.3346  1.7309
12014SOL    HW237206   6.103   1.903   6.572 -1.6449 -1.2992  0.4968
12015SOL     OW37207   1.284   6.978   5.144  0.5101 -0.0429 -0.4456
12015SOL    HW137208   1.211   7.039   5.129  0.1822 -0.2305  0.3548
12015SOL    HW237209   1.348   7.002   5.077  1.1497  2.3874  0.8903
12016SOL     OW37210   0.528   2.946   2.203 -0.2540  0.0190 -0.1510
12016SOL    HW137211   0.438   2.933   2.234  0.6096 -2.0259  1.7694
12016SOL    HW237212   0.552   3.033   2.235 -1.2485  0.1993  0.1430
12017SOL     OW37213   1.061   8.661   1.854 -0.2977 -0.2504  0.3093
12017SOL    HW137214   1.104   8.730   1.805 -0.8806 -0.5765 -0.6890
12017SOL    HW237215   1.131   8.621   1.906  1.0943 -1.9633 -2.6024
12018SOL     OW37216   3.976   1.906   2.027  0.0200 -0.0584  0.1649
12018SOL    HW137217   4.023   1.858   2.095 -1.5906 -0.5932  0.9552
12018SOL    HW237218   3.883   1.893   2.048 -0.5064  2.4291 -0.2843
12019SOL     OW37219   0.417   4.399   1.318  0.0137  1.0423 -0.0283
12019SOL    HW137220   0.427   4.337   1.246  0.2064 -0.0802  0.9396
12019SOL    HW237221   0.324   4.397   1.339  0.1557  0.4176  0.5663
12020SOL     OW37222   6.488   7.703   0.438 -0.0664 -0.8729 -1.0249
12020SOL    HW137223   6.568   7.652   0.451  0.2306 -0.2397 -0.2936
12020SOL    HW237224   6.432   7.647   0.385  1.4994 -0.7003 -2.9994
12021SOL     OW37225   1.962   3.230   5.626 -0.6067 -0.0812  0.1009
12021SOL    HW137226   2.047   3.246   5.667 -0.8112 -1.1129  0.9702
12021SOL    HW237227   1.902   3.292   5.669 -0.5470 -0.2345  0.4072
12022SOL     OW37228   8.010   2.388   1.364 -0.0417  0.3081 -0.1109
12022SOL    HW137229   7.989   2.294   1.358  0.2478  0.3208 -2.1549
12022SOL    HW237230   8.081   2.393   1.428 -0.6875 -0.7388  0.7239
12023SOL     OW37231   4.258   5.598   7.970  0.1996 -0.0916 -0.1339
12023SOL    HW137232   4.349   5.570   7.973  0.9727  2.2892  1.2341
12023SOL    HW237233   4.242   5.616   7.878  1.0948 -0.5216 -0.3884
12024SOL     OW37234   3.908   2.798   1.287 -0.1417 -0.3417  0.0085
12024SOL    HW137235   3.877   2.708   1.279 -2.2126  0.4957 -2.8500
12024SOL    HW237236   3.851   2.837   1.355 -2.8223  0.0374 -2.2641
12025SOL     OW37237   7.691   7.825   2.270  0.5223 -0.7276 -0.0140
12025SOL    HW137238   7.602   7.819   2.237 -0.5374  0.9631  2.2639
12025SOL    HW237239   7.699   7.914   2.303  3.7516 -0.1790 -1.8651
12026SOL     OW37240   8.699   3.297   3.374 -0.7646 -0.4588  0.0745
12026SOL    HW137241   8.646   3.236   3.426 -2.3384 -0.3016 -1.2332
12026SOL    HW237242   8.765   3.243   3.332 -0.1382 -0.7407  1.3980
12027SOL     OW37243   7.935   6.779   6.598 -0.1237  0.0785  0.3500
12027SOL    HW137244   7.987   6.700   6.580  1.2561  1.0725 -0.2002
12027SOL    HW237245   7.916   6.815   6.511  1.1647  1.5181  0.6195
12028SOL     OW37246   3.865   2.756   5.296 -0.3609 -0.0720  0.2962
12028SOL    HW137247   3.788   2.735   5.348 -0.8554 -1.4859 -0.9440
12028SOL    HW237248   3.830   2.808   5.223 -0.0673 -0.3396 -0.0339
12029SOL     OW37249   5.667   8.067   8.365 -1.1090 -1.0225  0.1668
12029SOL    HW137250   5.576   8.098   8.373 -0.9484 -0.9159  2.2739
12029SOL    HW237251   5.713   8.139   8.321 -1.8151 -0.5571  0.1721
12030SOL     OW37252   1.400   3.085   5.622  0.5910  0.3011  0.2944
12030SOL    HW137253   1.404   3.019   5.553  1.0376  1.2705 -0.6341
12030SOL    HW237254   1.313   3.074   5.660  0.8071 -1.0677  0.4158
12031SOL     OW37255   8.149   3.176   3.662  0.1217 -0.4712  0.0836
12031SOL    HW137256   8.222   3.190   3.602  0.7077 -1.8244  0.4211
12031SOL    HW237257   8.079   3.233   3.630  0.7406 -0.4551 -1.2999
12032SOL     OW37258   5.195   3.817   3.602 -0.7704  0.4745 -0.0865
12032SOL    HW137259   5.129   3.851   3.662  1.2049 -0.1446  2.5970
12032SOL    HW237260   5.219   3.893   3.548 -2.4212  1.1134  0.0266
12033SOL     OW37261   2.953   6.580   6.426 -0.0209 -0.0611  0.7782
12033SOL    HW137262   2.859   6.593   6.425 -0.0450 -0.1834  1.3637
12033SOL    HW237263   2.989   6.665   6.401 -0.3167 -0.4708 -1.2062
12034SOL     OW37264   2.267   2.606   8.760  0.1673  0.1238  0.1336
12034SOL    HW137265   2.279   2.517   8.727  0.0448  0.4497 -0.8151
12034SOL    HW237266   2.194   2.598   8.822 -1.7121  0.0152 -1.9805
12035SOL     OW37267   0.898   7.166   4.348  0.3003  0.0001 -0.0615
12035SOL    HW137268   0.961   7.100   4.319  2.2410  1.2238  1.1184
12035SOL    HW237269   0.872   7.137   4.435 -1.1197 -0.6911 -0.6838
12036SOL     OW37270   8.479   2.462   6.846 -0.1850  0.4020  0.0025
12036SOL    HW137271   8.424   2.393   6.884  0.4198  0.4317  0.9733
12036SOL    HW237272   8.427   2.542   6.856  0.0804  0.4588  1.0718
12037SOL     OW37273   0.095   5.701   0.584  0.6142 -0.1293 -0.1822
12037SOL    HW137274   0.075   5.766   0.651 -1.9954  0.9061 -1.8062
12037SOL    HW237275   0.171   5.736   0.538  1.8453 -0.3938  1.5603
12038SOL     OW37276   1.261   8.338   7.064 -0.1533  0.3788 -0.3532
12038SOL    HW137277   1.231   8.422   7.029  0.9478  0.6032 -0.7946
12038SOL    HW237278   1.356   8.346   7.067  0.1528 -1.5692 -2.2901
12039SOL     OW37279   6.828   0.044   0.797 -0.3636  0.5219  0.2692
12039SOL    HW137280   6.859   0.032   0.707 -0.4205  0.8290  0.2061
12039SOL    HW237281   6.734   0.062   0.787 -0.2793  1.0251  0.3540
12040SOL     OW37282   1.492   3.166   1.209 -0.6433 -0.1262  0.1146
12040SOL    HW137283   1.520   3.076   1.189  1.4015  0.6000 -0.5565
12040SOL    HW237284   1.478   3.166   1.303  1.5152 -0.6573  0.5013
12041SOL     OW37285   5.154   6.088   8.689 -0.0470  0.1753  0.0655
12041SOL    HW137286   5.126   6.153   8.624 -0.5654 -1.7668 -1.7843
12041SOL    HW237287   5.072   6.056   8.727  0.1309 -0.1612  0.1670
12042SOL     OW37288   4.860   5.759   2.505  0.1359  0.5649 -0.0730
12042SOL    HW137289   4.786   5.819   2.498  0.1412  0.6803  0.7828
12042SOL    HW237290   4.935   5.809   2.473  0.1077  0.9540  0.4688
12043SOL     OW37291   5.712   3.608   1.042  0.3275 -0.4868 -0.3205
12043SOL    HW137292   5.627   3.650   1.054  1.5296  2.6889 -1.8714
12043SOL    HW237293   5.707   3.569   0.954  0.8263  0.7424 -0.9106
12044SOL     OW37294   2.405   1.971   1.458 -0.6231 -0.3748  0.1204
12044SOL    HW137295   2.339   1.943   1.395  0.5590 -0.2767 -1.2051
12044SOL    HW237296   2.389   1.916   1.535 -3.0982  0.5892  0.3917
12045SOL     OW37297   0.594   4.238   6.664 -0.2066  0.2749 -0.0708
12045SOL    HW137298   0.594   4.197   6.751  0.9972 -0.3598 -0.3493
12045SOL    HW237299   0.503   4.266   6.651 -0.4489  0.2096  1.3047
12046SOL     OW37300   0.947   2.759   2.998  0.2356  0.3006 -0.1506
12046SOL    HW137301   0.924   2.843   3.038 -0.6681  0.3299 -0.7013
12046SOL    HW237302   0.868   2.707   3.006  0.9217 -0.6630  0.5643
12047SOL     OW37303   7.347   5.627   8.666 -0.0430 -0.2323 -0.3468
12047SOL    HW137304   7.331   5.559   8.732 -0.5162 -0.4515 -0.6850
12047SOL    HW237305   7.369   5.579   8.587  0.0147  0.0216 -0.4847
12048SOL     OW37306   1.230   1.687   6.283 -0.0379  0.0415  0.0435
12048SOL    HW137307   1.222   1.715   6.192  0.4514 -2.7996 -0.9889
12048SOL    HW237308   1.315   1.643   6.287 -0.5350 -0.8728  1.5775
12049SOL     OW37309   0.770   7.577   2.802 -0.7479 -0.7884  0.4779
12049SOL    HW137310   0.764   7.559   2.708 -0.1419  0.7702  0.1064
12049SOL    HW237311   0.767   7.672   2.808  2.8349 -0.6099  1.7085
12050SOL     OW37312   2.074   1.021   0.999 -0.0127  0.3038  0.5760
12050SOL    HW137313   2.121   1.073   0.934 -0.4993 -1.3624 -1.2207
12050SOL    HW237314   2.142   0.965   1.039 -0.0499 -0.3086 -0.1975
12051SOL     OW37315   7.833   8.516   2.764  0.8995  0.3452  0.1640
12051SOL    HW137316   7.782   8.571   2.824 -1.2015 -1.3750  0.0464
12051SOL    HW237317   7.818   8.554   2.677  0.0666  0.0437  0.1719
12052SOL     OW37318   7.151   2.952   1.109 -0.2628  0.2567  0.3781
12052SOL    HW137319   7.080   2.893   1.085  2.1326 -1.7776 -2.4958
12052SOL    HW237320   7.177   2.924   1.196 -1.8114 -0.0904  0.7601
12053SOL     OW37321   5.020   5.314   0.632 -0.5224  0.1407 -0.1251
12053SOL    HW137322   5.034   5.219   0.632  0.4733  0.2763 -0.2804
12053SOL    HW237323   4.935   5.326   0.675  0.3919 -0.6681  2.0592
12054SOL     OW37324   0.651   6.238   5.565 -0.0799 -0.0141 -0.6204
12054SOL    HW137325   0.674   6.209   5.476  0.9216  0.0904 -0.4074
12054SOL    HW237326   0.704   6.316   5.579  0.3244 -0.4467  0.3378
12055SOL     OW37327   6.894   4.769   4.673 -0.0999  0.1829 -0.3421
12055SOL    HW137328   6.876   4.785   4.581 -1.8885 -0.1742 -0.0871
12055SOL    HW237329   6.897   4.673   4.681 -1.6118  0.1538  0.2215
12056SOL     OW37330   0.930   8.698   3.961 -0.3264 -0.8119  0.2308
12056SOL    HW137331   0.961   8.785   3.985  0.1642 -0.8095 -0.3806
12056SOL    HW237332   1.008   8.651   3.933 -0.5729 -1.4826  0.6434
12057SOL     OW37333   0.436   0.906   8.317  0.1526 -0.0949  0.6587
12057SOL    HW137334   0.355   0.930   8.362 -0.4406 -1.2891  0.2637
12057SOL    HW237335   0.418   0.924   8.225  0.1998 -0.6774  0.5304
12058SOL     OW37336   6.026   1.561   3.772 -0.2136  0.5650  0.3466
12058SOL    HW137337   6.060   1.650   3.773  0.7055  0.2248  1.3406
12058SOL    HW237338   6.093   1.509   3.815 -1.6418 -0.2459  1.7361
12059SOL     OW37339   2.545   4.480   5.981  0.2041 -0.1086  0.3284
12059SOL    HW137340   2.529   4.419   6.053  0.7486 -0.2518  0.3324
12059SOL    HW237341   2.600   4.431   5.920 -1.3862 -0.4853 -0.8781
12060SOL     OW37342   6.179   1.868   3.218 -0.0212 -0.4327  0.2510
12060SOL    HW137343   6.111   1.803   3.200  1.1045 -2.2161  2.0003
12060SOL    HW237344   6.138   1.952   3.198 -2.1721 -1.5480 -0.2999
12061SOL     OW37345   4.199   6.858   5.134 -0.6957  0.0504  0.3434
12061SOL    HW137346   4.186   6.764   5.139  2.5233 -0.6363 -1.3282
12061SOL    HW237347   4.193   6.888   5.225 -2.2147 -1.6328  0.8525
12062SOL     OW37348   1.461   3.697   6.799 -0.3175 -0.3965 -0.5100
12062SOL    HW137349   1.416   3.696   6.714 -3.0976 -1.8370  0.8289
12062SOL    HW237350   1.401   3.742   6.858 -0.3028 -2.8085  1.5077
12063SOL     OW37351   0.207   3.115   2.817 -0.0348 -0.0207 -0.0108
12063SOL    HW137352   0.231   3.030   2.853 -0.5420 -0.0066  0.3638
12063SOL    HW237353   0.169   3.095   2.732 -1.6230 -0.3185  0.7394
12064SOL     OW37354   1.927   5.513   4.003  0.5773 -0.1103  0.2123
12064SOL    HW137355   1.874   5.448   3.957 -0.1638  1.1710 -0.8071
12064SOL    HW237356   1.958   5.468   4.081 -1.9491 -0.9398  0.8182
12065SOL     OW37357   5.507   2.538   2.183  0.2231  0.3775 -0.2894
12065SOL    HW137358   5.594   2.538   2.145  0.8634  0.7727  1.0994
12065SOL    HW237359   5.473   2.625   2.164  0.0347  0.1502 -1.0181
12066SOL     OW37360   0.419   5.563   6.376  0.3739 -0.4530 -0.0476
12066SOL    HW137361   0.450   5.650   6.401 -0.0774  0.2039 -1.6322
12066SOL    HW237362   0.384   5.575   6.288 -1.7521 -1.7516  0.5422
12067SOL     OW37363   5.565   4.080   4.940  0.4870 -1.0419 -0.0895
12067SOL    HW137364   5.509   4.016   4.985 -1.3083  0.1752 -0.4566
12067SOL    HW237365   5.559   4.158   4.994 -0.8149  0.1047 -1.7680
12068SOL     OW37366   4.017   0.848   5.800 -0.1452  0.6913  0.0572
12068SOL    HW137367   3.931   0.806   5.802 -0.1068  0.6289  0.3695
12068SOL    HW237368   4.053   0.825   5.714  0.7278 -1.6510  0.9496
12069SOL     OW37369   1.252   5.017   6.091  0.6545 -0.2665 -0.0371
12069SOL    HW137370   1.172   5.041   6.137 -0.0499 -0.8674 -0.9239
12069SOL    HW237371   1.311   5.091   6.104 -0.2233  0.3961  0.1961
12070SOL     OW37372   0.498   4.679   2.592 -0.0251  0.2724  0.5371
12070SOL    HW137373   0.456   4.594   2.582 -0.6970  0.6951 -0.4258
12070SOL    HW237374   0.588   4.666   2.564  0.0922 -0.3078  1.1807
12071SOL     OW37375   1.475   3.789   0.665 -0.3466 -0.1445 -0.1803
12071SOL    HW137376   1.502   3.702   0.692  1.8497  0.3803 -0.4961
12071SOL    HW237377   1.439   3.777   0.577 -3.8874 -1.2567  1.2482
12072SOL     OW37378   3.399   4.184   8.811 -0.2389 -0.1722 -0.2528
12072SOL    HW137379   3.360   4.097   8.816  0.6811 -0.5513  0.8329
12072SOL    HW237380   3.446   4.185   8.728  0.3664 -0.9936  0.0682
12073SOL     OW37381   8.812   1.372   3.420  0.0122  0.2860 -0.0097
12073SOL    HW137382   8.841   1.389   3.331  0.4488 -1.1277 -0.1628
12073SOL    HW237383   8.834   1.452   3.468  3.2405 -0.2431 -0.3520
12074SOL     OW37384   0.841   4.081   1.346  0.1325 -0.2921  0.1707
12074SOL    HW137385   0.910   4.095   1.282 -0.8681  0.1534 -0.8413
12074SOL    HW237386   0.887   4.053   1.426  1.3284 -2.2353 -1.1146
12075SOL     OW37387   3.036   4.020   3.159 -0.1193  0.0049  0.1695
12075SOL    HW137388   3.012   4.001   3.250  1.0525 -0.5445  0.3836
12075SOL    HW237389   3.092   3.947   3.134 -2.8890 -1.5756 -2.0513
12076SOL     OW37390   2.661   3.716   0.196 -0.1820  0.3813  0.4862
12076SOL    HW137391   2.706   3.754   0.121 -1.4176  1.3494  0.2068
12076SOL    HW237392   2.651   3.788   0.258  0.7056 -0.3753  1.5632
12077SOL     OW37393   0.391   4.224   0.279 -0.0445  0.6948 -0.0953
12077SOL    HW137394   0.399   4.318   0.295  0.5749  0.5428  0.5326
12077SOL    HW237395   0.297   4.207   0.280 -0.3329  1.7112 -2.6667
12078SOL     OW37396   2.445   6.684   1.889 -0.2540  0.0473 -0.4413
12078SOL    HW137397   2.539   6.666   1.899 -0.1602  0.3812 -0.6999
12078SOL    HW237398   2.425   6.655   1.800 -0.2689  0.5194 -0.5903
12079SOL     OW37399   6.388   0.503   7.481 -0.3211 -0.3604 -0.2905
12079SOL    HW137400   6.300   0.468   7.468 -1.4289  2.0759  0.1296
12079SOL    HW237401   6.436   0.478   7.402 -2.6772  1.8573 -2.5993
12080SOL     OW37402   7.840   2.799   1.118  0.2786  0.2888 -0.2551
12080SOL    HW137403   7.845   2.807   1.214  0.9716 -1.7989 -0.0521
12080SOL    HW237404   7.826   2.888   1.087 -1.9666  0.8056  1.8956
12081SOL     OW37405   5.008   1.462   6.125 -0.2508  0.2603 -0.0040
12081SOL    HW137406   4.919   1.446   6.157  0.4643 -1.1318  1.3863
12081SOL    HW237407   5.021   1.557   6.137 -1.7280  0.5815 -0.7738
12082SOL     OW37408   4.964   2.197   4.218  0.6513 -0.3468  0.7390
12082SOL    HW137409   4.895   2.152   4.268  1.7720  0.6488  3.3533
12082SOL    HW237410   5.033   2.131   4.209  0.8810 -0.2126  1.4801
12083SOL     OW37411   8.270   7.410   3.384  0.4832  0.1982  0.1158
12083SOL    HW137412   8.190   7.360   3.371 -1.1955  3.0083 -1.4618
12083SOL    HW237413   8.341   7.350   3.358 -1.4344 -1.0854 -2.6647
12084SOL     OW37414   1.266   4.360   5.024  0.0621  0.1250 -0.5927
12084SOL    HW137415   1.203   4.412   4.974 -2.5348 -0.1003  2.1235
12084SOL    HW237416   1.322   4.425   5.068 -0.7113  0.5091 -0.1581
12085SOL     OW37417   2.472   8.607   6.513  0.0864  0.0321 -0.3109
12085SOL    HW137418   2.553   8.597   6.562  0.5736 -1.2826 -1.3394
12085SOL    HW237419   2.408   8.554   6.561 -0.1053  0.8239  0.3277
12086SOL     OW37420   6.169   3.555   1.514  0.4409 -0.1799 -0.0074
12086SOL    HW137421   6.076   3.577   1.518  0.2243 -1.0140 -0.2662
12086SOL    HW237422   6.210   3.632   1.476 -0.2311 -0.0560 -0.5037
12087SOL     OW37423   4.582   1.484   2.878  0.1046  0.5350  0.0492
12087SOL    HW137424   4.546   1.397   2.860 -1.3587  1.1650 -0.2337
12087SOL    HW237425   4.609   1.480   2.970 -0.2155 -0.1347  0.1195
12088SOL     OW37426   7.147   8.777   8.807  0.6428  0.1403 -0.2311
12088SOL    HW137427   7.083   8.728   8.757  0.2547 -2.2258  2.3199
12088SOL    HW237428   7.224   8.783   8.750  0.1301 -2.1257 -1.2499
12089SOL     OW37429   4.130   0.028   3.690 -0.2887  0.0625 -0.4493
12089SOL    HW137430   4.130   0.038   3.594  0.6489  1.7601 -0.3145
12089SOL    HW237431   4.198  -0.037   3.707 -1.3593 -1.2448 -0.9817
12090SOL     OW37432   1.919   4.440   2.912  0.2164 -0.0709  0.2552
12090SOL    HW137433   1.846   4.494   2.944  0.6699 -1.0672  3.2823
12090SOL    HW237434   1.997   4.493   2.927  0.3603 -0.0760 -0.4353
12091SOL     OW37435   8.562   3.589   4.447  0.1841  0.3329  0.5128
12091SOL    HW137436   8.609   3.510   4.422  1.9399  1.0804  1.2593
12091SOL    HW237437   8.548   3.635   4.364 -1.7044 -1.1536 -0.0484
12092SOL     OW37438   0.493   3.884   5.868  0.0225 -0.0940 -0.8481
12092SOL    HW137439   0.577   3.864   5.826 -0.0721  1.0693 -1.6248
12092SOL    HW237440   0.505   3.971   5.905 -0.3789 -0.5117  0.3314
12093SOL     OW37441   1.851   6.132   4.400 -0.7172  0.2177  0.0503
12093SOL    HW137442   1.774   6.094   4.356 -0.1422 -0.7094 -0.2002
12093SOL    HW237443   1.821   6.153   4.488 -1.7055  1.4513 -0.5655
12094SOL     OW37444   5.229   4.839   3.345  0.5434  0.2960 -0.4157
12094SOL    HW137445   5.174   4.907   3.383  0.7132  0.0086  0.3605
12094SOL    HW237446   5.175   4.760   3.349  1.9120 -0.6307  2.9350
12095SOL     OW37447   1.434   7.977   5.936  0.1174  0.4748 -0.3892
12095SOL    HW137448   1.499   7.911   5.911  0.3917  0.3196  0.6960
12095SOL    HW237449   1.439   8.042   5.867  0.6553 -0.0766 -0.8847
12096SOL     OW37450   0.265   4.206   4.109  0.3101  0.5491  0.6747
12096SOL    HW137451   0.357   4.221   4.128  0.3570  0.4859  0.4972
12096SOL    HW237452   0.240   4.134   4.167  1.2202 -1.7113 -1.5859
12097SOL     OW37453   5.740   1.405   2.995  0.8437 -0.2266 -0.4021
12097SOL    HW137454   5.774   1.349   3.065  0.0509 -1.5852 -1.0452
12097SOL    HW237455   5.809   1.405   2.929  0.6058 -1.0102 -0.6710
12098SOL     OW37456   5.135   4.209   3.302  0.1165  0.3818 -0.0443
12098SOL    HW137457   5.143   4.266   3.225  0.7791  0.3329 -0.0102
12098SOL    HW237458   5.194   4.136   3.284  0.6807  0.6377  0.7470
12099SOL     OW37459   1.113   4.702   7.152 -0.1895  0.3936 -1.0820
12099SOL    HW137460   1.088   4.780   7.102 -0.1330  1.0873 -0.0698
12099SOL    HW237461   1.057   4.706   7.230  0.3321 -0.1867 -0.6791
12100SOL     OW37462   8.599   4.879   7.970  0.0426 -0.3532  0.0422
12100SOL    HW137463   8.630   4.865   8.059 -1.0087  1.1712  0.6911
12100SOL    HW237464   8.504   4.874   7.977 -0.1648  1.8696 -0.5605
12101SOL     OW37465   5.968   1.441   7.686  0.4327  0.2886  0.0128
12101SOL    HW137466   5.917   1.514   7.651 -1.0078  0.6847  2.6806
12101SOL    HW237467   6.029   1.483   7.748  0.0324 -0.6640  1.0934
12102SOL     OW37468   6.464   0.284   2.367 -0.4380  0.3968  0.6358
12102SOL    HW137469   6.497   0.372   2.381  0.8271  0.0483 -0.0363
12102SOL    HW237470   6.374   0.297   2.335 -0.2081  1.4389  0.3856
12103SOL     OW37471   7.622   2.526   2.524 -0.3014  0.1505 -0.8205
12103SOL    HW137472   7.670   2.504   2.444 -0.7943 -0.2202 -1.0206
12103SOL    HW237473   7.536   2.485   2.512 -1.7028  3.1170 -1.6990
12104SOL     OW37474   7.303   7.808   1.704  0.1585  0.3396 -0.4884
12104SOL    HW137475   7.338   7.811   1.793 -1.7962  0.8104  0.3164
12104SOL    HW237476   7.373   7.769   1.652  0.8261 -1.3030  1.5014
12105SOL     OW37477   8.416   5.090   2.058 -0.4346 -0.6440  0.3407
12105SOL    HW137478   8.338   5.037   2.075 -1.0436  0.0371 -0.2604
12105SOL    HW237479   8.487   5.044   2.103 -0.8982 -2.0932 -0.3564
12106SOL     OW37480   1.318   3.861   5.053  0.6860  0.2240 -0.8221
12106SOL    HW137481   1.246   3.814   5.009 -0.6806 -0.3662  1.8086
12106SOL    HW237482   1.318   3.948   5.012 -0.8643 -0.0898 -1.5920
12107SOL     OW37483   7.819   2.700   0.304  0.0512 -0.2999  0.7385
12107SOL    HW137484   7.732   2.708   0.264  0.5244  0.8402 -0.1339
12107SOL    HW237485   7.877   2.685   0.230  0.5204 -1.8042  1.3934
12108SOL     OW37486   8.074   6.258   6.333 -0.3465  0.2327  0.1641
12108SOL    HW137487   8.060   6.228   6.423  0.4233 -0.6390  0.0103
12108SOL    HW237488   8.040   6.187   6.279 -0.4153  0.5663 -0.2317
12109SOL     OW37489   3.729   7.529   5.407 -0.3322  0.5007  0.2725
12109SOL    HW137490   3.637   7.545   5.385 -0.2834 -0.3115 -0.6073
12109SOL    HW237491   3.778   7.566   5.333  0.0378  0.7357  0.6320
12110SOL     OW37492   2.846   2.319   5.986  0.2026 -0.0105  0.0695
12110SOL    HW137493   2.785   2.268   6.040  0.0626 -1.7704 -1.6342
12110SOL    HW237494   2.912   2.255   5.958 -0.5389  0.3960 -2.9989
12111SOL     OW37495   5.825   0.296   2.072  0.2553  0.5183  0.7343
12111SOL    HW137496   5.884   0.237   2.025 -0.1734  0.7133 -0.0664
12111SOL    HW237497   5.876   0.376   2.085 -0.2151  1.1740 -1.1140
12112SOL     OW37498   1.197   6.483   7.059 -0.1196  0.1440 -0.2196
12112SOL    HW137499   1.190   6.551   7.126 -0.6090  0.0867 -0.2146
12112SOL    HW237500   1.283   6.498   7.020 -0.6680  1.4789 -0.9806
12113SOL     OW37501   3.686   1.597   8.852  0.2286 -0.8670 -0.3790
12113SOL    HW137502   3.601   1.612   8.894  0.7360  0.9875  0.1025
12113SOL    HW237503   3.717   1.515   8.888 -0.1873 -0.2390  1.5011
12114SOL     OW37504   4.736   0.029   2.478  0.2359  0.0938 -0.2770
12114SOL    HW137505   4.645   0.054   2.497  0.1719 -0.8339  0.7443
12114SOL    HW237506   4.770  -0.004   2.561  1.2984 -0.2049 -0.8097
12115SOL     OW37507   1.698   4.306   3.568  0.5444 -0.2568  0.2276
12115SOL    HW137508   1.774   4.358   3.596  1.6789 -1.9018  0.3648
12115SOL    HW237509   1.631   4.370   3.549  1.5992  1.2136  1.2297
12116SOL     OW37510   0.971   8.154   7.412 -0.4754 -0.0278  0.1409
12116SOL    HW137511   0.947   8.243   7.386 -3.3572 -0.6555  0.3055
12116SOL    HW237512   1.039   8.166   7.479 -1.4387  2.1120  0.8276
12117SOL     OW37513   2.535   4.999   1.066  0.2540 -0.1263 -0.3457
12117SOL    HW137514   2.543   5.087   1.029  0.8703 -0.4536 -1.0201
12117SOL    HW237515   2.587   4.944   1.008  1.0266 -0.7053  0.8613
12118SOL     OW37516   6.909   7.885   7.929 -0.4604 -0.7306  0.2231
12118SOL    HW137517   6.857   7.941   7.986 -0.8343 -0.7781 -0.0701
12118SOL    HW237518   6.995   7.880   7.973  0.7590  2.7724 -1.3479
12119SOL     OW37519   6.455   4.251   8.060  0.2891  0.0982 -0.3035
12119SOL    HW137520   6.536   4.269   8.013  0.4979 -1.6017 -0.6278
12119SOL    HW237521   6.444   4.156   8.056 -2.2391  0.3410 -1.1526
12120SOL     OW37522   1.850   6.261   0.876  0.3433  0.1155  0.0963
12120SOL    HW137523   1.847   6.166   0.866 -1.3747  0.1573 -0.0755
12120SOL    HW237524   1.926   6.289   0.825  0.9773 -1.1742  0.3067
12121SOL     OW37525   6.011   6.527   5.785  0.1161 -0.7382  0.5033
12121SOL    HW137526   6.033   6.488   5.700 -1.1117  0.7504 -0.5561
12121SOL    HW237527   5.978   6.454   5.837  1.3546 -1.7685 -0.1114
12122SOL     OW37528   0.285   5.238   0.420 -0.2831  0.0451  0.2255
12122SOL    HW137529   0.300   5.263   0.512 -0.5591  0.6213  0.1162
12122SOL    HW237530   0.361   5.185   0.397 -1.1348 -1.7928  1.3969
12123SOL     OW37531   5.714   1.902   3.785 -0.3247 -0.1596  0.2948
12123SOL    HW137532   5.687   1.823   3.739  0.1560 -1.3638  1.9835
12123SOL    HW237533   5.747   1.960   3.716  2.6905 -2.8266 -0.7504
12124SOL     OW37534   3.047   5.096   2.842 -0.5395 -0.0684  0.8612
12124SOL    HW137535   3.042   5.008   2.804 -0.3381  0.5441 -0.6573
12124SOL    HW237536   3.136   5.102   2.875 -0.0748  0.0743 -0.3788
12125SOL     OW37537   8.063   3.409   8.027 -0.1233  0.3034 -0.1575
12125SOL    HW137538   8.096   3.349   8.093  1.1478  0.2282 -0.8302
12125SOL    HW237539   8.130   3.409   7.958 -0.5392  1.7756 -0.6077
12126SOL     OW37540   3.426   6.311   6.124  0.2066 -0.1905 -0.3942
12126SOL    HW137541   3.463   6.336   6.209  0.8317 -1.5414 -0.2443
12126SOL    HW237542   3.483   6.355   6.060 -0.7457  1.4897 -0.1497
12127SOL     OW37543   2.968   4.123   4.024 -0.2270  0.2919 -0.2764
12127SOL    HW137544   2.914   4.063   3.973 -0.3043 -0.0031  0.1526
12127SOL    HW237545   3.042   4.143   3.966 -0.3564  0.0274 -0.5374
12128SOL     OW37546   6.416   5.624   8.356  0.4930 -0.7389 -0.3249
12128SOL    HW137547   6.487   5.579   8.402  0.1731 -1.0389 -0.1153
12128SOL    HW237548   6.459   5.694   8.308  0.6370  1.0183  2.1444
12129SOL     OW37549   7.239   1.429   2.769  0.5073 -0.1806  0.7478
12129SOL    HW137550   7.217   1.342   2.736  2.0292 -0.8219  1.3311
12129SOL    HW237551   7.178   1.444   2.841 -0.6679 -0.1621 -0.2353
12130SOL     OW37552   3.658   8.604   3.275  0.6143 -0.0258 -0.4550
12130SOL    HW137553   3.752   8.590   3.278  0.7801  0.6803 -1.6363
12130SOL    HW237554   3.647   8.697   3.294  0.2720  0.1507 -1.4274
12131SOL     OW37555   3.966   7.693   5.916 -0.1166 -0.6708  0.2209
12131SOL    HW137556   3.957   7.784   5.886  2.1462 -0.3886  0.2794
12131SOL    HW237557   3.915   7.689   5.997 -2.2140 -0.1364 -0.9818
12132SOL     OW37558   5.593   0.322   3.873 -0.4817  0.0648  1.0515
12132SOL    HW137559   5.607   0.396   3.815 -0.3032 -1.5257 -1.0738
12132SOL    HW237560   5.665   0.327   3.936 -1.0155  2.1699  1.5583
12133SOL     OW37561   4.534   5.278   3.455 -0.1466 -0.2797  0.3645
12133SOL    HW137562   4.597   5.262   3.385  0.7425  0.5214  0.9611
12133SOL    HW237563   4.450   5.288   3.410  0.2813 -0.5231 -0.5104
12134SOL     OW37564   0.820   7.617   6.420 -0.5315 -0.2923 -0.1435
12134SOL    HW137565   0.742   7.660   6.457 -1.7154 -1.2831 -1.3744
12134SOL    HW237566   0.814   7.526   6.451  0.7862 -0.1023  0.7054
12135SOL     OW37567   2.590   0.457   8.437  0.1512  0.9750  0.3573
12135SOL    HW137568   2.517   0.412   8.396  1.5493 -0.7929 -0.3204
12135SOL    HW237569   2.644   0.488   8.364  0.4971  1.5567  0.8483
12136SOL     OW37570   2.692   5.741   1.814  0.1179  0.3496  0.2777
12136SOL    HW137571   2.768   5.778   1.768 -0.2057  0.3516 -0.2558
12136SOL    HW237572   2.679   5.655   1.773 -1.7152  1.3575 -1.3995
12137SOL     OW37573   2.154   7.056   7.579  0.0677  0.5729  0.2887
12137SOL    HW137574   2.173   7.104   7.660  1.8588  1.5006 -0.6242
12137SOL    HW237575   2.239   7.022   7.551 -0.6308 -0.2485 -0.8801
12138SOL     OW37576   3.703   6.122   4.125  0.4084  0.4575  0.3743
12138SOL    HW137577   3.671   6.089   4.041  0.1857  1.7461 -0.0671
12138SOL    HW237578   3.636   6.097   4.188  0.1974  0.1601  0.0311
12139SOL     OW37579   1.966   5.492   5.458  0.0556  0.1242 -0.0623
12139SOL    HW137580   1.883   5.535   5.435 -0.0415  0.1257  0.2803
12139SOL    HW237581   2.019   5.562   5.496  0.1929  0.1105 -0.2283
12140SOL     OW37582   8.585   3.335   0.397 -0.4879  0.4368  0.2192
12140SOL    HW137583   8.614   3.358   0.308 -0.7305 -0.9404 -0.2418
12140SOL    HW237584   8.665   3.336   0.449 -0.4643  2.1179  0.2053
12141SOL     OW37585   7.996   5.413   0.718  0.4687 -0.1449  0.0986
12141SOL    HW137586   7.993   5.508   0.705 -1.3566  0.2952  2.9328
12141SOL    HW237587   8.049   5.401   0.796  1.3284 -1.5676 -0.6705
12142SOL     OW37588   2.161   3.861   4.084 -0.8715  0.1174  0.1006
12142SOL    HW137589   2.160   3.861   4.179 -1.5136  0.5583  0.0955
12142SOL    HW237590   2.135   3.949   4.059  1.6169  0.7758 -0.4856
12143SOL     OW37591   1.751   5.622   5.428 -0.2053 -0.2311 -1.2371
12143SOL    HW137592   1.700   5.651   5.353 -2.3870 -2.4282 -0.7178
12143SOL    HW237593   1.708   5.664   5.503  0.7228  0.3580 -1.0160
12144SOL     OW37594   5.850   8.737   5.951 -0.2931  0.1340  0.0817
12144SOL    HW137595   5.784   8.794   5.990  1.4592  0.6516  2.4755
12144SOL    HW237596   5.876   8.677   6.021 -0.3432 -2.1063 -1.6655
12145SOL     OW37597   6.923   6.757   6.449 -0.5530 -0.0307  0.5299
12145SOL    HW137598   6.914   6.695   6.521 -2.2333  1.0050  1.2807
12145SOL    HW237599   6.833   6.786   6.431  0.2010  2.6450  0.6418
12146SOL     OW37600   6.785   1.983   5.480 -0.4492  0.2266  0.1884
12146SOL    HW137601   6.835   2.004   5.401 -0.0887  0.5624  0.4991
12146SOL    HW237602   6.841   1.920   5.527 -1.4910 -1.4447 -0.7087
12147SOL     OW37603   2.850   5.806   2.988  0.8570 -0.2298 -0.4351
12147SOL    HW137604   2.820   5.893   2.960 -0.8050 -0.6340  0.0128
12147SOL    HW237605   2.902   5.824   3.067  0.5884  0.3677 -0.3844
12148SOL     OW37606   3.144   2.344   0.888 -0.1893 -0.8643 -0.0068
12148SOL    HW137607   3.234   2.346   0.920 -0.2574 -1.3028  0.2206
12148SOL    HW237608   3.145   2.400   0.811  0.2618 -0.8041  0.0387
12149SOL     OW37609   4.172   3.883   0.312  0.3479 -0.5597  0.0436
12149SOL    HW137610   4.265   3.861   0.301  0.1472 -3.4072  2.5629
12149SOL    HW237611   4.164   3.908   0.404 -1.2521  0.5672 -0.3722
12150SOL     OW37612   5.148   1.292   1.841 -0.3761  0.2980 -0.3803
12150SOL    HW137613   5.211   1.357   1.808  0.3738 -0.1842  0.0539
12150SOL    HW237614   5.202   1.230   1.889 -0.9661 -1.0789 -1.4217
12151SOL     OW37615   7.682   8.666   6.814 -0.4661 -0.5079 -0.0252
12151SOL    HW137616   7.748   8.722   6.773 -1.3920  1.2119  0.7297
12151SOL    HW237617   7.657   8.605   6.745  1.6562 -1.0088 -0.4248
12152SOL     OW37618   4.293   3.096   4.601  0.0940  0.3269 -0.1637
12152SOL    HW137619   4.222   3.105   4.666 -0.2637 -1.2673 -0.2831
12152SOL    HW237620   4.253   3.123   4.518 -0.2019 -0.0167 -0.1341
12153SOL     OW37621   7.350   4.873   8.367 -0.8213  0.6163  0.2057
12153SOL    HW137622   7.397   4.855   8.448 -2.1361  0.6939  1.0117
12153SOL    HW237623   7.377   4.962   8.343  0.8675 -0.0199 -0.3920
12154SOL     OW37624   3.486   5.298   8.266 -0.0238 -0.1103 -0.3669
12154SOL    HW137625   3.567   5.248   8.252 -0.8269 -1.7337  0.5064
12154SOL    HW237626   3.417   5.232   8.266 -1.1434  1.0138  0.7607
12155SOL     OW37627   7.436   3.451   1.022  0.3513 -0.2491 -0.4571
12155SOL    HW137628   7.463   3.437   0.931  0.9992 -3.1443  0.0993
12155SOL    HW237629   7.481   3.383   1.072 -0.5588  0.8021  1.9542
12156SOL     OW37630   1.693   2.111   1.057 -0.2175  0.1808  0.2096
12156SOL    HW137631   1.777   2.111   1.011 -0.1983 -2.0774  0.1243
12156SOL    HW237632   1.627   2.115   0.988 -0.2100  1.2169  0.2438
12157SOL     OW37633   1.570   1.505   8.613 -0.0043  0.7256  0.1997
12157SOL    HW137634   1.511   1.518   8.687 -0.1991  0.9996 -0.0023
12157SOL    HW237635   1.570   1.589   8.567  0.5306  0.7248  0.1888
12158SOL     OW37636   1.505   8.490   2.826 -0.5249  0.0806 -0.2313
12158SOL    HW137637   1.564   8.449   2.889 -0.2947 -0.7200 -0.9450
12158SOL    HW237638   1.555   8.493   2.745 -0.4887  1.9335 -0.1727
12159SOL     OW37639   0.246   0.235   7.312 -0.4198  0.1390 -0.2530
12159SOL    HW137640   0.169   0.245   7.367  0.7721 -1.3186  1.8124
12159SOL    HW237641   0.291   0.320   7.319 -1.6139  0.8823 -1.2088
12160SOL     OW37642   7.106   7.034   2.007 -0.3745  0.2540  0.5607
12160SOL    HW137643   7.065   7.113   2.041 -1.3979 -0.3611  0.8021
12160SOL    HW237644   7.199   7.055   2.004 -0.5191  1.1318  1.5334
12161SOL     OW37645   4.259   2.679   0.551  0.2826 -0.2266 -0.8202
12161SOL    HW137646   4.339   2.654   0.504 -0.2862  0.2103 -2.0513
12161SOL    HW237647   4.225   2.755   0.503  0.5633  1.3271  1.2950
12162SOL     OW37648   1.349   0.684   8.687  0.1603 -0.7674 -0.7633
12162SOL    HW137649   1.312   0.621   8.748 -0.2310 -2.2733 -2.4527
12162SOL    HW237650   1.284   0.754   8.681  0.4129 -0.3689  0.8274
12163SOL     OW37651   3.035   2.569   8.116  0.1094 -0.0953  0.1342
12163SOL    HW137652   2.978   2.493   8.127  1.6061 -1.3111 -0.2818
12163SOL    HW237653   3.062   2.592   8.205 -1.2901  0.7536  0.3820
12164SOL     OW37654   4.357   5.233   6.049 -0.0396  0.3458 -0.0163
12164SOL    HW137655   4.363   5.309   5.991 -1.0587  0.2521 -0.2734
12164SOL    HW237656   4.303   5.170   6.000  0.8828 -0.5980  0.1399
12165SOL     OW37657   4.039   5.192   6.374  0.0565 -0.3198 -0.3169
12165SOL    HW137658   4.067   5.259   6.311 -0.2612  0.3669  0.2532
12165SOL    HW237659   3.945   5.206   6.382  0.0232 -0.7060 -0.0308
12166SOL     OW37660   7.505   4.729   6.181  0.1603 -0.3388 -0.1241
12166SOL    HW137661   7.438   4.745   6.247  0.3845 -2.5435  0.7207
12166SOL    HW237662   7.458   4.728   6.098 -0.1291  2.4530 -0.0940
12167SOL     OW37663   4.168   5.147   2.999 -0.9280 -0.8339  0.0117
12167SOL    HW137664   4.093   5.192   2.960 -0.6516  1.6302  2.0688
12167SOL    HW237665   4.129   5.078   3.052 -1.8979  0.9373  1.7197
12168SOL     OW37666   3.206   4.624   2.702  0.9968 -0.2422  0.1523
12168SOL    HW137667   3.301   4.612   2.699  0.9578 -0.5191 -0.0391
12168SOL    HW237668   3.172   4.557   2.642  0.6554 -0.4581  0.5822
12169SOL     OW37669   5.515   3.029   8.321 -0.2179 -0.4820 -0.1535
12169SOL    HW137670   5.511   2.998   8.411  0.4698 -3.5143 -1.0487
12169SOL    HW237671   5.424   3.039   8.295 -0.4373 -0.4065  0.6224
12170SOL     OW37672   0.152   1.947   4.892  0.0734  0.3191  0.1264
12170SOL    HW137673   0.140   2.011   4.822 -0.5348 -0.4285 -0.4846
12170SOL    HW237674   0.099   1.872   4.864  0.8384 -0.4801  0.7779
12171SOL     OW37675   5.094   6.407   3.312 -0.0277 -0.7191  0.2794
12171SOL    HW137676   5.144   6.367   3.383 -1.2750 -2.0840  0.4301
12171SOL    HW237677   5.154   6.407   3.237  0.2018 -2.3550  0.4397
12172SOL     OW37678   4.834   6.785   3.922 -0.1303  0.2547  0.4202
12172SOL    HW137679   4.866   6.841   3.850  2.0242 -0.0196  1.0817
12172SOL    HW237680   4.808   6.704   3.879 -0.2191  0.6069 -0.2115
12173SOL     OW37681   3.942   1.857   3.661 -0.0445  0.1445 -0.0858
12173SOL    HW137682   3.979   1.774   3.630 -0.9337 -0.7720  1.1666
12173SOL    HW237683   3.915   1.903   3.582  1.2913 -0.3515 -0.8503
12174SOL     OW37684   4.196   6.802   2.541  0.0445  0.3838  0.1446
12174SOL    HW137685   4.249   6.880   2.555 -0.3091  0.5140  0.7890
12174SOL    HW237686   4.216   6.746   2.616 -0.9231  0.5469  0.5347
12175SOL     OW37687   5.491   6.394   2.659  0.3006  0.1245  0.5550
12175SOL    HW137688   5.553   6.402   2.587 -0.0360 -1.3198  0.0681
12175SOL    HW237689   5.537   6.341   2.724  0.1114  0.2894  0.8237
12176SOL     OW37690   5.969   5.173   6.904  0.4344 -0.3869 -0.1808
12176SOL    HW137691   5.944   5.252   6.857 -1.2402 -1.3034 -0.9221
12176SOL    HW237692   5.994   5.203   6.991  0.1342  0.9866 -0.5489
12177SOL     OW37693   4.909   1.510   2.988  0.0792 -0.4540  0.2217
12177SOL    HW137694   4.963   1.459   3.049  1.7639  0.7099 -0.2087
12177SOL    HW237695   4.838   1.544   3.042  1.6200  0.7073  1.6391
12178SOL     OW37696   4.897   5.434   1.217  0.6702 -0.3299 -0.3926
12178SOL    HW137697   4.915   5.528   1.227  0.5838 -0.4272  0.9802
12178SOL    HW237698   4.981   5.392   1.234  0.6188 -0.5104 -0.5958
12179SOL     OW37699   0.710   7.020   8.113 -0.0825 -0.3234 -0.3201
12179SOL    HW137700   0.749   6.935   8.093  2.1183  0.7849 -1.1157
12179SOL    HW237701   0.750   7.045   8.197 -0.9463 -0.1984  0.0623
12180SOL     OW37702   1.435   4.115   1.003 -0.2503 -0.7559 -0.0482
12180SOL    HW137703   1.428   4.110   0.908  0.1230 -1.3518 -0.0477
12180SOL    HW237704   1.363   4.172   1.029 -0.5362 -0.8270 -0.6605
12181SOL     OW37705   3.573   0.607   6.586  0.0775 -0.4170 -0.2027
12181SOL    HW137706   3.587   0.678   6.649 -1.4444 -0.6641  0.4511
12181SOL    HW237707   3.635   0.626   6.515  1.6105  0.0400  1.1918
12182SOL     OW37708   7.471   6.950   4.535  0.0866 -0.1734  0.3344
12182SOL    HW137709   7.419   7.029   4.517 -0.0531  0.0825  1.7331
12182SOL    HW237710   7.553   6.965   4.487 -0.5044  0.1254 -0.6323
12183SOL     OW37711   7.596   5.180   7.890 -0.3075  0.5858  0.3642
12183SOL    HW137712   7.665   5.143   7.834 -0.1969 -0.4035  1.1352
12183SOL    HW237713   7.587   5.271   7.859 -0.0344  0.1622 -1.0393
12184SOL     OW37714   7.897   2.401   5.666 -0.1746 -0.9011  0.2522
12184SOL    HW137715   7.941   2.451   5.597  0.6171 -0.2396  1.2007
12184SOL    HW237716   7.923   2.445   5.747  0.1376 -2.5440  1.0832
12185SOL     OW37717   8.606   4.750   4.364 -0.3554  0.0693 -0.2867
12185SOL    HW137718   8.681   4.793   4.404 -1.0138  1.0625 -0.0836
12185SOL    HW237719   8.640   4.715   4.281  0.5722 -0.4180  0.2874
12186SOL     OW37720   3.488   0.800   5.824  0.4054 -0.5486 -0.8446
12186SOL    HW137721   3.406   0.752   5.817 -0.1714 -0.0452  1.6056
12186SOL    HW237722   3.476   0.877   5.767 -1.6579  0.5400  0.9507
12187SOL     OW37723   3.048   5.263   8.613 -0.0125  0.2301 -0.0597
12187SOL    HW137724   3.077   5.298   8.528 -0.3600  0.3847 -0.1135
12187SOL    HW237725   2.960   5.296   8.624  0.4086  1.0753  0.8650
12188SOL     OW37726   2.942   1.815   0.810  0.4789  0.0340  0.0043
12188SOL    HW137727   3.004   1.822   0.737  0.7698 -1.0945  0.1217
12188SOL    HW237728   2.967   1.885   0.870 -0.0170  1.2459 -1.1363
12189SOL     OW37729   3.357   1.359   6.080 -0.3833  0.3076 -0.4077
12189SOL    HW137730   3.358   1.432   6.018  0.5835  2.2097  1.6968
12189SOL    HW237731   3.443   1.363   6.123 -1.7428  0.4221  2.4926
12190SOL     OW37732   2.275   3.388   8.352 -0.3106 -0.2649  0.0402
12190SOL    HW137733   2.195   3.362   8.306  0.2803 -1.2430 -0.4648
12190SOL    HW237734   2.292   3.317   8.413  0.8653 -0.7176 -0.7623
12191SOL     OW37735   4.129   1.807   0.786  0.0076  0.5389 -0.1578
12191SOL    HW137736   4.131   1.788   0.880 -0.5609 -1.0257 -0.4366
12191SOL    HW237737   4.037   1.795   0.761  0.2722  0.2700 -1.0377
12192SOL     OW37738   2.498   7.471   4.080 -0.6201 -1.2038  0.2204
12192SOL    HW137739   2.471   7.470   4.172  1.8792  1.2546  1.1178
12192SOL    HW237740   2.436   7.530   4.038 -2.5717 -3.3261 -0.0739
12193SOL     OW37741   2.647   3.765   1.164  0.3521 -0.8680 -0.3412
12193SOL    HW137742   2.657   3.721   1.080 -0.1356 -1.8488  0.0915
12193SOL    HW237743   2.665   3.857   1.146 -1.5059 -0.7436 -1.8971
12194SOL     OW37744   3.801   2.618   0.458 -0.3889  0.1873 -0.3003
12194SOL    HW137745   3.805   2.562   0.380  3.1503  0.0164 -0.1945
12194SOL    HW237746   3.806   2.707   0.423  0.0207  0.1506 -0.3508
12195SOL     OW37747   6.503   5.413   3.177 -0.1745  0.2823  0.4621
12195SOL    HW137748   6.561   5.399   3.102  0.9922  0.2537  1.3371
12195SOL    HW237749   6.516   5.335   3.232 -0.5305  0.5944  0.9960
12196SOL     OW37750   2.351   4.977   6.409  0.1451  0.3666  0.2772
12196SOL    HW137751   2.359   5.012   6.498 -0.3232 -0.1454  0.5319
12196SOL    HW237752   2.403   4.896   6.412 -0.1451  0.1778  0.1797
12197SOL     OW37753   5.425   5.344   0.034 -0.3519 -0.2211  0.1369
12197SOL    HW137754   5.443   5.368   0.125  0.0494 -0.6444  0.1733
12197SOL    HW237755   5.343   5.295   0.037  0.7830 -2.2229  0.6041
12198SOL     OW37756   0.920   2.501   8.541 -0.3158 -0.2470 -0.2014
12198SOL    HW137757   0.903   2.473   8.451  1.5129 -0.5086 -0.5126
12198SOL    HW237758   1.001   2.456   8.565 -0.5441  0.1494  1.4357
12199SOL     OW37759   8.805   4.441   2.623  0.2893  0.1541  0.3253
12199SOL    HW137760   8.735   4.419   2.685 -0.9967 -0.7852 -1.3938
12199SOL    HW237761   8.785   4.530   2.594 -0.8616 -0.5042 -0.9798
12200SOL     OW37762   4.818   6.438   5.792  1.0669  0.4527  0.3366
12200SOL    HW137763   4.865   6.510   5.833  0.7872  0.7798  0.0841
12200SOL    HW237764   4.735   6.476   5.763  0.5736 -0.1502  0.9104
12201SOL     OW37765   3.101   7.886   4.745 -0.2273 -0.0350  0.2282
12201SOL    HW137766   3.022   7.833   4.734 -2.2325  2.9570 -1.2611
12201SOL    HW237767   3.159   7.857   4.675 -0.3205 -1.6736  0.7857
12202SOL     OW37768   6.455   6.959   2.813  0.1709  0.0648  0.3513
12202SOL    HW137769   6.448   6.864   2.823  2.8685 -0.3075 -0.4231
12202SOL    HW237770   6.383   6.983   2.756 -0.2349 -1.6163  0.0982
12203SOL     OW37771   6.487   3.872   4.769  0.4946  0.3041  0.0134
12203SOL    HW137772   6.511   3.959   4.803 -1.9842  0.6752  1.0249
12203SOL    HW237773   6.452   3.826   4.845 -1.4446 -0.3171 -1.2028
12204SOL     OW37774   0.026   6.603   4.310  0.3254 -0.2203 -0.0981
12204SOL    HW137775  -0.031   6.661   4.260  0.2172  0.1675  0.4658
12204SOL    HW237776   0.072   6.551   4.244  1.0454  1.0881 -0.6494
12205SOL     OW37777   6.340   8.453   6.726 -0.0906  0.3908 -0.2909
12205SOL    HW137778   6.351   8.379   6.666 -1.0565 -0.2009  0.2240
12205SOL    HW237779   6.246   8.452   6.748  0.0258  1.3186  0.2968
12206SOL     OW37780   3.450   8.628   4.255 -0.4337  0.4421  0.0926
12206SOL    HW137781   3.518   8.695   4.257  1.3698 -1.2701 -0.7820
12206SOL    HW237782   3.466   8.574   4.332 -2.4217  1.4168  1.2926
12207SOL     OW37783   5.274   2.295   4.032 -0.0453 -0.7026 -0.4863
12207SOL    HW137784   5.257   2.201   4.024  0.0797 -0.9473  1.5316
12207SOL    HW237785   5.299   2.307   4.124  1.9930  1.0096 -1.1848
12208SOL     OW37786   8.759   0.356   4.608 -0.3574 -0.4141 -0.0445
12208SOL    HW137787   8.765   0.274   4.656 -0.5680 -1.4153 -1.6500
12208SOL    HW237788   8.713   0.333   4.527 -0.2374  1.2437 -0.6216
12209SOL     OW37789   8.121   0.826   4.296 -0.4561 -0.0689  0.7670
12209SOL    HW137790   8.207   0.836   4.336 -0.5751  1.1140  0.7590
12209SOL    HW237791   8.128   0.747   4.243  0.3474 -0.4806  1.4532
12210SOL     OW37792   7.316   6.801   8.753  0.0531  0.0920  0.2136
12210SOL    HW137793   7.238   6.805   8.808 -1.8128 -1.1369 -2.1749
12210SOL    HW237794   7.286   6.829   8.667  2.3784  0.0026 -0.6907
12211SOL     OW37795   5.701   7.163   6.964  0.2563 -0.1853 -0.8041
12211SOL    HW137796   5.727   7.077   6.931  0.7645 -0.3918  0.1104
12211SOL    HW237797   5.651   7.144   7.044  0.8278  0.3857 -0.3026
12212SOL     OW37798   7.262   7.737   0.685 -0.2026 -0.0790 -0.3565
12212SOL    HW137799   7.296   7.661   0.732 -0.5021 -0.2086 -0.3457
12212SOL    HW237800   7.292   7.726   0.595  0.2015  0.0642 -0.2404
12213SOL     OW37801   3.240   5.288   7.354  0.2743  0.0262  0.2754
12213SOL    HW137802   3.161   5.328   7.318 -0.7019 -0.1562  2.0838
12213SOL    HW237803   3.263   5.220   7.291 -0.2950  0.8806 -0.8935
12214SOL     OW37804   3.356   6.320   3.474  0.0574  0.4619  0.5039
12214SOL    HW137805   3.297   6.376   3.525  0.3554  0.2012  1.1485
12214SOL    HW237806   3.301   6.286   3.404 -0.1165  1.5951  0.0671
12215SOL     OW37807   2.063   0.323   8.054 -0.1970 -0.4856  0.1664
12215SOL    HW137808   2.082   0.416   8.038  0.5569 -1.0846 -3.2084
12215SOL    HW237809   2.148   0.286   8.078 -0.5019 -0.3756  1.5323
12216SOL     OW37810   6.226   2.104   4.725  0.1900  0.1369 -0.5008
12216SOL    HW137811   6.223   2.136   4.635  1.5945 -0.1909 -0.6866
12216SOL    HW237812   6.295   2.037   4.725 -0.0850 -0.1784  0.7210
12217SOL     OW37813   8.438   6.506   8.400 -0.4428  0.7750 -0.0541
12217SOL    HW137814   8.509   6.510   8.464 -0.0125  0.1096 -0.4748
12217SOL    HW237815   8.416   6.413   8.394 -3.3292  1.1753  2.1691
12218SOL     OW37816   4.976   4.548   3.916 -0.4700  0.8966  0.3730
12218SOL    HW137817   5.052   4.572   3.970  0.3504  3.2411 -1.6370
12218SOL    HW237818   4.910   4.613   3.939 -0.6811  0.9072 -0.2586
12219SOL     OW37819   6.587   4.134   7.531 -0.1109  0.0140 -0.3108
12219SOL    HW137820   6.667   4.149   7.482  1.3864 -1.3404  1.5306
12219SOL    HW237821   6.530   4.207   7.509  1.8052  1.2630 -1.3510
12220SOL     OW37822   3.307   5.828   6.565  0.7872 -0.1197 -0.3551
12220SOL    HW137823   3.366   5.862   6.632  0.8950 -2.9167  1.1055
12220SOL    HW237824   3.366   5.797   6.495  0.9900 -1.0395  0.1956
12221SOL     OW37825   2.030   1.358   7.526  0.4905 -0.0166  0.0043
12221SOL    HW137826   2.106   1.413   7.541  1.1730 -1.3918  2.0209
12221SOL    HW237827   2.061   1.269   7.542 -0.9419 -0.8805 -1.6385
12222SOL     OW37828   3.762   6.500   6.190  0.3002 -0.4088  0.9528
12222SOL    HW137829   3.850   6.488   6.155  0.5201 -0.7252  1.5979
12222SOL    HW237830   3.752   6.594   6.199  0.9222 -0.4166  1.7461
12223SOL     OW37831   8.471   7.586   0.183 -0.3121  0.0470  0.4083
12223SOL    HW137832   8.434   7.669   0.212 -0.5734  0.2822 -0.5325
12223SOL    HW237833   8.444   7.523   0.249 -0.0176  0.7283  1.1896
12224SOL     OW37834   7.941   1.861   8.778  0.7970 -0.4330 -0.2170
12224SOL    HW137835   7.979   1.805   8.845 -0.3097  0.5698  1.3246
12224SOL    HW237836   7.847   1.840   8.780  0.3401  1.4655  0.4566
12225SOL     OW37837   2.186   7.261   0.601 -0.2689 -0.0316 -0.0366
12225SOL    HW137838   2.117   7.309   0.556 -0.4839  0.5896  0.9267
12225SOL    HW237839   2.267   7.297   0.566 -0.3997 -1.0650 -1.4936
12226SOL     OW37840   3.599   7.783   4.102  0.0499  0.6438 -0.3381
12226SOL    HW137841   3.569   7.867   4.067 -0.2839  0.8580  0.4496
12226SOL    HW237842   3.520   7.729   4.105  0.6539 -0.6149 -3.2591
12227SOL     OW37843   1.005   7.366   8.593  0.4563  0.2720 -0.4326
12227SOL    HW137844   1.055   7.286   8.608 -0.8001 -0.5058 -0.2528
12227SOL    HW237845   0.970   7.390   8.679  0.3635  0.6951 -0.5842
12228SOL     OW37846   8.322   2.440   6.299 -0.1659 -0.0390  0.1859
12228SOL    HW137847   8.410   2.415   6.270  0.1402  1.4231 -0.2619
12228SOL    HW237848   8.329   2.449   6.394  0.9689  2.6862 -0.0459
12229SOL     OW37849   5.994   7.770   0.705 -0.1735 -0.1528 -0.7599
12229SOL    HW137850   6.047   7.826   0.761  1.0179 -2.2210  0.3042
12229SOL    HW237851   6.036   7.776   0.619 -2.9516  4.3107 -2.1346
12230SOL     OW37852   1.905   1.740   8.792  0.0193  0.2102 -0.4145
12230SOL    HW137853   1.932   1.648   8.783  0.6286  0.3010  0.3492
12230SOL    HW237854   1.882   1.767   8.704 -0.2440 -0.7050 -0.6344
12231SOL     OW37855   6.775   6.857   1.011  0.0224 -0.2089  0.1484
12231SOL    HW137856   6.682   6.867   0.994  0.2998  2.9472 -0.0926
12231SOL    HW237857   6.797   6.771   0.976 -2.3904 -0.2063 -1.6094
12232SOL     OW37858   5.144   2.740   1.619 -0.0809 -0.5184  0.0732
12232SOL    HW137859   5.181   2.817   1.662 -0.1335  0.9529 -2.3279
12232SOL    HW237860   5.144   2.762   1.526 -2.9289 -2.1960 -0.4506
12233SOL     OW37861   3.480   1.154   2.285 -0.5775 -0.2645 -0.4195
12233SOL    HW137862   3.545   1.223   2.273 -0.9061  0.0731 -0.2906
12233SOL    HW237863   3.430   1.153   2.204 -0.3316 -0.6099 -0.5678
12234SOL     OW37864   2.494   1.696   0.343 -0.2537 -0.5645 -0.0401
12234SOL    HW137865   2.408   1.698   0.385 -1.3608 -1.8633 -2.0444
12234SOL    HW237866   2.512   1.603   0.328 -0.3694 -0.2245 -3.0238
12235SOL     OW37867   6.926   3.871   2.426 -0.3149 -0.0125  0.0288
12235SOL    HW137868   6.916   3.776   2.437  0.3511  0.0669  1.6092
12235SOL    HW237869   6.985   3.881   2.352  0.4214 -0.8691  0.4842
12236SOL     OW37870   4.261   6.230   6.101  0.0120  0.0383 -0.5998
12236SOL    HW137871   4.288   6.139   6.112 -3.2304 -1.2565 -2.2291
12236SOL    HW237872   4.246   6.262   6.190 -0.3311 -1.5184 -0.0792
12237SOL     OW37873   1.474   0.239   0.819 -0.0873  0.0218  0.0004
12237SOL    HW137874   1.480   0.329   0.787  2.2096  0.3560  1.2183
12237SOL    HW237875   1.481   0.247   0.914  2.5960 -1.5683  0.0125
12238SOL     OW37876   2.662   1.037   8.081 -0.2227  0.3980  0.2042
12238SOL    HW137877   2.605   1.113   8.068 -0.1384  0.8861  2.2538
12238SOL    HW237878   2.722   1.064   8.151  1.8016 -0.5124 -1.0926
12239SOL     OW37879   3.453   8.052   5.403 -0.0126  0.2274  0.1519
12239SOL    HW137880   3.523   8.096   5.452 -0.2489  0.5983  0.1646
12239SOL    HW237881   3.499   7.997   5.340  0.3163 -0.9263  1.3581
12240SOL     OW37882   7.572   2.736   3.827  0.3091  0.2096 -0.1549
12240SOL    HW137883   7.477   2.732   3.823  0.1762  2.7301 -3.0341
12240SOL    HW237884   7.592   2.773   3.913 -1.2158 -0.8600  0.7046
12241SOL     OW37885   5.456   3.076   7.591 -0.1503 -0.0579 -0.2696
12241SOL    HW137886   5.412   3.119   7.664 -1.7636  0.2455 -1.3555
12241SOL    HW237887   5.407   2.994   7.579 -1.4517  0.9161 -2.3821
12242SOL     OW37888   7.096   0.358   4.243  0.1635  0.6289 -0.2844
12242SOL    HW137889   7.047   0.413   4.182  0.6490  1.0124 -0.3414
12242SOL    HW237890   7.057   0.375   4.328  1.3478  2.3422 -0.0281
12243SOL     OW37891   5.734   6.185   6.185  0.4290 -0.2435  0.2675
12243SOL    HW137892   5.698   6.122   6.248 -0.4849  1.0733  1.1131
12243SOL    HW237893   5.659   6.239   6.161  1.6040  2.0295  1.3967
12244SOL     OW37894   3.959   6.873   2.472  0.0987  0.6162  0.1738
12244SOL    HW137895   3.918   6.791   2.447 -0.5874  1.2565 -0.9038
12244SOL    HW237896   4.053   6.855   2.468 -0.0010  0.3019 -1.6543
12245SOL     OW37897   5.486   2.667   2.512 -0.2043  0.3943  0.2785
12245SOL    HW137898   5.437   2.747   2.529 -0.8577  0.0269  0.1695
12245SOL    HW237899   5.445   2.602   2.569  0.1918  0.0911  0.2204
12246SOL     OW37900   8.348   8.742   4.136  0.7378 -0.1295 -0.3474
12246SOL    HW137901   8.427   8.777   4.175  0.3627  0.0958  0.2166
12246SOL    HW237902   8.277   8.771   4.193  0.3284 -1.0405 -0.3696
12247SOL     OW37903   6.014   0.610   6.810 -0.6760  0.9051 -0.2245
12247SOL    HW137904   6.012   0.703   6.786 -0.2158  1.1843  0.7834
12247SOL    HW237905   6.103   0.594   6.839 -0.8389  0.2203 -0.0815
12248SOL     OW37906   3.440   6.601   6.293 -0.6699  0.0565 -0.3970
12248SOL    HW137907   3.399   6.658   6.359 -2.1610 -1.2726 -0.1161
12248SOL    HW237908   3.498   6.544   6.344  1.5282  1.8180 -0.7755
12249SOL     OW37909   0.830   4.436   8.507 -0.2073 -0.5066 -0.4931
12249SOL    HW137910   0.786   4.494   8.570  2.0298  0.6659  0.0847
12249SOL    HW237911   0.801   4.469   8.422 -1.4905 -0.6442 -0.1347
12250SOL     OW37912   0.035   0.226   7.478  0.6409 -0.1360  1.4020
12250SOL    HW137913   0.052   0.188   7.564  3.5374  0.2161  1.0999
12250SOL    HW237914  -0.008   0.309   7.497  0.3772 -0.4973  2.4597
12251SOL     OW37915   2.962   1.183   0.705 -0.1373 -0.0371 -0.1470
12251SOL    HW137916   3.054   1.156   0.705  0.1320  0.8119 -1.1881
12251SOL    HW237917   2.922   1.132   0.776  1.0858 -0.5613  0.1941
12252SOL     OW37918   2.093   7.597   6.952  0.2590  0.3427  0.0321
12252SOL    HW137919   2.008   7.635   6.931  0.2541  0.9355  1.0425
12252SOL    HW237920   2.076   7.542   7.029  0.8893  0.9109  0.5855
12253SOL     OW37921   1.216   4.503   6.202  0.4381  0.2171  0.2755
12253SOL    HW137922   1.252   4.590   6.188 -0.3255  0.5815  0.5283
12253SOL    HW237923   1.243   4.454   6.124  0.8789  0.6703  0.1345
12254SOL     OW37924   1.317   2.463   7.574 -0.4830  0.0063 -0.3735
12254SOL    HW137925   1.399   2.471   7.622 -1.1051 -0.2325  0.7704
12254SOL    HW237926   1.251   2.499   7.634 -1.3675 -0.8388 -0.8128
12255SOL     OW37927   6.126   0.627   0.326 -0.3878 -0.8079 -0.0486
12255SOL    HW137928   6.219   0.613   0.309 -0.4278  0.2890 -1.3947
12255SOL    HW237929   6.097   0.685   0.256 -1.5575  0.8366  1.6934
12256SOL     OW37930   3.207   7.002   5.318  0.5604  0.1897  0.1277
12256SOL    HW137931   3.255   6.935   5.366  3.2033  1.7761 -0.0624
12256SOL    HW237932   3.184   7.068   5.383  0.2440  0.2906 -0.0807
12257SOL     OW37933   4.403   1.589   3.399 -0.3327 -0.3347  0.5651
12257SOL    HW137934   4.325   1.534   3.389 -0.2844 -0.2401 -0.4611
12257SOL    HW237935   4.378   1.654   3.465 -0.6229 -1.1556  1.2929
12258SOL     OW37936   3.009   1.645   3.832 -0.5756  0.0281  0.1304
12258SOL    HW137937   3.050   1.561   3.811 -0.0279  0.5415 -0.9719
12258SOL    HW237938   3.052   1.674   3.912 -0.7139 -0.7065  0.4735
12259SOL     OW37939   3.795   3.942   4.663 -0.2151 -0.7254  0.2440
12259SOL    HW137940   3.864   4.006   4.650 -2.3088  1.8120  0.6666
12259SOL    HW237941   3.804   3.913   4.754 -0.8202  1.1216  0.9382
12260SOL     OW37942   0.741   5.453   3.433  0.2892 -0.2174  0.3467
12260SOL    HW137943   0.731   5.385   3.499  0.9219  0.3937  1.1084
12260SOL    HW237944   0.770   5.407   3.355  0.4228 -0.8575  0.7655
12261SOL     OW37945   2.545   5.470   4.343 -0.1355 -0.3120  0.0365
12261SOL    HW137946   2.453   5.494   4.331  0.1225  0.4042 -0.5774
12261SOL    HW237947   2.590   5.553   4.358  0.1492 -0.7994  2.2206
12262SOL     OW37948   5.788   1.524   1.627 -0.6195  0.6257  0.3605
12262SOL    HW137949   5.714   1.476   1.665 -0.4540  0.6364  0.6975
12262SOL    HW237950   5.793   1.493   1.536 -1.3232  0.9539  0.2009
12263SOL     OW37951   5.527   5.443   7.062  0.4301 -0.1385  0.3959
12263SOL    HW137952   5.531   5.530   7.022 -0.7623 -0.2227  0.0619
12263SOL    HW237953   5.456   5.398   7.016  1.0500 -1.3067  0.5477
12264SOL     OW37954   8.379   6.141   7.367 -0.3930  0.7879  0.2066
12264SOL    HW137955   8.342   6.110   7.450  0.9300  0.6070  0.7562
12264SOL    HW237956   8.310   6.126   7.303 -0.8377 -0.6713  0.9760
12265SOL     OW37957   1.953   7.856   5.873 -0.6399 -0.0425  0.1263
12265SOL    HW137958   1.911   7.783   5.920 -0.7737 -0.5164 -0.7202
12265SOL    HW237959   2.046   7.843   5.888 -0.6694 -0.3306  0.0576
12266SOL     OW37960   8.223   4.301   5.006 -0.4088 -0.2865 -0.2087
12266SOL    HW137961   8.273   4.288   5.087 -1.6057 -1.2460  0.4095
12266SOL    HW237962   8.268   4.373   4.962  1.0666 -0.6218  0.6629
12267SOL     OW37963   1.464   7.614   7.344 -0.2290  0.1208  0.2898
12267SOL    HW137964   1.454   7.608   7.249  2.5178 -1.5905 -0.0066
12267SOL    HW237965   1.468   7.523   7.373 -1.2641  0.6107  2.1382
12268SOL     OW37966   6.356   5.938   0.267  0.3272  0.2122  0.0437
12268SOL    HW137967   6.302   5.967   0.341 -0.8012  0.8658 -1.0098
12268SOL    HW237968   6.298   5.882   0.216  0.7720  0.6118 -0.9127
12269SOL     OW37969   3.181   6.715   4.558  0.0997 -0.0867 -0.2519
12269SOL    HW137970   3.193   6.705   4.652  1.3170  1.0806 -0.2633
12269SOL    HW237971   3.238   6.648   4.520 -2.6492 -2.7167 -0.2231
12270SOL     OW37972   6.646   4.840   1.847 -0.3936  0.0869  0.3292
12270SOL    HW137973   6.554   4.847   1.820 -0.5278  1.0203  0.9563
12270SOL    HW237974   6.695   4.882   1.776 -0.4879 -0.0627  0.1764
12271SOL     OW37975   2.997   3.260   4.123 -0.5050  0.3537 -0.1343
12271SOL    HW137976   2.951   3.331   4.168  0.3943  1.3739 -0.7782
12271SOL    HW237977   3.027   3.298   4.041  1.0789 -0.4047  0.0535
12272SOL     OW37978   5.329   7.617   7.349  0.3651  0.1325  0.2928
12272SOL    HW137979   5.364   7.703   7.323 -1.3657  0.4484 -1.1750
12272SOL    HW237980   5.272   7.592   7.276  0.1107 -1.8552  1.1253
12273SOL     OW37981   7.767   7.139   5.863  0.1903  0.2739  0.6476
12273SOL    HW137982   7.716   7.060   5.877  1.3921 -0.5803  0.3971
12273SOL    HW237983   7.707   7.200   5.819 -0.2731 -1.1291 -0.7421
12274SOL     OW37984   8.793   8.510   1.614 -0.7157 -0.6353  0.2549
12274SOL    HW137985   8.706   8.484   1.644 -0.4316  0.8224  2.5651
12274SOL    HW237986   8.778   8.585   1.557 -0.9908 -0.4101  0.6179
12275SOL     OW37987   4.721   5.360   3.219 -0.1223  0.1724  0.4045
12275SOL    HW137988   4.806   5.399   3.240 -0.1260 -0.0673  0.8677
12275SOL    HW237989   4.736   5.314   3.137 -0.2597  1.6007 -0.4610
12276SOL     OW37990   8.425   7.691   6.276  0.9389 -0.6147  0.4160
12276SOL    HW137991   8.466   7.637   6.344  0.6547 -1.5575 -0.1522
12276SOL    HW237992   8.412   7.632   6.202 -0.9212 -0.2098  0.3678
12277SOL     OW37993   1.398   0.532   3.055  0.2681  0.2802  0.1170
12277SOL    HW137994   1.434   0.615   3.087 -1.2336  0.5051  1.3319
12277SOL    HW237995   1.332   0.557   2.991 -1.7171  0.2209  2.0054
12278SOL     OW37996   1.775   5.966   0.705 -0.0814 -0.3904  0.6430
12278SOL    HW137997   1.684   5.951   0.732  0.2859 -1.5500  1.2892
12278SOL    HW237998   1.769   5.987   0.612 -0.9713 -1.0950  0.5237
12279SOL     OW37999   1.400   5.742   1.499  0.4555 -0.0814  0.1114
12279SOL    HW138000   1.480   5.747   1.448  0.4779  0.3854  0.1901
12279SOL    HW238001   1.348   5.818   1.471  0.1251 -0.2733  0.1964
12280SOL     OW38002   4.038   7.614   0.075  0.2961  0.2868 -0.4944
12280SOL    HW138003   4.094   7.594  -0.000 -0.4422  0.3569 -1.0794
12280SOL    HW238004   4.054   7.543   0.137 -0.1588 -0.5789 -1.3353
12281SOL     OW38005   5.300   0.590   3.750  0.2127  1.1932  0.1454
12281SOL    HW138006   5.345   0.529   3.692 -0.2082  0.1257  0.8949
12281SOL    HW238007   5.322   0.677   3.717  1.3195  0.6493 -0.5891
12282SOL     OW38008   5.507   1.324   6.284  0.1914 -0.0519 -0.1986
12282SOL    HW138009   5.572   1.394   6.287  1.7272 -1.3413 -1.3976
12282SOL    HW238010   5.432   1.361   6.237  0.4054  1.1937  0.4279
12283SOL     OW38011   2.924   7.615   0.239 -0.3361  0.6007  0.5515
12283SOL    HW138012   2.983   7.659   0.177  0.4220 -0.0566  0.7871
12283SOL    HW238013   2.858   7.574   0.183  1.3214 -1.4741 -0.0265
12284SOL     OW38014   2.926   0.930   0.554  0.0488 -0.0754 -0.1533
12284SOL    HW138015   2.991   0.903   0.489 -0.6282 -1.3902 -0.3180
12284SOL    HW238016   2.939   1.024   0.562 -1.5595  0.7053 -4.1862
12285SOL     OW38017   4.849   0.896   4.843 -0.3386  0.2383 -0.3027
12285SOL    HW138018   4.941   0.916   4.822 -0.0110  0.3337  1.1109
12285SOL    HW238019   4.825   0.961   4.909 -1.5324  0.3941 -0.8632
12286SOL     OW38020   6.056   1.517   0.423 -0.4415 -0.3276  0.1810
12286SOL    HW138021   6.042   1.433   0.380  0.6508 -0.2389 -0.3854
12286SOL    HW238022   6.138   1.506   0.471  0.0039  0.5714 -0.3457
12287SOL     OW38023   8.536   0.119   2.564 -0.2335 -0.4450  0.0374
12287SOL    HW138024   8.450   0.147   2.595  0.8319  2.9733  0.3544
12287SOL    HW238025   8.589   0.110   2.644  0.5018  0.7384 -0.2870
12288SOL     OW38026   1.791   4.022   8.152  0.0311  0.5806 -0.4055
12288SOL    HW138027   1.763   4.045   8.241  0.6025 -0.3907  0.0467
12288SOL    HW238028   1.881   4.051   8.147  0.3399 -0.3161 -0.2796
12289SOL     OW38029   4.102   8.314   0.655  0.5993  0.1358  0.4247
12289SOL    HW138030   4.100   8.258   0.733 -4.1884 -0.3543  0.2628
12289SOL    HW238031   4.049   8.391   0.679  2.0955  1.8093 -1.2582
12290SOL     OW38032   3.072   4.362   7.989  0.1162  0.3504  0.0663
12290SOL    HW138033   3.074   4.437   8.048 -0.3282 -0.3686  1.0236
12290SOL    HW238034   3.125   4.388   7.914  1.0376  1.1209  0.9701
12291SOL     OW38035   3.413   6.573   4.193  0.0599 -0.3060  0.5356
12291SOL    HW138036   3.361   6.653   4.202  0.8838  0.3327 -0.2811
12291SOL    HW238037   3.455   6.580   4.107  0.6909 -1.2905  0.7418
12292SOL     OW38038   3.074   0.233   7.587 -0.0218  0.1198 -0.3817
12292SOL    HW138039   3.024   0.309   7.616  2.1184  1.1092  0.9432
12292SOL    HW238040   3.147   0.226   7.649  0.6480 -2.1698 -1.2982
12293SOL     OW38041   7.294   7.452   1.254 -0.1838  0.3333 -0.7624
12293SOL    HW138042   7.379   7.473   1.291 -0.0320 -1.6086  0.0971
12293SOL    HW238043   7.260   7.382   1.310 -1.9317  0.4219 -1.6488
12294SOL     OW38044   0.267   8.638   2.858  0.1266 -0.2646  0.8835
12294SOL    HW138045   0.358   8.649   2.829 -0.2092  1.2284  0.2725
12294SOL    HW238046   0.220   8.709   2.814 -1.1830 -0.4995  1.8598
12295SOL     OW38047   6.291   0.843   2.754 -0.3700 -0.0302  0.1843
12295SOL    HW138048   6.293   0.777   2.684 -0.8934  0.5791 -0.4186
12295SOL    HW238049   6.268   0.925   2.709 -1.2293  0.2680  1.1419
12296SOL     OW38050   4.568   7.675   1.607  0.6223 -0.5162  0.1406
12296SOL    HW138051   4.608   7.749   1.653 -1.3301 -0.1064  1.2832
12296SOL    HW238052   4.563   7.606   1.673 -0.3770 -0.6036 -0.0155
12297SOL     OW38053   1.583   4.076   8.321 -0.0189 -0.0677  0.7284
12297SOL    HW138054   1.532   4.129   8.259  1.8186  0.6613 -0.2473
12297SOL    HW238055   1.544   4.096   8.406  0.6602  3.0358  0.4303
12298SOL     OW38056   4.345   0.740   7.844 -0.2525  0.3937 -0.3388
12298SOL    HW138057   4.306   0.811   7.793 -2.3184 -0.3084  0.1659
12298SOL    HW238058   4.273   0.708   7.899  1.2601 -0.5172  1.1897
12299SOL     OW38059   2.046   8.542   0.842  0.5759  0.3150 -0.4409
12299SOL    HW138060   2.134   8.512   0.862  0.8465  1.1899 -0.2830
12299SOL    HW238061   1.989   8.486   0.895  0.9369 -1.1127 -1.5091
12300SOL     OW38062   2.296   0.464   2.331 -0.3384 -0.4049  0.2087
12300SOL    HW138063   2.286   0.558   2.319  1.3348 -0.3349 -1.0964
12300SOL    HW238064   2.208   0.428   2.318 -0.6497  0.8166 -1.3792
12301SOL     OW38065   3.167   7.533   8.073  0.1400 -0.0744 -1.0022
12301SOL    HW138066   3.143   7.624   8.053  0.2615 -0.1102 -1.3110
12301SOL    HW238067   3.255   7.523   8.036  0.9749  0.2907  0.7377
12302SOL     OW38068   6.399   5.328   8.730  0.1950 -0.1634 -0.1333
12302SOL    HW138069   6.455   5.299   8.802 -0.0336  0.3241  0.2479
12302SOL    HW238070   6.381   5.420   8.750 -2.0603 -0.7168  0.6196
12303SOL     OW38071   6.442   3.015   3.792 -0.0045  0.1957 -0.1595
12303SOL    HW138072   6.403   2.933   3.765 -0.4115  0.0994  0.7006
12303SOL    HW238073   6.377   3.082   3.771 -0.8619 -0.0041  1.6310
12304SOL     OW38074   0.242   8.209   8.719  0.9050 -0.8654  0.6078
12304SOL    HW138075   0.325   8.224   8.764  2.4580 -0.1118 -2.2919
12304SOL    HW238076   0.252   8.121   8.681  1.4942  0.2038 -1.8436
12305SOL     OW38077   8.077   3.078   6.483  0.3113 -0.0322 -0.1491
12305SOL    HW138078   8.172   3.077   6.471  0.1903 -0.5770 -1.1616
12305SOL    HW238079   8.065   3.062   6.577  1.2202  0.3919  0.0516
12306SOL     OW38080   6.339   3.995   4.468 -0.1324  0.3988 -0.0447
12306SOL    HW138081   6.343   3.904   4.498 -1.2850  0.9183  1.8126
12306SOL    HW238082   6.249   4.006   4.436  0.1973  0.7195 -0.8930
12307SOL     OW38083   5.705   4.190   4.738  0.1063  0.4064 -0.1954
12307SOL    HW138084   5.665   4.161   4.820 -0.3465 -2.5667 -1.3374
12307SOL    HW238085   5.786   4.140   4.732 -0.8236 -1.0173 -2.4163
12308SOL     OW38086   1.625   2.979   6.986 -0.3405  0.3643 -0.0341
12308SOL    HW138087   1.686   2.950   6.918  1.3639  2.5039  0.4747
12308SOL    HW238088   1.624   2.908   7.050  3.9232  1.3017  1.3490
12309SOL     OW38089   8.324   2.195   7.423 -0.6687 -0.1118  0.1506
12309SOL    HW138090   8.253   2.205   7.359 -1.2086  0.5528  0.8307
12309SOL    HW238091   8.297   2.250   7.496  0.0178 -0.7408  0.8879
12310SOL     OW38092   5.665   7.175   7.509 -0.0392  0.3767 -0.5851
12310SOL    HW138093   5.727   7.102   7.519  0.2145  0.4141 -1.7593
12310SOL    HW238094   5.580   7.136   7.529  0.2471  0.1156  0.1865
12311SOL     OW38095   3.922   2.723   2.574 -0.0261  0.1506 -0.2445
12311SOL    HW138096   3.892   2.802   2.619 -0.8390  0.1090 -0.6936
12311SOL    HW238097   3.964   2.756   2.495  0.8424  0.1931  0.2264
12312SOL     OW38098   6.967   7.712   0.606  0.0263 -0.4247  0.3745
12312SOL    HW138099   7.008   7.758   0.679  0.3825 -1.4424  0.8284
12312SOL    HW238100   6.985   7.620   0.622 -0.8966 -0.7553 -0.3834
12313SOL     OW38101   3.168   4.189   6.215  0.3915  0.5748  0.2410
12313SOL    HW138102   3.246   4.243   6.223  0.2693  0.7572  0.1992
12313SOL    HW238103   3.141   4.173   6.305 -0.7001  2.2180  0.2578
12314SOL     OW38104   0.060   4.141   8.188 -0.2848  0.1989 -0.1634
12314SOL    HW138105   0.084   4.188   8.268 -1.5273  1.0245 -0.2432
12314SOL    HW238106   0.033   4.054   8.219  1.6391 -0.3636  0.0246
12315SOL     OW38107   7.196   6.508   7.837  0.0863 -0.0042  0.1105
12315SOL    HW138108   7.261   6.568   7.873  0.6844  0.0451 -1.0183
12315SOL    HW238109   7.246   6.448   7.783 -0.7272 -0.4077 -0.2024
12316SOL     OW38110   4.761   2.725   8.354  0.5983 -0.5134 -0.1936
12316SOL    HW138111   4.808   2.650   8.392  0.1561 -1.1587 -0.8951
12316SOL    HW238112   4.686   2.686   8.309 -0.3049  0.4483  0.4122
12317SOL     OW38113   2.938   4.000   8.230  0.1149  0.1257 -0.1033
12317SOL    HW138114   2.939   3.904   8.233  2.0120  0.1290  2.5003
12317SOL    HW238115   2.846   4.023   8.235 -0.4004 -1.5276 -0.9664
12318SOL     OW38116   4.303   8.706   4.449 -0.4744  0.0130  0.1483
12318SOL    HW138117   4.376   8.765   4.433 -1.0503  0.6422 -0.1631
12318SOL    HW238118   4.262   8.740   4.528 -2.4806  1.7351 -1.5289
12319SOL     OW38119   2.383   3.185   6.300 -1.0380 -0.1279  0.3566
12319SOL    HW138120   2.334   3.256   6.343 -0.4014 -1.0761  2.8293
12319SOL    HW238121   2.473   3.216   6.300 -0.8073 -0.7795  1.1496
12320SOL     OW38122   0.631   0.442   5.869  0.7889  0.0777  0.2017
12320SOL    HW138123   0.575   0.514   5.841  1.2482 -0.1298 -1.4084
12320SOL    HW238124   0.589   0.405   5.946 -1.8987 -0.7558 -1.5367
12321SOL     OW38125   1.933   0.236   7.374  0.0138  0.3704 -0.3359
12321SOL    HW138126   1.976   0.283   7.302  1.6382 -1.0341 -0.3458
12321SOL    HW238127   1.996   0.169   7.399 -0.5545  0.7335  2.3537
12322SOL     OW38128   8.145   0.436   6.713  0.2405 -0.4280  0.0889
12322SOL    HW138129   8.152   0.403   6.623  0.4758 -1.7728  0.5773
12322SOL    HW238130   8.051   0.433   6.731  0.1893 -0.1273 -0.1160
12323SOL     OW38131   1.890   4.501   4.291  0.7757  0.1239  0.6289
12323SOL    HW138132   1.909   4.517   4.198  0.6565  0.2251  0.6222
12323SOL    HW238133   1.939   4.421   4.312  0.4957 -0.1163  0.3771
12324SOL     OW38134   0.170   3.646   6.484 -0.2300 -0.1552  0.1875
12324SOL    HW138135   0.255   3.684   6.459  0.4851 -0.6336  1.7406
12324SOL    HW238136   0.133   3.614   6.402  0.6788  0.8677 -0.6625
12325SOL     OW38137   6.325   4.853   2.534 -0.1137 -0.2490 -0.1898
12325SOL    HW138138   6.260   4.788   2.560  1.2429 -2.2839 -1.6101
12325SOL    HW238139   6.406   4.803   2.523  1.6076  2.0789  0.9658
12326SOL     OW38140   2.380   2.083   0.318  0.2006  0.3140 -0.4703
12326SOL    HW138141   2.400   2.020   0.248  1.1274  0.1659 -0.0762
12326SOL    HW238142   2.464   2.102   0.359 -0.1245  1.5078 -0.3135
12327SOL     OW38143   1.927   4.424   6.271  0.1128 -0.5523 -0.1711
12327SOL    HW138144   1.942   4.428   6.366  1.5684  0.6434 -0.4123
12327SOL    HW238145   1.859   4.358   6.260 -0.6735 -0.1210  1.7714
12328SOL     OW38146   5.024   5.058   6.319 -0.2801  0.2220  0.2478
12328SOL    HW138147   4.933   5.086   6.331  0.6948  3.2831  1.7717
12328SOL    HW238148   5.052   5.102   6.239  0.1166  0.0327  0.2832
12329SOL     OW38149   1.302   6.791   5.339  0.0721  0.1194 -0.3587
12329SOL    HW138150   1.277   6.856   5.273 -0.1347 -0.4444 -0.8402
12329SOL    HW238151   1.231   6.794   5.403 -0.0807  0.1655 -0.5302
12330SOL     OW38152   5.386   0.834   0.600  0.2608 -0.1291 -0.4210
12330SOL    HW138153   5.303   0.817   0.554 -0.3805 -1.5452  1.1771
12330SOL    HW238154   5.452   0.791   0.547  0.0412  1.1066 -1.7804
12331SOL     OW38155   8.016   6.169   7.650 -0.0490  0.5700  0.5980
12331SOL    HW138156   7.928   6.150   7.681 -0.3572  1.0903  0.0775
12331SOL    HW238157   8.044   6.089   7.606 -1.0208  1.0057 -0.8968
12332SOL     OW38158   4.861   2.222   2.889  0.1322  0.0691  0.3219
12332SOL    HW138159   4.899   2.135   2.893 -0.8203 -0.3567  0.4016
12332SOL    HW238160   4.852   2.242   2.796 -2.5667 -1.2726  0.1915
12333SOL     OW38161   1.114   4.933   7.821 -0.7074  0.0069 -0.0170
12333SOL    HW138162   1.174   4.977   7.882 -0.1553 -2.1735  1.1298
12333SOL    HW238163   1.142   4.962   7.734 -0.6856  2.2120  0.6750
12334SOL     OW38164   1.008   7.710   1.120 -0.0707  0.1400  0.1182
12334SOL    HW138165   0.961   7.728   1.038  0.0593  1.2520  0.2748
12334SOL    HW238166   0.942   7.670   1.176 -0.2494 -0.3318 -0.4182
12335SOL     OW38167   3.922   7.741   1.944  0.5054  0.4678  0.4423
12335SOL    HW138168   3.906   7.750   1.850  1.0542 -1.0515  0.1768
12335SOL    HW238169   4.013   7.769   1.956  0.2571  1.2224  0.6312
12336SOL     OW38170   0.841   0.430   3.026  0.1440 -0.4641  0.6065
12336SOL    HW138171   0.834   0.517   2.987 -1.5932 -0.0911  1.6577
12336SOL    HW238172   0.933   0.406   3.015  0.6742  1.5310  0.3743
12337SOL     OW38173   2.949   5.557   1.288 -0.0403 -0.0026  0.3409
12337SOL    HW138174   2.898   5.476   1.286 -1.1418  0.6776  0.4191
12337SOL    HW238175   2.943   5.591   1.199  1.5703 -0.6801 -0.0637
12338SOL     OW38176   6.023   5.287   2.468 -0.6183  0.1132 -0.1284
12338SOL    HW138177   6.019   5.198   2.502  0.0251  0.1601  0.0782
12338SOL    HW238178   6.054   5.276   2.378 -1.4201  0.0650 -0.4116
12339SOL     OW38179   5.995   0.992   1.777  0.3173  0.2096 -0.7473
12339SOL    HW138180   6.041   1.075   1.781  1.3512 -0.3671 -0.1202
12339SOL    HW238181   5.904   1.013   1.796  0.5279  1.2163 -0.8347
12340SOL     OW38182   7.658   5.168   3.880  0.0185 -0.1612  0.2620
12340SOL    HW138183   7.636   5.100   3.943  0.1226 -0.3701  0.0726
12340SOL    HW238184   7.621   5.248   3.918  2.6852  0.3197  2.1486
12341SOL     OW38185   3.357   8.006   1.755 -0.2845 -0.4533  0.0059
12341SOL    HW138186   3.354   8.036   1.846  1.3063  4.5590 -1.2877
12341SOL    HW238187   3.446   7.973   1.743 -0.7450 -1.9231  0.3498
12342SOL     OW38188   2.185   8.502   2.923  0.6424 -0.2812 -0.0433
12342SOL    HW138189   2.108   8.556   2.940  0.6559 -0.6707  1.3495
12342SOL    HW238190   2.237   8.508   3.003  1.1971 -1.4359 -0.2918
12343SOL     OW38191   5.031   8.519   6.259 -0.5978 -0.1731  0.1764
12343SOL    HW138192   4.949   8.504   6.212 -0.9386 -0.6016  0.8955
12343SOL    HW238193   5.058   8.432   6.287  0.8848 -0.2397 -1.3145
12344SOL     OW38194   3.390   4.985   8.241 -0.2482 -0.7547  0.6810
12344SOL    HW138195   3.337   4.907   8.227  2.8768 -2.6839 -1.9582
12344SOL    HW238196   3.362   5.046   8.173 -1.8058 -0.0165  1.9307
12345SOL     OW38197   6.507   6.930   8.242  0.3147 -0.2671  0.1871
12345SOL    HW138198   6.590   6.955   8.282  0.1039 -1.0250  1.1262
12345SOL    HW238199   6.465   6.873   8.306 -0.5270 -0.6309 -0.6548
12346SOL     OW38200   7.285   7.616   6.523  0.5026  0.2150 -0.3461
12346SOL    HW138201   7.327   7.683   6.577  0.8643 -0.5953  0.4130
12346SOL    HW238202   7.337   7.613   6.443  1.8881 -0.7097  0.5411
12347SOL     OW38203   3.324   0.053   7.022 -0.2591 -0.3224  0.4576
12347SOL    HW138204   3.297   0.145   7.034 -0.2288 -0.2499 -0.0220
12347SOL    HW238205   3.295   0.010   7.102  1.5790  0.5197  1.6537
12348SOL     OW38206   7.976   8.099   6.611  0.0593 -0.8001  0.0218
12348SOL    HW138207   7.935   8.154   6.677  0.3320  0.3006 -0.6949
12348SOL    HW238208   8.066   8.087   6.642  0.5593  0.7542 -0.7157
12349SOL     OW38209   3.043   8.084   1.883  0.6000  0.0714 -0.7042
12349SOL    HW138210   2.972   8.021   1.868  0.3555  0.4048 -0.9489
12349SOL    HW238211   3.113   8.056   1.824  0.7831 -0.4333 -0.2506
12350SOL     OW38212   5.635   4.364   6.251 -0.2804  0.0987  0.1714
12350SOL    HW138213   5.720   4.353   6.208 -1.1280 -1.0532 -1.3168
12350SOL    HW238214   5.574   4.318   6.194 -1.8187  0.3736  1.5412
12351SOL     OW38215   1.391   2.373   0.411  0.2231 -0.4997  0.5998
12351SOL    HW138216   1.406   2.468   0.419  1.7783 -0.8295  2.0847
12351SOL    HW238217   1.374   2.344   0.501 -1.0188 -1.5457  0.0632
12352SOL     OW38218   6.411   0.612   8.503 -0.1444 -0.0393  0.2650
12352SOL    HW138219   6.435   0.631   8.413  2.4603 -2.3106  0.3266
12352SOL    HW238220   6.490   0.631   8.554 -0.9224 -0.5901  1.7655
12353SOL     OW38221   4.193   3.500   0.997 -0.7508  0.4860 -0.4207
12353SOL    HW138222   4.216   3.530   0.909  0.5859  0.5514 -0.0650
12353SOL    HW238223   4.099   3.515   1.003 -1.4161 -1.9879 -2.7880
12354SOL     OW38224   2.198   8.059   5.487  0.1644  0.1748  0.4698
12354SOL    HW138225   2.140   7.983   5.488  0.0666  0.2210 -0.6660
12354SOL    HW238226   2.148   8.129   5.529 -0.9574  0.4386 -1.2044
12355SOL     OW38227   2.777   2.205   2.689  0.2355  0.6780 -0.3867
12355SOL    HW138228   2.735   2.123   2.665 -0.2134  0.6246  0.5471
12355SOL    HW238229   2.861   2.203   2.642  0.6378 -0.7378  0.3243
12356SOL     OW38230   4.884   4.478   5.909 -0.4962 -0.0830  0.2560
12356SOL    HW138231   4.845   4.559   5.942 -0.6255  0.6159 -1.5126
12356SOL    HW238232   4.834   4.458   5.831 -0.2931 -1.7582  0.5270
12357SOL     OW38233   3.989   8.334   7.535  0.4002 -0.3614  0.1309
12357SOL    HW138234   3.926   8.366   7.470  1.1718 -0.5696 -0.7393
12357SOL    HW238235   3.965   8.379   7.616 -0.0142  0.6191 -0.5186
12358SOL     OW38236   6.014   3.796   5.344  0.5359  0.0435 -0.0859
12358SOL    HW138237   5.929   3.830   5.315  0.7640  0.0120 -0.7987
12358SOL    HW238238   6.036   3.729   5.280  0.7838 -0.4283  0.4850
12359SOL     OW38239   5.260   6.954   3.702 -0.0239 -0.3348 -0.3738
12359SOL    HW138240   5.330   6.934   3.639 -0.8265 -0.3734 -1.2797
12359SOL    HW238241   5.188   6.896   3.678 -0.4397 -0.1775  0.4370
12360SOL     OW38242   1.886   0.178   1.120 -0.2537  0.4508  0.6224
12360SOL    HW138243   1.807   0.169   1.173 -1.1956 -0.5814 -0.9233
12360SOL    HW238244   1.856   0.216   1.038  0.7578 -0.5234 -0.2147
12361SOL     OW38245   2.983   7.843   8.653  0.1042  0.0157  0.5352
12361SOL    HW138246   2.888   7.841   8.669 -0.1743  1.2244 -0.8191
12361SOL    HW238247   2.992   7.877   8.564  1.8714  1.7842  1.3092
12362SOL     OW38248   5.484   7.973   0.179  0.0703  0.1709  0.1660
12362SOL    HW138249   5.524   7.994   0.094 -1.1590 -1.1005 -0.7815
12362SOL    HW238250   5.552   7.925   0.226  0.0696 -1.0444 -1.0004
12363SOL     OW38251   7.970   2.237   5.036 -0.2832 -0.0156  0.1858
12363SOL    HW138252   8.020   2.190   4.970  0.4168  1.2818 -0.2456
12363SOL    HW238253   7.886   2.255   4.994 -0.0906  0.2020 -0.1159
12364SOL     OW38254   3.629   6.422   5.227 -1.0432  0.6325 -0.4868
12364SOL    HW138255   3.622   6.517   5.224  0.5598  0.8105  0.4746
12364SOL    HW238256   3.720   6.405   5.249 -1.0822 -1.1627 -1.4832
12365SOL     OW38257   5.374   8.217   5.414  0.0849 -0.2165 -0.5378
12365SOL    HW138258   5.302   8.197   5.474 -0.0143  0.1156 -0.5447
12365SOL    HW238259   5.373   8.146   5.351  0.4618 -0.8021  0.0962
12366SOL     OW38260   7.658   2.538   6.281 -0.3554 -0.0353  0.0336
12366SOL    HW138261   7.696   2.626   6.282  0.6148 -0.4061 -1.0636
12366SOL    HW238262   7.575   2.547   6.327  0.0974  1.2766  0.6521
12367SOL     OW38263   1.701   2.668   5.791  0.5542 -0.2207 -0.1467
12367SOL    HW138264   1.663   2.708   5.713 -0.3920 -1.0010 -0.1055
12367SOL    HW238265   1.669   2.578   5.790  0.9613 -0.3917  0.8578
12368SOL     OW38266   7.981   1.308   3.659  0.0899  0.0138  0.9236
12368SOL    HW138267   7.911   1.343   3.603 -0.0467  0.4054  1.3354
12368SOL    HW238268   7.952   1.221   3.683 -0.5887  0.4377  1.6642
12369SOL     OW38269   0.431   6.308   1.193 -0.0898  0.2697 -0.4137
12369SOL    HW138270   0.512   6.325   1.242 -0.1485  0.6759 -0.4511
12369SOL    HW238271   0.461   6.264   1.114  0.0625  0.1069 -0.2670
12370SOL     OW38272   0.889   2.018   3.661  0.1721 -0.4362 -0.1712
12370SOL    HW138273   0.806   2.022   3.709  0.0314 -0.2314 -0.4317
12370SOL    HW238274   0.914   1.925   3.666  0.4642 -0.3176  0.8040
12371SOL     OW38275   4.517   7.329   4.859 -0.6553 -0.4116  0.2854
12371SOL    HW138276   4.468   7.249   4.840  0.3984 -0.8640 -0.5987
12371SOL    HW238277   4.579   7.337   4.787  0.3365  0.3436  1.1927
12372SOL     OW38278   6.164   0.209   0.921 -0.2086  0.2531 -0.1569
12372SOL    HW138279   6.175   0.129   0.972  0.5111 -0.5942 -1.5874
12372SOL    HW238280   6.245   0.258   0.935  0.0218 -0.0160 -0.5364
12373SOL     OW38281   2.352   5.837   6.549  0.1679  0.2064  0.1182
12373SOL    HW138282   2.257   5.836   6.540  0.2485 -0.2494 -0.7309
12373SOL    HW238283   2.386   5.814   6.463  1.0154 -1.2103  0.7749
12374SOL     OW38284   0.992   3.612   4.061  0.2120 -0.3143 -0.1118
12374SOL    HW138285   0.916   3.561   4.036  1.2603 -0.7461 -2.6505
12374SOL    HW238286   0.959   3.702   4.071 -1.0384 -0.8905  1.3346
12375SOL     OW38287   3.740   3.217   4.546  0.3034 -0.6822  0.4528
12375SOL    HW138288   3.761   3.124   4.559  1.6520 -0.5000 -0.1927
12375SOL    HW238289   3.676   3.237   4.614 -1.4360 -2.5266 -0.5311
12376SOL     OW38290   6.791   6.165   4.747 -0.0858  0.4253  0.0665
12376SOL    HW138291   6.880   6.158   4.711 -0.0335  1.0684  0.0707
12376SOL    HW238292   6.771   6.076   4.776  0.8523  0.4222  0.7688
12377SOL     OW38293   4.482   8.468   6.982 -0.3437 -0.0599 -0.2648
12377SOL    HW138294   4.495   8.422   6.899  1.0370  1.1482 -0.7678
12377SOL    HW238295   4.438   8.405   7.038 -0.2145 -1.3236 -1.5328
12378SOL     OW38296   1.326   7.176   6.356  0.0220  0.3746 -0.3753
12378SOL    HW138297   1.409   7.203   6.394  0.8546 -1.9661 -0.3211
12378SOL    HW238298   1.321   7.221   6.272  1.5875  0.2044 -0.5812
12379SOL     OW38299   6.081   7.624   4.517 -0.0697  0.0752 -0.0111
12379SOL    HW138300   6.130   7.625   4.599 -0.3634 -1.3998  0.2109
12379SOL    HW238301   6.071   7.716   4.494  1.7159  0.4712  0.5866
12380SOL     OW38302   2.877   8.830   8.141  0.0364  0.5220 -0.3489
12380SOL    HW138303   2.944   8.893   8.170  0.5602 -0.3054  0.3041
12380SOL    HW238304   2.811   8.883   8.098  0.7640  1.4536 -0.3544
12381SOL     OW38305   1.135   5.482   7.524  0.7705  0.0859 -0.0529
12381SOL    HW138306   1.067   5.543   7.552  2.2745  1.3738  1.0162
12381SOL    HW238307   1.124   5.405   7.581 -0.8286 -0.4807 -1.0740
12382SOL     OW38308   2.337   3.536   2.550  0.1224 -0.0894  0.2227
12382SOL    HW138309   2.401   3.533   2.621 -0.5266  3.7975  1.2039
12382SOL    HW238310   2.296   3.450   2.551  3.4236 -1.8333  1.2880
12383SOL     OW38311   4.658   6.498   2.899 -0.3875 -0.2398  0.3862
12383SOL    HW138312   4.655   6.553   2.821  0.7509 -1.5110 -0.6119
12383SOL    HW238313   4.673   6.559   2.971 -0.3304  0.8607 -0.5305
12384SOL     OW38314   5.614   4.753   6.920 -0.1661 -0.1870  0.1422
12384SOL    HW138315   5.535   4.745   6.973 -0.1657 -2.1088 -0.1053
12384SOL    HW238316   5.681   4.781   6.982 -0.6391 -0.3284  0.7263
12385SOL     OW38317   4.163   5.450   7.283 -0.1348  0.5717  0.2518
12385SOL    HW138318   4.076   5.414   7.300 -0.9044  2.1159 -0.2586
12385SOL    HW238319   4.172   5.445   7.188  0.1679  0.7923  0.2710
12386SOL     OW38320   8.185   2.679   7.500  0.1371 -1.1330  0.1215
12386SOL    HW138321   8.144   2.652   7.418 -0.0155  1.6867 -0.8134
12386SOL    HW238322   8.266   2.722   7.474 -0.2240  0.3875  1.3767
12387SOL     OW38323   4.639   4.621   1.455 -0.4425 -0.0791  0.1716
12387SOL    HW138324   4.590   4.651   1.531  1.2947  0.7343  1.0206
12387SOL    HW238325   4.715   4.576   1.492 -1.4237 -3.0783 -1.0803
12388SOL     OW38326   6.805   1.796   2.419 -0.8593 -0.2781 -0.6160
12388SOL    HW138327   6.811   1.868   2.482  0.7568 -0.6316 -0.3182
12388SOL    HW238328   6.863   1.728   2.454 -0.4150 -0.7333 -2.1516
12389SOL     OW38329   2.970   7.789   2.209 -0.9325  0.0246  0.5870
12389SOL    HW138330   2.955   7.821   2.120 -1.5046  0.5150  0.8593
12389SOL    HW238331   3.036   7.720   2.198 -0.4967  0.5357 -0.1329
12390SOL     OW38332   3.735   0.666   3.332  0.0729  0.2454  0.5342
12390SOL    HW138333   3.778   0.673   3.247 -0.2177 -0.8200  0.2804
12390SOL    HW238334   3.769   0.585   3.370  0.7864  1.1007  1.7917
12391SOL     OW38335   6.134   4.581   3.873 -0.0885  0.1347  0.5379
12391SOL    HW138336   6.215   4.633   3.874 -0.6465  1.3506 -2.8613
12391SOL    HW238337   6.106   4.579   3.964  2.2435  2.1391  1.4252
12392SOL     OW38338   0.684   8.304   2.412 -0.3356  0.6489 -0.4578
12392SOL    HW138339   0.633   8.382   2.434 -1.5951 -0.6016  1.2829
12392SOL    HW238340   0.622   8.232   2.418  0.9626 -0.6088 -1.3146
12393SOL     OW38341   1.832   2.111   6.010  0.2584 -0.5151  0.2850
12393SOL    HW138342   1.754   2.058   5.991 -0.4179  0.0678  1.2825
12393SOL    HW238343   1.878   2.062   6.078  0.7350 -0.8241 -0.2549
12394SOL     OW38344   5.802   5.862   6.765  0.6784 -0.0472 -0.5755
12394SOL    HW138345   5.748   5.793   6.727 -0.1975 -0.0068  0.5276
12394SOL    HW238346   5.782   5.940   6.714  0.0725 -0.1494 -0.4984
12395SOL     OW38347   1.169   5.431   2.269 -0.6218 -0.1149  0.4524
12395SOL    HW138348   1.076   5.425   2.249 -0.5285  1.0865 -0.4678
12395SOL    HW238349   1.211   5.436   2.183  0.2175  0.2927  0.8788
12396SOL     OW38350   5.651   6.377   4.222 -0.0904  0.3805  0.5151
12396SOL    HW138351   5.587   6.374   4.293 -0.2633  0.3075  0.3573
12396SOL    HW238352   5.665   6.471   4.207 -1.3176  0.4465 -0.4726
12397SOL     OW38353   3.436   2.728   5.417  0.5134 -0.2667  0.7303
12397SOL    HW138354   3.482   2.677   5.483  1.3199  0.5846  0.8580
12397SOL    HW238355   3.366   2.772   5.465  1.3462  0.6673  1.1230
12398SOL     OW38356   5.417   2.004   8.637 -0.5072  0.0928  0.2152
12398SOL    HW138357   5.384   2.065   8.570  0.9702 -0.2134 -0.8551
12398SOL    HW238358   5.455   1.932   8.586 -1.3632 -1.2625  1.4490
12399SOL     OW38359   8.272   0.429   8.230 -0.1319 -0.3730  0.1947
12399SOL    HW138360   8.346   0.474   8.188 -2.3250  2.1063 -1.2793
12399SOL    HW238361   8.313   0.376   8.299  2.9061  2.0175  0.4680
12400SOL     OW38362   0.903   2.339   5.248 -0.4469  0.2143 -0.1500
12400SOL    HW138363   0.825   2.392   5.231 -0.7821 -0.2216 -0.0252
12400SOL    HW238364   0.941   2.376   5.327 -1.6684 -0.7932  0.9707
12401SOL     OW38365   2.910   3.870   6.596 -0.4023 -0.3581  0.5893
12401SOL    HW138366   2.824   3.852   6.557 -0.1061 -0.6638  0.0622
12401SOL    HW238367   2.945   3.784   6.618  0.4584 -0.3728 -0.7203
12402SOL     OW38368   2.095   7.638   8.309  0.5191  0.1890 -0.2035
12402SOL    HW138369   2.179   7.608   8.342  0.9825  0.1572 -1.3663
12402SOL    HW238370   2.116   7.714   8.255 -0.0191 -0.5889 -1.5656
12403SOL     OW38371   1.699   2.647   1.992  0.2565 -0.0844 -0.6337
12403SOL    HW138372   1.617   2.685   2.022  0.1476 -0.7880 -0.0040
12403SOL    HW238373   1.673   2.585   1.923  0.3350  0.2341 -0.9523
12404SOL     OW38374   6.165   2.542   0.089  0.2473 -0.0424 -0.5408
12404SOL    HW138375   6.156   2.556  -0.005  1.7827 -1.3309 -0.9175
12404SOL    HW238376   6.202   2.454   0.098 -1.1712 -0.5296  1.3454
12405SOL     OW38377   8.408   6.439   7.259  0.4479 -0.2241 -0.0573
12405SOL    HW138378   8.422   6.410   7.169  0.3896 -0.0905 -0.1102
12405SOL    HW238379   8.414   6.359   7.312 -0.4703 -0.4570 -0.2858
12406SOL     OW38380   6.256   6.381   4.550  0.0088 -0.0770  0.0511
12406SOL    HW138381   6.313   6.432   4.608  0.8432 -2.8385  1.8617
12406SOL    HW238382   6.270   6.419   4.463  3.1203  0.6785  0.7488
12407SOL     OW38383   4.559   3.799   7.453  0.3980  0.5254 -0.3779
12407SOL    HW138384   4.593   3.784   7.542  0.2813  0.5832 -0.3232
12407SOL    HW238385   4.573   3.715   7.408 -2.2926 -0.5611  0.5891
12408SOL     OW38386   2.541   4.657   7.032  0.3551  0.5164 -0.4438
12408SOL    HW138387   2.470   4.636   6.971 -0.7075  0.8139  0.6526
12408SOL    HW238388   2.530   4.749   7.052  0.1568  0.2318  0.8437
12409SOL     OW38389   0.298   7.903   0.559  0.1967  0.4627 -0.2288
12409SOL    HW138390   0.252   7.889   0.476  0.0359 -0.5830  0.0207
12409SOL    HW238391   0.244   7.966   0.606 -0.7162 -0.3480 -0.1557
12410SOL     OW38392   6.687   2.400   1.343 -0.0399  0.1326  0.5274
12410SOL    HW138393   6.642   2.467   1.394  0.8517  0.8543  0.4107
12410SOL    HW238394   6.744   2.449   1.284  0.6838 -0.7278  0.4778
12411SOL     OW38395   1.751   5.289   3.833  0.2031  0.6004 -0.2226
12411SOL    HW138396   1.684   5.352   3.806 -0.3865  1.0905  2.1437
12411SOL    HW238397   1.706   5.231   3.895  1.3835 -0.5850 -0.4133
12412SOL     OW38398   3.090   2.939   4.384  0.6012  0.4113 -0.3157
12412SOL    HW138399   3.086   2.865   4.445 -0.8060  0.7325  0.0178
12412SOL    HW238400   2.999   2.967   4.375  0.8858  0.9041 -1.9277
12413SOL     OW38401   8.517   5.691   1.795 -0.2589  0.2576 -0.2817
12413SOL    HW138402   8.510   5.597   1.806 -0.0949  0.2579 -0.1632
12413SOL    HW238403   8.436   5.717   1.750 -0.7620  0.1983  0.5677
12414SOL     OW38404   1.176   2.323   5.137 -0.0030  0.5189 -0.1370
12414SOL    HW138405   1.243   2.304   5.202 -0.8892 -1.8769  0.1679
12414SOL    HW238406   1.093   2.308   5.182 -0.9133  4.2045 -0.2469
12415SOL     OW38407   0.994   3.366   4.451 -0.0715  0.0982  0.0463
12415SOL    HW138408   1.049   3.341   4.525 -0.9248 -2.8355 -0.1595
12415SOL    HW238409   1.031   3.316   4.377 -1.0758  0.5835 -0.8108
12416SOL     OW38410   2.997   5.369   6.702 -0.5818 -0.0378 -0.3085
12416SOL    HW138411   2.902   5.363   6.690 -0.7064  0.0954  0.5776
12416SOL    HW238412   3.029   5.283   6.676 -1.1599 -0.7634  1.2339
12417SOL     OW38413   7.960   6.219   3.639 -0.6946  0.0303  0.1661
12417SOL    HW138414   7.961   6.283   3.710 -0.5647 -0.4525  0.6091
12417SOL    HW238415   8.039   6.168   3.653 -0.5828  0.0377 -0.4310
12418SOL     OW38416   4.409   1.947   5.194  0.1274 -0.5318  0.5080
12418SOL    HW138417   4.409   1.915   5.104  0.4881 -0.2356  0.3989
12418SOL    HW238418   4.435   1.872   5.247  1.6998 -0.2418  0.1806
12419SOL     OW38419   6.607   0.764   0.961 -0.0577 -0.4904  0.6801
12419SOL    HW138420   6.588   0.780   1.054 -0.0093  0.0850  0.5973
12419SOL    HW238421   6.522   0.772   0.918 -0.4299 -2.7005  0.9038
12420SOL     OW38422   7.785   3.440   2.515 -0.0681  0.0021  0.3487
12420SOL    HW138423   7.715   3.407   2.458 -1.2262  3.1734 -0.2963
12420SOL    HW238424   7.861   3.447   2.459  0.1406 -1.3158  0.4532
12421SOL     OW38425   7.548   3.550   0.086 -0.4934  0.4268 -0.6964
12421SOL    HW138426   7.605   3.565   0.010  2.8722 -1.2963  1.2614
12421SOL    HW238427   7.521   3.459   0.078  1.6512 -0.4537  1.0989
12422SOL     OW38428   4.142   7.006   4.583  0.6043  0.9585  0.6301
12422SOL    HW138429   4.069   7.015   4.522  1.3327  0.7252 -0.3017
12422SOL    HW238430   4.116   6.935   4.641  1.2857 -1.2358 -1.5560
12423SOL     OW38431   0.190   6.087   0.384 -0.0610  0.3951 -0.1825
12423SOL    HW138432   0.220   6.137   0.460 -0.2675 -0.3531  0.3971
12423SOL    HW238433   0.099   6.114   0.372 -0.7649 -1.1724  1.2746
12424SOL     OW38434   8.723   1.196   8.154  0.2945 -0.3213  0.3336
12424SOL    HW138435   8.710   1.181   8.248 -0.0263 -0.2656  0.3001
12424SOL    HW238436   8.753   1.287   8.148 -0.5714 -0.0300  0.3148
12425SOL     OW38437   7.820   5.890   3.721 -0.4060  0.2322  0.0068
12425SOL    HW138438   7.807   5.943   3.800  4.5888 -1.2017  2.1441
12425SOL    HW238439   7.783   5.805   3.743 -0.1502  0.1898  0.2704
12426SOL     OW38440   4.679   4.162   1.797 -0.3698  0.2529  0.3475
12426SOL    HW138441   4.611   4.106   1.759  0.5494 -1.4737  1.0989
12426SOL    HW238442   4.661   4.160   1.891  0.8396 -0.4689  0.5920
12427SOL     OW38443   0.753   8.821   6.180  0.1666  0.4088 -0.4802
12427SOL    HW138444   0.795   8.881   6.117 -1.6259  0.2574 -1.9001
12427SOL    HW238445   0.681   8.872   6.217 -0.8946 -0.5854 -1.1211
12428SOL     OW38446   0.399   1.745   7.934  0.8068 -0.3459  0.2091
12428SOL    HW138447   0.350   1.798   7.997  1.8146  1.7502 -0.6845
12428SOL    HW238448   0.483   1.791   7.924  0.1813  0.2983 -3.7000
12429SOL     OW38449   6.239   3.923   0.569  0.1763 -0.2929 -0.4628
12429SOL    HW138450   6.268   4.011   0.593 -0.4572 -0.0047 -0.7316
12429SOL    HW238451   6.150   3.935   0.536 -0.2239 -1.1524  0.2722
12430SOL     OW38452   3.530   8.656   2.809 -0.7210 -0.5583 -0.2870
12430SOL    HW138453   3.466   8.585   2.812  1.5151 -2.7252 -0.8855
12430SOL    HW238454   3.560   8.657   2.718  0.3482  0.1708  0.0565
12431SOL     OW38455   1.980   2.380   7.195 -0.3682  0.0556 -0.0456
12431SOL    HW138456   2.027   2.341   7.268 -1.6536  0.3906  0.9970
12431SOL    HW238457   1.950   2.305   7.143  2.3881 -0.1569 -1.5203
12432SOL     OW38458   2.841   6.402   2.521 -0.5204 -0.5510 -0.2291
12432SOL    HW138459   2.904   6.352   2.468 -0.2638  0.2307 -0.6777
12432SOL    HW238460   2.818   6.477   2.466  0.6189  0.9128  1.1725
12433SOL     OW38461   5.119   0.825   4.201 -0.1598 -0.6918  0.5584
12433SOL    HW138462   5.060   0.866   4.264 -0.8805 -0.0248 -0.5163
12433SOL    HW238463   5.110   0.879   4.122  1.5815 -0.8222  0.2386
12434SOL     OW38464   2.023   6.936   3.321 -0.8682 -0.3171 -0.0630
12434SOL    HW138465   2.057   7.022   3.345 -1.5925  0.5798 -2.0189
12434SOL    HW238466   2.083   6.903   3.254  0.4079 -2.1876  1.8685
12435SOL     OW38467   0.258   6.854   0.857 -0.4790  0.2899  0.0045
12435SOL    HW138468   0.248   6.823   0.947 -0.7613 -0.2648 -0.2154
12435SOL    HW238469   0.203   6.932   0.852  0.2840  0.8825  0.5792
12436SOL     OW38470   7.268   8.008   2.896  0.8025 -0.3958 -0.5800
12436SOL    HW138471   7.184   8.006   2.943  0.3978  1.9920 -1.0905
12436SOL    HW238472   7.333   7.991   2.964  0.0554  0.1873  0.3157
12437SOL     OW38473   3.341   1.672   6.787 -0.5438 -0.1832 -0.1663
12437SOL    HW138474   3.308   1.609   6.724 -0.2081 -0.0159 -0.5149
12437SOL    HW238475   3.421   1.632   6.822 -1.5038 -0.9428  1.2548
12438SOL     OW38476   1.223   5.936   7.925 -0.2762  0.0236  0.0911
12438SOL    HW138477   1.221   6.031   7.926 -0.4818  0.0820 -2.0814
12438SOL    HW238478   1.285   5.914   7.855  0.3516 -1.4568  1.0497
12439SOL     OW38479   7.527   6.300   8.081  0.4491 -0.2688  0.1041
12439SOL    HW138480   7.435   6.312   8.102  0.4699  0.5050 -0.2253
12439SOL    HW238481   7.537   6.205   8.069 -0.5381 -0.2631 -0.9108
12440SOL     OW38482   0.361   4.122   8.661 -0.3571  0.1652 -0.5294
12440SOL    HW138483   0.318   4.174   8.729 -2.1887 -0.4184 -1.1978
12440SOL    HW238484   0.375   4.036   8.702  0.5188  0.4382 -0.2150
12441SOL     OW38485   5.392   2.838   1.247  0.0374 -0.0735  0.5870
12441SOL    HW138486   5.297   2.840   1.257 -0.0612  1.8369 -0.2223
12441SOL    HW238487   5.408   2.770   1.182 -0.7751 -0.4197  0.7399
12442SOL     OW38488   7.057   5.382   1.040 -0.3050 -0.2598  0.1975
12442SOL    HW138489   7.076   5.347   1.127  1.5398 -0.7821 -0.3575
12442SOL    HW238490   7.130   5.441   1.022 -2.1564  2.1661  0.1536
12443SOL     OW38491   2.711   5.989   7.243 -0.5433  0.0674  0.1545
12443SOL    HW138492   2.688   5.898   7.262 -2.7138  0.6019  0.2924
12443SOL    HW238493   2.717   6.030   7.329  1.2008 -0.0585  0.1393
12444SOL     OW38494   1.474   5.492   2.272  0.8299 -0.2220  0.0228
12444SOL    HW138495   1.450   5.472   2.182 -0.0484  2.1766 -0.3518
12444SOL    HW238496   1.534   5.566   2.265 -0.3617  0.9348  1.4332
12445SOL     OW38497   5.889   6.057   6.013 -0.1520 -0.2290  0.0800
12445SOL    HW138498   5.840   6.018   5.940  0.4907 -1.5345  0.3060
12445SOL    HW238499   5.824   6.069   6.082 -0.7536  0.9598 -0.6736
12446SOL     OW38500   6.885   2.831   3.197  0.2771 -0.2432 -0.4074
12446SOL    HW138501   6.885   2.810   3.290  0.2405 -0.4950 -0.4647
12446SOL    HW238502   6.971   2.870   3.181  0.9163 -1.6574 -0.5977
12447SOL     OW38503   0.672   6.379   1.333 -1.1552 -0.3204  0.2082
12447SOL    HW138504   0.711   6.425   1.407  1.1537 -0.0047 -1.0997
12447SOL    HW238505   0.731   6.397   1.260 -1.6351 -3.1521 -1.0019
12448SOL     OW38506   7.496   0.507   6.562 -0.3576  0.4763 -0.1580
12448SOL    HW138507   7.456   0.420   6.565  0.3647  0.0200 -2.1734
12448SOL    HW238508   7.462   0.551   6.639 -1.2223 -1.3845  0.5981
12449SOL     OW38509   5.362   5.605   3.842  0.1535  0.0212 -0.0086
12449SOL    HW138510   5.362   5.645   3.929 -0.7780  0.9381 -0.4007
12449SOL    HW238511   5.270   5.582   3.827  0.3221 -0.1975 -0.7175
12450SOL     OW38512   7.211   0.641   0.478 -0.2474 -0.1713 -0.3521
12450SOL    HW138513   7.239   0.721   0.522  0.7994 -0.1467 -1.0331
12450SOL    HW238514   7.250   0.570   0.529  0.3046 -0.1724 -0.7678
12451SOL     OW38515   6.460   4.943   8.147 -0.2767  0.0904 -0.0649
12451SOL    HW138516   6.534   4.902   8.193  0.5377  0.6591 -0.8366
12451SOL    HW238517   6.446   4.888   8.070 -0.7320 -0.0740  0.1326
12452SOL     OW38518   4.444   6.316   2.898 -0.5414 -0.0544 -0.3254
12452SOL    HW138519   4.407   6.286   2.981 -0.5515 -1.7669 -0.9054
12452SOL    HW238520   4.509   6.381   2.923  1.2263 -2.2930  1.2416
12453SOL     OW38521   8.378   8.789   0.780 -0.2424  0.4889 -0.4372
12453SOL    HW138522   8.403   8.817   0.868 -0.0307  4.7185 -1.6155
12453SOL    HW238523   8.461   8.768   0.737 -0.2869 -0.8874  0.1042
12454SOL     OW38524   1.508   6.551   7.157 -0.6845 -0.0436 -0.2332
12454SOL    HW138525   1.547   6.465   7.173  0.8608  0.3665 -1.4973
12454SOL    HW238526   1.555   6.584   7.080 -0.7522  2.2240  0.6226
12455SOL     OW38527   0.892   3.452   6.687 -0.1345 -0.2693  0.6228
12455SOL    HW138528   0.987   3.448   6.693 -0.2250 -0.7042  2.3031
12455SOL    HW238529   0.861   3.397   6.759 -1.6339  1.4522  1.3912
12456SOL     OW38530   1.248   4.323   0.501 -0.4297  0.0138 -0.0539
12456SOL    HW138531   1.248   4.231   0.473 -1.8744 -0.7413  2.1309
12456SOL    HW238532   1.337   4.339   0.532 -0.2175 -0.6939 -0.2753
12457SOL     OW38533   1.881   2.544   8.691 -0.0539 -0.4967  0.0162
12457SOL    HW138534   1.919   2.558   8.604 -0.8725  0.2534 -0.2358
12457SOL    HW238535   1.787   2.536   8.675 -0.0461 -2.3397  0.6226
12458SOL     OW38536   5.242   3.768   0.929  0.0474  0.1714 -0.2082
12458SOL    HW138537   5.158   3.741   0.965 -0.1430 -0.3909 -1.0616
12458SOL    HW238538   5.306   3.740   0.995 -0.2148 -1.6637 -0.6974
12459SOL     OW38539   4.136   0.015   7.575  0.4707 -0.0368 -0.1744
12459SOL    HW138540   4.109   0.107   7.568  0.0790  0.0674  1.8452
12459SOL    HW238541   4.198   0.002   7.504 -0.9451  1.2306 -1.7091
12460SOL     OW38542   3.310   0.615   2.562  0.5193  0.3940 -0.4425
12460SOL    HW138543   3.220   0.590   2.540  0.2710  1.9584 -1.3548
12460SOL    HW238544   3.316   0.707   2.537  1.8440  0.8303  1.3457
12461SOL     OW38545   4.652   8.619   8.783  0.1667 -0.0462 -0.0005
12461SOL    HW138546   4.622   8.684   8.846  1.7475  0.3234  0.4202
12461SOL    HW238547   4.628   8.535   8.821  2.6692  0.0601  2.0961
12462SOL     OW38548   8.758   6.364   3.931 -0.0689 -0.5803  0.4075
12462SOL    HW138549   8.726   6.371   3.841 -0.6753 -0.9982  0.5875
12462SOL    HW238550   8.698   6.420   3.982  0.4292 -0.1345  0.5183
12463SOL     OW38551   2.368   7.502   3.354 -0.1024  0.0388 -0.1348
12463SOL    HW138552   2.345   7.558   3.280 -0.8265 -0.0458  0.0111
12463SOL    HW238553   2.462   7.512   3.364 -0.0628  0.3944 -0.7869
12464SOL     OW38554   6.448   8.590   0.059  0.4984 -0.7576  0.1910
12464SOL    HW138555   6.439   8.632   0.144  0.6386 -0.1719 -0.0819
12464SOL    HW238556   6.530   8.623   0.023  1.4636 -2.5045  0.6546
12465SOL     OW38557   6.307   2.978   5.226 -0.1083  0.3121  0.4890
12465SOL    HW138558   6.294   2.908   5.291  0.3716  0.5408  0.8379
12465SOL    HW238559   6.313   2.932   5.142  0.3090 -0.0843  0.7282
12466SOL     OW38560   8.497   3.318   8.392  0.3449  0.0781 -0.3050
12466SOL    HW138561   8.454   3.236   8.416 -1.0910  0.4961 -1.2728
12466SOL    HW238562   8.475   3.329   8.299  1.0658  1.2265 -0.3500
12467SOL     OW38563   6.077   0.050   0.486  0.3841 -0.8167 -0.0915
12467SOL    HW138564   6.072   0.093   0.571  0.9663 -0.6030 -0.1637
12467SOL    HW238565   6.149   0.094   0.440 -0.8223  0.0663 -1.2456
12468SOL     OW38566   3.054   4.189   7.405  0.3054 -0.1629 -0.2724
12468SOL    HW138567   2.969   4.214   7.442  0.3073  1.1973 -1.1280
12468SOL    HW238568   3.063   4.244   7.327  2.8409  1.1570  0.8483
12469SOL     OW38569   5.882   8.755   7.325 -0.2973 -0.1770 -0.4508
12469SOL    HW138570   5.876   8.850   7.337 -1.7922 -0.4032  0.9264
12469SOL    HW238571   5.873   8.719   7.413 -1.8987 -1.6615 -1.1657
12470SOL     OW38572   5.888   1.472   1.274  0.2177 -0.4747 -0.0055
12470SOL    HW138573   5.858   1.555   1.237  0.2288  0.4914  2.0040
12470SOL    HW238574   5.938   1.431   1.204  0.3168  1.2665 -1.0125
12471SOL     OW38575   4.931   5.595   8.664 -0.2284 -0.7753  0.2900
12471SOL    HW138576   4.869   5.523   8.663  1.1000 -1.9841  1.0047
12471SOL    HW238577   4.980   5.586   8.583 -1.5313  0.7149 -0.7045
12472SOL     OW38578   7.206   7.176   3.648  0.2839  0.2549 -0.2508
12472SOL    HW138579   7.158   7.258   3.661  1.6651  1.1717 -0.7434
12472SOL    HW238580   7.145   7.120   3.601 -0.8056  0.8666  0.3831
12473SOL     OW38581   6.435   7.320   7.368  0.3489  0.2281  0.5831
12473SOL    HW138582   6.485   7.399   7.391 -0.5710  0.9271  0.2160
12473SOL    HW238583   6.365   7.351   7.311  0.4622 -0.9777 -0.2592
12474SOL     OW38584   3.991   7.105   7.771  0.5202  0.8166 -0.0004
12474SOL    HW138585   3.935   7.028   7.776  0.9886  0.2633 -2.2920
12474SOL    HW238586   3.947   7.171   7.825 -1.4778 -0.0921 -0.4509
12475SOL     OW38587   5.368   0.014   8.499 -0.9290 -0.0159  0.2248
12475SOL    HW138588   5.284  -0.032   8.498 -0.8692 -0.1358  0.5713
12475SOL    HW238589   5.354   0.088   8.558 -1.5593  1.4492 -1.6719
12476SOL     OW38590   4.352   2.569   5.229  0.3064 -0.2353 -0.5251
12476SOL    HW138591   4.445   2.584   5.246  0.5214  0.0025 -1.8079
12476SOL    HW238592   4.325   2.643   5.175 -0.4754 -0.6334 -0.6996
12477SOL     OW38593   6.967   3.480   6.437 -0.4270  0.4221  0.3519
12477SOL    HW138594   7.039   3.484   6.374  0.0659 -0.9159  0.8015
12477SOL    HW238595   7.009   3.463   6.521 -1.2456 -0.0532  0.6765
12478SOL     OW38596   2.847   6.558   8.532  0.1455  0.1912 -0.5903
12478SOL    HW138597   2.877   6.644   8.502  0.5641  1.1422  2.2751
12478SOL    HW238598   2.896   6.542   8.613 -1.4010 -1.8362  0.0408
12479SOL     OW38599   8.634   7.809   8.021 -0.3555 -0.1115  0.3000
12479SOL    HW138600   8.671   7.720   8.022  2.0215  0.8190  0.6327
12479SOL    HW238601   8.632   7.836   8.112  0.1337  0.6425  0.0932
12480SOL     OW38602   4.864   6.135   2.393 -0.6697  0.6217  0.3630
12480SOL    HW138603   4.903   6.050   2.373  2.3453  1.5641  1.6512
12480SOL    HW238604   4.782   6.114   2.438  0.0787 -1.5923  0.8110
12481SOL     OW38605   2.084   6.311   4.480  0.0602 -0.1574 -0.3640
12481SOL    HW138606   2.015   6.371   4.505  0.4791 -0.2775  1.1854
12481SOL    HW238607   2.152   6.323   4.546  1.5337 -0.0640 -1.8118
12482SOL     OW38608   4.301   1.915   1.567 -0.6863 -0.1267  0.3136
12482SOL    HW138609   4.233   1.862   1.610 -2.5551  1.3703 -0.6077
12482SOL    HW238610   4.339   1.857   1.501 -0.1741 -1.3814  1.6762
12483SOL     OW38611   1.040   5.764   3.932 -0.3350  0.0202  0.3999
12483SOL    HW138612   0.954   5.737   3.964 -1.3311  1.2518 -1.0416
12483SOL    HW238613   1.028   5.772   3.837  0.4298  3.2263  0.4562
12484SOL     OW38614   5.519   1.321   8.686  0.0012  0.2767  0.1197
12484SOL    HW138615   5.564   1.289   8.765  0.2254  0.4712  0.0715
12484SOL    HW238616   5.428   1.332   8.713  0.5558  3.0857  1.2036
12485SOL     OW38617   2.503   2.739   7.119  0.2912 -0.1843 -0.2154
12485SOL    HW138618   2.553   2.818   7.141  0.4509 -0.0261 -1.0857
12485SOL    HW238619   2.412   2.769   7.114  0.4830  0.2413 -1.7494
12486SOL     OW38620   3.583   6.383   6.363  0.2445 -0.1595 -0.3132
12486SOL    HW138621   3.661   6.376   6.307 -1.1446 -1.4075 -2.2318
12486SOL    HW238622   3.576   6.297   6.405  0.9889  0.6088  1.4566
12487SOL     OW38623   2.361   2.659   0.419  0.0727 -0.8789  0.0522
12487SOL    HW138624   2.393   2.600   0.487 -0.5592 -0.8587  0.3744
12487SOL    HW238625   2.437   2.673   0.362  0.7382 -0.5503  0.9896
12488SOL     OW38626   4.166   3.541   7.539 -0.8617  0.1271  0.1066
12488SOL    HW138627   4.121   3.456   7.535 -1.3689  0.4053 -0.3231
12488SOL    HW238628   4.204   3.551   7.452  1.3864 -0.8041  0.9221
12489SOL     OW38629   3.753   7.520   3.656 -0.1425  0.0782 -0.1055
12489SOL    HW138630   3.684   7.586   3.650 -0.2098 -0.1316 -2.9378
12489SOL    HW238631   3.828   7.561   3.612  0.5110 -0.9375  0.0368
12490SOL     OW38632   3.970   5.626   8.017  0.0361 -0.0640  0.1931
12490SOL    HW138633   4.058   5.598   8.045 -0.0741  0.2639  0.8891
12490SOL    HW238634   3.929   5.658   8.097 -0.7979 -0.4028 -0.0889
12491SOL     OW38635   7.453   0.428   8.016 -0.6269 -0.3313  0.7996
12491SOL    HW138636   7.385   0.364   7.994  0.3437 -1.2019  0.2373
12491SOL    HW238637   7.535   0.387   7.987  0.0389  1.1031  0.5497
12492SOL     OW38638   7.005   3.264   3.697  0.1467  0.1829 -0.4346
12492SOL    HW138639   7.088   3.282   3.741 -1.2486  1.0053  2.0230
12492SOL    HW238640   7.031   3.233   3.610  3.0139 -0.0099  0.3833
12493SOL     OW38641   2.438   0.455   1.987 -0.4592  0.1561  0.4302
12493SOL    HW138642   2.489   0.416   2.058  1.8607 -0.7111 -1.5773
12493SOL    HW238643   2.479   0.423   1.907 -2.4566  1.7258 -1.3554
12494SOL     OW38644   5.050   6.734   6.344 -0.2659  0.3577  0.5074
12494SOL    HW138645   4.971   6.682   6.357 -0.0987  0.0017  0.1451
12494SOL    HW238646   5.073   6.767   6.431 -0.3424 -0.2246  0.7523
12495SOL     OW38647   5.338   6.368   6.421  0.0403  0.4086  0.0619
12495SOL    HW138648   5.264   6.341   6.476  0.4502 -0.1578  0.3424
12495SOL    HW238649   5.334   6.308   6.346  1.7498 -1.4056  1.3215
12496SOL     OW38650   7.227   5.901   2.614 -0.0026  0.3527 -0.3935
12496SOL    HW138651   7.315   5.876   2.583 -0.5055 -0.1048 -1.5085
12496SOL    HW238652   7.172   5.827   2.592 -0.6985  0.6907  0.1903
12497SOL     OW38653   0.530   6.181   5.050 -0.0068 -0.7542  0.3329
12497SOL    HW138654   0.549   6.113   5.114  2.2377 -2.0306 -1.5319
12497SOL    HW238655   0.591   6.252   5.071  0.9095 -1.2766 -0.4565
12498SOL     OW38656   7.327   4.474   1.151  0.1718  0.0856 -0.0484
12498SOL    HW138657   7.411   4.433   1.171 -0.5483 -0.6443  1.6542
12498SOL    HW238658   7.336   4.564   1.183 -0.1806 -0.4326  1.6444
12499SOL     OW38659   6.304   6.618   6.180  0.4796  0.5697  0.0398
12499SOL    HW138660   6.219   6.582   6.155  0.3924  0.1218  0.9511
12499SOL    HW238661   6.283   6.703   6.220  0.5510  0.9016 -0.6096
12500SOL     OW38662   3.133   6.123   0.197  0.1146 -0.2065  0.3972
12500SOL    HW138663   3.136   6.028   0.181 -0.4919 -0.0132 -0.9874
12500SOL    HW238664   3.221   6.154   0.176 -0.0706 -0.2782 -0.5395
12501SOL     OW38665   1.839   4.387   7.589  0.1279  0.5419 -0.3727
12501SOL    HW138666   1.911   4.354   7.643  0.0801  1.1898  0.0977
12501SOL    HW238667   1.765   4.331   7.611 -0.1281  1.3280  0.9051
12502SOL     OW38668   8.189   0.913   2.040  0.3886  0.5218  0.2309
12502SOL    HW138669   8.145   0.934   2.122  0.5679  0.1086  0.4349
12502SOL    HW238670   8.157   0.979   1.978 -0.3244  0.3797  0.4376
12503SOL     OW38671   2.284   2.712   7.433 -0.5996  0.2415  0.0176
12503SOL    HW138672   2.288   2.617   7.437  2.7676  0.3116  0.6470
12503SOL    HW238673   2.233   2.730   7.354  0.2087 -2.1299 -1.1334
12504SOL     OW38674   5.092   6.691   5.334 -0.2125 -0.2004 -0.1436
12504SOL    HW138675   5.056   6.734   5.411 -1.8403  2.5760 -2.2677
12504SOL    HW238676   5.057   6.602   5.338 -1.9891  0.4966  1.2333
12505SOL     OW38677   5.156   2.595   7.275  0.3497 -0.0609  0.2292
12505SOL    HW138678   5.136   2.609   7.182  2.8047 -1.4249 -0.6001
12505SOL    HW238679   5.158   2.500   7.285 -0.1519  0.0696  1.7766
12506SOL     OW38680   7.259   7.105   7.461 -0.2918  0.4872 -0.6042
12506SOL    HW138681   7.302   7.021   7.443  1.0612  1.1913 -0.7653
12506SOL    HW238682   7.165   7.087   7.449 -0.0483 -1.0610 -0.3542
12507SOL     OW38683   0.404   6.418   0.117 -0.0452 -0.2347  0.3858
12507SOL    HW138684   0.346   6.354   0.156 -1.7428  0.7936 -0.3474
12507SOL    HW238685   0.408   6.489   0.181 -1.0161  0.4558 -0.2979
12508SOL     OW38686   7.410   5.606   2.120 -0.6558  0.3314  0.1040
12508SOL    HW138687   7.359   5.668   2.173 -0.9232  0.0063  0.2308
12508SOL    HW238688   7.350   5.533   2.105  0.0557 -0.4672  1.0041
12509SOL     OW38689   8.231   1.820   0.720  0.4260  0.2254 -0.2978
12509SOL    HW138690   8.251   1.912   0.736  0.0935 -0.1069  2.6430
12509SOL    HW238691   8.138   1.819   0.697  0.0185  0.5499  1.2150
12510SOL     OW38692   5.980   7.043   2.270 -0.0188  0.3508  0.1338
12510SOL    HW138693   6.017   7.007   2.190 -1.2740 -0.2419 -0.2108
12510SOL    HW238694   5.885   7.038   2.257 -0.2422  0.7508  1.4285
12511SOL     OW38695   5.068   1.246   1.152 -0.2084 -0.2219 -0.5492
12511SOL    HW138696   5.137   1.189   1.187  0.2768  0.7216  0.0622
12511SOL    HW238697   5.111   1.295   1.082  0.1082  1.2378  0.6202
12512SOL     OW38698   3.082   7.471   4.501 -0.4048  0.3640 -0.1649
12512SOL    HW138699   3.064   7.443   4.411 -0.3948  0.2723 -0.1380
12512SOL    HW238700   3.017   7.425   4.554  0.7995 -1.0851  0.1069
12513SOL     OW38701   3.979   4.891   5.883 -0.3758 -0.2076 -0.6919
12513SOL    HW138702   3.917   4.898   5.811 -0.7663  1.9325 -0.2320
12513SOL    HW238703   3.926   4.868   5.959 -0.6886  1.7045 -0.2820
12514SOL     OW38704   5.886   3.879   2.202 -0.1691 -0.2947  0.0789
12514SOL    HW138705   5.863   3.970   2.183  1.0588 -0.0183 -0.1220
12514SOL    HW238706   5.811   3.846   2.251 -1.1586  0.4670 -0.8577
12515SOL     OW38707   7.473   5.453   3.922 -0.1458 -0.0582 -0.4009
12515SOL    HW138708   7.524   5.447   4.002  1.2745 -1.1453 -1.3293
12515SOL    HW238709   7.421   5.533   3.932  0.0890 -0.1066  1.5148
12516SOL     OW38710   8.361   2.778   0.258  0.4923  0.2000 -0.0431
12516SOL    HW138711   8.404   2.864   0.259 -1.0568  1.0320 -0.9248
12516SOL    HW238712   8.287   2.788   0.318 -1.0590  0.2695 -1.8847
12517SOL     OW38713   3.981   6.417   4.898 -0.2071 -0.3390 -0.4064
12517SOL    HW138714   4.040   6.346   4.925 -1.3732 -0.7354  1.2217
12517SOL    HW238715   3.940   6.385   4.817 -2.0184 -2.3663  1.1966
12518SOL     OW38716   8.802   2.009   5.575 -0.4537  0.1335 -0.2126
12518SOL    HW138717   8.856   1.930   5.563 -0.7941  0.0007 -0.8929
12518SOL    HW238718   8.824   2.064   5.500  0.1685  0.9297  0.5245
12519SOL     OW38719   8.143   4.540   6.522  0.2630 -1.0919  0.2038
12519SOL    HW138720   8.127   4.450   6.496  0.7845 -1.1239 -0.0035
12519SOL    HW238721   8.128   4.591   6.442 -0.6073 -0.9299  0.4594
12520SOL     OW38722   3.819   1.484   3.530  0.1340  0.2286 -0.5971
12520SOL    HW138723   3.831   1.405   3.583  1.4357 -0.9036 -2.4610
12520SOL    HW238724   3.745   1.529   3.572 -0.0101 -1.4431  1.1230
12521SOL     OW38725   7.813   3.529   1.956  0.6800 -0.1205  0.0276
12521SOL    HW138726   7.782   3.576   1.879 -0.9859  0.4502  1.0058
12521SOL    HW238727   7.888   3.581   1.986  1.9997 -0.8977 -1.7222
12522SOL     OW38728   7.681   4.804   4.376 -0.0439  0.4019  0.2099
12522SOL    HW138729   7.628   4.824   4.453  1.7444  0.1977  1.5796
12522SOL    HW238730   7.765   4.848   4.393  1.2227 -1.6143 -0.4607
12523SOL     OW38731   0.184   3.784   1.251  0.3973 -0.0093  0.6049
12523SOL    HW138732   0.266   3.759   1.293  0.0378 -1.0535  0.7141
12523SOL    HW238733   0.116   3.756   1.312 -0.0782 -0.2600 -0.0317
12524SOL     OW38734   2.729   3.007   6.165 -0.1696  0.2687  0.6782
12524SOL    HW138735   2.781   3.010   6.084 -0.7323 -1.4308  0.2158
12524SOL    HW238736   2.777   2.947   6.221 -1.5518 -1.2683  0.2720
12525SOL     OW38737   6.282   6.664   1.525  0.1874 -0.4672  0.4866
12525SOL    HW138738   6.237   6.587   1.492 -1.8956  0.1800  1.6470
12525SOL    HW238739   6.244   6.737   1.477  0.8596  0.0026  0.6478
12526SOL     OW38740   4.002   7.095   6.612 -0.1822  0.2637 -0.1239
12526SOL    HW138741   3.954   7.156   6.558  0.1653  2.4587  1.8567
12526SOL    HW238742   4.073   7.063   6.556 -0.9228  0.9558 -1.4936
12527SOL     OW38743   0.578   7.525   3.086 -0.3180 -0.6214  0.1864
12527SOL    HW138744   0.660   7.476   3.092  0.5496  0.8341  0.9528
12527SOL    HW238745   0.542   7.521   3.175  1.4782  2.7957  1.2708
12528SOL     OW38746   2.103   1.405   6.142 -0.0237 -0.1033 -0.4292
12528SOL    HW138747   2.018   1.365   6.158 -0.0202 -0.2502 -0.7682
12528SOL    HW238748   2.133   1.365   6.060 -0.0071  0.5811 -0.7595
12529SOL     OW38749   0.565   2.033   5.452  0.4031  0.4787 -0.4201
12529SOL    HW138750   0.634   2.097   5.468 -1.1170  2.4679 -1.3951
12529SOL    HW238751   0.568   2.016   5.358 -0.5760  0.7972 -0.5237
12530SOL     OW38752   4.543   8.687   7.830 -0.3717  0.9477 -0.3139
12530SOL    HW138753   4.472   8.659   7.774  0.7083 -1.0511 -0.7647
12530SOL    HW238754   4.599   8.741   7.774  0.2973 -0.4094 -0.9938
12531SOL     OW38755   3.664   1.596   7.496 -0.0349  0.1637  0.8421
12531SOL    HW138756   3.579   1.616   7.535 -0.6815  0.5636 -0.7160
12531SOL    HW238757   3.682   1.506   7.522 -2.8766 -1.4111 -2.0585
12532SOL     OW38758   4.744   2.320   7.158  0.2934  0.3402 -0.5682
12532SOL    HW138759   4.684   2.274   7.100  1.4210 -0.2505 -1.2998
12532SOL    HW238760   4.829   2.278   7.143  0.6653  0.3010  1.3603
12533SOL     OW38761   7.932   2.942   4.131 -0.2962  0.3002  0.0891
12533SOL    HW138762   7.941   2.973   4.221  1.6450  1.3750 -0.4119
12533SOL    HW238763   8.003   2.878   4.121  0.2390  1.0531 -1.0016
12534SOL     OW38764   1.550   7.412   4.440 -0.0342  0.1102 -0.4550
12534SOL    HW138765   1.504   7.486   4.478 -3.3019 -2.0540  0.1762
12534SOL    HW238766   1.520   7.409   4.349  3.0749  1.6554 -1.7087
12535SOL     OW38767   5.602   4.635   8.672  0.2583  0.0051  0.1985
12535SOL    HW138768   5.551   4.568   8.626 -0.5576  1.2188 -0.7356
12535SOL    HW238769   5.599   4.607   8.764 -0.9967 -0.6689 -0.0112
12536SOL     OW38770   2.962   8.694   4.606 -0.4918 -0.3597 -0.4542
12536SOL    HW138771   3.026   8.631   4.573  0.6647  0.4108  0.2924
12536SOL    HW238772   2.969   8.689   4.701  0.0438  1.3189 -0.3864
12537SOL     OW38773   4.304   8.148   3.796  0.5158  0.7423  0.6491
12537SOL    HW138774   4.212   8.136   3.820  0.3566  2.2353  0.8448
12537SOL    HW238775   4.300   8.184   3.707  0.9508  0.1724  0.3905
12538SOL     OW38776   5.926   1.683   6.403  0.4346  0.4851  0.1198
12538SOL    HW138777   5.995   1.638   6.354  1.5081  1.1239  0.9870
12538SOL    HW238778   5.970   1.760   6.441 -0.8322  1.0871  0.4377
12539SOL     OW38779   7.568   5.319   6.782 -0.4579 -0.2075 -0.0525
12539SOL    HW138780   7.480   5.282   6.783 -1.0459  1.1254 -0.0701
12539SOL    HW238781   7.602   5.302   6.870 -1.2924  0.4876  0.4240
12540SOL     OW38782   8.650   2.151   8.640  0.1749 -0.1065 -0.0256
12540SOL    HW138783   8.705   2.229   8.631 -1.8315  1.4107  0.0369
12540SOL    HW238784   8.639   2.139   8.734  0.9892 -0.9033 -0.0105
12541SOL     OW38785   5.440   4.020   6.397 -0.1874 -0.3002 -0.4899
12541SOL    HW138786   5.391   4.102   6.392  0.1211 -0.1422 -1.0234
12541SOL    HW238787   5.383   3.956   6.355 -0.0710 -0.1806 -0.8336
12542SOL     OW38788   3.193   7.202   8.242  0.4017 -0.2368 -0.0981
12542SOL    HW138789   3.186   7.215   8.337  0.4935 -1.8647  0.1715
12542SOL    HW238790   3.277   7.243   8.219  0.3625  0.2083  0.5171
12543SOL     OW38791   7.342   3.866   5.166  0.2880  0.1373 -0.5180
12543SOL    HW138792   7.327   3.772   5.159  0.0563  0.0556  0.7617
12543SOL    HW238793   7.315   3.887   5.255 -0.0887  1.5057 -0.9423
12544SOL     OW38794   1.093   3.311   8.733  0.0048 -0.2746 -0.0014
12544SOL    HW138795   1.140   3.311   8.650  0.3633  0.5042  0.1945
12544SOL    HW238796   1.069   3.402   8.748 -0.8945 -0.5516  0.2843
12545SOL     OW38797   7.904   7.588   3.587 -0.1200 -0.5299  0.1120
12545SOL    HW138798   7.843   7.610   3.517 -0.4529 -0.5587  0.3933
12545SOL    HW238799   7.890   7.495   3.603  0.2998 -0.6339 -0.1162
12546SOL     OW38800   7.899   4.306   1.933 -0.5633 -0.4038 -0.2592
12546SOL    HW138801   7.969   4.316   1.997 -0.0098 -0.0961 -0.9010
12546SOL    HW238802   7.841   4.380   1.949 -0.6246 -0.5352  0.1274
12547SOL     OW38803   3.903   7.252   6.087  0.4705  0.3384  0.3026
12547SOL    HW138804   3.897   7.182   6.151  1.6280  0.0597  0.1284
12547SOL    HW238805   3.956   7.319   6.130 -1.7195  1.7694  1.0050
12548SOL     OW38806   7.475   8.437   1.198  1.0601  0.1455 -0.4117
12548SOL    HW138807   7.536   8.472   1.263  2.5911  0.6317 -2.0281
12548SOL    HW238808   7.414   8.383   1.248 -0.1374  3.3978  1.9355
12549SOL     OW38809   0.155   1.999   3.687  0.4214  0.0193 -0.0296
12549SOL    HW138810   0.156   2.017   3.593 -0.5651  0.6795  0.0745
12549SOL    HW238811   0.099   2.067   3.724  0.5286 -0.4318  1.0022
12550SOL     OW38812   6.569   3.631   2.281 -0.1336 -0.3637  0.6865
12550SOL    HW138813   6.554   3.608   2.373  0.2387 -1.8943  0.3840
12550SOL    HW238814   6.502   3.696   2.262 -0.1996  0.0107  2.0438
12551SOL     OW38815   1.840   5.102   4.621 -0.5477 -0.0990  0.2272
12551SOL    HW138816   1.894   5.063   4.553  0.7492 -0.3330  1.3504
12551SOL    HW238817   1.752   5.103   4.584 -0.0387 -1.0848 -1.0794
12552SOL     OW38818   5.412   7.635   0.701 -0.2913  0.0320 -0.0265
12552SOL    HW138819   5.483   7.605   0.758 -0.1000 -0.2891 -0.4366
12552SOL    HW238820   5.398   7.563   0.640 -0.3128  0.4879 -0.5631
12553SOL     OW38821   8.044   2.501   2.105 -0.0964  0.4591  0.3549
12553SOL    HW138822   8.123   2.448   2.093  0.7716  1.2134  2.4077
12553SOL    HW238823   7.998   2.494   2.021  1.6653 -0.7655 -0.5705
12554SOL     OW38824   1.014   1.994   2.365 -0.3296 -0.7884 -0.2297
12554SOL    HW138825   1.015   1.906   2.326 -0.0316 -1.0663  0.4031
12554SOL    HW238826   0.921   2.019   2.363 -0.5345 -1.4544  0.3241
12555SOL     OW38827   8.206   4.345   5.555  0.0904  0.1923 -0.2212
12555SOL    HW138828   8.153   4.334   5.476 -1.6045 -1.7947  1.1132
12555SOL    HW238829   8.278   4.401   5.527 -0.7934  0.0868 -3.0063
12556SOL     OW38830   5.987   5.417   4.877  0.1467  0.9746 -0.5995
12556SOL    HW138831   6.053   5.484   4.860 -0.2025  0.9326 -2.2731
12556SOL    HW238832   5.936   5.412   4.796 -0.8111 -0.2295  0.0395
12557SOL     OW38833   0.741   5.726   0.983  0.1807  0.4947 -0.3901
12557SOL    HW138834   0.673   5.706   1.047 -0.5100  1.8321 -0.6605
12557SOL    HW238835   0.783   5.642   0.966 -1.1465 -0.3047  0.0808
12558SOL     OW38836   6.979   3.761   0.497 -0.4979 -0.0304 -0.1253
12558SOL    HW138837   6.892   3.797   0.480  0.2468  1.8310 -0.3503
12558SOL    HW238838   7.039   3.826   0.459  1.0143 -0.6808  1.0228
12559SOL     OW38839   7.614   8.666   5.164 -0.1186 -0.1861  0.1169
12559SOL    HW138840   7.535   8.626   5.202 -0.0930  0.4955  0.9131
12559SOL    HW238841   7.582   8.742   5.116  0.1418  0.7818  1.4224
12560SOL     OW38842   3.500   3.337   6.429 -0.4931 -0.3489  0.5770
12560SOL    HW138843   3.518   3.260   6.376 -1.0473 -0.5508  0.6699
12560SOL    HW238844   3.412   3.321   6.465 -0.6627  0.3770  0.5017
12561SOL     OW38845   3.850   7.201   4.596  0.3257 -0.1230  0.0285
12561SOL    HW138846   3.770   7.250   4.577 -0.2909 -0.6430  1.1858
12561SOL    HW238847   3.822   7.131   4.655  2.0401  1.2084  2.5876
12562SOL     OW38848   0.986   6.492   4.232  0.2312 -0.3360  0.4116
12562SOL    HW138849   0.985   6.396   4.228 -0.2273 -0.3067 -1.5348
12562SOL    HW238850   1.047   6.518   4.164  1.0655  0.7709  1.5542
12563SOL     OW38851   2.884   2.848   4.738 -0.0665 -0.1389  0.2169
12563SOL    HW138852   2.858   2.760   4.712  0.1020 -0.7028  1.8775
12563SOL    HW238853   2.979   2.850   4.727 -0.1492  0.0842 -0.5040
12564SOL     OW38854   1.486   6.647   0.268 -0.1096 -0.0858 -0.0993
12564SOL    HW138855   1.511   6.559   0.297  0.5579  0.7178  1.9178
12564SOL    HW238856   1.570   6.693   0.259 -0.5160  0.6401 -0.1812
12565SOL     OW38857   6.672   3.320   1.757 -0.6818 -0.9321  0.6977
12565SOL    HW138858   6.591   3.352   1.717 -0.4849 -0.9071  0.3138
12565SOL    HW238859   6.731   3.305   1.683 -0.0966 -0.2720  1.0168
12566SOL     OW38860   8.823   7.761   3.473 -0.0529  0.0074 -0.0997
12566SOL    HW138861   8.886   7.774   3.402  1.0638 -0.2172  0.8303
12566SOL    HW238862   8.868   7.703   3.535 -1.9600 -1.9265 -0.4074
12567SOL     OW38863   3.617   8.666   1.072 -0.2582 -0.0170  0.5536
12567SOL    HW138864   3.545   8.630   1.124 -0.6703  1.7237  1.2573
12567SOL    HW238865   3.579   8.743   1.030  0.7285 -0.0864 -0.4833
12568SOL     OW38866   8.730   5.805   5.816  0.3222 -0.6920  0.4513
12568SOL    HW138867   8.703   5.717   5.842 -1.1367 -0.0524  1.2571
12568SOL    HW238868   8.724   5.857   5.897  0.3713  0.3161 -0.1665
12569SOL     OW38869   6.280   5.842   8.780  0.3945 -0.1204  0.1670
12569SOL    HW138870   6.200   5.799   8.811  0.0506  2.2111  2.8946
12569SOL    HW238871   6.249   5.916   8.727  0.5656  1.5362  2.2470
12570SOL     OW38872   1.078   5.845   0.794  0.1876 -0.5921 -0.2686
12570SOL    HW138873   1.051   5.891   0.873 -1.4291 -1.2458 -0.3808
12570SOL    HW238874   0.995   5.820   0.752  1.0052 -1.6966 -1.3012
12571SOL     OW38875   4.102   5.953   2.208 -0.4478  0.4379  0.3776
12571SOL    HW138876   4.182   5.950   2.261 -0.0334  3.0273  0.0737
12571SOL    HW238877   4.113   5.883   2.144  1.9401  1.1284 -0.0942
12572SOL     OW38878   6.461   5.550   5.526 -0.3128  0.0249 -0.2857
12572SOL    HW138879   6.487   5.639   5.549 -2.4322  1.0261 -1.4191
12572SOL    HW238880   6.488   5.539   5.435 -0.5253 -0.2822 -0.3149
12573SOL     OW38881   8.533   4.404   2.144  0.3137  1.1313  0.3961
12573SOL    HW138882   8.488   4.343   2.203  1.1617  0.7159  0.6310
12573SOL    HW238883   8.564   4.350   2.072  2.6355  0.8985  1.4759
12574SOL     OW38884   4.263   7.557   2.893 -0.5600 -0.1394 -0.2659
12574SOL    HW138885   4.200   7.558   2.822  0.8768 -1.0140 -1.6200
12574SOL    HW238886   4.257   7.469   2.931 -1.5466  0.4205  0.9568
12575SOL     OW38887   8.414   6.946   3.681 -0.0185 -0.0226  0.5476
12575SOL    HW138888   8.377   6.913   3.599  0.1894  0.6250  0.1812
12575SOL    HW238889   8.509   6.941   3.668  0.0199  1.0140  0.3491
12576SOL     OW38890   3.080   1.760   0.570 -0.2537  0.1228  0.6928
12576SOL    HW138891   3.029   1.684   0.541  1.1338 -0.6995  0.3262
12576SOL    HW238892   3.115   1.797   0.489 -2.0029  2.0325  0.7058
12577SOL     OW38893   0.305   1.327   0.756 -0.2405 -0.1001  0.5206
12577SOL    HW138894   0.326   1.237   0.782  0.3999  0.5636  2.5483
12577SOL    HW238895   0.215   1.323   0.724 -0.7027 -1.2745  1.8327
12578SOL     OW38896   1.985   6.799   1.415 -0.3946 -0.7489  0.2562
12578SOL    HW138897   1.966   6.893   1.409  0.4830 -0.5126  1.0798
12578SOL    HW238898   1.959   6.765   1.329  0.2888  0.4277 -0.4524
12579SOL     OW38899   8.294   4.098   5.909  0.3880  0.5478  0.2014
12579SOL    HW138900   8.366   4.102   5.847  1.7766 -2.3027  1.4648
12579SOL    HW238901   8.294   4.184   5.951  3.9635  0.2827  1.0556
12580SOL     OW38902   8.831   8.740   7.384 -0.0096 -0.5211 -0.6927
12580SOL    HW138903   8.896   8.773   7.445  0.3478  1.2548 -1.9450
12580SOL    HW238904   8.763   8.700   7.439  0.7700  0.1047  0.7685
12581SOL     OW38905   0.528   8.673   6.894 -0.2709  0.2123 -0.0222
12581SOL    HW138906   0.490   8.585   6.892 -2.4131  1.0614  0.1713
12581SOL    HW238907   0.619   8.659   6.918 -0.2835 -2.0247 -0.9418
12582SOL     OW38908   6.411   1.843   2.195  0.0880 -0.6274  0.2625
12582SOL    HW138909   6.499   1.858   2.229  0.2216 -1.6905  0.4367
12582SOL    HW238910   6.368   1.790   2.263 -0.5206 -0.5250 -0.0356
12583SOL     OW38911   3.630   6.694   5.269 -0.3709  0.0636  0.6350
12583SOL    HW138912   3.631   6.685   5.364  0.6870  0.9008  0.7282
12583SOL    HW238913   3.720   6.717   5.246 -0.0245 -2.3556 -0.8189
12584SOL     OW38914   4.759   6.495   7.296  0.2100 -0.0007 -0.3565
12584SOL    HW138915   4.729   6.529   7.380 -2.7163  2.7578 -2.2763
12584SOL    HW238916   4.757   6.400   7.306  0.2237  0.2184  2.6933
12585SOL     OW38917   1.718   1.195   7.224 -0.1561 -0.0798 -0.2124
12585SOL    HW138918   1.748   1.119   7.175 -0.7369 -0.0301 -0.6553
12585SOL    HW238919   1.715   1.165   7.315 -0.2266 -0.5440 -0.3632
12586SOL     OW38920   1.774   7.312   3.078 -0.4682 -0.4856  0.1323
12586SOL    HW138921   1.834   7.386   3.066 -0.6382 -0.5816 -1.5486
12586SOL    HW238922   1.743   7.320   3.168 -0.2688  1.3314  0.0682
12587SOL     OW38923   6.998   3.569   5.381 -0.3449 -0.5361  0.3177
12587SOL    HW138924   6.960   3.492   5.423  0.1395 -1.5720 -1.0347
12587SOL    HW238925   7.027   3.625   5.453 -3.6924  0.0048  1.4280
12588SOL     OW38926   0.754   0.509   2.341  0.4809 -0.0494 -0.1184
12588SOL    HW138927   0.772   0.575   2.274  1.0566  0.2519  0.3142
12588SOL    HW238928   0.798   0.430   2.310  2.2755  0.5696  0.7285
12589SOL     OW38929   6.477   1.081   1.076  0.2408 -0.4323 -0.1371
12589SOL    HW138930   6.560   1.071   1.123  0.6411 -0.1180 -0.7703
12589SOL    HW238931   6.482   1.018   1.004  0.5108  0.5260 -0.9733
12590SOL     OW38932   1.910   7.940   0.788 -0.1944  0.4757  0.6762
12590SOL    HW138933   1.857   7.997   0.845 -0.5772  1.3582 -0.5148
12590SOL    HW238934   1.906   7.982   0.702  1.6312 -0.0007  0.3242
12591SOL     OW38935   4.462   7.668   1.346 -0.0545  0.2726  0.1686
12591SOL    HW138936   4.490   7.670   1.437 -1.0903  0.2067  0.4973
12591SOL    HW238937   4.372   7.637   1.349  0.4876 -1.5699 -1.0274
12592SOL     OW38938   7.936   2.368   3.028 -0.3793 -0.1701 -0.3066
12592SOL    HW138939   8.017   2.397   2.986 -0.6371 -0.5619 -1.1009
12592SOL    HW238940   7.902   2.446   3.071 -0.1777  0.2923 -0.9607
12593SOL     OW38941   6.061   3.190   2.276  0.0090  0.1425 -0.2819
12593SOL    HW138942   6.120   3.212   2.348  1.0528 -0.7794 -0.8383
12593SOL    HW238943   6.102   3.228   2.199  0.1346 -0.9262 -0.7507
12594SOL     OW38944   6.174   5.206   8.664 -0.4691 -0.3336  0.3543
12594SOL    HW138945   6.260   5.247   8.671 -1.3723  1.5533  1.1365
12594SOL    HW238946   6.191   5.121   8.623  2.2167 -1.6234  3.6658
12595SOL     OW38947   3.799   0.675   8.849 -0.0852  0.2916  0.4407
12595SOL    HW138948   3.791   0.616   8.774  1.7227  0.3003  0.2056
12595SOL    HW238949   3.796   0.763   8.811  0.6541  0.2975  0.3793
12596SOL     OW38950   0.364   7.929   6.278 -0.2037  0.8047 -0.3322
12596SOL    HW138951   0.352   8.024   6.270 -0.3910  0.8594  0.4925
12596SOL    HW238952   0.278   7.892   6.259  0.6473  0.4960 -4.4965
12597SOL     OW38953   3.725   8.739   7.349 -0.2352  0.0105  0.2519
12597SOL    HW138954   3.749   8.742   7.442  0.9458  0.9969 -0.0671
12597SOL    HW238955   3.629   8.746   7.349 -0.3737 -1.3098  1.4344
12598SOL     OW38956   7.832   5.736   2.501  0.9267 -0.1476 -0.0583
12598SOL    HW138957   7.774   5.735   2.425 -0.6926 -1.5412  1.1247
12598SOL    HW238958   7.852   5.643   2.517  1.7309  0.1669  0.8763
12599SOL     OW38959   4.182   3.550   0.622 -0.3097 -0.1544  0.1079
12599SOL    HW138960   4.155   3.626   0.570 -2.1756 -1.9335 -1.7698
12599SOL    HW238961   4.227   3.493   0.560  0.0980 -1.0591  1.1957
12600SOL     OW38962   4.421   6.524   4.314 -0.3467  0.1518  0.3862
12600SOL    HW138963   4.486   6.454   4.314 -1.3369 -0.7919  0.2107
12600SOL    HW238964   4.369   6.508   4.236 -1.1384  0.5589  0.8201
12601SOL     OW38965   6.462   1.946   3.167  0.2024  0.1464  0.1334
12601SOL    HW138966   6.383   1.900   3.195  0.9435 -0.2499  1.6482
12601SOL    HW238967   6.431   2.034   3.143 -0.4799  0.6494  2.5620
12602SOL     OW38968   7.502   4.897   4.563 -0.3891  0.1523  0.3409
12602SOL    HW138969   7.546   4.970   4.606 -0.6592  1.1957 -1.0836
12602SOL    HW238970   7.417   4.933   4.536 -0.6407 -0.7628 -0.1253
12603SOL     OW38971   3.143   1.247   7.041  0.0613  0.3099 -0.2435
12603SOL    HW138972   3.227   1.250   7.087  0.3487 -0.2741 -0.7101
12603SOL    HW238973   3.097   1.326   7.069  0.5706  0.3891  0.3884
12604SOL     OW38974   2.492   8.269   4.176 -0.4458  0.0009 -0.6728
12604SOL    HW138975   2.427   8.217   4.223 -0.8573  0.5765 -0.6036
12604SOL    HW238976   2.447   8.298   4.097 -0.0211 -0.2560 -1.0154
12605SOL     OW38977   0.417   0.214   4.905  0.1678  0.3890 -0.2679
12605SOL    HW138978   0.459   0.258   4.831  3.2593 -0.7494  0.6434
12605SOL    HW238979   0.476   0.141   4.925 -1.7395 -0.6535  1.9220
12606SOL     OW38980   7.109   1.002   8.232 -0.5442  0.0446  0.1621
12606SOL    HW138981   7.196   1.025   8.199  0.4975 -3.1538  0.3787
12606SOL    HW238982   7.057   0.987   8.153 -0.9874  1.9530  0.0330
12607SOL     OW38983   1.107   0.301   3.067 -0.1693  0.2524 -0.2758
12607SOL    HW138984   1.119   0.359   3.143  0.7321  0.9462 -0.9361
12607SOL    HW238985   1.196   0.274   3.043 -0.2748  1.3531 -2.0885
12608SOL     OW38986   7.761   8.179   1.225 -0.2611  0.0628  0.2684
12608SOL    HW138987   7.667   8.195   1.235 -0.1866  0.1265  0.9191
12608SOL    HW238988   7.768   8.088   1.197 -0.4328 -0.7333  2.5598
12609SOL     OW38989   3.502   2.730   4.188  0.1480 -0.2618  0.4234
12609SOL    HW138990   3.511   2.649   4.238  0.1401  0.9391  2.4876
12609SOL    HW238991   3.420   2.768   4.217  0.5728  0.9117  0.1571
12610SOL     OW38992   8.078   5.624   1.414  0.0821 -0.0110  0.4511
12610SOL    HW138993   7.986   5.651   1.416  0.4727  1.4575  0.1354
12610SOL    HW238994   8.126   5.707   1.407  1.4587 -0.7011  1.4365
12611SOL     OW38995   8.469   4.114   6.425 -0.0771 -0.8647 -0.1008
12611SOL    HW138996   8.466   4.181   6.357  0.8359 -0.4008  0.2911
12611SOL    HW238997   8.562   4.106   6.446 -0.2671 -1.6027  0.5016
12612SOL     OW38998   5.785   1.051   6.746  0.2756  0.2057  0.0644
12612SOL    HW138999   5.724   1.078   6.814  2.2236  1.1779  1.5225
12612SOL    HW239000   5.772   1.113   6.674 -1.5310 -0.6054 -0.3714
12613SOL     OW39001   0.583   8.710   1.969 -0.5466  0.1385  0.7501
12613SOL    HW139002   0.676   8.714   1.992 -0.6704 -0.1366  1.3197
12613SOL    HW239003   0.582   8.677   1.879 -0.0521  1.2034  0.3350
12614SOL     OW39004   6.188   1.803   8.279 -0.1552 -0.6930 -0.1187
12614SOL    HW139005   6.227   1.721   8.308 -0.9622 -0.5653  1.4268
12614SOL    HW239006   6.138   1.834   8.354  1.3840  2.0157 -0.1037
12615SOL     OW39007   6.027   1.376   6.888 -0.3229  0.3798 -0.4189
12615SOL    HW139008   6.121   1.378   6.907 -0.0652 -0.5915 -1.4735
12615SOL    HW239009   5.990   1.317   6.953  0.4334 -2.3508 -2.3292
12616SOL     OW39010   4.059   0.529   2.672  0.1404  0.4560  0.3482
12616SOL    HW139011   4.128   0.468   2.648  0.2974 -0.4292  2.7758
12616SOL    HW239012   4.096   0.615   2.652  2.4045  0.0791  2.4215
12617SOL     OW39013   5.625   3.384   7.063  0.0751 -0.1163 -1.1507
12617SOL    HW139014   5.575   3.416   6.988 -0.5173  0.3379 -0.5745
12617SOL    HW239015   5.609   3.290   7.064 -0.3990 -0.0376 -1.2407
12618SOL     OW39016   4.375   2.548   0.129 -0.2158 -0.4462  0.0388
12618SOL    HW139017   4.414   2.486   0.068 -1.1156 -0.2353 -0.7777
12618SOL    HW239018   4.317   2.495   0.184 -0.9372 -0.3645 -0.6184
12619SOL     OW39019   2.137   8.774   0.041  0.0375  0.4433  0.7717
12619SOL    HW139020   2.180   8.849  -0.000  0.9615 -0.3210  0.3220
12619SOL    HW239021   2.073   8.814   0.100 -0.7894  1.5863 -0.8053
12620SOL     OW39022   6.240   8.209   4.099 -0.1285  0.2469  0.2575
12620SOL    HW139023   6.151   8.240   4.083 -0.2267 -0.7416 -1.4290
12620SOL    HW239024   6.275   8.191   4.011  0.9869 -1.3564  0.9686
12621SOL     OW39025   7.913   0.340   6.256 -0.0373  0.2783  0.2005
12621SOL    HW139026   7.829   0.375   6.227  0.1538  0.5326 -0.0560
12621SOL    HW239027   7.968   0.343   6.178  0.2325  0.1893  0.3873
12622SOL     OW39028   0.218   8.658   4.923 -0.0778  0.4597 -0.0370
12622SOL    HW139029   0.124   8.669   4.905  0.0650  0.7385 -0.6107
12622SOL    HW239030   0.242   8.736   4.973 -0.1405  0.3989  0.0904
12623SOL     OW39031   1.601   8.083   1.458  0.5341 -0.6012 -0.5239
12623SOL    HW139032   1.567   8.005   1.415  1.5545 -2.5383  1.9225
12623SOL    HW239033   1.531   8.110   1.517  0.5684 -0.2531 -0.6392
12624SOL     OW39034   3.067   7.599   5.830 -0.2259  0.6993 -0.0430
12624SOL    HW139035   3.050   7.511   5.797 -1.1933  0.9413 -0.2093
12624SOL    HW239036   3.088   7.651   5.752  1.0853  0.4737  0.1252
12625SOL     OW39037   1.964   4.837   3.005  0.1655 -0.2701  0.4353
12625SOL    HW139038   1.989   4.795   3.087  1.0884  0.5364  0.5912
12625SOL    HW239039   2.045   4.879   2.974 -0.4299  0.3664 -0.3160
12626SOL     OW39040   2.532   8.302   3.230 -0.6265 -0.3638  0.3578
12626SOL    HW139041   2.623   8.298   3.258 -0.7081 -0.2175  0.6572
12626SOL    HW239042   2.519   8.394   3.205 -0.9136 -0.1926  1.1054
12627SOL     OW39043   0.224   6.784   1.120 -0.3029 -0.1044 -0.6002
12627SOL    HW139044   0.284   6.725   1.166 -1.1304 -0.0201  0.6024
12627SOL    HW239045   0.139   6.769   1.160 -0.8445  0.7397 -1.3954
12628SOL     OW39046   7.907   3.472   3.180  0.0898 -0.2478 -0.5161
12628SOL    HW139047   7.917   3.408   3.110 -0.0777  0.6974 -1.4159
12628SOL    HW239048   7.995   3.505   3.196  0.4116 -1.6013  0.8708
12629SOL     OW39049   2.683   2.482   7.911 -0.3890 -0.2259  0.2268
12629SOL    HW139050   2.713   2.420   7.845  2.4935  0.0670  1.1131
12629SOL    HW239051   2.727   2.565   7.889 -1.3377  0.5404  1.0851
12630SOL     OW39052   7.846   5.045   6.289 -0.1670  0.2071  0.2856
12630SOL    HW139053   7.911   5.024   6.356  1.0946  0.8166 -0.7119
12630SOL    HW239054   7.775   5.089   6.337 -0.1798 -1.0550  1.4888
12631SOL     OW39055   0.224   0.852   4.396  0.2816  0.7823 -0.0702
12631SOL    HW139056   0.235   0.821   4.306 -0.7252 -1.8650  0.6390
12631SOL    HW239057   0.304   0.822   4.441  0.0167  0.6028  0.2834
12632SOL     OW39058   6.551   6.456   1.964  0.9671  0.3849  0.0338
12632SOL    HW139059   6.464   6.423   1.944  1.6899 -2.3725  1.0091
12632SOL    HW239060   6.605   6.432   1.889  2.1916 -3.9606  1.9499
12633SOL     OW39061   0.192   4.632   2.708 -0.2162  0.1026 -0.1403
12633SOL    HW139062   0.106   4.658   2.676 -0.8417 -1.0630  0.5228
12633SOL    HW239063   0.222   4.566   2.645  0.0236  0.2277 -0.1585
12634SOL     OW39064   2.574   3.308   0.302  0.5285 -0.1619  0.0416
12634SOL    HW139065   2.575   3.222   0.343 -0.3457 -0.5422 -0.6944
12634SOL    HW239066   2.612   3.367   0.367 -0.0491 -0.8888  1.0562
12635SOL     OW39067   5.375   2.397   1.966  0.0558  0.0964 -0.2738
12635SOL    HW139068   5.317   2.469   1.942 -0.2096 -0.7287 -2.4054
12635SOL    HW239069   5.376   2.397   2.061 -1.1086  1.9687 -0.2144
12636SOL     OW39070   2.447   5.325   2.306  0.2528 -0.1393  0.2189
12636SOL    HW139071   2.461   5.231   2.321  1.2238  0.1100  0.9510
12636SOL    HW239072   2.529   5.366   2.334 -0.2216  0.9444  0.0423
12637SOL     OW39073   1.302   7.777   2.207 -0.2228  0.0594  0.3762
12637SOL    HW139074   1.253   7.735   2.278 -1.1249  0.0670 -0.2190
12637SOL    HW239075   1.333   7.704   2.153 -0.6657  0.0989  0.0628
12638SOL     OW39076   6.689   0.532   5.116  0.0049  0.1648  0.0602
12638SOL    HW139077   6.709   0.527   5.023  0.0513 -1.8241  0.1249
12638SOL    HW239078   6.597   0.558   5.120 -0.3863 -1.0631 -0.6076
12639SOL     OW39079   0.906   2.969   1.253 -0.4730  0.2805  0.1020
12639SOL    HW139080   0.980   2.921   1.216 -1.7794 -1.9094  0.1219
12639SOL    HW239081   0.832   2.946   1.197 -1.0900  2.8939 -0.2883
12640SOL     OW39082   8.450   2.906   3.872 -0.2004 -0.5547  0.3360
12640SOL    HW139083   8.467   2.879   3.962 -3.0817 -0.7647  0.9165
12640SOL    HW239084   8.399   2.987   3.879  0.2609 -0.0867 -1.1481
12641SOL     OW39085   0.487   1.070   6.911  0.0300  0.0232 -0.3183
12641SOL    HW139086   0.474   1.078   7.006 -0.2834  1.1428 -0.4363
12641SOL    HW239087   0.581   1.081   6.899  0.1037 -0.3838 -0.1106
12642SOL     OW39088   8.354   3.602   6.916 -0.2100  0.0761 -0.2830
12642SOL    HW139089   8.375   3.691   6.946 -1.8899  0.2222  0.6116
12642SOL    HW239090   8.352   3.550   6.996  0.0134 -0.6047 -0.7167
12643SOL     OW39091   7.564   1.388   0.071  0.0938 -0.0253  0.2420
12643SOL    HW139092   7.595   1.336   0.146  0.6064 -1.8687 -1.1688
12643SOL    HW239093   7.498   1.446   0.108  2.4418  1.3001  2.6633
12644SOL     OW39094   8.151   3.585   4.528 -0.0626  0.6457  0.2437
12644SOL    HW139095   8.234   3.620   4.560  0.0218 -0.3780  1.2132
12644SOL    HW239096   8.086   3.647   4.561  0.2643  1.1526 -0.0495
12645SOL     OW39097   3.838   6.640   4.588  0.0835  0.2022 -0.0575
12645SOL    HW139098   3.765   6.636   4.526  0.3080  0.4837 -0.3435
12645SOL    HW239099   3.894   6.566   4.565  0.8745  1.0974 -1.0940
12646SOL     OW39100   8.313   7.615   5.467 -0.0543 -0.6737 -0.4981
12646SOL    HW139101   8.338   7.692   5.417 -1.5312 -0.2192 -0.5794
12646SOL    HW239102   8.293   7.548   5.401  0.3909 -0.8593 -0.4482
12647SOL     OW39103   3.597   0.895   1.025  0.1623  0.2977 -0.5568
12647SOL    HW139104   3.519   0.869   1.074 -0.2846  1.4091 -0.6380
12647SOL    HW239105   3.660   0.923   1.092  0.3436 -0.2218 -0.5108
12648SOL     OW39106   0.256   3.002   6.547 -0.0356 -0.1033 -0.1531
12648SOL    HW139107   0.283   2.941   6.616  0.4001  0.1307 -0.1131
12648SOL    HW239108   0.335   3.051   6.526 -0.5534  0.9847  0.3605
12649SOL     OW39109   2.840   6.230   3.929 -0.0248  0.1088  0.2069
12649SOL    HW139110   2.861   6.322   3.913  0.7763 -0.0767  0.1345
12649SOL    HW239111   2.753   6.218   3.890  0.9571  0.1894 -2.2080
12650SOL     OW39112   2.610   6.226   1.716  0.0669  0.3751  0.2268
12650SOL    HW139113   2.580   6.219   1.807  1.3726  1.7000  0.7903
12650SOL    HW239114   2.704   6.215   1.720  0.2785  1.5328 -0.8104
12651SOL     OW39115   6.643   0.101   4.223 -0.2376  0.1838 -0.3167
12651SOL    HW139116   6.661   0.193   4.240  0.1946  0.0082  0.2248
12651SOL    HW239117   6.650   0.059   4.309  0.6961 -0.5273 -0.7163
12652SOL     OW39118   5.642   6.927   8.575  0.1243  0.3962 -0.1017
12652SOL    HW139119   5.721   6.957   8.529  0.9008 -0.7450  0.4425
12652SOL    HW239120   5.637   6.982   8.653  1.4449 -0.7015  0.8081
12653SOL     OW39121   6.734   2.993   7.166  0.1118 -0.6294  0.1876
12653SOL    HW139122   6.665   3.048   7.130  0.0268 -1.8978 -1.7320
12653SOL    HW239123   6.696   2.906   7.170  1.3590 -1.2097 -0.1903
12654SOL     OW39124   6.861   5.898   6.754 -0.2820 -0.3887  0.1379
12654SOL    HW139125   6.942   5.940   6.782 -0.4733  1.9000 -2.2977
12654SOL    HW239126   6.793   5.963   6.775 -0.8987 -0.4208 -1.6180
12655SOL     OW39127   7.476   5.363   2.930 -0.3344 -0.0421 -0.4489
12655SOL    HW139128   7.484   5.400   2.842  2.5214  1.5303  0.3611
12655SOL    HW239129   7.566   5.353   2.960 -1.2172 -1.1727  2.0879
12656SOL     OW39130   4.908   6.622   8.649 -0.0409 -0.0069  0.5717
12656SOL    HW139131   4.938   6.642   8.738 -1.1597 -1.1838  1.2396
12656SOL    HW239132   4.824   6.668   8.641  1.4332  2.6992 -1.0449
12657SOL     OW39133   6.978   1.230   7.623 -0.1031 -0.0160 -0.4927
12657SOL    HW139134   6.962   1.138   7.599 -0.5170 -0.1406  0.2058
12657SOL    HW239135   6.933   1.280   7.556 -0.0630 -0.3348 -0.7606
12658SOL     OW39136   6.738   3.817   0.960 -0.0296 -0.2936  0.2307
12658SOL    HW139137   6.827   3.783   0.971 -0.2864 -0.6196  1.4434
12658SOL    HW239138   6.723   3.816   0.865  1.9427  1.5531 -0.1892
12659SOL     OW39139   5.657   0.363   2.490 -0.2161 -0.1786 -0.1230
12659SOL    HW139140   5.747   0.341   2.514  0.4613  0.7698 -1.6455
12659SOL    HW239141   5.630   0.291   2.432 -0.1579 -0.0597 -0.2973
12660SOL     OW39142   5.041   1.024   1.991  0.0656  0.0442 -0.0363
12660SOL    HW139143   5.011   0.947   2.040 -0.7573 -0.2700 -0.9764
12660SOL    HW239144   5.108   1.063   2.046 -1.9293  0.6747  2.1416
12661SOL     OW39145   6.872   2.684   4.049 -0.6235  0.2391 -0.7233
12661SOL    HW139146   6.960   2.704   4.080 -1.1471  1.5221  0.0198
12661SOL    HW239147   6.832   2.769   4.034 -2.3548 -0.2304  0.7887
12662SOL     OW39148   5.448   8.828   6.590 -0.1742 -0.1248 -0.5306
12662SOL    HW139149   5.455   8.838   6.495  1.2959  3.0963 -0.2311
12662SOL    HW239150   5.383   8.895   6.615 -0.0940 -0.5217  0.7866
12663SOL     OW39151   8.126   5.264   1.799  0.4693  0.6484  0.3725
12663SOL    HW139152   8.153   5.325   1.730 -0.0913  0.5169  0.0343
12663SOL    HW239153   8.034   5.246   1.781  0.3307  0.5726  1.1287
12664SOL     OW39154   1.257   3.931   0.172 -0.1083  0.2231 -0.4200
12664SOL    HW139155   1.343   3.889   0.172  0.4054  1.2449 -0.6371
12664SOL    HW239156   1.217   3.905   0.089 -1.3126 -2.7627  0.9496
12665SOL     OW39157   5.133   4.315   6.680  0.3859  0.3763 -0.2347
12665SOL    HW139158   5.051   4.284   6.641  0.6093  0.0170 -0.4242
12665SOL    HW239159   5.181   4.354   6.607  1.1036 -0.9212 -0.4687
12666SOL     OW39160   1.923   3.215   2.679 -0.5720  0.2398 -0.7915
12666SOL    HW139161   1.918   3.296   2.730  1.2068  0.6999 -1.2962
12666SOL    HW239162   1.992   3.231   2.615 -0.0529 -1.7365 -0.7868
12667SOL     OW39163   8.073   4.803   3.753  0.0628 -0.0072  0.0710
12667SOL    HW139164   7.989   4.823   3.793  0.8466 -0.7079  2.1649
12667SOL    HW239165   8.054   4.734   3.690 -1.4338  2.0821 -1.9481
12668SOL     OW39166   4.960   5.332   5.517 -0.2000 -0.4103  0.1227
12668SOL    HW139167   5.015   5.294   5.586  0.3865  0.2565  0.0386
12668SOL    HW239168   4.871   5.310   5.543  0.0912 -1.3962  0.3338
12669SOL     OW39169   4.281   7.618   4.275  0.1389  0.5008  0.0613
12669SOL    HW139170   4.333   7.670   4.336 -0.3413  1.2248 -0.1311
12669SOL    HW239171   4.239   7.682   4.218  0.4660 -0.1611 -0.9452
12670SOL     OW39172   3.159   5.814   1.753  0.1696  0.8418 -0.1541
12670SOL    HW139173   3.196   5.732   1.720 -2.4467 -0.5369  0.0863
12670SOL    HW239174   3.193   5.822   1.842  0.5759  0.1217 -0.2416
12671SOL     OW39175   1.734   5.455   6.879 -0.4149 -0.7848  0.0555
12671SOL    HW139176   1.777   5.431   6.798 -2.5916  1.4126 -1.9234
12671SOL    HW239177   1.652   5.406   6.878 -0.6994 -0.3405  0.6427
12672SOL     OW39178   2.002   8.711   7.207  0.0720  0.1321 -0.1629
12672SOL    HW139179   2.064   8.711   7.134  0.4782 -1.7395  0.1319
12672SOL    HW239180   1.954   8.794   7.198  0.5569  0.2463 -2.1583
12673SOL     OW39181   5.654   2.666   5.256 -0.5151 -0.1679  0.5677
12673SOL    HW139182   5.692   2.716   5.328  2.2754 -2.0501  0.5616
12673SOL    HW239183   5.632   2.581   5.294 -0.9789 -0.4753 -0.3509
12674SOL     OW39184   5.860   6.328   5.915 -0.0871  0.5279  0.0579
12674SOL    HW139185   5.841   6.249   5.966  2.1654 -0.7316 -0.9217
12674SOL    HW239186   5.783   6.340   5.859 -0.5535 -0.8193  0.3787
12675SOL     OW39187   4.380   0.631   2.523  0.4856 -0.5384 -0.4886
12675SOL    HW139188   4.403   0.554   2.576 -0.6284  0.0314  0.8787
12675SOL    HW239189   4.463   0.679   2.514  0.5689 -0.2025  1.5420
12676SOL     OW39190   8.811   3.923   8.331 -0.7510  0.2517  0.2904
12676SOL    HW139191   8.730   3.944   8.379 -1.3981 -3.1142  0.9180
12676SOL    HW239192   8.859   3.866   8.391  0.7886 -0.0386 -1.1774
12677SOL     OW39193   5.790   5.642   4.602 -0.0137  0.5197 -0.1959
12677SOL    HW139194   5.727   5.677   4.540  0.0527 -2.4668 -2.1303
12677SOL    HW239195   5.751   5.658   4.688 -0.4834  4.0284 -0.9308
12678SOL     OW39196   6.117   7.482   4.270  0.1422 -0.2535  0.4845
12678SOL    HW139197   6.068   7.536   4.333 -1.0052  0.4608 -0.9610
12678SOL    HW239198   6.111   7.394   4.306  0.4026  0.2658  1.9031
12679SOL     OW39199   5.108   1.565   1.972  0.0145 -0.1478 -0.1056
12679SOL    HW139200   5.153   1.602   2.048 -0.4080 -1.3606  0.7678
12679SOL    HW239201   5.119   1.470   1.981  0.6367 -0.2907 -2.0002
12680SOL     OW39202   6.055   5.241   2.764 -0.0731 -0.5399 -0.7673
12680SOL    HW139203   6.092   5.276   2.683  0.0955 -1.7332 -1.2368
12680SOL    HW239204   5.968   5.280   2.771  1.4749  3.0617  0.8403
12681SOL     OW39205   4.428   8.246   0.186  0.0444  0.4653 -0.4535
12681SOL    HW139206   4.464   8.158   0.198  1.0465  0.5750 -2.2019
12681SOL    HW239207   4.398   8.272   0.272 -0.0664 -1.5022  0.1568
12682SOL     OW39208   3.833   4.433   0.956  0.2335 -0.7915  0.4612
12682SOL    HW139209   3.829   4.416   0.862 -0.0677 -0.1958  0.3632
12682SOL    HW239210   3.922   4.408   0.981  0.4732 -0.4907 -0.0759
12683SOL     OW39211   5.287   5.734   4.485  0.5749  0.0290 -0.1762
12683SOL    HW139212   5.347   5.765   4.553  0.0190 -1.1633  0.9115
12683SOL    HW239213   5.218   5.689   4.534 -1.1734  1.2576 -1.3835
12684SOL     OW39214   8.576   0.354   4.360  0.5296  0.1754 -0.1429
12684SOL    HW139215   8.544   0.297   4.429 -1.3690  0.8114 -0.4390
12684SOL    HW239216   8.536   0.439   4.377 -0.4226  0.2268 -2.2675
12685SOL     OW39217   4.674   0.049   7.690  0.7548 -0.1039 -0.1470
12685SOL    HW139218   4.641   0.047   7.600  1.2596 -1.2990 -0.3237
12685SOL    HW239219   4.760   0.007   7.685  1.2539  0.7734  0.7229
12686SOL     OW39220   3.302   7.488   5.595  0.8681  0.5333 -0.4472
12686SOL    HW139221   3.238   7.442   5.651  1.2429  0.8733  0.2747
12686SOL    HW239222   3.378   7.501   5.651  1.0196  1.4544 -0.8435
12687SOL     OW39223   0.618   0.989   6.649 -0.0418 -1.2362 -0.4844
12687SOL    HW139224   0.535   0.944   6.664 -0.4968 -0.4632 -0.6492
12687SOL    HW239225   0.625   0.997   6.554  0.7434 -2.2426 -0.5278
12688SOL     OW39226   5.233   3.217   0.527  0.8560  0.4716  0.1476
12688SOL    HW139227   5.283   3.295   0.503  0.2377  0.5052 -1.1412
12688SOL    HW239228   5.214   3.174   0.443  2.8325 -2.1528  0.9199
12689SOL     OW39229   0.021   2.983   2.597 -0.3902 -0.0100 -0.5878
12689SOL    HW139230   0.014   2.953   2.688 -0.4261  2.1669  0.1882
12689SOL    HW239231  -0.055   2.945   2.553 -2.3633  1.6377  1.1716
12690SOL     OW39232   3.206   3.737   2.879  0.2194  0.4473  0.5359
12690SOL    HW139233   3.126   3.689   2.856  1.5730 -1.0213 -1.4787
12690SOL    HW239234   3.190   3.826   2.847 -1.0259  0.4730  1.1834
12691SOL     OW39235   6.354   3.850   6.720 -0.2406  0.0827  0.2141
12691SOL    HW139236   6.394   3.915   6.778  0.0912 -0.1695  0.2668
12691SOL    HW239237   6.314   3.787   6.779  1.4784 -1.0598  0.2159
12692SOL     OW39238   0.047   4.667   3.329  0.2980 -0.7659 -0.7769
12692SOL    HW139239   0.112   4.695   3.393 -1.7054  0.0672  1.0152
12692SOL    HW239240   0.057   4.572   3.325  1.1128 -0.7279  0.0462
12693SOL     OW39241   1.719   4.358   8.141  0.0114 -0.0060 -0.1731
12693SOL    HW139242   1.645   4.418   8.150 -0.7124 -1.0333  1.0397
12693SOL    HW239243   1.681   4.279   8.100  0.9259  0.2735 -1.6452
12694SOL     OW39244   5.812   0.199   7.898 -0.6786  0.5951  0.0959
12694SOL    HW139245   5.889   0.237   7.941  0.2109 -1.2406  0.2035
12694SOL    HW239246   5.780   0.133   7.959 -0.9159 -0.2926 -0.9558
12695SOL     OW39247   1.372   2.874   5.438  0.0737 -0.0763 -0.0825
12695SOL    HW139248   1.340   2.903   5.353 -1.7479 -1.8523 -0.0631
12695SOL    HW239249   1.362   2.778   5.437  1.9621 -0.3700  1.3686
12696SOL     OW39250   7.458   0.708   4.060 -0.4576 -0.6278  0.5693
12696SOL    HW139251   7.439   0.793   4.020  0.4943  0.7225  2.8290
12696SOL    HW239252   7.399   0.703   4.135 -1.0256 -2.3361  0.0561
12697SOL     OW39253   1.824   1.690   5.551 -0.3271  0.2262 -0.3648
12697SOL    HW139254   1.887   1.727   5.614 -0.3944  0.9231 -0.6932
12697SOL    HW239255   1.842   1.737   5.469 -1.6435  0.8560 -0.3231
12698SOL     OW39256   2.002   1.841   5.692 -0.2775  0.5812  0.2921
12698SOL    HW139257   2.018   1.799   5.776 -0.4184 -0.3018 -0.1017
12698SOL    HW239258   2.089   1.855   5.655 -0.2475 -0.5347 -0.1092
12699SOL     OW39259   0.006   8.230   8.481  0.1162 -0.4203  0.0777
12699SOL    HW139260  -0.069   8.250   8.536 -1.1349 -0.4651 -1.5440
12699SOL    HW239261   0.045   8.152   8.521 -0.9485 -0.6482  0.6986
12700SOL     OW39262   3.459   8.396   8.416  0.1089  1.0355 -0.6119
12700SOL    HW139263   3.391   8.362   8.474  0.6042 -0.8325 -1.0585
12700SOL    HW239264   3.464   8.490   8.437 -1.7517  0.9820  0.2526
12701SOL     OW39265   5.874   3.070   4.049 -0.2053 -0.1352  0.5159
12701SOL    HW139266   5.942   3.112   3.997 -0.3660  0.0891  0.4866
12701SOL    HW239267   5.826   3.016   3.986  0.0551 -0.4324  0.5698
12702SOL     OW39268   5.847   2.922   4.833  0.1780 -0.0779 -0.1715
12702SOL    HW139269   5.900   2.878   4.766 -1.1961 -1.0494 -0.6723
12702SOL    HW239270   5.774   2.862   4.849 -0.3659  0.8630  1.0554
12703SOL     OW39271   2.199   5.103   0.313  0.1849  0.1169  0.5251
12703SOL    HW139272   2.160   5.172   0.367 -1.0597 -0.3240  0.2101
12703SOL    HW239273   2.242   5.150   0.241  0.4355  0.6124  0.9912
12704SOL     OW39274   0.973   3.129   7.660  0.2449 -0.9240 -0.0846
12704SOL    HW139275   0.964   3.059   7.723  0.1212 -0.4757  0.4042
12704SOL    HW239276   0.884   3.142   7.626  0.1463 -0.5642  0.3070
12705SOL     OW39277   4.821   6.119   7.570  0.2833 -0.1668 -0.1041
12705SOL    HW139278   4.829   6.158   7.656  1.4854 -0.4939 -0.0420
12705SOL    HW239279   4.795   6.028   7.587 -0.8474  0.1375 -0.1645
12706SOL     OW39280   3.169   1.747   7.503  0.3009  0.1633 -0.2022
12706SOL    HW139281   3.262   1.736   7.523  0.5927  0.1055 -1.4759
12706SOL    HW239282   3.135   1.658   7.496  0.3154  0.1754 -0.4346
12707SOL     OW39283   8.344   7.845   4.455 -0.5254  0.4546 -0.0139
12707SOL    HW139284   8.299   7.770   4.493 -0.9244  0.7178  0.0343
12707SOL    HW239285   8.307   7.853   4.367 -0.2282  0.3817 -0.1492
12708SOL     OW39286   1.701   2.255   7.110 -0.0039  0.6999 -0.2453
12708SOL    HW139287   1.618   2.219   7.143 -0.3381  1.4051 -0.3054
12708SOL    HW239288   1.720   2.328   7.168  0.5855  0.5400 -0.2333
12709SOL     OW39289   6.336   3.197   0.962 -0.0047 -0.3937  0.8844
12709SOL    HW139290   6.251   3.205   1.005  0.2343 -0.9636  1.4926
12709SOL    HW239291   6.316   3.190   0.869 -0.7751 -2.3382  1.1415
12710SOL     OW39292   0.056   2.036   0.596  0.0577  0.0144  0.5044
12710SOL    HW139293   0.030   1.949   0.566  0.2843 -0.0024  0.3556
12710SOL    HW239294  -0.002   2.096   0.549 -0.7996 -0.1051  1.3744
12711SOL     OW39295   0.722   0.321   7.650  0.0896  0.3767 -0.1797
12711SOL    HW139296   0.807   0.277   7.643 -0.1245  0.0936 -1.0819
12711SOL    HW239297   0.659   0.259   7.613 -0.7158  0.0625  1.6110
12712SOL     OW39298   8.441   6.940   4.865  0.3009 -0.1192  0.3191
12712SOL    HW139299   8.428   7.023   4.911  0.4918 -0.9950  2.0827
12712SOL    HW239300   8.534   6.941   4.841  0.4005  0.0229  0.6946
12713SOL     OW39301   8.692   1.290   0.627  0.5016  0.2151  0.6974
12713SOL    HW139302   8.652   1.306   0.542 -0.0015 -0.7349  0.7370
12713SOL    HW239303   8.785   1.277   0.608  0.4264  0.2161  0.3191
12714SOL     OW39304   0.157   8.147   0.158  0.0015  0.2362 -0.2138
12714SOL    HW139305   0.067   8.119   0.143 -0.4573  1.9929 -0.9520
12714SOL    HW239306   0.194   8.159   0.071  1.9928 -3.2883 -0.0506
12715SOL     OW39307   8.158   7.143   2.904  0.0549 -0.4160 -0.2023
12715SOL    HW139308   8.175   7.200   2.979 -0.1476 -1.6489  0.8047
12715SOL    HW239309   8.168   7.054   2.938  0.8582 -1.0061 -1.8551
12716SOL     OW39310   8.379   6.469   5.852 -0.0393  0.1035  0.0800
12716SOL    HW139311   8.295   6.485   5.808 -0.5228  2.7606  1.7633
12716SOL    HW239312   8.439   6.448   5.780 -2.0019 -1.5459 -1.2095
12717SOL     OW39313   7.305   8.586   6.636 -0.1683  0.2853 -0.5290
12717SOL    HW139314   7.287   8.631   6.719 -0.8377 -0.1983 -0.4005
12717SOL    HW239315   7.225   8.536   6.619 -0.1091  0.5315 -1.5653
12718SOL     OW39316   6.708   3.511   8.661  0.0401  0.3860  0.2897
12718SOL    HW139317   6.750   3.591   8.691  1.7804  0.6035 -2.3911
12718SOL    HW239318   6.739   3.499   8.571 -2.4524 -1.7315 -0.4397
12719SOL     OW39319   4.387   7.727   5.755  0.0475 -0.0963  0.0246
12719SOL    HW139320   4.437   7.653   5.788  1.3154  0.7468  0.0936
12719SOL    HW239321   4.348   7.766   5.833  1.2054  0.5803  0.2977
12720SOL     OW39322   7.998   1.590   6.548 -0.3280  0.0451 -0.5330
12720SOL    HW139323   7.906   1.589   6.573 -0.7181 -1.4906 -1.8010
12720SOL    HW239324   8.038   1.524   6.604  0.3749  1.7674  1.0885
12721SOL     OW39325   4.982   2.636   6.208  0.4576  0.3389  0.1760
12721SOL    HW139326   4.894   2.654   6.243  0.6689 -0.5222  1.1907
12721SOL    HW239327   4.967   2.615   6.116 -0.3032  1.0386  0.1325
12722SOL     OW39328   5.235   4.502   5.460 -0.2485 -0.2562  0.0353
12722SOL    HW139329   5.295   4.437   5.423 -0.3580 -1.0926  1.2696
12722SOL    HW239330   5.153   4.488   5.413 -0.1317 -0.6851 -0.0456
12723SOL     OW39331   1.719   5.049   6.529 -0.2988  0.1068  0.0803
12723SOL    HW139332   1.798   5.099   6.506  1.6034 -1.8373  1.8655
12723SOL    HW239333   1.725   4.970   6.475 -2.3284  0.9167 -1.4343
12724SOL     OW39334   3.837   2.977   5.082 -0.3994  0.6035  0.4312
12724SOL    HW139335   3.783   2.968   5.003  0.3237  0.5723 -0.0764
12724SOL    HW239336   3.914   3.024   5.052  0.9440 -1.3766  0.5708
12725SOL     OW39337   7.683   4.087   4.114  0.2573 -0.0398  0.2115
12725SOL    HW139338   7.767   4.127   4.093  0.8239 -1.1836  0.2379
12725SOL    HW239339   7.704   3.997   4.137 -1.0706 -0.6145 -0.6770
12726SOL     OW39340   6.475   3.343   0.558  0.0467  0.5171 -0.0176
12726SOL    HW139341   6.439   3.269   0.509  0.7802 -1.4428  2.2274
12726SOL    HW239342   6.400   3.401   0.573 -0.7914 -0.3049 -0.8683
12727SOL     OW39343   0.147   1.753   8.071  0.2675 -0.7188  0.0235
12727SOL    HW139344   0.134   1.848   8.073 -0.6174 -0.8309  0.0347
12727SOL    HW239345   0.059   1.717   8.055  0.7168 -1.5052 -0.7557
12728SOL     OW39346   7.015   1.468   8.828 -0.1268  0.0269 -0.5914
12728SOL    HW139347   7.014   1.531   8.755  0.7695 -0.3119 -0.9129
12728SOL    HW239348   6.948   1.404   8.806 -1.6451  1.3049  0.1490
12729SOL     OW39349   2.710   7.323   3.247  0.2545  0.1499 -0.0737
12729SOL    HW139350   2.700   7.237   3.206 -1.0250  1.3907 -2.6951
12729SOL    HW239351   2.803   7.342   3.241  0.2906 -0.3064 -1.2473
12730SOL     OW39352   6.723   7.524   2.525 -0.0176 -0.3314 -0.5469
12730SOL    HW139353   6.637   7.561   2.542  0.6456  0.1536  2.0596
12730SOL    HW239354   6.785   7.591   2.554  1.2315 -1.5451 -0.3093
12731SOL     OW39355   7.226   4.461   8.599 -0.0816 -0.0961 -0.0733
12731SOL    HW139356   7.161   4.392   8.609 -0.2490 -0.0582 -0.8501
12731SOL    HW239357   7.183   4.527   8.544 -0.0958  0.8511  1.0278
12732SOL     OW39358   3.927   8.184   8.474  0.3425  0.1041  0.4715
12732SOL    HW139359   3.836   8.214   8.473  0.5745  0.8981 -2.2161
12732SOL    HW239360   3.974   8.243   8.415  2.3242 -1.1814  0.6528
12733SOL     OW39361   7.190   8.725   5.004  0.1448  0.0851  0.5713
12733SOL    HW139362   7.139   8.644   4.999 -1.5602  1.1313  0.1224
12733SOL    HW239363   7.195   8.745   5.098  0.5227 -0.4911  0.6792
12734SOL     OW39364   8.617   8.795   4.191 -0.3319  0.2060 -0.1769
12734SOL    HW139365   8.632   8.701   4.176 -0.1381 -0.3685  2.9432
12734SOL    HW239366   8.675   8.817   4.264 -1.1050  2.5461 -0.1905
12735SOL     OW39367   6.702   0.808   6.261  0.6186 -0.0459  0.0724
12735SOL    HW139368   6.731   0.797   6.352 -0.4682  2.0736  0.7308
12735SOL    HW239369   6.638   0.737   6.248 -0.0275  0.2760  1.3486
12736SOL     OW39370   6.806   6.945   0.657  0.3545 -0.0766 -0.0750
12736SOL    HW139371   6.886   6.993   0.678  1.3089 -0.7919 -1.7813
12736SOL    HW239372   6.818   6.920   0.565 -1.0816 -1.6659  0.1337
12737SOL     OW39373   3.050   8.309   2.582  0.6611 -0.1820 -0.1106
12737SOL    HW139374   3.050   8.265   2.497  0.6652 -0.0147 -0.1997
12737SOL    HW239375   3.045   8.239   2.646  1.0154 -0.3268 -0.2415
12738SOL     OW39376   7.993   6.227   8.394  0.1769 -0.5371 -0.2299
12738SOL    HW139377   8.009   6.308   8.346  0.1868 -0.3652  0.0612
12738SOL    HW239378   8.045   6.235   8.474 -0.2977 -0.5622  0.0874
12739SOL     OW39379   3.059   3.925   6.322  0.1398  0.4638 -0.0839
12739SOL    HW139380   3.150   3.911   6.298  1.3239  0.1196  3.8929
12739SOL    HW239381   3.027   3.838   6.348 -0.6548  0.9022  0.4560
12740SOL     OW39382   2.431   3.444   8.737 -0.1987 -0.5946  0.3165
12740SOL    HW139383   2.444   3.473   8.827  1.1765  0.6610 -0.2387
12740SOL    HW239384   2.467   3.515   8.683 -1.9667 -0.8111 -1.2637
12741SOL     OW39385   1.671   1.122   6.423  0.5188 -0.3263  0.1323
12741SOL    HW139386   1.717   1.129   6.507 -0.7890  0.8222  0.7936
12741SOL    HW239387   1.725   1.171   6.362  0.1512  1.0993  0.9174
12742SOL     OW39388   2.986   3.675   5.170  0.2852 -0.3003 -0.0007
12742SOL    HW139389   3.022   3.648   5.086  1.5306 -0.2032  0.4825
12742SOL    HW239390   2.952   3.763   5.154 -0.9786 -0.9115 -0.7954
12743SOL     OW39391   3.443   8.148   6.080  0.1395 -0.0579 -0.0896
12743SOL    HW139392   3.513   8.093   6.116  1.9826  2.1231 -0.1400
12743SOL    HW239393   3.366   8.126   6.133  0.9695 -2.0913  0.3660
12744SOL     OW39394   4.577   5.552   6.456  0.2173 -0.4310 -0.0932
12744SOL    HW139395   4.503   5.497   6.483 -0.5523  0.0454 -1.1419
12744SOL    HW239396   4.562   5.568   6.363  1.0365  0.6246 -0.0663
12745SOL     OW39397   2.497   2.059   7.151 -0.3458  0.2191  0.0180
12745SOL    HW139398   2.422   2.085   7.097  0.1540  0.2201 -0.6955
12745SOL    HW239399   2.550   2.003   7.093  0.8206  1.2028  0.0868
12746SOL     OW39400   5.822   6.080   6.598 -0.3709 -0.0872  0.1607
12746SOL    HW139401   5.745   6.130   6.567 -0.3846  0.0878  0.4766
12746SOL    HW239402   5.876   6.145   6.643 -0.8983 -0.5507  1.5211
12747SOL     OW39403   5.254   4.403   7.099  0.0570 -0.1165 -0.1762
12747SOL    HW139404   5.192   4.331   7.111  0.4851 -0.2857  1.1414
12747SOL    HW239405   5.272   4.434   7.188 -0.9496  2.3446 -0.7362
12748SOL     OW39406   0.540   1.522   1.408  0.0809  0.0229  0.2279
12748SOL    HW139407   0.620   1.568   1.383 -0.1560  0.5580  0.4470
12748SOL    HW239408   0.475   1.548   1.342  0.0301 -0.2447  0.1702
12749SOL     OW39409   5.870   5.911   8.207  0.0621  0.4502 -0.1634
12749SOL    HW139410   5.905   5.894   8.120 -1.4370 -0.6946 -0.5879
12749SOL    HW239411   5.829   5.998   8.200 -2.1447 -0.6147 -1.3594
12750SOL     OW39412   4.237   0.779   1.435  0.3236  0.1118 -0.2670
12750SOL    HW139413   4.162   0.779   1.495 -0.2615  0.3854 -0.9913
12750SOL    HW239414   4.304   0.828   1.482 -0.1949  0.4887  0.0998
12751SOL     OW39415   0.046   0.879   4.093 -0.2427  0.2623  0.0045
12751SOL    HW139416  -0.044   0.858   4.119 -0.2552 -1.6163 -1.3895
12751SOL    HW239417   0.036   0.935   4.015 -0.1845  0.9814  0.5027
12752SOL     OW39418   2.816   6.407   7.379  0.1331 -0.4877 -0.1617
12752SOL    HW139419   2.810   6.464   7.302  3.6348 -0.3109 -0.4405
12752SOL    HW239420   2.848   6.464   7.448  1.3799 -1.5916  0.1987
12753SOL     OW39421   2.264   5.854   5.882 -0.1856  0.2547 -0.1234
12753SOL    HW139422   2.185   5.901   5.855  2.0756  2.2859 -4.1690
12753SOL    HW239423   2.286   5.891   5.967 -1.8125  2.1011 -0.4334
12754SOL     OW39424   1.844   0.668   8.101 -0.3608  0.3416 -0.3882
12754SOL    HW139425   1.772   0.697   8.046  1.2499  1.1867 -2.1639
12754SOL    HW239426   1.811   0.589   8.143 -2.2519  0.6091 -1.2507
12755SOL     OW39427   2.215   0.695   0.009 -0.3760 -0.1818  0.3234
12755SOL    HW139428   2.225   0.791   0.006 -0.4400 -0.1200  1.5759
12755SOL    HW239429   2.304   0.662   0.011 -0.3511 -0.1657 -0.2865
12756SOL     OW39430   7.007   8.761   1.219  0.0293 -0.1338  0.7995
12756SOL    HW139431   6.932   8.778   1.162  0.6360  0.4831  0.1663
12756SOL    HW239432   6.996   8.671   1.247 -1.1371  0.0560  1.0011
12757SOL     OW39433   0.551   2.406   4.355 -0.3390  0.4342  0.1578
12757SOL    HW139434   0.646   2.415   4.354 -0.1004 -1.6111 -0.7220
12757SOL    HW239435   0.518   2.493   4.333  1.4120  0.6119 -2.0856
12758SOL     OW39436   2.482   7.476   8.675 -0.1330 -0.6451  0.0072
12758SOL    HW139437   2.495   7.524   8.757 -1.4225  0.7090 -0.5289
12758SOL    HW239438   2.436   7.396   8.700 -2.6068  0.8059  0.4435
12759SOL     OW39439   4.915   4.569   5.544  0.1640  0.3758 -0.0076
12759SOL    HW139440   4.883   4.620   5.618 -1.4243  0.9345 -1.0346
12759SOL    HW239441   4.891   4.478   5.565  1.3000  0.2767  0.9446
12760SOL     OW39442   8.810   2.997   5.078  0.0201  0.5350  0.3836
12760SOL    HW139443   8.719   3.013   5.102  0.0080  0.6410  0.2711
12760SOL    HW239444   8.807   2.974   4.985 -0.1525 -1.8448  0.9193
12761SOL     OW39445   0.827   4.292   1.606  0.2995 -0.1288  0.3093
12761SOL    HW139446   0.789   4.277   1.519 -2.0927  0.1400  1.2404
12761SOL    HW239447   0.825   4.387   1.617  0.0571 -0.2000  0.8892
12762SOL     OW39448   6.198   1.938   4.191 -0.4410 -0.4729  0.3438
12762SOL    HW139449   6.178   1.865   4.250 -2.1647  0.3248  0.8074
12762SOL    HW239450   6.278   1.910   4.145  0.1215 -1.7380  1.9821
12763SOL     OW39451   0.227   1.132   4.611  0.5163  0.4214 -0.2086
12763SOL    HW139452   0.307   1.177   4.584  0.9393  0.2118  0.6609
12763SOL    HW239453   0.250   1.089   4.693 -0.2700 -0.2898 -0.3481
12764SOL     OW39454   0.924   6.249   4.678 -0.0657  0.2673  0.1194
12764SOL    HW139455   0.884   6.218   4.759 -0.7681 -0.3196 -0.4479
12764SOL    HW239456   0.900   6.184   4.612 -0.6112  1.4270 -0.8539
12765SOL     OW39457   3.999   0.476   8.306 -0.1345  0.0103 -0.0899
12765SOL    HW139458   3.966   0.562   8.280 -0.7410 -0.0624  0.4185
12765SOL    HW239459   3.984   0.472   8.400  0.1638 -0.5381 -0.0637
12766SOL     OW39460   1.126   2.907   2.410  0.1562  0.2195  0.3381
12766SOL    HW139461   1.118   2.966   2.485  0.0715  1.3105 -0.5150
12766SOL    HW239462   1.084   2.826   2.439  0.8814  0.3163  1.7696
12767SOL     OW39463   1.479   7.099   2.067 -0.0673 -0.2443  0.1829
12767SOL    HW139464   1.512   7.077   2.154 -0.7038 -0.7307  0.3123
12767SOL    HW239465   1.524   7.179   2.043  0.7698 -0.5836  0.5948
12768SOL     OW39466   4.136   4.635   2.293 -0.1492 -0.2334  0.5595
12768SOL    HW139467   4.143   4.658   2.200  0.7199  1.1125  0.9290
12768SOL    HW239468   4.143   4.719   2.339 -1.2070 -0.8082  1.8304
12769SOL     OW39469   8.579   6.344   4.362 -0.2576  0.2197  0.1202
12769SOL    HW139470   8.496   6.298   4.373  0.3165 -1.1215 -0.8580
12769SOL    HW239471   8.602   6.374   4.450 -0.8498 -1.0324  0.7248
12770SOL     OW39472   1.315   1.247   6.183 -0.6117 -0.4619 -0.1666
12770SOL    HW139473   1.343   1.274   6.271 -1.7535 -0.2491  0.1393
12770SOL    HW239474   1.258   1.172   6.199  0.4026 -1.4142 -0.8450
12771SOL     OW39475   1.229   6.189   0.074  0.2351 -0.0709 -0.4780
12771SOL    HW139476   1.135   6.206   0.080 -0.3298 -2.6116 -0.7681
12771SOL    HW239477   1.262   6.258   0.017 -2.1437 -1.0550 -3.3656
12772SOL     OW39478   8.324   8.205   2.714 -0.0567  1.0878  0.3461
12772SOL    HW139479   8.413   8.188   2.744 -0.2523 -0.3186  0.1839
12772SOL    HW239480   8.324   8.298   2.692  0.9904  1.4271  1.6146
12773SOL     OW39481   7.355   4.954   2.079 -0.4323  0.4971  0.4528
12773SOL    HW139482   7.449   4.955   2.096 -0.6590  0.4434  1.8156
12773SOL    HW239483   7.344   4.888   2.011  0.6471  1.4283 -0.6795
12774SOL     OW39484   0.830   6.983   0.471 -0.5079 -0.4939  0.4302
12774SOL    HW139485   0.747   7.005   0.429  0.0470  0.8335 -0.0438
12774SOL    HW239486   0.861   6.905   0.425 -1.8352 -1.4618  1.1299
12775SOL     OW39487   0.173   4.261   3.634 -0.2311  0.0718 -0.4540
12775SOL    HW139488   0.258   4.230   3.664  0.4137  0.5775 -1.6874
12775SOL    HW239489   0.155   4.208   3.555 -1.4400 -0.5873  0.2302
12776SOL     OW39490   3.480   2.989   5.121  0.0909  0.4546  0.4191
12776SOL    HW139491   3.522   2.992   5.035 -0.2142  2.9519  0.3115
12776SOL    HW239492   3.387   2.975   5.102 -0.0561  1.5534  0.2976
12777SOL     OW39493   0.471   1.032   5.344 -0.3511 -0.4602 -0.1152
12777SOL    HW139494   0.455   0.973   5.417 -0.1297  0.4930  0.7252
12777SOL    HW239495   0.543   1.088   5.373 -0.4480  0.1218 -0.9467
12778SOL     OW39496   5.398   4.963   1.485  0.2958 -0.0776 -0.3681
12778SOL    HW139497   5.483   4.920   1.478 -0.3097 -1.4719  0.3673
12778SOL    HW239498   5.338   4.894   1.515 -1.6622  0.1869 -3.2043
12779SOL     OW39499   3.309   8.828   8.419  0.3246  0.4810 -0.3923
12779SOL    HW139500   3.273   8.901   8.470 -4.6988 -1.0878 -1.1622
12779SOL    HW239501   3.317   8.757   8.482  2.5783  0.8233 -0.2083
12780SOL     OW39502   7.213   6.702   3.637 -0.1149  0.0129 -0.1677
12780SOL    HW139503   7.212   6.742   3.550  0.1402  0.5387  0.0659
12780SOL    HW239504   7.221   6.776   3.697 -0.8063 -0.3056  0.3310
12781SOL     OW39505   0.627   4.334   7.909  0.1700  0.0064  0.2864
12781SOL    HW139506   0.597   4.423   7.894 -0.9028 -0.3275  0.3729
12781SOL    HW239507   0.677   4.340   7.991  1.8986  0.8992 -0.7887
12782SOL     OW39508   7.777   8.146   0.101  0.2429  0.1899 -0.2576
12782SOL    HW139509   7.798   8.119   0.012  1.1574  1.1686 -0.3477
12782SOL    HW239510   7.782   8.242   0.099  0.3433  0.2144  0.8676
12783SOL     OW39511   2.442   0.591   0.145  0.0185 -0.0339 -0.2494
12783SOL    HW139512   2.358   0.578   0.189 -0.5545  0.4383 -1.1849
12783SOL    HW239513   2.498   0.629   0.213  0.3404 -2.8305  1.1893
12784SOL     OW39514   8.718   5.997   6.015  0.1516 -0.5220 -0.5073
12784SOL    HW139515   8.717   6.072   5.956 -1.5947 -0.0208  0.0923
12784SOL    HW239516   8.785   6.019   6.080 -1.1892  1.1701  0.3914
12785SOL     OW39517   2.332   2.980   3.870  0.0040  0.0101 -0.0862
12785SOL    HW139518   2.368   2.896   3.899  1.3785  0.8870  0.8728
12785SOL    HW239519   2.406   3.024   3.827 -0.2858  1.3098  0.6909
12786SOL     OW39520   5.077   1.178   6.815 -0.3174  0.2251  0.9321
12786SOL    HW139521   4.983   1.181   6.832 -0.5751  0.7375 -0.5022
12786SOL    HW239522   5.104   1.270   6.810 -0.1802  0.1276 -0.8292
12787SOL     OW39523   3.707   7.721   1.368 -0.2325 -0.3601 -0.0109
12787SOL    HW139524   3.681   7.738   1.459 -2.6483  0.0810 -0.7269
12787SOL    HW239525   3.762   7.796   1.344 -0.2452 -0.0714  0.8311
12788SOL     OW39526   7.846   8.769   1.165 -0.1650 -0.8924  0.0524
12788SOL    HW139527   7.770   8.797   1.216  0.5261 -1.1508  1.2576
12788SOL    HW239528   7.854   8.676   1.183 -0.5319 -1.2206 -1.3891
12789SOL     OW39529   7.174   5.409   0.641 -0.2765 -0.7673  0.0382
12789SOL    HW139530   7.189   5.351   0.566  0.2713 -0.1594 -0.3303
12789SOL    HW239531   7.241   5.476   0.633 -2.3678  1.3235 -0.9517
12790SOL     OW39532   6.129   0.281   4.783  0.7756  0.2384  0.6885
12790SOL    HW139533   6.202   0.231   4.747  1.8219  3.1280 -1.6267
12790SOL    HW239534   6.156   0.301   4.873  0.9758 -1.9370  1.1754
12791SOL     OW39535   1.073   7.915   8.445  0.0893 -0.0623 -0.4532
12791SOL    HW139536   1.122   7.857   8.503 -0.0291 -0.3087 -0.6004
12791SOL    HW239537   1.115   8.001   8.457  0.6999 -0.3124 -0.7317
12792SOL     OW39538   3.798   8.510   7.639 -0.3593  0.6558 -0.0022
12792SOL    HW139539   3.844   8.594   7.629 -0.0938  0.6619  1.1445
12792SOL    HW239540   3.774   8.507   7.731  0.9865 -1.2179  0.3311
12793SOL     OW39541   0.489   4.920   2.718 -0.7376  0.2246  0.6343
12793SOL    HW139542   0.509   4.837   2.674  0.4464  1.3303 -1.0411
12793SOL    HW239543   0.567   4.940   2.770 -1.0667  0.2419  1.1285
12794SOL     OW39544   0.698   5.221   5.996  0.0853 -0.5880  0.4068
12794SOL    HW139545   0.606   5.220   6.020  0.3208  1.0930  1.4978
12794SOL    HW239546   0.701   5.269   5.913  0.1068  0.6821  1.1170
12795SOL     OW39547   4.837   7.124   5.731 -0.8132 -0.2798  0.0002
12795SOL    HW139548   4.901   7.053   5.720  0.4019  0.7293  0.2602
12795SOL    HW239549   4.821   7.156   5.643 -0.0483  0.2217  0.0363
12796SOL     OW39550   0.836   8.115   7.660  0.0327 -0.2010  0.6214
12796SOL    HW139551   0.801   8.201   7.636 -2.2944 -1.5549 -1.2108
12796SOL    HW239552   0.871   8.079   7.579 -2.0707 -2.2685  0.5276
12797SOL     OW39553   8.838   8.033   0.953 -0.2581 -0.1150 -0.3280
12797SOL    HW139554   8.798   8.118   0.972  1.8361  1.2549 -1.6436
12797SOL    HW239555   8.868   8.040   0.863  3.5208 -0.6878  0.7090
12798SOL     OW39556   6.099   4.918   7.948  0.2191 -0.1562 -0.6746
12798SOL    HW139557   6.094   4.965   8.031 -0.1277  0.9689 -1.3081
12798SOL    HW239558   6.008   4.911   7.919  0.3736 -0.1620 -1.1666
12799SOL     OW39559   7.446   7.962   1.963 -0.3291 -0.2288 -0.3096
12799SOL    HW139560   7.439   8.036   2.023 -0.5246  1.2896 -2.1320
12799SOL    HW239561   7.488   7.998   1.885  0.1864 -2.2118 -0.9955
12800SOL     OW39562   2.080   1.082   1.770  0.3389 -0.1115  0.3329
12800SOL    HW139563   2.029   1.111   1.845 -0.2421  2.9506 -1.0811
12800SOL    HW239564   2.025   1.016   1.728  0.0981 -0.9163  1.8457
12801SOL     OW39565   4.355   0.401   3.713  0.3502 -0.2067 -0.2598
12801SOL    HW139566   4.448   0.404   3.689  0.1244  0.5477 -1.0620
12801SOL    HW239567   4.355   0.361   3.800  1.3866 -0.6924 -0.4590
12802SOL     OW39568   5.070   1.701   6.190 -0.5514  0.5408  0.1198
12802SOL    HW139569   5.146   1.694   6.247  1.7633 -1.2401 -2.8919
12802SOL    HW239570   5.091   1.772   6.130 -1.0792 -0.1478 -0.9260
12803SOL     OW39571   0.441   7.168   0.508  0.6762 -0.5489  0.1061
12803SOL    HW139572   0.480   7.150   0.593  0.5957 -2.3899 -0.1951
12803SOL    HW239573   0.476   7.099   0.451 -0.3316 -0.1645 -1.0183
12804SOL     OW39574   6.318   6.707   1.791  0.2429 -0.0479 -0.1948
12804SOL    HW139575   6.307   6.677   1.701 -0.3383 -1.3621  0.2967
12804SOL    HW239576   6.408   6.738   1.795  0.4723 -0.5667 -1.0634
12805SOL     OW39577   6.411   8.036   4.906  0.2965 -0.2938 -0.7177
12805SOL    HW139578   6.499   8.045   4.870  0.4325  0.4706 -0.2261
12805SOL    HW239579   6.395   7.942   4.908  1.1421 -0.4442 -0.7161
12806SOL     OW39580   0.325   8.021   5.436 -0.3754 -0.4124  0.1286
12806SOL    HW139581   0.236   8.057   5.430 -0.8204 -1.6039 -1.0000
12806SOL    HW239582   0.333   7.992   5.527 -0.8593  0.3661  0.4318
12807SOL     OW39583   6.774   0.040   0.507  0.1632 -0.2243 -0.4600
12807SOL    HW139584   6.838  -0.013   0.460  2.3861  1.1642  0.8547
12807SOL    HW239585   6.822   0.117   0.535 -2.4663  1.5839 -0.5782
12808SOL     OW39586   8.634   4.021   8.697 -0.0734  0.1309  0.4892
12808SOL    HW139587   8.591   3.965   8.762  1.7102 -0.5352  1.1587
12808SOL    HW239588   8.692   3.963   8.649  0.3700  1.0569 -0.1377
12809SOL     OW39589   4.915   5.771   4.779  0.3612 -0.5327 -0.1680
12809SOL    HW139590   4.885   5.785   4.689 -0.3425  2.2053  0.4034
12809SOL    HW239591   4.968   5.848   4.799 -0.9163 -0.1855  2.3102
12810SOL     OW39592   1.830   5.890   8.782  0.2718  0.0685  0.1163
12810SOL    HW139593   1.735   5.878   8.785 -0.3476  3.3374 -1.4575
12810SOL    HW239594   1.861   5.864   8.868 -2.4494  1.2653  1.5715
12811SOL     OW39595   2.518   8.527   2.971  0.3556  0.4799 -0.4757
12811SOL    HW139596   2.583   8.461   2.994 -0.0177  0.3328  0.1790
12811SOL    HW239597   2.542   8.555   2.883  1.2551  0.3657 -0.2754
12812SOL     OW39598   8.436   8.397   1.028  0.1133  0.2803 -0.2153
12812SOL    HW139599   8.407   8.417   0.939  2.0386  0.5577 -0.8141
12812SOL    HW239600   8.393   8.313   1.048 -0.8015  0.4945 -1.1611
12813SOL     OW39601   6.729   1.078   7.867  0.3163  0.3760  0.3491
12813SOL    HW139602   6.641   1.076   7.905  0.5631 -1.0324  0.8933
12813SOL    HW239603   6.730   1.159   7.815 -1.2791  0.4443  0.3624
12814SOL     OW39604   4.559   7.159   0.360  0.2053 -0.1992  0.8856
12814SOL    HW139605   4.510   7.176   0.440 -0.4001 -1.0486  0.7141
12814SOL    HW239606   4.529   7.072   0.332  1.7321 -0.6896  0.7133
12815SOL     OW39607   0.986   4.144   6.615  0.2673  0.1294 -0.4473
12815SOL    HW139608   1.029   4.204   6.554 -0.4871  0.8704 -0.2792
12815SOL    HW239609   0.989   4.189   6.699 -1.6739  0.6836 -0.6148
12816SOL     OW39610   7.367   3.819   8.078  0.0922 -0.0106  0.2663
12816SOL    HW139611   7.454   3.785   8.100 -0.7636 -2.4764  0.1476
12816SOL    HW239612   7.307   3.772   8.136 -1.1809  1.9043  0.5984
12817SOL     OW39613   6.453   1.653   8.090  0.1002  0.1984 -0.0263
12817SOL    HW139614   6.547   1.669   8.094 -0.2766  2.7620  0.2735
12817SOL    HW239615   6.423   1.664   8.180 -0.7247  1.3815 -0.4258
12818SOL     OW39616   7.627   1.331   3.947  0.0244  0.2514  0.1924
12818SOL    HW139617   7.551   1.388   3.944 -1.4046 -1.5343  0.3960
12818SOL    HW239618   7.638   1.300   3.857 -0.9610 -1.2365  0.5357
12819SOL     OW39619   6.227   3.353   4.549 -0.1678  0.0363  0.2333
12819SOL    HW139620   6.261   3.423   4.493  0.7607  0.9692  1.8861
12819SOL    HW239621   6.291   3.282   4.540  0.0007  0.1992  0.1496
12820SOL     OW39622   5.316   6.540   0.126  0.1590  0.2050  0.0103
12820SOL    HW139623   5.248   6.481   0.158 -1.1894  1.6593 -0.0395
12820SOL    HW239624   5.330   6.514   0.035 -2.0348  1.3111 -0.7012
12821SOL     OW39625   4.467   6.643   3.531 -0.2961  0.1676  0.0762
12821SOL    HW139626   4.531   6.578   3.502 -0.7995 -0.2651 -0.0766
12821SOL    HW239627   4.481   6.650   3.626 -0.8097 -0.7895  0.2244
12822SOL     OW39628   6.616   6.469   1.220  0.2793  0.3878  0.3111
12822SOL    HW139629   6.711   6.482   1.232  0.0294  1.5089  1.2788
12822SOL    HW239630   6.610   6.400   1.154  1.7721 -0.0589  0.5917
12823SOL     OW39631   7.894   3.446   0.489 -0.2395 -0.1097 -0.4987
12823SOL    HW139632   7.927   3.502   0.419  0.8266  1.0770  0.8585
12823SOL    HW239633   7.802   3.432   0.468  0.2218 -0.4116 -2.4863
12824SOL     OW39634   5.561   7.477   7.204 -0.4118  0.5135  0.4935
12824SOL    HW139635   5.642   7.490   7.155 -0.3181 -2.0418 -0.2173
12824SOL    HW239636   5.582   7.504   7.293  1.3526 -0.3343  0.3847
12825SOL     OW39637   7.511   2.685   3.212  0.6118 -0.6257 -0.2298
12825SOL    HW139638   7.547   2.773   3.202  1.2306 -0.9165 -0.5817
12825SOL    HW239639   7.475   2.664   3.126 -0.6772 -0.2302  0.1866
12826SOL     OW39640   5.492   1.926   0.443  0.1995  0.5395 -0.3875
12826SOL    HW139641   5.415   1.879   0.412 -0.7997  0.4529  1.9940
12826SOL    HW239642   5.478   2.016   0.414 -0.2027  0.2921 -0.9810
12827SOL     OW39643   2.703   4.142   0.564 -0.0190  0.3183 -0.1722
12827SOL    HW139644   2.793   4.145   0.532 -0.6872  1.3965 -2.1808
12827SOL    HW239645   2.680   4.049   0.562  0.8153  0.1029 -0.3790
12828SOL     OW39646   6.221   6.520   6.963 -0.5508  0.6336 -0.4475
12828SOL    HW139647   6.265   6.548   6.883  0.9824 -0.3955 -0.0007
12828SOL    HW239648   6.230   6.425   6.963 -2.5018  0.4028 -0.1510
12829SOL     OW39649   7.155   4.811   1.113 -0.2924 -0.0459  0.1238
12829SOL    HW139650   7.221   4.850   1.169  0.2226 -2.3818  1.2560
12829SOL    HW239651   7.201   4.789   1.032 -0.1311 -0.0229  0.2103
12830SOL     OW39652   8.720   0.328   3.928 -0.1107  0.1949  0.4495
12830SOL    HW139653   8.720   0.258   3.863  0.1927  1.0483 -0.4897
12830SOL    HW239654   8.665   0.294   3.999 -0.2589 -0.8467 -0.1407
12831SOL     OW39655   4.206   1.473   0.706 -0.0144 -0.0702 -0.0668
12831SOL    HW139656   4.241   1.551   0.747 -1.7158  1.2233 -0.9207
12831SOL    HW239657   4.145   1.437   0.770  1.2111 -1.0734  0.5636
12832SOL     OW39658   1.255   4.098   6.388  0.0699 -0.1573  0.7695
12832SOL    HW139659   1.201   4.176   6.373 -0.3282 -0.1622  2.1343
12832SOL    HW239660   1.345   4.131   6.382 -0.0879  0.2780  0.7124
12833SOL     OW39661   5.270   0.655   2.783  0.6672 -0.0184  0.0873
12833SOL    HW139662   5.292   0.576   2.735  0.4003 -1.0012  1.5132
12833SOL    HW239663   5.349   0.676   2.832  0.4786  0.1232  0.3334
12834SOL     OW39664   8.720   1.677   8.085 -0.0214 -0.0047 -0.3141
12834SOL    HW139665   8.731   1.672   8.180 -0.6894 -0.8913 -0.2667
12834SOL    HW239666   8.668   1.599   8.063 -0.9446  0.8442 -1.2496
12835SOL     OW39667   7.242   6.526   2.660  0.3497  0.1944 -0.1370
12835SOL    HW139668   7.152   6.550   2.637  0.1172 -0.3487  0.1851
12835SOL    HW239669   7.234   6.440   2.700  0.7854  0.9619  1.6777
12836SOL     OW39670   8.123   8.583   8.593 -0.3423 -0.3542 -0.0237
12836SOL    HW139671   8.098   8.636   8.518 -2.9921 -3.3657 -1.4944
12836SOL    HW239672   8.050   8.592   8.655 -0.6691 -1.8887 -0.1434
12837SOL     OW39673   4.162   5.431   8.697  0.5551 -0.1639 -0.5607
12837SOL    HW139674   4.207   5.511   8.670  1.6202 -0.1564  1.0550
12837SOL    HW239675   4.197   5.362   8.641 -0.6261  0.5060 -2.2073
12838SOL     OW39676   8.447   1.408   0.629 -0.3859  0.1603 -0.6910
12838SOL    HW139677   8.535   1.383   0.656 -0.6544  2.1670  2.6223
12838SOL    HW239678   8.399   1.325   0.625  1.0677 -0.7559 -0.1929
12839SOL     OW39679   4.059   0.668   4.584 -0.1779  0.3262 -0.3703
12839SOL    HW139680   4.034   0.742   4.529 -1.3613  0.0957 -0.1828
12839SOL    HW239681   4.131   0.701   4.638  0.0246  0.9969 -1.0314
12840SOL     OW39682   5.154   3.028   1.533  0.2274 -0.0084  0.6316
12840SOL    HW139683   5.065   3.055   1.558  0.4169  1.4656 -0.1752
12840SOL    HW239684   5.142   2.975   1.455 -0.0966 -1.8221  1.8499
12841SOL     OW39685   1.496   4.204   8.722 -0.4115  0.1519 -0.2737
12841SOL    HW139686   1.481   4.118   8.685 -0.3183 -1.6294  3.3457
12841SOL    HW239687   1.555   4.248   8.661  0.9380 -3.0099 -1.4030
12842SOL     OW39688   5.961   5.730   1.450  0.1020 -0.3807 -0.5597
12842SOL    HW139689   6.039   5.785   1.457  0.2771 -0.5857 -0.9463
12842SOL    HW239690   5.962   5.695   1.361 -0.6494 -0.0559 -0.7089
12843SOL     OW39691   1.031   6.830   0.771  0.5778  0.0206  0.3138
12843SOL    HW139692   1.020   6.888   0.846  0.1945 -0.6201  0.7672
12843SOL    HW239693   1.019   6.887   0.694 -1.8855  0.1931  0.7465
12844SOL     OW39694   4.977   1.406   5.863 -1.2279 -0.5351  0.1092
12844SOL    HW139695   4.994   1.429   5.954 -1.1894 -0.9605  0.2107
12844SOL    HW239696   5.052   1.443   5.815 -0.2772 -1.8818  0.4825
12845SOL     OW39697   2.709   5.962   3.655 -0.0362  0.1852  0.1575
12845SOL    HW139698   2.725   5.872   3.682  0.6213 -0.1541 -1.3022
12845SOL    HW239699   2.791   5.991   3.616 -0.7618  0.8079 -0.9868
12846SOL     OW39700   4.596   5.141   4.211  0.0227 -0.7833  0.5118
12846SOL    HW139701   4.509   5.167   4.242 -0.1753 -1.3483  0.4433
12846SOL    HW239702   4.594   5.157   4.116  0.0919 -0.5259  0.5537
12847SOL     OW39703   2.932   6.172   2.104  0.4027 -0.1291  0.0616
12847SOL    HW139704   2.992   6.175   2.029  0.4394  1.1819  0.1074
12847SOL    HW239705   2.845   6.162   2.065  0.3723  1.0300 -0.2141
12848SOL     OW39706   1.607   3.950   1.606 -0.1591 -0.2151 -0.4800
12848SOL    HW139707   1.678   3.980   1.549  0.5273 -1.5174 -0.3693
12848SOL    HW239708   1.651   3.899   1.674 -1.0693  0.3781  0.5879
12849SOL     OW39709   2.821   8.581   7.165 -0.1442  0.0605  0.0258
12849SOL    HW139710   2.803   8.562   7.073 -3.3662 -1.0113  0.7440
12849SOL    HW239711   2.803   8.675   7.174  0.4724  0.2353 -0.4509
12850SOL     OW39712   4.515   4.756   6.725 -0.7689  0.2421  0.7027
12850SOL    HW139713   4.523   4.849   6.743 -0.8993  0.1555  1.2135
12850SOL    HW239714   4.593   4.716   6.764 -0.8921  0.0959  0.8031
12851SOL     OW39715   2.141   3.413   6.325 -0.2081  0.7330  0.2022
12851SOL    HW139716   2.170   3.415   6.234  0.3956 -2.0583  0.2399
12851SOL    HW239717   2.054   3.452   6.323 -0.0894  1.0024 -1.5335
12852SOL     OW39718   2.917   3.168   2.705 -0.2019  0.2691  0.0931
12852SOL    HW139719   2.948   3.116   2.778 -2.8773 -0.8667  0.5343
12852SOL    HW239720   2.996   3.208   2.668  1.5591 -1.5062  1.7354
12853SOL     OW39721   4.919   6.409   1.069 -0.0624  0.5262  0.7194
12853SOL    HW139722   4.950   6.328   1.109  1.8338  1.1351  0.5541
12853SOL    HW239723   4.861   6.381   0.998  0.2617 -0.6651  0.9161
12854SOL     OW39724   6.083   6.973   7.809 -0.0835 -0.2464 -0.5129
12854SOL    HW139725   6.113   6.965   7.900  1.3040 -1.4577 -1.0460
12854SOL    HW239726   6.076   7.068   7.794 -0.8584 -0.0326  1.0046
12855SOL     OW39727   8.665   7.615   4.939 -0.1107  0.7085 -0.7145
12855SOL    HW139728   8.642   7.626   5.031  0.1419 -0.0710 -0.5460
12855SOL    HW239729   8.608   7.676   4.892 -1.3471  0.0171 -0.1753
12856SOL     OW39730   2.699   4.219   7.186  0.0027 -0.3325  0.0590
12856SOL    HW139731   2.682   4.182   7.273 -0.0534 -1.5154 -0.4311
12856SOL    HW239732   2.650   4.301   7.185  2.2515  1.1744  2.1346
12857SOL     OW39733   2.694   4.786   3.594 -0.0952 -0.1613  0.1281
12857SOL    HW139734   2.755   4.743   3.654  0.2650  0.2450  0.0595
12857SOL    HW239735   2.743   4.798   3.513  0.4875  2.0585  0.7237
12858SOL     OW39736   3.604   7.214   5.196 -0.0632 -0.5900 -0.4773
12858SOL    HW139737   3.604   7.119   5.191  0.2472 -0.5287 -2.0546
12858SOL    HW239738   3.530   7.235   5.254 -0.3533 -1.7613 -0.4082
12859SOL     OW39739   1.395   7.438   8.001  0.2518 -0.7580 -0.7734
12859SOL    HW139740   1.354   7.483   7.927 -0.3984  0.3531  0.2241
12859SOL    HW239741   1.378   7.495   8.076  3.2737 -0.4594 -0.2107
12860SOL     OW39742   5.096   1.131   5.117 -0.4351 -0.0823 -0.3370
12860SOL    HW139743   5.028   1.066   5.135 -0.3179 -1.2481 -3.4822
12860SOL    HW239744   5.172   1.079   5.092 -0.3216  1.1674 -2.8771
12861SOL     OW39745   6.957   2.978   2.727  0.0528  0.4120  0.4124
12861SOL    HW139746   6.938   3.069   2.704  1.0437  0.5072 -0.0680
12861SOL    HW239747   6.937   2.929   2.647 -1.1565  0.0871  0.8776
12862SOL     OW39748   1.049   4.244   3.046  0.4994  0.1613 -1.0060
12862SOL    HW139749   1.071   4.185   2.974 -0.6555 -0.7074 -0.6838
12862SOL    HW239750   1.014   4.322   3.004 -2.2808 -1.1857 -1.4560
12863SOL     OW39751   8.042   2.223   4.571 -0.3212 -0.3697 -0.0537
12863SOL    HW139752   7.972   2.259   4.626 -0.8299  0.9170 -1.4748
12863SOL    HW239753   8.025   2.129   4.567 -2.0324 -0.0597 -0.4527
12864SOL     OW39754   2.256   2.959   2.594  0.0374 -0.3758  0.1734
12864SOL    HW139755   2.236   2.889   2.656 -0.5200  0.7193  1.2712
12864SOL    HW239756   2.347   2.944   2.570  0.2171 -0.9104  1.1381
12865SOL     OW39757   1.325   3.025   1.466 -0.1148  0.1537  1.2466
12865SOL    HW139758   1.290   3.107   1.433  0.7184 -0.6338 -1.9553
12865SOL    HW239759   1.249   2.978   1.501 -1.0248  1.2580  0.7949
12866SOL     OW39760   8.554   3.743   1.999  0.2373 -0.1910 -0.2710
12866SOL    HW139761   8.510   3.825   1.978  1.2624  0.3007 -0.6193
12866SOL    HW239762   8.566   3.700   1.914  2.6386  0.8811 -0.5815
12867SOL     OW39763   5.278   6.897   1.548  0.5010  0.1518 -0.8068
12867SOL    HW139764   5.345   6.828   1.554 -0.5078 -0.8080 -0.2967
12867SOL    HW239765   5.317   6.962   1.489  1.7754 -0.5009 -0.7329
12868SOL     OW39766   3.503   3.596   6.932 -0.4821 -0.1390  0.0699
12868SOL    HW139767   3.564   3.661   6.966 -0.3251 -0.2353 -0.0320
12868SOL    HW239768   3.439   3.647   6.881 -0.7297  0.0083  0.5208
12869SOL     OW39769   2.945   2.102   7.199  0.1090 -0.4708 -0.0985
12869SOL    HW139770   2.967   2.161   7.271 -1.3723  0.1726 -0.1246
12869SOL    HW239771   2.853   2.121   7.180  0.1678 -1.3847 -1.4569
12870SOL     OW39772   4.741   4.659   5.076  1.0618  0.4394  0.3053
12870SOL    HW139773   4.681   4.726   5.110  0.0690  0.0012 -0.5250
12870SOL    HW239774   4.771   4.613   5.155  1.8139  1.8654  0.8955
12871SOL     OW39775   8.534   5.885   7.389 -0.3686 -0.0584  0.3022
12871SOL    HW139776   8.556   5.957   7.448  0.4551 -0.4568  0.5048
12871SOL    HW239777   8.556   5.918   7.302 -1.0968  0.3476  0.2716
12872SOL     OW39778   1.777   2.904   4.941 -1.3744 -0.0807 -0.0878
12872SOL    HW139779   1.746   2.900   5.031 -0.9951  0.8642  0.0886
12872SOL    HW239780   1.766   2.995   4.916 -0.4095 -0.1069 -0.6211
12873SOL     OW39781   2.213   2.063   4.017 -1.0609  0.2770 -0.0612
12873SOL    HW139782   2.215   2.150   4.057 -0.8796  0.0133  0.5225
12873SOL    HW239783   2.265   2.009   4.077  0.7938  0.2545 -1.6064
12874SOL     OW39784   6.104   8.687   0.020 -0.0746  0.1973 -0.0446
12874SOL    HW139785   6.197   8.696   0.041 -0.2199  0.6278  0.4430
12874SOL    HW239786   6.096   8.726  -0.067 -0.5012  4.2899  1.5979
12875SOL     OW39787   8.686   0.782   0.975  0.2130  0.0631 -0.3508
12875SOL    HW139788   8.605   0.809   1.018 -0.7436 -1.5495 -1.0458
12875SOL    HW239789   8.684   0.828   0.891 -1.4791 -2.0456 -1.5902
12876SOL     OW39790   7.099   2.868   1.744 -0.6068  0.0308  0.3594
12876SOL    HW139791   7.165   2.929   1.711  0.2258 -0.2216  1.4984
12876SOL    HW239792   7.028   2.873   1.680 -0.1753  1.5129 -0.0475
12877SOL     OW39793   4.214   5.684   6.288 -0.1443  0.2846 -0.3738
12877SOL    HW139794   4.297   5.717   6.255  0.0637 -1.3612 -1.6063
12877SOL    HW239795   4.165   5.763   6.312  0.4915  1.4761 -2.6952
12878SOL     OW39796   0.444   2.258   1.504  0.2042 -0.3539 -0.1016
12878SOL    HW139797   0.468   2.230   1.416 -1.9210 -3.1996  0.0735
12878SOL    HW239798   0.478   2.189   1.561 -1.2652 -0.2776  0.9295
12879SOL     OW39799   4.516   6.846   7.697 -0.4227 -0.4927  0.4590
12879SOL    HW139800   4.448   6.903   7.662 -0.4974 -1.0084 -0.2547
12879SOL    HW239801   4.598   6.892   7.679 -0.2497 -1.8198 -2.6557
12880SOL     OW39802   2.604   7.023   0.610 -0.3019 -0.3284 -0.2648
12880SOL    HW139803   2.573   6.995   0.524 -1.0350  1.6839 -0.7146
12880SOL    HW239804   2.684   7.072   0.592 -1.0674  1.0841  0.0296
12881SOL     OW39805   0.405   3.472   2.398  0.1543 -0.0137 -0.0322
12881SOL    HW139806   0.337   3.411   2.427 -0.6057 -0.2614 -2.1157
12881SOL    HW239807   0.465   3.479   2.472 -2.6493  1.0314  2.2810
12882SOL     OW39808   1.523   7.305   5.651 -0.2091  0.4792  0.2595
12882SOL    HW139809   1.506   7.213   5.634  1.6456 -0.1121  1.2853
12882SOL    HW239810   1.438   7.342   5.674 -1.1637 -0.7113 -1.1391
12883SOL     OW39811   6.817   7.849   6.371 -0.7136 -0.7324  0.0777
12883SOL    HW139812   6.796   7.938   6.401 -1.0254 -1.0100  0.7038
12883SOL    HW239813   6.863   7.862   6.288 -1.9221 -0.0331 -0.5118
12884SOL     OW39814   7.216   4.327   8.356 -0.1683 -0.2581 -0.1027
12884SOL    HW139815   7.221   4.423   8.355 -0.7913 -0.2081 -1.6055
12884SOL    HW239816   7.131   4.308   8.394  0.5740 -0.3050  1.6558
12885SOL     OW39817   1.606   0.792   2.142 -0.2822  0.3043  0.7995
12885SOL    HW139818   1.512   0.802   2.130 -0.3878 -0.2329  1.1315
12885SOL    HW239819   1.625   0.704   2.109  0.3114  0.8812 -0.4097
12886SOL     OW39820   3.010   8.352   1.942 -0.1477 -0.1246 -0.1135
12886SOL    HW139821   3.079   8.290   1.919  0.1787  0.0843  0.2835
12886SOL    HW239822   2.933   8.323   1.892  0.3708 -0.0449 -0.9721
12887SOL     OW39823   8.336   4.852   0.000 -0.1225  0.1748 -0.5873
12887SOL    HW139824   8.385   4.857   0.082  0.4792  0.1055 -0.9397
12887SOL    HW239825   8.272   4.924   0.006 -0.3133 -0.0382  0.0829
12888SOL     OW39826   2.754   3.473   4.647  0.0328  0.0996 -0.6734
12888SOL    HW139827   2.693   3.438   4.713  1.0176 -0.1843  0.1099
12888SOL    HW239828   2.731   3.425   4.567 -0.7391 -0.0379 -0.3867
12889SOL     OW39829   7.369   2.430   6.597 -0.4010  0.6056 -0.0628
12889SOL    HW139830   7.314   2.356   6.570 -1.8018  1.5641  0.0246
12889SOL    HW239831   7.375   2.485   6.519  3.1825 -0.9627 -1.1040
12890SOL     OW39832   2.044   4.414   5.769 -0.0336 -0.3774  0.4756
12890SOL    HW139833   2.127   4.460   5.757  0.4246 -0.7728  1.8349
12890SOL    HW239834   2.038   4.402   5.864 -0.1893 -2.9825  0.2067
12891SOL     OW39835   5.225   2.520   1.234 -0.5178 -0.0125  0.5402
12891SOL    HW139836   5.146   2.502   1.184  0.7680 -0.3798 -1.5189
12891SOL    HW239837   5.201   2.592   1.293 -2.3479 -0.1079 -0.0389
12892SOL     OW39838   6.359   6.904   2.531 -0.8073 -0.2898 -0.2274
12892SOL    HW139839   6.273   6.866   2.514 -1.0924  0.3561 -0.2462
12892SOL    HW239840   6.401   6.843   2.592 -1.1824 -0.7328 -0.4116
12893SOL     OW39841   7.087   5.608   7.931  0.1880  0.0591 -0.0958
12893SOL    HW139842   7.128   5.605   8.018  0.0608 -1.4970 -0.0666
12893SOL    HW239843   6.994   5.594   7.949  0.3476 -1.8735 -0.5794
12894SOL     OW39844   1.423   7.122   3.244 -0.0900 -0.1564  0.0823
12894SOL    HW139845   1.467   7.086   3.322  0.7193 -1.8456 -1.0684
12894SOL    HW239846   1.351   7.061   3.227 -0.8852  0.7646  0.0591
12895SOL     OW39847   3.522   2.353   4.847 -0.1009 -0.0351 -0.0183
12895SOL    HW139848   3.519   2.407   4.768  0.9685 -1.3638 -1.0110
12895SOL    HW239849   3.448   2.385   4.900 -1.5104  0.2127 -1.9948
12896SOL     OW39850   5.042   1.384   0.654 -0.2197 -0.6872 -0.1426
12896SOL    HW139851   5.086   1.386   0.569 -0.3660  2.0511 -0.2504
12896SOL    HW239852   4.962   1.435   0.641  0.6991  1.5348  2.0174
12897SOL     OW39853   0.616   6.836   3.255  0.6922  0.2038  0.3978
12897SOL    HW139854   0.655   6.863   3.172 -0.2298 -0.9871 -0.4602
12897SOL    HW239855   0.569   6.914   3.285  1.0592  0.6559 -0.1741
12898SOL     OW39856   7.346   2.665   1.504  0.1110  0.0350  0.0372
12898SOL    HW139857   7.394   2.684   1.585  0.6859 -0.2986 -0.2149
12898SOL    HW239858   7.413   2.670   1.435 -0.6960  2.1252 -0.6723
12899SOL     OW39859   6.978   0.113   0.069 -0.5646  0.0137 -0.2882
12899SOL    HW139860   7.032   0.060   0.010  0.9540  0.5860  0.5263
12899SOL    HW239861   7.015   0.096   0.156  0.0511  2.4589 -0.0085
12900SOL     OW39862   8.070   6.876   2.039 -0.3662 -0.7253  0.0518
12900SOL    HW139863   7.985   6.842   2.070 -1.1390 -1.0475 -2.2306
12900SOL    HW239864   8.073   6.965   2.072 -1.0441 -1.0909  1.1652
12901SOL     OW39865   5.344   1.241   3.305  0.2622  0.3121 -0.2825
12901SOL    HW139866   5.391   1.293   3.239 -0.5327 -0.9052 -1.8905
12901SOL    HW239867   5.410   1.220   3.371  0.5924  3.3662  0.5149
12902SOL     OW39868   8.665   5.601   6.056  0.2878  0.5023  0.0397
12902SOL    HW139869   8.589   5.603   6.114  0.7242 -2.3378  0.8608
12902SOL    HW239870   8.739   5.583   6.114  1.2039  0.6888 -1.0416
12903SOL     OW39871   1.580   8.304   5.074  0.0022 -0.1434  0.2562
12903SOL    HW139872   1.572   8.342   4.986 -0.8465  0.7988  0.7311
12903SOL    HW239873   1.530   8.362   5.130  0.5535 -0.7331  1.3847
12904SOL     OW39874   1.317   0.351   4.794  0.2891  0.1892 -0.2335
12904SOL    HW139875   1.295   0.422   4.854 -1.5258 -0.7075  0.2332
12904SOL    HW239876   1.393   0.309   4.834  1.3479  1.7766 -0.4822
12905SOL     OW39877   4.865   1.757   0.784  0.0668  0.3176  0.0681
12905SOL    HW139878   4.861   1.781   0.691 -0.6041 -1.9427 -0.5397
12905SOL    HW239879   4.819   1.674   0.789 -0.0566  0.4750  2.4883
12906SOL     OW39880   2.788   2.191   4.677  0.4525  0.2619 -0.3088
12906SOL    HW139881   2.721   2.138   4.719  0.3178 -1.2228 -2.2715
12906SOL    HW239882   2.867   2.178   4.730  0.0457 -0.7323  0.0586
12907SOL     OW39883   1.590   0.992   4.372 -0.3199 -0.4528 -0.2218
12907SOL    HW139884   1.596   1.060   4.305 -0.8455 -0.8505 -0.6841
12907SOL    HW239885   1.520   0.934   4.341 -2.0724  0.5070  1.7300
12908SOL     OW39886   2.001   5.776   7.695  0.0606 -0.5371 -0.0075
12908SOL    HW139887   2.012   5.708   7.762  0.5416 -0.1812  0.2802
12908SOL    HW239888   1.980   5.727   7.615  1.3991 -1.1160 -0.0366
12909SOL     OW39889   3.769   3.704   6.532 -0.1619 -0.3169  0.1782
12909SOL    HW139890   3.747   3.627   6.479 -1.1583 -1.6747  2.3732
12909SOL    HW239891   3.863   3.696   6.548  0.2314  0.3248 -1.6114
12910SOL     OW39892   7.856   3.576   2.743  0.0843  0.7874  0.1387
12910SOL    HW139893   7.894   3.495   2.777 -0.7478 -0.0137 -0.7519
12910SOL    HW239894   7.821   3.551   2.657  1.2142  2.4854 -0.8569
12911SOL     OW39895   8.776   7.004   0.641 -0.5122 -0.0326 -0.1019
12911SOL    HW139896   8.815   7.050   0.715  0.8261 -0.0165 -0.7699
12911SOL    HW239897   8.852   6.969   0.593 -1.1246  1.9958 -2.7901
12912SOL     OW39898   2.155   2.072   6.706 -0.4578 -0.0729  0.5788
12912SOL    HW139899   2.157   1.984   6.745  2.2782  0.0503  0.9707
12912SOL    HW239900   2.071   2.077   6.662 -0.7687 -2.8503  0.6512
12913SOL     OW39901   0.909   1.718   8.436  0.5377  0.0307  0.3094
12913SOL    HW139902   0.863   1.657   8.494 -1.9278  1.2573 -0.2286
12913SOL    HW239903   0.935   1.664   8.361 -0.7636 -0.5941  0.2706
12914SOL     OW39904   2.400   1.089   5.915  0.0687 -0.3208 -0.3371
12914SOL    HW139905   2.363   1.178   5.910  1.7420  0.3758 -1.0678
12914SOL    HW239906   2.327   1.035   5.943 -1.3723  1.0599 -1.2326
12915SOL     OW39907   0.443   4.248   1.088  0.4151  0.4395  0.0119
12915SOL    HW139908   0.477   4.207   1.008  2.0047 -2.2838  1.9421
12915SOL    HW239909   0.356   4.209   1.100  0.4662  0.3254  0.0068
12916SOL     OW39910   8.844   1.539   4.024  0.0120  0.5857 -0.1624
12916SOL    HW139911   8.887   1.606   4.078 -1.3749  1.8531 -0.5669
12916SOL    HW239912   8.867   1.562   3.934  2.1219 -1.3855 -0.2015
12917SOL     OW39913   3.593   7.637   1.122  0.2761 -0.2642  0.0220
12917SOL    HW139914   3.614   7.629   1.215  2.9526 -0.0973 -0.4728
12917SOL    HW239915   3.636   7.719   1.095 -0.3321 -0.3775 -1.3900
12918SOL     OW39916   5.269   4.722   6.727  0.1943 -0.2147  0.2763
12918SOL    HW139917   5.260   4.647   6.787 -2.0992  0.6968  1.1812
12918SOL    HW239918   5.187   4.724   6.679 -0.2366  2.2623  0.9762
12919SOL     OW39919   3.274   8.524   7.523  0.4355  0.5752  0.1199
12919SOL    HW139920   3.366   8.509   7.502 -0.1831 -1.9227 -1.1764
12919SOL    HW239921   3.259   8.616   7.498  2.0572  0.3995 -1.7740
12920SOL     OW39922   3.377   1.745   3.644 -0.0935  0.7931  0.0433
12920SOL    HW139923   3.313   1.726   3.575 -1.2008  1.1314  0.9413
12920SOL    HW239924   3.431   1.815   3.609 -1.8165  2.2662  0.1710
12921SOL     OW39925   7.049   4.849   6.971 -0.0938 -0.5019 -0.1910
12921SOL    HW139926   6.974   4.807   6.929 -0.0839  0.4603 -1.1978
12921SOL    HW239927   7.013   4.886   7.052 -1.1404  1.4375 -1.4770
12922SOL     OW39928   6.868   3.578   0.337 -0.3467  0.2546  0.2027
12922SOL    HW139929   6.869   3.634   0.415 -1.7860 -0.3007  0.6642
12922SOL    HW239930   6.775   3.564   0.319 -0.0472  0.3616 -1.6385
12923SOL     OW39931   7.566   8.734   5.801 -0.0684 -0.2891 -0.2920
12923SOL    HW139932   7.580   8.658   5.859  0.8266  0.1631  0.1154
12923SOL    HW239933   7.496   8.783   5.843  0.3279 -0.1564  0.2372
12924SOL     OW39934   0.886   4.740   0.650  0.2151  0.3017  0.2643
12924SOL    HW139935   0.874   4.806   0.719 -0.3855  2.0706 -1.4208
12924SOL    HW239936   0.959   4.773   0.598 -1.0800  0.5236 -1.5143
12925SOL     OW39937   2.323   1.146   3.073  0.3957 -0.2096 -0.2528
12925SOL    HW139938   2.344   1.221   3.018  1.1530 -0.3093 -0.1187
12925SOL    HW239939   2.387   1.150   3.144  0.9154 -1.3735 -0.6240
12926SOL     OW39940   3.429   2.028   2.165  0.6023 -0.1452 -0.2720
12926SOL    HW139941   3.491   2.082   2.116  0.4589 -0.4212 -0.7705
12926SOL    HW239942   3.408   2.080   2.243  0.6274  0.4269 -0.6370
12927SOL     OW39943   3.741   4.652   5.999  0.4151  0.3757 -0.1376
12927SOL    HW139944   3.793   4.704   6.061  0.1128  1.4653 -0.7694
12927SOL    HW239945   3.650   4.676   6.020  0.2736  0.1101 -0.4486
12928SOL     OW39946   7.899   3.874   3.384  0.5012  0.1743  0.4390
12928SOL    HW139947   7.865   3.955   3.345 -1.0760 -0.2369  0.8822
12928SOL    HW239948   7.994   3.881   3.376  0.2971  0.9641 -1.7165
12929SOL     OW39949   5.616   6.192   2.465 -0.0035  0.0340 -0.7010
12929SOL    HW139950   5.560   6.154   2.533 -1.2161  0.9363 -1.1669
12929SOL    HW239951   5.706   6.176   2.496 -0.5261 -0.2875  0.7004
12930SOL     OW39952   0.769   7.983   0.052  0.2259 -0.6039  0.1804
12930SOL    HW139953   0.791   8.012   0.141 -1.1767 -0.6376  0.5652
12930SOL    HW239954   0.851   7.946   0.018  0.5639 -1.5066  1.8330
12931SOL     OW39955   6.197   8.844   4.419 -0.3976 -0.5593  0.4169
12931SOL    HW139956   6.162   8.926   4.454  2.0536  0.4385  0.7580
12931SOL    HW239957   6.195   8.856   4.324  0.9193  0.4045  0.4747
12932SOL     OW39958   7.397   5.746   4.237  0.0932  0.3608 -0.1013
12932SOL    HW139959   7.414   5.776   4.147 -1.1620  1.8474  0.1104
12932SOL    HW239960   7.394   5.651   4.230  1.7847  0.3402 -1.2939
12933SOL     OW39961   1.009   6.742   8.342 -0.0405  0.1049 -0.2942
12933SOL    HW139962   0.918   6.767   8.354  0.4359  1.1885  1.3602
12933SOL    HW239963   1.050   6.821   8.305  0.4388 -0.0067 -0.0022
12934SOL     OW39964   7.467   7.190   4.860  0.9310  0.7101 -0.3883
12934SOL    HW139965   7.524   7.264   4.881  0.2565  0.8461  0.9911
12934SOL    HW239966   7.398   7.192   4.925 -0.1459 -0.0393 -1.4567
12935SOL     OW39967   1.002   4.884   0.013  0.2085  0.0806  0.5206
12935SOL    HW139968   0.953   4.865  -0.067  0.8953  2.6546 -0.6254
12935SOL    HW239969   0.936   4.890   0.081 -0.6898  0.3717 -0.3614
12936SOL     OW39970   0.463   3.473   6.568  0.1429  0.3419  0.3058
12936SOL    HW139971   0.520   3.500   6.640  1.3869 -0.3663 -0.3839
12936SOL    HW239972   0.448   3.552   6.517 -0.1775  0.7035  0.9494
12937SOL     OW39973   2.528   4.275   1.296  0.0492  0.1582 -0.2313
12937SOL    HW139974   2.614   4.290   1.334  0.5669  0.8460 -1.6388
12937SOL    HW239975   2.479   4.356   1.315 -0.0972  0.0158  0.0148
12938SOL     OW39976   0.570   1.238   0.522 -0.4646 -0.2621 -0.3596
12938SOL    HW139977   0.505   1.292   0.567 -0.4384 -0.0920 -0.5265
12938SOL    HW239978   0.636   1.300   0.492 -0.2542 -0.4296 -0.2392
12939SOL     OW39979   4.353   1.651   3.081 -0.3195  0.0216  0.2635
12939SOL    HW139980   4.322   1.579   3.026 -1.6983  2.4576 -2.4502
12939SOL    HW239981   4.448   1.641   3.083 -0.5542 -2.7662  1.4431
12940SOL     OW39982   8.544   1.718   2.438 -0.1013 -0.1726  0.4454
12940SOL    HW139983   8.461   1.705   2.392 -0.8807 -0.0061  1.7553
12940SOL    HW239984   8.521   1.773   2.513  1.4974  1.2555 -0.0512
12941SOL     OW39985   3.825   7.274   8.560  1.0089  0.1715  0.3764
12941SOL    HW139986   3.889   7.326   8.511  1.8208  0.4437  1.6634
12941SOL    HW239987   3.742   7.289   8.515  1.6013  0.9646 -0.4836
12942SOL     OW39988   1.543   1.241   4.776  0.0193 -0.5864  0.1575
12942SOL    HW139989   1.529   1.313   4.714  1.9424 -1.0696 -0.9227
12942SOL    HW239990   1.547   1.163   4.722  3.1502 -0.8812  0.5985
12943SOL     OW39991   7.743   7.184   1.573 -0.6986 -0.1044  0.0677
12943SOL    HW139992   7.802   7.184   1.649 -0.5408 -0.2112 -0.0541
12943SOL    HW239993   7.685   7.259   1.588 -1.8330 -1.1578  1.1963
12944SOL     OW39994   1.435   3.360   5.563  0.1551  0.1133 -0.2301
12944SOL    HW139995   1.520   3.383   5.527  0.2602 -1.8816 -1.4233
12944SOL    HW239996   1.447   3.271   5.596 -1.9088 -0.9947 -2.1792
12945SOL     OW39997   2.251   0.428   1.037  0.3899  0.2524 -0.3837
12945SOL    HW139998   2.289   0.350   0.998 -0.0619  0.3166 -0.9673
12945SOL    HW239999   2.198   0.395   1.110  0.0574 -0.0073 -0.7379
12946SOL     OW40000   4.794   4.159   2.346 -0.2542 -0.2970  0.0898
12946SOL    HW140001   4.777   4.144   2.439  0.0108  1.1309  0.3920
12946SOL    HW240002   4.796   4.254   2.337  1.5089 -0.3870 -1.0279
12947SOL     OW40003   1.060   1.063   2.279  0.3246 -0.2750 -0.4045
12947SOL    HW140004   1.108   1.100   2.205 -0.7859  0.1853 -0.9140
12947SOL    HW240005   1.096   0.975   2.289  1.2469  0.0467 -0.7800
12948SOL     OW40006   7.609   4.785   6.460 -0.2109 -0.0252 -0.1284
12948SOL    HW140007   7.557   4.712   6.494  3.0220 -3.1320 -1.2781
12948SOL    HW240008   7.593   4.784   6.366 -0.4578  1.1309 -0.1178
12949SOL     OW40009   2.345   6.155   3.214 -0.3764  0.0262 -0.2594
12949SOL    HW140010   2.407   6.082   3.217 -0.1032  0.2797  0.5308
12949SOL    HW240011   2.297   6.149   3.296  0.0122  1.0380  0.0672
12950SOL     OW40012   5.505   0.589   4.636  0.2639 -0.1082  0.7077
12950SOL    HW140013   5.459   0.609   4.555  0.6128  0.2824  0.6038
12950SOL    HW240014   5.592   0.563   4.608  0.3248 -0.1605  0.9466
12951SOL     OW40015   1.724   3.782   0.285 -0.1445 -0.3992 -0.0093
12951SOL    HW140016   1.757   3.845   0.349  0.7739 -1.4022  0.5414
12951SOL    HW240017   1.694   3.708   0.338 -0.7916 -0.6139 -0.6618
12952SOL     OW40018   0.080   3.784   1.004 -0.4205 -0.1856  0.1280
12952SOL    HW140019   0.126   3.769   1.086  1.0664  2.2131 -0.1721
12952SOL    HW240020   0.014   3.850   1.025  1.2505  1.9351 -0.8875
12953SOL     OW40021   1.341   7.555   8.764  0.0315 -0.2151 -0.1345
12953SOL    HW140022   1.434   7.550   8.785 -0.3262 -1.3932  1.2883
12953SOL    HW240023   1.318   7.466   8.735 -0.5289  0.2240 -1.1036
12954SOL     OW40024   7.125   4.414   0.999  0.0676 -0.1516 -0.0449
12954SOL    HW140025   7.213   4.432   1.032  0.3320 -2.0369  0.4229
12954SOL    HW240026   7.067   4.467   1.054  0.9660  2.9038 -1.8105
12955SOL     OW40027   5.846   3.411   6.818  0.0672  0.8063  0.5636
12955SOL    HW140028   5.848   3.349   6.891 -1.8983  0.4747  0.4146
12955SOL    HW240029   5.930   3.399   6.774  0.9690  0.4411  2.2854
12956SOL     OW40030   7.531   7.875   5.686  0.5259  0.3220  0.4963
12956SOL    HW140031   7.612   7.831   5.659 -0.6567 -0.8130 -1.3855
12956SOL    HW240032   7.478   7.879   5.607 -0.6229  2.5774  1.2935
12957SOL     OW40033   5.349   3.420   1.658  0.1529 -0.4740 -0.8906
12957SOL    HW140034   5.336   3.465   1.742 -2.8529  0.3843 -1.6713
12957SOL    HW240035   5.309   3.334   1.671 -0.4723 -0.2776 -1.4501
12958SOL     OW40036   6.545   4.760   4.275 -0.4974 -0.3037  0.1659
12958SOL    HW140037   6.495   4.825   4.226 -0.2966 -1.2348 -1.3391
12958SOL    HW240038   6.480   4.712   4.326 -0.8295  0.1012  0.1226
12959SOL     OW40039   2.441   3.063   1.198  0.3044 -0.4453 -0.2407
12959SOL    HW140040   2.416   3.153   1.217 -0.7467 -0.8703  0.4472
12959SOL    HW240041   2.512   3.071   1.133  1.0579  0.8996  0.7048
12960SOL     OW40042   3.045   3.410   3.901 -0.0039  0.7318 -0.0430
12960SOL    HW140043   3.117   3.463   3.866 -0.9711  1.7274 -0.6070
12960SOL    HW240044   3.010   3.363   3.826 -0.1269  0.4913  0.1641
12961SOL     OW40045   7.959   6.048   1.547 -0.0248 -0.4977  0.4076
12961SOL    HW140046   8.033   6.045   1.486 -0.6724 -0.3789 -0.4114
12961SOL    HW240047   7.946   5.958   1.575 -0.2139 -0.6823 -0.2591
12962SOL     OW40048   2.093   4.590   1.805 -0.3327  0.2028  0.6879
12962SOL    HW140049   2.147   4.515   1.782 -0.5819  0.8183 -2.3139
12962SOL    HW240050   2.003   4.560   1.790 -0.6027  0.3593  1.9234
12963SOL     OW40051   0.710   3.122   8.825 -0.3441 -0.2110  0.0917
12963SOL    HW140052   0.708   3.150   8.916 -2.6017 -0.1383  0.0569
12963SOL    HW240053   0.803   3.111   8.805  0.3020  1.7345  1.7889
12964SOL     OW40054   7.396   0.945   7.893  0.2436 -0.3515  0.0001
12964SOL    HW140055   7.404   0.854   7.923  2.2425 -0.1072  0.3731
12964SOL    HW240056   7.481   0.963   7.852 -1.8375 -0.3341 -5.0525
12965SOL     OW40057   0.440   1.216   3.206  0.1124 -0.5564  0.0589
12965SOL    HW140058   0.470   1.129   3.178  0.0434 -0.8644  0.9119
12965SOL    HW240059   0.365   1.235   3.150  0.2080 -0.9973 -0.2194
12966SOL     OW40060   5.521   4.291   3.279 -0.0884  0.2186 -0.3002
12966SOL    HW140061   5.523   4.195   3.284  0.1726  0.1928 -0.8200
12966SOL    HW240062   5.584   4.320   3.345  1.8240 -0.0492 -1.9203
12967SOL     OW40063   7.847   4.445   4.528  0.2962 -0.3036  0.2419
12967SOL    HW140064   7.798   4.363   4.535  0.6483 -0.4704  0.8268
12967SOL    HW240065   7.890   4.455   4.613 -1.2517  1.4771  0.8859
12968SOL     OW40066   0.604   0.016   4.945 -0.1602 -0.9653  0.3487
12968SOL    HW140067   0.642  -0.006   5.029  1.0404 -1.1064 -0.2152
12968SOL    HW240068   0.663  -0.023   4.880 -0.5853 -0.1351 -0.5753
12969SOL     OW40069   6.695   8.851   4.481  0.4430  0.7108 -0.2227
12969SOL    HW140070   6.626   8.796   4.518  0.5597  0.2252 -0.7121
12969SOL    HW240071   6.773   8.828   4.530  0.3491  0.9443  0.0378
12970SOL     OW40072   4.922   7.088   4.529 -0.0717  0.2406 -0.2019
12970SOL    HW140073   4.876   7.004   4.536  2.1278 -1.2818 -2.2731
12970SOL    HW240074   4.998   7.077   4.586  1.0329  0.1473 -1.6244
12971SOL     OW40075   3.862   2.162   6.401 -0.2373 -0.2765 -0.1308
12971SOL    HW140076   3.779   2.147   6.447  0.4610  0.2155  1.3701
12971SOL    HW240077   3.928   2.162   6.471  0.9274  0.1370 -1.1973
12972SOL     OW40078   4.543   4.281   1.555 -0.1919 -0.0136 -0.1703
12972SOL    HW140079   4.563   4.212   1.492 -0.3711 -0.6296  0.4374
12972SOL    HW240080   4.608   4.270   1.625 -1.6371 -1.0517  1.0604
12973SOL     OW40081   3.428   1.649   4.905  0.5743  0.0088 -0.0604
12973SOL    HW140082   3.373   1.691   4.971  1.7080 -0.2080  1.0696
12973SOL    HW240083   3.442   1.717   4.839 -0.6691  0.1942 -0.1483
12974SOL     OW40084   7.786   8.121   2.750 -0.0017 -0.2912  0.0097
12974SOL    HW140085   7.693   8.141   2.749 -0.1618 -0.9128  1.1244
12974SOL    HW240086   7.829   8.205   2.768 -0.3089  0.0611 -0.8502
12975SOL     OW40087   2.292   2.767   3.039 -0.0799 -0.0755 -0.2355
12975SOL    HW140088   2.369   2.754   3.095 -0.2296 -0.5779 -0.1414
12975SOL    HW240089   2.238   2.690   3.055  0.0347 -0.3910 -1.3247
12976SOL     OW40090   6.167   3.102   8.019  0.2910  0.4908 -0.2287
12976SOL    HW140091   6.108   3.067   8.085  0.4362 -1.3366 -1.0008
12976SOL    HW240092   6.225   3.029   7.997  0.4052  1.1065 -2.1789
12977SOL     OW40093   7.763   3.532   7.510 -0.4692  0.2667  0.3963
12977SOL    HW140094   7.689   3.587   7.535 -0.8301  0.4822 -1.0392
12977SOL    HW240095   7.825   3.593   7.469 -0.6968 -0.3152 -0.8527
12978SOL     OW40096   3.169   6.179   6.177  0.3198  0.6786  0.5602
12978SOL    HW140097   3.146   6.199   6.087 -1.6571  0.0218  0.8787
12978SOL    HW240098   3.205   6.262   6.211  2.4551  0.5529 -1.1627
12979SOL     OW40099   1.465   3.486   6.230  0.3041 -0.0575  0.3839
12979SOL    HW140100   1.414   3.448   6.302  2.2481  0.4051  2.0915
12979SOL    HW240101   1.401   3.540   6.182 -1.2969 -1.2703  1.0450
12980SOL     OW40102   8.378   8.818   7.292  0.3818  0.3552 -0.1796
12980SOL    HW140103   8.395   8.882   7.360 -0.4994  1.2690 -0.7878
12980SOL    HW240104   8.282   8.817   7.283  0.3907 -0.8827 -0.3411
12981SOL     OW40105   6.748   0.116   8.447 -0.1752 -0.7190 -0.4158
12981SOL    HW140106   6.750   0.206   8.413  0.7068 -0.5076  0.1657
12981SOL    HW240107   6.838   0.100   8.476 -0.1838 -2.0078 -1.0604
12982SOL     OW40108   8.800   5.128   3.493  0.2439 -0.2137  0.3313
12982SOL    HW140109   8.811   5.090   3.406 -0.0870 -0.9917  0.6142
12982SOL    HW240110   8.766   5.055   3.546 -0.7448  0.5692  0.8082
12983SOL     OW40111   0.944   2.809   5.609 -0.1262  0.1980 -0.1541
12983SOL    HW140112   0.894   2.765   5.541 -0.0317 -1.7344  0.9701
12983SOL    HW240113   0.881   2.827   5.679  0.2370  0.0359  0.2210
12984SOL     OW40114   7.160   5.171   7.488 -0.3691 -0.0623 -0.4580
12984SOL    HW140115   7.213   5.200   7.563 -0.7079 -0.8026  0.0827
12984SOL    HW240116   7.132   5.252   7.446 -0.8699  0.4046  0.7222
12985SOL     OW40117   7.411   6.310   6.466  0.1427  0.3023  0.3623
12985SOL    HW140118   7.486   6.256   6.441 -0.3260  0.8369 -2.4512
12985SOL    HW240119   7.334   6.260   6.439 -0.4913  0.5240  1.6658
12986SOL     OW40120   7.249   5.487   4.778 -0.2337  0.4915  0.6584
12986SOL    HW140121   7.259   5.392   4.789  0.5807  0.4031 -0.6041
12986SOL    HW240122   7.270   5.524   4.864  0.8727 -0.3882  0.7879
12987SOL     OW40123   3.053   2.470   6.080 -0.1521 -0.4671 -0.2982
12987SOL    HW140124   2.986   2.425   6.029 -0.3781 -0.0421 -0.3794
12987SOL    HW240125   3.018   2.558   6.095  0.4084 -0.2218 -0.3857
12988SOL     OW40126   4.875   5.744   3.671  0.1580  0.2732  0.0802
12988SOL    HW140127   4.802   5.803   3.653  0.0558  0.4921  1.1789
12988SOL    HW240128   4.879   5.687   3.594  0.4704  1.9024 -1.1750
12989SOL     OW40129   6.570   6.617   1.519 -0.0407  0.0239 -0.3751
12989SOL    HW140130   6.489   6.668   1.524 -0.4838 -0.6505 -0.4944
12989SOL    HW240131   6.631   6.674   1.472 -0.6895  0.2372 -0.9755
12990SOL     OW40132   1.274   4.003   7.831 -0.6693  0.7930  0.0062
12990SOL    HW140133   1.357   3.977   7.871 -0.7070 -0.7927 -0.8239
12990SOL    HW240134   1.225   3.921   7.825 -2.1702  1.6531  0.1746
12991SOL     OW40135   6.382   1.829   4.739 -0.6871 -0.4646  0.0524
12991SOL    HW140136   6.378   1.737   4.714  1.0794 -1.2541  2.3139
12991SOL    HW240137   6.471   1.855   4.718 -1.5120  1.1504 -1.6854
12992SOL     OW40138   1.615   6.866   3.607  0.3747 -0.2669 -0.0098
12992SOL    HW140139   1.676   6.911   3.666  0.2478  0.0916 -0.1497
12992SOL    HW240140   1.627   6.773   3.626 -0.2117 -0.1262  1.1275
12993SOL     OW40141   1.971   2.350   3.532  0.1789 -0.5400 -0.1884
12993SOL    HW140142   1.974   2.427   3.589  1.4944 -0.6684 -0.0569
12993SOL    HW240143   1.993   2.277   3.590  0.0901 -0.8630 -0.5607
12994SOL     OW40144   4.095   7.314   3.413  0.9281  0.6379 -0.2961
12994SOL    HW140145   4.144   7.241   3.376  1.6214  0.6637  0.5262
12994SOL    HW240146   4.019   7.274   3.456  0.7116  0.5078 -0.8023
12995SOL     OW40147   8.577   8.320   4.732  0.3223 -0.3717 -0.7693
12995SOL    HW140148   8.671   8.309   4.746  0.0534 -0.6026  0.9751
12995SOL    HW240149   8.571   8.397   4.675  1.5681 -0.5716 -1.2073
12996SOL     OW40150   5.482   1.620   7.013  0.0121 -0.1850  0.1145
12996SOL    HW140151   5.391   1.591   7.026 -0.6694  1.5631 -0.5451
12996SOL    HW240152   5.519   1.556   6.953 -0.5366 -1.3550  0.9796
12997SOL     OW40153   1.878   4.162   0.694 -0.6407 -0.1397 -0.2970
12997SOL    HW140154   1.916   4.249   0.707 -0.4955 -0.0920 -1.0325
12997SOL    HW240155   1.834   4.144   0.777  1.2527 -0.3530  0.7128
12998SOL     OW40156   3.737   7.035   4.798 -1.2599  0.5121  0.4425
12998SOL    HW140157   3.756   6.993   4.882  0.1027 -0.4298 -0.2871
12998SOL    HW240158   3.669   7.099   4.817 -0.5842  0.7144  2.3718
12999SOL     OW40159   6.884   3.363   2.841 -0.3571  0.1815  0.2113
12999SOL    HW140160   6.922   3.316   2.915 -0.2869  1.0856  0.7596
12999SOL    HW240161   6.876   3.453   2.871 -0.1228  0.6125 -0.9598
13000SOL     OW40162   4.043   6.544   6.187  0.2740 -0.0083  0.1581
13000SOL    HW140163   4.133   6.557   6.218 -0.2511  1.4134  1.1585
13000SOL    HW240164   3.998   6.625   6.208 -0.9001 -0.1211 -1.6776
13001SOL     OW40165   5.260   6.850   2.939  0.1462  0.6597 -0.1420
13001SOL    HW140166   5.310   6.837   2.859  2.3230  2.0810  0.8941
13001SOL    HW240167   5.247   6.945   2.945  0.5615  0.6436  1.4779
13002SOL     OW40168   1.225   3.238   1.337  0.0698 -0.1488 -0.0556
13002SOL    HW140169   1.208   3.238   1.243 -0.7705  0.0599  0.0929
13002SOL    HW240170   1.269   3.321   1.353  0.6849 -0.4119 -0.3405
13003SOL     OW40171   7.526   6.390   2.084 -0.1010 -0.6714  0.1076
13003SOL    HW140172   7.615   6.360   2.068 -0.6093 -2.3805  0.2797
13003SOL    HW240173   7.520   6.400   2.179 -0.0406 -0.3802  0.0810
13004SOL     OW40174   1.447   3.811   7.620 -0.6563  0.5324 -0.2501
13004SOL    HW140175   1.484   3.760   7.547  1.0934 -0.9593  1.5505
13004SOL    HW240176   1.360   3.836   7.590 -0.4442 -0.9827 -2.3966
13005SOL     OW40177   4.267   4.940   4.026 -0.7459  0.4933 -0.0402
13005SOL    HW140178   4.291   4.933   4.118  0.5119  0.7944 -0.3195
13005SOL    HW240179   4.185   4.988   4.026 -0.2411  1.3952  0.8890
13006SOL     OW40180   1.802   7.110   4.297 -0.5211  0.1591  0.9272
13006SOL    HW140181   1.851   7.190   4.318 -0.1191 -0.9057  4.5862
13006SOL    HW240182   1.727   7.112   4.356  0.8362 -3.2811  3.0266
13007SOL     OW40183   8.759   4.202   4.815  0.4266  0.0425 -0.0867
13007SOL    HW140184   8.773   4.139   4.745  1.8037  2.1729 -1.8763
13007SOL    HW240185   8.714   4.153   4.883  0.3915 -2.5306 -1.8268
13008SOL     OW40186   5.768   8.713   7.626 -0.3589 -0.3010  0.0991
13008SOL    HW140187   5.815   8.796   7.633 -0.9042 -0.1302  2.9223
13008SOL    HW240188   5.676   8.737   7.633 -0.5838 -1.0549 -0.1519
13009SOL     OW40189   2.372   3.247   8.559 -0.1586 -0.0327  0.0022
13009SOL    HW140190   2.400   3.318   8.616 -0.0916 -0.6897  0.7968
13009SOL    HW240191   2.452   3.198   8.540 -0.0226  0.6668 -1.3658
13010SOL     OW40192   6.153   0.830   0.149 -0.2386 -0.3194 -0.0526
13010SOL    HW140193   6.218   0.830   0.219  0.5077 -1.5702 -0.7139
13010SOL    HW240194   6.169   0.911   0.100 -0.0229  0.0004  0.5432
13011SOL     OW40195   7.136   3.532   6.239 -0.2208 -0.3922 -0.3147
13011SOL    HW140196   7.116   3.598   6.172 -0.0052  0.0452  0.0448
13011SOL    HW240197   7.226   3.551   6.265 -0.1179 -0.9094 -0.2942
13012SOL     OW40198   8.544   0.273   6.812 -0.3796  0.1801  0.4534
13012SOL    HW140199   8.505   0.346   6.764  2.0071  0.9134 -0.5662
13012SOL    HW240200   8.553   0.305   6.902 -0.6044  0.6058  0.3273
13013SOL     OW40201   3.986   0.048   2.911  0.4234 -0.2959  0.8013
13013SOL    HW140202   3.916  -0.012   2.937  0.9734 -0.4727  1.9095
13013SOL    HW240203   4.060  -0.008   2.889  0.3608 -0.0900  0.0188
13014SOL     OW40204   6.235   3.185   3.751  0.4214  0.7151  0.3563
13014SOL    HW140205   6.201   3.182   3.662  2.4187 -1.4209 -0.4432
13014SOL    HW240206   6.296   3.259   3.752  0.0572  1.0187  0.0959
13015SOL     OW40207   0.227   0.093   4.750 -0.6959 -0.0721  0.2035
13015SOL    HW140208   0.223   0.154   4.676 -0.2560 -0.0738  0.1746
13015SOL    HW240209   0.282   0.136   4.814 -1.9217  0.3918  0.9795
13016SOL     OW40210   1.243   1.781   1.282 -0.6904 -0.3865  0.3890
13016SOL    HW140211   1.335   1.807   1.272 -0.2432 -1.2922  1.8406
13016SOL    HW240212   1.219   1.743   1.198  0.4164 -0.5784  0.1454
13017SOL     OW40213   5.514   2.690   8.217 -0.6589  0.0107 -0.6913
13017SOL    HW140214   5.430   2.708   8.175 -0.7839 -0.6981 -0.7562
13017SOL    HW240215   5.491   2.668   8.307 -0.7203 -1.8711 -1.1303
13018SOL     OW40216   7.477   0.395   2.000 -0.0011  0.0207 -1.1788
13018SOL    HW140217   7.450   0.485   1.982  2.9397  1.1843 -0.3796
13018SOL    HW240218   7.471   0.387   2.095  1.0757 -0.0767 -1.0972
13019SOL     OW40219   6.782   5.389   3.522 -0.6271 -0.0411  0.1069
13019SOL    HW140220   6.757   5.472   3.482  0.3348 -0.5266 -1.6423
13019SOL    HW240221   6.876   5.380   3.502 -1.2376 -2.7970 -2.3378
13020SOL     OW40222   4.349   2.823   4.584  0.4204 -0.1028 -0.6810
13020SOL    HW140223   4.313   2.785   4.664  0.9972 -0.8240 -0.7660
13020SOL    HW240224   4.303   2.907   4.575  0.2073 -0.1102  0.2921
13021SOL     OW40225   6.720   6.150   8.430  0.1188  0.1386 -0.0783
13021SOL    HW140226   6.745   6.234   8.468 -0.9746 -0.0706  1.1661
13021SOL    HW240227   6.689   6.172   8.342  1.1259  0.8495 -0.2680
13022SOL     OW40228   4.815   0.981   4.423 -0.3430  0.0738 -0.1480
13022SOL    HW140229   4.907   0.973   4.448 -0.3632 -1.7673 -0.5200
13022SOL    HW240230   4.805   0.920   4.350 -1.6093  1.1024 -0.8800
13023SOL     OW40231   8.545   2.824   1.806  0.2273  0.0743 -0.1632
13023SOL    HW140232   8.616   2.761   1.819  1.2604  1.0653 -0.8149
13023SOL    HW240233   8.542   2.875   1.887 -1.8581 -1.9281  1.1481
13024SOL     OW40234   4.888   3.725   0.265 -0.3695 -0.5456 -0.1596
13024SOL    HW140235   4.896   3.757   0.355  0.2683  1.5529 -0.9106
13024SOL    HW240236   4.977   3.700   0.240 -0.0356  1.3382 -1.0195
13025SOL     OW40237   3.115   3.241   1.609  0.1214 -0.1683  0.3413
13025SOL    HW140238   3.082   3.331   1.613  0.1522 -0.2102  1.8772
13025SOL    HW240239   3.083   3.208   1.525  2.4197  2.1620 -1.6401
13026SOL     OW40240   7.114   3.539   1.361  0.3504  0.3449  0.6500
13026SOL    HW140241   7.042   3.505   1.308 -0.2842  1.7487  0.5551
13026SOL    HW240242   7.104   3.497   1.446  0.4791 -0.7861  0.1249
13027SOL     OW40243   5.285   1.587   5.437  0.2116  0.2804 -0.0795
13027SOL    HW140244   5.353   1.520   5.447 -1.2790 -1.2864  0.0225
13027SOL    HW240245   5.328   1.658   5.390  1.5080 -1.3273 -1.4544
13028SOL     OW40246   5.579   7.805   8.193  0.2806 -0.0597 -0.2176
13028SOL    HW140247   5.598   7.892   8.227 -1.0127  0.8413 -1.6979
13028SOL    HW240248   5.665   7.769   8.171  0.7807  1.1621 -0.3211
13029SOL     OW40249   8.256   1.855   8.010 -0.3639  0.4573  0.1425
13029SOL    HW140250   8.202   1.886   8.083  0.0675 -1.2840  1.2691
13029SOL    HW240251   8.329   1.917   8.006 -1.6728  2.0214 -0.4903
13030SOL     OW40252   8.376   5.984   3.406 -0.5375  0.6635  0.7735
13030SOL    HW140253   8.421   6.034   3.338 -0.3224 -0.5896 -0.0328
13030SOL    HW240254   8.323   6.049   3.452 -0.8725  1.5086 -0.7380
13031SOL     OW40255   2.960   5.147   1.968 -0.0014 -0.2277  0.1188
13031SOL    HW140256   3.040   5.122   1.921  0.6737 -1.0067  1.6170
13031SOL    HW240257   2.899   5.075   1.952  0.1654 -0.4088  0.3065
13032SOL     OW40258   4.948   5.983   4.279 -0.1504  0.7098 -0.1333
13032SOL    HW140259   4.939   6.057   4.220  0.9052  0.9932  0.0381
13032SOL    HW240260   5.039   5.987   4.309 -0.5714  0.3850  1.2612
13033SOL     OW40261   4.624   0.688   5.319 -0.5606 -0.0307 -0.3440
13033SOL    HW140262   4.628   0.665   5.412 -0.9812 -0.8580 -0.5221
13033SOL    HW240263   4.620   0.783   5.318 -1.4184 -0.0455  0.5192
13034SOL     OW40264   6.614   3.714   8.355  0.4091 -0.3403 -0.0070
13034SOL    HW140265   6.674   3.643   8.378 -0.1389 -0.9426 -0.3834
13034SOL    HW240266   6.625   3.725   8.261 -2.1776 -2.5490 -0.7178
13035SOL     OW40267   7.112   4.755   3.194  0.2834  0.2972  0.3234
13035SOL    HW140268   7.174   4.823   3.171  1.6437 -0.5039  1.4238
13035SOL    HW240269   7.084   4.777   3.283  2.6634 -1.8171  1.7182
13036SOL     OW40270   0.576   4.825   4.090 -0.4753 -0.5778  0.1019
13036SOL    HW140271   0.504   4.776   4.051 -0.2455 -0.9419  0.1276
13036SOL    HW240272   0.639   4.836   4.019 -1.8013  2.3106 -0.7697
13037SOL     OW40273   4.852   3.611   5.835 -0.1051 -0.0418  0.3041
13037SOL    HW140274   4.884   3.701   5.841 -0.4881  0.1653 -0.6407
13037SOL    HW240275   4.783   3.605   5.901 -0.1107  0.3775  0.3334
13038SOL     OW40276   1.700   4.744   3.282 -0.4393 -0.2792  0.5046
13038SOL    HW140277   1.790   4.771   3.303 -0.1212 -0.2483 -0.8051
13038SOL    HW240278   1.649   4.825   3.289 -0.3838 -0.3082  1.3160
13039SOL     OW40279   1.819   6.723   8.476  0.1708  0.4271 -0.6470
13039SOL    HW140280   1.729   6.700   8.498  1.0979 -0.3925  2.8677
13039SOL    HW240281   1.824   6.713   8.381 -3.1462 -0.4326 -0.8423
13040SOL     OW40282   2.536   7.871   8.114 -0.0517 -0.3681  0.0015
13040SOL    HW140283   2.503   7.899   8.028  0.3253 -2.6937 -0.9796
13040SOL    HW240284   2.620   7.915   8.123 -0.6774  0.9217 -0.2025
13041SOL     OW40285   8.789   7.078   5.027  0.2583 -0.0117  0.1659
13041SOL    HW140286   8.732   7.052   5.099  1.3254 -1.3503  0.5567
13041SOL    HW240287   8.748   7.040   4.949 -1.3578  2.1288 -0.1411
13042SOL     OW40288   3.500   6.465   7.315 -0.7568  0.0811 -0.7760
13042SOL    HW140289   3.590   6.434   7.306 -0.3151  0.6418  1.3110
13042SOL    HW240290   3.505   6.559   7.299 -0.9549  0.1236 -0.5961
13043SOL     OW40291   3.450   8.433   3.276  0.1570 -0.3463 -0.6114
13043SOL    HW140292   3.395   8.453   3.200  1.0079  0.9338 -0.9202
13043SOL    HW240293   3.509   8.508   3.283  0.5932 -0.8025  0.8701
13044SOL     OW40294   3.715   4.098   0.608  0.2404 -0.3098 -0.2672
13044SOL    HW140295   3.806   4.069   0.620  0.1593 -0.0836  0.9867
13044SOL    HW240296   3.690   4.136   0.692 -1.1699 -0.7769 -0.4399
13045SOL     OW40297   4.792   6.867   7.814 -0.2138 -0.8017  0.2606
13045SOL    HW140298   4.854   6.939   7.798 -1.3244 -0.1890 -1.5442
13045SOL    HW240299   4.813   6.802   7.748 -0.1170 -1.5614  1.0221
13046SOL     OW40300   2.878   0.963   1.222 -0.1232 -0.2434  0.7127
13046SOL    HW140301   2.958   0.916   1.201 -0.0758  0.6619 -1.3898
13046SOL    HW240302   2.829   0.903   1.278  0.0563 -2.7085 -1.5862
13047SOL     OW40303   8.775   5.393   8.096 -1.0455  0.4346 -0.2442
13047SOL    HW140304   8.818   5.320   8.052  0.6446  1.0062  0.3673
13047SOL    HW240305   8.724   5.352   8.166 -0.9177 -0.2310 -0.5323
13048SOL     OW40306   3.515   2.698   2.024  0.3255 -0.2620 -0.0743
13048SOL    HW140307   3.507   2.663   2.112 -1.1331 -0.2899 -0.1932
13048SOL    HW240308   3.441   2.758   2.015  1.1429  0.6565 -0.8720
13049SOL     OW40309   4.232   3.371   0.407 -0.1637  0.7094  0.2168
13049SOL    HW140310   4.267   3.321   0.333 -1.6061 -0.0623  0.0107
13049SOL    HW240311   4.179   3.440   0.367 -1.0654  0.2035  0.5015
13050SOL     OW40312   8.334   7.125   5.534  0.2092  0.0494  0.1068
13050SOL    HW140313   8.397   7.186   5.497  0.7298 -0.3527  0.3261
13050SOL    HW240314   8.296   7.080   5.458  0.1626  0.3121 -0.0256
13051SOL     OW40315   6.319   2.475   4.577  0.1539  0.4343 -0.5760
13051SOL    HW140316   6.284   2.515   4.657 -2.1233 -2.1779 -0.1175
13051SOL    HW240317   6.402   2.435   4.605 -0.0179  0.5979  0.1865
13052SOL     OW40318   4.750   4.394   1.245 -0.5795  0.5410 -0.1049
13052SOL    HW140319   4.712   4.314   1.282  0.7693 -0.3061 -0.4619
13052SOL    HW240320   4.777   4.445   1.321  0.4123 -0.3061  0.1426
13053SOL     OW40321   5.363   7.609   8.252  0.6041  0.4354 -0.4458
13053SOL    HW140322   5.424   7.683   8.251 -1.1136  1.9691  0.7426
13053SOL    HW240323   5.355   7.586   8.344  0.6006 -0.8264 -0.7415
13054SOL     OW40324   1.701   3.517   1.406  0.0654  0.1927  0.3004
13054SOL    HW140325   1.729   3.494   1.318  0.8753  0.2482  0.5375
13054SOL    HW240326   1.665   3.605   1.397  0.4585  0.3320  0.0875
13055SOL     OW40327   7.776   6.297   2.031  0.6506 -0.0922 -0.3272
13055SOL    HW140328   7.822   6.321   1.950  1.3836  0.7178  0.3085
13055SOL    HW240329   7.838   6.242   2.079 -0.3558 -1.8580 -0.9685
13056SOL     OW40330   2.793   3.354   2.316 -0.1681 -0.5060  0.4565
13056SOL    HW140331   2.719   3.413   2.328  0.2233  0.0921 -0.0271
13056SOL    HW240332   2.847   3.367   2.394  1.6501  2.3342 -1.0758
13057SOL     OW40333   1.649   7.203   4.577 -0.1383 -0.9562 -0.1245
13057SOL    HW140334   1.622   7.280   4.528  0.3558 -0.5881  0.1756
13057SOL    HW240335   1.569   7.151   4.586 -0.8011  0.1888  0.8980
13058SOL     OW40336   1.993   5.755   8.441  0.3591 -0.1542  0.2312
13058SOL    HW140337   2.047   5.720   8.511  1.6893  0.5580 -0.3970
13058SOL    HW240338   2.054   5.806   8.387 -0.7327 -0.2077 -1.1110
13059SOL     OW40339   7.588   6.602   7.148 -0.2914 -0.2048  0.8973
13059SOL    HW140340   7.541   6.601   7.065 -0.4099  0.9471  0.9397
13059SOL    HW240341   7.676   6.631   7.126  0.4852 -2.4265  0.8087
13060SOL     OW40342   6.798   1.896   0.431 -0.1601 -0.2841 -0.0615
13060SOL    HW140343   6.766   1.937   0.351  0.3370 -0.1445 -0.1858
13060SOL    HW240344   6.833   1.968   0.484  0.8083 -0.5464 -0.3252
13061SOL     OW40345   6.514   7.000   1.619  0.5833 -0.2677  0.1952
13061SOL    HW140346   6.439   6.978   1.564  1.0282 -0.2458 -0.4275
13061SOL    HW240347   6.564   6.919   1.626  1.1547  0.0192 -0.4276
13062SOL     OW40348   3.471   1.403   4.587 -0.1827 -0.1843 -0.6673
13062SOL    HW140349   3.502   1.381   4.675  2.0360  1.8427 -0.8464
13062SOL    HW240350   3.509   1.336   4.531 -0.8312 -0.9394 -0.2264
13063SOL     OW40351   7.700   5.114   2.559 -0.2560  0.0309  0.2199
13063SOL    HW140352   7.739   5.028   2.543  1.7911  1.4519 -3.6540
13063SOL    HW240353   7.747   5.148   2.635 -0.7583 -1.9562  1.5120
13064SOL     OW40354   6.710   6.260   0.623  0.2562 -0.2082 -0.1665
13064SOL    HW140355   6.624   6.271   0.583 -0.3202  1.9194  1.5001
13064SOL    HW240356   6.704   6.178   0.671 -0.3123 -0.8175 -1.2330
13065SOL     OW40357   8.125   5.656   4.669 -0.1779  0.3162  0.3202
13065SOL    HW140358   8.155   5.747   4.666 -1.4606  0.8300  1.7518
13065SOL    HW240359   8.202   5.604   4.648  0.7388  1.7051  0.1456
13066SOL     OW40360   0.435   3.454   1.441 -0.9828 -0.3904  0.0680
13066SOL    HW140361   0.340   3.447   1.437 -1.0602  0.2933  0.5002
13066SOL    HW240362   0.451   3.532   1.496 -0.1617 -1.7784  1.9054
13067SOL     OW40363   5.608   6.635   0.781  0.3270  0.1510  0.2706
13067SOL    HW140364   5.513   6.631   0.775  0.3487  0.3551 -0.2264
13067SOL    HW240365   5.628   6.727   0.795  0.4807  0.1874 -0.1699
13068SOL     OW40366   5.233   4.702   6.046 -0.0242 -0.6167 -0.2596
13068SOL    HW140367   5.316   4.747   6.063  0.3711 -1.9029  1.5936
13068SOL    HW240368   5.185   4.760   5.987  1.4717  0.9918  0.0337
13069SOL     OW40369   5.457   4.475   8.541 -0.0666 -0.2008  0.2892
13069SOL    HW140370   5.363   4.491   8.543  0.1452  1.0110  1.3513
13069SOL    HW240371   5.467   4.400   8.482 -1.6711 -0.2470  0.0385
13070SOL     OW40372   3.217   8.818   7.248  0.2476 -0.3982 -0.2320
13070SOL    HW140373   3.133   8.796   7.209 -0.2435 -0.5534  0.8684
13070SOL    HW240374   3.200   8.819   7.343  1.1866  0.8057 -0.0492
13071SOL     OW40375   5.700   7.459   7.554  0.2840 -0.1552  0.1079
13071SOL    HW140376   5.790   7.475   7.580 -0.0733  0.7948  0.8168
13071SOL    HW240377   5.691   7.364   7.553  1.6741 -0.3185 -1.3498
13072SOL     OW40378   2.718   4.669   1.337  0.0156 -0.6970 -0.0064
13072SOL    HW140379   2.722   4.641   1.245 -2.0064  0.9678 -0.6656
13072SOL    HW240380   2.748   4.760   1.336  2.4057 -1.3781  1.4360
13073SOL     OW40381   2.396   0.295   8.325 -0.4128 -0.7888  0.4968
13073SOL    HW140382   2.361   0.242   8.254  1.3766 -0.0819 -0.9675
13073SOL    HW240383   2.319   0.317   8.378 -1.8251 -1.2347 -1.2764
13074SOL     OW40384   0.402   6.404   7.262  0.0535  0.0452 -0.4648
13074SOL    HW140385   0.469   6.418   7.196 -0.3300  1.7256 -0.5283
13074SOL    HW240386   0.363   6.319   7.239  1.6808 -0.6547 -0.8066
13075SOL     OW40387   1.526   5.644   5.247 -0.1655 -0.3763  0.6536
13075SOL    HW140388   1.524   5.601   5.161  1.6192  0.3283  0.2155
13075SOL    HW240389   1.463   5.716   5.239 -0.9589 -1.0791  0.3908
13076SOL     OW40390   7.807   4.801   7.640  0.1898  0.5394 -0.3906
13076SOL    HW140391   7.903   4.812   7.640  0.1784  0.8562 -1.5301
13076SOL    HW240392   7.780   4.819   7.730  1.4220 -1.7512  0.5295
13077SOL     OW40393   5.135   0.413   3.048 -0.1091 -0.2855 -0.0710
13077SOL    HW140394   5.182   0.466   3.113  0.8500 -0.4281 -0.6200
13077SOL    HW240395   5.141   0.464   2.968  0.3421 -0.9529 -0.4752
13078SOL     OW40396   1.446   4.696   0.455 -0.1906  0.3889  0.6212
13078SOL    HW140397   1.395   4.674   0.376 -0.9327  1.0172  0.9152
13078SOL    HW240398   1.480   4.783   0.438  0.8301 -0.0353  0.4215
13079SOL     OW40399   2.753   5.037   0.482 -0.1362 -0.1157  0.0684
13079SOL    HW140400   2.766   4.959   0.427  0.1934  0.9264 -1.4131
13079SOL    HW240401   2.837   5.049   0.525 -0.1060 -0.4413  0.1035
13080SOL     OW40402   0.358   4.699   3.999 -0.4436  0.0896 -0.3288
13080SOL    HW140403   0.326   4.777   3.953 -1.1189 -0.3307 -0.5860
13080SOL    HW240404   0.287   4.634   3.989  0.4637 -0.8516 -0.8828
13081SOL     OW40405   7.089   3.999   0.393  0.4585  0.2992  0.0250
13081SOL    HW140406   7.113   4.063   0.459  0.1283  0.2292  0.2133
13081SOL    HW240407   7.156   4.008   0.325  1.1463 -0.0347  0.6360
13082SOL     OW40408   7.716   2.711   8.189 -0.0005  0.0947  0.0122
13082SOL    HW140409   7.688   2.795   8.153  1.2409 -0.1140 -1.5738
13082SOL    HW240410   7.811   2.720   8.198  0.0775 -0.9409  0.3522
13083SOL     OW40411   3.088   3.139   4.804 -0.2950 -0.3541  0.0864
13083SOL    HW140412   3.136   3.110   4.882  0.6281  0.6130 -0.0931
13083SOL    HW240413   3.009   3.180   4.839 -0.6264 -1.2723  0.4331
13084SOL     OW40414   6.987   7.336   4.034 -0.0145 -0.2826 -0.2762
13084SOL    HW140415   7.005   7.305   4.123 -1.2484 -0.3526 -0.0253
13084SOL    HW240416   6.892   7.328   4.026 -0.1127  1.3252 -1.0101
13085SOL     OW40417   6.736   4.804   3.282 -0.2487 -0.5976 -0.2786
13085SOL    HW140418   6.643   4.797   3.261 -0.2125 -2.6768  0.0698
13085SOL    HW240419   6.774   4.848   3.206 -1.1843 -1.7598 -1.4676
13086SOL     OW40420   8.087   4.028   6.426  0.1660  0.0103 -0.0864
13086SOL    HW140421   8.015   3.981   6.470 -0.8952 -0.8823 -2.5766
13086SOL    HW240422   8.159   3.966   6.425  0.2990  0.1487  0.6371
13087SOL     OW40423   4.149   8.786   7.845  0.3624 -0.2984  0.4465
13087SOL    HW140424   4.229   8.800   7.896  0.3155  0.3154  0.3553
13087SOL    HW240425   4.154   8.851   7.775 -0.1361 -0.3710  0.3460
13088SOL     OW40426   5.685   4.265   4.478  0.4425  0.4101  0.0895
13088SOL    HW140427   5.684   4.237   4.569 -1.0952 -1.3985 -0.4323
13088SOL    HW240428   5.635   4.347   4.477 -1.5149 -0.7357  0.5737
13089SOL     OW40429   0.300   2.399   1.820  0.1052  0.6526  0.2618
13089SOL    HW140430   0.356   2.422   1.746  0.4861 -0.0348  0.3306
13089SOL    HW240431   0.212   2.428   1.794  0.0202 -0.6268 -0.9553
13090SOL     OW40432   0.636   7.208   7.939 -0.1248  0.2419  0.2010
13090SOL    HW140433   0.669   7.139   7.998  0.2618  0.4174  0.1921
13090SOL    HW240434   0.677   7.288   7.972  0.5640  0.2593 -0.6652
13091SOL     OW40435   5.017   0.176   2.957 -0.3684  0.2011  0.1927
13091SOL    HW140436   5.061   0.257   2.982  0.8783  0.2221 -1.8761
13091SOL    HW240437   4.973   0.147   3.037 -0.2524  2.5210  1.1591
13092SOL     OW40438   2.361   6.632   2.827  0.0785  0.1381 -0.1836
13092SOL    HW140439   2.335   6.543   2.802 -1.2940  0.4433  0.1114
13092SOL    HW240440   2.291   6.688   2.796  0.6118  1.0561  0.2217
13093SOL     OW40441   6.574   0.060   2.282  0.5026  0.3628 -0.0552
13093SOL    HW140442   6.612   0.070   2.194  1.6315  0.9474  0.4832
13093SOL    HW240443   6.552   0.150   2.308  1.0119  0.3005  0.6135
13094SOL     OW40444   1.235   0.298   4.297  0.3269 -0.0618  0.2805
13094SOL    HW140445   1.255   0.373   4.353 -1.2175  1.3359 -0.9259
13094SOL    HW240446   1.140   0.298   4.289  0.3688 -1.4570 -0.6908
13095SOL     OW40447   2.478   4.326   5.682  0.1351 -0.4606 -0.3091
13095SOL    HW140448   2.493   4.232   5.686  0.9503 -0.3685 -0.9310
13095SOL    HW240449   2.514   4.353   5.597  0.9849  0.5926  0.3544
13096SOL     OW40450   0.076   4.521   7.652 -0.5183 -0.2062 -0.6108
13096SOL    HW140451   0.172   4.521   7.659 -0.6119  0.2969  1.0405
13096SOL    HW240452   0.046   4.545   7.739 -2.1741 -0.8544 -0.9770
13097SOL     OW40453   1.570   7.586   0.635 -0.3938  0.3982  0.1833
13097SOL    HW140454   1.578   7.593   0.731  0.2055  0.1799  0.1535
13097SOL    HW240455   1.604   7.499   0.615  2.9252  1.7242 -0.5759
13098SOL     OW40456   0.652   2.526   3.538 -0.3389  0.1424  0.3985
13098SOL    HW140457   0.673   2.467   3.610 -1.7315 -1.4175 -0.3919
13098SOL    HW240458   0.557   2.531   3.538 -0.6490 -2.2484 -2.9851
13099SOL     OW40459   4.552   1.317   3.637  0.0680 -0.3342  0.5630
13099SOL    HW140460   4.535   1.223   3.630 -2.7254  0.1399 -0.1368
13099SOL    HW240461   4.579   1.343   3.549 -2.2413 -0.0426 -0.1429
13100SOL     OW40462   6.406   1.445   4.003 -0.1127 -0.2909 -0.0940
13100SOL    HW140463   6.401   1.382   3.931 -1.1130  0.7572 -0.9876
13100SOL    HW240464   6.316   1.476   4.014  0.0058 -0.4978  1.6990
13101SOL     OW40465   5.606   5.235   6.813  0.2717 -0.2461  0.3020
13101SOL    HW140466   5.558   5.218   6.894 -0.1778 -0.3638  0.0159
13101SOL    HW240467   5.665   5.160   6.805 -0.1547 -0.5693  0.1775
13102SOL     OW40468   1.084   8.077   7.026 -0.3035 -0.0512 -0.5170
13102SOL    HW140469   1.162   8.131   7.028  0.8638 -1.6302  1.9816
13102SOL    HW240470   1.077   8.048   6.935  0.7525  1.7886 -1.2362
13103SOL     OW40471   7.623   2.938   4.909 -0.3371  0.4910 -0.5062
13103SOL    HW140472   7.635   3.028   4.940 -0.0311  0.0450  0.7670
13103SOL    HW240473   7.536   2.913   4.942 -0.4017  0.3007 -0.8154
13104SOL     OW40474   2.541   8.597   5.225 -0.0852 -0.0689  0.0511
13104SOL    HW140475   2.588   8.541   5.164 -1.2098 -0.9256 -0.0678
13104SOL    HW240476   2.609   8.651   5.266  0.8800 -0.6916 -0.6939
13105SOL     OW40477   2.639   7.883   8.507 -0.1078 -0.0244 -0.4425
13105SOL    HW140478   2.651   7.978   8.509 -0.9746  0.1164 -1.2991
13105SOL    HW240479   2.661   7.855   8.596 -3.9491  1.5358  1.2593
13106SOL     OW40480   6.346   2.003   1.031  0.0645  0.0452 -0.1624
13106SOL    HW140481   6.403   1.935   0.993 -0.2821 -0.3578  0.0338
13106SOL    HW240482   6.399   2.083   1.026  0.8950 -0.4378  0.5734
13107SOL     OW40483   6.575   5.512   5.287  0.2362 -0.9469 -0.1952
13107SOL    HW140484   6.614   5.507   5.199  0.1172  2.0754 -0.5319
13107SOL    HW240485   6.483   5.492   5.273 -0.1057  1.0113 -1.1254
13108SOL     OW40486   1.936   8.258   1.785 -0.2209  0.3077  0.1202
13108SOL    HW140487   1.967   8.169   1.768  0.8628  1.0979 -2.4344
13108SOL    HW240488   1.990   8.289   1.858 -0.2914 -0.9199  0.7240
13109SOL     OW40489   6.090   1.541   8.614 -0.0717 -0.0696 -0.6336
13109SOL    HW140490   6.050   1.598   8.679 -0.7470 -1.0646 -0.1479
13109SOL    HW240491   6.140   1.477   8.665  1.8525  0.9049 -1.2145
13110SOL     OW40492   0.072   1.151   1.454 -0.3694  0.2552  0.3933
13110SOL    HW140493   0.028   1.070   1.428 -1.2017  0.2027  1.8300
13110SOL    HW240494   0.161   1.125   1.478 -0.3262 -0.0668 -0.1230
13111SOL     OW40495   1.840   6.963   8.062 -0.2274  0.0753  0.0886
13111SOL    HW140496   1.899   6.890   8.082  0.2936  0.5244  0.2084
13111SOL    HW240497   1.831   6.962   7.967 -0.6034 -0.4379  0.1272
13112SOL     OW40498   8.650   1.081   1.549 -0.2174 -0.6430 -0.1655
13112SOL    HW140499   8.623   1.000   1.593  1.4347 -0.5791  1.0209
13112SOL    HW240500   8.680   1.138   1.619  0.8461  0.1245 -1.2077
13113SOL     OW40501   8.582   1.346   6.769 -0.2517 -0.2639 -0.4673
13113SOL    HW140502   8.662   1.390   6.798 -0.0425 -1.3212  0.6838
13113SOL    HW240503   8.593   1.335   6.675  0.3557  0.7787 -0.5311
13114SOL     OW40504   7.904   7.954   1.173 -0.2432 -0.3690  0.4016
13114SOL    HW140505   7.885   7.945   1.080  0.4129 -1.0631  0.3260
13114SOL    HW240506   7.850   7.888   1.216  1.6335 -2.1321  0.2136
13115SOL     OW40507   1.544   8.430   3.720 -0.4551 -0.0836 -0.1461
13115SOL    HW140508   1.538   8.405   3.812 -0.9941  0.2848 -0.0725
13115SOL    HW240509   1.507   8.356   3.673  0.3910 -0.5342 -0.1113
13116SOL     OW40510   6.456   8.432   7.773  0.4211 -0.0159 -0.0272
13116SOL    HW140511   6.497   8.350   7.800 -0.9284 -0.5011  0.6466
13116SOL    HW240512   6.406   8.461   7.850 -1.7670 -0.3042 -1.2367
13117SOL     OW40513   5.421   1.903   5.676  0.5547 -0.6586 -0.4362
13117SOL    HW140514   5.475   1.880   5.600 -0.8972 -1.1177 -1.3930
13117SOL    HW240515   5.336   1.928   5.637 -0.2367 -0.9617  1.0386
13118SOL     OW40516   1.991   2.601   6.013  0.0171 -0.3426 -0.0568
13118SOL    HW140517   1.949   2.520   5.983 -0.9050  0.0174  0.2437
13118SOL    HW240518   2.061   2.571   6.072 -0.3274 -0.9167  0.0677
13119SOL     OW40519   1.798   1.170   5.808 -0.5154 -0.6027  0.0856
13119SOL    HW140520   1.757   1.173   5.721  1.0392  0.2424 -0.6674
13119SOL    HW240521   1.773   1.253   5.849 -1.4078 -1.0853  0.5453
13120SOL     OW40522   4.297   3.771   5.078 -0.3056 -0.1694 -0.0824
13120SOL    HW140523   4.215   3.816   5.055  1.4156  1.8273 -3.0173
13120SOL    HW240524   4.300   3.775   5.174 -3.1688  0.4911  0.0849
13121SOL     OW40525   8.535   1.455   8.129 -0.5728  0.6821 -0.6849
13121SOL    HW140526   8.477   1.383   8.103 -1.8660  1.1494  0.7799
13121SOL    HW240527   8.476   1.522   8.163  0.8402  0.9997  1.3013
13122SOL     OW40528   7.664   0.417   1.668 -0.3215 -0.0432  0.0536
13122SOL    HW140529   7.572   0.396   1.650 -0.5402  0.0021  1.0823
13122SOL    HW240530   7.669   0.424   1.763  0.4474  1.3187 -0.0602
13123SOL     OW40531   7.887   7.319   3.719  0.9051  0.5024  0.1823
13123SOL    HW140532   7.966   7.305   3.667  0.4672  1.7648 -0.8660
13123SOL    HW240533   7.815   7.312   3.657  0.1737 -0.4544  1.0930
13124SOL     OW40534   0.756   2.768   5.434  0.5876 -0.2066 -0.2315
13124SOL    HW140535   0.747   2.682   5.393 -1.3013  0.1424 -0.6404
13124SOL    HW240536   0.696   2.765   5.510 -0.1957  1.0139 -0.7662
13125SOL     OW40537   4.141   8.269   3.229 -0.4962  0.1086 -0.0089
13125SOL    HW140538   4.229   8.305   3.239 -0.2010 -0.3107 -1.0359
13125SOL    HW240539   4.152   8.174   3.228 -0.6219  0.0534 -2.6643
13126SOL     OW40540   4.956   7.703   1.533 -0.4399  0.0174 -0.9854
13126SOL    HW140541   4.925   7.746   1.612  0.8436 -2.7249  1.1914
13126SOL    HW240542   5.048   7.730   1.526 -0.1306 -0.9077 -0.6287
13127SOL     OW40543   7.057   3.846   3.987 -0.0959  0.2987 -0.4616
13127SOL    HW140544   7.011   3.766   4.014  0.3264  0.9593  2.5937
13127SOL    HW240545   6.998   3.917   4.012  0.2869  1.0052 -1.5210
13128SOL     OW40546   3.056   2.292   1.797  0.0014 -0.1508  0.1531
13128SOL    HW140547   3.106   2.221   1.836 -0.4087 -0.3242  0.3759
13128SOL    HW240548   3.099   2.310   1.714 -1.0575 -2.0271 -0.8707
13129SOL     OW40549   6.210   5.721   4.534 -0.1372 -0.0698  0.9185
13129SOL    HW140550   6.138   5.712   4.472  0.3342  1.6226  0.0622
13129SOL    HW240551   6.171   5.762   4.611 -0.3078 -0.1585  0.8776
13130SOL     OW40552   5.018   7.922   7.591  0.1005  0.1781  0.3748
13130SOL    HW140553   4.961   7.874   7.530  0.6718  0.6302 -0.5403
13130SOL    HW240554   5.025   8.010   7.552  1.9641 -0.0732  0.0870
13131SOL     OW40555   6.203   6.125   8.482 -0.0908 -0.2798 -0.5703
13131SOL    HW140556   6.259   6.136   8.559  1.0383  2.7572 -1.6778
13131SOL    HW240557   6.239   6.049   8.437  2.5295  0.8888 -0.6475
13132SOL     OW40558   2.074   4.807   8.191 -0.0181 -0.0257  0.2895
13132SOL    HW140559   2.042   4.775   8.107 -2.5013  2.6452  0.0553
13132SOL    HW240560   2.074   4.730   8.247 -0.4061 -1.4546 -1.5617
13133SOL     OW40561   0.907   4.216   8.629 -0.0944  0.5189  0.2822
13133SOL    HW140562   0.876   4.298   8.591  1.4482  1.6816  1.3798
13133SOL    HW240563   0.971   4.182   8.566 -0.9490 -0.0323 -0.3128
13134SOL     OW40564   5.943   5.984   4.139  0.3576  0.1392  0.3456
13134SOL    HW140565   6.022   6.037   4.128 -0.7342  2.1739  1.7330
13134SOL    HW240566   5.933   5.975   4.234 -0.4591 -1.0701  0.1630
13135SOL     OW40567   2.276   2.485   5.920  0.1099  0.0180 -0.4649
13135SOL    HW140568   2.317   2.567   5.947  0.3212 -0.0773 -0.4975
13135SOL    HW240569   2.183   2.508   5.908  0.0776  0.1387 -0.0011
13136SOL     OW40570   6.167   1.776   6.744  0.0604  0.1155  0.0021
13136SOL    HW140571   6.142   1.789   6.836 -1.9299 -0.3427 -0.4396
13136SOL    HW240572   6.186   1.683   6.737 -1.8946 -0.2859 -0.4850
13137SOL     OW40573   5.624   5.933   1.377 -0.6061  0.1319 -0.0998
13137SOL    HW140574   5.544   5.908   1.330 -1.3576  0.3876  1.0052
13137SOL    HW240575   5.681   5.970   1.310 -2.0241  1.3685 -0.6720
13138SOL     OW40576   5.824   3.114   1.667  0.0742 -0.4105 -0.2116
13138SOL    HW140577   5.841   3.197   1.621 -1.7959  0.3505  0.3757
13138SOL    HW240578   5.895   3.056   1.638  0.8010  1.0383 -1.5099
13139SOL     OW40579   4.239   5.000   7.374  0.1082  0.5618  0.4793
13139SOL    HW140580   4.324   4.957   7.379  0.2769  0.5977 -1.3403
13139SOL    HW240581   4.253   5.085   7.417  1.2197  0.8562 -0.3979
13140SOL     OW40582   3.069   3.412   6.585 -0.0379  0.1255 -0.1584
13140SOL    HW140583   3.139   3.406   6.649 -0.6691 -0.4297  0.4875
13140SOL    HW240584   3.080   3.335   6.529 -2.1006 -1.9332  2.0025
13141SOL     OW40585   4.188   3.945   8.227  0.0441 -0.1078  0.1111
13141SOL    HW140586   4.268   3.893   8.216  0.4715  0.7716 -1.2307
13141SOL    HW240587   4.120   3.894   8.183 -0.2536 -1.0264  1.5548
13142SOL     OW40588   0.440   3.483   5.693 -0.5421  0.1044 -0.0322
13142SOL    HW140589   0.526   3.471   5.653 -0.4206 -1.8517  0.6986
13142SOL    HW240590   0.459   3.498   5.786 -0.9946 -0.4057  0.1451
13143SOL     OW40591   8.715   8.192   6.197 -0.1457 -0.1513 -0.2035
13143SOL    HW140592   8.631   8.179   6.154 -0.1150  0.0222 -0.3176
13143SOL    HW240593   8.759   8.107   6.189  0.2987  0.1713 -1.4788
13144SOL     OW40594   2.153   2.153   2.237 -0.1476 -0.0471  0.3758
13144SOL    HW140595   2.102   2.159   2.156 -0.3771 -0.3422  0.4980
13144SOL    HW240596   2.146   2.241   2.276 -2.2962 -0.6164  1.4288
13145SOL     OW40597   4.433   3.972   4.656 -0.3819  0.0390  0.0227
13145SOL    HW140598   4.428   4.046   4.595  1.3046 -0.6428 -1.0264
13145SOL    HW240599   4.383   3.902   4.613  0.6682 -0.3902 -0.5290
13146SOL     OW40600   4.282   7.320   2.487  0.0420 -0.4297  0.6552
13146SOL    HW140601   4.258   7.410   2.509 -0.5308 -0.9383  2.3286
13146SOL    HW240602   4.199   7.278   2.464  0.2728 -0.5989  0.1054
13147SOL     OW40603   1.774   3.997   4.801  0.9191 -0.5293  0.2496
13147SOL    HW140604   1.776   3.950   4.717  1.2134 -0.3857  0.1771
13147SOL    HW240605   1.766   3.927   4.866 -0.3158 -0.5972  0.0582
13148SOL     OW40606   5.788   8.342   1.716  0.9207 -0.4592 -0.1845
13148SOL    HW140607   5.772   8.333   1.810  0.6989 -1.1749 -0.2864
13148SOL    HW240608   5.840   8.265   1.693  0.2171 -0.7501 -0.8210
13149SOL     OW40609   7.437   2.310   3.862  0.0565  0.1749  0.4841
13149SOL    HW140610   7.400   2.223   3.846 -2.4523  1.3036 -0.4234
13149SOL    HW240611   7.499   2.297   3.934 -1.0063 -2.1885  1.0788
13150SOL     OW40612   8.553   1.453   3.533 -0.2771  0.6412  0.0190
13150SOL    HW140613   8.467   1.412   3.525 -0.4471  1.0384 -0.2251
13150SOL    HW240614   8.610   1.403   3.474  0.4639 -1.6823  2.5144
13151SOL     OW40615   8.522   5.523   3.004 -0.3508 -0.0632  0.2412
13151SOL    HW140616   8.537   5.547   2.912  1.1756  2.3930  1.0376
13151SOL    HW240617   8.582   5.450   3.020  0.0638  0.1153 -0.4516
13152SOL     OW40618   4.283   1.398   8.095  0.3905 -0.6932  0.3805
13152SOL    HW140619   4.207   1.455   8.082  0.5908 -0.9110 -2.5013
13152SOL    HW240620   4.349   1.455   8.134  0.0523  0.6672 -0.9284
13153SOL     OW40621   6.324   8.180   1.068 -0.2219 -0.4082  0.2032
13153SOL    HW140622   6.302   8.103   1.119  3.0099 -0.7434  1.3105
13153SOL    HW240623   6.328   8.149   0.977 -0.2313 -1.2357  0.4830
13154SOL     OW40624   7.083   6.791   8.601 -0.0917 -0.0486  1.0840
13154SOL    HW140625   6.990   6.775   8.585  0.2826 -0.4879 -0.9297
13154SOL    HW240626   7.089   6.884   8.619 -0.7365  0.3857 -0.7406
13155SOL     OW40627   8.115   1.374   2.560  0.1947 -0.1393 -0.5545
13155SOL    HW140628   8.119   1.396   2.467 -0.2883  1.4863 -0.2223
13155SOL    HW240629   8.021   1.374   2.581  0.1329 -2.6874 -0.5097
13156SOL     OW40630   6.388   3.203   7.603  0.1040 -0.1959 -0.1408
13156SOL    HW140631   6.358   3.240   7.686 -0.0596  0.9098 -0.6787
13156SOL    HW240632   6.482   3.221   7.602  0.2623 -0.9513  0.1654
13157SOL     OW40633   1.133   2.079   5.658 -0.0047 -0.5452 -0.2674
13157SOL    HW140634   1.173   2.163   5.679  0.2694 -0.0610 -2.4370
13157SOL    HW240635   1.042   2.088   5.685 -0.3876  1.0952 -1.8903
13158SOL     OW40636   5.456   8.447   6.465 -0.0003 -0.3461  0.3791
13158SOL    HW140637   5.414   8.499   6.397 -1.7058 -0.7325  1.0829
13158SOL    HW240638   5.443   8.356   6.438  1.1083 -0.4670  0.2162
13159SOL     OW40639   8.186   1.802   6.527  0.1673  0.3254 -0.1655
13159SOL    HW140640   8.128   1.726   6.527  0.3307  0.1933  0.3885
13159SOL    HW240641   8.133   1.872   6.490 -0.0240 -0.0293 -0.5700
13160SOL     OW40642   7.163   4.480   1.613  0.5084 -0.3060  0.4247
13160SOL    HW140643   7.177   4.488   1.519  0.6863  0.6686  0.5244
13160SOL    HW240644   7.197   4.562   1.650  0.1805 -0.5512  1.3027
13161SOL     OW40645   3.180   6.264   6.812  0.0594  0.1902  0.5509
13161SOL    HW140646   3.203   6.264   6.719 -0.1043 -0.3544  0.5036
13161SOL    HW240647   3.236   6.330   6.851  1.1112 -0.5385  0.3046
13162SOL     OW40648   5.251   0.700   7.712 -0.5264 -0.3989 -0.0035
13162SOL    HW140649   5.169   0.666   7.676  1.3702 -2.3651 -2.8781
13162SOL    HW240650   5.254   0.663   7.801 -2.7638 -0.1519  0.2405
13163SOL     OW40651   0.754   4.433   0.915 -0.2543 -0.3050 -0.0117
13163SOL    HW140652   0.734   4.509   0.970 -1.9483 -1.9265  1.7679
13163SOL    HW240653   0.727   4.460   0.827 -2.2338  0.6607  0.8374
13164SOL     OW40654   4.973   5.754   4.499 -0.1401  0.2810  0.4186
13164SOL    HW140655   4.878   5.755   4.493 -0.2715 -2.4632  0.6144
13164SOL    HW240656   5.003   5.795   4.417 -1.4852  0.2631 -0.1020
13165SOL     OW40657   1.487   2.307   3.514  0.3611 -0.0280 -0.5295
13165SOL    HW140658   1.528   2.307   3.601  0.7620 -0.0109 -0.7172
13165SOL    HW240659   1.553   2.346   3.456  0.1888 -0.2566 -0.8842
13166SOL     OW40660   3.911   3.368   3.959 -0.0281 -0.4203  0.1876
13166SOL    HW140661   4.002   3.338   3.962 -0.2207 -1.0038  0.3372
13166SOL    HW240662   3.892   3.394   4.049  0.2153  0.4222  0.0127
13167SOL     OW40663   6.797   5.307   8.501  0.3030 -0.0026  0.0692
13167SOL    HW140664   6.833   5.343   8.420  1.6623  0.2331  0.7478
13167SOL    HW240665   6.709   5.277   8.477  0.2480  1.0771 -1.2170
13168SOL     OW40666   8.589   6.239   0.159  0.4781  0.2006 -0.2245
13168SOL    HW140667   8.648   6.220   0.086 -1.1464 -2.3466 -1.0209
13168SOL    HW240668   8.512   6.277   0.117  0.4632  0.9771  0.4829
13169SOL     OW40669   0.299   3.841   0.713 -0.0385 -0.6793 -0.3246
13169SOL    HW140670   0.307   3.919   0.769 -2.9077  0.6374 -1.5627
13169SOL    HW240671   0.371   3.850   0.650 -0.7585  1.5007 -0.9427
13170SOL     OW40672   5.933   5.759   7.419  0.0848 -0.2970 -0.1022
13170SOL    HW140673   5.938   5.782   7.512  0.2011 -0.1959 -0.1328
13170SOL    HW240674   5.901   5.669   7.418 -0.9785  0.0710 -0.0009
13171SOL     OW40675   7.508   1.907   3.567 -0.0036 -0.0138  0.5181
13171SOL    HW140676   7.493   1.815   3.590  0.2139  0.0083  0.7505
13171SOL    HW240677   7.447   1.924   3.495 -0.7480 -0.0640  1.1292
13172SOL     OW40678   2.694   7.652   3.962 -0.2821 -0.4092  0.0814
13172SOL    HW140679   2.616   7.614   4.005 -1.4398  0.4636 -1.1627
13172SOL    HW240680   2.715   7.591   3.892 -0.8182  0.0954 -0.5444
13173SOL     OW40681   6.557   1.052   6.164 -0.0781  0.8113  0.8720
13173SOL    HW140682   6.591   1.076   6.250 -1.4125  0.6758  1.4558
13173SOL    HW240683   6.576   0.958   6.156  1.6458  1.1856  0.2377
13174SOL     OW40684   3.171   4.291   6.607  0.2152 -0.1701 -0.6857
13174SOL    HW140685   3.243   4.254   6.556  1.1238  0.3462  0.1969
13174SOL    HW240686   3.125   4.215   6.643  1.2047 -0.4924 -0.0625
13175SOL     OW40687   5.097   3.397   0.983 -0.1404  0.3620  0.5394
13175SOL    HW140688   5.015   3.432   1.019 -1.0750 -0.3741 -0.7867
13175SOL    HW240689   5.120   3.458   0.913 -0.4347 -0.2721 -0.1313
13176SOL     OW40690   7.676   0.196   3.595  0.1795 -0.4956  0.0869
13176SOL    HW140691   7.660   0.276   3.645  1.4092 -0.2033  0.0328
13176SOL    HW240692   7.731   0.143   3.652  0.2293 -0.8608 -0.3002
13177SOL     OW40693   7.620   7.995   0.744 -0.7621  0.0154  0.2203
13177SOL    HW140694   7.534   7.996   0.786 -0.3512 -2.0828  1.2443
13177SOL    HW240695   7.619   7.917   0.688  0.8089 -0.7057  1.1025
13178SOL     OW40696   8.520   3.283   7.903 -0.1146 -0.5364 -0.1254
13178SOL    HW140697   8.458   3.329   7.960  0.5679  1.2830 -0.7710
13178SOL    HW240698   8.570   3.353   7.861 -0.1262 -1.8228 -2.4388
13179SOL     OW40699   0.876   8.407   0.659  0.3273 -0.5838 -0.3811
13179SOL    HW140700   0.800   8.351   0.671  0.2525 -0.2245  0.9855
13179SOL    HW240701   0.934   8.358   0.601 -0.2473 -1.5682 -0.1367
13180SOL     OW40702   4.407   6.402   7.936 -0.0033  0.1228 -0.2228
13180SOL    HW140703   4.419   6.317   7.894  0.9617  0.6910 -1.1838
13180SOL    HW240704   4.445   6.464   7.874 -0.0178  1.1813  0.7910
13181SOL     OW40705   3.607   8.429   7.151  0.6889  0.3684  0.9457
13181SOL    HW140706   3.660   8.501   7.117  2.0421  0.6398  3.3499
13181SOL    HW240707   3.519   8.467   7.161  0.6407  0.7196 -0.6595
13182SOL     OW40708   6.096   2.929   7.138  0.5708 -0.4123  0.4499
13182SOL    HW140709   6.033   2.966   7.076  2.0316  0.5751 -0.5162
13182SOL    HW240710   6.166   2.893   7.083 -0.0402 -3.3232  1.4128
13183SOL     OW40711   7.776   5.828   7.264  0.1725 -0.1930  0.4093
13183SOL    HW140712   7.754   5.921   7.270 -4.8786 -1.1446  1.4686
13183SOL    HW240713   7.739   5.800   7.180  0.4770 -1.4590  0.6798
13184SOL     OW40714   2.688   2.496   5.104  0.0709 -0.0278 -0.0365
13184SOL    HW140715   2.721   2.425   5.050 -0.3137  0.9970 -1.6930
13184SOL    HW240716   2.599   2.511   5.073  0.3100  1.4947 -0.0914
13185SOL     OW40717   4.432   4.415   5.079  0.6232  0.2119  0.8451
13185SOL    HW140718   4.417   4.323   5.102  0.3720  0.1726  0.5324
13185SOL    HW240719   4.520   4.434   5.112  0.0865  0.3047  2.2630
13186SOL     OW40720   6.015   3.469   7.654 -0.2955 -0.4064 -0.4694
13186SOL    HW140721   6.005   3.403   7.723 -0.3545 -0.5918 -0.6540
13186SOL    HW240722   5.999   3.421   7.573 -0.2025 -0.1933 -0.6136
13187SOL     OW40723   8.435   4.816   7.573 -0.4286  0.2691  1.1360
13187SOL    HW140724   8.487   4.755   7.626  0.6219  0.3671  0.2425
13187SOL    HW240725   8.438   4.898   7.622  2.2997  0.9668  0.0064
13188SOL     OW40726   4.253   4.578   4.377  0.1159 -1.0005 -0.5728
13188SOL    HW140727   4.270   4.545   4.465  0.2162 -0.3596 -0.3464
13188SOL    HW240728   4.213   4.664   4.391  1.6856 -0.1452 -1.1737
13189SOL     OW40729   6.632   0.754   3.102 -0.0950  0.6002  0.0549
13189SOL    HW140730   6.590   0.680   3.146 -0.6731 -0.6220 -2.3460
13189SOL    HW240731   6.558   0.806   3.068  0.2935  0.2203 -1.4228
13190SOL     OW40732   7.335   5.090   7.129  0.0966 -0.1051 -0.1288
13190SOL    HW140733   7.250   5.047   7.131  0.1806 -0.2540  1.8658
13190SOL    HW240734   7.392   5.034   7.182  0.7300  1.3587  0.8056
13191SOL     OW40735   8.252   8.063   4.604 -0.1326  0.3861  0.6578
13191SOL    HW140736   8.187   8.002   4.570  0.8281 -0.4927  0.3593
13191SOL    HW240737   8.203   8.145   4.618 -1.0916  0.0154 -0.3953
13192SOL     OW40738   3.594   6.275   2.858 -0.4242  0.0175 -0.0001
13192SOL    HW140739   3.569   6.347   2.801  1.6413  0.7377 -0.0839
13192SOL    HW240740   3.523   6.268   2.922 -1.8164  0.4896 -1.4551
13193SOL     OW40741   3.052   1.083   6.608  0.3015  0.6355 -0.5538
13193SOL    HW140742   3.027   1.173   6.629  1.0331  0.3175  2.0734
13193SOL    HW240743   3.095   1.051   6.688 -0.9655 -2.4246 -0.9687
13194SOL     OW40744   6.917   4.704   7.566  0.3530 -0.6659  0.0719
13194SOL    HW140745   6.965   4.782   7.537  1.6697 -0.4821  2.4761
13194SOL    HW240746   6.985   4.639   7.582 -0.5542 -1.6400  0.0586
13195SOL     OW40747   2.917   8.426   1.137 -0.3880 -0.1776 -0.5767
13195SOL    HW140748   2.950   8.337   1.128  1.9674  0.4582  0.8583
13195SOL    HW240749   2.995   8.481   1.132 -1.3121  1.5361  1.8979
13196SOL     OW40750   0.503   6.048   0.006  0.1522 -0.4731 -0.3421
13196SOL    HW140751   0.550   6.093  -0.065 -1.8178 -0.5705 -1.7942
13196SOL    HW240752   0.537   5.959   0.004  0.4885 -0.3392 -0.8308
13197SOL     OW40753   8.479   6.782   8.427 -0.2378  0.0977 -0.1630
13197SOL    HW140754   8.426   6.703   8.436  0.2485 -0.0423  1.9933
13197SOL    HW240755   8.473   6.804   8.334 -1.1987 -1.8865 -0.6330
13198SOL     OW40756   2.806   7.191   4.453  0.2672 -0.2348 -0.3170
13198SOL    HW140757   2.748   7.120   4.427  0.8152 -0.6158 -0.5207
13198SOL    HW240758   2.883   7.146   4.491  0.3884  0.2583  0.0360
13199SOL     OW40759   3.807   6.779   5.908 -0.2431 -0.3072 -0.2296
13199SOL    HW140760   3.725   6.823   5.927 -0.5267 -0.9908  0.1949
13199SOL    HW240761   3.874   6.847   5.916 -0.8881  0.5910 -2.0016
13200SOL     OW40762   6.086   4.679   7.136 -0.0620 -0.1257  0.1152
13200SOL    HW140763   6.143   4.661   7.061 -0.8982  0.6845 -0.7436
13200SOL    HW240764   6.008   4.719   7.098 -0.3574  0.6470  1.4548
13201SOL     OW40765   2.451   5.699   2.782 -0.6034 -0.6620 -0.1819
13201SOL    HW140766   2.468   5.790   2.758 -1.9951  0.1573  1.7428
13201SOL    HW240767   2.475   5.649   2.704 -0.7783  1.4358 -1.6496
13202SOL     OW40768   6.414   7.470   4.029  0.2358  0.0737  0.0648
13202SOL    HW140769   6.446   7.528   3.960 -1.9501  3.5434  1.7013
13202SOL    HW240770   6.323   7.452   4.004 -1.0834  2.5925  2.5040
13203SOL     OW40771   1.337   2.235   8.787 -0.6667  0.0804 -0.3506
13203SOL    HW140772   1.376   2.257   8.871 -0.8091  2.4204 -0.8279
13203SOL    HW240773   1.382   2.155   8.760  1.1205  0.6273  0.8227
13204SOL     OW40774   6.911   3.469   5.825  0.0974  0.1621 -0.0363
13204SOL    HW140775   6.866   3.419   5.757 -0.4129  1.0286 -0.3559
13204SOL    HW240776   6.875   3.435   5.907  0.1080 -0.3178 -0.2251
13205SOL     OW40777   1.230   3.708   8.673  0.5211 -0.4109 -0.1573
13205SOL    HW140778   1.165   3.723   8.603 -0.4193  0.9621  0.9548
13205SOL    HW240779   1.222   3.785   8.730  1.8985 -1.0719  0.9872
13206SOL     OW40780   6.080   2.732   6.273  0.1169 -0.1459 -0.1829
13206SOL    HW140781   6.009   2.760   6.329 -0.1407 -0.2603 -0.4488
13206SOL    HW240782   6.038   2.679   6.205  0.5024 -0.5566 -0.1094
13207SOL     OW40783   1.311   3.410   7.406  0.3234  0.2400  0.0994
13207SOL    HW140784   1.254   3.336   7.387  1.3831 -0.5700 -0.0186
13207SOL    HW240785   1.399   3.381   7.379  1.4105  0.1680  3.3265
13208SOL     OW40786   2.994   5.276   0.482 -0.3734 -0.3321  0.4241
13208SOL    HW140787   3.013   5.198   0.534  1.3878 -0.6100 -0.5678
13208SOL    HW240788   3.030   5.348   0.534  0.8515 -0.5432 -0.1207
13209SOL     OW40789   1.133   0.850   7.606 -0.3385 -0.3655 -0.0111
13209SOL    HW140790   1.180   0.917   7.656 -2.2544  1.6211 -0.7180
13209SOL    HW240791   1.189   0.833   7.530  0.0036  0.7179 -0.0114
13210SOL     OW40792   4.614   0.705   4.821  0.1776  0.0434  0.8640
13210SOL    HW140793   4.701   0.744   4.822  0.0843  0.2438  1.2490
13210SOL    HW240794   4.569   0.744   4.896 -0.5834  0.6915  0.0879
13211SOL     OW40795   4.671   3.073   0.380 -0.5395  0.1647 -0.7561
13211SOL    HW140796   4.711   3.027   0.306 -1.2915 -0.3904 -0.8335
13211SOL    HW240797   4.716   3.157   0.384 -0.7759  0.3810 -2.1193
13212SOL     OW40798   4.523   0.396   6.550  0.2234  0.2822 -0.3975
13212SOL    HW140799   4.617   0.403   6.532  0.4008 -0.2618  0.2371
13212SOL    HW240800   4.510   0.448   6.630  0.1221 -0.1878 -0.0978
13213SOL     OW40801   7.618   4.996   0.797 -0.2784  0.0692  1.0848
13213SOL    HW140802   7.680   5.069   0.794 -0.5483  0.3228  1.5350
13213SOL    HW240803   7.600   4.984   0.891  0.6061 -1.2999  1.1116
13214SOL     OW40804   4.338   0.285   6.396  0.0895  0.3266 -0.1626
13214SOL    HW140805   4.423   0.308   6.433  0.1437 -0.8298  0.4784
13214SOL    HW240806   4.357   0.262   6.305  0.3666  0.6033 -0.1770
13215SOL     OW40807   3.555   6.718   2.734  0.3408  0.0310 -0.9178
13215SOL    HW140808   3.531   6.795   2.683  0.5632 -0.9307 -2.5305
13215SOL    HW240809   3.650   6.723   2.742  0.3489 -0.0435 -0.9678
13216SOL     OW40810   2.809   0.679   5.462 -0.6389 -0.7012  0.1018
13216SOL    HW140811   2.830   0.663   5.370 -1.1825  2.9575 -0.8284
13216SOL    HW240812   2.713   0.678   5.465 -0.6147 -1.8975  0.9018
13217SOL     OW40813   5.546   6.015   1.755  0.4046  0.0927 -0.0242
13217SOL    HW140814   5.634   6.003   1.789  0.8982  1.0024 -0.9077
13217SOL    HW240815   5.529   5.936   1.704  0.2372 -0.6067  1.0984
13218SOL     OW40816   2.908   3.672   8.583  0.1051  0.4525 -0.6933
13218SOL    HW140817   2.875   3.754   8.545  1.5898  0.9919 -0.9006
13218SOL    HW240818   2.999   3.667   8.552  0.8501  0.0353  1.3866
13219SOL     OW40819   6.431   2.490   5.888  0.1686  0.3876 -0.2525
13219SOL    HW140820   6.412   2.416   5.946 -2.3167 -0.0357 -1.4732
13219SOL    HW240821   6.523   2.511   5.906  0.4582 -1.8504  1.3864
13220SOL     OW40822   0.737   6.911   7.587  0.2058 -0.4645 -0.1546
13220SOL    HW140823   0.817   6.958   7.562  0.3840 -0.9937 -0.5916
13220SOL    HW240824   0.698   6.966   7.654  0.9540 -0.2091  0.0889
13221SOL     OW40825   1.399   1.522   1.488 -0.5524 -0.0369  0.2705
13221SOL    HW140826   1.481   1.541   1.442 -0.2747  0.3758  0.9120
13221SOL    HW240827   1.336   1.504   1.419 -0.0550  0.1857 -0.2531
13222SOL     OW40828   4.340   2.170   7.318  0.3194 -0.5759 -0.1439
13222SOL    HW140829   4.246   2.179   7.304  0.2803  0.8036  0.8138
13222SOL    HW240830   4.366   2.096   7.263 -1.0168  0.1121 -1.7741
13223SOL     OW40831   6.155   4.145   4.933  0.5031  0.0646 -0.1172
13223SOL    HW140832   6.114   4.113   5.013  0.2739  1.0106  0.1515
13223SOL    HW240833   6.163   4.067   4.877 -0.8637 -0.2925  0.1615
13224SOL     OW40834   5.315   1.298   6.652  0.3287 -0.2678  0.1857
13224SOL    HW140835   5.377   1.272   6.584  1.1516 -1.1845  1.2477
13224SOL    HW240836   5.307   1.221   6.709  1.3482  1.1326  2.3530
13225SOL     OW40837   5.954   5.263   7.500  0.3886 -0.9481  0.0723
13225SOL    HW140838   6.019   5.242   7.567  0.2500  0.3992  0.6694
13225SOL    HW240839   5.913   5.179   7.479  1.2278 -1.5697  0.8296
13226SOL     OW40840   7.011   6.064   7.472 -0.3961 -0.3882 -0.3032
13226SOL    HW140841   7.069   6.039   7.400  1.5918 -0.4454  1.2219
13226SOL    HW240842   7.011   5.988   7.530 -0.4339  0.3383  0.6695
13227SOL     OW40843   1.426   4.907   1.447 -0.2547  0.0710 -0.8063
13227SOL    HW140844   1.440   4.947   1.361 -2.0834 -0.9220 -1.6168
13227SOL    HW240845   1.335   4.927   1.468 -0.3602 -1.2352  0.0789
13228SOL     OW40846   4.904   7.003   8.760 -0.1022  0.7198  0.2087
13228SOL    HW140847   4.980   6.975   8.709 -0.0525  0.1597  0.5878
13228SOL    HW240848   4.845   7.040   8.695 -0.4416 -0.8366 -0.4015
13229SOL     OW40849   8.591   4.789   0.638 -0.2655 -0.0518 -0.4032
13229SOL    HW140850   8.535   4.736   0.695  0.2022  0.5047  0.6133
13229SOL    HW240851   8.537   4.865   0.614 -0.0006  0.4487  0.5188
13230SOL     OW40852   1.462   8.191   7.412  0.1579 -0.3877  0.1847
13230SOL    HW140853   1.403   8.130   7.367 -1.3345  1.7406 -0.9595
13230SOL    HW240854   1.405   8.240   7.472  1.3342 -0.2168  1.2014
13231SOL     OW40855   0.537   8.410   4.424  0.2900  0.8803  1.0167
13231SOL    HW140856   0.541   8.373   4.512  0.1356 -2.3517 -0.1792
13231SOL    HW240857   0.551   8.504   4.436 -1.0035  0.7554  4.5624
13232SOL     OW40858   3.810   5.145   6.111  0.1947  0.0335 -0.3188
13232SOL    HW140859   3.725   5.127   6.153  0.5516 -0.6980  0.1144
13232SOL    HW240860   3.788   5.202   6.037 -0.5527  0.6571  0.3569
13233SOL     OW40861   7.035   1.433   0.259  0.6722  0.4329 -0.0728
13233SOL    HW140862   7.011   1.439   0.167  0.2067  2.3787  0.1396
13233SOL    HW240863   6.963   1.475   0.306 -0.9773 -3.6267  1.5735
13234SOL     OW40864   4.694   7.331   4.599  0.7016  0.0905 -0.8286
13234SOL    HW140865   4.630   7.260   4.590  0.7271  0.0041 -0.3541
13234SOL    HW240866   4.771   7.299   4.552  0.4246  0.1643 -1.3415
13235SOL     OW40867   3.344   0.879   5.566  0.0310  0.3340 -0.1368
13235SOL    HW140868   3.315   0.963   5.529 -0.8892  0.3572  0.6161
13235SOL    HW240869   3.353   0.822   5.490 -1.5290  0.4723 -0.4589
13236SOL     OW40870   6.641   1.525   2.840  0.0365  0.0636  0.0958
13236SOL    HW140871   6.550   1.506   2.816 -0.2485  0.5086  0.7850
13236SOL    HW240872   6.641   1.619   2.858  0.4254 -0.1006  0.9825
13237SOL     OW40873   5.137   4.031   7.427  0.0236  0.1004 -0.0608
13237SOL    HW140874   5.068   4.031   7.493  0.7347  1.0400  0.7152
13237SOL    HW240875   5.119   3.953   7.374 -1.3454  0.0744  0.3999
13238SOL     OW40876   0.778   3.853   1.961  0.5330 -0.2303 -0.2567
13238SOL    HW140877   0.690   3.888   1.971  1.1736  1.3885  0.0640
13238SOL    HW240878   0.817   3.905   1.891  1.1233 -1.1541 -0.6259
13239SOL     OW40879   5.615   7.034   5.698  0.6004  0.4009 -0.1090
13239SOL    HW140880   5.540   7.014   5.753  1.3146  0.1326  0.8040
13239SOL    HW240881   5.581   7.037   5.609 -0.4879  0.3441  0.3010
13240SOL     OW40882   1.325   4.288   7.587 -0.5009  0.1577  0.2886
13240SOL    HW140883   1.352   4.367   7.540  0.9979 -0.5971 -0.1843
13240SOL    HW240884   1.401   4.264   7.639 -1.9272  0.6560  2.7509
13241SOL     OW40885   8.767   6.599   4.552  0.1158  0.4844  0.6248
13241SOL    HW140886   8.762   6.505   4.572 -3.1352  0.7396  1.5618
13241SOL    HW240887   8.803   6.602   4.463 -0.0609 -1.6905  0.4121
13242SOL     OW40888   6.819   8.459   3.218  0.3024 -0.1446 -0.0951
13242SOL    HW140889   6.893   8.486   3.273 -0.0085 -0.2388  0.3814
13242SOL    HW240890   6.859   8.409   3.147  0.6824 -0.3296  0.2413
13243SOL     OW40891   5.695   4.980   6.727  0.3003 -0.1459 -0.3883
13243SOL    HW140892   5.642   4.929   6.789 -0.1855  1.4866  0.5714
13243SOL    HW240893   5.770   4.923   6.708  0.6495 -0.5608  1.9518
13244SOL     OW40894   2.078   5.178   2.315  0.3957 -0.2766  0.0435
13244SOL    HW140895   2.125   5.213   2.391  0.4543 -0.4527  0.0883
13244SOL    HW240896   2.105   5.235   2.242  0.6441 -0.3502  0.0774
13245SOL     OW40897   2.707   5.744   6.151 -0.1491 -1.0182 -0.1650
13245SOL    HW140898   2.801   5.741   6.170 -0.3470 -2.0038  0.8024
13245SOL    HW240899   2.700   5.719   6.059  0.5062 -1.5289 -0.0861
13246SOL     OW40900   0.426   7.848   1.883  0.0518  0.0438 -0.3017
13246SOL    HW140901   0.504   7.813   1.839 -0.0002 -1.2468  0.5542
13246SOL    HW240902   0.456   7.869   1.972  0.0624  2.2263 -0.7722
13247SOL     OW40903   2.798   6.621   0.934 -0.6679  0.1815  0.0226
13247SOL    HW140904   2.856   6.546   0.921 -0.2445  0.5627 -0.3561
13247SOL    HW240905   2.806   6.672   0.853  0.2002  1.4118  0.8368
13248SOL     OW40906   7.522   1.772   4.393 -0.5680  0.3942  0.1853
13248SOL    HW140907   7.508   1.677   4.392 -1.0950  0.4473 -1.8832
13248SOL    HW240908   7.560   1.791   4.308 -1.0774  2.1419  0.3170
13249SOL     OW40909   5.214   6.673   4.223 -0.0241 -0.2912  0.1281
13249SOL    HW140910   5.167   6.738   4.170 -0.9675 -0.2492  0.9833
13249SOL    HW240911   5.270   6.627   4.161 -1.8105 -0.8904 -1.0891
13250SOL     OW40912   2.882   0.096   3.333 -0.1315 -0.4385 -0.2098
13250SOL    HW140913   2.954   0.059   3.282  0.3411  2.2762 -1.6528
13250SOL    HW240914   2.924   0.128   3.413 -0.2819 -1.4789  0.3073
13251SOL     OW40915   3.911   1.255   5.209 -0.2460 -0.2514 -0.7199
13251SOL    HW140916   3.988   1.245   5.266  1.1707 -0.8740 -2.6293
13251SOL    HW240917   3.845   1.197   5.247  1.8966 -3.6052 -1.6841
13252SOL     OW40918   2.223   5.369   6.630  0.3631 -0.5461  0.1122
13252SOL    HW140919   2.224   5.340   6.539 -0.9417 -2.9626  0.8046
13252SOL    HW240920   2.305   5.337   6.666  0.5062 -0.2947  0.0174
13253SOL     OW40921   4.153   5.988   4.358  0.2734  0.1198 -0.6616
13253SOL    HW140922   4.248   5.980   4.356  0.3865  0.6141  1.0566
13253SOL    HW240923   4.121   5.908   4.317  1.4438 -1.1149  0.7312
13254SOL     OW40924   1.049   0.144   3.908  0.1959 -0.5130 -0.0861
13254SOL    HW140925   1.111   0.208   3.942  0.1407 -0.2428 -0.4867
13254SOL    HW240926   0.968   0.162   3.956  0.2517 -0.4451 -0.0172
13255SOL     OW40927   2.461   1.461   3.980  0.3058 -0.4048 -0.1966
13255SOL    HW140928   2.515   1.427   4.051  1.1683  0.2240 -0.5368
13255SOL    HW240929   2.428   1.544   4.013  0.3772 -0.3045 -0.3802
13256SOL     OW40930   1.964   2.805   5.437  0.1002 -0.0058  0.2015
13256SOL    HW140931   2.023   2.754   5.382 -1.1112  0.8040 -1.9498
13256SOL    HW240932   1.882   2.755   5.435 -0.1511  0.3802  0.7438
13257SOL     OW40933   7.814   4.219   7.061  0.9717 -0.3447 -0.1679
13257SOL    HW140934   7.750   4.216   6.990  0.9027 -1.5216 -0.0665
13257SOL    HW240935   7.761   4.219   7.141  1.0901 -1.5810 -0.0787
13258SOL     OW40936   8.539   1.793   5.306 -0.2772 -0.4132  0.7825
13258SOL    HW140937   8.539   1.859   5.236 -1.7538 -0.9894  0.1811
13258SOL    HW240938   8.545   1.843   5.387  1.1799  0.2865  0.2644
13259SOL     OW40939   5.546   7.327   3.655  0.4772 -0.1074 -0.0795
13259SOL    HW140940   5.476   7.310   3.593  1.7514 -0.2772 -1.5425
13259SOL    HW240941   5.513   7.399   3.710 -1.3540 -1.1037  0.2005
13260SOL     OW40942   2.219   1.975   5.529 -0.4581 -0.3018  0.0528
13260SOL    HW140943   2.158   1.983   5.456 -1.6777 -0.3277  1.0477
13260SOL    HW240944   2.200   2.050   5.585 -0.6343 -1.1315  1.1348
13261SOL     OW40945   2.386   8.732   6.742  0.2939  0.4170 -0.5382
13261SOL    HW140946   2.421   8.661   6.795 -1.6336  0.6174  1.1336
13261SOL    HW240947   2.332   8.689   6.675  1.3804  0.2399 -1.3325
13262SOL     OW40948   3.826   8.777   0.186 -0.7030  0.4489  0.0178
13262SOL    HW140949   3.846   8.870   0.177 -1.4370  0.6294  0.2171
13262SOL    HW240950   3.846   8.740   0.100 -0.2678  0.7554 -0.0210
13263SOL     OW40951   0.569   3.040   5.602  0.1411  0.7666 -0.4245
13263SOL    HW140952   0.495   3.030   5.543  0.1507  0.0469 -0.3140
13263SOL    HW240953   0.603   2.952   5.615  1.6993  1.1781 -1.3443
13264SOL     OW40954   3.138   1.632   4.493 -0.3439 -0.0257  0.4568
13264SOL    HW140955   3.168   1.637   4.584  1.3738 -0.6151 -0.0409
13264SOL    HW240956   3.089   1.549   4.489  1.1095 -0.9170  0.4562
13265SOL     OW40957   5.126   5.249   1.048 -0.2244  0.2472  0.0028
13265SOL    HW140958   5.113   5.269   1.140 -1.8559  0.1956 -0.1797
13265SOL    HW240959   5.043   5.274   1.006 -0.1510 -1.2896 -1.1603
13266SOL     OW40960   4.857   7.454   3.767 -0.2403  0.3632  0.1552
13266SOL    HW140961   4.767   7.428   3.752 -0.3765 -0.2833  1.9370
13266SOL    HW240962   4.855   7.550   3.768 -0.8220  0.3548 -0.2362
13267SOL     OW40963   8.724   6.920   7.193 -0.5588 -0.2744 -0.5295
13267SOL    HW140964   8.769   6.908   7.276 -1.7475 -1.2347  0.0176
13267SOL    HW240965   8.639   6.876   7.205 -0.6567 -0.6751 -2.3294
13268SOL     OW40966   6.887   4.995   4.423  0.2061 -0.1502  0.5221
13268SOL    HW140967   6.905   5.077   4.376 -2.5904  0.5121  0.3982
13268SOL    HW240968   6.917   4.926   4.364  0.7971  0.7488 -0.2614
13269SOL     OW40969   1.688   1.770   7.230  0.0987 -0.5663  0.3941
13269SOL    HW140970   1.713   1.787   7.139 -0.9996  0.3663  0.2412
13269SOL    HW240971   1.594   1.749   7.224 -0.6224  1.9653  1.5419
13270SOL     OW40972   8.862   8.860   4.019 -0.2589 -0.4113 -0.2635
13270SOL    HW140973   8.808   8.876   3.942 -0.3289  0.1658 -0.0975
13270SOL    HW240974   8.800   8.864   4.093 -0.2435 -1.2425 -0.1927
13271SOL     OW40975   2.246   5.111   4.778 -0.2937  0.0429 -0.0303
13271SOL    HW140976   2.208   5.023   4.782 -0.5911  0.1870  0.5335
13271SOL    HW240977   2.197   5.154   4.709 -1.7058  0.4544  1.1632
13272SOL     OW40978   5.240   2.744   6.536 -0.0490  0.8284  0.5000
13272SOL    HW140979   5.239   2.652   6.561  0.3523  1.0622  1.4249
13272SOL    HW240980   5.301   2.785   6.598 -1.1485  1.9385  0.8774
13273SOL     OW40981   1.069   5.652   2.999  0.1406  0.1236 -0.4540
13273SOL    HW140982   1.115   5.723   3.044 -0.0511  1.4779 -2.2862
13273SOL    HW240983   1.128   5.627   2.928 -0.0988 -1.1190 -0.2464
13274SOL     OW40984   1.207   5.656   0.454 -0.0085 -0.3245  0.5020
13274SOL    HW140985   1.231   5.591   0.389 -2.0533 -0.5299 -0.1264
13274SOL    HW240986   1.266   5.730   0.437  0.4350 -0.9216 -0.6488
13275SOL     OW40987   1.905   1.766   8.517 -0.0176  0.5489  0.0393
13275SOL    HW140988   1.861   1.758   8.433 -2.3029  0.9499  1.1318
13275SOL    HW240989   1.957   1.847   8.509  0.4201  0.1619 -1.2231
13276SOL     OW40990   4.274   6.839   1.084 -0.0241  0.1036  0.1444
13276SOL    HW140991   4.221   6.834   1.164 -1.6576 -0.5267 -0.9317
13276SOL    HW240992   4.216   6.807   1.015  1.6039 -0.0867 -1.1891
13277SOL     OW40993   5.038   8.311   7.795 -0.3067  0.3612 -0.0975
13277SOL    HW140994   5.058   8.256   7.870  0.1826  2.3866  1.3381
13277SOL    HW240995   4.942   8.317   7.795 -0.2693  1.0871  0.9440
13278SOL     OW40996   3.315   8.571   7.823 -0.2600  0.0769  0.5519
13278SOL    HW140997   3.338   8.480   7.804  1.1941  0.5675 -0.1412
13278SOL    HW240998   3.234   8.586   7.773  0.0444 -0.5433 -0.1439
13279SOL     OW40999   1.106   3.217   6.654  0.0161  0.0562  0.0839
13279SOL    HW141000   1.162   3.163   6.598 -0.5346  0.1999 -0.6142
13279SOL    HW241001   1.161   3.290   6.682  0.1020  0.3460 -0.8247
13280SOL     OW41002   4.846   4.767   5.748  0.3667 -0.0990  0.5628
13280SOL    HW141003   4.851   4.816   5.665  0.1508 -1.3376 -0.2122
13280SOL    HW241004   4.877   4.829   5.814  3.3531  0.0248 -0.7940
13281SOL     OW41005   6.948   2.588   8.783 -0.0076 -0.6170  0.2497
13281SOL    HW141006   6.887   2.660   8.799  0.1552 -0.5245  0.4525
13281SOL    HW241007   7.021   2.627   8.735 -0.8556 -1.0424 -1.4744
13282SOL     OW41008   6.424   3.158   6.851 -0.8311 -0.1896  0.1532
13282SOL    HW141009   6.443   3.174   6.759 -0.4794  0.9787  0.4120
13282SOL    HW241010   6.330   3.141   6.853 -0.7354 -0.8627 -0.4867
13283SOL     OW41011   8.761   7.632   2.604 -0.1370  0.3041  0.1292
13283SOL    HW141012   8.738   7.549   2.646 -1.4511  0.3091 -0.5103
13283SOL    HW241013   8.743   7.699   2.670 -0.8121  0.1998  0.0635
13284SOL     OW41014   0.429   0.508   4.118  0.0651 -0.0238 -0.5746
13284SOL    HW141015   0.496   0.576   4.111  1.3326 -1.3283 -1.5293
13284SOL    HW241016   0.410   0.483   4.028 -0.1307 -1.1853 -0.2318
13285SOL     OW41017   2.092   3.295   2.285  0.8425  0.2336  0.0592
13285SOL    HW141018   2.102   3.205   2.253 -0.3860 -0.0852  0.4971
13285SOL    HW241019   1.998   3.311   2.281  1.1191  1.8155 -0.7928
13286SOL     OW41020   6.628   1.897   5.074  0.0147  0.7208 -0.3992
13286SOL    HW141021   6.563   1.961   5.102 -1.2098 -0.1499 -1.1308
13286SOL    HW241022   6.653   1.852   5.154 -0.3590  1.0002 -0.1159
13287SOL     OW41023   4.152   0.093   3.399  0.0850  0.3467  0.1946
13287SOL    HW141024   4.206   0.019   3.372  1.1571  0.0526  2.8445
13287SOL    HW241025   4.205   0.170   3.381  0.9671  0.1283  1.6915
13288SOL     OW41026   5.455   6.931   4.245  0.3658 -0.4766 -0.2618
13288SOL    HW141027   5.460   6.959   4.153 -1.1399  1.1659  0.1198
13288SOL    HW241028   5.402   6.852   4.243 -1.0470  0.4526 -0.6615
13289SOL     OW41029   3.619   1.510   5.772 -0.0743 -0.2562  0.2609
13289SOL    HW141030   3.653   1.572   5.707 -1.1213 -0.2182 -0.2712
13289SOL    HW241031   3.623   1.557   5.855 -0.3598  0.3379 -0.0561
13290SOL     OW41032   6.857   5.907   2.661 -0.4238  0.0621  0.0406
13290SOL    HW141033   6.909   5.827   2.668  0.9017  0.8016 -1.0451
13290SOL    HW241034   6.921   5.977   2.652 -1.5864  1.1379 -0.1609
13291SOL     OW41035   1.321   8.354   0.190  0.3973  0.3896 -0.2092
13291SOL    HW141036   1.286   8.291   0.253  0.4617 -2.0194 -2.4212
13291SOL    HW241037   1.400   8.312   0.155  0.7525  1.9482 -1.3825
13292SOL     OW41038   8.373   8.508   1.903 -0.7553  0.5594  0.2106
13292SOL    HW141039   8.451   8.470   1.942 -0.7003 -0.4388 -0.8122
13292SOL    HW241040   8.404   8.551   1.824 -1.0053  1.6883  0.7075
13293SOL     OW41041   7.303   6.206   8.325  0.7027  0.1666  0.0293
13293SOL    HW141042   7.372   6.140   8.319  0.5601  0.0775 -0.8209
13293SOL    HW241043   7.288   6.233   8.234  1.8256  2.5093  0.4698
13294SOL     OW41044   4.442   2.814   6.172 -0.1976 -0.5460  0.7189
13294SOL    HW141045   4.377   2.884   6.185  0.9347  0.5797  0.4915
13294SOL    HW241046   4.439   2.797   6.078 -0.0692 -0.3968  0.6875
13295SOL     OW41047   7.986   4.294   3.143 -0.3461 -0.5125  0.6051
13295SOL    HW141048   7.956   4.354   3.075  1.0648 -1.1336 -0.6079
13295SOL    HW241049   8.081   4.300   3.141 -0.2048 -2.0211  1.1428
13296SOL     OW41050   3.731   1.807   5.693 -0.1455 -0.1927  0.1959
13296SOL    HW141051   3.700   1.732   5.643  1.9735 -1.3859  0.5633
13296SOL    HW241052   3.741   1.877   5.628  1.0880 -1.2597 -0.8088
13297SOL     OW41053   3.958   7.625   4.770 -0.1633 -0.1871 -0.4887
13297SOL    HW141054   3.944   7.538   4.807 -2.9519  0.9430  1.4347
13297SOL    HW241055   3.946   7.613   4.676 -3.9612 -1.4447 -0.0081
13298SOL     OW41056   1.314   0.960   7.815  0.3089 -0.7631  0.0346
13298SOL    HW141057   1.321   0.865   7.799  0.3381 -1.0939  1.7557
13298SOL    HW241058   1.405   0.991   7.812  0.4047 -0.9894  0.4561
13299SOL     OW41059   6.372   7.703   5.236  0.4583 -0.6515  0.1071
13299SOL    HW141060   6.416   7.618   5.242 -0.0867 -0.8501  2.0322
13299SOL    HW241061   6.281   7.681   5.219  0.3195 -0.4466  0.5935
13300SOL     OW41062   4.359   6.313   7.429  0.2232 -0.6644  0.5144
13300SOL    HW141063   4.440   6.296   7.477  0.1599  0.3127  1.0025
13300SOL    HW241064   4.365   6.405   7.404 -0.0319 -0.9950 -0.8341
13301SOL     OW41065   4.804   1.590   5.392  0.3347  0.4989  0.4713
13301SOL    HW141066   4.739   1.632   5.448  0.2858  0.4316  0.4642
13301SOL    HW241067   4.877   1.571   5.450  0.3252  0.5214  0.4911
13302SOL     OW41068   1.433   4.674   7.224 -0.6393  0.6839 -0.2440
13302SOL    HW141069   1.487   4.753   7.237  0.3000  0.2467 -1.3084
13302SOL    HW241070   1.347   4.708   7.201 -0.5681  1.4044  0.4886
13303SOL     OW41071   3.674   8.274   8.553 -0.0155 -0.1206  0.2570
13303SOL    HW141072   3.604   8.312   8.501 -0.5096  1.2177  1.8066
13303SOL    HW241073   3.651   8.296   8.643  2.1081 -0.1154  0.8484
13304SOL     OW41074   5.317   6.707   4.496  0.4748  0.1687 -0.1959
13304SOL    HW141075   5.255   6.665   4.555  0.4974  0.2014 -0.1485
13304SOL    HW241076   5.283   6.690   4.409  0.6989 -0.2876 -0.1988
13305SOL     OW41077   3.388   2.200   2.385  0.5550 -0.5627  0.6444
13305SOL    HW141078   3.454   2.267   2.404 -1.1106  0.9974  1.2123
13305SOL    HW241079   3.305   2.248   2.380 -0.4628 -2.3183 -0.9081
13306SOL     OW41080   6.220   5.572   1.544 -0.4043  0.5225  0.1160
13306SOL    HW141081   6.258   5.577   1.456 -0.6094 -0.2364 -0.0265
13306SOL    HW241082   6.282   5.517   1.593 -1.4258 -0.9391 -0.1881
13307SOL     OW41083   5.346   2.528   3.930 -0.3065  0.0748 -0.4552
13307SOL    HW141084   5.301   2.452   3.966 -0.6123 -0.0793 -1.1468
13307SOL    HW241085   5.366   2.503   3.840 -0.5242  0.8626 -0.7261
13308SOL     OW41086   4.305   4.143   6.369 -0.7296 -0.4284 -0.2202
13308SOL    HW141087   4.298   4.058   6.326 -0.1969  0.2421 -1.7077
13308SOL    HW241088   4.377   4.187   6.324 -0.3066  0.4310  1.2177
13309SOL     OW41089   4.156   1.158   8.050 -0.3373 -0.0395 -0.2845
13309SOL    HW141090   4.183   1.249   8.057  1.3918 -0.5925  1.1063
13309SOL    HW241091   4.089   1.147   8.117  0.7510 -0.1784  0.8170
13310SOL     OW41092   1.444   4.649   3.873 -0.9593  0.1618 -0.0750
13310SOL    HW141093   1.452   4.581   3.806  0.6418 -0.4820  0.7171
13310SOL    HW241094   1.421   4.601   3.953  0.6480  0.4381  0.5973
13311SOL     OW41095   0.855   6.414   8.291  0.5493 -0.1106 -0.3140
13311SOL    HW141096   0.898   6.477   8.234 -0.9848  1.3308  0.0257
13311SOL    HW241097   0.766   6.408   8.256 -0.2233  0.2960  1.4962
13312SOL     OW41098   1.129   5.818   8.610 -0.3883 -0.3795  0.8327
13312SOL    HW141099   1.148   5.746   8.670  1.2053 -1.5137 -0.8911
13312SOL    HW241100   1.078   5.778   8.540 -1.0943  0.6121  0.7622
13313SOL     OW41101   1.031   6.177   8.174 -0.0369 -0.2089  0.1930
13313SOL    HW141102   0.951   6.219   8.206  1.4555  2.1821  1.0318
13313SOL    HW241103   1.040   6.098   8.228 -0.9129  0.4316  1.3156
13314SOL     OW41104   8.795   1.153   2.636  0.1092 -0.1513  0.3770
13314SOL    HW141105   8.736   1.101   2.581  1.0093 -2.8091  1.7670
13314SOL    HW241106   8.763   1.141   2.725  1.8220 -0.4125  1.0030
13315SOL     OW41107   8.569   0.221   4.132  0.2848  0.7035  0.0842
13315SOL    HW141108   8.554   0.271   4.213  1.4279  0.7911  0.2596
13315SOL    HW241109   8.602   0.136   4.162 -1.2413 -0.0412 -0.2338
13316SOL     OW41110   3.912   4.238   2.261 -0.0910  0.2486 -0.0877
13316SOL    HW141111   3.928   4.186   2.182  1.4428  0.4833  0.0340
13316SOL    HW241112   3.979   4.208   2.323 -1.1888  0.1501  1.0982
13317SOL     OW41113   0.325   6.863   1.850 -0.3222 -0.2656  0.0663
13317SOL    HW141114   0.357   6.784   1.893  0.8867  0.5033  0.6126
13317SOL    HW241115   0.392   6.929   1.867 -1.5946  1.0620  0.1595
13318SOL     OW41116   1.305   3.283   8.534 -0.1098  0.1252  0.0863
13318SOL    HW141117   1.355   3.359   8.566  1.2391 -0.1710 -1.2031
13318SOL    HW241118   1.267   3.313   8.451 -1.4281  0.0673  0.6404
13319SOL     OW41119   2.914   7.353   4.686 -0.1946 -0.2243  0.0305
13319SOL    HW141120   2.859   7.293   4.636  0.0051  0.5700 -1.2154
13319SOL    HW241121   2.887   7.342   4.777 -2.0203 -0.2441 -0.4870
13320SOL     OW41122   7.109   7.333   6.162 -0.2342 -0.1968 -0.2214
13320SOL    HW141123   7.102   7.315   6.255  1.7393 -0.2624 -0.0469
13320SOL    HW241124   7.128   7.248   6.122 -0.3328 -0.0494 -0.5872
13321SOL     OW41125   8.199   8.854   3.750  0.2589 -0.2369  0.6808
13321SOL    HW141126   8.170   8.914   3.682  0.7534  0.1133  0.7731
13321SOL    HW241127   8.177   8.899   3.832  1.4080  0.2144  0.7539
13322SOL     OW41128   4.051   2.774   5.487 -0.0056  0.0110  0.3627
13322SOL    HW141129   4.078   2.682   5.489 -0.3526 -0.0869  0.7523
13322SOL    HW241130   3.985   2.779   5.418 -0.3132 -0.1254  0.6469
13323SOL     OW41131   3.487   3.382   3.500 -0.4169 -0.4041 -0.1017
13323SOL    HW141132   3.394   3.357   3.500 -0.6899  0.5950 -0.0549
13323SOL    HW241133   3.533   3.302   3.526 -1.1177 -1.3922 -1.7162
13324SOL     OW41134   3.714   7.396   0.491  0.0718  0.2542 -0.2896
13324SOL    HW141135   3.791   7.341   0.510 -0.9377 -0.4167  2.1837
13324SOL    HW241136   3.745   7.486   0.506  0.1744 -0.0697  1.6825
13325SOL     OW41137   2.161   7.604   2.984 -0.3873  0.2182  0.3027
13325SOL    HW141138   2.188   7.512   2.979 -1.2185 -0.0798  1.0375
13325SOL    HW241139   2.113   7.620   2.903  1.2936  0.5430 -0.6726
13326SOL     OW41140   0.817   7.064   5.081  0.5806 -0.0937  0.2778
13326SOL    HW141141   0.819   6.971   5.060  1.9292 -0.4281  1.6610
13326SOL    HW241142   0.745   7.072   5.145  0.0759 -0.0638 -0.2858
13327SOL     OW41143   5.855   2.184   5.046  0.0914 -0.2154 -0.4117
13327SOL    HW141144   5.840   2.209   5.138  0.5882  1.1290 -0.6675
13327SOL    HW241145   5.926   2.243   5.017 -0.0392 -0.6466 -1.6479
13328SOL     OW41146   3.580   0.116   3.038 -0.1008 -0.7215  0.4261
13328SOL    HW141147   3.536   0.139   2.956  0.3775 -1.1889  0.0376
13328SOL    HW241148   3.657   0.172   3.041 -1.0753  0.6694  1.4869
13329SOL     OW41149   8.256   1.102   6.194  0.0838  0.3131 -0.7364
13329SOL    HW141150   8.172   1.085   6.152  0.7775  0.4443 -2.2671
13329SOL    HW241151   8.317   1.042   6.151  0.5758 -0.6375  1.1964
13330SOL     OW41152   6.897   2.642   7.604  0.5700  0.1876  0.1043
13330SOL    HW141153   6.960   2.600   7.662  0.2865  0.2770  0.4778
13330SOL    HW241154   6.928   2.622   7.516 -1.4177 -3.7848  0.1101
13331SOL     OW41155   2.238   7.728   2.490  0.5285  0.5209 -0.3881
13331SOL    HW141156   2.207   7.734   2.580  2.4519 -0.2428  0.3764
13331SOL    HW241157   2.259   7.635   2.479 -0.8048  0.3571 -2.0655
13332SOL     OW41158   4.108   0.057   2.230  0.4844 -0.5768 -0.0171
13332SOL    HW141159   4.153   0.094   2.154  0.2380  2.6964  1.2757
13332SOL    HW241160   4.021   0.034   2.198  0.9790 -0.9800 -1.1057
13333SOL     OW41161   8.182   8.320   0.301  0.2133 -0.1279  0.3456
13333SOL    HW141162   8.161   8.229   0.319  0.8448 -0.6520 -1.4018
13333SOL    HW241163   8.098   8.363   0.288 -0.0368 -1.2569 -2.3016
13334SOL     OW41164   2.999   0.916   5.458  0.2495 -0.6954 -0.0273
13334SOL    HW141165   2.928   0.973   5.490  0.6203  0.3521 -1.0060
13334SOL    HW241166   2.958   0.831   5.446 -0.3059 -0.6765  1.5588
13335SOL     OW41167   1.112   4.845   3.036  0.0864  0.0348 -0.2602
13335SOL    HW141168   1.017   4.858   3.041  0.1939  0.3418  1.5573
13335SOL    HW241169   1.149   4.929   3.061  0.8015 -0.7278  1.4485
13336SOL     OW41170   6.517   3.194   2.730  0.2220 -0.2957 -0.2058
13336SOL    HW141171   6.546   3.268   2.783  0.8728  1.1920 -2.4990
13336SOL    HW241172   6.423   3.187   2.747  0.3111  0.5020  0.6776
13337SOL     OW41173   8.411   0.425   5.919 -0.2926 -0.0832  0.3007
13337SOL    HW141174   8.496   0.464   5.896 -0.5217  0.0875 -0.2656
13337SOL    HW241175   8.372   0.486   5.981 -0.1045 -0.0482  0.3868
13338SOL     OW41176   5.153   0.056   0.168 -0.0339 -0.2228 -0.1289
13338SOL    HW141177   5.129   0.055   0.260 -1.5708 -0.3720 -0.5032
13338SOL    HW241178   5.176  -0.035   0.148  2.0313  0.0985  0.4810
13339SOL     OW41179   1.478   3.079   0.348  0.2125 -0.4865 -0.5125
13339SOL    HW141180   1.473   3.142   0.276 -0.2318 -0.5189 -0.5160
13339SOL    HW241181   1.567   3.045   0.344  0.3517 -0.1106 -0.7249
13340SOL     OW41182   5.694   5.231   4.404  0.1458 -0.2249 -0.1705
13340SOL    HW141183   5.671   5.321   4.379 -2.1627 -0.6299  0.3272
13340SOL    HW241184   5.748   5.200   4.331 -0.5109  0.9801 -1.2203
13341SOL     OW41185   8.742   0.422   6.586 -0.4934 -0.3039 -0.6010
13341SOL    HW141186   8.707   0.344   6.628 -2.9913  1.7239  1.4282
13341SOL    HW241187   8.668   0.458   6.538  0.8357  0.4353 -2.1906
13342SOL     OW41188   0.698   2.896   1.102 -0.3633  0.3665 -0.1784
13342SOL    HW141189   0.647   2.884   1.022  1.2622 -1.1961 -1.0593
13342SOL    HW241190   0.650   2.846   1.168 -0.4545 -0.3945 -0.7971
13343SOL     OW41191   1.501   0.547   3.397  0.4533 -0.1146 -0.1464
13343SOL    HW141192   1.525   0.469   3.346  1.1061  0.2155 -0.3487
13343SOL    HW241193   1.563   0.614   3.370 -0.5592  0.6986 -0.5002
13344SOL     OW41194   3.588   0.916   3.418  0.1798 -0.3337  0.1997
13344SOL    HW141195   3.654   0.974   3.456  0.2665  0.4513 -1.0792
13344SOL    HW241196   3.633   0.832   3.406  2.3517  1.1077 -4.1291
13345SOL     OW41197   7.113   7.652   2.282 -0.0272 -0.2521  0.0828
13345SOL    HW141198   7.025   7.663   2.244 -0.0782 -0.4339  0.1461
13345SOL    HW241199   7.131   7.559   2.273 -0.2058 -0.3714  0.8689
13346SOL     OW41200   5.914   2.492   1.087  0.0530 -0.5126 -0.0110
13346SOL    HW141201   5.948   2.426   1.147  1.1885  0.0878  0.0371
13346SOL    HW241202   5.881   2.442   1.012  1.3596 -1.1080 -0.2021
13347SOL     OW41203   0.932   7.969   3.210  0.4439 -0.2825 -0.5565
13347SOL    HW141204   1.020   7.936   3.192  0.7438 -0.0939  0.4766
13347SOL    HW241205   0.882   7.892   3.236  0.8846 -0.1285  0.8933
13348SOL     OW41206   1.263   8.854   8.821  0.2382 -0.2333  0.6085
13348SOL    HW141207   1.274   8.772   8.868 -0.8926 -2.0828 -2.1215
13348SOL    HW241208   1.171   8.876   8.831 -0.2435 -1.1455 -1.3323
13349SOL     OW41209   4.504   3.619   5.982 -0.6611  0.0010 -0.4769
13349SOL    HW141210   4.577   3.673   6.012 -1.0105  1.3375 -1.9339
13349SOL    HW241211   4.444   3.618   6.056 -0.3650  1.1110 -0.2006
13350SOL     OW41212   5.778   4.677   8.439  0.5542 -0.2289  0.0980
13350SOL    HW141213   5.737   4.688   8.525  1.5396 -0.0196  0.5593
13350SOL    HW241214   5.788   4.582   8.430 -1.5505 -0.4186 -0.7826
13351SOL     OW41215   5.917   2.475   3.126 -0.4720 -0.5853 -0.3049
13351SOL    HW141216   5.874   2.443   3.205  2.4618 -0.5868  1.4254
13351SOL    HW241217   5.972   2.402   3.097  1.1012  0.5366 -0.2836
13352SOL     OW41218   7.547   0.759   5.374 -0.0651  0.6084  0.1979
13352SOL    HW141219   7.583   0.672   5.388  1.2053  0.9471 -0.7455
13352SOL    HW241220   7.613   0.818   5.412 -0.4130  1.1909 -0.0951
13353SOL     OW41221   7.324   6.806   6.901  0.0586  0.6979  0.5311
13353SOL    HW141222   7.398   6.746   6.904 -0.3277  0.1643 -0.1784
13353SOL    HW241223   7.252   6.756   6.940 -0.3798  0.5225 -0.4853
13354SOL     OW41224   4.478   8.036   4.110 -0.2515 -0.3653  0.0720
13354SOL    HW141225   4.516   7.949   4.110  0.1656 -0.1944  0.7454
13354SOL    HW241226   4.401   8.029   4.166 -0.6950 -0.4940 -0.5473
13355SOL     OW41227   2.552   4.490   5.013 -0.5036  0.3566 -0.3037
13355SOL    HW141228   2.483   4.478   5.079 -0.3339  0.3719 -0.1207
13355SOL    HW241229   2.537   4.578   4.978  1.1032  1.5517  1.7510
13356SOL     OW41230   6.824   0.497   7.729  0.9984  0.5459  0.1703
13356SOL    HW141231   6.890   0.431   7.708  1.6680  1.2707 -0.0332
13356SOL    HW241232   6.870   0.561   7.783  0.0823  0.2973  1.2983
13357SOL     OW41233   0.253   4.249   5.051 -0.1313 -0.0095 -0.2052
13357SOL    HW141234   0.344   4.243   5.080 -0.0100  3.5843  0.6480
13357SOL    HW241235   0.205   4.192   5.112  1.3470 -0.8643  0.2188
13358SOL     OW41236   1.201   1.442   6.501 -0.0927  0.3444 -0.1071
13358SOL    HW141237   1.208   1.415   6.593  1.3375 -0.8193 -0.5047
13358SOL    HW241238   1.281   1.407   6.461  0.0625  2.1480 -1.4765
13359SOL     OW41239   4.157   5.900   6.534 -0.3353  0.0486 -0.1765
13359SOL    HW141240   4.077   5.880   6.486 -1.2921 -0.1450  1.4218
13359SOL    HW241241   4.135   5.978   6.585  1.1558  1.1774 -1.1796
13360SOL     OW41242   1.445   5.691   7.987  0.0352 -0.3809  0.3416
13360SOL    HW141243   1.446   5.742   7.907 -1.0053 -0.6402  0.1451
13360SOL    HW241244   1.359   5.709   8.027  0.1211 -1.0451  0.8613
13361SOL     OW41245   2.053   5.123   3.924  0.0052  0.0801  0.0668
13361SOL    HW141246   2.118   5.192   3.938 -0.2764  0.0241  1.7919
13361SOL    HW241247   2.068   5.061   3.995 -0.7719 -0.8452 -0.5569
13362SOL     OW41248   0.050   1.431   7.101 -0.0010  0.2808 -0.0997
13362SOL    HW141249   0.115   1.467   7.040  0.7883 -1.9241 -0.6709
13362SOL    HW241250   0.039   1.340   7.072 -2.8860  0.3781  0.3879
13363SOL     OW41251   0.618   7.437   3.856  0.5457  0.4680  0.9286
13363SOL    HW141252   0.631   7.529   3.877  1.3465  0.0467  2.4547
13363SOL    HW241253   0.706   7.403   3.839  0.2824 -0.0594  0.5677
13364SOL     OW41254   3.427   7.363   7.422 -0.4215 -0.4227  0.0457
13364SOL    HW141255   3.439   7.316   7.340  2.2914 -1.3730  0.8821
13364SOL    HW241256   3.478   7.444   7.411 -1.8134  0.4943  0.0638
13365SOL     OW41257   8.860   7.764   1.962 -0.0710  0.1557 -1.2391
13365SOL    HW141258   8.819   7.719   1.888  0.9120 -0.6273 -1.3270
13365SOL    HW241259   8.911   7.697   2.006 -3.6217 -0.4870  2.5728
13366SOL     OW41260   4.123   0.668   3.199 -0.1738 -0.6069  0.4968
13366SOL    HW141261   4.116   0.760   3.226 -0.4193  0.0292 -1.5976
13366SOL    HW241262   4.055   0.623   3.250 -1.0844  0.6541  0.4500
13367SOL     OW41263   6.032   0.563   0.840  0.4558  0.5500 -0.0383
13367SOL    HW141264   6.015   0.560   0.746 -0.9107 -1.1768  0.2116
13367SOL    HW241265   5.946   0.551   0.880  1.3568 -1.6303  1.4070
13368SOL     OW41266   0.614   5.638   5.516  0.1071 -0.1297  0.6721
13368SOL    HW141267   0.680   5.575   5.486  0.4896  0.7304 -0.3259
13368SOL    HW241268   0.551   5.642   5.445  0.7492  1.5432  0.1559
13369SOL     OW41269   2.539   7.474   5.484  0.4199 -0.0573 -0.5908
13369SOL    HW141270   2.503   7.417   5.416  0.1739  0.0879 -0.5824
13369SOL    HW241271   2.490   7.555   5.476 -0.7403 -0.5673  0.8016
13370SOL     OW41272   8.163   3.808   3.166 -0.7125  0.1486  0.7508
13370SOL    HW141273   8.184   3.839   3.254  1.5291 -0.5576  0.5158
13370SOL    HW241274   8.152   3.713   3.176  1.1940 -0.1775  0.0367
13371SOL     OW41275   5.562   4.485   4.237 -0.3122 -0.1612 -0.2205
13371SOL    HW141276   5.621   4.535   4.182  0.5329 -1.8469 -0.9212
13371SOL    HW241277   5.476   4.494   4.196 -0.4894  1.8276  0.4789
13372SOL     OW41278   7.002   8.566   6.961  0.1727  0.5380 -0.5880
13372SOL    HW141279   6.990   8.479   6.923 -1.0778  0.2687  0.3825
13372SOL    HW241280   7.038   8.550   7.048 -0.1452  0.9908 -0.3703
13373SOL     OW41281   3.031   5.351   2.456  0.0359 -0.1592 -0.0229
13373SOL    HW141282   2.964   5.335   2.522  0.4063  1.3447  0.7675
13373SOL    HW241283   2.989   5.328   2.373 -1.6182  1.0852  0.4117
13374SOL     OW41284   5.629   5.296   6.315  0.4768 -0.4352  0.4222
13374SOL    HW141285   5.598   5.243   6.388  2.9344 -1.1812  1.0167
13374SOL    HW241286   5.680   5.366   6.355 -0.4683  0.8456 -0.4966
13375SOL     OW41287   4.754   1.004   1.385  0.0516 -0.7477 -0.7719
13375SOL    HW141288   4.798   0.992   1.300  0.9178 -2.7423 -0.1149
13375SOL    HW241289   4.825   1.028   1.445 -0.6993  1.6259 -0.7215
13376SOL     OW41290   5.371   6.669   1.985  0.6440  0.2083 -0.7690
13376SOL    HW141291   5.278   6.653   1.968  0.2182  1.7688 -0.0775
13376SOL    HW241292   5.383   6.645   2.077  1.0981 -0.6214 -1.0336
13377SOL     OW41293   6.340   3.310   7.848  0.5002 -0.2364 -0.0350
13377SOL    HW141294   6.262   3.318   7.903  0.2346  2.0144 -0.6150
13377SOL    HW241295   6.409   3.356   7.897  0.5459  0.8130 -1.0370
13378SOL     OW41296   5.231   5.040   7.746  0.3250  0.2386 -0.4194
13378SOL    HW141297   5.258   5.090   7.669 -0.2893 -1.1407 -1.5933
13378SOL    HW241298   5.266   4.952   7.731  0.3734  0.0018  0.9927
13379SOL     OW41299   5.511   4.252   5.133  0.1935  0.2501  0.1352
13379SOL    HW141300   5.571   4.237   5.205  1.9708  3.1838 -0.5484
13379SOL    HW241301   5.428   4.274   5.174  0.0502 -1.9074  1.1288
13380SOL     OW41302   0.117   7.602   2.166 -0.2135 -0.5003  0.0504
13380SOL    HW141303   0.111   7.519   2.213 -0.2716 -0.2670  0.4611
13380SOL    HW241304   0.167   7.659   2.224  1.2643 -0.7264 -0.9218
13381SOL     OW41305   1.885   0.396   4.793 -0.0477 -0.0436  0.1267
13381SOL    HW141306   1.903   0.477   4.840  3.4559 -0.1579 -0.6929
13381SOL    HW241307   1.926   0.328   4.846 -1.7242 -1.1207  0.1018
13382SOL     OW41308   1.265   2.404   6.028 -0.1078  0.3593  0.1424
13382SOL    HW141309   1.228   2.393   6.116  0.1829 -0.2504  0.1897
13382SOL    HW241310   1.331   2.335   6.021 -0.8707 -0.2923 -0.9411
13383SOL     OW41311   3.074   5.480   2.039 -0.6738  0.6465  0.0105
13383SOL    HW141312   3.008   5.433   2.090 -0.7240  0.8779  0.1577
13383SOL    HW241313   3.030   5.560   2.011 -1.4006 -0.4561 -2.2627
13384SOL     OW41314   3.094   7.045   8.858  0.5140  0.1505 -0.2369
13384SOL    HW141315   3.065   6.970   8.806 -0.4410  0.8931 -0.8063
13384SOL    HW241316   3.038   7.043   8.936  1.0556 -0.1978  0.1543
13385SOL     OW41317   3.229   3.136   6.576 -0.1067  0.4511  0.2555
13385SOL    HW141318   3.153   3.111   6.630 -0.6091 -1.9894 -1.3984
13385SOL    HW241319   3.287   3.060   6.580 -0.7260 -0.4304 -3.4450
13386SOL     OW41320   5.525   8.040   6.219 -0.3546  0.3346  0.5398
13386SOL    HW141321   5.481   7.964   6.259  0.1138 -0.5909 -0.6328
13386SOL    HW241322   5.501   8.035   6.127  0.4274  1.1034  0.2826
13387SOL     OW41323   7.515   2.504   4.358  0.7123  0.2356  0.2473
13387SOL    HW141324   7.545   2.594   4.372  0.0642  0.6673 -0.9835
13387SOL    HW241325   7.567   2.452   4.419  1.2859  1.4081  0.7972
13388SOL     OW41326   1.093   6.541   2.701  0.3031 -0.7194 -0.6145
13388SOL    HW141327   1.139   6.552   2.784 -0.4200  0.2538 -0.3326
13388SOL    HW241328   1.129   6.460   2.665  2.1117 -0.0837 -0.3270
13389SOL     OW41329   8.567   3.740   4.687 -0.2327  0.7477 -0.6623
13389SOL    HW141330   8.585   3.680   4.614  0.7953  1.3775 -0.9456
13389SOL    HW241331   8.487   3.705   4.727 -0.4408  0.0050 -1.6756
13390SOL     OW41332   6.260   5.456   8.108  0.1654  0.0670 -0.0939
13390SOL    HW141333   6.173   5.457   8.069  0.3040  1.2967 -0.4046
13390SOL    HW241334   6.252   5.510   8.186  0.1627 -1.5026  1.0452
13391SOL     OW41335   7.141   7.484   7.491 -1.3626 -0.4540  0.3594
13391SOL    HW141336   7.183   7.537   7.558 -3.5112  2.7602 -0.6088
13391SOL    HW241337   7.083   7.425   7.539 -1.1222  0.1356  1.3998
13392SOL     OW41338   2.924   5.213   4.713  0.0258  0.4379 -0.2829
13392SOL    HW141339   2.943   5.222   4.619  1.8001  1.0359  0.0846
13392SOL    HW241340   2.872   5.290   4.734 -0.4332  0.2726 -0.7814
13393SOL     OW41341   3.900   0.169   3.394 -0.1257 -0.4043 -0.1425
13393SOL    HW141342   3.989   0.140   3.377 -0.7584 -1.8286 -1.2967
13393SOL    HW241343   3.874   0.120   3.472 -0.3705 -1.1326 -0.6675
13394SOL     OW41344   6.745   3.649   1.636  0.1795 -0.6164  0.1309
13394SOL    HW141345   6.695   3.647   1.554  1.4181 -1.1975 -0.6356
13394SOL    HW241346   6.681   3.674   1.702 -0.7142  0.5035 -1.1005
13395SOL     OW41347   0.624   5.106   8.326 -0.2070 -0.0190  0.0737
13395SOL    HW141348   0.698   5.136   8.273  1.2156  0.3892  2.1786
13395SOL    HW241349   0.646   5.131   8.416 -2.6453 -0.4260  0.8689
13396SOL     OW41350   7.017   0.940   0.059 -0.6844 -0.4766  0.0786
13396SOL    HW141351   6.994   0.860   0.010  0.5158 -0.1753 -1.0487
13396SOL    HW241352   7.106   0.924   0.089 -0.2835  0.5891 -0.5025
13397SOL     OW41353   1.460   1.926   5.627 -0.0538  0.3080 -0.0929
13397SOL    HW141354   1.374   1.953   5.658  0.2694  2.0378 -0.6244
13397SOL    HW241355   1.519   1.996   5.655  1.5074 -1.5966  1.6664
13398SOL     OW41356   4.956   2.281   6.469 -0.2678 -0.7287 -0.3811
13398SOL    HW141357   4.905   2.218   6.417 -1.4958 -0.3499  0.3288
13398SOL    HW241358   5.013   2.324   6.406  1.6352 -3.4762 -0.7164
13399SOL     OW41359   2.503   6.772   1.162 -0.4281 -0.3817  0.1707
13399SOL    HW141360   2.480   6.779   1.070  0.8015 -3.0529 -0.4446
13399SOL    HW241361   2.446   6.701   1.195  0.9253 -1.2310  0.7505
13400SOL     OW41362   1.202   3.022   2.821 -0.1937  0.1032 -0.2084
13400SOL    HW141363   1.221   2.931   2.798 -1.3860 -0.4575  0.9086
13400SOL    HW241364   1.106   3.028   2.816 -0.2999  0.7012  1.7424
13401SOL     OW41365   7.083   2.609   6.610 -0.0582  0.0462 -0.1114
13401SOL    HW141366   7.058   2.701   6.601 -0.7916  0.2789  3.0517
13401SOL    HW241367   7.173   2.612   6.644  0.6574 -0.5396 -1.8041
13402SOL     OW41368   1.628   2.423   5.667  0.0529 -0.2410 -0.5694
13402SOL    HW141369   1.545   2.452   5.628 -0.4523  0.3561  0.9076
13402SOL    HW241370   1.695   2.473   5.621 -0.4345 -0.2702 -1.3448
13403SOL     OW41371   6.053   7.210   7.678 -0.1632 -0.1978  0.0733
13403SOL    HW141372   6.116   7.280   7.695 -0.9233  0.6108 -0.3575
13403SOL    HW241373   6.017   7.230   7.591 -0.4149 -1.1059 -0.0474
13404SOL     OW41374   1.191   6.490   5.063  0.7565  0.4001  0.0913
13404SOL    HW141375   1.150   6.408   5.035  0.6162  0.6049 -0.3094
13404SOL    HW241376   1.164   6.501   5.154 -1.3033  1.2847 -0.5815
13405SOL     OW41377   8.628   4.066   4.979 -0.1453  0.3234  0.3520
13405SOL    HW141378   8.538   4.097   4.993 -0.3635  0.2502 -0.8211
13405SOL    HW241379   8.621   3.971   4.982 -0.2381  0.2984 -0.4280
13406SOL     OW41380   2.115   3.675   1.591 -0.1480  0.4834 -0.0011
13406SOL    HW141381   2.166   3.604   1.553  0.4247 -0.4781  2.3650
13406SOL    HW241382   2.039   3.684   1.534  0.5652 -0.9587 -1.2327
13407SOL     OW41383   3.999   4.981   1.731  0.2281 -0.0187  0.1129
13407SOL    HW141384   3.914   5.019   1.754  0.1501 -0.3133  0.3200
13407SOL    HW241385   3.985   4.886   1.735  1.0103 -0.0937  1.8659
13408SOL     OW41386   3.074   7.081   7.722 -0.1509 -0.7362 -0.3154
13408SOL    HW141387   3.129   7.008   7.750  1.5673  0.1937 -1.1023
13408SOL    HW241388   3.058   7.131   7.802  1.7367 -0.0300 -0.3246
13409SOL     OW41389   4.956   5.105   3.023  0.4874  0.3662  0.2227
13409SOL    HW141390   5.001   5.021   3.015 -0.5823 -0.1856 -0.1051
13409SOL    HW241391   5.026   5.170   3.018  1.4687 -0.5298  1.6796
13410SOL     OW41392   2.341   8.185   0.862  0.4219  0.9985  0.6135
13410SOL    HW141393   2.355   8.128   0.787  0.1253  2.9774 -1.0304
13410SOL    HW241394   2.396   8.148   0.931  1.4039 -0.3700 -0.8480
13411SOL     OW41395   8.454   7.871   7.817 -0.1258  0.2780  0.0066
13411SOL    HW141396   8.384   7.934   7.799  0.7732  1.2977 -0.0450
13411SOL    HW241397   8.473   7.882   7.910 -1.5458 -1.6227  0.5790
13412SOL     OW41398   7.533   1.341   2.204 -0.0731  0.0075  0.3914
13412SOL    HW141399   7.535   1.436   2.191  2.0260  0.0513  0.7773
13412SOL    HW241400   7.486   1.308   2.127 -3.5041  1.4892  1.6388
13413SOL     OW41401   3.132   7.237   3.032  0.2444  0.4717  0.0834
13413SOL    HW141402   3.055   7.293   3.032  1.3954  2.2492 -2.2244
13413SOL    HW241403   3.189   7.275   3.099 -0.1839  0.1925  0.6122
13414SOL     OW41404   7.827   5.277   0.997  0.0316 -0.2429  0.5913
13414SOL    HW141405   7.910   5.320   1.016  0.0612 -0.3087  0.6129
13414SOL    HW241406   7.811   5.295   0.904  0.0844 -0.2542  0.5798
13415SOL     OW41407   0.878   2.104   2.809  0.1684  0.6619  0.3648
13415SOL    HW141408   0.899   2.034   2.747  0.4071 -0.5533  1.7616
13415SOL    HW241409   0.875   2.060   2.894 -0.2696  2.2597  1.2061
13416SOL     OW41410   0.452   7.627   4.235 -0.4341  0.2670 -0.2305
13416SOL    HW141411   0.416   7.581   4.311 -2.5126  0.4775 -0.9983
13416SOL    HW241412   0.460   7.718   4.264 -2.5580  0.6293 -0.6013
13417SOL     OW41413   5.475   7.239   3.093  0.2624  0.7937 -0.6903
13417SOL    HW141414   5.384   7.234   3.064 -0.7426  0.5426  2.2202
13417SOL    HW241415   5.485   7.328   3.125  0.9937  0.7418 -0.7553
13418SOL     OW41416   1.194   0.936   0.138  0.1498  0.2343  0.1620
13418SOL    HW141417   1.103   0.914   0.122 -0.1049  1.6056 -0.4091
13418SOL    HW241418   1.208   0.915   0.230 -0.8863  0.4632  0.3822
13419SOL     OW41419   5.520   8.349   3.651  0.7097  0.4193  0.0029
13419SOL    HW141420   5.600   8.375   3.698 -0.0205  1.4031  0.7493
13419SOL    HW241421   5.474   8.291   3.713  0.9703 -0.3852 -0.5401
13420SOL     OW41422   0.198   5.341   8.805 -0.3406 -0.0318  0.2300
13420SOL    HW141423   0.256   5.267   8.824 -0.1760  0.4683  1.7751
13420SOL    HW241424   0.194   5.390   8.886 -2.9318 -0.0360  0.1849
13421SOL     OW41425   6.721   5.655   4.043  0.4008 -0.1690  0.1358
13421SOL    HW141426   6.634   5.676   4.010  0.4481  1.4183  0.9453
13421SOL    HW241427   6.763   5.608   3.971 -1.4945 -2.0226  0.1502
13422SOL     OW41428   5.186   6.062   7.027 -0.3564  0.2539  0.2975
13422SOL    HW141429   5.240   6.136   7.001 -1.7239  1.1642 -0.0737
13422SOL    HW241430   5.113   6.102   7.075 -0.9111 -0.8869  0.4339
13423SOL     OW41431   1.315   3.384   0.529 -0.4203  0.3674 -0.1391
13423SOL    HW141432   1.263   3.304   0.533  1.1690 -0.6715  2.0771
13423SOL    HW241433   1.293   3.431   0.610  1.3649  0.3207  0.4151
13424SOL     OW41434   2.087   0.773   5.035 -0.4286 -0.5242  0.2819
13424SOL    HW141435   2.023   0.702   5.040 -1.7910  0.7329  1.8060
13424SOL    HW241436   2.035   0.853   5.035  1.1029  0.5176 -0.1117
13425SOL     OW41437   4.441   3.385   7.359  0.2964  0.4116  0.4663
13425SOL    HW141438   4.525   3.430   7.367  1.2129 -1.2124  0.4761
13425SOL    HW241439   4.448   3.312   7.420 -1.1509  0.2648  0.4794
13426SOL     OW41440   8.552   7.668   1.101 -0.7559 -0.3800 -0.2366
13426SOL    HW141441   8.633   7.713   1.079  0.1725 -1.7517  0.2596
13426SOL    HW241442   8.537   7.607   1.029 -0.8135 -0.8006  0.1186
13427SOL     OW41443   2.343   1.554   3.118 -0.0066 -0.0236  0.0850
13427SOL    HW141444   2.432   1.583   3.135 -0.0127  1.4460 -1.9127
13427SOL    HW241445   2.351   1.487   3.050 -0.3588 -0.9917  0.9665
13428SOL     OW41446   8.256   5.249   7.818  0.3070 -0.3499  0.0064
13428SOL    HW141447   8.290   5.319   7.874 -0.4101 -0.7298  0.9392
13428SOL    HW241448   8.172   5.226   7.858 -0.3047 -0.5119 -1.3374
13429SOL     OW41449   1.088   2.996   2.155 -0.3023 -0.3275  0.0535
13429SOL    HW141450   1.002   3.036   2.166 -0.1012 -0.0320  0.5813
13429SOL    HW241451   1.105   2.952   2.238 -0.2977 -1.1010 -0.3365
13430SOL     OW41452   0.743   0.948   0.295 -0.1122 -0.1665  0.3324
13430SOL    HW141453   0.814   1.001   0.332  1.5279 -1.8621 -0.2274
13430SOL    HW241454   0.664   0.978   0.341  0.7170  2.6351  0.0957
13431SOL     OW41455   1.911   2.828   3.668 -0.3612  0.2254  0.4576
13431SOL    HW141456   2.007   2.825   3.663 -0.4081  0.2809 -0.5052
13431SOL    HW241457   1.892   2.906   3.720  0.1304 -0.3970  1.6327
13432SOL     OW41458   7.957   7.184   8.101 -0.4550  0.2640  0.3611
13432SOL    HW141459   7.888   7.192   8.036  0.1627  1.0894 -0.2284
13432SOL    HW241460   7.918   7.134   8.173 -0.8523 -1.5476 -1.0406
13433SOL     OW41461   1.153   7.642   4.992  0.5661 -0.0256  0.0568
13433SOL    HW141462   1.170   7.694   5.071  0.2397  1.7454 -0.9954
13433SOL    HW241463   1.211   7.567   5.000 -1.3612 -1.3809  3.3054
13434SOL     OW41464   0.369   1.032   1.141  0.1319  0.3257  0.3603
13434SOL    HW141465   0.333   0.948   1.114  0.4338 -0.2398  1.6404
13434SOL    HW241466   0.305   1.097   1.111 -0.0636 -0.3450 -0.7034
13435SOL     OW41467   8.113   6.333   6.909 -0.3778 -0.0548  0.0083
13435SOL    HW141468   8.135   6.259   6.853  0.6484 -0.0983  0.4488
13435SOL    HW241469   8.044   6.299   6.967 -2.3726  0.3507 -1.9720
13436SOL     OW41470   4.629   0.955   7.831 -0.5936  0.2245  0.5155
13436SOL    HW141471   4.537   0.954   7.855 -0.4641 -1.2859  1.0868
13436SOL    HW241472   4.669   1.017   7.892 -0.9882 -0.3271  1.3609
13437SOL     OW41473   3.758   0.510   8.083  0.1662 -0.0502  0.0665
13437SOL    HW141474   3.675   0.555   8.071  0.7617  1.0370 -0.0926
13437SOL    HW241475   3.771   0.507   8.178 -0.9756 -1.9937  0.2081
13438SOL     OW41476   3.824   6.129   6.152  0.3993 -0.2866  0.3650
13438SOL    HW141477   3.887   6.057   6.147  0.0735 -0.4721 -1.4521
13438SOL    HW241478   3.845   6.185   6.078 -0.7488  0.3409  0.4896
13439SOL     OW41479   4.393   7.019   2.565 -0.1843 -0.2848 -0.8939
13439SOL    HW141480   4.353   7.106   2.557 -1.0979 -0.7551 -1.6315
13439SOL    HW241481   4.457   7.015   2.494  2.8368  1.2594  1.5150
13440SOL     OW41482   8.540   4.811   5.469  0.1323 -0.5727  0.0825
13440SOL    HW141483   8.470   4.840   5.410  0.9148  2.3342  0.4002
13440SOL    HW241484   8.621   4.829   5.421  0.7648  1.3493  1.7011
13441SOL     OW41485   5.408   5.837   0.661 -0.3959 -0.2340 -0.1980
13441SOL    HW141486   5.365   5.811   0.742  1.5344  0.4694  1.1477
13441SOL    HW241487   5.381   5.772   0.596 -1.8189 -0.9389  1.0607
13442SOL     OW41488   8.363   4.637   4.056  0.0094 -0.2771  0.5431
13442SOL    HW141489   8.332   4.707   3.998 -1.0576 -1.9015 -0.9339
13442SOL    HW241490   8.397   4.570   3.997  2.9914 -0.1990  1.9771
13443SOL     OW41491   8.538   1.956   5.535 -0.5247  0.0338  0.1376
13443SOL    HW141492   8.622   1.988   5.570  0.1266 -1.0092 -0.4223
13443SOL    HW241493   8.488   2.036   5.517 -0.3401  0.6446  2.0687
13444SOL     OW41494   5.048   8.192   1.699  0.0650  0.3425  0.3503
13444SOL    HW141495   5.061   8.258   1.631  1.2324 -1.2401 -1.0495
13444SOL    HW241496   5.056   8.241   1.781 -2.1702  2.4458 -0.5725
13445SOL     OW41497   4.025   1.535   5.559 -0.1912 -0.3087  0.0222
13445SOL    HW141498   3.944   1.567   5.518  0.1461  0.0379 -0.3846
13445SOL    HW241499   4.057   1.610   5.609  0.3968 -0.1279 -0.6146
13446SOL     OW41500   8.009   1.713   5.745  0.0101 -0.2755  0.2519
13446SOL    HW141501   7.985   1.688   5.835  2.6907 -1.8069  0.6425
13446SOL    HW241502   8.041   1.632   5.705  0.5552  0.7458 -1.4968
13447SOL     OW41503   0.296   1.966   3.354  0.4013 -0.0659  0.5803
13447SOL    HW141504   0.315   2.039   3.295 -2.0096  0.9300  0.9101
13447SOL    HW241505   0.373   1.960   3.411  0.9521  1.7752  0.0892
13448SOL     OW41506   8.737   1.159   3.041  0.1063 -0.0007 -0.5324
13448SOL    HW141507   8.727   1.226   3.107 -0.4668  0.2441 -0.8613
13448SOL    HW241508   8.744   1.077   3.090  1.9970  0.3873 -0.0685
13449SOL     OW41509   3.726   8.250   6.445 -0.8297  0.2820 -0.1307
13449SOL    HW141510   3.695   8.164   6.415  1.3001 -0.9736  1.0343
13449SOL    HW241511   3.800   8.270   6.387  2.8332 -1.8142  3.3022
13450SOL     OW41512   6.071   6.880   3.328 -1.2322  0.0405 -0.5284
13450SOL    HW141513   6.076   6.969   3.364  0.2563 -0.6307  1.0141
13450SOL    HW241514   6.119   6.885   3.245  1.2019  0.1459  0.7960
13451SOL     OW41515   3.165   0.853   4.020 -0.4926 -0.5298 -0.3864
13451SOL    HW141516   3.079   0.883   4.049 -0.2124 -0.7180  0.6842
13451SOL    HW241517   3.192   0.789   4.085  0.9375  0.3184 -0.0884
13452SOL     OW41518   2.569   4.455   8.804  0.0454  0.6434  0.1735
13452SOL    HW141519   2.569   4.375   8.857 -1.7570 -0.2124 -1.0092
13452SOL    HW241520   2.511   4.434   8.730  0.8656  2.4849 -1.0457
13453SOL     OW41521   8.820   7.237   7.282  0.7595  0.0705  0.6125
13453SOL    HW141522   8.747   7.180   7.260  0.2187  1.6196 -2.0802
13453SOL    HW241523   8.897   7.192   7.246  0.7325 -0.2096  0.9010
13454SOL     OW41524   4.355   3.760   6.463 -0.1590 -0.1337 -0.0227
13454SOL    HW141525   4.413   3.703   6.412 -0.0030  1.2377 -1.4904
13454SOL    HW241526   4.411   3.834   6.488 -1.0363  0.7735 -0.6782
13455SOL     OW41527   0.808   8.209   6.364 -0.5266 -1.0710  0.4290
13455SOL    HW141528   0.729   8.213   6.417 -0.2401  0.7849  0.7933
13455SOL    HW241529   0.783   8.251   6.281  0.4754  1.2816  1.2051
13456SOL     OW41530   1.978   7.460   2.170 -0.7475  0.3495 -0.4047
13456SOL    HW141531   1.912   7.508   2.221 -1.0002 -0.5949  0.1799
13456SOL    HW241532   1.944   7.371   2.165  0.5177 -0.1660 -0.0457
13457SOL     OW41533   0.952   4.686   5.070 -0.2210 -0.1330 -0.5970
13457SOL    HW141534   0.970   4.750   5.139 -0.8662 -0.6374  0.0523
13457SOL    HW241535   0.945   4.603   5.117 -0.2345 -0.5466 -1.3327
13458SOL     OW41536   5.391   4.748   2.958 -0.0005  0.1467 -0.2112
13458SOL    HW141537   5.429   4.710   2.879  0.0422  1.7545 -1.0190
13458SOL    HW241538   5.393   4.678   3.023  1.9373 -0.5845 -1.0033
13459SOL     OW41539   1.442   2.541   6.325 -0.7668 -0.2470  0.1337
13459SOL    HW141540   1.538   2.550   6.332 -0.6827 -0.9139 -0.1295
13459SOL    HW241541   1.413   2.628   6.296 -0.2548  0.0011  0.3387
13460SOL     OW41542   6.742   5.462   0.017 -0.3562  0.4152 -0.3816
13460SOL    HW141543   6.812   5.483  -0.045 -2.5580  2.0036 -2.4955
13460SOL    HW241544   6.722   5.370   0.000 -0.1541  0.5176 -1.2050
13461SOL     OW41545   1.698   6.399   8.827 -0.2861  0.6191 -0.0094
13461SOL    HW141546   1.607   6.422   8.846 -0.3926 -0.0618  0.3116
13461SOL    HW241547   1.693   6.338   8.754 -0.1355  0.0890  0.4146
13462SOL     OW41548   0.566   8.367   8.033  0.5530  0.0892  0.2425
13462SOL    HW141549   0.645   8.388   8.083  0.6576 -2.3280  1.2267
13462SOL    HW241550   0.499   8.426   8.068  1.1933  0.0416  1.6323
13463SOL     OW41551   4.763   3.486   1.994 -0.5176 -1.0196  0.2052
13463SOL    HW141552   4.796   3.455   2.078 -2.9043 -0.4767  1.4447
13463SOL    HW241553   4.830   3.547   1.963 -0.1812 -0.1527  2.4138
13464SOL     OW41554   3.505   7.332   6.136  0.1617 -0.1930 -0.0079
13464SOL    HW141555   3.451   7.254   6.150 -0.4101  0.1382 -0.3335
13464SOL    HW241556   3.480   7.364   6.049  0.3387  0.3918  0.1506
13465SOL     OW41557   8.186   5.088   0.141  0.8553  0.0631  0.2033
13465SOL    HW141558   8.196   5.100   0.235 -0.2196 -0.1288  0.3482
13465SOL    HW241559   8.213   5.172   0.104  0.7588  0.3231  0.7128
13466SOL     OW41560   4.124   2.336   3.498  0.0674 -0.4145  0.6507
13466SOL    HW141561   4.106   2.265   3.437  1.8641  0.9760 -1.7078
13466SOL    HW241562   4.189   2.300   3.558  1.1544 -0.7612 -0.6730
13467SOL     OW41563   3.466   2.940   0.353  0.5344  0.1469  0.0201
13467SOL    HW141564   3.551   2.905   0.378  0.0869 -0.4059  0.8098
13467SOL    HW241565   3.445   2.895   0.271  1.3548  0.8912 -0.6180
13468SOL     OW41566   4.585   3.770   3.955  0.5656 -0.0699 -0.7019
13468SOL    HW141567   4.644   3.734   4.021 -1.2788 -3.0290 -0.5112
13468SOL    HW241568   4.556   3.853   3.993  0.6028 -1.0387  1.6200
13469SOL     OW41569   6.668   5.655   3.497  0.0139 -0.2818  0.3500
13469SOL    HW141570   6.634   5.722   3.556  0.0840  0.4056 -0.3654
13469SOL    HW241571   6.628   5.676   3.412 -0.6103 -1.6363  0.2827
13470SOL     OW41572   0.446   3.826   3.492 -0.0884 -0.4238  0.2967
13470SOL    HW141573   0.372   3.768   3.508 -0.9110  0.3130 -0.7578
13470SOL    HW241574   0.498   3.782   3.426 -0.2386 -0.3735  0.1452
13471SOL     OW41575   7.798   0.468   0.227  0.1263  0.1906  0.1214
13471SOL    HW141576   7.829   0.537   0.286  0.5792 -0.1080  0.2343
13471SOL    HW241577   7.788   0.512   0.143  1.1441  0.2270  0.0095
13472SOL     OW41578   3.334   3.107   8.265 -0.8741 -0.4206  0.4884
13472SOL    HW141579   3.303   3.197   8.276  1.4343  0.3969  1.0851
13472SOL    HW241580   3.382   3.109   8.182 -0.5404 -1.0157  0.6634
13473SOL     OW41581   4.905   3.483   1.675 -0.1924 -0.3303  0.6652
13473SOL    HW141582   4.978   3.467   1.615 -0.4322  2.3357 -0.4861
13473SOL    HW241583   4.843   3.412   1.657 -1.4474  1.5785 -4.2815
13474SOL     OW41584   8.248   0.612   6.052  0.3555 -0.4193 -0.1415
13474SOL    HW141585   8.231   0.682   5.989 -1.1089  0.9515  1.6825
13474SOL    HW241586   8.182   0.546   6.033 -0.8775  0.5338  0.6646
13475SOL     OW41587   2.312   2.044   8.111 -0.1778 -0.1574 -0.3779
13475SOL    HW141588   2.256   2.097   8.054 -0.6168  0.1991  0.3773
13475SOL    HW241589   2.258   1.969   8.135 -0.5124  0.4228  0.7316
13476SOL     OW41590   8.059   0.944   7.131 -0.3393 -0.5489  0.7690
13476SOL    HW141591   8.011   0.975   7.208  0.6042 -0.1505  1.2121
13476SOL    HW241592   8.078   1.023   7.081  1.2015 -0.4981  1.3939
13477SOL     OW41593   1.956   5.698   5.879 -0.5557  0.5502  0.2637
13477SOL    HW141594   1.988   5.787   5.867 -2.3700  1.4208  1.4374
13477SOL    HW241595   2.030   5.651   5.918  0.7616  1.2263 -1.2864
13478SOL     OW41596   7.063   2.173   8.708 -0.4964  0.2382  0.0767
13478SOL    HW141597   7.080   2.130   8.625  0.2420  0.1997  0.2389
13478SOL    HW241598   7.137   2.234   8.719 -1.8857  2.1188 -0.5130
13479SOL     OW41599   5.091   8.853   8.172  0.2965 -0.1578  0.4536
13479SOL    HW141600   5.091   8.945   8.146  1.3676  0.2481  1.7915
13479SOL    HW241601   5.113   8.805   8.092 -0.4162  0.7203 -0.2906
13480SOL     OW41602   7.890   4.432   8.591  0.2197  0.8141 -0.1130
13480SOL    HW141603   7.818   4.424   8.654 -0.1717  2.2442 -0.3413
13480SOL    HW241604   7.969   4.433   8.645 -0.0521  1.0308  0.2862
13481SOL     OW41605   7.779   2.650   5.867 -0.0564 -0.2625 -0.6470
13481SOL    HW141606   7.806   2.677   5.955 -1.8043 -0.5122  0.0068
13481SOL    HW241607   7.851   2.679   5.810  0.0362  2.0818  0.5375
13482SOL     OW41608   7.383   5.165   3.427 -0.2572 -0.1253  0.1697
13482SOL    HW141609   7.414   5.214   3.503  0.2251  1.0547 -0.7458
13482SOL    HW241610   7.421   5.078   3.437 -0.7181 -0.1928  1.5853
13483SOL     OW41611   7.021   5.021   0.402  0.2001  0.5944 -0.6500
13483SOL    HW141612   6.984   5.008   0.489  1.0304  0.9938 -0.2256
13483SOL    HW241613   7.116   5.020   0.416  0.3656  3.4904 -1.0785
13484SOL     OW41614   3.957   0.747   6.196  0.2096  0.6720  0.0332
13484SOL    HW141615   3.988   0.836   6.179  0.2053  0.7967  0.6672
13484SOL    HW241616   4.035   0.693   6.187 -0.0658  0.5226 -1.8929
13485SOL     OW41617   7.859   3.888   4.622 -0.5005 -0.1188  0.5457
13485SOL    HW141618   7.808   3.937   4.559 -0.7900  0.1226  0.9608
13485SOL    HW241619   7.809   3.808   4.637 -0.3829 -0.2205  0.3957
13486SOL     OW41620   0.201   2.337   8.486 -0.2089 -0.0866 -0.0828
13486SOL    HW141621   0.245   2.418   8.460 -0.2339 -0.2569 -0.6640
13486SOL    HW241622   0.253   2.267   8.446 -0.2279 -0.3602  0.3556
13487SOL     OW41623   8.272   5.869   6.236  0.1653 -0.1171  0.6182
13487SOL    HW141624   8.234   5.801   6.181 -0.7905  1.2938 -0.5362
13487SOL    HW241625   8.203   5.892   6.298 -0.3611  1.3420 -0.4567
13488SOL     OW41626   5.153   2.460   4.589  0.4065  0.1821  0.0777
13488SOL    HW141627   5.139   2.472   4.495 -0.9219 -1.5540 -0.0146
13488SOL    HW241628   5.067   2.474   4.628  0.2018 -2.1676  0.6174
13489SOL     OW41629   8.740   4.671   0.396  0.1861  0.0474 -0.2825
13489SOL    HW141630   8.754   4.708   0.309  0.9513  0.2538 -0.0773
13489SOL    HW241631   8.698   4.741   0.446 -1.2486 -0.4194 -0.7670
13490SOL     OW41632   0.738   6.775   8.342  0.2391  0.0293 -0.2084
13490SOL    HW141633   0.735   6.732   8.256 -0.3138 -2.1315  0.8400
13490SOL    HW241634   0.682   6.722   8.398  1.6371  0.5962  1.8370
13491SOL     OW41635   2.029   0.961   3.366  0.0968  0.3127  0.1412
13491SOL    HW141636   2.094   0.991   3.428  0.8665 -1.3003  0.1708
13491SOL    HW241637   2.060   0.992   3.281 -0.9185  2.4537  0.4799
13492SOL     OW41638   3.315   2.894   2.008  0.0921 -0.3764 -0.1644
13492SOL    HW141639   3.262   2.919   2.084 -0.4113 -1.2235 -0.2311
13492SOL    HW241640   3.306   2.967   1.947 -1.1902 -0.6073 -0.2756
13493SOL     OW41641   4.595   5.255   6.188 -0.1522  0.8062 -0.3182
13493SOL    HW141642   4.512   5.217   6.158  0.0697  2.0032 -2.7295
13493SOL    HW241643   4.569   5.335   6.234 -0.3563  1.3898 -1.4165
13494SOL     OW41644   1.230   4.062   0.415 -0.1203  0.2704  0.3283
13494SOL    HW141645   1.227   4.030   0.324  1.1416 -1.1021  0.7425
13494SOL    HW241646   1.175   4.002   0.464  1.1747 -0.5131  0.8775
13495SOL     OW41647   8.170   3.677   0.574 -0.4449 -0.3873 -0.1768
13495SOL    HW141648   8.246   3.654   0.626 -1.0993 -3.1164 -0.3017
13495SOL    HW241649   8.096   3.672   0.635 -0.8817 -0.8344 -0.7315
13496SOL     OW41650   1.093   3.471   1.182  0.3447 -0.2983  0.0075
13496SOL    HW141651   1.166   3.489   1.241 -0.2396  0.6314  0.4808
13496SOL    HW241652   1.046   3.555   1.177 -2.0191 -1.4115  1.5968
13497SOL     OW41653   7.061   4.970   4.759 -0.7879  0.2211  0.3318
13497SOL    HW141654   7.000   4.925   4.701 -0.7218  0.7554 -0.1646
13497SOL    HW241655   7.100   4.901   4.811 -0.0823 -0.3961 -0.9826
13498SOL     OW41656   5.685   4.054   0.498  0.4177  1.0094  0.0632
13498SOL    HW141657   5.643   4.030   0.580 -0.0627  0.2037 -0.3924
13498SOL    HW241658   5.678   4.149   0.493  1.2603  1.1615  1.3651
13499SOL     OW41659   8.075   1.860   5.331 -0.2820  0.1696  0.0901
13499SOL    HW141660   8.137   1.902   5.271  0.9846  0.9124  1.8231
13499SOL    HW241661   8.013   1.929   5.354 -1.0853 -0.2547 -0.7064
13500SOL     OW41662   6.229   1.032   5.286  0.2556 -0.4702 -0.2989
13500SOL    HW141663   6.303   1.086   5.315 -0.5369 -0.0465  1.0202
13500SOL    HW241664   6.158   1.095   5.271  0.4059 -0.7566 -2.5638
13501SOL     OW41665   4.271   1.320   2.429  0.2863  1.0649 -0.0029
13501SOL    HW141666   4.324   1.308   2.350  2.4841 -0.5068  1.5511
13501SOL    HW241667   4.329   1.366   2.490  0.0098 -0.8110  1.8181
13502SOL     OW41668   0.512   8.239   8.754  0.1652  0.0344 -0.0724
13502SOL    HW141669   0.586   8.298   8.767 -0.0946  0.3502  0.0083
13502SOL    HW241670   0.480   8.260   8.667  0.9220 -0.9628 -0.6030
13503SOL     OW41671   3.314   1.535   5.871 -0.5460  0.3448  0.0611
13503SOL    HW141672   3.355   1.519   5.786 -0.0691 -0.1796  0.3818
13503SOL    HW241673   3.278   1.623   5.864 -0.4955  0.3118 -0.6783
13504SOL     OW41674   8.057   5.159   3.989 -0.1828  0.5359 -0.2745
13504SOL    HW141675   7.997   5.109   3.933  0.8446  0.4626 -1.3513
13504SOL    HW241676   8.105   5.092   4.037  1.3508  0.3926 -1.8805
13505SOL     OW41677   6.477   8.188   7.054  0.1831 -0.3637 -0.1443
13505SOL    HW141678   6.388   8.170   7.022  0.3201 -0.4877 -0.4647
13505SOL    HW241679   6.487   8.283   7.045 -0.0320 -0.3051  0.2036
13506SOL     OW41680   1.253   1.845   3.781  0.3470 -0.1926  0.4309
13506SOL    HW141681   1.186   1.829   3.848  0.8734  1.1654  1.3416
13506SOL    HW241682   1.293   1.760   3.765 -0.3004 -0.6722  1.2936
13507SOL     OW41683   3.575   6.171   5.654  0.5525 -0.0513 -0.2810
13507SOL    HW141684   3.628   6.120   5.592 -0.6377  0.0665 -1.4449
13507SOL    HW241685   3.490   6.128   5.653 -0.1285  1.2740 -0.3929
13508SOL     OW41686   7.421   2.326   7.265 -0.3866  0.2132  0.1228
13508SOL    HW141687   7.438   2.275   7.345 -1.5357 -0.0495  0.2191
13508SOL    HW241688   7.456   2.271   7.194  0.6479  0.4512  0.4217
13509SOL     OW41689   1.552   3.758   1.367 -0.5198 -0.0077  0.3418
13509SOL    HW141690   1.518   3.821   1.430 -0.7397  0.7379 -0.5046
13509SOL    HW241691   1.557   3.806   1.285 -3.3795 -1.8011 -1.0457
13510SOL     OW41692   7.661   5.659   2.293  0.2820 -0.2222 -0.1858
13510SOL    HW141693   7.584   5.616   2.330  0.9891  0.8407  2.7680
13510SOL    HW241694   7.713   5.587   2.256 -1.1453 -1.1830 -0.3997
13511SOL     OW41695   3.631   6.053   5.909  0.1361  0.2676  0.7280
13511SOL    HW141696   3.618   6.102   5.828  0.4892  1.7443  1.5452
13511SOL    HW241697   3.679   5.974   5.882 -2.6875 -1.0132 -1.0010
13512SOL     OW41698   5.071   2.053   8.557 -0.2844  0.3857  0.0296
13512SOL    HW141699   5.047   2.116   8.489  0.2960  1.5763  0.8730
13512SOL    HW241700   5.110   2.107   8.626  0.6703 -0.9626  0.5927
13513SOL     OW41701   0.063   2.882   3.422 -0.4438 -0.1186 -0.3384
13513SOL    HW141702  -0.022   2.837   3.425 -0.9958  0.9475  1.7289
13513SOL    HW241703   0.043   2.968   3.385  0.0348 -0.4021 -1.2842
13514SOL     OW41704   3.043   0.140   8.325  0.2015 -0.1486 -0.1677
13514SOL    HW141705   3.111   0.073   8.320  0.5371  0.1320  0.6056
13514SOL    HW241706   3.045   0.170   8.416 -0.8339 -0.0133 -0.1799
13515SOL     OW41707   2.049   6.963   5.897 -0.5113  0.7096  0.1647
13515SOL    HW141708   2.056   7.055   5.872  0.4853  0.6146  0.0649
13515SOL    HW241709   2.007   6.964   5.983  1.0846  1.3755  0.9679
13516SOL     OW41710   8.820   3.924   1.998  0.3601  0.3743 -0.2207
13516SOL    HW141711   8.884   3.913   2.068  0.4408  1.4756 -0.0962
13516SOL    HW241712   8.773   3.841   1.994  0.5402  0.2024  0.9573
13517SOL     OW41713   6.085   6.347   2.432  0.2434 -0.0706  0.2330
13517SOL    HW141714   6.090   6.312   2.343  0.0086 -0.9294  0.5371
13517SOL    HW241715   6.054   6.273   2.485  0.9497  0.2482  1.1302
13518SOL     OW41716   4.835   7.268   0.357 -0.1023 -0.7100 -0.3242
13518SOL    HW141717   4.811   7.289   0.267  1.2654 -0.0705 -0.5565
13518SOL    HW241718   4.752   7.270   0.405 -0.8450 -1.0485 -1.5561
13519SOL     OW41719   7.463   6.178   6.057  0.3521 -0.4139  0.1554
13519SOL    HW141720   7.441   6.109   5.994  0.0581 -0.1844  0.0075
13519SOL    HW241721   7.382   6.226   6.070  1.1631  1.8139 -2.0715
13520SOL     OW41722   4.011   5.500   8.446  0.2740 -0.1978 -0.1332
13520SOL    HW141723   3.974   5.478   8.531 -0.9198  0.7118 -0.3920
13520SOL    HW241724   4.033   5.593   8.453 -0.8043  0.1458 -1.1522
13521SOL     OW41725   1.120   4.337   6.422 -0.1041 -0.8564  0.8104
13521SOL    HW141726   1.028   4.354   6.402 -0.1152 -1.2936  0.4714
13521SOL    HW241727   1.166   4.414   6.389 -0.4167 -0.3269  1.5940
13522SOL     OW41728   2.563   4.076   4.937  0.3628 -0.0329 -0.7276
13522SOL    HW141729   2.592   4.156   4.892  2.9590 -0.2339  0.3739
13522SOL    HW241730   2.587   4.005   4.877 -1.5454 -0.0725 -1.5134
13523SOL     OW41731   3.647   4.422   5.891  0.5830  0.0366 -0.2478
13523SOL    HW141732   3.692   4.341   5.919  0.4949 -0.1911 -0.7567
13523SOL    HW241733   3.703   4.492   5.925 -0.2860 -0.1841  1.8109
13524SOL     OW41734   8.107   4.794   7.913 -0.0617  0.1098 -0.5628
13524SOL    HW141735   8.060   4.721   7.954 -1.0086  0.3366 -1.2255
13524SOL    HW241736   8.066   4.804   7.827  0.2690  1.2177 -0.6059
13525SOL     OW41737   4.386   1.716   6.186  0.0030 -0.0527 -0.1363
13525SOL    HW141738   4.444   1.762   6.247 -0.6437  0.7232 -0.0937
13525SOL    HW241739   4.417   1.625   6.187  2.0584  0.5710 -1.0983
13526SOL     OW41740   7.894   2.711   5.430 -0.4080  0.3548 -0.1932
13526SOL    HW141741   7.903   2.779   5.498 -0.8027  1.8130 -1.5468
13526SOL    HW241742   7.807   2.725   5.394 -0.3096 -0.5869 -0.8170
13527SOL     OW41743   3.042   0.691   6.551  0.0509 -0.0390 -0.1518
13527SOL    HW141744   3.131   0.690   6.585 -0.7224  0.6245  2.0917
13527SOL    HW241745   3.013   0.600   6.554 -0.1200  0.0383  1.4554
13528SOL     OW41746   3.682   1.995   7.005  0.2328 -0.5741  0.5315
13528SOL    HW141747   3.726   1.979   6.921  0.1420 -0.2733  0.4277
13528SOL    HW241748   3.592   2.017   6.981  0.2243 -0.4211  0.7062
13529SOL     OW41749   6.773   0.844   6.565  0.5074  0.3421 -0.3188
13529SOL    HW141750   6.849   0.889   6.602  0.7155  1.7145 -2.2636
13529SOL    HW241751   6.713   0.915   6.540 -0.7515 -0.6453 -0.2285
13530SOL     OW41752   7.560   6.602   0.283  0.1952  0.0372  0.1889
13530SOL    HW141753   7.542   6.607   0.189  1.1332  0.9329  0.0298
13530SOL    HW241754   7.606   6.684   0.303 -1.8082  0.8401  1.8559
13531SOL     OW41755   5.563   4.146   1.973 -0.2980  0.2430  0.1794
13531SOL    HW141756   5.517   4.065   1.952 -0.6650  0.4484  0.1749
13531SOL    HW241757   5.507   4.189   2.038  0.1492  0.2537  0.5589
13532SOL     OW41758   6.001   1.085   5.866 -0.0368 -0.3479 -0.4783
13532SOL    HW141759   6.079   1.141   5.859  0.9346 -1.6933 -0.8561
13532SOL    HW241760   5.941   1.135   5.922  0.7615  1.0777 -0.8292
13533SOL     OW41761   2.543   7.038   7.310 -0.2691  0.4007 -0.3959
13533SOL    HW141762   2.636   7.045   7.287 -0.4619  0.5277 -1.1606
13533SOL    HW241763   2.501   7.108   7.259 -0.8709 -0.0628 -0.5382
13534SOL     OW41764   2.373   6.571   0.047  0.1467 -0.0126  0.3122
13534SOL    HW141765   2.317   6.496   0.064  1.3482 -0.9243  0.4240
13534SOL    HW241766   2.319   6.647   0.067 -0.9991 -0.8528  0.5032
13535SOL     OW41767   8.654   3.779   8.103 -0.6508  0.2643 -0.3364
13535SOL    HW141768   8.716   3.797   8.033 -0.0671  0.9375  0.3430
13535SOL    HW241769   8.707   3.765   8.181 -1.2087 -1.9112 -0.2667
13536SOL     OW41770   7.894   3.830   2.545 -0.0368 -0.0848 -0.6214
13536SOL    HW141771   7.812   3.836   2.495 -1.5869 -1.0430  1.6108
13536SOL    HW241772   7.961   3.815   2.479 -1.3735  2.2611 -2.7129
13537SOL     OW41773   0.017   6.759   7.364  0.2138  0.1112  0.2942
13537SOL    HW141774  -0.053   6.696   7.376  0.6987  0.0475  3.6609
13537SOL    HW241775   0.098   6.709   7.377  0.7332  0.8876  0.1493
13538SOL     OW41776   6.139   6.256   2.728  0.2002  0.0156 -0.4198
13538SOL    HW141777   6.204   6.238   2.660  2.5570  0.7749  1.5061
13538SOL    HW241778   6.172   6.212   2.806 -2.4640 -0.8945  0.3232
13539SOL     OW41779   0.330   1.413   0.133  0.1010  0.3156 -0.5702
13539SOL    HW141780   0.272   1.387   0.061 -0.6374 -0.1527  0.1836
13539SOL    HW241781   0.314   1.348   0.202  1.7880 -0.0444 -0.4715
13540SOL     OW41782   6.502   2.893   5.743 -0.4113 -0.6255  0.0664
13540SOL    HW141783   6.487   2.840   5.665 -1.5849  0.6018 -0.5986
13540SOL    HW241784   6.444   2.968   5.732  1.0726  0.7377  1.0215
13541SOL     OW41785   2.173   8.664   5.282  0.5366  0.0739 -0.2972
13541SOL    HW141786   2.082   8.681   5.255  0.4919  2.9774  1.3175
13541SOL    HW241787   2.226   8.705   5.214  0.5515  0.7506  0.1097
13542SOL     OW41788   3.239   1.851   2.060  0.1039  0.4348  0.3791
13542SOL    HW141789   3.308   1.886   2.116 -0.6471  0.2926  1.4276
13542SOL    HW241790   3.213   1.769   2.103 -0.2962  0.1850 -0.3291
13543SOL     OW41791   0.236   4.170   7.720 -0.1173  0.4337  0.2775
13543SOL    HW141792   0.261   4.239   7.659 -4.1332  2.0513  0.1887
13543SOL    HW241793   0.234   4.213   7.806 -0.0578 -0.3098  0.6618
13544SOL     OW41794   7.939   6.215   7.067 -0.2822  0.5646  0.1057
13544SOL    HW141795   7.872   6.205   7.135  0.1047 -0.7829  0.3273
13544SOL    HW241796   7.912   6.153   6.999 -0.5386  1.7289 -0.8898
13545SOL     OW41797   0.790   6.071   1.170 -0.4744  0.0462 -0.2564
13545SOL    HW141798   0.794   6.165   1.152 -1.2250 -0.2887 -2.5617
13545SOL    HW241799   0.710   6.060   1.221 -0.9400  0.5754 -0.8521
13546SOL     OW41800   3.415   2.325   7.424  0.1408  0.1340 -0.4867
13546SOL    HW141801   3.358   2.292   7.355  4.3532 -2.5596 -3.1051
13546SOL    HW241802   3.498   2.342   7.381  2.1535  1.4642  3.4296
13547SOL     OW41803   2.503   3.249   2.129 -0.5038 -0.0415  0.6433
13547SOL    HW141804   2.582   3.195   2.135 -0.3105  0.2916  1.3126
13547SOL    HW241805   2.458   3.218   2.051 -0.6952 -1.5534  1.3261
13548SOL     OW41806   3.133   2.537   0.683  0.2561  0.3814  0.7584
13548SOL    HW141807   3.086   2.619   0.667  0.5803  0.3621 -0.3547
13548SOL    HW241808   3.069   2.469   0.665  1.0762  0.3112 -2.3186
13549SOL     OW41809   5.745   0.853   6.078  0.2925  0.4166 -0.1920
13549SOL    HW141810   5.670   0.911   6.069  1.1350  1.4022 -1.0819
13549SOL    HW241811   5.751   0.808   5.994  0.5319  0.1252 -0.0237
13550SOL     OW41812   7.345   0.430   0.595 -0.1917 -0.4802 -0.2743
13550SOL    HW141813   7.329   0.423   0.689 -0.3016 -0.2799 -0.2783
13550SOL    HW241814   7.439   0.448   0.587 -0.1052 -0.8986 -0.2195
13551SOL     OW41815   7.965   4.475   1.451 -0.4261 -0.6948 -0.0090
13551SOL    HW141816   7.947   4.426   1.531 -0.0357 -0.0461  0.4872
13551SOL    HW241817   7.882   4.472   1.402 -0.7521 -0.8691  0.5416
13552SOL     OW41818   1.804   2.859   2.294  0.0943 -0.2231 -0.2775
13552SOL    HW141819   1.786   2.931   2.233  0.5873 -1.4196 -1.8957
13552SOL    HW241820   1.876   2.892   2.348 -1.0617  1.2597  0.4231
13553SOL     OW41821   1.981   1.682   6.382  0.4619 -0.0808  0.3483
13553SOL    HW141822   1.992   1.703   6.289  1.1113 -0.6871  0.2769
13553SOL    HW241823   2.040   1.742   6.427  0.4345 -0.0466  0.3386
13554SOL     OW41824   4.559   7.602   0.731  0.2743 -0.0342  0.1186
13554SOL    HW141825   4.613   7.675   0.762  1.1619 -0.1599 -1.0310
13554SOL    HW241826   4.517   7.637   0.652  0.3452 -0.6066 -0.1781
13555SOL     OW41827   8.304   4.851   3.879  0.7497 -0.4166  0.4278
13555SOL    HW141828   8.221   4.823   3.840  0.4639 -0.6824  1.2105
13555SOL    HW241829   8.370   4.800   3.833  0.2243 -2.6785  1.9871
13556SOL     OW41830   3.590   5.439   1.995 -0.1264  0.6740  0.9312
13556SOL    HW141831   3.586   5.347   2.022  1.5527  0.3393  0.1699
13556SOL    HW241832   3.559   5.488   2.071 -1.2473 -0.5140  1.2813
13557SOL     OW41833   7.258   3.704   4.781  0.0820  0.1662 -0.0823
13557SOL    HW141834   7.169   3.675   4.762  0.3744 -1.1976  0.5311
13557SOL    HW241835   7.307   3.686   4.701  0.1076 -0.3538  0.0528
13558SOL     OW41836   7.725   1.197   0.410 -0.6658 -0.0761 -0.7242
13558SOL    HW141837   7.658   1.223   0.473 -1.1484  0.8773 -1.6060
13558SOL    HW241838   7.792   1.265   0.417 -0.3732 -0.3630 -0.7242
13559SOL     OW41839   1.963   8.418   4.438 -0.3089  0.1013  0.0687
13559SOL    HW141840   2.023   8.427   4.364 -0.7634  2.3470 -0.1247
13559SOL    HW241841   2.014   8.444   4.514 -0.5336  0.3328  0.1453
13560SOL     OW41842   3.711   4.897   6.360 -0.2698 -0.6794  0.2299
13560SOL    HW141843   3.697   4.896   6.455 -2.2379 -1.6829 -0.0032
13560SOL    HW241844   3.661   4.973   6.330 -0.9515 -1.2408 -0.1137
13561SOL     OW41845   2.749   4.478   4.000  0.3623  0.2427 -0.3998
13561SOL    HW141846   2.714   4.400   3.957  0.8344  0.3121 -0.9141
13561SOL    HW241847   2.677   4.508   4.056 -0.4810  0.4944 -1.5834
13562SOL     OW41848   7.762   1.726   5.263 -0.0792 -1.1085 -0.1055
13562SOL    HW141849   7.813   1.652   5.297 -0.0273 -1.0026  0.0496
13562SOL    HW241850   7.769   1.793   5.331  0.1807 -0.8248 -0.4055
13563SOL     OW41851   4.872   2.671   5.962  0.8075 -0.0853 -0.1093
13563SOL    HW141852   4.864   2.760   5.997  0.7258 -0.2972  0.4345
13563SOL    HW241853   4.787   2.631   5.979  1.3026 -0.7319  1.0210
13564SOL     OW41854   0.163   5.696   6.546  0.0107 -0.5821 -0.0373
13564SOL    HW141855   0.240   5.641   6.562 -0.5249 -2.0492 -2.1021
13564SOL    HW241856   0.194   5.785   6.565  1.7599 -1.2739  0.6310
13565SOL     OW41857   8.318   3.957   2.144 -0.3829 -0.2063 -0.4111
13565SOL    HW141858   8.245   3.903   2.114 -0.0150 -0.8222 -0.2198
13565SOL    HW241859   8.381   3.953   2.071 -0.8705  0.9772 -0.9129
13566SOL     OW41860   7.414   7.497   7.762  0.0209  0.3362 -0.1194
13566SOL    HW141861   7.343   7.560   7.753  0.8412  1.3165  0.0581
13566SOL    HW241862   7.454   7.493   7.675 -0.4501 -0.4690 -0.3060
13567SOL     OW41863   1.715   6.644   3.297  0.2910  0.3579  0.2799
13567SOL    HW141864   1.750   6.684   3.217  1.0721  0.2036  0.5380
13567SOL    HW241865   1.768   6.682   3.368  0.3618 -0.3717  0.6215
13568SOL     OW41866   4.064   5.997   0.182  0.4795 -0.2862  0.3052
13568SOL    HW141867   4.003   6.056   0.226  0.9509  1.5639 -1.3435
13568SOL    HW241868   4.150   6.038   0.193  0.9909 -1.2498  0.0418
13569SOL     OW41869   0.636   8.724   7.570 -0.1941 -0.1376 -0.3564
13569SOL    HW141870   0.723   8.760   7.551  0.0262 -1.0295 -1.0850
13569SOL    HW241871   0.589   8.730   7.487 -0.5452 -0.4500 -0.1817
13570SOL     OW41872   4.523   5.053   6.725 -0.2253 -0.3573 -0.3883
13570SOL    HW141873   4.612   5.078   6.750 -0.1605 -0.1844 -0.7923
13570SOL    HW241874   4.469   5.123   6.759 -0.3221 -0.9399  0.7163
13571SOL     OW41875   6.401   6.054   6.294  1.0440 -0.1750 -0.4101
13571SOL    HW141876   6.366   6.123   6.237  1.2485  0.1719 -0.1180
13571SOL    HW241877   6.342   6.051   6.368 -0.4142 -2.0061 -1.5389
13572SOL     OW41878   4.500   3.298   1.000 -0.0000 -0.4675 -0.5005
13572SOL    HW141879   4.474   3.223   1.053  1.7124 -1.4915 -1.0041
13572SOL    HW241880   4.580   3.330   1.042 -1.5657  2.1676  0.6643
13573SOL     OW41881   3.262   2.468   1.901  0.6875  0.2003  0.6613
13573SOL    HW141882   3.196   2.405   1.869  0.8901 -0.3469  1.3043
13573SOL    HW241883   3.243   2.548   1.852 -0.2382 -0.0500  0.5808
13574SOL     OW41884   0.725   8.643   6.432 -0.1859 -0.1001  0.3478
13574SOL    HW141885   0.680   8.572   6.387  0.4984 -0.4601  0.2234
13574SOL    HW241886   0.730   8.714   6.368 -0.6483 -0.0201  0.3929
13575SOL     OW41887   4.220   2.469   6.170 -0.4214 -0.2910  0.0787
13575SOL    HW141888   4.193   2.378   6.159 -0.6896 -0.5502  2.3825
13575SOL    HW241889   4.139   2.517   6.190 -0.1457  0.2483 -0.0698
13576SOL     OW41890   3.755   5.064   6.682 -0.4643 -0.1113 -0.3628
13576SOL    HW141891   3.699   4.986   6.678  0.6103 -0.9101 -0.2752
13576SOL    HW241892   3.844   5.030   6.671  0.2244  0.8328  1.7150
13577SOL     OW41893   4.175   3.087   5.492 -0.3874  0.0583 -0.5340
13577SOL    HW141894   4.148   3.137   5.415  0.4952  0.6687 -0.4534
13577SOL    HW241895   4.134   3.001   5.480 -1.9383  0.7869 -0.6620
13578SOL     OW41896   0.397   4.046   2.583 -0.7032 -0.0946  0.2485
13578SOL    HW141897   0.340   4.013   2.653 -1.0536 -1.5738 -0.6847
13578SOL    HW241898   0.382   4.140   2.582 -2.8992 -0.3913  0.2687
13579SOL     OW41899   6.791   8.439   7.147  0.6827  0.0773 -0.5887
13579SOL    HW141900   6.765   8.364   7.094 -0.8765  0.6815 -0.7466
13579SOL    HW241901   6.826   8.502   7.084  0.9117 -0.0653 -0.6047
13580SOL     OW41902   5.004   0.017   3.464  0.1695  0.1158 -0.2202
13580SOL    HW141903   5.040   0.030   3.552 -0.2369 -1.1751  0.1546
13580SOL    HW241904   5.006  -0.078   3.451 -1.8853  0.0889 -0.7002
13581SOL     OW41905   4.121   2.686   3.137 -0.2923 -0.8483 -0.3666
13581SOL    HW141906   4.089   2.735   3.061 -0.4295 -1.2456 -0.5672
13581SOL    HW241907   4.042   2.653   3.180 -0.1988 -0.9712 -0.2862
13582SOL     OW41908   6.240   2.534   2.830 -0.6374  0.1274  0.3903
13582SOL    HW141909   6.214   2.529   2.738 -2.8398 -2.9056  1.0175
13582SOL    HW241910   6.190   2.608   2.864 -1.6995 -0.1985 -0.3834
13583SOL     OW41911   0.471   1.535   4.612 -0.7483  0.2607  0.4323
13583SOL    HW141912   0.456   1.609   4.554 -1.1044  1.5245  2.0712
13583SOL    HW241913   0.534   1.567   4.677  0.2883 -1.3753  0.3023
13584SOL     OW41914   3.441   0.101   2.787 -0.1747 -0.0422  0.2867
13584SOL    HW141915   3.500   0.111   2.712 -1.1728  2.1294 -0.2776
13584SOL    HW241916   3.459   0.013   2.819  1.7090 -0.3087 -1.2711
13585SOL     OW41917   8.737   7.892   7.714  0.1182  0.5068  0.2937
13585SOL    HW141918   8.701   7.866   7.799  0.7230 -2.2001 -0.1833
13585SOL    HW241919   8.667   7.872   7.652  0.3756  0.6770 -0.0534
13586SOL     OW41920   5.322   7.962   5.290 -0.2047 -0.3233 -0.2464
13586SOL    HW141921   5.343   7.912   5.370 -0.4737 -0.0764 -0.0171
13586SOL    HW241922   5.226   7.962   5.288 -0.2082 -1.6434 -1.4011
13587SOL     OW41923   6.767   7.132   8.003  0.1509  0.3777 -0.0333
13587SOL    HW141924   6.782   7.050   8.050 -3.4338 -0.6728 -0.4032
13587SOL    HW241925   6.776   7.110   7.911  0.2161  0.6425 -0.0916
13588SOL     OW41926   1.522   8.493   7.276 -0.2351  0.3671  0.0024
13588SOL    HW141927   1.538   8.440   7.354 -0.3099  0.7747  0.2963
13588SOL    HW241928   1.530   8.583   7.306  1.1342  0.5298 -0.7478
13589SOL     OW41929   4.360   8.388   5.652  0.2255 -0.3168 -0.0711
13589SOL    HW141930   4.438   8.402   5.705  0.6509 -1.2213 -0.4335
13589SOL    HW241931   4.389   8.404   5.562 -0.6558  1.8766 -0.0155
13590SOL     OW41932   7.776   5.745   1.604  0.0928  0.2420 -0.3816
13590SOL    HW141933   7.690   5.783   1.621 -0.5135 -2.0089  2.2770
13590SOL    HW241934   7.771   5.718   1.512 -2.6596 -1.1047  0.0492
13591SOL     OW41935   6.657   6.313   5.193  0.2230 -0.4318 -0.1191
13591SOL    HW141936   6.740   6.279   5.161  1.3677  1.2785  0.8568
13591SOL    HW241937   6.594   6.242   5.180  1.7684 -1.6528 -1.1461
13592SOL     OW41938   4.622   5.156   8.779  0.0945 -0.5301  0.1172
13592SOL    HW141939   4.644   5.232   8.726 -0.5189 -0.1138  0.4445
13592SOL    HW241940   4.601   5.088   8.716 -3.4199  0.7377 -0.2936
13593SOL     OW41941   7.370   8.234   1.656  0.3845 -0.4631 -0.4449
13593SOL    HW141942   7.412   8.169   1.711  0.0494 -0.7413 -0.5205
13593SOL    HW241943   7.286   8.196   1.631 -0.6876  0.7603  1.0738
13594SOL     OW41944   1.738   0.514   2.074 -0.2952 -0.7348  0.2598
13594SOL    HW141945   1.827   0.490   2.100  0.1257  0.1967 -0.2770
13594SOL    HW241946   1.687   0.433   2.083  0.4773 -1.1340  1.1212
13595SOL     OW41947   5.884   3.292   6.493  0.0185  0.2171 -0.3199
13595SOL    HW141948   5.907   3.215   6.441 -1.5430  0.7336 -1.8868
13595SOL    HW241949   5.806   3.264   6.542 -0.8744  0.9004 -1.2957
13596SOL     OW41950   0.984   8.058   0.782  0.2329 -0.3139 -0.0977
13596SOL    HW141951   1.015   8.148   0.778 -0.2684 -0.1591 -0.6525
13596SOL    HW241952   1.022   8.016   0.705  2.5679 -1.2849  1.4829
13597SOL     OW41953   3.368   1.947   6.897 -0.2019 -0.4155  0.0805
13597SOL    HW141954   3.325   1.975   6.978 -0.3647  0.5078 -0.3156
13597SOL    HW241955   3.314   1.874   6.866 -1.2324  0.4266 -0.1640
13598SOL     OW41956   0.498   4.312   2.290 -0.0832 -0.0666  0.0508
13598SOL    HW141957   0.464   4.223   2.295 -0.1355 -0.0007  1.1619
13598SOL    HW241958   0.586   4.303   2.254  0.6883 -0.8029  1.9870
13599SOL     OW41959   5.149   5.140   5.306 -0.2245 -0.0941 -0.4125
13599SOL    HW141960   5.167   5.049   5.328  1.2020  0.4198  0.7211
13599SOL    HW241961   5.140   5.184   5.391 -1.0218  0.8124 -0.9398
13600SOL     OW41962   2.461   2.029   8.428 -0.3152  0.6649  0.7156
13600SOL    HW141963   2.393   1.962   8.424  1.2481 -0.9654  0.3505
13600SOL    HW241964   2.543   1.981   8.416  0.7954  2.8243 -1.0374
13601SOL     OW41965   8.296   7.264   1.943 -0.5082  0.4596  0.2240
13601SOL    HW141966   8.351   7.209   1.999  0.8740  0.7369 -0.7881
13601SOL    HW241967   8.275   7.340   1.997  2.0709  1.4601 -0.0379
13602SOL     OW41968   8.415   1.656   0.315 -0.3105  0.3788 -0.0482
13602SOL    HW141969   8.436   1.743   0.282 -2.7495  1.0543  0.0242
13602SOL    HW241970   8.408   1.667   0.410 -0.6998  0.1323 -0.0440
13603SOL     OW41971   4.797   3.161   8.813  0.1690  0.0361  0.0645
13603SOL    HW141972   4.746   3.193   8.888 -0.1932 -1.5894  0.5457
13603SOL    HW241973   4.801   3.236   8.753 -2.2251  0.4355  0.3068
13604SOL     OW41974   1.676   8.557   8.302 -0.1067 -0.1135 -0.5478
13604SOL    HW141975   1.654   8.650   8.291 -2.1363 -0.5254 -0.4205
13604SOL    HW241976   1.750   8.557   8.362 -0.2206  1.4153 -0.3616
13605SOL     OW41977   6.903   1.233   8.337 -0.3779  0.4908  0.1736
13605SOL    HW141978   6.937   1.148   8.308 -1.2065 -0.0400  0.7228
13605SOL    HW241979   6.931   1.294   8.269  3.0376  0.4291  1.2964
13606SOL     OW41980   7.937   3.234   3.870  0.4686  0.0994  0.0538
13606SOL    HW141981   7.935   3.280   3.787  0.6355  0.5975  0.3247
13606SOL    HW241982   8.019   3.261   3.911  0.6989 -0.6485  0.0993
13607SOL     OW41983   0.927   2.700   2.241  0.0867 -0.0933 -0.1291
13607SOL    HW141984   0.938   2.705   2.336 -1.4748 -1.1144  0.1318
13607SOL    HW241985   0.899   2.788   2.216  2.6022  0.8516 -0.0202
13608SOL     OW41986   5.900   3.826   2.489 -0.3861 -0.0533  0.3410
13608SOL    HW141987   5.906   3.921   2.488 -0.2110 -0.0662 -1.1880
13608SOL    HW241988   5.988   3.797   2.511  0.3304  0.1222 -2.0510
13609SOL     OW41989   3.971   4.461   6.578  1.0052  0.5702  0.0454
13609SOL    HW141990   4.016   4.383   6.611  2.5157  0.9139 -1.0753
13609SOL    HW241991   4.028   4.494   6.508 -0.6016  1.5468 -0.8611
13610SOL     OW41992   8.096   6.523   4.868 -0.5891 -0.0669  0.8537
13610SOL    HW141993   8.114   6.518   4.962 -1.6996 -0.6919  1.0433
13610SOL    HW241994   8.037   6.597   4.859 -0.7088 -0.1816  0.6866
13611SOL     OW41995   0.935   3.448   6.128 -0.6814  0.1518  0.1478
13611SOL    HW141996   0.974   3.524   6.173  0.8254  0.1738 -1.0965
13611SOL    HW241997   0.851   3.435   6.171  0.2913  0.7132  2.3643
13612SOL     OW41998   1.226   8.725   6.031 -1.1606  0.3442  0.5891
13612SOL    HW141999   1.148   8.670   6.042 -0.8899 -0.1549  0.0388
13612SOL    HW242000   1.296   8.676   6.073 -0.9397  0.3239  0.1930
13613SOL     OW42001   6.320   5.724   5.920  0.3488 -0.4398  0.1040
13613SOL    HW142002   6.244   5.710   5.977  1.9492 -0.9094  2.2466
13613SOL    HW242003   6.285   5.715   5.831 -2.7378  2.6747  0.7869
13614SOL     OW42004   2.338   4.950   3.260  0.1751  0.3278 -0.5328
13614SOL    HW142005   2.401   4.942   3.332  0.4198  0.2012 -0.7605
13614SOL    HW242006   2.300   5.037   3.272 -1.9436 -0.7755  1.4823
13615SOL     OW42007   6.541   7.107   1.302 -0.2039 -0.0259  0.1477
13615SOL    HW142008   6.506   7.162   1.232 -1.7363 -1.5349 -0.3408
13615SOL    HW242009   6.492   7.135   1.380 -0.7198 -0.4256 -0.0265
13616SOL     OW42010   6.746   3.783   6.074 -0.3852  0.1538  0.1425
13616SOL    HW142011   6.744   3.704   6.129  0.4069 -0.3622 -0.5529
13616SOL    HW242012   6.729   3.855   6.135  1.2432 -0.3386  1.2235
13617SOL     OW42013   2.046   1.004   4.182  0.6347  0.1149  0.1028
13617SOL    HW142014   2.079   1.062   4.250 -0.2620 -0.4376  1.0469
13617SOL    HW242015   2.122   0.951   4.156  0.7691 -0.3961  1.4583
13618SOL     OW42016   4.162   6.722   7.143  0.2698 -0.0053 -0.1673
13618SOL    HW142017   4.076   6.741   7.182 -0.4189  0.4625 -1.7953
13618SOL    HW242018   4.219   6.791   7.177  0.0337 -0.3594  0.9869
13619SOL     OW42019   8.746   3.943   5.381  0.3999 -0.2538 -0.4206
13619SOL    HW142020   8.833   3.958   5.417  0.4217 -2.1563  0.4658
13619SOL    HW242021   8.755   3.862   5.330 -0.4187  0.5897 -1.9621
13620SOL     OW42022   2.661   7.819   3.545  0.1605 -0.5555  0.1001
13620SOL    HW142023   2.586   7.761   3.528  1.3967 -2.7124  1.4761
13620SOL    HW242024   2.646   7.852   3.633  0.6731 -0.7967  0.2841
13621SOL     OW42025   4.656   3.710   7.714  0.0950 -0.3404 -0.5290
13621SOL    HW142026   4.700   3.734   7.796  0.3187  0.5926 -0.9052
13621SOL    HW242027   4.661   3.615   7.711  0.4912 -0.3586  0.3222
13622SOL     OW42028   2.449   4.224   7.749  0.4383  0.4510 -0.5946
13622SOL    HW142029   2.403   4.158   7.802  1.0435 -0.0858 -0.7233
13622SOL    HW242030   2.380   4.280   7.716  0.0819  1.2516  1.3524
13623SOL     OW42031   2.923   4.764   2.991  0.1242  0.2241 -0.4276
13623SOL    HW142032   2.985   4.772   3.063  0.6214 -0.0772 -0.8209
13623SOL    HW242033   2.851   4.823   3.015 -1.2239 -2.0867  1.8697
13624SOL     OW42034   8.148   8.810   5.239  0.1306 -0.4285 -0.7006
13624SOL    HW142035   8.219   8.752   5.266  0.2835  0.0372 -0.0634
13624SOL    HW242036   8.099   8.827   5.320  0.9020  1.4244 -0.5748
13625SOL     OW42037   8.078   7.241   7.264 -0.1264  0.1026 -0.0938
13625SOL    HW142038   8.138   7.255   7.191  1.0382  1.6630  1.0960
13625SOL    HW242039   8.094   7.314   7.323 -0.5256 -1.4765  2.0979
13626SOL     OW42040   0.587   0.654   6.536 -0.2202 -0.3993 -0.3867
13626SOL    HW142041   0.591   0.737   6.584  1.4591 -1.4064  1.3378
13626SOL    HW242042   0.510   0.610   6.570 -1.9611  0.9567 -2.3254
13627SOL     OW42043   8.177   6.533   8.295  0.1254 -0.0892  0.2673
13627SOL    HW142044   8.248   6.529   8.359  1.4398 -0.3041 -1.1411
13627SOL    HW242045   8.217   6.567   8.215 -1.2914 -0.4764 -0.6667
13628SOL     OW42046   8.855   4.565   3.837 -0.7819 -0.7019 -0.4791
13628SOL    HW142047   8.860   4.560   3.741  0.3410 -1.3730 -0.3969
13628SOL    HW242048   8.832   4.656   3.854 -2.4939 -0.9075 -1.4224
13629SOL     OW42049   8.753   0.535   4.208 -0.0539 -0.0857  0.2026
13629SOL    HW142050   8.775   0.614   4.258  1.3862 -0.4189  0.1205
13629SOL    HW242051   8.712   0.477   4.271  0.6121 -0.0063  0.7165
13630SOL     OW42052   0.955   4.647   1.110  0.1936  0.3285 -0.3009
13630SOL    HW142053   0.865   4.674   1.128  0.0059  1.6987 -2.8328
13630SOL    HW242054   0.957   4.554   1.131 -1.2408  0.6774  1.6314
13631SOL     OW42055   6.112   7.767   5.863 -0.0498 -0.0243 -0.1308
13631SOL    HW142056   6.075   7.749   5.950  0.0182 -0.2454 -0.1465
13631SOL    HW242057   6.081   7.855   5.841 -1.1917 -0.4910 -0.4576
13632SOL     OW42058   1.993   4.386   3.234 -0.0213  0.5505  0.7200
13632SOL    HW142059   1.987   4.479   3.256 -0.0982  0.8470 -0.4704
13632SOL    HW242060   1.909   4.349   3.263 -1.6451  1.6347 -2.1518
13633SOL     OW42061   1.955   2.937   1.020  0.0710  0.2068 -0.2970
13633SOL    HW142062   1.936   2.851   0.982 -2.1594  0.8805 -0.8699
13633SOL    HW242063   2.044   2.930   1.054  1.2420 -1.2941 -3.3066
13634SOL     OW42064   0.040   2.759   2.827 -0.1332 -0.3888  0.0962
13634SOL    HW142065  -0.051   2.729   2.832 -0.3714  0.2764 -0.1830
13634SOL    HW242066   0.074   2.717   2.747 -0.6162  0.4628 -0.5730
13635SOL     OW42067   8.052   0.583   4.137  0.2420 -0.2519  0.2006
13635SOL    HW142068   8.111   0.554   4.068 -0.7688 -1.6373 -0.1196
13635SOL    HW242069   7.991   0.644   4.094 -0.0766 -0.7280 -0.0273
13636SOL     OW42070   5.320   6.479   5.747 -1.0572  0.1429  0.0226
13636SOL    HW142071   5.317   6.449   5.656 -0.7657 -0.3760  0.1758
13636SOL    HW242072   5.372   6.559   5.744  0.5932 -0.8693 -0.0323
13637SOL     OW42073   1.562   4.612   6.380 -0.2427 -0.2337  0.2553
13637SOL    HW142074   1.559   4.531   6.430 -1.6694 -0.9784 -0.9485
13637SOL    HW242075   1.494   4.602   6.313  1.0515  1.0249 -1.3494
13638SOL     OW42076   7.288   3.048   1.593 -0.1799 -0.1981  0.2790
13638SOL    HW142077   7.270   3.140   1.573 -1.1591 -0.3897  0.2121
13638SOL    HW242078   7.371   3.049   1.640  0.3750  0.6120 -0.6817
13639SOL     OW42079   3.184   3.704   0.130 -0.1314  0.6505 -0.1596
13639SOL    HW142080   3.091   3.698   0.150  0.0885 -0.8741  0.4850
13639SOL    HW242081   3.228   3.676   0.210  0.8460 -0.1889 -0.9622
13640SOL     OW42082   6.576   6.181   8.168 -0.4044 -0.1149  0.2777
13640SOL    HW142083   6.573   6.275   8.149 -2.5753  0.5349  3.1708
13640SOL    HW242084   6.509   6.143   8.111  1.1046 -0.1339 -1.5684
13641SOL     OW42085   4.362   0.145   5.400  0.1583  0.5124  0.0032
13641SOL    HW142086   4.348   0.051   5.413 -0.4103  0.5251 -0.4995
13641SOL    HW242087   4.457   0.155   5.397  0.2366 -0.4167 -2.5286
13642SOL     OW42088   6.448   3.299   5.063 -0.7893 -0.2895  0.4900
13642SOL    HW142089   6.537   3.298   5.028 -1.5710  2.9963 -2.0784
13642SOL    HW242090   6.399   3.239   5.008 -0.2528 -2.0835  1.8917
13643SOL     OW42091   2.586   4.707   7.861 -0.0484 -0.2076 -0.0553
13643SOL    HW142092   2.544   4.751   7.934  1.3879  1.8281 -0.3565
13643SOL    HW242093   2.637   4.636   7.901  0.8304  0.9634  0.9887
13644SOL     OW42094   3.476   6.824   1.711  0.0410 -0.0629  0.0765
13644SOL    HW142095   3.418   6.875   1.655 -0.1982  0.8973  1.1510
13644SOL    HW242096   3.554   6.880   1.721 -0.5274  0.4795  1.8708
13645SOL     OW42097   8.379   0.666   3.586  0.4438  0.0390  0.3778
13645SOL    HW142098   8.356   0.584   3.629  0.8275 -0.0943  0.3319
13645SOL    HW242099   8.464   0.649   3.545  0.8211  0.6395  0.8854
13646SOL     OW42100   4.561   6.847   1.038 -0.5298  0.1767 -0.5160
13646SOL    HW142101   4.469   6.869   1.056 -0.3815  0.2673  0.1325
13646SOL    HW242102   4.557   6.795   0.957 -1.0744  0.8635 -0.9421
13647SOL     OW42103   0.291   1.566   8.267  0.2991 -0.0322 -0.4231
13647SOL    HW142104   0.280   1.609   8.182  1.5120  0.6961 -0.2353
13647SOL    HW242105   0.301   1.638   8.329 -0.0685 -0.5679  0.2770
13648SOL     OW42106   7.827   4.597   4.272  0.9308 -0.2289 -0.0553
13648SOL    HW142107   7.767   4.671   4.278  0.6490 -0.4989  0.5266
13648SOL    HW242108   7.814   4.549   4.354  1.5028 -0.6216 -0.1916
13649SOL     OW42109   4.165   5.974   6.982 -0.0871  0.2863  0.4155
13649SOL    HW142110   4.093   5.949   6.924 -0.2220 -0.3394  0.8400
13649SOL    HW242111   4.166   6.070   6.980  1.4784  0.3395 -2.5760
13650SOL     OW42112   8.070   6.613   2.792 -0.0954  0.2773  0.4458
13650SOL    HW142113   7.978   6.593   2.811  0.0227 -1.2803 -0.4752
13650SOL    HW242114   8.118   6.534   2.819  0.9573  0.9988  0.7393
13651SOL     OW42115   2.194   2.749   6.982 -0.1252  0.2981 -0.3392
13651SOL    HW142116   2.254   2.724   6.912 -0.4167  0.5650 -0.6875
13651SOL    HW242117   2.214   2.841   7.000  0.6400 -0.0477  0.6309
13652SOL     OW42118   2.971   2.944   0.838 -0.5612 -0.2170  0.5940
13652SOL    HW142119   2.945   3.029   0.805  0.3405  0.5569  1.7882
13652SOL    HW242120   2.953   2.948   0.932 -0.7252 -1.4391  0.6422
13653SOL     OW42121   1.378   8.755   4.565  0.0093 -0.1648  0.0505
13653SOL    HW142122   1.289   8.784   4.546 -0.2603 -1.6417 -1.2247
13653SOL    HW242123   1.368   8.664   4.593  1.1293 -0.5524 -0.6983
13654SOL     OW42124   1.875   7.395   5.973  0.6111 -0.2233  0.7812
13654SOL    HW142125   1.860   7.485   5.945  1.9929 -0.6242 -1.5153
13654SOL    HW242126   1.795   7.370   6.019 -0.3212  1.7418  0.3058
13655SOL     OW42127   2.398   4.773   0.827  0.2862 -0.3811  0.6073
13655SOL    HW142128   2.442   4.696   0.792  0.8933  1.1792 -2.3882
13655SOL    HW242129   2.468   4.837   0.839 -0.3917  0.1843  1.7757
13656SOL     OW42130   2.609   8.151   2.983 -0.3672 -0.2680  0.1363
13656SOL    HW142131   2.526   8.105   2.997  0.1108 -0.5826  2.2833
13656SOL    HW242132   2.617   8.211   3.057  1.3330 -0.2837  0.0224
13657SOL     OW42133   2.917   6.226   3.020  0.0458 -0.3590 -0.0389
13657SOL    HW142134   3.001   6.270   3.006  0.0115 -0.4860 -0.6412
13657SOL    HW242135   2.916   6.208   3.114  1.0220 -0.9970 -0.1321
13658SOL     OW42136   1.879   0.061   3.554 -0.3327 -0.2494  0.0934
13658SOL    HW142137   1.913  -0.011   3.501  1.3742  0.6969 -0.2042
13658SOL    HW242138   1.946   0.075   3.621 -1.8465 -0.5833  1.7447
13659SOL     OW42139   5.350   0.789   4.327 -0.5581  0.2210  0.5488
13659SOL    HW142140   5.370   0.695   4.333 -0.9432  0.1301  0.4539
13659SOL    HW242141   5.280   0.794   4.262  0.2175  0.6897 -0.2700
13660SOL     OW42142   6.485   0.496   1.272  0.6631  0.1116 -0.0975
13660SOL    HW142143   6.497   0.523   1.363  0.2721  0.7471 -0.2318
13660SOL    HW242144   6.529   0.564   1.221 -0.1768  0.4153 -0.4320
13661SOL     OW42145   6.637   6.386   7.592  0.0754  0.4013  0.5665
13661SOL    HW142146   6.690   6.310   7.568 -0.8196  0.3968 -1.6060
13661SOL    HW242147   6.560   6.349   7.633  0.2842  0.2215  0.8008
13662SOL     OW42148   5.337   1.796   3.885  0.4515 -0.5506  0.9696
13662SOL    HW142149   5.338   1.700   3.885 -0.2628 -0.5623  1.2661
13662SOL    HW242150   5.427   1.821   3.906  1.6606 -1.1199 -2.7315
13663SOL     OW42151   4.813   4.300   5.642  0.4453  0.0599  0.2757
13663SOL    HW142152   4.740   4.254   5.600 -0.7641  1.6035  0.5946
13663SOL    HW242153   4.869   4.230   5.675 -1.0359 -1.1928  0.2818
13664SOL     OW42154   5.745   7.344   6.339 -0.3545 -0.5148  0.2998
13664SOL    HW142155   5.806   7.348   6.265  1.9387 -1.7662  1.9937
13664SOL    HW242156   5.667   7.303   6.303  0.6605 -0.9948 -1.4766
13665SOL     OW42157   8.779   6.107   6.832  0.0628 -0.5986 -0.1179
13665SOL    HW142158   8.831   6.031   6.860  1.1349 -0.1073 -0.7007
13665SOL    HW242159   8.840   6.181   6.839 -0.3593 -0.0964 -1.4254
13666SOL     OW42160   3.614   6.886   3.658 -0.2240  0.1298  0.3766
13666SOL    HW142161   3.526   6.872   3.695 -0.2808  0.3516  0.3305
13666SOL    HW242162   3.664   6.923   3.730  0.3302 -1.5849  0.9319
13667SOL     OW42163   4.625   2.363   3.932 -0.2420 -0.5158 -0.1531
13667SOL    HW142164   4.590   2.352   4.020 -1.7456 -0.1839 -0.6730
13667SOL    HW242165   4.718   2.383   3.945 -0.5512  0.0741  1.3707
13668SOL     OW42166   6.114   4.987   4.092 -0.4778 -0.0511  0.2223
13668SOL    HW142167   6.110   5.077   4.059  0.5352 -0.0391  0.0926
13668SOL    HW242168   6.044   4.941   4.045 -0.5857  0.5207 -0.1941
13669SOL     OW42169   2.762   5.607   5.006  0.0364 -0.0924 -0.3647
13669SOL    HW142170   2.715   5.544   5.062 -0.4295  0.3805 -0.2170
13669SOL    HW242171   2.821   5.653   5.066 -2.9636  2.9448  0.5730
13670SOL     OW42172   5.300   4.062   2.613 -0.3288 -0.2711 -0.1745
13670SOL    HW142173   5.205   4.053   2.619 -0.3679 -0.6252 -1.0954
13670SOL    HW242174   5.331   3.976   2.585  0.0862  0.2493 -1.4316
13671SOL     OW42175   5.575   6.825   3.006 -0.0551  0.5949  0.3012
13671SOL    HW142176   5.539   6.745   2.969 -0.6839 -1.1234  4.1527
13671SOL    HW242177   5.604   6.876   2.930 -0.0967 -3.0011 -2.3710
13672SOL     OW42178   5.377   6.269   7.243 -0.4606  0.1870  0.2532
13672SOL    HW142179   5.386   6.175   7.260  2.6184  0.3637  0.0359
13672SOL    HW242180   5.358   6.274   7.149 -0.9116 -0.1922  0.3162
13673SOL     OW42181   1.986   3.861   3.527  0.0602 -0.6459  0.1578
13673SOL    HW142182   1.958   3.930   3.466 -0.7929 -0.9473  0.2022
13673SOL    HW242183   2.063   3.823   3.485  1.7950  1.6269  1.0688
13674SOL     OW42184   2.594   3.967   8.803  0.7140 -0.2513  0.6857
13674SOL    HW142185   2.556   4.046   8.842 -1.6284 -0.4928 -0.9243
13674SOL    HW242186   2.549   3.895   8.848  1.1080 -0.6230  0.4904
13675SOL     OW42187   7.917   3.980   5.458  0.8964  0.7150  0.5945
13675SOL    HW142188   7.906   4.006   5.366 -0.2855  1.8527  1.0200
13675SOL    HW242189   7.832   3.943   5.483  1.7862 -1.3179  0.7368
13676SOL     OW42190   7.228   3.132   2.009  0.3091  0.2200 -0.4275
13676SOL    HW142191   7.270   3.052   2.039 -0.3558 -0.7225 -1.8994
13676SOL    HW242192   7.135   3.112   2.010  0.1482  0.9159 -0.9671
13677SOL     OW42193   8.543   8.550   1.241  0.4210 -0.1854  0.1015
13677SOL    HW142194   8.508   8.515   1.159  1.1194 -1.0202  0.1424
13677SOL    HW242195   8.536   8.478   1.303  0.5359  0.2207  0.5953
13678SOL     OW42196   6.718   1.656   3.873 -0.1884  0.2903 -0.2460
13678SOL    HW142197   6.742   1.748   3.860  0.3449  0.4871  1.8029
13678SOL    HW242198   6.678   1.654   3.960 -1.5883 -1.1863 -0.8784
13679SOL     OW42199   8.704   0.831   2.136  0.4713 -0.2742 -0.5239
13679SOL    HW142200   8.652   0.780   2.075  0.3485 -0.0878 -0.5774
13679SOL    HW242201   8.794   0.823   2.105  0.3948 -0.0839 -0.7966
13680SOL     OW42202   7.390   5.206   2.227  0.2755  0.3376  0.0190
13680SOL    HW142203   7.320   5.162   2.276 -0.8643  0.0404 -1.7648
13680SOL    HW242204   7.438   5.135   2.185 -0.6598  0.6594 -1.6891
13681SOL     OW42205   0.688   6.265   4.027  0.5088  0.1396 -0.0454
13681SOL    HW142206   0.753   6.287   4.094  0.5263 -1.0603  0.3592
13681SOL    HW242207   0.739   6.255   3.947  0.7007  0.0961  0.0805
13682SOL     OW42208   2.299   1.321   2.416  0.1706 -0.1516 -0.4412
13682SOL    HW142209   2.345   1.246   2.454 -1.3485 -1.2632 -0.7144
13682SOL    HW242210   2.247   1.284   2.345 -0.5887  1.1682 -0.6156
13683SOL     OW42211   6.897   2.270   7.951 -0.1444 -0.2691  0.3772
13683SOL    HW142212   6.978   2.287   7.902 -0.7040  0.4976 -0.3133
13683SOL    HW242213   6.856   2.197   7.904  0.5638 -1.2760  1.2683
13684SOL     OW42214   6.604   3.258   2.447  0.0231 -0.2858  0.3515
13684SOL    HW142215   6.608   3.345   2.488 -0.3129 -0.2097  0.2233
13684SOL    HW242216   6.591   3.198   2.521 -0.0103 -0.2039  0.4123
13685SOL     OW42217   1.676   6.305   2.307  0.6744  0.1746  0.0895
13685SOL    HW142218   1.695   6.252   2.384  0.9424 -2.2276 -1.5263
13685SOL    HW242219   1.584   6.286   2.288  0.5477  0.9210 -0.0643
13686SOL     OW42220   0.775   1.529   5.064 -0.1976  0.2980  0.4610
13686SOL    HW142221   0.729   1.470   5.124  1.3971 -0.7755  0.7091
13686SOL    HW242222   0.717   1.536   4.988 -0.0627 -2.4240 -0.0026
13687SOL     OW42223   0.712   0.062   8.113 -0.4519  0.1318  0.1071
13687SOL    HW142224   0.751   0.102   8.191 -0.7594  0.6079  0.0213
13687SOL    HW242225   0.753   0.107   8.039  0.0495 -0.5144 -0.0215
13688SOL     OW42226   3.398   1.181   8.837 -0.2089 -0.0700  0.0412
13688SOL    HW142227   3.377   1.269   8.807  0.2717 -0.6318 -2.1435
13688SOL    HW242228   3.313   1.137   8.846 -0.3661 -0.3151 -2.0985
13689SOL     OW42229   0.396   1.719   7.136 -0.3451  0.1305 -0.0139
13689SOL    HW142230   0.320   1.776   7.122 -1.5940 -1.7179 -1.1515
13689SOL    HW242231   0.455   1.740   7.064  0.1221  1.3366  0.6859
13690SOL     OW42232   1.363   6.815   7.029 -0.0808  0.3400 -0.4702
13690SOL    HW142233   1.380   6.725   7.000 -1.1870 -0.1057  0.1744
13690SOL    HW242234   1.446   6.845   7.066  0.3861 -0.3080 -0.9726
13691SOL     OW42235   0.434   8.812   3.277 -0.1596  0.1408  0.0954
13691SOL    HW142236   0.526   8.786   3.272  0.5348  2.5742 -2.3261
13691SOL    HW242237   0.431   8.875   3.349 -0.2614 -0.8963  1.0275
13692SOL     OW42238   8.273   1.563   6.902  0.4049 -0.3258  0.3339
13692SOL    HW142239   8.303   1.556   6.993 -0.8528 -1.8052  0.6899
13692SOL    HW242240   8.286   1.475   6.866  0.2852  0.0770 -0.7304
13693SOL     OW42241   8.814   1.613   0.592 -0.1126 -0.4142  0.4333
13693SOL    HW142242   8.734   1.583   0.548 -1.4515  0.5507  2.0673
13693SOL    HW242243   8.839   1.692   0.546 -0.6364 -0.2287  0.4600
13694SOL     OW42244   4.889   4.964   0.829 -0.3478 -0.1912  0.0357
13694SOL    HW142245   4.961   4.955   0.891 -0.3062  0.4689  0.0883
13694SOL    HW242246   4.857   4.874   0.817  0.3404 -0.4630  0.1707
13695SOL     OW42247   6.426   6.558   5.159 -0.2313  0.6275  0.4045
13695SOL    HW142248   6.470   6.522   5.236 -1.0177 -1.1178  0.0988
13695SOL    HW242249   6.365   6.623   5.194 -1.0776 -0.6321  1.3723
13696SOL     OW42250   2.843   2.147   0.282 -0.2276  0.4822 -0.0606
13696SOL    HW142251   2.829   2.103   0.198 -0.0731  0.4184 -0.0516
13696SOL    HW242252   2.867   2.237   0.258 -0.0546  0.4293 -0.0876
13697SOL     OW42253   0.951   5.560   0.111  0.6153  0.3982  0.1140
13697SOL    HW142254   0.892   5.556   0.186 -0.7088 -2.6159 -0.9459
13697SOL    HW242255   0.997   5.476   0.112  0.7475  0.3729 -2.2921
13698SOL     OW42256   8.654   1.850   7.399 -0.0345  0.6022  0.0377
13698SOL    HW142257   8.722   1.847   7.331  1.7880 -1.6430  1.7905
13698SOL    HW242258   8.624   1.941   7.398  2.6189  1.5934 -1.2281
13699SOL     OW42259   6.396   8.105   8.379  0.5432 -0.1214  0.0132
13699SOL    HW142260   6.391   8.157   8.298 -1.4101  0.8081  0.6798
13699SOL    HW242261   6.306   8.079   8.396  0.9558 -0.4643  1.8102
13700SOL     OW42262   7.431   3.763   2.435 -0.2016  0.7147 -0.1457
13700SOL    HW142263   7.444   3.697   2.503 -0.0951 -2.4645 -2.9924
13700SOL    HW242264   7.351   3.737   2.390 -0.1821  2.5637 -1.3944
13701SOL     OW42265   3.213   3.369   3.436 -0.7461  0.8670  0.3308
13701SOL    HW142266   3.153   3.317   3.490  0.3315 -0.7892  0.0076
13701SOL    HW242267   3.209   3.327   3.350  1.7056 -0.0529  0.6013
13702SOL     OW42268   2.628   1.498   1.869 -0.1191 -0.0729  0.0277
13702SOL    HW142269   2.606   1.408   1.891  1.8674 -0.5954  0.0614
13702SOL    HW242270   2.562   1.524   1.805 -0.5540 -1.6264 -0.1952
13703SOL     OW42271   8.295   7.633   8.668  0.7333  0.3386  0.1234
13703SOL    HW142272   8.280   7.566   8.602  1.7452  0.1838  0.0362
13703SOL    HW242273   8.294   7.585   8.751  0.7992  0.3147  0.1113
13704SOL     OW42274   2.784   6.570   8.188 -0.3434  0.1854  0.7512
13704SOL    HW142275   2.803   6.545   8.279 -1.2404  0.5207  1.0492
13704SOL    HW242276   2.834   6.509   8.135 -0.0763 -0.2401  1.4729
13705SOL     OW42277   5.032   0.075   8.643 -0.1428  0.2847  0.2400
13705SOL    HW142278   4.962   0.026   8.686 -1.6708 -0.4582 -2.8177
13705SOL    HW242279   5.063   0.017   8.574  2.8324  1.0467  0.7774
13706SOL     OW42280   4.269   8.762   5.833 -0.5169  0.0606  0.1624
13706SOL    HW142281   4.241   8.837   5.781  0.3210 -0.2797 -0.8107
13706SOL    HW242282   4.188   8.716   5.856 -1.0014  1.0018  0.3875
13707SOL     OW42283   4.538   6.529   7.113 -0.2726  0.0686  0.2036
13707SOL    HW142284   4.462   6.526   7.170 -0.9429  1.2668 -0.5916
13707SOL    HW242285   4.613   6.515   7.172 -1.1064 -1.8670  0.8865
13708SOL     OW42286   3.669   2.164   5.903 -0.3619 -0.0784  0.1024
13708SOL    HW142287   3.718   2.159   5.985 -0.8579 -1.1109  0.3570
13708SOL    HW242288   3.595   2.104   5.916 -1.4270  1.0665 -0.4455
13709SOL     OW42289   6.604   2.540   1.613 -0.3258 -0.9570 -0.1672
13709SOL    HW142290   6.592   2.559   1.706  1.2811 -2.0060  0.2979
13709SOL    HW242291   6.587   2.446   1.605 -1.0435 -0.7630 -1.0576
13710SOL     OW42292   3.364   3.037   8.794  0.0594 -0.2130 -0.2748
13710SOL    HW142293   3.278   3.048   8.753 -0.0436 -1.0448 -0.3082
13710SOL    HW242294   3.426   3.049   8.722 -0.1365 -2.1792 -0.8509
13711SOL     OW42295   2.495   1.736   2.669  0.2288  0.4850  0.2329
13711SOL    HW142296   2.551   1.678   2.721 -1.1050 -1.5458 -0.4544
13711SOL    HW242297   2.411   1.737   2.715 -0.1335  0.9012 -0.4135
13712SOL     OW42298   4.171   5.316   0.092  0.2344 -0.5316 -0.3339
13712SOL    HW142299   4.172   5.364   0.009  0.6043 -0.5921 -0.3641
13712SOL    HW242300   4.143   5.381   0.157 -1.6477 -0.8778 -0.7458
13713SOL     OW42301   8.167   1.844   7.282  0.0611  0.1483 -0.0349
13713SOL    HW142302   8.243   1.807   7.326  0.1036  0.2944  0.0160
13713SOL    HW242303   8.201   1.881   7.201 -0.2700 -1.5979 -1.0310
13714SOL     OW42304   2.042   1.028   8.573 -0.0759 -0.2728  0.3691
13714SOL    HW142305   1.952   1.060   8.570 -0.4768 -1.2199  1.4357
13714SOL    HW242306   2.041   0.951   8.516  0.4651  0.5935 -0.8496
13715SOL     OW42307   1.229   0.699   6.058  0.4518  0.2952 -0.5077
13715SOL    HW142308   1.180   0.694   6.140  0.7514  0.1528 -0.3372
13715SOL    HW242309   1.172   0.658   5.993  0.4079 -0.0085 -0.2795
13716SOL     OW42310   7.765   1.778   6.373  0.1443  0.2767  0.6129
13716SOL    HW142311   7.766   1.763   6.467 -1.0370 -0.7845  0.4801
13716SOL    HW242312   7.767   1.691   6.334  2.7560  0.7324 -0.4279
13717SOL     OW42313   7.788   7.322   5.450 -0.8072  0.3035 -0.3021
13717SOL    HW142314   7.718   7.353   5.392 -0.9097 -0.6794 -0.7368
13717SOL    HW242315   7.743   7.297   5.531 -0.8776  0.2410 -0.3599
13718SOL     OW42316   2.309   5.561   7.072 -0.9377  0.4059 -0.0802
13718SOL    HW142317   2.257   5.554   6.992 -3.3041 -1.2859  1.4755
13718SOL    HW242318   2.337   5.471   7.091 -1.0383  0.6501  1.3645
13719SOL     OW42319   6.812   3.030   3.014 -0.5962 -0.1974 -0.1888
13719SOL    HW142320   6.895   3.017   2.967 -0.0955  1.2553  0.2373
13719SOL    HW242321   6.815   2.967   3.086  1.4915  1.6561  1.5167
13720SOL     OW42322   6.453   7.225   8.538  0.2392 -0.5770 -0.3538
13720SOL    HW142323   6.394   7.291   8.503  0.0245 -0.1279  0.8215
13720SOL    HW242324   6.505   7.196   8.463  0.5977  1.1867 -0.8203
13721SOL     OW42325   6.356   8.536   4.181 -0.1072  0.0817 -0.1634
13721SOL    HW142326   6.337   8.589   4.104  2.4089  3.3731  1.2572
13721SOL    HW242327   6.431   8.483   4.157 -0.6412 -0.5017 -0.5834
13722SOL     OW42328   4.888   2.397   4.031  0.4285  0.3111  1.0549
13722SOL    HW142329   4.902   2.327   4.095  2.0125  0.3197  0.7573
13722SOL    HW242330   4.883   2.477   4.083  1.3002  0.2717  1.2094
13723SOL     OW42331   1.815   3.110   7.752 -0.4493  0.1640  0.0917
13723SOL    HW142332   1.784   3.172   7.686  0.3792 -0.6304 -1.0818
13723SOL    HW242333   1.903   3.087   7.724 -0.8870 -1.8672  0.2317
13724SOL     OW42334   2.653   7.989   6.026 -0.0053 -0.0016  0.0564
13724SOL    HW142335   2.642   7.932   6.102  1.3994 -1.6637 -0.8998
13724SOL    HW242336   2.744   7.974   5.998  0.4657  2.8202 -0.1997
13725SOL     OW42337   0.275   5.429   3.008  0.1287 -0.1997  0.5595
13725SOL    HW142338   0.298   5.476   2.928  2.2940  0.2316  1.3730
13725SOL    HW242339   0.262   5.498   3.073  1.3562 -0.6205  1.2755
13726SOL     OW42340   2.029   7.745   1.908 -0.0304  0.1581  0.1686
13726SOL    HW142341   2.067   7.685   1.972 -1.0157  0.5345  1.1506
13726SOL    HW242342   2.074   7.726   1.826  1.5565 -0.0683  1.0581
13727SOL     OW42343   2.279   3.975   8.459  0.3873 -0.5119 -0.5471
13727SOL    HW142344   2.265   4.058   8.413  1.3346  0.0562  0.1558
13727SOL    HW242345   2.373   3.973   8.478 -0.1678  0.0985  2.8354
13728SOL     OW42346   4.533   4.008   0.404 -0.0789 -0.2730  0.4092
13728SOL    HW142347   4.497   4.093   0.429  2.3224  0.8159  0.3902
13728SOL    HW242348   4.572   4.023   0.318 -0.0584 -1.5447  0.1777
13729SOL     OW42349   8.432   7.849   2.769  0.2567  0.5583 -0.3755
13729SOL    HW142350   8.336   7.852   2.761  0.3425  1.0661 -1.3624
13729SOL    HW242351   8.461   7.935   2.739  1.0902 -0.0141 -1.2501
13730SOL     OW42352   1.476   3.867   1.899  0.5525  0.0228 -0.0028
13730SOL    HW142353   1.565   3.844   1.871  0.4566  1.7725 -2.0197
13730SOL    HW242354   1.419   3.810   1.847  0.4536  0.5900 -0.5239
13731SOL     OW42355   1.509   5.346   6.731  0.3874 -0.3858 -0.4631
13731SOL    HW142356   1.416   5.337   6.750  0.4401  0.0690  0.0348
13731SOL    HW242357   1.514   5.416   6.666  0.4638  0.3885  0.3622
13732SOL     OW42358   1.811   4.979   7.461  0.2258  0.1158 -0.1751
13732SOL    HW142359   1.865   5.057   7.471 -0.4448  0.5124  0.4920
13732SOL    HW242360   1.751   4.982   7.536 -0.9691 -0.1152 -1.0979
13733SOL     OW42361   0.761   5.818   4.897 -0.4882  0.1116  0.2424
13733SOL    HW142362   0.715   5.841   4.816 -1.0280  0.5224  0.6519
13733SOL    HW242363   0.808   5.737   4.877  1.1118  1.3112 -1.1236
13734SOL     OW42364   0.584   5.289   8.066 -0.2951  0.1943 -0.0088
13734SOL    HW142365   0.647   5.269   8.136  0.3348  0.8236 -0.3821
13734SOL    HW242366   0.619   5.368   8.025 -2.0585  1.3859  0.6654
13735SOL     OW42367   3.740   5.988   7.421 -0.1783 -0.9677  0.0460
13735SOL    HW142368   3.812   5.956   7.367 -0.6110 -0.3035 -0.9489
13735SOL    HW242369   3.747   5.939   7.503  3.3678  1.2421  1.3145
13736SOL     OW42370   7.165   0.581   1.893 -0.5975  0.8526  0.5545
13736SOL    HW142371   7.249   0.603   1.934 -0.4555  0.9203  0.2261
13736SOL    HW242372   7.188   0.546   1.807 -0.8072 -0.8055  1.1366
13737SOL     OW42373   4.774   3.526   3.093  0.1203  0.5416 -1.0926
13737SOL    HW142374   4.712   3.471   3.045  0.8701  0.3490 -1.8737
13737SOL    HW242375   4.824   3.464   3.147 -1.8756  0.9184  1.3696
13738SOL     OW42376   7.139   0.417   3.922  0.1107 -0.3733  0.2248
13738SOL    HW142377   7.156   0.324   3.910 -0.3917 -0.3537 -0.7720
13738SOL    HW242378   7.053   0.431   3.882  0.1724  0.5212  0.3770
13739SOL     OW42379   3.755   4.335   4.886 -0.7333 -0.2473 -0.6031
13739SOL    HW142380   3.797   4.389   4.819 -1.9480  0.6739 -0.6623
13739SOL    HW242381   3.786   4.247   4.868  1.5470  0.4167 -0.3306
13740SOL     OW42382   8.198   2.208   4.107 -0.3905 -0.4209 -0.3634
13740SOL    HW142383   8.127   2.165   4.154 -0.9124  0.0588 -0.6933
13740SOL    HW242384   8.200   2.297   4.143  0.9252 -0.8009  0.5865
13741SOL     OW42385   1.177   8.645   3.592  0.2058 -0.0691 -0.2160
13741SOL    HW142386   1.085   8.664   3.608  0.4756  0.4479  0.8289
13741SOL    HW242387   1.177   8.583   3.520 -0.8478  2.0066 -2.1208
13742SOL     OW42388   2.113   5.325   8.059 -0.1725  0.6428  0.1066
13742SOL    HW142389   2.093   5.386   8.129 -2.8351 -0.3089  0.2980
13742SOL    HW242390   2.087   5.239   8.093  3.8921 -0.8335  0.0526
13743SOL     OW42391   8.786   1.787   2.302 -0.5067  0.6161 -0.4901
13743SOL    HW142392   8.822   1.730   2.234  0.8943  1.0413 -0.1268
13743SOL    HW242393   8.709   1.740   2.333 -0.1056 -0.4722 -1.0804
13744SOL     OW42394   2.654   0.522   6.034  0.2194  0.5716 -0.0945
13744SOL    HW142395   2.599   0.565   5.968  1.4294  0.3278 -1.3059
13744SOL    HW242396   2.678   0.439   5.994  2.1081  1.0024  0.0391
13745SOL     OW42397   1.802   7.243   6.773 -0.4412 -0.0413  0.6950
13745SOL    HW142398   1.837   7.288   6.696 -1.0258  1.9898  1.5265
13745SOL    HW242399   1.790   7.153   6.745 -0.4953  0.5904 -1.5470
13746SOL     OW42400   4.296   1.790   4.657 -0.5513 -0.2918  0.2359
13746SOL    HW142401   4.294   1.778   4.562  0.1402 -1.0189  0.3025
13746SOL    HW242402   4.228   1.730   4.690  0.5121 -1.4919  0.3195
13747SOL     OW42403   5.674   0.418   5.450  0.6981  0.0543 -0.0882
13747SOL    HW142404   5.766   0.429   5.425  0.6105 -1.3868 -1.1987
13747SOL    HW242405   5.662   0.323   5.455 -0.5946  0.2290  0.6112
13748SOL     OW42406   7.207   5.384   3.026 -0.3924  0.5319 -0.1100
13748SOL    HW142407   7.299   5.365   3.010  0.7959  2.0067  3.7425
13748SOL    HW242408   7.202   5.479   3.029 -2.2505  0.5087 -0.9763
13749SOL     OW42409   5.479   5.217   0.606 -0.0740  0.1716 -0.4294
13749SOL    HW142410   5.397   5.239   0.561 -1.1247 -0.0430  1.2592
13749SOL    HW242411   5.548   5.236   0.543 -1.2885  2.4892 -1.1720
13750SOL     OW42412   1.948   4.540   4.729 -0.2602 -0.2636  0.3682
13750SOL    HW142413   1.942   4.614   4.790  1.5311 -0.0954  0.3896
13750SOL    HW242414   1.970   4.580   4.645 -0.5618 -0.6764  0.0903
13751SOL     OW42415   6.216   5.643   0.977  0.4451 -0.3519 -0.3271
13751SOL    HW142416   6.210   5.738   0.976 -0.3996 -0.3958 -1.5817
13751SOL    HW242417   6.127   5.613   0.960  0.3837 -1.4014  1.6271
13752SOL     OW42418   7.013   5.628   5.543 -0.4301  0.5932 -0.0385
13752SOL    HW142419   6.957   5.609   5.618  0.1091 -0.6429  0.0853
13752SOL    HW242420   6.984   5.566   5.476  0.7191 -0.0278  0.0090
13753SOL     OW42421   7.609   2.740   7.090  0.4171 -0.5597 -0.1011
13753SOL    HW142422   7.697   2.738   7.053  0.6915  0.8726  0.3824
13753SOL    HW242423   7.569   2.818   7.050  0.2620  0.2456  1.5379
13754SOL     OW42424   8.285   0.731   0.393 -0.3385  0.0594  0.0426
13754SOL    HW142425   8.213   0.743   0.331 -0.5757 -0.4192  0.2244
13754SOL    HW242426   8.241   0.714   0.476 -0.0106 -0.1682  0.1656
13755SOL     OW42427   5.995   7.356   2.060  0.1718 -0.1165  0.1037
13755SOL    HW142428   6.064   7.310   2.011  0.1128  0.2427 -0.3270
13755SOL    HW242429   5.914   7.331   2.017  0.3297  2.7692 -2.2085
13756SOL     OW42430   1.798   7.045   3.419 -0.1486  0.3619  0.4768
13756SOL    HW142431   1.745   6.977   3.462 -0.9075  0.9684  0.5265
13756SOL    HW242432   1.870   6.997   3.379  0.2869 -0.2767  1.9796
13757SOL     OW42433   4.135   8.144   0.877 -0.2213  0.4682 -0.0785
13757SOL    HW142434   4.183   8.062   0.879  0.2890  0.7809  0.5035
13757SOL    HW242435   4.160   8.190   0.957 -1.6318  0.5600  0.3439
13758SOL     OW42436   3.278   1.702   8.157  0.0054 -0.0227 -0.0220
13758SOL    HW142437   3.296   1.721   8.066 -0.8522  1.9104  0.1684
13758SOL    HW242438   3.277   1.787   8.200 -0.3553 -0.8249  1.6535
13759SOL     OW42439   6.022   0.822   4.279 -0.2871  0.5073 -0.6949
13759SOL    HW142440   6.040   0.916   4.282 -2.2521  0.9210  1.3092
13759SOL    HW242441   6.108   0.781   4.292  0.3153  2.1023  0.8391
13760SOL     OW42442   1.115   4.603   1.763  0.3768 -0.5301  0.3454
13760SOL    HW142443   1.100   4.646   1.679 -3.9481  0.2498  1.2645
13760SOL    HW242444   1.108   4.510   1.744 -2.6416 -0.3279 -0.0362
13761SOL     OW42445   2.584   0.999   7.226 -0.1449  0.1388  0.3336
13761SOL    HW142446   2.642   1.028   7.296  0.6048  1.9210 -0.9447
13761SOL    HW242447   2.642   0.980   7.152 -1.1042  1.6443 -0.8743
13762SOL     OW42448   7.754   1.994   4.496  0.3271 -0.5391  0.3501
13762SOL    HW142449   7.833   1.970   4.545 -0.9644 -1.5153  2.0857
13762SOL    HW242450   7.691   1.926   4.519 -0.9492  0.0601 -1.2158
13763SOL     OW42451   3.202   6.634   1.618 -0.1734  0.0592  0.1744
13763SOL    HW142452   3.200   6.688   1.697  1.0625  2.1873 -1.1243
13763SOL    HW242453   3.293   6.610   1.607 -0.4674 -0.9527 -0.1438
13764SOL     OW42454   6.045   2.981   1.599  0.3820  0.0322 -0.2467
13764SOL    HW142455   6.124   2.982   1.545  0.5853  0.6504  0.0541
13764SOL    HW242456   6.049   2.899   1.647  0.5758 -0.1793 -0.6274
13765SOL     OW42457   0.286   2.997   0.290  0.4118  0.3537 -0.4726
13765SOL    HW142458   0.349   2.932   0.259 -0.3858  0.5787 -2.7973
13765SOL    HW242459   0.336   3.078   0.299  0.7897  0.1420 -0.6582
13766SOL     OW42460   4.278   0.928   6.341 -0.0416 -0.9505 -0.4158
13766SOL    HW142461   4.249   0.846   6.302 -0.0624 -0.6008 -1.1381
13766SOL    HW242462   4.252   0.995   6.278  1.8393 -0.5639 -0.8264
13767SOL     OW42463   1.955   4.473   0.424  0.2445  0.7615  0.4624
13767SOL    HW142464   1.943   4.461   0.330  1.6709 -1.4635  0.5036
13767SOL    HW242465   2.043   4.510   0.433 -0.0490  1.3806  0.9289
13768SOL     OW42466   5.149   5.464   3.674 -0.5019  0.1907  0.5241
13768SOL    HW142467   5.222   5.519   3.643 -1.2451  0.2550 -1.2151
13768SOL    HW242468   5.085   5.526   3.708 -1.3287  0.4550 -1.4135
13769SOL     OW42469   2.093   6.717   0.972  0.4412  0.6864 -0.4387
13769SOL    HW142470   2.156   6.725   1.044  0.9688 -0.9302 -0.6844
13769SOL    HW242471   2.104   6.798   0.922  2.5928  0.3313 -0.6518
13770SOL     OW42472   8.008   2.962   5.899 -0.6482 -0.0640 -0.3231
13770SOL    HW142473   7.986   2.870   5.917 -1.5079  0.2501  0.3125
13770SOL    HW242474   7.941   3.012   5.947  0.6488  0.9155  0.5345
13771SOL     OW42475   8.203   1.652   8.568 -0.2892 -0.3648  0.4758
13771SOL    HW142476   8.228   1.703   8.645  1.5631 -1.0934  0.3964
13771SOL    HW242477   8.179   1.566   8.603  2.3319 -1.3024  0.1618
13772SOL     OW42478   1.250   5.730   4.344 -0.1342 -0.1569 -0.5693
13772SOL    HW142479   1.316   5.800   4.340  0.5051 -0.6866  0.3896
13772SOL    HW242480   1.167   5.774   4.325  0.2515  0.8757  0.0593
13773SOL     OW42481   5.619   4.227   4.189  0.0656  0.7199  0.2982
13773SOL    HW142482   5.599   4.166   4.260 -2.7103  0.3066 -0.7055
13773SOL    HW242483   5.600   4.313   4.225 -0.1646  0.6176  0.4223
13774SOL     OW42484   7.087   2.750   5.166  0.2838 -0.2859  0.4222
13774SOL    HW142485   7.008   2.797   5.140  0.2356 -1.1257 -1.0753
13774SOL    HW242486   7.114   2.704   5.086  1.4642 -1.1573  1.3009
13775SOL     OW42487   0.352   3.655   8.336  0.4318 -0.4656  0.4142
13775SOL    HW142488   0.438   3.638   8.372 -0.6131 -1.9049  2.4258
13775SOL    HW242489   0.335   3.747   8.353  1.3154 -0.3324  0.5666
13776SOL     OW42490   1.060   0.345   5.225  0.0718 -0.3159  0.4147
13776SOL    HW142491   1.067   0.424   5.277  0.9870 -0.5089  0.5990
13776SOL    HW242492   1.015   0.373   5.145  3.0228  1.0950 -0.8805
13777SOL     OW42493   5.988   5.574   0.818  0.3016  0.6472  0.0243
13777SOL    HW142494   5.912   5.555   0.872  0.2350  0.4498 -0.1378
13777SOL    HW242495   6.023   5.488   0.794  0.7704  0.7393  0.3726
13778SOL     OW42496   6.520   3.552   7.424 -0.0517 -0.1721 -0.5130
13778SOL    HW142497   6.472   3.615   7.370 -1.3840 -0.3878  0.3815
13778SOL    HW242498   6.553   3.604   7.497  4.1567  0.7586 -2.7083
13779SOL     OW42499   0.546   6.353   8.754 -0.3020  0.0960 -0.1119
13779SOL    HW142500   0.476   6.368   8.690 -0.4001 -2.4499 -0.7427
13779SOL    HW242501   0.501   6.355   8.839 -0.8766 -0.0440 -0.4050
13780SOL     OW42502   7.712   1.280   5.532  0.1604 -0.5140 -0.0215
13780SOL    HW142503   7.620   1.254   5.532 -0.1348  0.4573  0.9776
13780SOL    HW242504   7.756   1.213   5.480 -1.2345 -0.5221 -1.2458
13781SOL     OW42505   7.404   3.942   4.807 -0.1196  0.4326  0.7561
13781SOL    HW142506   7.353   3.862   4.822 -0.7930  0.9084  1.1022
13781SOL    HW242507   7.376   4.001   4.877  0.6346  0.8472  0.7177
13782SOL     OW42508   0.118   0.201   2.023 -0.8327  0.0336  1.0941
13782SOL    HW142509   0.204   0.243   2.033  1.9951 -3.9244 -2.6903
13782SOL    HW242510   0.074   0.253   1.955 -0.0649  0.3404  0.8157
13783SOL     OW42511   0.760   2.727   6.019  0.2885 -0.2854  0.1052
13783SOL    HW142512   0.746   2.812   6.060  0.4773 -0.1892 -0.0251
13783SOL    HW242513   0.760   2.745   5.925  0.6591 -0.3766  0.0857
13784SOL     OW42514   4.540   1.095   2.130 -0.6092 -0.2487 -0.7294
13784SOL    HW142515   4.612   1.031   2.122 -0.3217 -0.2574  1.3219
13784SOL    HW242516   4.556   1.158   2.060  2.3450  0.5832  0.5296
13785SOL     OW42517   6.390   7.845   1.061  0.1317 -0.1086  0.0575
13785SOL    HW142518   6.469   7.818   1.016 -0.8117 -1.9739 -0.6011
13785SOL    HW242519   6.413   7.844   1.154  0.9915 -0.2051 -0.1551
13786SOL     OW42520   2.365   8.214   0.136  0.3386  0.4153  0.2506
13786SOL    HW142521   2.386   8.280   0.202  0.4305  0.6902 -0.0515
13786SOL    HW242522   2.376   8.131   0.181 -0.2155  0.6127  0.7649
13787SOL     OW42523   2.864   6.924   6.103 -0.4221 -0.0428 -0.4785
13787SOL    HW142524   2.907   6.954   6.183  0.9110  1.0093 -1.5390
13787SOL    HW242525   2.785   6.880   6.133  0.7807 -0.9823  1.4928
13788SOL     OW42526   2.568   5.783   4.790 -0.0025 -0.5126  0.1663
13788SOL    HW142527   2.600   5.853   4.733 -0.8438  1.4011  1.9327
13788SOL    HW242528   2.640   5.766   4.850 -1.2752  2.2078  2.6918
13789SOL     OW42529   7.656   7.809   6.377 -0.4668 -0.1403  0.5965
13789SOL    HW142530   7.603   7.888   6.361  0.3738  0.6446  1.5391
13789SOL    HW242531   7.715   7.834   6.448 -0.8294 -1.9358  1.5864
13790SOL     OW42532   0.194   6.988   5.934  0.3250  0.0283 -0.4101
13790SOL    HW142533   0.237   6.916   5.981  0.4235  0.3941  0.0639
13790SOL    HW242534   0.105   6.989   5.969  0.4053  0.3180 -0.2170
13791SOL     OW42535   0.639   4.596   0.359 -0.1440 -0.0015 -0.5217
13791SOL    HW142536   0.611   4.618   0.447 -0.6549 -0.7671 -0.4802
13791SOL    HW242537   0.562   4.556   0.318  0.6719 -1.5847 -0.6227
13792SOL     OW42538   0.459   3.366   5.314  0.2177  0.0151 -0.6897
13792SOL    HW142539   0.446   3.415   5.233  2.1605  0.2585 -0.8961
13792SOL    HW242540   0.371   3.356   5.351 -0.2679  4.8655  0.0724
13793SOL     OW42541   6.941   5.163   2.991 -0.4758 -0.7950 -0.0485
13793SOL    HW142542   6.946   5.242   2.938  1.1268 -1.9242 -1.7126
13793SOL    HW242543   6.976   5.189   3.077 -1.3512  0.6178 -0.0988
13794SOL     OW42544   3.809   2.422   7.556 -0.0316  0.1561 -0.0599
13794SOL    HW142545   3.903   2.408   7.568  0.4017  0.8484 -2.1842
13794SOL    HW242546   3.776   2.338   7.524  0.1024  0.2673 -0.4915
13795SOL     OW42547   2.098   8.176   4.069  0.4408 -0.5688  0.2729
13795SOL    HW142548   2.006   8.180   4.043  0.6730 -0.2867 -0.5253
13795SOL    HW242549   2.097   8.124   4.149 -0.4079 -0.6207  0.2443
13796SOL     OW42550   3.841   5.834   2.188  0.0604 -0.2124 -0.0645
13796SOL    HW142551   3.918   5.888   2.203 -0.6227  0.6462  0.4272
13796SOL    HW242552   3.772   5.896   2.164  0.0900 -1.1390 -2.9644
13797SOL     OW42553   1.019   3.350   4.023 -0.3345  0.7063 -0.3974
13797SOL    HW142554   1.031   3.445   4.028  0.8281  0.7132 -2.3275
13797SOL    HW242555   1.087   3.315   4.080 -0.4468  1.0076 -0.0704
13798SOL     OW42556   5.059   5.297   6.959  0.1561  0.6534  0.1179
13798SOL    HW142557   5.007   5.221   6.984 -1.9980  2.2617  0.8600
13798SOL    HW242558   5.009   5.338   6.889  1.2492  1.4439 -0.2382
13799SOL     OW42559   0.523   2.385   3.101 -0.0659 -0.6010 -0.0544
13799SOL    HW142560   0.522   2.401   3.007  0.8707 -0.6809 -0.0837
13799SOL    HW242561   0.614   2.367   3.122 -0.0483  0.6715  1.0779
13800SOL     OW42562   4.287   3.562   6.148 -0.4036  0.1229  0.0753
13800SOL    HW142563   4.211   3.587   6.095  0.2258 -0.4591 -1.1574
13800SOL    HW242564   4.264   3.477   6.185 -1.0484  0.7595  1.1970
13801SOL     OW42565   1.208   1.997   1.574  0.3414 -0.5791 -0.2317
13801SOL    HW142566   1.269   1.925   1.557  0.0838 -0.2345 -2.9211
13801SOL    HW242567   1.153   2.002   1.496 -0.6715  1.5732  0.5300
13802SOL     OW42568   4.672   1.000   4.644 -0.3054  0.0301 -0.2686
13802SOL    HW142569   4.709   0.984   4.558  0.3426  0.5062 -0.0813
13802SOL    HW242570   4.731   0.955   4.705 -1.0271 -0.7195 -0.0948
13803SOL     OW42571   4.202   6.043   3.075 -0.1400  0.0562  0.3959
13803SOL    HW142572   4.242   6.092   3.147  0.3825 -2.1107  1.6556
13803SOL    HW242573   4.180   6.110   3.010  2.7736  1.7000  0.9348
13804SOL     OW42574   4.464   3.226   7.598  0.1831  0.2225  0.4863
13804SOL    HW142575   4.393   3.282   7.630 -1.7004 -0.6651 -1.8498
13804SOL    HW242576   4.483   3.167   7.671 -1.1952  0.7694  1.3286
13805SOL     OW42577   8.698   3.989   0.328  0.1122 -0.3460 -0.4096
13805SOL    HW142578   8.751   4.050   0.379  0.3016 -0.4173 -0.5228
13805SOL    HW242579   8.613   4.034   0.318  0.1060 -0.2909 -0.1155
13806SOL     OW42580   4.714   3.884   8.198 -0.1216  0.3784 -0.1239
13806SOL    HW142581   4.686   3.872   8.107  2.0629 -2.6478 -0.5302
13806SOL    HW242582   4.661   3.823   8.248  0.7035 -0.0896  0.1856
13807SOL     OW42583   5.354   2.214   3.671 -0.0866  0.0337 -0.0498
13807SOL    HW142584   5.436   2.263   3.674 -0.0883  0.3427 -2.6573
13807SOL    HW242585   5.287   2.277   3.696  0.1550  0.7798 -1.1977
13808SOL     OW42586   4.702   5.496   6.945  0.1111 -0.2781 -0.2568
13808SOL    HW142587   4.647   5.571   6.923  1.7696  1.2239  0.4453
13808SOL    HW242588   4.660   5.458   7.022 -0.5883  0.1034 -0.4345
13809SOL     OW42589   8.762   2.446   3.072 -0.3688 -0.9836 -0.7454
13809SOL    HW142590   8.695   2.512   3.088  1.3825  0.3041  2.1641
13809SOL    HW242591   8.796   2.467   2.985 -0.5635  1.3463 -0.3291
13810SOL     OW42592   7.477   1.936   0.868 -0.3506  0.4809 -0.0703
13810SOL    HW142593   7.478   2.015   0.922  0.4682 -0.3996  1.2807
13810SOL    HW242594   7.399   1.888   0.896  0.6564 -0.4975  1.1917
13811SOL     OW42595   5.135   2.012   7.476  0.3526  0.3746  0.4932
13811SOL    HW142596   5.181   1.933   7.503  1.8997  1.6748  1.8718
13811SOL    HW242597   5.198   2.060   7.422 -0.3449  0.9662  0.1772
13812SOL     OW42598   8.472   4.271   4.780  0.5768  0.6362 -0.0605
13812SOL    HW142599   8.566   4.253   4.775  0.4341  0.1142 -1.3914
13812SOL    HW242600   8.462   4.360   4.748  0.5823  0.4899 -0.4896
13813SOL     OW42601   4.618   3.633   8.343  0.1992 -0.1420  0.5236
13813SOL    HW142602   4.710   3.645   8.319 -0.1968  1.5494 -0.2916
13813SOL    HW242603   4.584   3.572   8.277  0.4851  0.0787  0.1674
13814SOL     OW42604   6.131   8.307   8.002 -0.2754 -0.2039  0.5679
13814SOL    HW142605   6.055   8.324   7.946  0.8183 -0.8973 -1.2182
13814SOL    HW242606   6.111   8.224   8.045 -0.4103 -0.5298 -0.1164
13815SOL     OW42607   3.365   2.729   6.190 -0.1551  0.1276  0.1379
13815SOL    HW142608   3.337   2.754   6.101 -1.1342 -0.7169  0.1886
13815SOL    HW242609   3.456   2.758   6.195 -0.5133  1.4943 -0.6369
13816SOL     OW42610   7.904   4.277   6.777 -0.2014  0.7975 -0.5096
13816SOL    HW142611   7.871   4.367   6.786 -1.0519  0.4384  0.1654
13816SOL    HW242612   7.835   4.223   6.815  0.6014 -0.0984 -0.3003
13817SOL     OW42613   2.953   6.696   5.742  0.2915 -0.0811  0.0528
13817SOL    HW142614   2.910   6.680   5.659  0.7826  0.3925 -0.2976
13817SOL    HW242615   3.020   6.629   5.748  1.1681  0.7132 -0.5852
13818SOL     OW42616   6.946   2.023   5.246 -0.2967  0.1642  0.8399
13818SOL    HW142617   6.972   2.094   5.187  0.4910  0.3227  1.3602
13818SOL    HW242618   7.014   1.956   5.234 -0.3544  0.0285  1.2612
13819SOL     OW42619   1.448   2.876   0.640  0.1482  0.0343 -0.4570
13819SOL    HW142620   1.411   2.820   0.708 -2.1570  1.8845 -0.0460
13819SOL    HW242621   1.404   2.848   0.559  0.8029 -0.3232 -0.6952
13820SOL     OW42622   0.586   7.362   3.397  0.0426  0.2879  0.2865
13820SOL    HW142623   0.585   7.457   3.405 -1.3117  0.3995 -0.9220
13820SOL    HW242624   0.503   7.334   3.435 -0.7605 -0.1608 -1.6788
13821SOL     OW42625   2.518   6.319   2.806 -0.3447  0.3478 -0.4346
13821SOL    HW142626   2.436   6.366   2.819  0.0066  0.8771 -0.0629
13821SOL    HW242627   2.517   6.292   2.714 -0.3400  1.5069 -0.7909
13822SOL     OW42628   7.655   5.295   8.501 -0.3923  0.2330 -0.2977
13822SOL    HW142629   7.644   5.239   8.578 -0.4787  0.2650 -0.2868
13822SOL    HW242630   7.568   5.332   8.486  0.3283  3.0914  1.7607
13823SOL     OW42631   4.108   7.973   7.591 -0.7059 -0.2481  0.0067
13823SOL    HW142632   4.052   7.947   7.665  0.4700 -0.6362  0.7877
13823SOL    HW242633   4.048   7.979   7.517 -1.6306 -1.6993  0.5900
13824SOL     OW42634   2.318   1.803   8.413  0.2139 -0.0595 -0.1169
13824SOL    HW142635   2.375   1.745   8.363  0.9342  0.9598 -0.5244
13824SOL    HW242636   2.278   1.747   8.479  0.8523 -1.0202 -0.5259
13825SOL     OW42637   0.878   6.062   2.020  0.4624  0.3833 -0.2963
13825SOL    HW142638   0.938   6.012   1.966  1.3654  1.4431 -0.3123
13825SOL    HW242639   0.918   6.063   2.106 -0.3889 -0.3076  0.1283
13826SOL     OW42640   3.952   0.968   5.437 -0.1170 -0.0493 -0.3295
13826SOL    HW142641   3.881   0.958   5.500 -0.6200 -0.5602 -0.9531
13826SOL    HW242642   3.983   1.058   5.448 -0.0158 -0.2190  0.8146
13827SOL     OW42643   5.511   6.907   1.979 -0.2065  0.3159 -0.1352
13827SOL    HW142644   5.467   6.827   1.953 -1.3854  1.0653 -0.5425
13827SOL    HW242645   5.499   6.966   1.905 -0.0827  1.1381  0.4796
13828SOL     OW42646   3.598   0.905   1.972  0.4061  0.0473  0.0328
13828SOL    HW142647   3.673   0.961   1.952 -0.3609  1.0860  0.0426
13828SOL    HW242648   3.599   0.896   2.067  0.9082 -0.5087 -0.0167
13829SOL     OW42649   2.291   4.346   7.529  0.2317  0.1608 -0.1285
13829SOL    HW142650   2.205   4.337   7.570  0.9336  0.5207  1.4850
13829SOL    HW242651   2.306   4.441   7.526  1.4269  0.0801  1.5518
13830SOL     OW42652   2.130   2.126   8.785  0.3127  0.0929  0.5909
13830SOL    HW142653   2.088   2.068   8.848 -0.9187  0.0550 -0.2184
13830SOL    HW242654   2.095   2.213   8.806 -1.5326 -0.1698 -1.1128
13831SOL     OW42655   0.849   3.475   2.533 -0.0240  0.5199  0.2016
13831SOL    HW142656   0.858   3.416   2.607  1.3511  1.3821  0.7617
13831SOL    HW242657   0.802   3.550   2.568 -1.2053  0.0544 -0.3451
13832SOL     OW42658   1.281   3.352   2.838 -0.1384 -0.7766 -0.1715
13832SOL    HW142659   1.344   3.281   2.851 -0.0247 -0.9374 -1.4631
13832SOL    HW242660   1.334   3.431   2.837 -0.1438 -0.7657  0.2513
13833SOL     OW42661   3.363   5.352   1.835  0.7573 -0.0724  0.8919
13833SOL    HW142662   3.338   5.417   1.769  3.1866  0.1937  0.1648
13833SOL    HW242663   3.407   5.403   1.903  0.6238 -0.6837  1.4462
13834SOL     OW42664   6.554   3.450   0.028  0.2219 -0.1748 -0.2340
13834SOL    HW142665   6.613   3.468  -0.045  0.4173  2.5495  0.4890
13834SOL    HW242666   6.497   3.527   0.033  1.4147  0.7006  3.5511
13835SOL     OW42667   0.289   8.412   0.628 -0.3905 -0.1110  0.0142
13835SOL    HW142668   0.361   8.475   0.634 -2.4149  2.4750 -0.7385
13835SOL    HW242669   0.289   8.384   0.536 -0.3063 -0.1586  0.0288
13836SOL     OW42670   7.844   1.433   5.077 -0.2263  0.0170 -0.0032
13836SOL    HW142671   7.861   1.455   4.986 -0.1504  0.8415  0.2017
13836SOL    HW242672   7.754   1.401   5.078 -0.4390  0.5986 -0.2730
13837SOL     OW42673   1.889   0.056   0.583  0.1664  0.4985  0.4184
13837SOL    HW142674   1.951  -0.003   0.627  2.1609  0.5477 -2.1049
13837SOL    HW242675   1.944   0.127   0.549 -1.5444  1.4211 -0.5377
13838SOL     OW42676   2.782   8.021   5.570 -0.4725  0.5670 -0.4860
13838SOL    HW142677   2.785   8.115   5.588  2.1542  0.1087  2.1457
13838SOL    HW242678   2.858   8.005   5.514 -0.0464 -0.1578  0.2819
13839SOL     OW42679   1.486   0.448   4.256 -0.5141 -0.3405 -0.0574
13839SOL    HW142680   1.476   0.494   4.172  1.2119 -1.3351 -0.8644
13839SOL    HW242681   1.547   0.377   4.237 -2.1472 -2.2626  1.4361
13840SOL     OW42682   5.865   8.130   0.236  0.9042 -0.3304 -0.5239
13840SOL    HW142683   5.822   8.118   0.151 -0.6760 -0.7151  0.2843
13840SOL    HW242684   5.946   8.079   0.229  0.7707 -0.4096 -1.7698
13841SOL     OW42685   8.556   6.868   5.444 -0.3273 -0.3489 -0.3595
13841SOL    HW142686   8.602   6.785   5.453 -0.2437 -0.1908  0.9312
13841SOL    HW242687   8.465   6.847   5.463 -0.4427 -0.2926 -0.8512
13842SOL     OW42688   5.063   1.350   3.143  0.4856  0.0118  0.4349
13842SOL    HW142689   5.066   1.258   3.170 -0.1182  0.3006  1.5555
13842SOL    HW242690   5.119   1.354   3.066  2.2292 -0.8754  1.6010
13843SOL     OW42691   1.695   8.190   1.968  0.5241 -0.8492  0.6471
13843SOL    HW142692   1.697   8.209   1.874  0.8377 -1.5157  0.5132
13843SOL    HW242693   1.766   8.242   2.005  0.4548 -0.6521  0.5099
13844SOL     OW42694   2.670   6.004   3.144 -0.4240  0.0328  0.0185
13844SOL    HW142695   2.662   6.050   3.227 -0.5834 -1.2183  0.7200
13844SOL    HW242696   2.684   5.912   3.168 -0.7403 -0.4013 -1.3362
13845SOL     OW42697   3.856   6.878   2.026 -0.6268 -0.1991 -0.1122
13845SOL    HW142698   3.859   6.796   1.977 -0.3397 -0.4140  0.2605
13845SOL    HW242699   3.775   6.920   1.997 -1.7096 -1.4206  0.9587
13846SOL     OW42700   3.251   7.982   0.645 -0.5641 -0.6646 -0.0936
13846SOL    HW142701   3.320   8.041   0.673  0.6744 -1.5802 -1.0959
13846SOL    HW242702   3.295   7.900   0.625 -1.5909 -0.6968 -2.6903
13847SOL     OW42703   0.140   1.343   8.776 -0.6084 -0.0670  0.9117
13847SOL    HW142704   0.123   1.422   8.725 -1.5935 -0.8990 -0.1005
13847SOL    HW242705   0.064   1.334   8.833  0.1621  0.4699  2.0772
13848SOL     OW42706   0.540   2.395   4.659 -0.3918  0.4255 -0.2517
13848SOL    HW142707   0.615   2.379   4.716  1.0287  2.1985 -1.5012
13848SOL    HW242708   0.548   2.328   4.591  0.3829  0.9044 -0.6496
13849SOL     OW42709   1.660   8.705   0.230  0.0507 -0.0788  0.1699
13849SOL    HW142710   1.634   8.618   0.201 -0.4046  0.1576 -0.1347
13849SOL    HW242711   1.581   8.744   0.266 -0.1719  0.8320 -1.2159
13850SOL     OW42712   7.553   1.700   1.774 -0.3341 -0.0531 -0.2927
13850SOL    HW142713   7.644   1.687   1.750  0.1835 -1.4628  2.1666
13850SOL    HW242714   7.522   1.769   1.714  1.8791 -0.5513 -2.1419
13851SOL     OW42715   0.303   2.235   7.883  0.2446 -0.4373  0.4878
13851SOL    HW142716   0.284   2.307   7.822  0.3248 -0.2353  0.7006
13851SOL    HW242717   0.348   2.277   7.956 -1.3688 -0.4046  1.4923
13852SOL     OW42718   1.081   1.030   4.047  0.2345 -0.4028 -0.5858
13852SOL    HW142719   1.066   0.967   4.117  0.9282 -0.7640 -0.7527
13852SOL    HW242720   1.163   1.002   4.007  1.8261  1.9299  0.7971
13853SOL     OW42721   4.051   8.248   5.246  0.2653  0.0841 -0.4776
13853SOL    HW142722   4.077   8.156   5.246  1.3408  0.3657 -1.3880
13853SOL    HW242723   4.095   8.285   5.169 -0.5154  1.2590 -0.3782
13854SOL     OW42724   8.116   7.359   3.071 -0.1007 -0.6158 -0.1539
13854SOL    HW142725   8.028   7.394   3.056  0.0310  0.4659  1.4093
13854SOL    HW242726   8.104   7.290   3.136  0.0441 -1.4285 -0.9728
13855SOL     OW42727   4.621   3.702   5.564 -0.3541 -0.8464 -0.5559
13855SOL    HW142728   4.547   3.669   5.615 -0.5270  0.2730 -0.0708
13855SOL    HW242729   4.698   3.664   5.606 -0.5101 -0.1332  0.3965
13856SOL     OW42730   7.190   6.173   6.378 -0.0412  0.0299  0.0705
13856SOL    HW142731   7.162   6.082   6.370  1.1189 -0.3007 -0.5115
13856SOL    HW242732   7.192   6.206   6.288 -0.5441  0.6630  0.2864
13857SOL     OW42733   3.139   4.613   0.677  0.0332 -0.2874  1.1979
13857SOL    HW142734   3.124   4.672   0.751 -1.5971 -0.3794  0.9790
13857SOL    HW242735   3.054   4.572   0.662 -0.1770  0.9752 -1.7875
13858SOL     OW42736   1.332   6.028   4.253  0.4056 -0.3428 -0.2908
13858SOL    HW142737   1.299   6.035   4.343  1.2443 -2.2875  0.2112
13858SOL    HW242738   1.427   6.019   4.263  0.5113 -0.5455 -1.3746
13859SOL     OW42739   0.764   5.720   1.700  0.0614 -0.2678  0.6076
13859SOL    HW142740   0.853   5.687   1.713  0.5824  1.1290  0.7724
13859SOL    HW242741   0.745   5.704   1.608  0.9718  0.5103  0.2702
13860SOL     OW42742   4.085   0.273   8.146  0.3873 -0.0435 -0.1669
13860SOL    HW142743   4.171   0.299   8.115  0.2365  1.0231  0.2858
13860SOL    HW242744   4.059   0.342   8.207 -0.5802 -0.5994  0.0720
13861SOL     OW42745   4.999   5.707   4.190  0.2119  0.1420  0.6877
13861SOL    HW142746   4.952   5.672   4.114 -1.3441 -0.1316  1.7292
13861SOL    HW242747   4.958   5.792   4.206  0.7113  0.3187  1.0509
13862SOL     OW42748   3.328   1.269   3.618  0.0986 -0.0593  0.1435
13862SOL    HW142749   3.304   1.178   3.637 -0.7423  0.1397  0.0665
13862SOL    HW242750   3.371   1.299   3.699 -3.5340  0.8041  1.9423
13863SOL     OW42751   8.189   1.403   4.661 -0.2951 -0.3305 -0.5189
13863SOL    HW142752   8.277   1.394   4.624 -0.5530  0.6304 -1.4040
13863SOL    HW242753   8.199   1.468   4.732 -0.3224 -0.0623 -0.7582
13864SOL     OW42754   3.619   1.605   1.800  0.2980  0.1692 -0.1015
13864SOL    HW142755   3.669   1.593   1.720  0.8233 -0.1575  0.2682
13864SOL    HW242756   3.606   1.699   1.807  0.7207  0.2411 -0.2845
13865SOL     OW42757   6.640   3.908   3.483 -0.3765  0.0961 -0.5602
13865SOL    HW142758   6.651   3.834   3.543 -0.0686 -0.0332 -0.7754
13865SOL    HW242759   6.710   3.969   3.507 -0.8697  0.5006 -0.1220
13866SOL     OW42760   1.993   6.144   2.618 -0.3171  0.0078 -0.3622
13866SOL    HW142761   1.904   6.176   2.603 -0.2918  0.0610 -0.3982
13866SOL    HW242762   1.984   6.082   2.691 -0.1524  1.1020  0.6117
13867SOL     OW42763   4.060   7.847   4.891 -0.5147 -0.2028  0.0128
13867SOL    HW142764   4.039   7.767   4.843  0.8468 -1.3237  1.1854
13867SOL    HW242765   4.156   7.846   4.899 -0.4899  1.4090  0.3164
13868SOL     OW42766   4.013   5.819   5.419 -0.0720  0.5695  0.0779
13868SOL    HW142767   3.985   5.800   5.329 -1.1352 -2.0165  0.8612
13868SOL    HW242768   3.942   5.870   5.457 -1.5358 -1.7103  0.5624
13869SOL     OW42769   7.306   4.464   3.021 -0.1612  0.1017 -0.2082
13869SOL    HW142770   7.266   4.385   3.059 -0.6399  0.2743 -0.3471
13869SOL    HW242771   7.362   4.431   2.951  3.6228 -0.5958  2.8230
13870SOL     OW42772   8.016   3.763   5.754 -0.6764  0.2834  0.3825
13870SOL    HW142773   8.034   3.695   5.689 -0.9885 -1.0076  1.5886
13870SOL    HW242774   7.933   3.737   5.794 -1.5153  2.1275 -0.0335
13871SOL     OW42775   1.744   4.717   3.585 -0.4753  0.0764 -0.5138
13871SOL    HW142776   1.716   4.809   3.587 -1.0322 -0.1005  0.8912
13871SOL    HW242777   1.771   4.699   3.675 -1.4468 -1.4735 -0.5106
13872SOL     OW42778   8.495   8.837   1.020  0.0026 -0.0831  0.4066
13872SOL    HW142779   8.473   8.822   1.112 -3.4921  0.6304 -0.1703
13872SOL    HW242780   8.485   8.931   1.007 -0.0288 -0.2353 -0.8067
13873SOL     OW42781   8.629   3.430   2.753  0.0152  0.3295  0.3329
13873SOL    HW142782   8.601   3.475   2.832 -2.9238 -0.3888 -0.1814
13873SOL    HW242783   8.691   3.363   2.783 -2.1550 -0.9194  2.2979
13874SOL     OW42784   6.381   7.385   1.580  0.0940 -0.1862  1.1561
13874SOL    HW142785   6.433   7.435   1.518 -0.6711 -1.3537 -0.4963
13874SOL    HW242786   6.304   7.439   1.597  0.2970  0.1287  1.0726
13875SOL     OW42787   2.517   5.835   4.118  0.1919 -0.2951  0.6969
13875SOL    HW142788   2.583   5.903   4.130  0.4274 -0.3467 -0.2333
13875SOL    HW242789   2.443   5.879   4.077  0.2037 -0.5223  0.4281
13876SOL     OW42790   8.624   1.868   1.423  0.1759 -0.3267 -0.3624
13876SOL    HW142791   8.701   1.818   1.396  0.0662 -0.2973 -0.7453
13876SOL    HW242792   8.550   1.816   1.391  0.0720  0.3059 -1.1917
13877SOL     OW42793   4.907   0.188   5.961 -0.3306 -0.5191  0.3856
13877SOL    HW142794   4.996   0.205   5.990  0.1123 -0.8868 -0.7193
13877SOL    HW242795   4.865   0.274   5.961  0.0055 -0.3502  0.9506
13878SOL     OW42796   2.585   8.799   3.335  0.0670  0.0909 -0.2672
13878SOL    HW142797   2.651   8.773   3.271  1.3643  1.4339  0.4632
13878SOL    HW242798   2.544   8.877   3.299  0.9189  0.9524  0.5789
13879SOL     OW42799   2.538   3.730   4.697  0.8802 -0.3160 -0.1785
13879SOL    HW142800   2.470   3.777   4.745  0.9332 -0.9182  0.4930
13879SOL    HW242801   2.609   3.719   4.760  2.3621  1.8191 -1.3291
13880SOL     OW42802   5.872   0.086   4.905  0.2665  0.2921  0.3951
13880SOL    HW142803   5.957   0.100   4.946  0.6546  0.1077 -0.3190
13880SOL    HW242804   5.890   0.094   4.811 -0.4945  0.1959  0.2375
13881SOL     OW42805   6.475   4.979   3.797 -0.6472 -0.2199  0.0319
13881SOL    HW142806   6.562   5.004   3.825 -0.6384  0.0896 -0.2624
13881SOL    HW242807   6.418   5.049   3.831 -0.4675  0.9413 -1.8658
13882SOL     OW42808   7.888   1.103   3.398 -0.2423  0.1520  0.2960
13882SOL    HW142809   7.879   1.191   3.362 -0.0370  0.3015  0.6016
13882SOL    HW242810   7.862   1.045   3.327  1.4829  0.3732 -0.5856
13883SOL     OW42811   2.881   3.531   0.078  0.1959 -0.4741  0.1982
13883SOL    HW142812   2.814   3.505   0.014 -0.3501 -0.4602  0.7547
13883SOL    HW242813   2.886   3.626   0.069 -0.0255 -0.4501  0.3113
13884SOL     OW42814   5.489   5.754   2.109  0.1615 -0.8990 -0.1535
13884SOL    HW142815   5.399   5.723   2.120 -0.0174  0.0331  1.2278
13884SOL    HW242816   5.541   5.674   2.109 -0.6117 -1.4184 -0.3158
13885SOL     OW42817   3.462   6.889   8.067  0.3601 -0.4491 -0.5146
13885SOL    HW142818   3.369   6.888   8.093 -0.0373 -0.4779 -1.8546
13885SOL    HW242819   3.505   6.834   8.132 -0.4703 -0.0332  0.4258
13886SOL     OW42820   8.199   3.979   0.149  0.4447  0.0370  0.2775
13886SOL    HW142821   8.262   3.910   0.171  0.9251  0.1290 -0.7399
13886SOL    HW242822   8.154   3.947   0.071 -0.3093  0.2689  0.6116
13887SOL     OW42823   5.977   3.506   4.066 -0.2645 -0.2809  0.2924
13887SOL    HW142824   5.974   3.520   4.160 -0.7199  1.0293  0.1026
13887SOL    HW242825   5.920   3.574   4.030 -0.6468 -1.1963 -0.8860
13888SOL     OW42826   3.434   8.014   8.649 -0.2669  0.3573  0.3541
13888SOL    HW142827   3.488   7.939   8.672 -0.7410  0.8508  3.5051
13888SOL    HW242828   3.476   8.088   8.693 -1.1560  1.5386 -0.6949
13889SOL     OW42829   2.655   5.721   7.301 -0.3911  0.0228 -0.4253
13889SOL    HW142830   2.748   5.701   7.312 -0.0010  1.8216 -0.1438
13889SOL    HW242831   2.610   5.662   7.361  0.5603 -0.8456 -0.5398
13890SOL     OW42832   3.041   5.047   6.619  0.4060  0.6228  0.3549
13890SOL    HW142833   3.004   4.980   6.676  0.2265  0.4879  0.0852
13890SOL    HW242834   3.091   4.997   6.554 -2.2762  0.4797 -1.7660
13891SOL     OW42835   2.630   7.100   1.098 -0.0790  0.4957  0.1931
13891SOL    HW142836   2.713   7.092   1.052 -0.6292  1.6835 -1.0674
13891SOL    HW242837   2.654   7.109   1.190  1.0947 -0.8557  0.0585
13892SOL     OW42838   4.475   2.673   0.390 -0.8172 -0.6444 -0.1656
13892SOL    HW142839   4.468   2.649   0.297 -1.7017  0.7133 -0.4819
13892SOL    HW242840   4.472   2.769   0.390  1.4762 -0.5066  1.1078
13893SOL     OW42841   1.412   6.934   4.337 -0.7753 -0.4882 -0.5241
13893SOL    HW142842   1.376   6.947   4.249 -2.1244 -0.3991  0.0119
13893SOL    HW242843   1.353   6.869   4.377  0.7881 -1.7876 -0.2324
13894SOL     OW42844   1.616   3.853   5.003 -0.5643  0.2922  0.2408
13894SOL    HW142845   1.528   3.843   4.968 -0.8401 -2.5212  1.4486
13894SOL    HW242846   1.621   3.789   5.074  1.7500  1.8946  1.6734
13895SOL     OW42847   5.335   5.791   4.941 -0.2182  0.0716 -0.1233
13895SOL    HW142848   5.258   5.789   4.997 -0.8818 -0.7136 -1.0341
13895SOL    HW242849   5.361   5.699   4.931 -1.3062 -0.0522 -2.6445
13896SOL     OW42850   5.633   6.981   4.753  0.0950 -0.1916  0.1746
13896SOL    HW142851   5.563   6.985   4.688  1.9327 -1.3799 -2.0553
13896SOL    HW242852   5.701   7.038   4.718  2.4183 -3.2575 -0.7893
13897SOL     OW42853   7.070   6.876   6.713 -0.1323 -0.1943  0.4952
13897SOL    HW142854   7.109   6.826   6.785 -0.4862 -1.7054 -0.3420
13897SOL    HW242855   7.038   6.810   6.652 -0.7248  1.0608 -0.5902
13898SOL     OW42856   1.993   7.050   1.295  0.1872  0.2006 -0.1907
13898SOL    HW142857   2.081   7.085   1.283  1.3941 -2.5060  0.0805
13898SOL    HW242858   1.984   6.983   1.227 -1.3254 -0.2074  0.3681
13899SOL     OW42859   6.730   5.083   0.588 -0.1819 -0.1780  0.1758
13899SOL    HW142860   6.806   5.095   0.645 -0.4663 -1.4700  0.8686
13899SOL    HW242861   6.723   4.988   0.578 -1.5162 -0.0600 -0.1347
13900SOL     OW42862   8.656   8.388   5.049  0.0732  0.1527 -0.3005
13900SOL    HW142863   8.566   8.356   5.042 -0.8162  1.8748  2.3292
13900SOL    HW242864   8.680   8.373   5.140  1.4249  2.3130 -0.2503
13901SOL     OW42865   1.278   2.477   8.302  0.4726  0.2921  0.1256
13901SOL    HW142866   1.302   2.553   8.248 -0.4601  0.5738  0.0996
13901SOL    HW242867   1.232   2.515   8.377  0.7957 -0.1867  0.5690
13902SOL     OW42868   3.775   7.040   2.232 -0.0225 -0.1434 -0.7238
13902SOL    HW142869   3.820   6.965   2.193  0.8220 -0.5322  0.9000
13902SOL    HW242870   3.838   7.112   2.225 -0.4611  0.1870 -1.4157
13903SOL     OW42871   0.643   8.537   7.282 -0.0066 -0.2275  0.0152
13903SOL    HW142872   0.584   8.612   7.290 -0.0479 -0.3697  1.2035
13903SOL    HW242873   0.719   8.572   7.236  0.2691  0.7367  1.1563
13904SOL     OW42874   0.657   1.949   3.835 -0.2646 -0.0578  0.4007
13904SOL    HW142875   0.564   1.944   3.817 -0.2149 -1.1202  0.3648
13904SOL    HW242876   0.667   1.915   3.924 -0.0890  1.6572  1.0755
13905SOL     OW42877   1.255   8.839   5.616 -0.2370  0.2971  0.1785
13905SOL    HW142878   1.188   8.852   5.549  0.9232  1.5414 -0.7992
13905SOL    HW242879   1.212   8.862   5.698 -1.4091 -0.3421 -0.2404
13906SOL     OW42880   1.750   2.599   2.568  0.1791 -0.0808 -0.3117
13906SOL    HW142881   1.708   2.519   2.534 -0.2511  0.0632 -0.1261
13906SOL    HW242882   1.723   2.668   2.507 -1.2126  0.3230  0.7038
13907SOL     OW42883   8.803   2.794   7.546 -0.1950  0.0956  0.1794
13907SOL    HW142884   8.731   2.853   7.526  0.2123  0.7824  0.7200
13907SOL    HW242885   8.803   2.787   7.641  1.7217  1.7508  0.3656
13908SOL     OW42886   4.252   6.512   1.646  0.5383 -0.5478  0.1079
13908SOL    HW142887   4.332   6.561   1.631  0.4968 -0.6431 -0.4251
13908SOL    HW242888   4.198   6.570   1.701  1.3220 -0.8463  1.2308
13909SOL     OW42889   4.900   6.537   6.784 -0.0031 -0.4401  0.3194
13909SOL    HW142890   4.859   6.462   6.740 -1.3201  0.7872 -0.6384
13909SOL    HW242891   4.828   6.580   6.829  0.7897  0.1077  1.0871
13910SOL     OW42892   1.975   2.464   4.090  0.4310  0.1156 -0.0928
13910SOL    HW142893   1.879   2.466   4.084  0.3432  0.5611  1.1489
13910SOL    HW242894   2.004   2.537   4.035  0.0104  0.4525  0.1238
13911SOL     OW42895   2.280   5.806   3.723  0.5364  0.1897 -0.5227
13911SOL    HW142896   2.294   5.867   3.796  0.2902  0.3635 -0.6200
13911SOL    HW242897   2.214   5.745   3.756  1.2589 -0.4205 -0.1889
13912SOL     OW42898   2.703   8.626   6.669 -0.0750 -0.1302 -0.8210
13912SOL    HW142899   2.768   8.681   6.714  0.1858 -2.2891  1.6564
13912SOL    HW242900   2.743   8.539   6.667 -1.3098 -0.7187 -2.8330
13913SOL     OW42901   6.831   2.186   7.612  0.2352 -0.3692  0.3894
13913SOL    HW142902   6.739   2.215   7.612  0.6694  1.1139  1.4208
13913SOL    HW242903   6.878   2.258   7.569  0.8265 -1.5446 -1.0111
13914SOL     OW42904   7.025   3.937   1.813  0.2861 -0.0303  0.5952
13914SOL    HW142905   6.959   4.003   1.833 -0.0985 -0.8430  2.1707
13914SOL    HW242906   7.015   3.920   1.719 -0.9828  0.6591  0.5910
13915SOL     OW42907   4.645   8.251   7.181  0.1168  0.5902 -0.0106
13915SOL    HW142908   4.685   8.250   7.094  0.1551 -0.4814  0.0158
13915SOL    HW242909   4.557   8.217   7.167 -0.4447  1.9252  0.1129
13916SOL     OW42910   0.937   3.544   8.696  0.0336 -0.0977  0.0363
13916SOL    HW142911   0.958   3.593   8.617 -0.8114  1.2320  0.5934
13916SOL    HW242912   0.883   3.471   8.666 -0.6007  0.6131 -0.5874
13917SOL     OW42913   6.489   3.923   6.437 -0.0082 -1.0458  0.6208
13917SOL    HW142914   6.555   3.924   6.368 -1.0680 -0.9488 -0.4313
13917SOL    HW242915   6.539   3.921   6.519  1.2785 -0.9709 -0.1403
13918SOL     OW42916   4.342   0.352   4.022 -0.7279 -0.0014  0.0538
13918SOL    HW142917   4.252   0.327   4.046 -0.5935 -1.6165 -0.9794
13918SOL    HW242918   4.379   0.273   3.982  1.3779  0.4131  1.0300
13919SOL     OW42919   1.665   2.926   1.228  0.0782 -0.4719 -0.1951
13919SOL    HW142920   1.671   2.894   1.138 -1.9140  1.0805 -0.9474
13919SOL    HW242921   1.605   2.866   1.271 -1.7839  0.7454 -0.9547
13920SOL     OW42922   6.633   5.360   2.933 -0.4422 -0.0041  0.2433
13920SOL    HW142923   6.725   5.359   2.905 -0.1756  1.5224  1.0154
13920SOL    HW242924   6.599   5.275   2.904  1.0050 -0.2941 -0.7183
13921SOL     OW42925   7.938   5.162   3.506  0.3880  0.0552  0.5209
13921SOL    HW142926   8.018   5.215   3.502  1.7122 -1.5466  3.1641
13921SOL    HW242927   7.893   5.191   3.584  0.1891 -1.3879  0.9725
13922SOL     OW42928   1.935   4.508   5.432 -0.2638 -0.2230  0.3203
13922SOL    HW142929   2.007   4.565   5.458 -0.6597  0.3020  0.2916
13922SOL    HW242930   1.954   4.485   5.342 -0.0331 -0.2332  0.3717
13923SOL     OW42931   2.012   0.613   1.029 -0.0632  0.0653 -1.0889
13923SOL    HW142932   2.067   0.538   1.007  0.1838  0.3976 -1.6392
13923SOL    HW242933   2.062   0.661   1.095  0.2647  0.3054 -1.5050
13924SOL     OW42934   2.132   7.038   0.255  0.2472 -0.3462  0.7086
13924SOL    HW142935   2.085   7.108   0.299  1.8036  0.5214  1.0803
13924SOL    HW242936   2.220   7.040   0.294  1.5133  0.0288 -1.9610
13925SOL     OW42937   5.982   4.372   2.817  0.1996 -0.1363 -0.1599
13925SOL    HW142938   5.928   4.307   2.861  0.3686  0.4230  0.9152
13925SOL    HW242939   5.920   4.438   2.786  0.2235  0.4387  0.9591
13926SOL     OW42940   3.820   1.935   2.711 -0.0275 -0.4422 -0.4030
13926SOL    HW142941   3.769   2.008   2.675  0.3706  0.2532  0.4036
13926SOL    HW242942   3.855   1.969   2.793 -0.0574 -1.6465  0.1268
13927SOL     OW42943   1.359   7.105   0.399  0.2079  0.4021 -0.1740
13927SOL    HW142944   1.312   7.150   0.329 -0.3141 -0.3450 -0.3164
13927SOL    HW242945   1.366   7.015   0.368 -0.7050 -0.1158  1.0626
13928SOL     OW42946   8.612   2.767   7.146 -0.2669 -0.2179 -0.4048
13928SOL    HW142947   8.547   2.829   7.114  0.2071 -0.2582 -1.4892
13928SOL    HW242948   8.561   2.698   7.189 -0.8244  0.6593  0.3773
13929SOL     OW42949   1.531   0.944   8.669  0.0618  0.0307  0.0285
13929SOL    HW142950   1.494   0.873   8.720 -0.2732  0.0329 -0.2100
13929SOL    HW242951   1.548   0.906   8.583 -2.0337  0.7417 -0.7639
13930SOL     OW42952   3.866   2.487   6.649  0.1222 -0.4471  0.2091
13930SOL    HW142953   3.821   2.402   6.646 -0.0914 -0.3979  1.5334
13930SOL    HW242954   3.861   2.514   6.741  1.3415  0.3819  0.0590
13931SOL     OW42955   8.776   2.176   1.982  0.0849 -0.1627 -0.1866
13931SOL    HW142956   8.778   2.213   1.894  0.6505  1.1494  0.3506
13931SOL    HW242957   8.867   2.153   2.001  0.1495  0.5437  0.4311
13932SOL     OW42958   2.336   6.393   8.031 -0.2052 -0.0815 -0.4203
13932SOL    HW142959   2.414   6.382   7.977  0.4935 -1.5068  0.7866
13932SOL    HW242960   2.322   6.488   8.034  1.6831  0.2459 -0.4093
13933SOL     OW42961   3.673   4.617   3.300  0.0392  0.4626  0.5651
13933SOL    HW142962   3.760   4.596   3.266 -0.3014 -0.6453  0.3194
13933SOL    HW242963   3.623   4.646   3.224 -0.5464 -1.4353  0.1659
13934SOL     OW42964   8.493   4.851   2.862 -0.1312  0.4598  0.0993
13934SOL    HW142965   8.587   4.849   2.882  0.0139 -1.0505 -0.5526
13934SOL    HW242966   8.468   4.758   2.858 -1.9638  0.8215  1.6275
13935SOL     OW42967   5.266   2.768   0.851  0.0107  0.2982  0.3082
13935SOL    HW142968   5.322   2.840   0.822  0.1821  0.3468  0.7470
13935SOL    HW242969   5.314   2.729   0.924 -0.3515  0.1015  0.4415
13936SOL     OW42970   8.391   7.627   1.333 -0.0185 -0.6283  0.5147
13936SOL    HW142971   8.428   7.655   1.249 -1.8116 -0.7642 -0.3734
13936SOL    HW242972   8.419   7.693   1.396 -1.7865  1.6349 -0.9561
13937SOL     OW42973   0.849   5.634   0.361 -0.0375  0.2587  0.0566
13937SOL    HW142974   0.873   5.721   0.391 -0.4698 -0.1190  1.6195
13937SOL    HW242975   0.872   5.577   0.435  1.2901 -1.1221 -1.3443
13938SOL     OW42976   8.562   6.679   3.909  0.3153  0.0180  0.4409
13938SOL    HW142977   8.563   6.591   3.948  0.1997  0.5054  1.5912
13938SOL    HW242978   8.561   6.663   3.814  0.3770 -1.2166  0.6251
13939SOL     OW42979   8.223   4.366   1.800 -0.2280  0.4614  0.3119
13939SOL    HW142980   8.233   4.461   1.804  1.0924  0.3227  0.5414
13939SOL    HW242981   8.213   4.338   1.891  1.4058  0.1896  0.4284
13940SOL     OW42982   1.076   0.016   1.506 -0.1070  0.0065  0.1240
13940SOL    HW142983   0.982   0.030   1.513 -0.0459  1.5643 -1.4230
13940SOL    HW242984   1.086  -0.076   1.482 -1.3638  0.2329 -1.4020
13941SOL     OW42985   2.175   0.439   8.433 -0.3720 -0.1773  0.5772
13941SOL    HW142986   2.096   0.387   8.451 -1.1276  1.4070  2.1753
13941SOL    HW242987   2.185   0.495   8.510  0.6483  1.7141 -0.8464
13942SOL     OW42988   2.049   3.405   1.142  0.2119 -0.3437  0.0839
13942SOL    HW142989   1.960   3.437   1.153  1.1981  3.0802 -0.6031
13942SOL    HW242990   2.091   3.469   1.084  2.3954 -3.3512 -2.0098
13943SOL     OW42991   7.238   6.728   4.727  0.1843 -0.9616 -0.9107
13943SOL    HW142992   7.228   6.736   4.632 -1.0637  1.1749 -0.6533
13943SOL    HW242993   7.278   6.810   4.754 -3.5347  0.5119  0.8627
13944SOL     OW42994   4.732   8.664   5.628 -0.0567 -0.1432 -0.3148
13944SOL    HW142995   4.641   8.694   5.627 -0.0199  0.0535 -2.1381
13944SOL    HW242996   4.769   8.701   5.708 -1.7307 -0.7649  0.8089
13945SOL     OW42997   0.373   3.342   4.808  0.2993 -0.3659 -0.7098
13945SOL    HW142998   0.409   3.270   4.860  2.0716 -0.0660 -1.4483
13945SOL    HW242999   0.307   3.301   4.752  0.7703 -1.2784 -0.6038
13946SOL     OW43000   7.909   6.545   1.841 -0.1472 -0.6083  0.1129
13946SOL    HW143001   7.815   6.556   1.851 -0.3251  0.9606 -2.3396
13946SOL    HW243002   7.920   6.454   1.812 -1.0805 -0.4354 -0.8561
13947SOL     OW43003   1.595   0.259   7.502 -0.1905 -0.4767 -0.1907
13947SOL    HW143004   1.687   0.232   7.505  0.6417  2.1477  0.6423
13947SOL    HW243005   1.562   0.221   7.421  1.5674 -1.6148 -0.4407
13948SOL     OW43006   3.349   0.188   7.446  0.1900  0.0221  0.1233
13948SOL    HW143007   3.433   0.233   7.439  1.5719 -2.2303  1.0582
13948SOL    HW243008   3.303   0.234   7.517  1.9546 -0.5713  1.7344
13949SOL     OW43009   1.735   5.036   8.740  0.1448  0.4707 -0.0048
13949SOL    HW143010   1.657   5.047   8.686 -0.7175 -0.3944  1.0089
13949SOL    HW243011   1.793   5.107   8.714 -0.8294  0.9235 -1.0278
13950SOL     OW43012   5.985   0.297   1.825  0.5179 -0.2112 -0.0293
13950SOL    HW143013   5.912   0.354   1.802  0.4571 -0.4710 -0.4770
13950SOL    HW243014   6.062   0.342   1.792  1.0153  1.8004  3.3790
13951SOL     OW43015   4.680   7.594   7.088  0.1091  0.0614 -0.7837
13951SOL    HW143016   4.635   7.667   7.130  0.1507 -0.5337  0.3126
13951SOL    HW243017   4.726   7.635   7.014 -0.5149  1.0091 -0.6678
13952SOL     OW43018   8.141   6.426   7.656 -0.3093 -0.3251  0.1691
13952SOL    HW143019   8.092   6.344   7.664 -0.0615 -0.3139  2.7884
13952SOL    HW243020   8.229   6.404   7.685 -0.8544  1.2742  3.6403
13953SOL     OW43021   1.756   2.942   6.719 -0.1880 -0.3914  0.2163
13953SOL    HW143022   1.801   3.015   6.676 -2.4078  1.8828  1.4962
13953SOL    HW243023   1.737   2.881   6.648  1.0831  0.5873 -1.0393
13954SOL     OW43024   4.942   7.917   2.756  0.2195 -0.5535 -0.7537
13954SOL    HW143025   4.973   7.844   2.808 -3.4322 -2.9889 -1.5918
13954SOL    HW243026   4.882   7.877   2.693 -2.2251  3.1735 -1.0827
13955SOL     OW43027   1.174   3.173   6.273  0.3310 -0.1789  0.0737
13955SOL    HW143028   1.132   3.099   6.316  1.4608 -1.3928 -0.8302
13955SOL    HW243029   1.268   3.156   6.282  0.6755  2.0164  1.2874
13956SOL     OW43030   0.003   0.269   1.796  0.1938  0.6253  0.4255
13956SOL    HW143031   0.044   0.211   1.732 -0.0272 -0.4337  1.2128
13956SOL    HW243032   0.019   0.357   1.762 -0.0985  0.0958 -1.1763
13957SOL     OW43033   0.140   4.730   6.972 -0.5372 -0.2867 -0.0897
13957SOL    HW143034   0.111   4.821   6.974  0.6599  0.1699 -1.6254
13957SOL    HW243035   0.109   4.693   7.054 -0.2528  1.7608  0.9967
13958SOL     OW43036   3.980   6.055   4.117  0.0444  0.7557 -0.2846
13958SOL    HW143037   4.022   6.070   4.202  1.2787  0.3335 -0.7933
13958SOL    HW243038   3.889   6.034   4.139  0.4980 -0.0249  0.9914
13959SOL     OW43039   8.150   1.727   5.090 -0.3970  0.5566 -0.4529
13959SOL    HW143040   8.152   1.755   5.182  0.5593  0.0531 -0.3001
13959SOL    HW243041   8.097   1.793   5.046 -2.3946 -0.1630  0.7596
13960SOL     OW43042   2.873   7.563   1.108  0.2456 -0.3453  0.7259
13960SOL    HW143043   2.934   7.551   1.180 -1.8778 -1.1110  2.4959
13960SOL    HW243044   2.787   7.573   1.149 -1.1281 -1.2530 -1.6806
13961SOL     OW43045   3.161   3.604   1.033 -0.4359 -0.2550 -0.1908
13961SOL    HW143046   3.115   3.542   1.090 -1.3937  0.4905 -0.1348
13961SOL    HW243047   3.114   3.686   1.043 -0.7158 -0.1309 -2.1550
13962SOL     OW43048   6.878   7.608   6.731 -0.2714  0.4563  0.1191
13962SOL    HW143049   6.894   7.606   6.637 -1.7758 -1.7807 -0.1644
13962SOL    HW243050   6.887   7.517   6.759 -0.8174  0.9278  1.9632
13963SOL     OW43051   0.956   8.192   5.433  0.3653 -0.1753  0.4781
13963SOL    HW143052   0.921   8.242   5.359  2.4484 -0.0959 -0.5275
13963SOL    HW243053   1.017   8.253   5.476  1.8262 -1.3194  0.1152
13964SOL     OW43054   6.093   3.320   5.119  0.3358 -0.0694  0.3340
13964SOL    HW143055   6.010   3.280   5.148  0.2124  0.2274  0.3927
13964SOL    HW243056   6.146   3.324   5.198  0.7419 -1.0681  0.1250
13965SOL     OW43057   2.055   8.322   3.122 -0.5401 -0.4119  0.2140
13965SOL    HW143058   2.053   8.417   3.111 -0.5362 -0.5330 -0.9937
13965SOL    HW243059   2.105   8.308   3.203  0.5412  0.5788 -0.2470
13966SOL     OW43060   3.597   2.152   4.193  0.1591 -0.0708 -0.2644
13966SOL    HW143061   3.668   2.088   4.187  1.0726  1.0450 -2.2002
13966SOL    HW243062   3.542   2.134   4.117  1.3919  2.4454 -1.8881
13967SOL     OW43063   0.225   5.667   1.780 -0.2353 -0.3267 -0.0235
13967SOL    HW143064   0.132   5.644   1.782 -0.0649 -0.9563  2.3937
13967SOL    HW243065   0.269   5.600   1.831  2.0029 -1.5378 -3.1902
13968SOL     OW43066   0.495   3.634   2.637  0.1215 -0.4735  0.5082
13968SOL    HW143067   0.413   3.612   2.681 -0.1073  0.1505  0.3984
13968SOL    HW243068   0.469   3.687   2.562  0.5830 -0.7472  0.1539
13969SOL     OW43069   2.305   6.157   2.367  0.0392  0.7318 -0.3551
13969SOL    HW143070   2.280   6.090   2.303 -1.6334 -1.8142  2.7050
13969SOL    HW243071   2.400   6.161   2.361  0.0523 -0.7260 -1.7585
13970SOL     OW43072   6.962   1.099   3.416  0.6133 -0.6205  0.3168
13970SOL    HW143073   7.026   1.125   3.350  0.3087 -1.5638 -0.3663
13970SOL    HW243074   7.014   1.053   3.483  0.8005 -0.4395  0.2944
13971SOL     OW43075   3.152   1.621   2.153 -0.3042 -0.0201  0.3026
13971SOL    HW143076   3.085   1.632   2.220 -1.5267 -0.9272 -0.7128
13971SOL    HW243077   3.194   1.537   2.173 -0.4808 -0.1580  0.1013
13972SOL     OW43078   8.431   4.439   6.559  0.1008 -0.1726 -0.5531
13972SOL    HW143079   8.344   4.462   6.592  0.0461  0.6948 -1.2716
13972SOL    HW243080   8.414   4.405   6.471  0.3513 -1.4697 -0.1238
13973SOL     OW43081   2.736   7.500   5.202 -0.3779  0.2486  0.2106
13973SOL    HW143082   2.699   7.582   5.170 -0.9292  0.3307  1.0281
13973SOL    HW243083   2.676   7.472   5.271 -1.6685 -2.1551 -1.6975
13974SOL     OW43084   3.107   0.449   4.466 -0.6018 -0.3948 -0.0509
13974SOL    HW143085   3.067   0.380   4.412 -0.9132  0.7645 -1.3860
13974SOL    HW243086   3.074   0.531   4.427 -1.1477  0.5112  2.1692
13975SOL     OW43087   0.669   3.878   7.470  0.5005 -0.5531  0.0390
13975SOL    HW143088   0.746   3.854   7.419  0.2950 -0.5010 -0.3047
13975SOL    HW243089   0.687   3.967   7.501  0.6117 -0.5720  0.0281
13976SOL     OW43090   1.399   1.880   0.982  0.1499 -0.4449  0.5176
13976SOL    HW143091   1.455   1.840   0.915 -0.3155 -1.4370  0.7117
13976SOL    HW243092   1.392   1.972   0.955 -2.1614 -1.3191 -2.3342
13977SOL     OW43093   4.887   2.263   5.386  0.6699  0.2423 -0.0355
13977SOL    HW143094   4.980   2.245   5.389  0.5329 -1.0136  4.4603
13977SOL    HW243095   4.847   2.183   5.353  1.0911  0.5639 -1.3786
13978SOL     OW43096   0.182   7.586   8.097  0.4122  0.4991 -0.0585
13978SOL    HW143097   0.258   7.611   8.149 -0.3833  1.1102  0.8328
13978SOL    HW243098   0.191   7.635   8.015  1.4655 -0.1715 -0.3669
13979SOL     OW43099   7.926   2.394   7.602  0.1962 -0.0609  0.3503
13979SOL    HW143100   7.874   2.379   7.523  0.0166  2.5484 -0.1293
13979SOL    HW243101   7.881   2.467   7.646  1.0428 -0.5909  2.2020
13980SOL     OW43102   5.306   1.258   1.462 -0.4494  0.6781  0.3500
13980SOL    HW143103   5.220   1.286   1.492 -1.5094 -0.4967 -1.4007
13980SOL    HW243104   5.305   1.163   1.470  0.6731  0.6334  0.2307
13981SOL     OW43105   5.920   3.745   1.151  0.5104  0.1960 -0.0056
13981SOL    HW143106   5.997   3.688   1.144  0.8804  0.8927 -2.4426
13981SOL    HW243107   5.846   3.689   1.127  0.5243  0.0578  0.2717
13982SOL     OW43108   7.798   0.679   2.196 -0.1482 -0.3542  0.6278
13982SOL    HW143109   7.807   0.756   2.141  0.2320  1.1055  2.6252
13982SOL    HW243110   7.878   0.628   2.181  0.5300  0.6531  0.7745
13983SOL     OW43111   1.245   7.408   3.335  0.2866 -0.2153  0.4229
13983SOL    HW143112   1.252   7.318   3.369  0.7660 -0.2249  0.3070
13983SOL    HW243113   1.335   7.431   3.311 -0.2585 -0.9144 -2.6624
13984SOL     OW43114   1.446   2.482   0.938  0.4560  0.7584  0.4534
13984SOL    HW143115   1.465   2.391   0.916 -2.0559  0.0493  0.9491
13984SOL    HW243116   1.498   2.500   1.017  2.1278  0.2979 -0.4825
13985SOL     OW43117   1.566   0.232   7.022  0.1732 -0.1111  0.4038
13985SOL    HW143118   1.547   0.267   7.109  0.4769 -0.3334  0.5615
13985SOL    HW243119   1.654   0.263   7.002 -0.3953  1.0532 -0.3970
13986SOL     OW43120   2.394   1.764   6.360 -0.4380 -0.6365 -0.2939
13986SOL    HW143121   2.317   1.711   6.338 -0.2575 -1.4802  1.0392
13986SOL    HW243122   2.462   1.700   6.382  0.2643  0.1233 -0.2149
13987SOL     OW43123   2.212   8.597   7.657 -0.0636 -0.5297 -0.0236
13987SOL    HW143124   2.254   8.526   7.607  1.1206 -0.5985  1.0175
13987SOL    HW243125   2.186   8.556   7.740 -1.6114 -0.3108 -0.3744
13988SOL     OW43126   8.353   5.775   0.626  0.0922  0.3456  0.2891
13988SOL    HW143127   8.447   5.794   0.637  0.8455 -2.3855 -0.5210
13988SOL    HW243128   8.337   5.789   0.533  0.3237 -1.3906 -0.0400
13989SOL     OW43129   4.910   7.591   7.920  0.6950  0.4357 -0.2085
13989SOL    HW143130   4.982   7.552   7.968  1.7344  2.5255  0.0796
13989SOL    HW243131   4.900   7.678   7.959 -2.4570 -0.0028  0.1996
13990SOL     OW43132   4.455   3.754   3.688 -0.1561  0.0702 -0.0771
13990SOL    HW143133   4.472   3.833   3.636  1.6480 -0.1172  0.1730
13990SOL    HW243134   4.504   3.768   3.769 -0.8214 -0.7963  0.4975
13991SOL     OW43135   0.606   0.645   2.074  0.8370 -0.0576 -0.6519
13991SOL    HW143136   0.543   0.631   2.004  0.2654 -1.3968  0.0973
13991SOL    HW243137   0.554   0.677   2.147  1.4243  1.3002 -0.7971
13992SOL     OW43138   3.230   3.480   0.802  0.3110 -0.0971 -0.0605
13992SOL    HW143139   3.186   3.526   0.874 -0.4493 -1.4659  0.3934
13992SOL    HW243140   3.240   3.546   0.734 -1.6836  0.5047  0.1611
13993SOL     OW43141   4.902   8.717   1.782 -0.1019 -0.0232  0.2366
13993SOL    HW143142   4.921   8.789   1.843 -1.3040  1.0521 -0.6228
13993SOL    HW243143   4.807   8.706   1.785  0.0231 -1.3316  0.0577
13994SOL     OW43144   1.621   0.768   3.957  0.3470 -0.0706 -0.4183
13994SOL    HW143145   1.678   0.829   4.004  1.3495 -0.4624 -1.1015
13994SOL    HW243146   1.675   0.733   3.887  0.0863 -2.4269  0.4842
13995SOL     OW43147   0.615   1.931   5.203  0.3433 -0.6056 -0.2692
13995SOL    HW143148   0.618   1.844   5.243  0.2381 -1.3618 -1.8295
13995SOL    HW243149   0.540   1.927   5.143  0.8267  0.2866 -0.9573
13996SOL     OW43150   4.890   7.692   5.805  0.6031  0.2823 -0.0556
13996SOL    HW143151   4.845   7.615   5.840  0.3579 -0.6919 -2.3256
13996SOL    HW243152   4.879   7.759   5.873  1.9724 -2.0007  2.6139
13997SOL     OW43153   3.562   3.098   1.136 -0.0553  0.7611  0.5091
13997SOL    HW143154   3.531   3.175   1.088  1.4340  0.0754 -1.7039
13997SOL    HW243155   3.647   3.125   1.171 -0.1706  0.5648  0.9427
13998SOL     OW43156   5.532   6.560   2.906  0.3661 -0.2884  0.1373
13998SOL    HW143157   5.578   6.509   2.840 -0.5997 -1.4119  0.2918
13998SOL    HW243158   5.584   6.549   2.986  0.0222 -1.2772  0.2348
13999SOL     OW43159   7.977   4.359   6.169  0.6820 -0.0904 -0.1622
13999SOL    HW143160   7.954   4.395   6.084  0.3539 -0.5656 -0.2775
13999SOL    HW243161   7.982   4.435   6.227 -1.8694 -0.0048  0.0269
14000SOL     OW43162   3.585   2.367   2.465  0.1916 -0.1059 -0.6420
14000SOL    HW143163   3.572   2.437   2.529  0.3589 -0.0975 -0.6171
14000SOL    HW243164   3.671   2.385   2.428  0.8046 -1.0392  0.2796
14001SOL     OW43165   8.140   6.457   3.223 -0.5161  0.0794 -0.2473
14001SOL    HW143166   8.070   6.394   3.238 -0.1025 -0.2889  0.1883
14001SOL    HW243167   8.149   6.463   3.128 -1.0268  0.0111 -0.2977
14002SOL     OW43168   1.413   7.385   4.201  0.1697 -0.0822  0.3462
14002SOL    HW143169   1.463   7.388   4.119  0.6567  1.2506  0.6722
14002SOL    HW243170   1.339   7.328   4.181 -0.6100  1.4490 -1.5552
14003SOL     OW43171   3.257   2.021   5.027  0.7268  0.0962 -0.0046
14003SOL    HW143172   3.184   2.048   4.971  0.9991 -0.3128 -0.5594
14003SOL    HW243173   3.335   2.055   4.983  0.9621 -0.4288 -0.0003
14004SOL     OW43174   0.357   3.539   2.053  0.5026 -0.1144 -0.0404
14004SOL    HW143175   0.329   3.621   2.012 -1.1502 -1.2134 -1.1992
14004SOL    HW243176   0.376   3.564   2.144 -1.1200  1.3466 -0.0440
14005SOL     OW43177   7.705   6.947   7.450  0.0787 -0.0409 -0.0110
14005SOL    HW143178   7.789   6.954   7.495  0.8052 -1.1774 -1.1058
14005SOL    HW243179   7.650   7.015   7.489  1.2962  0.2885  1.1766
14006SOL     OW43180   2.184   6.855   1.187 -0.6659 -0.3973 -0.2384
14006SOL    HW143181   2.279   6.866   1.179 -0.3497 -3.3852 -2.6556
14006SOL    HW243182   2.170   6.830   1.278  0.6848  1.0821  0.4214
14007SOL     OW43183   4.170   6.641   8.361  0.2911 -0.2734  0.3531
14007SOL    HW143184   4.125   6.561   8.387 -1.2142 -0.9410 -3.4993
14007SOL    HW243185   4.099   6.705   8.348  1.0751  0.5176 -0.1497
14008SOL     OW43186   6.166   2.147   3.600  0.3154  0.2190  0.1459
14008SOL    HW143187   6.120   2.217   3.553 -1.1499  0.1424  1.3931
14008SOL    HW243188   6.255   2.148   3.564  0.1754  2.3592 -0.2388
14009SOL     OW43189   0.444   3.745   1.596 -0.9979  0.7838  0.0087
14009SOL    HW143190   0.538   3.732   1.580 -1.0817  0.0152  0.0785
14009SOL    HW243191   0.406   3.757   1.509 -0.8253  1.1686 -0.0139
14010SOL     OW43192   0.292   2.275   3.250  0.8358  0.1975 -0.2975
14010SOL    HW143193   0.239   2.269   3.170  1.5006  0.0349 -0.7274
14010SOL    HW243194   0.378   2.302   3.220  1.5110 -1.3158  0.1993
14011SOL     OW43195   6.118   6.369   1.046 -0.4870  0.3013  0.8198
14011SOL    HW143196   6.103   6.464   1.042  0.0467  0.3873  0.7923
14011SOL    HW243197   6.180   6.352   0.975 -1.3460 -0.2262  0.1779
14012SOL     OW43198   1.280   4.955   5.837  0.1928  0.3691  0.1106
14012SOL    HW143199   1.191   4.936   5.806  0.4636 -0.1591 -0.3438
14012SOL    HW243200   1.269   4.973   5.930 -0.3254 -0.1711  0.1574
14013SOL     OW43201   3.793   5.501   4.489 -0.2370  0.2138  0.1722
14013SOL    HW143202   3.872   5.505   4.543 -1.1239 -2.8294  1.9839
14013SOL    HW243203   3.816   5.443   4.417 -0.3771  0.5603 -0.1510
14014SOL     OW43204   3.475   7.774   3.787 -0.2004 -0.4932 -0.5035
14014SOL    HW143205   3.398   7.792   3.733 -0.5767 -1.1359 -0.1950
14014SOL    HW243206   3.475   7.845   3.851 -0.1080 -0.0763 -0.9588
14015SOL     OW43207   0.360   7.083   8.793  0.3229  0.1290  0.2888
14015SOL    HW143208   0.420   7.158   8.795 -2.8184  3.0970 -2.3032
14015SOL    HW243209   0.382   7.038   8.711  1.3263 -1.0325  1.1737
14016SOL     OW43210   6.761   6.147   7.550 -0.4706  1.0268 -0.2924
14016SOL    HW143211   6.707   6.070   7.565  1.2670 -0.1073  0.4973
14016SOL    HW243212   6.840   6.113   7.507  0.9075  2.1270  1.2309
14017SOL     OW43213   6.706   8.639   1.983  0.0809  0.5222  0.6264
14017SOL    HW143214   6.651   8.648   2.061  0.0872  0.0356  0.6895
14017SOL    HW243215   6.767   8.713   1.987  0.7761 -0.0925  1.6418
14018SOL     OW43216   8.129   2.414   8.370 -0.1065 -0.2063  0.1477
14018SOL    HW143217   8.156   2.499   8.407 -1.4702  0.7184 -0.8947
14018SOL    HW243218   8.046   2.395   8.412  0.6324 -1.5449  1.0801
14019SOL     OW43219   4.785   7.583   4.944 -0.0713 -0.4603 -0.3657
14019SOL    HW143220   4.783   7.649   5.012  0.6725 -0.6649 -0.1257
14019SOL    HW243221   4.713   7.605   4.885 -2.1301 -1.5496  1.6381
14020SOL     OW43222   7.500   0.994   6.015 -0.0724 -0.0752 -0.0035
14020SOL    HW143223   7.480   1.032   5.929 -1.4998 -1.9328 -0.5556
14020SOL    HW243224   7.415   0.981   6.056  0.6378  2.1692  2.4114
14021SOL     OW43225   6.106   2.242   8.726 -0.5408  0.0931  0.6102
14021SOL    HW143226   6.180   2.254   8.784 -0.1131  3.0726 -0.3946
14021SOL    HW243227   6.139   2.263   8.639 -1.6895 -2.1656 -0.4711
14022SOL     OW43228   6.969   7.895   4.745  0.4062 -0.0831  0.2818
14022SOL    HW143229   6.876   7.915   4.757 -0.0534 -1.7946 -0.1992
14022SOL    HW243230   6.970   7.824   4.681  2.2407  2.0597 -2.2767
14023SOL     OW43231   7.262   6.019   0.232  0.0106 -0.2246 -0.6944
14023SOL    HW143232   7.351   5.989   0.212 -0.9273 -2.7410 -1.3816
14023SOL    HW243233   7.219   6.027   0.147 -0.2391  1.7797 -0.4255
14024SOL     OW43234   5.350   2.819   7.652  0.8305  0.2945 -0.3432
14024SOL    HW143235   5.381   2.754   7.715 -1.9818  0.3786  1.3280
14024SOL    HW243236   5.277   2.775   7.606  0.5808  1.4005 -1.0480
14025SOL     OW43237   5.382   7.442   4.546  1.1377 -0.3422  0.4379
14025SOL    HW143238   5.325   7.369   4.570  0.7064  0.3675  1.6980
14025SOL    HW243239   5.454   7.437   4.609  0.0185  1.5305  1.9911
14026SOL     OW43240   1.201   3.539   5.584  0.2720  0.3762  0.0237
14026SOL    HW143241   1.272   3.475   5.578  0.5236  0.2704  2.7490
14026SOL    HW243242   1.245   3.621   5.605 -0.3169  0.5182  0.7482
14027SOL     OW43243   5.617   7.659   1.436  0.1294 -0.3492  0.0894
14027SOL    HW143244   5.525   7.650   1.413  0.5338 -1.2644 -1.2841
14027SOL    HW243245   5.617   7.668   1.531 -1.4541  1.1313 -0.0135
14028SOL     OW43246   3.796   7.685   4.288  0.0061 -0.3032  0.0500
14028SOL    HW143247   3.883   7.721   4.267  0.1271  0.3885  1.5879
14028SOL    HW243248   3.737   7.728   4.226  0.6109  0.0532 -0.2908
14029SOL     OW43249   1.744   5.090   6.207 -0.1254 -0.4758  0.4037
14029SOL    HW143250   1.748   5.126   6.119 -0.1596  0.0771  0.6221
14029SOL    HW243251   1.691   5.011   6.199 -0.6929 -0.0671  0.0439
14030SOL     OW43252   6.319   7.136   1.479  0.3796 -0.6650 -0.4838
14030SOL    HW143253   6.228   7.158   1.455  0.0934  0.9938  1.7895
14030SOL    HW243254   6.354   7.218   1.514  2.1937 -1.7432  0.3083
14031SOL     OW43255   7.525   1.805   8.056 -0.3768  0.0449  0.1291
14031SOL    HW143256   7.534   1.724   8.106 -0.4480 -0.2971 -0.3922
14031SOL    HW243257   7.550   1.780   7.967 -1.0040  0.4405 -0.1667
14032SOL     OW43258   8.241   6.997   5.320  0.0104 -0.4349 -0.3963
14032SOL    HW143259   8.189   7.066   5.278  1.4227 -0.3923 -2.2090
14032SOL    HW243260   8.228   6.920   5.266 -0.3643 -1.2071  0.7579
14033SOL     OW43261   5.983   4.155   5.793  0.1084  0.3615  0.2516
14033SOL    HW143262   5.929   4.151   5.873  3.1235  0.1517  2.4545
14033SOL    HW243263   6.018   4.066   5.783  2.5951  1.1795  0.9133
14034SOL     OW43264   6.156   8.389   1.221  0.2867  0.2644  0.0261
14034SOL    HW143265   6.181   8.475   1.186 -0.2708  0.6416  0.5163
14034SOL    HW243266   6.203   8.326   1.167  0.2501  0.8590 -0.7143
14035SOL     OW43267   3.022   6.298   2.354 -0.3899 -0.2471 -0.5570
14035SOL    HW143268   3.095   6.237   2.344  1.3767  1.6832 -0.2306
14035SOL    HW243269   2.976   6.294   2.270  0.2691 -1.2595 -0.8949
14036SOL     OW43270   7.245   5.316   0.320 -0.4163  0.6846  0.1000
14036SOL    HW143271   7.321   5.370   0.342  0.0609  0.1331 -0.1617
14036SOL    HW243272   7.275   5.226   0.333 -1.6652  0.4940  2.0455
14037SOL     OW43273   1.054   1.581   6.806  0.5082  0.5944 -0.0653
14037SOL    HW143274   1.005   1.634   6.868 -0.2058 -0.4885  0.3269
14037SOL    HW243275   1.139   1.624   6.800 -0.4991  2.6337 -0.8963
14038SOL     OW43276   4.612   2.104   3.544 -0.0503  0.2475  0.1876
14038SOL    HW143277   4.656   2.097   3.459 -0.6227 -0.2175 -0.0810
14038SOL    HW243278   4.526   2.063   3.530  0.3700 -1.1139  1.3656
14039SOL     OW43279   5.868   1.239   0.081 -0.4410  0.4011 -0.5485
14039SOL    HW143280   5.854   1.295   0.004 -2.0996  0.2836 -0.3540
14039SOL    HW243281   5.864   1.150   0.046  0.0851  0.3659 -0.5220
14040SOL     OW43282   1.075   4.082   2.774  0.3332  0.2066  0.3780
14040SOL    HW143283   1.037   4.159   2.733 -1.3886 -0.6468  0.2755
14040SOL    HW243284   1.124   4.039   2.704 -1.3161 -0.4288 -0.4451
14041SOL     OW43285   0.953   3.696   1.637  0.3727 -0.3791 -0.5181
14041SOL    HW143286   0.930   3.728   1.724 -0.6305 -1.6228 -0.3035
14041SOL    HW243287   1.007   3.766   1.600  2.7305 -0.6970  1.9142
14042SOL     OW43288   5.079   2.659   7.037 -0.3799 -0.0439 -0.0705
14042SOL    HW143289   5.029   2.598   6.982  0.2617  0.8209 -1.7104
14042SOL    HW243290   5.118   2.720   6.974 -0.8920  1.9920  1.4858
14043SOL     OW43291   6.196   6.285   6.153 -0.5000 -0.2043  0.3912
14043SOL    HW143292   6.170   6.262   6.064 -1.5465 -0.5740  0.7723
14043SOL    HW243293   6.149   6.366   6.171 -0.7656 -0.4427  0.7980
14044SOL     OW43294   8.506   5.094   1.401 -0.1811 -0.3196  0.7211
14044SOL    HW143295   8.499   5.033   1.328  1.8111  0.6812 -0.3998
14044SOL    HW243296   8.416   5.103   1.434 -1.3111 -0.2520 -2.0875
14045SOL     OW43297   8.038   4.685   0.080  0.1173 -0.4049  0.1313
14045SOL    HW143298   7.952   4.703   0.118  0.9098  1.6548  1.0811
14045SOL    HW243299   8.100   4.735   0.134  1.6510  0.1868 -2.0224
14046SOL     OW43300   1.584   7.785   2.789 -0.6243  0.0376 -0.5011
14046SOL    HW143301   1.574   7.817   2.699  2.4586 -0.5806 -1.1535
14046SOL    HW243302   1.641   7.709   2.782 -0.2141  0.0189  2.0199
14047SOL     OW43303   2.663   3.208   0.992  0.4968  0.4675  0.6393
14047SOL    HW143304   2.627   3.217   0.904  1.4060 -0.0785  0.1917
14047SOL    HW243305   2.673   3.298   1.024 -0.4966  0.6445  0.4716
14048SOL     OW43306   7.865   4.028   5.841 -0.6435  0.0618 -0.0814
14048SOL    HW143307   7.884   4.120   5.821 -0.4006 -0.0302 -0.2654
14048SOL    HW243308   7.849   4.028   5.936 -0.7407  0.3087 -0.0948
14049SOL     OW43309   5.136   4.511   6.891 -0.1091  0.4497  0.2275
14049SOL    HW143310   5.168   4.435   6.844 -0.4685  1.5444 -1.9057
14049SOL    HW243311   5.170   4.501   6.980  2.2705 -0.7274 -0.7311
14050SOL     OW43312   4.800   8.578   7.494  0.0615 -0.1570 -0.3935
14050SOL    HW143313   4.816   8.649   7.432  0.2328  0.7562  0.6654
14050SOL    HW243314   4.886   8.561   7.533 -0.0818 -0.5801 -0.2592
14051SOL     OW43315   7.412   7.891   7.056 -0.3249  0.3505 -0.0274
14051SOL    HW143316   7.460   7.809   7.039  0.3066  0.6488  0.2802
14051SOL    HW243317   7.349   7.867   7.124  1.9344  0.7834  2.4027
14052SOL     OW43318   0.213   7.571   5.045  0.4195 -0.1762  0.5565
14052SOL    HW143319   0.207   7.661   5.015 -1.3372 -0.4629 -0.0477
14052SOL    HW243320   0.306   7.549   5.038  0.4297  0.4354 -2.8143
14053SOL     OW43321   3.990   7.607   5.135  0.2252  0.4983  0.3453
14053SOL    HW143322   4.073   7.593   5.090  2.2690  0.5886  3.7521
14053SOL    HW243323   3.959   7.520   5.158  1.6362  0.5216  2.6410
14054SOL     OW43324   0.221   2.427   2.082 -0.2315  0.3036 -0.1762
14054SOL    HW143325   0.229   2.522   2.083 -1.9621  0.5179 -1.5659
14054SOL    HW243326   0.270   2.399   2.004  0.4949  0.0204  0.3759
14055SOL     OW43327   4.042   4.064   0.993 -0.2433  0.1869 -0.2966
14055SOL    HW143328   4.078   3.976   1.004 -1.1011 -0.3347 -1.4250
14055SOL    HW243329   3.955   4.060   1.033  0.0335  0.7787  0.3885
14056SOL     OW43330   8.363   0.597   5.658 -0.3325  0.2913 -0.3225
14056SOL    HW143331   8.305   0.548   5.599  0.5603 -0.9407 -0.2186
14056SOL    HW243332   8.338   0.568   5.746  0.6874 -0.5878 -0.2942
14057SOL     OW43333   8.304   3.830   2.921  0.1737  0.5875  0.1641
14057SOL    HW143334   8.238   3.836   2.852 -0.2121  1.5540  0.5983
14057SOL    HW243335   8.255   3.805   2.999  0.3744  0.9703  0.4143
14058SOL     OW43336   2.923   2.174   4.227  0.5680 -0.7402  0.5956
14058SOL    HW143337   2.860   2.152   4.296 -0.4613  0.7658  0.1994
14058SOL    HW243338   3.005   2.133   4.255 -0.6900 -3.2371  0.8446
14059SOL     OW43339   7.489   0.372   5.446  0.0639 -0.2209 -0.0196
14059SOL    HW143340   7.573   0.418   5.453 -0.3831  0.5506  0.4754
14059SOL    HW243341   7.435   0.411   5.515 -0.8272 -0.4392 -0.5874
14060SOL     OW43342   2.417   0.128   5.909 -0.2260  0.0274 -0.0664
14060SOL    HW143343   2.406   0.154   5.817 -0.9333  3.8871  0.9596
14060SOL    HW243344   2.333   0.149   5.950  0.3505 -0.8243  1.6658
14061SOL     OW43345   5.353   8.196   6.411  0.3560  0.0023  0.0005
14061SOL    HW143346   5.362   8.114   6.460  0.2133 -0.3039 -0.4804
14061SOL    HW243347   5.423   8.192   6.345 -0.2707 -0.1843 -0.6584
14062SOL     OW43348   3.369   6.350   5.787  0.3540  0.5456  0.3341
14062SOL    HW143349   3.384   6.368   5.694 -1.1524  0.9650  0.1519
14062SOL    HW243350   3.456   6.329   5.821  0.7591 -0.9552 -1.4556
14063SOL     OW43351   6.536   8.457   5.317  0.2899  0.2785 -0.3076
14063SOL    HW143352   6.595   8.530   5.299 -0.8212  1.1907 -0.4040
14063SOL    HW243353   6.561   8.389   5.255  2.1782  0.0612  0.6124
14064SOL     OW43354   5.526   7.600   0.326 -0.3511  0.1204  0.2350
14064SOL    HW143355   5.597   7.661   0.306  0.3391 -0.7424  0.0004
14064SOL    HW243356   5.446   7.647   0.303 -0.1473  2.3266  3.3050
14065SOL     OW43357   7.724   6.267   6.197  0.2008 -0.2984 -0.1651
14065SOL    HW143358   7.667   6.271   6.120  0.9442  2.5520 -0.6865
14065SOL    HW243359   7.804   6.227   6.165  0.3100  0.3805 -0.7718
14066SOL     OW43360   7.276   3.375   5.433 -0.3788  0.0197 -0.3694
14066SOL    HW143361   7.223   3.341   5.361 -1.1077  1.4623 -0.5390
14066SOL    HW243362   7.303   3.462   5.404 -0.2824  0.4336  0.9082
14067SOL     OW43363   4.812   8.294   1.137  0.3001 -0.2072 -0.3319
14067SOL    HW143364   4.849   8.336   1.060 -0.9331 -0.8769 -1.3316
14067SOL    HW243365   4.845   8.205   1.135 -0.5048 -0.5088 -0.6515
14068SOL     OW43366   0.998   3.688   8.488  0.1264  0.0365  0.0259
14068SOL    HW143367   0.979   3.651   8.402 -0.6517 -1.3867  0.7599
14068SOL    HW243368   0.939   3.762   8.497 -0.0615 -0.0483 -0.5185
14069SOL     OW43369   6.365   1.495   3.474  0.0879  0.0400 -0.8738
14069SOL    HW143370   6.306   1.434   3.519  2.4709 -0.8547  1.2747
14069SOL    HW243371   6.367   1.573   3.530 -1.3337  1.3426 -2.5334
14070SOL     OW43372   7.293   7.151   7.723  0.3145 -0.4733 -0.3701
14070SOL    HW143373   7.291   7.136   7.628  1.1833  0.2656 -0.5218
14070SOL    HW243374   7.205   7.182   7.744  0.3015 -0.0029 -1.0558
14071SOL     OW43375   5.057   7.435   5.463  0.1500 -0.3649 -0.1746
14071SOL    HW143376   5.147   7.405   5.476  0.7238  0.6144 -1.5549
14071SOL    HW243377   5.047   7.439   5.368 -1.9848 -2.1754 -0.1199
14072SOL     OW43378   5.845   8.232   2.334 -0.3167 -0.2517  0.3153
14072SOL    HW143379   5.884   8.186   2.409 -2.6807 -0.0166  1.8115
14072SOL    HW243380   5.864   8.176   2.259  1.9669 -0.5984  1.0766
14073SOL     OW43381   7.168   1.067   1.345  0.3602  0.1380 -0.0293
14073SOL    HW143382   7.145   1.118   1.268 -0.3449 -1.5244 -0.9672
14073SOL    HW243383   7.116   0.987   1.338  1.8006 -0.9601  1.1057
14074SOL     OW43384   8.727   2.915   6.401  0.1997 -0.1687 -0.1570
14074SOL    HW143385   8.700   2.829   6.368 -0.9164  0.0302  0.1765
14074SOL    HW243386   8.814   2.929   6.363 -0.3857 -0.6222 -1.7675
14075SOL     OW43387   8.419   0.568   4.381  0.7219 -0.0759  0.1540
14075SOL    HW143388   8.422   0.653   4.335  0.3853 -0.7612 -1.1909
14075SOL    HW243389   8.326   0.553   4.395  0.7164 -0.6659 -0.4857
14076SOL     OW43390   5.059   2.297   7.358  0.0437 -0.4609  0.3356
14076SOL    HW143391   5.019   2.218   7.322 -0.5455 -0.7701  1.6101
14076SOL    HW243392   5.151   2.274   7.371 -0.0504 -0.8149  0.3708
14077SOL     OW43393   1.282   1.810   5.039 -0.3145  0.5385  0.0895
14077SOL    HW143394   1.296   1.819   4.945 -2.3192  0.0775 -0.2970
14077SOL    HW243395   1.188   1.796   5.048  0.0076 -0.7768  2.0614
14078SOL     OW43396   5.386   3.759   8.165 -0.6511  0.0227  0.5896
14078SOL    HW143397   5.452   3.751   8.234  0.6325 -0.1133 -0.6137
14078SOL    HW243398   5.376   3.671   8.130 -0.4904  0.2806 -0.1173
14079SOL     OW43399   4.684   1.211   3.409 -0.5977  0.3639 -0.0716
14079SOL    HW143400   4.757   1.157   3.381  0.1803  1.8452 -1.0322
14079SOL    HW243401   4.720   1.300   3.415 -2.1466  1.0172  0.1302
14080SOL     OW43402   3.359   1.927   8.281 -0.1393  0.2662 -0.3344
14080SOL    HW143403   3.353   1.944   8.375 -1.9170 -0.9135 -0.2026
14080SOL    HW243404   3.453   1.929   8.264  0.1839  1.7448  1.1981
14081SOL     OW43405   1.170   0.002   4.981  0.2932  0.4248 -0.0950
14081SOL    HW143406   1.254  -0.018   4.941 -0.4998 -0.1112 -1.5432
14081SOL    HW243407   1.192   0.030   5.070  1.9405 -0.3448 -0.2323
14082SOL     OW43408   3.351   6.203   1.751 -0.3171 -0.0283  0.3631
14082SOL    HW143409   3.433   6.173   1.790  0.3488  0.7373 -0.4255
14082SOL    HW243410   3.359   6.298   1.748 -2.0816  0.2210  2.1224
14083SOL     OW43411   2.707   6.928   1.796 -0.3316 -0.0359 -0.1835
14083SOL    HW143412   2.622   6.909   1.757 -0.8503 -0.0168  0.8848
14083SOL    HW243413   2.756   6.846   1.792 -0.5135 -0.1248 -0.5406
14084SOL     OW43414   2.113   1.756   4.665 -0.1896 -0.5201 -0.1156
14084SOL    HW143415   2.122   1.661   4.665 -1.5062 -0.6921 -1.4705
14084SOL    HW243416   2.042   1.774   4.727  0.4474 -0.3688  0.5707
14085SOL     OW43417   5.973   8.544   4.701 -0.5979  0.1530 -0.4646
14085SOL    HW143418   5.901   8.598   4.735  0.6051  2.4519 -1.3708
14085SOL    HW243419   5.979   8.568   4.609  0.3711 -1.1722 -0.7772
14086SOL     OW43420   4.239   7.681   7.102  0.5208 -0.3813 -0.6236
14086SOL    HW143421   4.259   7.725   7.184  3.2410 -2.0790 -0.2579
14086SOL    HW243422   4.217   7.592   7.127 -1.0387 -0.3103 -1.6134
14087SOL     OW43423   1.640   2.151   7.586 -0.2637  0.7682  0.0775
14087SOL    HW143424   1.613   2.177   7.498 -2.2074  0.0893  0.4134
14087SOL    HW243425   1.562   2.165   7.640 -0.1628 -1.7715  1.0428
14088SOL     OW43426   6.595   8.506   5.020  1.4011 -0.0592  0.0380
14088SOL    HW143427   6.544   8.429   4.996  0.0745 -0.0350  2.4752
14088SOL    HW243428   6.632   8.537   4.937  2.3532 -3.4980 -0.9942
14089SOL     OW43429   2.856   6.253   4.464  0.0114 -0.0926 -0.0626
14089SOL    HW143430   2.792   6.262   4.535  0.6082 -0.7605  0.5733
14089SOL    HW243431   2.930   6.307   4.492  0.9427 -1.6851  0.6563
14090SOL     OW43432   3.510   5.282   3.643 -0.2074  0.0509 -0.1033
14090SOL    HW143433   3.428   5.264   3.690 -0.2330 -1.4542 -0.6688
14090SOL    HW243434   3.555   5.347   3.697 -0.3480 -1.4281  1.9106
14091SOL     OW43435   6.072   3.084   0.089 -0.5130 -0.1805  0.3370
14091SOL    HW143436   6.017   3.018   0.046 -1.6818  0.7869  0.2796
14091SOL    HW243437   6.037   3.168   0.058  1.4061  0.4913 -0.1798
14092SOL     OW43438   4.123   4.545   0.831 -0.4214  0.4496 -0.0114
14092SOL    HW143439   4.128   4.489   0.909 -1.0345  0.0834 -0.2257
14092SOL    HW243440   4.048   4.602   0.847 -1.3221 -0.4514 -0.8478
14093SOL     OW43441   3.375   1.283   2.891 -0.2158  0.0663 -0.1416
14093SOL    HW143442   3.459   1.330   2.894 -0.1684 -0.0725  2.1986
14093SOL    HW243443   3.392   1.201   2.937 -1.7895  0.3380  0.9942
14094SOL     OW43444   4.787   7.282   7.369  0.2534  0.1462 -0.5916
14094SOL    HW143445   4.726   7.212   7.346  1.4506 -0.9973 -0.4196
14094SOL    HW243446   4.828   7.253   7.450  1.4447  0.6077 -1.0080
14095SOL     OW43447   7.643   0.822   2.381  0.0045  0.0422 -0.2681
14095SOL    HW143448   7.586   0.864   2.317  0.1396  0.4806 -0.1078
14095SOL    HW243449   7.701   0.766   2.330  1.8505  2.3285 -0.8448
14096SOL     OW43450   5.884   5.124   6.560  0.3055  0.2402 -0.5761
14096SOL    HW143451   5.938   5.166   6.627  1.3165 -0.2039 -1.0855
14096SOL    HW243452   5.795   5.132   6.592  0.7792 -0.1056  0.8991
14097SOL     OW43453   5.265   0.320   8.188  0.7598  0.5785  0.0024
14097SOL    HW143454   5.360   0.309   8.178  0.7516 -0.3113  0.8131
14097SOL    HW243455   5.227   0.270   8.116  0.8465 -1.4916  1.3235
14098SOL     OW43456   2.925   3.387   5.008 -0.1260  0.0596  0.0285
14098SOL    HW143457   2.951   3.413   4.920  0.8285 -0.4938  0.1308
14098SOL    HW243458   3.008   3.369   5.053 -0.6350 -3.1832 -0.0697
14099SOL     OW43459   6.261   0.033   3.638  0.6243  0.3225 -0.2255
14099SOL    HW143460   6.214   0.109   3.604  1.1623  0.6959 -0.1489
14099SOL    HW243461   6.248  -0.035   3.572  0.3396  0.5536 -0.4093
14100SOL     OW43462   0.244   1.029   6.793 -0.1247  0.8422  0.1905
14100SOL    HW143463   0.325   1.055   6.836  1.4712 -2.4801 -0.4940
14100SOL    HW243464   0.272   0.984   6.713 -2.6656  0.3152 -0.5072
14101SOL     OW43465   7.697   5.676   3.787  0.1011  0.6484  0.0243
14101SOL    HW143466   7.662   5.628   3.712 -0.1230 -0.7571  0.9879
14101SOL    HW243467   7.664   5.628   3.864  0.3897  1.9909  1.0236
14102SOL     OW43468   6.287   6.555   4.306  0.4412 -0.2403  0.1848
14102SOL    HW143469   6.304   6.631   4.361  1.1162 -0.7922  0.7634
14102SOL    HW243470   6.330   6.575   4.223 -0.0318  0.3220  0.0687
14103SOL     OW43471   1.667   5.187   8.350  0.0846  0.3089  0.4807
14103SOL    HW143472   1.641   5.248   8.419  2.3905  1.8501  0.0988
14103SOL    HW243473   1.589   5.134   8.334 -1.6573  2.3494  1.7002
14104SOL     OW43474   7.412   1.871   4.061 -0.3954 -0.1477  0.0625
14104SOL    HW143475   7.338   1.888   4.120 -2.2258  0.5724 -2.2711
14104SOL    HW243476   7.487   1.910   4.106 -1.8543  1.1981  1.4951
14105SOL     OW43477   3.249   0.677   3.249 -0.4930  0.3055 -0.2627
14105SOL    HW143478   3.189   0.692   3.175  0.9524  1.0131 -1.3492
14105SOL    HW243479   3.225   0.591   3.281 -1.4574  0.1591 -1.2794
14106SOL     OW43480   6.957   4.093   1.259  0.4891 -0.0209  0.6241
14106SOL    HW143481   6.901   4.051   1.324 -0.6123  0.0315 -0.2574
14106SOL    HW243482   6.951   4.186   1.279  0.2524 -0.0144  0.5213
14107SOL     OW43483   6.241   1.732   2.678  0.2436 -0.3422 -0.2138
14107SOL    HW143484   6.227   1.818   2.639 -1.9750 -1.1326 -1.3470
14107SOL    HW243485   6.274   1.750   2.766 -0.1808  1.6581 -0.4211
14108SOL     OW43486   1.426   0.404   8.425 -0.6333 -0.2088  0.0043
14108SOL    HW143487   1.476   0.327   8.399 -0.5695  0.0492 -0.6617
14108SOL    HW243488   1.360   0.371   8.485  0.3363 -0.5621  0.9140
14109SOL     OW43489   7.009   6.020   5.086  0.0708  0.0648 -0.1698
14109SOL    HW143490   7.040   6.053   5.170 -1.7685  0.3761  0.4467
14109SOL    HW243491   6.957   5.943   5.108 -0.0284 -0.1304 -1.0622
14110SOL     OW43492   0.091   6.580   5.951  0.1923  0.1985 -0.3299
14110SOL    HW143493   0.034   6.506   5.975 -1.1757  1.5240  0.6817
14110SOL    HW243494   0.070   6.598   5.860 -0.5788  0.2742 -0.1476
14111SOL     OW43495   0.803   6.421   3.102  0.5262 -0.5663 -0.4223
14111SOL    HW143496   0.755   6.388   3.026 -0.0944 -0.6408 -0.0070
14111SOL    HW243497   0.844   6.343   3.141  0.7989 -0.5363 -0.6458
14112SOL     OW43498   4.579   6.414   8.674 -0.1037  0.4015  0.2327
14112SOL    HW143499   4.509   6.373   8.622  1.6098 -2.4009 -0.0685
14112SOL    HW243500   4.536   6.489   8.716 -2.6215  0.3193 -1.8948
14113SOL     OW43501   0.890   1.301   0.152  0.3667  0.3365  0.0788
14113SOL    HW143502   0.835   1.252   0.091  1.3369 -1.3940  0.5162
14113SOL    HW243503   0.829   1.357   0.199 -0.8513 -0.5882 -0.3410
14114SOL     OW43504   4.480   3.132   5.597 -0.3912 -0.3345 -0.1739
14114SOL    HW143505   4.400   3.104   5.552 -0.3013  0.4468 -0.8275
14114SOL    HW243506   4.521   3.050   5.626 -1.8809 -0.7142  0.9828
14115SOL     OW43507   7.557   6.858   0.047  0.3667 -0.4168  0.0036
14115SOL    HW143508   7.562   6.769   0.012  0.2091 -0.1136 -0.8141
14115SOL    HW243509   7.464   6.879   0.046  0.2963 -0.6059  1.1649
14116SOL     OW43510   0.663   4.420   0.104 -0.2106  0.4668 -0.1862
14116SOL    HW143511   0.719   4.380   0.171 -0.7375  1.8470  1.1279
14116SOL    HW243512   0.575   4.416   0.141 -0.7154  0.1328 -1.3696
14117SOL     OW43513   2.202   3.509   5.056  0.4559 -0.2749  0.3595
14117SOL    HW143514   2.199   3.485   5.149 -1.6289 -0.6043  0.2658
14117SOL    HW243515   2.124   3.467   5.019  0.7720  0.5904 -1.3640
14118SOL     OW43516   8.467   7.354   7.656 -0.0442 -0.0980  0.3766
14118SOL    HW143517   8.556   7.340   7.624  0.9216 -1.3591  3.3637
14118SOL    HW243518   8.471   7.438   7.702 -0.7035  0.3460 -0.3493
14119SOL     OW43519   7.232   4.120   4.427 -0.4604 -0.0762  0.2307
14119SOL    HW143520   7.284   4.152   4.354  0.0977 -1.9364 -0.2383
14119SOL    HW243521   7.242   4.188   4.495  0.6833  0.6989 -0.6703
14120SOL     OW43522   3.046   8.422   3.552 -0.5550  0.2399 -0.0179
14120SOL    HW143523   3.096   8.448   3.475 -0.8435  1.1741  0.0994
14120SOL    HW243524   3.088   8.341   3.582  1.2065  1.2520  0.3713
14121SOL     OW43525   5.890   6.152   0.950  0.3581 -0.1132 -0.3401
14121SOL    HW143526   5.922   6.107   0.872 -0.6570  0.8864 -1.3774
14121SOL    HW243527   5.927   6.240   0.944  0.3216 -0.0412  0.3473
14122SOL     OW43528   5.624   7.511   1.998 -0.4712  0.7656 -0.2646
14122SOL    HW143529   5.660   7.425   1.980  0.8589  1.0116  0.9800
14122SOL    HW243530   5.561   7.496   2.069 -2.7719  0.3808 -2.2421
14123SOL     OW43531   2.524   5.151   0.540 -0.1613 -0.1112 -0.6195
14123SOL    HW143532   2.459   5.080   0.550 -1.1619  1.0875  2.2268
14123SOL    HW243533   2.605   5.105   0.519 -0.7077 -2.2061  1.3746
14124SOL     OW43534   5.778   8.648   0.949  0.6788  0.6950 -0.0158
14124SOL    HW143535   5.736   8.593   1.015  1.6680 -0.1423 -0.0436
14124SOL    HW243536   5.809   8.725   0.997  2.8969 -0.6728  0.9284
14125SOL     OW43537   1.783   5.024   1.221  0.0636  0.3886  0.2086
14125SOL    HW143538   1.858   4.966   1.206  0.3439  0.8811 -0.3405
14125SOL    HW243539   1.798   5.098   1.162 -1.0633  0.3073 -0.2039
14126SOL     OW43540   7.510   5.946   0.078 -0.0826  0.4289 -0.0966
14126SOL    HW143541   7.509   5.970  -0.014  2.4980 -1.7465 -0.8164
14126SOL    HW243542   7.500   5.851   0.078 -0.6699  0.4436  1.9195
14127SOL     OW43543   6.011   5.701   5.770 -0.0388 -0.3499  0.4513
14127SOL    HW143544   6.085   5.666   5.720 -0.6938 -0.5757 -0.3688
14127SOL    HW243545   6.018   5.658   5.855  2.2412  1.4832  1.3111
14128SOL     OW43546   2.454   1.837   5.555 -0.0107 -0.6793  0.1823
14128SOL    HW143547   2.385   1.903   5.546 -1.2522 -1.5982  2.1367
14128SOL    HW243548   2.514   1.854   5.483 -0.8213  1.9246  0.0225
14129SOL     OW43549   2.425   1.084   2.509 -0.0766  0.8111 -0.3008
14129SOL    HW143550   2.420   1.015   2.443 -0.4891 -0.1289  0.6834
14129SOL    HW243551   2.488   1.052   2.573  0.5965  1.8786 -0.3913
14130SOL     OW43552   2.372   3.865   4.902  0.1644 -0.2953  0.4530
14130SOL    HW143553   2.381   3.799   4.971 -1.0472 -0.5016  0.4294
14130SOL    HW243554   2.366   3.948   4.950  2.3564 -0.0716  0.4639
14131SOL     OW43555   8.778   8.365   0.218 -0.1214 -0.5637 -0.5393
14131SOL    HW143556   8.803   8.449   0.256 -0.1478 -1.4937  1.7384
14131SOL    HW243557   8.838   8.352   0.145  0.5035  1.0075 -0.3313
14132SOL     OW43558   0.788   3.119   7.284 -0.5034  0.1266 -0.1823
14132SOL    HW143559   0.842   3.198   7.282 -1.4005  0.8171  1.0114
14132SOL    HW243560   0.799   3.080   7.197  0.4128  1.2536 -0.6052
14133SOL     OW43561   1.611   3.954   5.370  0.1734  0.2252 -0.6231
14133SOL    HW143562   1.531   3.900   5.365 -1.0806  2.0749 -2.3467
14133SOL    HW243563   1.654   3.941   5.286  2.4353 -1.6702  0.7146
14134SOL     OW43564   2.441   5.442   8.082  0.3409 -1.0557 -0.1984
14134SOL    HW143565   2.522   5.430   8.033  0.2425 -1.3976 -0.2829
14134SOL    HW243566   2.453   5.390   8.162  0.5304 -0.4399  0.1760
14135SOL     OW43567   8.638   7.960   3.063  0.4573  0.1038  0.0827
14135SOL    HW143568   8.650   7.875   3.104  1.5564  0.0431 -0.3283
14135SOL    HW243569   8.643   8.022   3.135 -0.1881 -0.1590  0.3619
14136SOL     OW43570   8.560   6.044   5.454  0.3850 -0.3515 -0.1202
14136SOL    HW143571   8.588   5.956   5.479  0.7262 -0.0410  0.6259
14136SOL    HW243572   8.495   6.030   5.385  0.0316 -1.2102  0.3690
14137SOL     OW43573   0.307   5.820   6.770  0.5100 -0.4701  0.2648
14137SOL    HW143574   0.375   5.773   6.723  0.2495  0.4046 -1.0359
14137SOL    HW243575   0.354   5.885   6.823  0.6918  0.5343 -1.0831
14138SOL     OW43576   3.614   1.817   2.954  0.0800  0.2045  0.0772
14138SOL    HW143577   3.631   1.761   2.878  0.7421 -0.7818  0.9224
14138SOL    HW243578   3.543   1.874   2.926 -0.5166 -0.9586 -0.8781
14139SOL     OW43579   4.724   4.358   8.537 -0.0843 -0.2708  0.7526
14139SOL    HW143580   4.751   4.276   8.578 -1.1914 -0.2388  1.5738
14139SOL    HW243581   4.803   4.412   8.538  1.1377 -1.8669 -1.3043
14140SOL     OW43582   3.427   1.968   2.817 -0.5850 -0.1915  0.0990
14140SOL    HW143583   3.343   1.929   2.792 -0.5104 -1.4056  1.5845
14140SOL    HW243584   3.418   2.061   2.796 -2.3472 -0.2833  0.3061
14141SOL     OW43585   5.075   7.304   5.699 -0.1390  0.0955 -0.1813
14141SOL    HW143586   5.012   7.238   5.727 -1.9071  1.8406  0.1800
14141SOL    HW243587   5.025   7.361   5.641  2.1289 -0.5804 -3.0597
14142SOL     OW43588   1.049   4.815   6.434  0.0747 -0.2840 -0.1861
14142SOL    HW143589   1.026   4.739   6.488  0.7291 -1.1416 -1.0580
14142SOL    HW243590   1.029   4.788   6.344 -0.6131  0.9593 -0.4241
14143SOL     OW43591   5.255   0.966   3.811 -0.3311  0.1771 -0.0533
14143SOL    HW143592   5.314   1.035   3.844  0.2034  0.1329 -0.9004
14143SOL    HW243593   5.311   0.911   3.756 -1.2341  0.3099 -1.1246
14144SOL     OW43594   6.377   5.112   3.246 -0.2347  0.3550  0.2308
14144SOL    HW143595   6.448   5.125   3.184 -0.3833  1.3153  0.2423
14144SOL    HW243596   6.413   5.053   3.313  1.2202  2.2879  1.2545
14145SOL     OW43597   5.719   1.123   1.702  0.5723 -0.0850 -0.1814
14145SOL    HW143598   5.668   1.203   1.705  1.2922  0.3574  0.9677
14145SOL    HW243599   5.704   1.087   1.614  0.5634  1.5081 -0.8493
14146SOL     OW43600   0.943   1.846   2.696  0.0387  0.3224  0.8954
14146SOL    HW143601   0.981   1.763   2.670  0.4497  0.8183 -0.1401
14146SOL    HW243602   0.868   1.858   2.637  0.3562  0.9645  0.6019
14147SOL     OW43603   0.692   1.930   7.519 -0.2430 -0.5679 -0.4672
14147SOL    HW143604   0.661   2.003   7.572 -0.3980 -1.3784  0.6025
14147SOL    HW243605   0.785   1.948   7.505 -0.2418 -0.2575 -0.0734
14148SOL     OW43606   8.649   0.484   0.957  0.3004  0.1153  0.5263
14148SOL    HW143607   8.603   0.528   0.885 -1.3035 -0.4582  1.1577
14148SOL    HW243608   8.741   0.509   0.945 -0.0285  0.6246 -1.2789
14149SOL     OW43609   2.793   0.145   3.029  0.1413  0.1243  0.1541
14149SOL    HW143610   2.873   0.124   3.075 -1.0101 -0.5751  1.9467
14149SOL    HW243611   2.801   0.100   2.945  0.4316 -2.3784  1.4282
14150SOL     OW43612   0.643   5.136   8.618 -0.1625 -0.3142 -0.0897
14150SOL    HW143613   0.704   5.208   8.633 -1.4996  0.9221 -0.3313
14150SOL    HW243614   0.680   5.062   8.666  1.2577  0.5251  0.1543
14151SOL     OW43615   0.207   6.467   5.688 -0.7542 -0.6051 -0.0984
14151SOL    HW143616   0.302   6.479   5.697 -0.7652  0.9902 -1.5708
14151SOL    HW243617   0.191   6.378   5.718  1.2579 -1.0210 -0.1133
14152SOL     OW43618   1.216   4.708   7.974  0.0396  0.0949  0.3221
14152SOL    HW143619   1.249   4.760   7.901 -1.1379  1.1628  0.5054
14152SOL    HW243620   1.226   4.617   7.945 -0.4012  0.4865 -1.1801
14153SOL     OW43621   8.536   6.413   4.633  0.1702 -0.5945  0.3125
14153SOL    HW143622   8.616   6.392   4.682  0.7988 -0.0420 -0.4492
14153SOL    HW243623   8.485   6.468   4.692 -0.0098 -1.5721  1.0942
14154SOL     OW43624   7.915   3.367   5.560 -0.0823  0.0291 -0.1633
14154SOL    HW143625   8.007   3.357   5.583 -0.5854  1.0278  2.6000
14154SOL    HW243626   7.880   3.277   5.560  0.6511 -0.2607 -0.2193
14155SOL     OW43627   5.324   3.477   2.530  0.2904 -0.9295 -0.5962
14155SOL    HW143628   5.320   3.384   2.553  0.0158 -0.3591  1.8956
14155SOL    HW243629   5.412   3.504   2.553 -0.4175 -0.0202  1.1967
14156SOL     OW43630   3.705   8.295   1.422  1.1077  0.2125 -0.4038
14156SOL    HW143631   3.786   8.250   1.445  0.7378  0.3350  1.2896
14156SOL    HW243632   3.655   8.298   1.504  0.4705  2.3996 -0.8017
14157SOL     OW43633   1.079   5.805   0.118 -0.7698 -0.7330 -0.3076
14157SOL    HW143634   1.039   5.719   0.108  0.4919 -1.2472 -1.1264
14157SOL    HW243635   1.035   5.844   0.194  0.2839 -3.0094  1.5514
14158SOL     OW43636   2.038   2.454   0.335 -0.8472  0.3849  0.0002
14158SOL    HW143637   2.014   2.487   0.422  0.8481  1.1272  0.2144
14158SOL    HW243638   2.074   2.367   0.352 -1.6201  0.0393 -0.1065
14159SOL     OW43639   5.187   3.475   4.705  0.6342  0.6325 -0.1433
14159SOL    HW143640   5.168   3.565   4.731 -1.6566 -0.1214  1.1171
14159SOL    HW243641   5.241   3.440   4.776  0.6821  0.7221 -0.1352
14160SOL     OW43642   1.175   4.040   7.114 -0.0246  0.3703  0.1551
14160SOL    HW143643   1.267   4.051   7.137  0.1207 -1.2992  0.4941
14160SOL    HW243644   1.133   4.120   7.145  1.5187  1.8203 -1.3258
14161SOL     OW43645   8.539   6.403   2.771  0.6311 -0.1180  0.4280
14161SOL    HW143646   8.488   6.329   2.737  1.5559  0.0606 -1.4249
14161SOL    HW243647   8.488   6.480   2.747  0.0223 -0.0672  1.7499
14162SOL     OW43648   8.477   1.621   4.753 -0.0913 -0.1574 -0.4893
14162SOL    HW143649   8.534   1.674   4.698  0.2238 -0.2183 -0.2252
14162SOL    HW243650   8.516   1.533   4.752  1.5046  0.4027  1.9509
14163SOL     OW43651   3.878   2.623   5.937 -0.2772 -0.1011  0.2229
14163SOL    HW143652   3.823   2.549   5.963 -0.3022 -0.0951  0.1871
14163SOL    HW243653   3.894   2.609   5.844 -1.5155  0.7317 -0.1475
14164SOL     OW43654   2.106   5.533   1.116 -0.5051 -0.0828 -0.6332
14164SOL    HW143655   2.082   5.496   1.031 -0.3917 -0.8041 -0.3630
14164SOL    HW243656   2.026   5.528   1.168 -0.0490 -1.6503 -0.0220
14165SOL     OW43657   7.632   4.237   8.397  0.9401  0.8839  0.0695
14165SOL    HW143658   7.565   4.175   8.369  0.3651  1.0814  0.9887
14165SOL    HW243659   7.693   4.185   8.448 -0.3913  1.3238  2.2119
14166SOL     OW43660   7.575   2.500   2.232 -0.1220  0.6527 -0.4745
14166SOL    HW143661   7.558   2.437   2.161  0.7814 -0.0187 -0.1195
14166SOL    HW243662   7.654   2.546   2.203  0.2479  0.3774  0.0786
14167SOL     OW43663   0.429   6.946   6.131  0.3312  0.4274 -0.3310
14167SOL    HW143664   0.520   6.942   6.158  0.6423  1.2757 -1.2188
14167SOL    HW243665   0.398   6.856   6.138  0.5688  0.4712  2.1831
14168SOL     OW43666   4.956   7.602   2.162 -0.3917  0.4135 -0.4877
14168SOL    HW143667   5.014   7.533   2.193  0.0074  0.9893  0.0792
14168SOL    HW243668   4.950   7.588   2.068  1.1258  0.6571 -0.6546
14169SOL     OW43669   4.224   8.788   2.839 -0.2273 -0.1215 -0.2987
14169SOL    HW143670   4.297   8.848   2.853  0.5597 -0.8801 -1.0313
14169SOL    HW243671   4.230   8.764   2.746 -1.3466 -0.2871 -0.3497
14170SOL     OW43672   7.520   6.925   2.708  0.0107 -0.3252 -0.0252
14170SOL    HW143673   7.489   6.846   2.753  1.7544 -1.3809 -0.5592
14170SOL    HW243674   7.444   6.956   2.659 -0.5939 -1.9871 -0.2236
14171SOL     OW43675   2.529   4.329   3.266  0.2339  0.4785  0.2512
14171SOL    HW143676   2.442   4.350   3.302  0.3359  0.7866  0.3199
14171SOL    HW243677   2.537   4.385   3.189 -0.4863 -1.0505 -0.9857
14172SOL     OW43678   8.688   7.502   6.045  0.3346 -0.0037 -0.1940
14172SOL    HW143679   8.657   7.541   6.127  0.3452  1.0801 -0.6823
14172SOL    HW243680   8.677   7.408   6.057 -1.0376  0.2212  0.5089
14173SOL     OW43681   0.873   1.854   6.593 -0.0359 -0.3406 -0.3807
14173SOL    HW143682   0.940   1.804   6.547  0.9482 -0.5695  1.2146
14173SOL    HW243683   0.904   1.945   6.590  0.1423 -0.3855 -0.0194
14174SOL     OW43684   0.009   2.094   7.019 -0.3109 -0.0280  0.6307
14174SOL    HW143685  -0.071   2.041   7.017 -0.3858  0.1038 -0.8298
14174SOL    HW243686  -0.021   2.184   7.008 -0.0806  0.2150  1.8529
14175SOL     OW43687   4.500   6.948   5.624 -0.0245 -0.5538  0.0055
14175SOL    HW143688   4.575   6.900   5.589  0.2555 -0.8823  1.0024
14175SOL    HW243689   4.456   6.985   5.548  1.3666 -0.0308 -0.5633
14176SOL     OW43690   2.346   0.755   4.981  0.4844  0.3764  0.3184
14176SOL    HW143691   2.339   0.736   4.887  3.0701  1.1060 -0.1081
14176SOL    HW243692   2.256   0.756   5.012 -0.3794 -1.1834 -1.8846
14177SOL     OW43693   0.665   0.480   8.124  0.1439  0.0390  0.1481
14177SOL    HW143694   0.701   0.534   8.054  0.7006 -1.2007 -0.5521
14177SOL    HW243695   0.712   0.509   8.203 -0.3130  1.2699 -0.0233
14178SOL     OW43696   2.867   5.292   3.230 -0.2824 -0.4094  0.5787
14178SOL    HW143697   2.852   5.312   3.138  1.0600 -1.3002  0.1347
14178SOL    HW243698   2.852   5.375   3.276 -0.6083  0.1332 -0.4790
14179SOL     OW43699   7.388   0.939   3.912 -1.0124  0.0920  0.0324
14179SOL    HW143700   7.371   1.032   3.927 -2.9269 -0.1407 -0.3893
14179SOL    HW243701   7.422   0.935   3.823 -1.5392  0.3472 -0.1861
14180SOL     OW43702   7.247   1.829   8.127 -0.3128  0.1337 -0.1514
14180SOL    HW143703   7.285   1.856   8.044  0.1091 -0.1662 -0.0597
14180SOL    HW243704   7.228   1.736   8.116 -0.2342  0.0867  0.0915
14181SOL     OW43705   5.619   7.293   2.585 -0.4065 -0.0116  0.0934
14181SOL    HW143706   5.619   7.366   2.646  0.1525  0.6133 -0.6314
14181SOL    HW243707   5.622   7.215   2.640 -2.0277  0.4590  0.9122
14182SOL     OW43708   5.517   4.636   7.819  0.1174 -0.5520 -0.1046
14182SOL    HW143709   5.434   4.651   7.864  0.4430  2.1392 -0.2288
14182SOL    HW243710   5.492   4.624   7.727 -0.1248  0.9258 -0.2497
14183SOL     OW43711   5.720   0.627   2.422 -0.1398  0.1372 -0.4199
14183SOL    HW143712   5.811   0.641   2.445 -0.2588  1.1176 -0.4643
14183SOL    HW243713   5.703   0.535   2.441  1.1338 -0.3251 -1.3903
14184SOL     OW43714   2.292   1.103   8.373  0.2919  0.1563  0.3685
14184SOL    HW143715   2.257   1.027   8.327 -0.0744  1.0141 -0.8369
14184SOL    HW243716   2.217   1.163   8.381  0.0739 -0.3441  3.0408
14185SOL     OW43717   6.943   0.269   2.696  0.4102  0.3104  0.7517
14185SOL    HW143718   6.860   0.231   2.667  0.4593  0.7746 -0.0334
14185SOL    HW243719   6.978   0.205   2.757 -0.3504 -0.0678  0.8124
14186SOL     OW43720   7.597   4.999   6.076 -0.1937  0.2705 -0.3992
14186SOL    HW143721   7.585   4.995   5.981  1.2981  0.3112 -0.6215
14186SOL    HW243722   7.597   4.908   6.104 -1.5465  0.2912 -0.2928
14187SOL     OW43723   0.265   5.103   5.076 -0.2910 -0.4753  0.1933
14187SOL    HW143724   0.263   5.022   5.026  0.9418 -0.1061 -0.5035
14187SOL    HW243725   0.284   5.075   5.166  1.1439 -0.9308 -0.2151
14188SOL     OW43726   5.998   2.617   8.151 -0.3476  0.7907  0.0466
14188SOL    HW143727   6.090   2.643   8.149 -0.5459  1.5336  0.1032
14188SOL    HW243728   5.997   2.527   8.119  0.0515  1.8181 -3.1159
14189SOL     OW43729   4.644   6.631   2.659 -0.5334  0.0219 -0.2785
14189SOL    HW143730   4.597   6.585   2.589 -0.3049  0.8355 -0.9779
14189SOL    HW243731   4.712   6.680   2.615 -0.0553  0.1508  0.5740
14190SOL     OW43732   5.094   4.252   3.620 -0.1551  0.3482 -0.2566
14190SOL    HW143733   5.142   4.335   3.617 -0.1726  0.3364 -1.1607
14190SOL    HW243734   5.067   4.236   3.530 -2.2558  0.5670  0.2787
14191SOL     OW43735   7.537   0.877   0.258  0.1577 -0.3721  0.1520
14191SOL    HW143736   7.627   0.845   0.266  0.5872  1.0980  2.0024
14191SOL    HW243737   7.542   0.949   0.196  0.3889  0.0345  0.6298
14192SOL     OW43738   4.626   6.276   8.279 -0.2111 -0.1759 -0.5485
14192SOL    HW143739   4.640   6.359   8.326  0.3000  0.1500 -1.2617
14192SOL    HW243740   4.713   6.236   8.275 -0.2689 -0.2583 -1.0900
14193SOL     OW43741   7.295   8.417   2.332  0.5192 -0.3611 -0.1949
14193SOL    HW143742   7.227   8.465   2.379 -0.2305 -1.8325  0.2966
14193SOL    HW243743   7.272   8.325   2.345  2.0897 -0.8684 -0.8168
14194SOL     OW43744   7.375   7.503   4.229  0.1580 -0.5514 -0.2490
14194SOL    HW143745   7.310   7.525   4.163  0.8182  1.7388 -0.2259
14194SOL    HW243746   7.459   7.518   4.186  0.6116 -0.4527  0.6498
14195SOL     OW43747   4.947   3.877   0.475  0.2170  0.1292 -0.0294
14195SOL    HW143748   4.989   3.959   0.448 -0.6091  0.3539 -0.6477
14195SOL    HW243749   4.900   3.899   0.555 -0.4972  0.4187 -0.5192
14196SOL     OW43750   6.116   5.733   0.332 -0.0580  0.0629  0.2937
14196SOL    HW143751   6.126   5.803   0.396 -0.2602  0.5639 -0.2159
14196SOL    HW243752   6.158   5.657   0.373  1.5470  0.8645  0.2207
14197SOL     OW43753   2.340   8.621   0.109  0.0012  0.2047 -0.6210
14197SOL    HW143754   2.280   8.688   0.076 -1.1645 -1.2415 -1.6338
14197SOL    HW243755   2.386   8.589   0.030  0.7478  0.0236 -0.1204
14198SOL     OW43756   1.767   1.609   6.135  0.5573  0.5438 -0.5079
14198SOL    HW143757   1.754   1.514   6.137 -0.3010  0.6196 -1.6838
14198SOL    HW243758   1.849   1.621   6.088  0.6685  0.3973 -0.3570
14199SOL     OW43759   1.589   1.549   7.737  0.5406 -0.0244  0.6998
14199SOL    HW143760   1.539   1.588   7.666  2.0033 -0.2914 -0.5415
14199SOL    HW243761   1.534   1.478   7.769 -0.2956  0.3224  0.0579
14200SOL     OW43762   5.034   3.402   0.318  0.4047  0.3101 -0.2000
14200SOL    HW143763   5.074   3.488   0.327  0.6551  0.4941 -2.4053
14200SOL    HW243764   5.106   3.346   0.288 -0.2022 -0.1595 -0.8119
14201SOL     OW43765   0.540   3.588   1.095  0.1314 -1.3974 -0.5466
14201SOL    HW143766   0.582   3.666   1.060 -0.2470 -0.4837  0.9458
14201SOL    HW243767   0.458   3.581   1.045 -0.1398 -0.4554 -0.2557
14202SOL     OW43768   2.331   0.690   5.277 -0.2305 -0.5460  0.1208
14202SOL    HW143769   2.277   0.767   5.263  0.5083 -0.1107 -0.4246
14202SOL    HW243770   2.405   0.721   5.330  0.3784 -0.7340 -0.5977
14203SOL     OW43771   4.138   7.582   3.677  0.5643  0.0944 -0.3477
14203SOL    HW143772   4.122   7.524   3.752 -1.2153  0.2116 -0.5894
14203SOL    HW243773   4.167   7.664   3.716 -1.7633  0.6532  0.3957
14204SOL     OW43774   1.716   6.537   1.942 -0.3384 -0.4886 -0.1383
14204SOL    HW143775   1.808   6.521   1.964 -0.0366  1.1307 -0.0887
14204SOL    HW243776   1.708   6.510   1.851  0.0007 -1.2950  0.0606
14205SOL     OW43777   1.918   2.537   6.731  0.5009 -0.5923 -0.5253
14205SOL    HW143778   1.980   2.465   6.717  1.1280 -0.0232 -0.7553
14205SOL    HW243779   1.970   2.616   6.715 -0.6515 -0.1168 -2.2498
14206SOL     OW43780   7.350   0.077   6.739 -0.0703 -0.0107  0.0188
14206SOL    HW143781   7.427   0.035   6.775  1.0445  0.7431 -1.3743
14206SOL    HW243782   7.319   0.136   6.808  0.3846 -0.5811  0.7106
14207SOL     OW43783   1.752   2.481   4.560 -0.2174 -0.2662 -0.2300
14207SOL    HW143784   1.785   2.541   4.627 -1.5544  0.3919 -0.1316
14207SOL    HW243785   1.789   2.513   4.478 -1.3840  1.1082 -0.2688
14208SOL     OW43786   3.334   6.813   7.261  0.2577  0.3438  0.0150
14208SOL    HW143787   3.243   6.792   7.241  0.7516 -1.6009 -0.3908
14208SOL    HW243788   3.350   6.894   7.213 -0.7013 -0.3577 -1.5932
14209SOL     OW43789   2.291   4.285   7.232 -0.0114 -0.2785  0.4009
14209SOL    HW143790   2.366   4.341   7.212 -1.4338  1.4658 -0.3637
14209SOL    HW243791   2.283   4.289   7.327 -0.0178  0.7438  0.3679
14210SOL     OW43792   8.172   6.383   4.616 -0.0293  0.5662 -0.2989
14210SOL    HW143793   8.124   6.415   4.540  0.0541 -1.5528 -1.3149
14210SOL    HW243794   8.141   6.437   4.689 -2.1816  0.8026 -1.3286
14211SOL     OW43795   0.760   0.441   4.315 -0.1646 -0.4149 -0.2598
14211SOL    HW143796   0.766   0.531   4.284  0.6359 -0.4165 -0.1280
14211SOL    HW243797   0.698   0.399   4.256 -1.3349  0.4748  0.2802
14212SOL     OW43798   3.594   4.357   0.529 -0.0379 -0.2043 -0.0732
14212SOL    HW143799   3.664   4.292   0.536  1.2527  0.8333 -2.1216
14212SOL    HW243800   3.624   4.415   0.458 -1.6731  1.9281  0.9031
14213SOL     OW43801   4.825   1.343   8.808 -0.0057 -0.1644  0.1808
14213SOL    HW143802   4.814   1.344   8.903 -2.9688  1.8449 -0.0433
14213SOL    HW243803   4.736   1.332   8.774  0.7006  1.2160 -2.3338
14214SOL     OW43804   6.399   2.219   3.053 -0.5167 -0.1218  0.0802
14214SOL    HW143805   6.452   2.195   2.978 -0.2991 -2.4360  0.9105
14214SOL    HW243806   6.334   2.280   3.018 -0.0833 -0.7192 -1.8570
14215SOL     OW43807   6.833   4.173   7.403 -0.2031  0.6593 -0.1912
14215SOL    HW143808   6.814   4.081   7.382 -0.5253  0.7066 -0.1150
14215SOL    HW243809   6.918   4.190   7.363 -0.4613  0.5305 -0.7948
14216SOL     OW43810   5.457   2.518   6.963 -0.1883  0.1684 -0.0502
14216SOL    HW143811   5.541   2.495   6.921  0.2985  2.2113 -0.3172
14216SOL    HW243812   5.482   2.563   7.043 -1.1168 -2.1009  1.6088
14217SOL     OW43813   2.968   3.265   8.567  0.1718 -0.0358 -0.8039
14217SOL    HW143814   2.962   3.280   8.473 -1.0124 -0.1794 -0.7639
14217SOL    HW243815   2.914   3.334   8.607 -0.0992 -0.5304 -0.2908
14218SOL     OW43816   8.292   6.616   1.155  0.0514 -0.7366 -0.4212
14218SOL    HW143817   8.299   6.705   1.187 -0.5976 -0.4031 -1.1714
14218SOL    HW243818   8.320   6.621   1.063  0.9171 -1.4812 -0.2116
14219SOL     OW43819   4.560   7.525   6.771  0.1402 -0.3040  0.6120
14219SOL    HW143820   4.500   7.575   6.716  0.5391 -0.3580  0.1186
14219SOL    HW243821   4.504   7.485   6.837 -0.2172  0.5678  0.8444
14220SOL     OW43822   0.362   7.357   7.844 -0.3758  0.0971 -0.1725
14220SOL    HW143823   0.322   7.338   7.929 -1.1936 -2.3861 -1.0228
14220SOL    HW243824   0.455   7.337   7.856 -0.0803  1.7624  0.6446
14221SOL     OW43825   6.768   8.044   1.841 -0.4055  0.5526  0.6457
14221SOL    HW143826   6.829   8.006   1.905 -1.2138 -1.5582  0.2428
14221SOL    HW243827   6.724   8.114   1.889  1.4931  1.3616  1.2928
14222SOL     OW43828   0.473   3.709   7.123  0.0260  0.1153 -0.2814
14222SOL    HW143829   0.444   3.662   7.201 -0.7118  0.5601 -0.2761
14222SOL    HW243830   0.569   3.701   7.125 -0.0476 -0.7886  0.0791
14223SOL     OW43831   8.583   6.904   7.693  0.5425 -0.1399  0.2717
14223SOL    HW143832   8.525   6.875   7.622  0.6794 -0.6757  0.3778
14223SOL    HW243833   8.668   6.916   7.650  0.8070 -1.1834  0.4819
14224SOL     OW43834   2.413   0.514   3.324  0.0271 -0.8546  0.2504
14224SOL    HW143835   2.404   0.420   3.311 -1.2769 -0.9443  1.4533
14224SOL    HW243836   2.346   0.553   3.267  1.2494 -0.5490 -1.0378
14225SOL     OW43837   6.349   5.249   5.518  1.0815 -0.4037 -0.4568
14225SOL    HW143838   6.382   5.269   5.606 -0.2539 -1.4755  0.3315
14225SOL    HW243839   6.422   5.205   5.475  1.2821 -1.2511  0.6799
14226SOL     OW43840   2.167   0.943   5.975 -0.4139 -0.1517 -0.2896
14226SOL    HW143841   2.192   0.857   6.009 -0.3187 -0.4518 -1.0925
14226SOL    HW243842   2.075   0.952   5.998 -0.6657 -0.8628 -0.9598
14227SOL     OW43843   5.475   2.181   1.846 -0.3655  0.4198  0.2636
14227SOL    HW143844   5.442   2.261   1.887  0.0824  0.6468  0.1863
14227SOL    HW243845   5.523   2.211   1.769  2.6847  0.4175  1.9609
14228SOL     OW43846   0.361   1.424   2.272  0.2161 -0.4594 -0.4180
14228SOL    HW143847   0.309   1.491   2.317 -0.3485 -1.0658 -0.1410
14228SOL    HW243848   0.422   1.393   2.339 -1.0644 -1.8317  0.1947
14229SOL     OW43849   6.867   0.526   8.227  0.5145 -0.3024 -0.1993
14229SOL    HW143850   6.844   0.533   8.320  0.2184  2.9187 -0.3908
14229SOL    HW243851   6.946   0.473   8.226  0.6295 -0.2626  1.9025
14230SOL     OW43852   3.292   4.439   6.971 -0.1705 -0.1544 -1.0827
14230SOL    HW143853   3.224   4.380   6.938 -1.0353  1.5556 -2.4736
14230SOL    HW243854   3.293   4.512   6.910  1.9076  0.5983 -0.2432
14231SOL     OW43855   2.402   3.717   8.368 -0.3658  0.2002 -0.1267
14231SOL    HW143856   2.457   3.707   8.446 -1.3649  2.6544  1.0023
14231SOL    HW243857   2.462   3.745   8.299  0.4031 -1.2368 -0.0822
14232SOL     OW43858   4.000   7.388   8.381  0.3823 -0.6968  0.1071
14232SOL    HW143859   4.093   7.373   8.364  0.6827  0.4992  0.5530
14232SOL    HW243860   3.998   7.475   8.423 -0.8952 -0.8810  0.4514
14233SOL     OW43861   8.741   6.879   1.539  0.0964  0.6931  0.3109
14233SOL    HW143862   8.829   6.907   1.565 -0.7297  1.9177  1.9498
14233SOL    HW243863   8.750   6.786   1.520  1.3230  0.2664  2.6182
14234SOL     OW43864   0.912   4.176   7.209  0.6521 -0.1861  0.0224
14234SOL    HW143865   0.914   4.132   7.294  0.6487  0.4786  0.3720
14234SOL    HW243866   0.897   4.105   7.146 -0.5477 -0.5422  0.6711
14235SOL     OW43867   5.433   0.711   3.997 -0.4175 -0.0573 -0.1392
14235SOL    HW143868   5.416   0.625   4.037 -1.6386 -0.0122 -0.5293
14235SOL    HW243869   5.353   0.761   4.013  0.8502  1.5809  1.4800
14236SOL     OW43870   4.439   8.024   1.904 -0.4581  0.7624 -0.1389
14236SOL    HW143871   4.458   8.093   1.840 -2.8546  1.2651 -0.4019
14236SOL    HW243872   4.521   7.977   1.914  0.6518  2.2662 -1.6584
14237SOL     OW43873   6.284   0.393   7.719 -0.2869 -0.0609  0.0548
14237SOL    HW143874   6.338   0.326   7.763 -1.2809  0.1789  1.7273
14237SOL    HW243875   6.341   0.427   7.650  1.1406 -0.9061  0.7512
14238SOL     OW43876   6.899   6.334   3.239 -0.0450 -0.0068  0.5510
14238SOL    HW143877   6.839   6.274   3.283 -0.3611 -0.6076 -0.6603
14238SOL    HW243878   6.958   6.277   3.190  1.2186  0.5935  1.2976
14239SOL     OW43879   8.471   7.216   0.463  0.0374  0.5734  0.0772
14239SOL    HW143880   8.423   7.134   0.464  0.7808  0.1083 -0.5132
14239SOL    HW243881   8.552   7.195   0.415  0.9470  1.2499  1.2534
14240SOL     OW43882   0.798   4.511   1.853 -0.4544  0.3804  0.2146
14240SOL    HW143883   0.809   4.539   1.763  2.2644  1.2628  0.7130
14240SOL    HW243884   0.727   4.565   1.888 -1.2575  0.3039 -1.2363
14241SOL     OW43885   5.857   2.773   1.722  0.0782 -0.2066  0.3001
14241SOL    HW143886   5.814   2.692   1.749  1.7275 -0.5968  2.0082
14241SOL    HW243887   5.863   2.825   1.802  2.3050 -0.0050  0.0696
14242SOL     OW43888   0.235   3.311   8.209  0.3127 -0.0872 -0.0872
14242SOL    HW143889   0.171   3.322   8.139  0.4173 -3.5933 -0.9175
14242SOL    HW243890   0.313   3.358   8.179 -0.5080  0.7192 -1.0157
14243SOL     OW43891   3.861   6.389   0.970 -0.8734 -0.4968 -0.0301
14243SOL    HW143892   3.915   6.463   0.996 -0.9459 -0.4746  0.0547
14243SOL    HW243893   3.775   6.406   1.009 -1.7765  0.8717 -2.3761
14244SOL     OW43894   5.209   2.205   0.647 -0.0836  0.3532  0.2341
14244SOL    HW143895   5.248   2.131   0.693  0.1554 -0.3923 -1.1133
14244SOL    HW243896   5.178   2.168   0.564 -0.0034  1.7539 -0.4488
14245SOL     OW43897   6.539   4.541   1.784  0.5049  0.3069 -0.5474
14245SOL    HW143898   6.466   4.495   1.826 -0.5468  0.5783 -2.0180
14245SOL    HW243899   6.516   4.634   1.792  2.1214  0.6069  1.4923
14246SOL     OW43900   6.229   6.600   2.940 -0.5297  0.8763  0.3587
14246SOL    HW143901   6.288   6.525   2.939  0.5569  1.6975  0.1851
14246SOL    HW243902   6.196   6.604   3.030 -0.0835  0.5706  0.5401
14247SOL     OW43903   2.283   6.978   8.181  0.7015  0.3009 -0.2541
14247SOL    HW143904   2.374   6.965   8.208  1.3143 -0.6764 -2.5163
14247SOL    HW243905   2.231   6.958   8.259  2.4112  0.7021  1.0235
14248SOL     OW43906   4.880   5.743   7.550 -0.3917  0.5851  0.6626
14248SOL    HW143907   4.904   5.799   7.624  0.1897  0.1267  0.8222
14248SOL    HW243908   4.909   5.656   7.575 -0.0136  0.4583 -0.1877
14249SOL     OW43909   1.656   6.557   5.177 -0.2709 -0.2076 -0.1478
14249SOL    HW143910   1.643   6.585   5.267 -2.1945  0.7867 -0.6672
14249SOL    HW243911   1.631   6.465   5.176 -4.5670  0.7716 -0.3797
14250SOL     OW43912   7.094   5.708   6.361  0.0815  0.2440  0.0672
14250SOL    HW143913   7.053   5.749   6.285 -0.8362 -0.6664  0.0512
14250SOL    HW243914   7.093   5.615   6.341 -0.7694 -0.0723  1.4653
14251SOL     OW43915   2.772   3.603   6.911 -0.3977 -0.1548 -0.3194
14251SOL    HW143916   2.863   3.613   6.883 -0.2805 -1.0636 -0.2832
14251SOL    HW243917   2.772   3.633   7.002 -0.4401  1.2186 -0.7534
14252SOL     OW43918   7.025   5.290   3.225  0.1064  0.3870 -0.3289
14252SOL    HW143919   7.055   5.281   3.316 -0.6165 -1.5774 -0.2459
14252SOL    HW243920   7.105   5.294   3.174  0.5195 -0.1324  0.2671
14253SOL     OW43921   2.182   5.694   3.479 -0.6048  0.0541 -0.2000
14253SOL    HW143922   2.209   5.726   3.565 -0.8259 -0.9286  0.2537
14253SOL    HW243923   2.123   5.621   3.499 -0.7722 -0.0870 -1.1879
14254SOL     OW43924   5.626   1.334   2.244 -0.3800  0.0878  0.4221
14254SOL    HW143925   5.650   1.258   2.191  0.8866  0.7781 -0.0509
14254SOL    HW243926   5.572   1.298   2.314  0.9221 -1.4123  0.7404
14255SOL     OW43927   8.648   0.668   8.337  0.1167  0.3808  0.2809
14255SOL    HW143928   8.601   0.610   8.277 -1.0114  1.2806  0.2474
14255SOL    HW243929   8.606   0.655   8.422 -0.2626  1.2452  0.2386
14256SOL     OW43930   4.384   0.565   5.154 -0.1269 -0.4476 -0.4663
14256SOL    HW143931   4.467   0.568   5.202 -0.6439  2.7371  0.4840
14256SOL    HW243932   4.407   0.534   5.067  2.4174  1.8574 -0.7450
14257SOL     OW43933   7.799   2.661   7.319 -0.1659  0.6527 -0.0644
14257SOL    HW143934   7.819   2.702   7.402 -1.1804 -0.3597  0.7162
14257SOL    HW243935   7.733   2.718   7.279 -0.2472  0.7312  0.1824
14258SOL     OW43936   1.502   5.121   5.044 -0.6683  0.4547  0.3570
14258SOL    HW143937   1.423   5.089   5.087  1.5002 -3.2217  2.0643
14258SOL    HW243938   1.495   5.091   4.954 -0.2150 -2.1609  1.1138
14259SOL     OW43939   6.050   5.791   0.687  0.2532  0.1064 -0.3445
14259SOL    HW143940   6.142   5.764   0.683  0.6135  1.2827 -0.4262
14259SOL    HW243941   6.011   5.732   0.752  0.9502 -0.7028 -0.6321
14260SOL     OW43942   0.227   6.489   8.205 -0.1052  0.7094  0.0406
14260SOL    HW143943   0.201   6.491   8.113 -1.1520 -1.7475  0.1931
14260SOL    HW243944   0.269   6.403   8.216 -0.9906  0.4647  2.0599
14261SOL     OW43945   0.730   5.847   6.621  0.9251 -0.2300 -0.0494
14261SOL    HW143946   0.715   5.941   6.613  2.3556  0.0628  0.4101
14261SOL    HW243947   0.799   5.828   6.557  0.8391 -0.9073  0.0540
14262SOL     OW43948   7.048   6.071   4.659  0.4131  0.0866 -0.1141
14262SOL    HW143949   7.035   5.997   4.599 -1.2049  1.0080 -0.9478
14262SOL    HW243950   7.143   6.081   4.664  0.6842 -1.9910 -0.0145
14263SOL     OW43951   0.638   7.558   5.557 -0.5733  0.4427  0.3505
14263SOL    HW143952   0.646   7.481   5.613 -0.0224  0.5486  0.4253
14263SOL    HW243953   0.716   7.610   5.577 -1.6622  1.7408  1.4130
14264SOL     OW43954   5.267   7.035   2.486  0.1405  0.0980  0.0574
14264SOL    HW143955   5.202   6.995   2.428 -1.3112  2.6078 -0.2190
14264SOL    HW243956   5.331   7.074   2.427 -0.7300  1.6779  0.0828
14265SOL     OW43957   5.838   3.487   2.733 -0.3252  0.2924  0.4232
14265SOL    HW143958   5.779   3.414   2.749  0.1597  0.2406  2.1875
14265SOL    HW243959   5.918   3.447   2.699 -1.2038  0.3615 -1.9479
14266SOL     OW43960   8.755   1.930   2.557  0.2506 -0.4668  0.5042
14266SOL    HW143961   8.665   1.931   2.590  0.4291 -0.0115  0.9960
14266SOL    HW243962   8.746   1.915   2.463 -0.4182  1.0426  0.3032
14267SOL     OW43963   8.212   1.420   7.552 -0.0040  0.3990  0.1304
14267SOL    HW143964   8.244   1.368   7.478 -0.0288  0.7684 -0.1444
14267SOL    HW243965   8.266   1.392   7.626  0.1196  0.1291 -0.0592
14268SOL     OW43966   6.467   7.929   3.165 -0.2257 -0.4956 -0.3328
14268SOL    HW143967   6.432   8.017   3.178  0.5925 -0.3163  0.7946
14268SOL    HW243968   6.493   7.927   3.073 -2.3729 -0.3593 -0.9941
14269SOL     OW43969   2.575   0.383   5.225  0.1722  0.7032  0.0197
14269SOL    HW143970   2.486   0.419   5.222  0.4526  1.4335  0.2312
14269SOL    HW243971   2.621   0.428   5.155  0.1212 -0.4220 -0.7673
14270SOL     OW43972   3.299   1.942   8.545  0.0502  0.0268 -0.2562
14270SOL    HW143973   3.212   1.907   8.567 -0.2740  0.3464 -0.9899
14270SOL    HW243974   3.318   2.005   8.614 -1.6259  2.1550 -1.6383
14271SOL     OW43975   4.383   1.135   5.635 -0.2218  0.4893 -0.1515
14271SOL    HW143976   4.333   1.175   5.563 -0.1159  0.6781 -0.1191
14271SOL    HW243977   4.345   1.173   5.714 -1.1610 -0.6186 -0.0389
14272SOL     OW43978   0.172   6.845   8.456 -0.0329  0.4400  1.2471
14272SOL    HW143979   0.155   6.856   8.362  1.1866 -1.3701  0.7683
14272SOL    HW243980   0.252   6.896   8.472  1.0182 -0.9804  0.7735
14273SOL     OW43981   0.922   3.515   7.070  0.2444 -0.1914  0.5411
14273SOL    HW143982   0.953   3.582   7.009  1.0619 -0.3492  0.7816
14273SOL    HW243983   0.911   3.437   7.016 -0.9732  0.1811  0.2021
14274SOL     OW43984   6.225   2.426   6.663  0.2864 -0.0153  0.8418
14274SOL    HW143985   6.305   2.375   6.651  0.2813 -0.3726  2.1687
14274SOL    HW243986   6.219   2.480   6.585  1.2090 -0.8153  0.1939
14275SOL     OW43987   5.438   4.275   6.108 -0.1007 -0.6122  0.3557
14275SOL    HW143988   5.416   4.194   6.063 -2.2855  0.8441 -1.4045
14275SOL    HW243989   5.358   4.327   6.105  0.9156  1.2494  2.3342
14276SOL     OW43990   5.772   2.834   5.422 -0.0238  0.1453  0.3299
14276SOL    HW143991   5.852   2.787   5.444 -0.5653 -1.0343 -0.1167
14276SOL    HW243992   5.796   2.926   5.426  0.9971 -0.1434  1.5560
14277SOL     OW43993   3.746   0.446   5.361 -0.2083  0.3036 -0.1896
14277SOL    HW143994   3.816   0.453   5.425 -1.5425 -0.2728  1.4107
14277SOL    HW243995   3.790   0.451   5.276  2.0148 -2.1008  0.7018
14278SOL     OW43996   7.081   4.946   2.916  0.5608 -0.1715 -0.1321
14278SOL    HW143997   7.044   5.027   2.950 -0.9485 -0.8930 -0.0013
14278SOL    HW243998   7.169   4.942   2.955  0.5400  1.2124  0.1144
14279SOL     OW43999   4.737   4.058   4.563  0.6929  0.1445  0.0670
14279SOL    HW144000   4.671   4.124   4.582 -1.2956 -1.3214 -1.2699
14279SOL    HW244001   4.698   4.005   4.493  1.8092 -2.9412  1.6107
14280SOL     OW44002   3.264   6.773   3.132  0.2684  0.0103 -0.7199
14280SOL    HW144003   3.190   6.747   3.078 -0.9232 -1.2734  1.3629
14280SOL    HW244004   3.234   6.852   3.177  1.2727  1.1160 -1.9462
14281SOL     OW44005   4.082   5.800   3.454 -0.0330 -0.6756 -0.2686
14281SOL    HW144006   4.110   5.734   3.518 -0.0017 -0.3366  0.0696
14281SOL    HW244007   4.141   5.874   3.469 -0.3569 -0.4005 -0.3429
14282SOL     OW44008   3.250   8.575   2.515 -0.1697 -0.0099  0.4888
14282SOL    HW144009   3.206   8.591   2.431 -1.4381 -0.7419  0.9904
14282SOL    HW244010   3.207   8.634   2.577 -1.0138 -1.2979  1.1552
14283SOL     OW44011   1.836   6.610   4.882 -0.1662  0.4056  0.1557
14283SOL    HW144012   1.909   6.596   4.944  0.1216  1.0657 -0.0221
14283SOL    HW244013   1.801   6.695   4.906 -2.1100 -0.6795  1.4544
14284SOL     OW44014   1.458   8.723   7.421  0.4655  0.4595 -0.1396
14284SOL    HW144015   1.512   8.800   7.405  0.6316  0.6697  1.2818
14284SOL    HW244016   1.388   8.754   7.478  1.0154 -0.5913  1.1522
14285SOL     OW44017   4.009   6.419   8.405  0.2510 -0.5064  0.1561
14285SOL    HW144018   4.031   6.329   8.430 -0.0508 -1.1025 -1.6477
14285SOL    HW244019   3.986   6.414   8.313 -2.8547  0.9017  0.7421
14286SOL     OW44020   2.650   0.983   2.067  0.0341  0.2694  0.7941
14286SOL    HW144021   2.676   0.938   2.147 -0.9563  0.9322  1.5230
14286SOL    HW244022   2.726   0.977   2.010 -0.3595 -3.1676  0.4370
14287SOL     OW44023   7.063   3.009   3.424  0.5284 -0.2590  0.0422
14287SOL    HW144024   7.108   2.991   3.342 -0.0483  1.5241 -0.7074
14287SOL    HW244025   7.133   3.024   3.488  0.9885  0.2446 -0.5741
14288SOL     OW44026   6.540   6.397   4.377 -0.1625  0.0072  0.5823
14288SOL    HW144027   6.598   6.473   4.379 -0.3298  0.1935 -0.6986
14288SOL    HW244028   6.595   6.325   4.407  0.6734  0.2332 -0.3432
14289SOL     OW44029   0.295   1.170   7.161  0.8555  0.6029  0.1484
14289SOL    HW144030   0.283   1.162   7.256 -0.7177 -1.8387 -0.1661
14289SOL    HW244031   0.270   1.260   7.141  1.8464  1.3759  2.0913
14290SOL     OW44032   6.140   1.090   3.385 -0.1646  0.5902  0.1130
14290SOL    HW144033   6.064   1.050   3.428  0.3281  0.4585  0.8810
14290SOL    HW244034   6.107   1.118   3.299  0.0848 -3.9094 -1.6772
14291SOL     OW44035   7.480   1.610   8.570 -0.1221 -0.2520  0.3741
14291SOL    HW144036   7.440   1.528   8.599 -1.9991  0.4195 -0.1447
14291SOL    HW244037   7.407   1.672   8.565  1.4606  1.9658  2.3643
14292SOL     OW44038   5.382   8.170   8.661  0.0585 -0.0864  0.0082
14292SOL    HW144039   5.301   8.123   8.678  0.9655 -1.9138 -0.5100
14292SOL    HW244040   5.403   8.212   8.745 -0.1468 -1.6499  0.8902
14293SOL     OW44041   1.916   7.913   8.358 -0.0479 -0.5876 -0.1267
14293SOL    HW144042   1.993   7.891   8.306  0.3984  0.8712 -0.1408
14293SOL    HW244043   1.843   7.904   8.297  0.1513 -1.5910 -0.2263
14294SOL     OW44044   2.986   6.866   1.761  0.4387  0.2552  0.4990
14294SOL    HW144045   2.957   6.774   1.754 -1.1706  0.7851 -0.2687
14294SOL    HW244046   3.063   6.862   1.817 -0.3989 -1.4287  1.6260
14295SOL     OW44047   2.754   7.527   0.010  0.4768 -0.3128 -0.1603
14295SOL    HW144048   2.750   7.433  -0.012  1.3879 -0.1981 -0.8492
14295SOL    HW244049   2.681   7.540   0.070  1.5288 -1.9049  1.5855
14296SOL     OW44050   3.021   3.124   7.546 -0.9450  0.3507  0.1241
14296SOL    HW144051   3.038   3.034   7.574 -0.0880  0.2939 -0.5324
14296SOL    HW244052   2.927   3.126   7.527 -0.9566 -0.4204  0.0668
14297SOL     OW44053   7.101   7.737   0.140  0.0044 -0.0722 -1.0439
14297SOL    HW144054   7.110   7.664   0.201  2.0288 -0.8122 -2.1352
14297SOL    HW244055   7.135   7.813   0.188 -0.9200 -0.0766 -0.3529
14298SOL     OW44056   7.349   2.473   6.085 -0.2683  0.0006  0.4398
14298SOL    HW144057   7.339   2.484   5.990 -0.3981  1.7358  0.6263
14298SOL    HW244058   7.424   2.415   6.095  0.9690  1.3314 -0.7176
14299SOL     OW44059   2.324   4.911   5.018  0.7289  0.5999 -0.1882
14299SOL    HW144060   2.271   4.874   5.088 -1.5269  1.5939 -1.2823
14299SOL    HW244061   2.348   4.998   5.050  1.2278  0.3759  0.0612
14300SOL     OW44062   1.507   6.537   2.877 -0.1483  0.3346 -0.4354
14300SOL    HW144063   1.466   6.540   2.791 -0.9636  1.6044 -0.0231
14300SOL    HW244064   1.601   6.546   2.860 -0.2021 -0.5074 -1.2470
14301SOL     OW44065   4.416   3.011   7.425  0.0508 -0.1542  0.4110
14301SOL    HW144066   4.368   2.953   7.485  0.1149  0.3167  0.9210
14301SOL    HW244067   4.423   3.094   7.472 -1.1074  0.6644 -0.7939
14302SOL     OW44068   3.661   1.683   6.432 -0.0378  0.2811  0.1866
14302SOL    HW144069   3.720   1.689   6.357 -0.3530  0.3279 -0.0576
14302SOL    HW244070   3.577   1.657   6.395 -0.5116  1.4805  0.3793
14303SOL     OW44071   2.841   5.721   0.278  0.7081  0.0440 -0.1406
14303SOL    HW144072   2.752   5.729   0.242  1.2523 -0.4659 -1.6764
14303SOL    HW244073   2.829   5.673   0.360 -0.4031 -0.3281 -0.4978
14304SOL     OW44074   7.547   6.132   3.081  0.2583  0.1938 -0.3924
14304SOL    HW144075   7.528   6.146   3.174  0.9510 -0.7020 -0.0934
14304SOL    HW244076   7.616   6.065   3.081  2.2260  2.0889 -1.4482
14305SOL     OW44077   1.543   1.313   3.476 -0.0137 -0.2191  0.2829
14305SOL    HW144078   1.515   1.397   3.512  0.3329 -0.4207  1.0666
14305SOL    HW244079   1.632   1.328   3.446  0.1852 -0.3987  0.7753
14306SOL     OW44080   3.322   5.594   7.925 -0.0692 -0.3909 -0.5674
14306SOL    HW144081   3.395   5.639   7.967  0.2045 -1.1716 -0.1919
14306SOL    HW244082   3.357   5.565   7.841 -0.5721  1.0362 -1.3081
14307SOL     OW44083   8.654   2.527   2.365 -0.0475 -0.3269 -0.0209
14307SOL    HW144084   8.587   2.511   2.431  0.0113 -1.8400 -0.2906
14307SOL    HW244085   8.702   2.444   2.359  1.4939  0.5460 -0.2393
14308SOL     OW44086   8.854   8.186   5.859  0.1553  0.1089 -0.2776
14308SOL    HW144087   8.782   8.194   5.796  0.4673 -2.3722 -1.0311
14308SOL    HW244088   8.868   8.276   5.890 -2.0648  0.9294 -1.4257
14309SOL     OW44089   8.119   0.399   1.206 -0.2821  0.1260 -0.2098
14309SOL    HW144090   8.109   0.473   1.146  0.2511 -0.9096 -1.6574
14309SOL    HW244091   8.211   0.402   1.233 -0.0925 -0.3492 -0.7752
14310SOL     OW44092   5.626   2.562   0.573  0.1166 -0.1179 -0.1201
14310SOL    HW144093   5.624   2.618   0.651  0.2879  1.4947 -1.2173
14310SOL    HW244094   5.552   2.503   0.583  0.9241 -0.8746  1.8940
14311SOL     OW44095   6.960   5.451   5.316  0.3048  0.0794  0.2706
14311SOL    HW144096   7.052   5.423   5.308 -0.5285 -2.5531 -1.1220
14311SOL    HW244097   6.942   5.498   5.234  0.7510  1.9923  1.1953
14312SOL     OW44098   5.931   3.360   0.893 -0.2419  0.5897 -0.1711
14312SOL    HW144099   5.873   3.361   0.969 -0.8146  1.8775 -0.5924
14312SOL    HW244100   5.879   3.318   0.824 -0.0232  0.1605 -0.0773
14313SOL     OW44101   7.180   0.484   2.728 -0.1733  0.0924 -0.4397
14313SOL    HW144102   7.135   0.430   2.793  0.2638 -0.5478 -0.6577
14313SOL    HW244103   7.268   0.446   2.721  0.0406  0.6372 -0.8320
14314SOL     OW44104   6.769   6.237   4.408  0.2097  0.6487  0.1549
14314SOL    HW144105   6.856   6.258   4.442  0.8609 -0.8590 -0.4796
14314SOL    HW244106   6.753   6.147   4.439 -0.5238  0.4108 -0.8777
14315SOL     OW44107   7.240   2.097   0.500  0.4532  0.5324  0.4400
14315SOL    HW144108   7.281   2.123   0.583  0.7043  0.3551  0.3742
14315SOL    HW244109   7.299   2.132   0.433 -0.8898  2.6066  0.2733
14316SOL     OW44110   6.475   4.005   6.880  0.1232 -0.3601  0.3560
14316SOL    HW144111   6.444   4.033   6.966  1.1067  0.5440  0.4306
14316SOL    HW244112   6.512   4.084   6.840 -0.3959 -0.7437 -0.9403
14317SOL     OW44113   0.153   5.810   0.214 -0.1733  0.2054  1.1009
14317SOL    HW144114   0.238   5.790   0.173 -0.9439 -0.1844 -0.3808
14317SOL    HW244115   0.174   5.874   0.282  1.1400  1.1024 -0.0912
14318SOL     OW44116   6.160   6.676   0.008  0.1146 -0.3810 -0.1604
14318SOL    HW144117   6.144   6.767   0.033 -0.8870 -0.7460  0.5732
14318SOL    HW244118   6.193   6.681  -0.081  0.3798  0.7246 -0.0130
14319SOL     OW44119   4.761   2.071   3.827 -0.1615 -0.0749  0.1645
14319SOL    HW144120   4.696   2.118   3.878  0.0774  0.8498 -0.3638
14319SOL    HW244121   4.729   2.074   3.737  0.5749  0.3463 -0.0943
14320SOL     OW44122   8.397   8.388   5.607  0.4689 -0.3204 -0.0123
14320SOL    HW144123   8.344   8.396   5.528 -0.8062  1.0322  0.9117
14320SOL    HW244124   8.445   8.306   5.596 -2.3692 -2.0375 -0.6243
14321SOL     OW44125   1.108   3.044   8.360 -0.4486  0.2269  0.1346
14321SOL    HW144126   1.161   2.967   8.380 -1.6528 -1.9097 -3.8189
14321SOL    HW244127   1.028   3.031   8.411 -0.3469 -0.8038  0.0651
14322SOL     OW44128   3.846   4.033   8.689  0.0963  0.2485 -0.0473
14322SOL    HW144129   3.933   4.036   8.651 -0.0361 -1.1266 -0.5217
14322SOL    HW244130   3.855   3.974   8.765 -0.9385 -2.2095 -1.7015
14323SOL     OW44131   5.237   3.675   0.068 -0.0356  0.3145  0.3196
14323SOL    HW144132   5.282   3.725   0.136  1.3269 -0.6284  0.1621
14323SOL    HW244133   5.295   3.682  -0.008 -1.6023  1.4763 -0.8350
14324SOL     OW44134   7.492   3.786   5.894 -0.3328  0.7139  0.0318
14324SOL    HW144135   7.451   3.761   5.811 -1.8357  0.7134  0.7272
14324SOL    HW244136   7.468   3.878   5.906 -1.5913  0.2701  1.2342
14325SOL     OW44137   4.887   1.349   0.221  0.3412  0.1759 -1.0539
14325SOL    HW144138   4.899   1.281   0.288 -1.6271 -1.6602 -2.4296
14325SOL    HW244139   4.867   1.428   0.270  2.5065 -0.1972  0.6092
14326SOL     OW44140   8.524   3.124   5.923 -0.4230  0.2209 -0.3408
14326SOL    HW144141   8.498   3.194   5.864  0.1309  0.8866  0.1866
14326SOL    HW244142   8.488   3.149   6.008 -0.6292 -0.3767 -0.2466
14327SOL     OW44143   0.452   5.643   6.137 -0.3567 -0.2224  0.1232
14327SOL    HW144144   0.532   5.677   6.177 -0.6354  1.3702 -0.5738
14327SOL    HW244145   0.470   5.645   6.043 -1.2198  0.1871 -0.0401
14328SOL     OW44146   6.432   7.704   6.710  0.1441  0.2991  0.0690
14328SOL    HW144147   6.378   7.773   6.671 -0.6643  0.4636  1.4253
14328SOL    HW244148   6.502   7.690   6.646 -0.1624  1.7559 -0.6348
14329SOL     OW44149   3.630   4.486   1.161 -0.2549  0.1681  0.2289
14329SOL    HW144150   3.664   4.445   1.081  0.3334 -1.5461  1.3165
14329SOL    HW244151   3.536   4.465   1.160 -0.1721 -0.2047  0.1906
14330SOL     OW44152   5.771   6.199   4.425 -0.2989 -0.3983 -0.0561
14330SOL    HW144153   5.862   6.219   4.448 -0.7206  1.6070  0.0302
14330SOL    HW244154   5.748   6.265   4.359 -1.6718 -0.9061 -0.1065
14331SOL     OW44155   1.601   7.915   7.335  0.0742  0.0788 -0.3813
14331SOL    HW144156   1.671   7.870   7.288 -0.5700 -1.3388 -0.0417
14331SOL    HW244157   1.641   7.996   7.366  0.9849  0.2608 -1.9015
14332SOL     OW44158   3.855   4.679   4.399 -0.1221  1.0770 -0.0172
14332SOL    HW144159   3.877   4.727   4.479  0.2109 -0.4575  0.8437
14332SOL    HW244160   3.824   4.747   4.339 -1.0396  2.2030  1.6286
14333SOL     OW44161   7.259   1.887   6.334  0.4160  0.3695  0.2407
14333SOL    HW144162   7.169   1.862   6.355 -0.5099  2.6281 -0.6198
14333SOL    HW244163   7.305   1.884   6.417 -0.5986 -0.2893  0.8021
14334SOL     OW44164   4.919   1.759   6.635  0.0877  0.5209  0.0459
14334SOL    HW144165   4.870   1.716   6.705 -0.2842 -1.3977 -1.3167
14334SOL    HW244166   4.861   1.829   6.605 -0.9523 -0.3886 -0.1490
14335SOL     OW44167   8.537   8.750   7.769  0.4560  0.0150 -0.1211
14335SOL    HW144168   8.579   8.824   7.812  0.3340 -0.7303  1.3537
14335SOL    HW244169   8.558   8.675   7.825 -5.0320 -0.0595  2.4507
14336SOL     OW44170   1.192   1.650   1.043 -0.4210  0.4243  0.2567
14336SOL    HW144171   1.261   1.596   1.006 -0.1190  0.0194  1.3965
14336SOL    HW244172   1.124   1.653   0.974  0.9292  1.3053 -1.1155
14337SOL     OW44173   5.688   8.553   8.332  0.6826 -0.4189  0.0809
14337SOL    HW144174   5.631   8.538   8.257  0.1033  0.1067  0.4040
14337SOL    HW244175   5.719   8.643   8.321  0.0188 -0.0865  0.8414
14338SOL     OW44176   7.383   3.612   4.175  0.3063 -0.0519  0.2318
14338SOL    HW144177   7.341   3.667   4.240 -0.0170  3.2484 -2.4810
14338SOL    HW244178   7.317   3.546   4.154 -1.2093  1.3444  0.3875
14339SOL     OW44179   2.664   6.864   1.494  0.4726  0.0578 -0.9861
14339SOL    HW144180   2.751   6.899   1.515  0.7959 -0.8016 -0.8525
14339SOL    HW244181   2.670   6.771   1.514 -0.2086 -0.1860 -1.8566
14340SOL     OW44182   3.951   6.206   5.613  0.1951  0.3485  0.4124
14340SOL    HW144183   4.041   6.198   5.583 -0.0557 -1.4999  0.0651
14340SOL    HW244184   3.958   6.218   5.708  0.8088  0.4342  0.3603
14341SOL     OW44185   0.906   7.053   8.320  0.1764  0.0766 -0.0111
14341SOL    HW144186   0.997   7.025   8.314  0.5451  0.9396  1.2435
14341SOL    HW244187   0.872   7.009   8.399  0.6170  2.6181  1.7013
14342SOL     OW44188   7.011   6.825   2.438 -0.8792 -0.5912 -0.0962
14342SOL    HW144189   6.982   6.862   2.354 -2.3345  1.4513  1.1850
14342SOL    HW244190   6.963   6.742   2.446 -2.8735  0.4785 -0.1644
14343SOL     OW44191   6.399   5.185   3.956  0.7659 -0.8076 -0.6186
14343SOL    HW144192   6.468   5.233   4.002  0.6141 -1.4513  0.3145
14343SOL    HW244193   6.319   5.204   4.006  0.6540 -1.7748 -0.4047
14344SOL     OW44194   8.468   0.975   0.401 -0.6786  0.6698  0.2217
14344SOL    HW144195   8.551   0.944   0.438 -1.6323 -1.1508  1.0042
14344SOL    HW244196   8.410   0.898   0.406 -2.1919  1.6806 -0.9624
14345SOL     OW44197   6.304   8.233   6.285 -0.4179  0.3342  0.2966
14345SOL    HW144198   6.290   8.327   6.284  0.0605  0.4522  1.7767
14345SOL    HW244199   6.218   8.195   6.305 -0.9331  0.3381 -1.7511
14346SOL     OW44200   0.083   7.385   8.294  0.7125  0.1337  0.4081
14346SOL    HW144201   0.107   7.433   8.374 -0.5764 -0.7275  1.3353
14346SOL    HW244202   0.127   7.434   8.224  2.0760  0.7726  1.6392
14347SOL     OW44203   2.409   5.943   8.272 -0.7036 -0.2343 -0.1218
14347SOL    HW144204   2.439   5.978   8.188  0.9228 -0.7752  0.1966
14347SOL    HW244205   2.473   5.975   8.336 -1.1998 -0.8656  0.7143
14348SOL     OW44206   7.987   2.710   6.737  0.2484 -0.2873 -0.0495
14348SOL    HW144207   7.956   2.757   6.660 -0.3546  2.9786  1.9762
14348SOL    HW244208   7.991   2.777   6.806  1.9330 -2.7408  2.4643
14349SOL     OW44209   0.941   2.877   0.035 -0.3654 -0.1470 -0.1320
14349SOL    HW144210   0.911   2.820   0.105  0.3146  0.6501  0.8435
14349SOL    HW244211   0.908   2.837  -0.045  0.0790 -1.8823  0.5182
14350SOL     OW44212   4.022   8.209   7.050  0.1432 -0.4334 -0.4156
14350SOL    HW144213   4.000   8.116   7.060  0.9781 -0.5207  0.8046
14350SOL    HW244214   4.117   8.211   7.051  0.2370  0.1615 -3.3945
14351SOL     OW44215   4.132   0.433   6.089  0.6535  0.3580 -0.3412
14351SOL    HW144216   4.217   0.389   6.080 -0.4159 -1.8680 -0.3104
14351SOL    HW244217   4.069   0.371   6.051 -1.2309  0.9016  1.6804
14352SOL     OW44218   5.966   4.246   7.477  0.5616  0.1599 -0.5280
14352SOL    HW144219   5.946   4.338   7.495  0.4069  0.2915 -1.3066
14352SOL    HW244220   5.966   4.241   7.381  0.0819 -0.7552 -0.4819
14353SOL     OW44221   5.134   2.254   8.773  0.2247 -0.0317  0.0104
14353SOL    HW144222   5.050   2.300   8.777  0.7467  0.9604  0.0692
14353SOL    HW244223   5.194   2.310   8.823  0.7253 -1.1695  0.7305
14354SOL     OW44224   6.386   4.105   5.668 -0.2187 -0.3706 -0.0869
14354SOL    HW144225   6.455   4.060   5.715 -0.2656 -0.7729 -0.4018
14354SOL    HW244226   6.307   4.053   5.686 -0.4280  0.0423  0.2103
14355SOL     OW44227   0.935   8.821   6.993  0.2910  0.3979  0.5399
14355SOL    HW144228   0.970   8.809   6.905 -0.2435  0.4836  0.3122
14355SOL    HW244229   0.896   8.909   6.991  2.1249  1.2969  1.4885
14356SOL     OW44230   0.038   8.353   0.569 -0.1087  0.1958  0.3652
14356SOL    HW144231  -0.039   8.406   0.588 -0.3217 -0.4425  1.3784
14356SOL    HW244232   0.110   8.398   0.614  0.4752  1.6982 -1.9157
14357SOL     OW44233   6.987   0.879   4.707 -0.0469  0.0738  0.1827
14357SOL    HW144234   6.910   0.890   4.651  0.4499  0.1620 -0.5008
14357SOL    HW244235   7.040   0.957   4.690  0.0147  0.2104  0.9524
14358SOL     OW44236   5.299   2.374   8.535  0.3613 -0.0752  0.4382
14358SOL    HW144237   5.269   2.338   8.619  2.9949 -1.6236  0.8032
14358SOL    HW244238   5.362   2.310   8.502  1.7880  2.0289 -1.1854
14359SOL     OW44239   0.057   5.390   2.728 -0.7513 -0.7722 -0.0021
14359SOL    HW144240  -0.030   5.355   2.747 -0.6801 -1.1838 -0.4134
14359SOL    HW244241   0.063   5.469   2.782 -1.5079 -0.5527 -0.2169
14360SOL     OW44242   0.707   0.422   2.706  0.0327  0.1659 -0.1966
14360SOL    HW144243   0.708   0.326   2.702  0.7813  0.1862 -0.7566
14360SOL    HW244244   0.654   0.448   2.631 -1.5516  0.1762  0.8755
14361SOL     OW44245   3.705   2.107   0.485  0.2599 -0.1250  0.1403
14361SOL    HW144246   3.620   2.072   0.461 -0.2603  0.4201  1.1076
14361SOL    HW244247   3.689   2.200   0.502  1.1366  0.0788 -0.1046
14362SOL     OW44248   6.460   0.648   7.212  0.2571  0.2772 -0.6639
14362SOL    HW144249   6.441   0.734   7.250 -0.7844  0.4565 -1.5183
14362SOL    HW244250   6.374   0.613   7.190  0.7019 -0.8089 -0.7152
14363SOL     OW44251   2.547   1.965   2.098 -0.0605 -0.8679  0.2764
14363SOL    HW144252   2.512   2.053   2.094  0.0099 -0.8447  0.1352
14363SOL    HW244253   2.627   1.969   2.046 -0.1645 -1.0631  0.0979
14364SOL     OW44254   1.631   7.217   5.086  0.5707 -0.4139 -0.1825
14364SOL    HW144255   1.563   7.152   5.065 -1.0584 -0.1818  3.6146
14364SOL    HW244256   1.710   7.182   5.045 -0.8967 -3.1429 -0.9654
14365SOL     OW44257   5.649   3.204   8.855 -0.1082 -1.0118  0.1638
14365SOL    HW144258   5.587   3.155   8.800 -0.9237 -1.0266  1.0738
14365SOL    HW244259   5.593   3.257   8.911  0.7410  0.0779  0.0134
14366SOL     OW44260   1.754   3.982   1.293  0.3454 -0.2663 -0.2519
14366SOL    HW144261   1.728   4.014   1.207 -0.4957  0.1684  0.1505
14366SOL    HW244262   1.744   4.058   1.351  0.8927 -0.5572  0.2350
14367SOL     OW44263   7.151   5.335   7.862 -0.6925 -0.5871  0.1166
14367SOL    HW144264   7.137   5.429   7.858 -3.1013 -0.7618  1.8602
14367SOL    HW244265   7.165   5.317   7.956  0.7385 -1.8762 -0.2950
14368SOL     OW44266   2.026   1.841   2.090 -0.0165 -0.0610 -0.3289
14368SOL    HW144267   1.994   1.764   2.044 -0.7154  0.2783 -0.4169
14368SOL    HW244268   2.118   1.848   2.065  0.3550 -1.4963  0.5311
14369SOL     OW44269   0.018   2.221   0.954  0.0482 -0.1536 -0.0982
14369SOL    HW144270   0.006   2.315   0.945 -2.1912 -0.5115 -1.4074
14369SOL    HW244271  -0.045   2.194   1.020 -0.9907 -1.0062 -1.3752
14370SOL     OW44272   4.993   5.520   2.308 -0.3669 -0.8838 -0.2232
14370SOL    HW144273   5.016   5.498   2.399 -0.3110 -0.6288 -0.1760
14370SOL    HW244274   5.016   5.612   2.299 -0.1640 -0.9668 -0.5661
14371SOL     OW44275   6.233   5.769   7.374  0.4593 -0.4435  0.2391
14371SOL    HW144276   6.152   5.804   7.411 -0.1653 -0.4783 -1.0470
14371SOL    HW244277   6.223   5.674   7.382  1.6350 -0.4287  2.6420
14372SOL     OW44278   2.530   7.965   7.716 -0.2771 -0.2215  0.0763
14372SOL    HW144279   2.561   7.878   7.740  0.3537  0.0880  0.3941
14372SOL    HW244280   2.594   8.025   7.754 -1.1867  0.4252  0.6221
14373SOL     OW44281   3.701   7.536   8.764 -0.1439  0.0187  0.1234
14373SOL    HW144282   3.612   7.505   8.745  0.1227 -0.9188  0.3448
14373SOL    HW244283   3.751   7.456   8.780  0.6608  0.5584  0.3596
14374SOL     OW44284   3.980   1.485   7.083  0.0946  0.2401 -0.3382
14374SOL    HW144285   3.983   1.451   6.993  0.4024  0.1261 -0.2878
14374SOL    HW244286   4.072   1.487   7.111 -0.0408 -0.2652  0.1729
14375SOL     OW44287   1.059   5.376   3.653 -0.5188  0.0770  0.4269
14375SOL    HW144288   1.063   5.293   3.607 -2.7758 -0.1828  0.5731
14375SOL    HW244289   1.127   5.430   3.613  1.5460 -2.0407  0.8677
14376SOL     OW44290   6.920   2.486   0.237 -0.1969  0.0441 -0.5445
14376SOL    HW144291   6.916   2.427   0.162  3.2848 -0.2938 -0.6043
14376SOL    HW244292   6.998   2.539   0.223 -0.4266  1.2201  1.9907
14377SOL     OW44293   6.905   6.639   6.681  0.2896  0.1582 -0.4346
14377SOL    HW144294   6.985   6.588   6.682  0.9368  0.9350 -3.1006
14377SOL    HW244295   6.874   6.639   6.771  2.3038 -1.6708  0.3184
14378SOL     OW44296   4.782   6.705   4.384  0.1626  0.1815  0.0285
14378SOL    HW144297   4.835   6.728   4.307  2.3945 -1.0734  1.1085
14378SOL    HW244298   4.768   6.611   4.376 -1.9816  0.4794 -0.2167
14379SOL     OW44299   0.528   8.313   4.683  0.3094 -0.0567  0.5727
14379SOL    HW144300   0.453   8.371   4.692  0.2671  0.0451 -0.3049
14379SOL    HW244301   0.493   8.225   4.697 -0.4130 -0.2091 -1.6990
14380SOL     OW44302   0.812   4.426   6.667  0.1531  0.2233 -0.0596
14380SOL    HW144303   0.756   4.349   6.665 -0.4611  0.6787 -1.0459
14380SOL    HW244304   0.809   4.456   6.758 -0.4483 -0.3069  0.0942
14381SOL     OW44305   5.462   5.633   6.833  0.1321  0.1147  0.2975
14381SOL    HW144306   5.516   5.579   6.776  0.9274  0.3775  0.7885
14381SOL    HW244307   5.372   5.614   6.806  0.4430 -0.7127 -0.1899
14382SOL     OW44308   7.620   6.342   7.202 -0.1066 -0.1892  0.2870
14382SOL    HW144309   7.528   6.338   7.178  0.1451 -0.8118 -0.6432
14382SOL    HW244310   7.645   6.433   7.184 -0.4226 -0.1415  0.0816
14383SOL     OW44311   0.431   8.284   7.639  0.0621  0.4348 -0.0441
14383SOL    HW144312   0.386   8.306   7.558 -0.0096  1.2419  0.2062
14383SOL    HW244313   0.467   8.367   7.670  1.6836 -0.1644 -0.2081
14384SOL     OW44314   0.431   2.221   1.238  0.0891  0.4024  0.0583
14384SOL    HW144315   0.339   2.245   1.245 -0.0792  0.5766 -1.9920
14384SOL    HW244316   0.438   2.178   1.152  1.6490 -0.9091  0.7899
14385SOL     OW44317   1.410   5.589   1.805  0.7251  0.2496 -0.2481
14385SOL    HW144318   1.391   5.667   1.857 -1.2023 -1.5479  1.9290
14385SOL    HW244319   1.343   5.590   1.736  0.7503  0.5343 -0.2723
14386SOL     OW44320   4.669   7.541   0.154 -0.0203 -0.0727 -0.2541
14386SOL    HW144321   4.728   7.472   0.123 -0.8773 -1.8802  1.8257
14386SOL    HW244322   4.718   7.622   0.141  1.7129 -1.2134 -1.2773
14387SOL     OW44323   7.674   4.666   8.429 -0.0781 -1.0190  0.2243
14387SOL    HW144324   7.649   4.737   8.488 -0.7507  0.0132 -1.2495
14387SOL    HW244325   7.619   4.592   8.455 -1.4400 -0.1305 -0.0593
14388SOL     OW44326   5.780   5.143   3.412  0.1437 -0.0725  0.1849
14388SOL    HW144327   5.685   5.131   3.413 -0.0793  1.3428 -0.7118
14388SOL    HW244328   5.805   5.139   3.320  0.5116  2.2627  0.1089
14389SOL     OW44329   1.085   3.901   1.463 -0.1986 -0.1629 -0.5787
14389SOL    HW144330   1.115   3.921   1.374  1.6930 -0.7851 -0.1333
14389SOL    HW244331   1.072   3.986   1.504  1.6008  0.1836 -0.6457
14390SOL     OW44332   3.962   7.847   8.838  0.3213 -0.1190 -0.3571
14390SOL    HW144333   4.050   7.856   8.801  1.9186  0.8323  3.1593
14390SOL    HW244334   3.965   7.764   8.886 -1.1681 -0.6716 -1.1560
14391SOL     OW44335   0.286   3.386   2.885 -0.0131 -0.0627  0.1921
14391SOL    HW144336   0.280   3.298   2.849  0.8825  0.6992 -1.9509
14391SOL    HW244337   0.377   3.394   2.914  0.2521  0.5244 -0.7435
14392SOL     OW44338   1.247   3.762   6.625  0.1694  0.7961  0.1848
14392SOL    HW144339   1.251   3.841   6.681  1.7993  0.6476  0.3041
14392SOL    HW244340   1.217   3.795   6.540  1.4430  1.6651  0.0507
14393SOL     OW44341   1.682   6.022   5.294 -0.2667 -0.1151 -0.2244
14393SOL    HW144342   1.721   5.965   5.360  0.0242  1.0720  0.6684
14393SOL    HW244343   1.683   5.970   5.213 -1.2599 -1.8583  0.8218
14394SOL     OW44344   6.116   1.621   1.371  0.0029 -0.0225  0.2848
14394SOL    HW144345   6.053   1.568   1.323  0.0348  0.6142 -0.4778
14394SOL    HW244346   6.138   1.692   1.311  1.5105 -0.2703  0.5090
14395SOL     OW44347   0.464   5.053   0.744  0.1864  0.2148  0.4190
14395SOL    HW144348   0.418   5.051   0.828  1.8709 -0.1681  1.3787
14395SOL    HW244349   0.463   5.145   0.719  1.1373  0.6013  1.7253
14396SOL     OW44350   1.931   3.886   5.049  0.3249  0.8347 -0.9399
14396SOL    HW144351   1.939   3.981   5.045 -1.3311  1.1154  0.7570
14396SOL    HW244352   1.929   3.866   5.143  1.8115 -1.0275 -1.2374
14397SOL     OW44353   2.826   0.896   6.183  0.0600  0.1419 -0.4268
14397SOL    HW144354   2.856   0.885   6.092 -1.7972 -0.4044 -1.0129
14397SOL    HW244355   2.907   0.900   6.234  1.1508  0.1707 -2.0615
14398SOL     OW44356   5.725   1.913   1.551 -0.2219 -0.4952 -0.3810
14398SOL    HW144357   5.805   1.954   1.585 -0.7795  0.8353 -0.5818
14398SOL    HW244358   5.709   1.959   1.468 -0.1762 -2.0477 -1.2727
14399SOL     OW44359   2.170   2.879   3.655 -0.0890  0.5293 -0.1926
14399SOL    HW144360   2.218   2.920   3.727  0.7061  0.1958 -0.5156
14399SOL    HW244361   2.238   2.838   3.601 -0.8027 -0.5882 -0.2754
14400SOL     OW44362   4.962   4.513   6.352 -0.3284  0.4901 -0.0727
14400SOL    HW144363   4.938   4.596   6.312  0.4198  0.9302  0.3844
14400SOL    HW244364   4.914   4.447   6.301  0.1783  1.0796 -1.3454
14401SOL     OW44365   1.424   1.429   0.799 -0.0155  0.3661  0.2660
14401SOL    HW144366   1.365   1.502   0.780  0.0283  0.3965  0.2463
14401SOL    HW244367   1.439   1.433   0.893  1.4745  1.5215  0.0162
14402SOL     OW44368   8.180   6.154   1.802 -0.3940  0.3109  0.5321
14402SOL    HW144369   8.252   6.098   1.774 -1.3667 -0.3440 -0.8224
14402SOL    HW244370   8.222   6.234   1.833  0.9429 -0.4560  0.7502
14403SOL     OW44371   2.924   2.703   6.110 -0.2409 -0.1882  0.5395
14403SOL    HW144372   2.931   2.705   6.206  1.6531 -1.3314  0.4648
14403SOL    HW244373   2.962   2.785   6.081 -0.9922  0.2471  0.7557
14404SOL     OW44374   6.532   6.943   5.011 -0.6180  0.1403  0.2259
14404SOL    HW144375   6.509   7.006   4.943 -0.3184 -0.3200 -0.3108
14404SOL    HW244376   6.596   6.885   4.970 -0.2326  0.0156  0.9877
14405SOL     OW44377   5.237   5.951   4.310  0.4041  0.6937  0.4753
14405SOL    HW144378   5.285   5.927   4.230  0.2151  1.4073  0.1426
14405SOL    HW244379   5.235   5.870   4.362 -1.6875 -0.5730 -1.3673
14406SOL     OW44380   4.192   8.378   3.662 -0.2022 -0.7197 -0.1237
14406SOL    HW144381   4.284   8.386   3.688  0.5166 -0.7887 -2.4218
14406SOL    HW244382   4.183   8.439   3.588 -2.1832 -0.2520  0.4641
14407SOL     OW44383   4.177   4.274   7.012  0.4382  0.7474  0.2835
14407SOL    HW144384   4.259   4.285   6.963 -1.9854  0.4972 -4.4557
14407SOL    HW244385   4.160   4.361   7.049  2.5517  0.9214  0.9591
14408SOL     OW44386   7.216   1.707   5.532 -0.4171 -0.4207  0.0215
14408SOL    HW144387   7.201   1.623   5.576  1.6588 -0.1792  1.3301
14408SOL    HW244388   7.291   1.692   5.474 -0.1115  0.4631  0.1596
14409SOL     OW44389   7.050   8.773   0.647 -0.4816 -0.0061 -0.0705
14409SOL    HW144390   7.032   8.688   0.608 -2.0556  0.3031 -0.0895
14409SOL    HW244391   7.071   8.754   0.739  0.2710 -0.4816 -0.3290
14410SOL     OW44392   8.066   3.565   8.422  0.2952 -0.0301 -0.2132
14410SOL    HW144393   8.142   3.509   8.410  1.5833  1.0144  2.2700
14410SOL    HW244394   7.994   3.505   8.439  0.9587 -0.9935 -0.7250
14411SOL     OW44395   1.465   2.541   7.113 -0.1763 -0.4857  0.1559
14411SOL    HW144396   1.498   2.625   7.147  0.3999 -0.2886 -0.8557
14411SOL    HW244397   1.496   2.476   7.177  1.3946 -0.1914 -0.2458
14412SOL     OW44398   0.154   6.464   0.461  0.5195  0.1859  0.4365
14412SOL    HW144399   0.158   6.526   0.533  0.5356  0.0049  0.5914
14412SOL    HW244400   0.061   6.447   0.448  0.5663 -0.9049  1.3847
14413SOL     OW44401   8.826   0.137   5.083 -0.2338 -0.0723  0.3328
14413SOL    HW144402   8.782   0.060   5.118 -1.1357 -0.2030 -1.0160
14413SOL    HW244403   8.764   0.209   5.100  0.0802  0.1545  0.5275
14414SOL     OW44404   8.681   5.666   0.956  0.2083  0.0873  0.3645
14414SOL    HW144405   8.709   5.591   1.008  0.2303 -0.5029 -0.4706
14414SOL    HW244406   8.586   5.667   0.965  0.2154  0.0141  0.4493
14415SOL     OW44407   8.690   4.371   6.633 -0.4090 -0.1983 -0.4882
14415SOL    HW144408   8.605   4.331   6.652  0.0751 -1.3625 -0.6394
14415SOL    HW244409   8.670   4.451   6.586 -1.3898 -1.5189 -2.4730
14416SOL     OW44410   3.138   6.931   3.715  0.1379  0.5092  0.5689
14416SOL    HW144411   3.118   6.856   3.771  0.8192  1.4544  2.1522
14416SOL    HW244412   3.067   6.993   3.731 -0.1476  0.4290 -0.3364
14417SOL     OW44413   4.867   5.536   0.123 -0.2801 -0.3103 -0.0137
14417SOL    HW144414   4.779   5.573   0.114  0.4647  1.4714 -0.2494
14417SOL    HW244415   4.922   5.588   0.065  1.4988  0.5458  2.2698
14418SOL     OW44416   0.922   0.571   2.771 -0.2418 -0.6580  0.1422
14418SOL    HW144417   0.937   0.625   2.693 -0.1061 -1.1759 -0.1977
14418SOL    HW244418   0.852   0.511   2.745  0.0085 -1.0277  0.3210
14419SOL     OW44419   4.319   0.529   2.864 -0.1327 -0.0274 -0.1940
14419SOL    HW144420   4.287   0.461   2.804 -0.4923 -1.0605  1.1193
14419SOL    HW244421   4.411   0.540   2.841 -0.4511  0.1746 -1.4440
14420SOL     OW44422   3.968   7.348   5.676  0.0064 -0.2500  0.3118
14420SOL    HW144423   3.892   7.328   5.621 -1.1201  0.9776  1.3551
14420SOL    HW244424   3.984   7.441   5.661  0.6191 -0.2462  0.9510
14421SOL     OW44425   7.581   6.583   8.834 -0.3052 -0.5847 -0.0219
14421SOL    HW144426   7.603   6.522   8.763 -0.5899  0.3537 -0.9326
14421SOL    HW244427   7.500   6.548   8.871  0.4042 -1.6798  0.5753
14422SOL     OW44428   7.305   7.615   5.549 -0.1922  0.4103 -0.1386
14422SOL    HW144429   7.313   7.552   5.477  1.3583  0.6683 -0.2191
14422SOL    HW244430   7.281   7.697   5.506  0.4678  0.5018 -0.3367
14423SOL     OW44431   7.001   3.207   7.821  0.3574  0.0596 -0.7456
14423SOL    HW144432   6.931   3.271   7.833  0.2747  0.0698 -1.2681
14423SOL    HW244433   6.976   3.134   7.877 -0.6675 -0.4172 -1.7838
14424SOL     OW44434   4.261   6.996   4.323 -0.2923  0.1886 -0.0354
14424SOL    HW144435   4.240   7.087   4.344  0.0715  0.0540  0.9365
14424SOL    HW244436   4.200   6.944   4.374  0.2280 -0.1338  0.2719
14425SOL     OW44437   7.137   5.257   8.311 -0.6946  0.4342 -0.2230
14425SOL    HW144438   7.061   5.307   8.281 -0.4500  0.4696 -0.8021
14425SOL    HW244439   7.192   5.247   8.233  0.1656  0.8817  0.3034
14426SOL     OW44440   2.236   5.912   8.635  0.1291 -0.0899  0.1790
14426SOL    HW144441   2.204   5.912   8.544  2.3374 -0.4040 -0.6788
14426SOL    HW244442   2.290   5.991   8.641  1.8331 -1.2133  0.4574
14427SOL     OW44443   7.630   4.421   6.041  0.2212  0.2436  0.3107
14427SOL    HW144444   7.566   4.492   6.046  0.3562  0.3587  0.4125
14427SOL    HW244445   7.615   4.369   6.120 -0.4180 -0.3070 -0.1612
14428SOL     OW44446   7.298   5.204   8.098 -0.6460  0.3900  0.1734
14428SOL    HW144447   7.380   5.252   8.108 -0.2185 -0.2445 -0.2628
14428SOL    HW244448   7.323   5.120   8.060 -1.5183  0.2598 -0.1403
14429SOL     OW44449   2.729   3.864   3.257  0.5929 -0.1522 -0.5810
14429SOL    HW144450   2.798   3.901   3.312  0.0344 -1.0789  0.7995
14429SOL    HW244451   2.682   3.940   3.223  1.6740  0.4641 -0.7567
14430SOL     OW44452   2.842   2.723   8.726 -0.3580  0.1106  0.2449
14430SOL    HW144453   2.884   2.772   8.654  0.6236  0.4531  1.0291
14430SOL    HW244454   2.797   2.791   8.777 -0.1915  0.0086  0.5281
14431SOL     OW44455   4.896   3.569   7.467 -0.7515 -0.5063 -0.1198
14431SOL    HW144456   4.979   3.616   7.457 -2.0934  2.1405  0.0971
14431SOL    HW244457   4.917   3.494   7.523  1.2775  0.7016  0.8696
14432SOL     OW44458   0.454   8.826   8.134 -0.4230 -0.3923 -0.5886
14432SOL    HW144459   0.529   8.871   8.094 -0.2082 -1.3616 -1.3447
14432SOL    HW244460   0.444   8.865   8.220 -0.8970  1.7999 -1.5827
14433SOL     OW44461   1.445   0.986   0.711 -0.3223  0.1184 -0.3070
14433SOL    HW144462   1.459   1.036   0.631 -0.0194 -0.8757 -0.8864
14433SOL    HW244463   1.528   0.994   0.759 -1.2646  2.6982  1.0816
14434SOL     OW44464   4.087   7.112   2.407  0.0680 -0.2031 -0.8191
14434SOL    HW144465   4.036   7.049   2.458 -1.0522  2.9494  2.4025
14434SOL    HW244466   4.023   7.151   2.347  0.0204 -0.0979 -0.7012
14435SOL     OW44467   5.654   0.572   3.733  0.1474 -0.4606  0.0857
14435SOL    HW144468   5.605   0.620   3.800  1.3419  0.9106  0.0541
14435SOL    HW244469   5.631   0.616   3.651 -2.2815 -2.9277 -0.6634
14436SOL     OW44470   5.464   0.123   4.185 -0.1124  0.0149  0.1274
14436SOL    HW144471   5.487   0.033   4.208 -0.9127 -0.5487 -1.2245
14436SOL    HW244472   5.399   0.115   4.116 -1.1475  1.6297  0.8610
14437SOL     OW44473   3.310   0.249   3.166 -0.1471  0.1697 -0.0600
14437SOL    HW144474   3.364   0.171   3.151 -0.0106  0.3534 -0.5561
14437SOL    HW244475   3.356   0.296   3.235 -0.2538 -0.2098  0.2730
14438SOL     OW44476   4.078   5.317   7.991 -1.0691 -0.0379  0.2129
14438SOL    HW144477   4.035   5.402   7.991 -0.4090  0.3049  1.2781
14438SOL    HW244478   4.091   5.296   8.084  1.6116  0.1646 -0.0361
14439SOL     OW44479   1.928   2.936   2.779 -0.1499 -0.0548 -0.1482
14439SOL    HW144480   1.963   2.859   2.734 -0.0375 -0.4298  0.5621
14439SOL    HW244481   1.902   2.996   2.709  0.2586 -0.5188 -0.6990
14440SOL     OW44482   3.459   4.099   1.146 -0.3125  0.5267  0.5628
14440SOL    HW144483   3.380   4.066   1.189 -1.2764  2.4604  0.3769
14440SOL    HW244484   3.441   4.092   1.053  0.5656 -0.8627  0.4736
14441SOL     OW44485   1.223   6.933   7.619 -0.2904 -0.1118  0.1952
14441SOL    HW144486   1.212   6.853   7.567 -2.0612 -0.0794  0.4602
14441SOL    HW244487   1.286   6.909   7.687  0.6431 -0.7060 -0.8454
14442SOL     OW44488   7.367   4.722   5.950 -0.0260  0.5251  0.4586
14442SOL    HW144489   7.443   4.684   5.905 -0.7185 -0.3341  0.0019
14442SOL    HW244490   7.361   4.811   5.916  1.8350  1.2264  1.8030
14443SOL     OW44491   3.535   8.233   7.367  0.3105 -0.1905 -0.2481
14443SOL    HW144492   3.614   8.179   7.374  0.5257  0.0994 -0.4123
14443SOL    HW244493   3.559   8.316   7.409  0.0430 -0.1566 -0.1633
14444SOL     OW44494   8.550   7.391   5.698 -0.1166  0.2988  0.0873
14444SOL    HW144495   8.541   7.329   5.770  1.3025  0.0551  0.1005
14444SOL    HW244496   8.501   7.468   5.726 -1.4907 -0.6207  0.2925
14445SOL     OW44497   2.097   0.437   5.432  0.2088  0.2517  0.0373
14445SOL    HW144498   2.073   0.514   5.482 -1.3464  0.6320 -1.1998
14445SOL    HW244499   2.079   0.363   5.490  0.1877  0.7485  0.6675
14446SOL     OW44500   1.666   1.871   7.639  0.0198 -0.0461  0.5514
14446SOL    HW144501   1.632   1.957   7.612 -0.2824 -0.1290  0.6667
14446SOL    HW244502   1.722   1.890   7.715  1.3204  0.2606 -0.4368
14447SOL     OW44503   3.996   4.472   7.588 -0.1342  0.4929  0.1958
14447SOL    HW144504   4.007   4.493   7.495 -0.8772  0.3820  0.0809
14447SOL    HW244505   3.903   4.484   7.605 -0.3779 -1.4034  0.4464
14448SOL     OW44506   4.421   1.964   2.699 -0.9423  0.6233  0.0607
14448SOL    HW144507   4.475   2.022   2.753 -1.1412  0.1444  0.7856
14448SOL    HW244508   4.445   1.876   2.728  0.0421  0.2786 -1.6815
14449SOL     OW44509   5.001   7.718   6.343 -0.2097 -0.4949  0.2499
14449SOL    HW144510   4.981   7.812   6.347 -0.1289 -0.4392 -0.5023
14449SOL    HW244511   4.983   7.686   6.432 -0.6027  0.1584  0.4152
14450SOL     OW44512   3.705   8.858   8.050 -0.4554 -0.0842  0.3412
14450SOL    HW144513   3.789   8.821   8.024 -0.1602  0.6270  0.2568
14450SOL    HW244514   3.640   8.802   8.008 -0.0117 -0.1347 -0.2874
14451SOL     OW44515   1.619   7.926   4.435  0.1440  0.3848 -0.0175
14451SOL    HW144516   1.642   7.912   4.343 -0.9030 -0.7575 -0.1326
14451SOL    HW244517   1.547   7.989   4.432 -0.2372 -0.0437 -0.0311
14452SOL     OW44518   8.280   0.227   6.151 -0.4520 -0.3764 -0.1736
14452SOL    HW144519   8.234   0.278   6.083 -0.1041  0.1889  0.0060
14452SOL    HW244520   8.367   0.266   6.154 -0.0830 -1.1846 -0.2320
14453SOL     OW44521   3.246   0.520   6.370 -0.0657 -0.8599  0.0322
14453SOL    HW144522   3.290   0.561   6.295  2.0115 -2.1030  0.5031
14453SOL    HW244523   3.232   0.429   6.342 -1.1524 -0.8200  0.4106
14454SOL     OW44524   5.918   3.915   7.065 -0.8262 -0.3380  0.4505
14454SOL    HW144525   5.900   3.921   6.971 -1.7692  0.9535  0.6854
14454SOL    HW244526   5.852   3.855   7.099 -0.3801 -0.9361  0.2704
14455SOL     OW44527   1.535   5.215   3.033 -0.1779  0.0810 -0.3455
14455SOL    HW144528   1.605   5.265   3.075 -0.8813  0.1194  0.8227
14455SOL    HW244529   1.544   5.126   3.068 -0.0749 -0.1700 -0.9923
14456SOL     OW44530   6.070   7.091   7.268  0.1307 -0.3301  0.5750
14456SOL    HW144531   6.147   7.071   7.216  2.2402  0.5503  3.1220
14456SOL    HW244532   6.002   7.033   7.234  2.0922 -1.6392 -1.3482
14457SOL     OW44533   8.031   8.825   7.901 -0.2153  0.9036  0.6511
14457SOL    HW144534   8.110   8.819   7.847 -2.3433 -0.8510 -2.5454
14457SOL    HW244535   8.025   8.918   7.925  1.4068  1.5609 -1.2766
14458SOL     OW44536   7.467   6.872   3.777  0.4075 -0.4944 -0.6138
14458SOL    HW144537   7.488   6.906   3.864 -2.0672  0.1160 -0.1783
14458SOL    HW244538   7.371   6.870   3.774  0.4040 -0.5123 -3.3367
14459SOL     OW44539   5.120   2.580   4.353 -0.2391 -0.0904  0.2529
14459SOL    HW144540   5.190   2.590   4.289  0.4088 -0.3253  0.9208
14459SOL    HW244541   5.111   2.667   4.392 -0.9184  0.1629 -0.4231
14460SOL     OW44542   6.286   5.093   5.233 -0.2585 -0.3468 -0.2216
14460SOL    HW144543   6.378   5.115   5.249 -0.7158  1.8683 -0.2655
14460SOL    HW244544   6.259   5.152   5.162 -2.4478  1.2168  1.7245
14461SOL     OW44545   3.389   3.915   2.489 -0.5018  0.0271 -0.7302
14461SOL    HW144546   3.377   3.978   2.561 -0.3673 -0.7239 -0.0346
14461SOL    HW244547   3.312   3.858   2.494 -0.2248 -0.3575 -0.8429
14462SOL     OW44548   2.466   5.570   3.959 -0.5076 -0.3147 -0.0919
14462SOL    HW144549   2.382   5.578   4.002 -0.8514 -0.7779 -0.6612
14462SOL    HW244550   2.528   5.614   4.017 -1.2788  0.7839 -0.0952
14463SOL     OW44551   5.057   4.585   0.165  0.7679 -0.1431 -0.8548
14463SOL    HW144552   5.107   4.618   0.239 -0.2682 -0.4396 -0.0031
14463SOL    HW244553   4.994   4.655   0.145  0.5648 -0.3642 -0.9927
14464SOL     OW44554   1.840   0.941   5.356  0.0876  0.0510 -0.2378
14464SOL    HW144555   1.755   0.983   5.345  0.2247  0.2356 -0.6046
14464SOL    HW244556   1.880   0.944   5.269 -0.4488 -2.0420 -0.6121
14465SOL     OW44557   5.681   0.611   6.388  0.6835 -0.2552  0.3052
14465SOL    HW144558   5.748   0.679   6.382  0.2853  0.1432  0.3382
14465SOL    HW244559   5.726   0.536   6.426  1.1981 -0.1045  0.0030
14466SOL     OW44560   2.305   1.012   5.532  0.1298  0.3163 -0.2016
14466SOL    HW144561   2.303   1.104   5.558 -2.2248  0.2036  0.2570
14466SOL    HW244562   2.250   1.008   5.454 -0.1233 -0.7404  0.0195
14467SOL     OW44563   7.126   0.970   8.496 -0.5246 -0.0448 -0.0135
14467SOL    HW144564   7.143   0.876   8.505  0.5395  0.0726 -0.6333
14467SOL    HW244565   7.139   0.988   8.403  1.5525  1.1136  0.4381
14468SOL     OW44566   3.754   4.637   7.549 -0.2348  0.4278 -0.2113
14468SOL    HW144567   3.776   4.699   7.619 -0.6236  0.3216  0.0067
14468SOL    HW244568   3.660   4.623   7.558 -0.5273  1.3864 -1.5612
14469SOL     OW44569   8.239   6.881   8.210 -0.1491 -0.5616 -0.3117
14469SOL    HW144570   8.236   6.918   8.299  0.3158 -1.5894  0.1502
14469SOL    HW244571   8.210   6.952   8.154 -0.4711  0.1098  0.6688
14470SOL     OW44572   6.926   7.356   6.840  0.4506  0.4725 -0.2411
14470SOL    HW144573   6.924   7.283   6.779  0.2815  1.2165 -1.1588
14470SOL    HW244574   7.018   7.363   6.867  0.5975  0.3775 -0.7124
14471SOL     OW44575   2.466   5.459   3.694  0.1980  0.1963  0.5240
14471SOL    HW144576   2.553   5.418   3.699  0.9220  1.3319 -1.4748
14471SOL    HW244577   2.464   5.519   3.768  1.2394  0.3309  0.4693
14472SOL     OW44578   3.351   5.033   3.603  0.5712  0.6028  0.1854
14472SOL    HW144579   3.302   5.050   3.522 -1.4151 -0.4368  1.0941
14472SOL    HW244580   3.325   5.102   3.663 -1.0849 -0.7927  1.1760
14473SOL     OW44581   7.971   4.194   4.950  0.2393 -0.1760 -0.5168
14473SOL    HW144582   8.016   4.124   4.903  0.3466  0.4260 -1.3187
14473SOL    HW244583   8.032   4.268   4.947 -0.2007  0.1950 -0.3449
14474SOL     OW44584   1.853   1.465   0.350  0.0440  0.1539 -0.0204
14474SOL    HW144585   1.881   1.446   0.261  0.2085 -0.4536  0.1556
14474SOL    HW244586   1.864   1.383   0.397  0.2843  0.5585  0.6460
14475SOL     OW44587   5.146   2.844   4.162  0.3018 -0.1145  0.3303
14475SOL    HW144588   5.133   2.833   4.067 -2.6288  0.2715  0.5993
14475SOL    HW244589   5.204   2.772   4.186 -0.1149 -1.1597 -1.5355
14476SOL     OW44590   8.792   6.107   4.063  0.0509 -0.1293 -0.0201
14476SOL    HW144591   8.787   6.132   4.156  1.5767 -2.2283  0.7095
14476SOL    HW244592   8.794   6.190   4.016 -0.0615  1.0082  1.8681
14477SOL     OW44593   6.809   3.004   0.052 -0.2470  0.2556 -0.3437
14477SOL    HW144594   6.772   2.922   0.020 -1.8946  0.6201  0.5149
14477SOL    HW244595   6.851   2.981   0.135  2.6674 -0.3892 -1.8615
14478SOL     OW44596   8.835   2.347   3.328 -0.0834 -0.3589 -0.2318
14478SOL    HW144597   8.815   2.368   3.236 -0.4816  0.2042 -0.0260
14478SOL    HW244598   8.749   2.332   3.368 -0.1177  1.4959  0.5286
14479SOL     OW44599   6.830   4.153   6.082 -0.0768  0.4940 -0.3087
14479SOL    HW144600   6.884   4.178   6.157 -0.3271 -2.1978  0.8898
14479SOL    HW244601   6.893   4.134   6.012  0.3425  0.3506  0.1054
14480SOL     OW44602   3.416   3.355   7.205 -0.6950  0.9276  0.1404
14480SOL    HW144603   3.454   3.371   7.292 -0.2820 -1.4676  0.4641
14480SOL    HW244604   3.326   3.329   7.223 -0.8828  1.3168 -0.2284
14481SOL     OW44605   6.531   3.569   4.155  0.1721  0.6971  0.1175
14481SOL    HW144606   6.539   3.546   4.247 -0.6073 -1.2474 -0.2515
14481SOL    HW244607   6.554   3.488   4.108  0.5058  1.6263 -1.3969
14482SOL     OW44608   4.258   1.445   5.029  0.0584  0.3530 -0.0684
14482SOL    HW144609   4.344   1.468   5.062  0.2010  1.9951 -1.4536
14482SOL    HW244610   4.201   1.444   5.106  0.8746  1.4939  0.5583
14483SOL     OW44611   3.552   8.199   2.279 -0.7416  0.4432 -0.1304
14483SOL    HW144612   3.584   8.236   2.361  2.1838  1.4418 -1.5742
14483SOL    HW244613   3.550   8.274   2.219 -1.4135 -0.5168 -1.3430
14484SOL     OW44614   3.609   2.038   8.244 -0.0304 -0.1486  1.1068
14484SOL    HW144615   3.665   2.067   8.172 -0.3457 -2.3064 -0.0875
14484SOL    HW244616   3.670   2.019   8.315  0.4016  0.7852  1.0047
14485SOL     OW44617   7.324   7.034   3.016 -0.3616  0.5597 -0.3324
14485SOL    HW144618   7.416   7.061   3.018 -0.4195  0.8663 -1.2688
14485SOL    HW244619   7.289   7.064   3.100 -0.3100  3.1061 -1.1238
14486SOL     OW44620   1.396   7.072   4.594  0.6356  0.0731 -0.3769
14486SOL    HW144621   1.307   7.043   4.614  0.6849 -0.2602 -0.6410
14486SOL    HW244622   1.421   7.022   4.517  2.6400 -3.0748  2.0682
14487SOL     OW44623   8.796   6.371   5.984  0.5975  0.1881  0.3850
14487SOL    HW144624   8.701   6.365   5.992  0.6345 -0.8770  0.2199
14487SOL    HW244625   8.820   6.297   5.928  1.3152  1.7081 -1.3971
14488SOL     OW44626   7.457   4.773   4.895  0.3615  0.5787  0.2136
14488SOL    HW144627   7.470   4.713   4.969 -1.3926 -0.6095 -0.3736
14488SOL    HW244628   7.538   4.766   4.844  0.5823 -0.5210  0.6855
14489SOL     OW44629   8.850   5.647   8.353 -0.0723 -0.2353  0.7914
14489SOL    HW144630   8.798   5.652   8.273 -1.6334  0.4148  1.8017
14489SOL    HW244631   8.901   5.567   8.343 -1.3639 -0.9815 -0.2301
14490SOL     OW44632   7.641   4.335   0.171 -0.0311 -1.1142 -0.1547
14490SOL    HW144633   7.734   4.342   0.189  0.0060 -1.9528  0.0003
14490SOL    HW244634   7.602   4.408   0.220  0.5512 -0.6630 -0.3494
14491SOL     OW44635   2.669   6.818   6.273  0.6087 -0.3456 -0.3339
14491SOL    HW144636   2.639   6.848   6.359  3.1435 -1.1283  0.9111
14491SOL    HW244637   2.668   6.723   6.279  0.3672 -0.4177 -1.3678
14492SOL     OW44638   3.110   4.768   5.455 -0.0645 -0.1624  0.2598
14492SOL    HW144639   3.020   4.800   5.450  0.5461  1.4238 -2.6376
14492SOL    HW244640   3.111   4.689   5.402 -0.0385 -1.0719  1.5734
14493SOL     OW44641   0.786   7.607   5.110 -0.6811  0.5177  0.3728
14493SOL    HW144642   0.738   7.690   5.111 -0.1463  0.8338 -0.0413
14493SOL    HW244643   0.868   7.627   5.064 -1.0374 -0.4994 -0.7571
14494SOL     OW44644   3.988   7.886   1.481 -0.4992  0.8212  0.0436
14494SOL    HW144645   3.988   7.793   1.501  1.8747 -0.3850 -4.3335
14494SOL    HW244646   4.063   7.921   1.529  0.8224 -0.3857 -1.0638
14495SOL     OW44647   6.793   5.777   4.588 -0.4343  0.2704 -0.5404
14495SOL    HW144648   6.794   5.820   4.674  0.8843 -0.7218 -0.0313
14495SOL    HW244649   6.812   5.848   4.526  0.8179  0.6210  0.2022
14496SOL     OW44650   6.705   2.604   8.310  0.5088 -0.1385 -0.0573
14496SOL    HW144651   6.615   2.596   8.343  0.4149 -0.3665 -0.3601
14496SOL    HW244652   6.744   2.519   8.329  0.3957 -0.3393 -0.6991
14497SOL     OW44653   7.535   7.025   1.874  0.1579 -0.1085 -0.0030
14497SOL    HW144654   7.550   6.982   1.790  1.3278 -0.4685  0.3721
14497SOL    HW244655   7.613   7.079   1.887 -1.1303  1.9106 -0.3075
14498SOL     OW44656   8.441   2.760   2.532 -0.2593 -0.4894 -0.0670
14498SOL    HW144657   8.415   2.668   2.533 -0.0079 -0.5789 -0.8439
14498SOL    HW244658   8.363   2.807   2.561 -1.0014 -0.8205 -1.4466
14499SOL     OW44659   2.152   3.862   7.108  0.4745 -0.1474  0.1042
14499SOL    HW144660   2.226   3.891   7.162  0.3853  5.1249 -2.0412
14499SOL    HW244661   2.191   3.841   7.023 -0.2108 -0.3855 -0.1621
14500SOL     OW44662   4.620   1.648   5.564  0.7181 -0.3829 -0.1680
14500SOL    HW144663   4.578   1.731   5.544  1.2733  0.0019  0.2298
14500SOL    HW244664   4.627   1.647   5.660  1.7926 -0.3411 -0.2371
14501SOL     OW44665   5.749   8.408   7.504 -0.0251  0.1361  0.0103
14501SOL    HW144666   5.683   8.469   7.470 -2.2907 -1.2584  1.5793
14501SOL    HW244667   5.803   8.460   7.562 -1.8155  0.7762  1.1901
14502SOL     OW44668   2.300   7.764   4.529 -0.4321  0.1312 -0.2656
14502SOL    HW144669   2.358   7.793   4.600  2.2928 -1.0326 -1.8451
14502SOL    HW244670   2.213   7.759   4.569  0.7489  0.7154  2.6280
14503SOL     OW44671   1.483   3.478   5.825 -0.0236 -0.0537 -0.5415
14503SOL    HW144672   1.512   3.390   5.846 -2.4309 -0.8066 -0.0631
14503SOL    HW244673   1.437   3.470   5.742  1.5926  1.2045 -1.6177
14504SOL     OW44674   2.823   5.847   7.544  0.2631 -0.2497 -0.3293
14504SOL    HW144675   2.829   5.937   7.513  0.5456  0.9594  2.9012
14504SOL    HW244676   2.857   5.794   7.471  0.2376  2.2056 -2.2480
14505SOL     OW44677   7.733   8.211   7.785  0.2416  1.5036 -0.8570
14505SOL    HW144678   7.778   8.292   7.809  0.8963  0.9003  0.0231
14505SOL    HW244679   7.803   8.150   7.761  0.0673  0.2170  1.5326
14506SOL     OW44680   4.960   3.761   2.181  0.9152 -0.5115 -0.4065
14506SOL    HW144681   4.948   3.666   2.176 -0.5805 -0.4038  0.4522
14506SOL    HW244682   4.963   3.780   2.275 -0.1321  0.4200 -0.5363
14507SOL     OW44683   2.577   6.697   3.563 -0.6900  0.1652 -0.5739
14507SOL    HW144684   2.663   6.668   3.531 -0.3595  1.1220 -0.6134
14507SOL    HW244685   2.515   6.666   3.497 -0.5123 -1.4300 -0.0180
14508SOL     OW44686   5.827   7.571   1.774  0.3903  0.4316  0.4720
14508SOL    HW144687   5.833   7.486   1.731 -0.2193  0.1962  0.8369
14508SOL    HW244688   5.871   7.558   1.859  1.8223  0.9652 -0.1591
14509SOL     OW44689   8.337   5.039   7.215 -0.8083  0.3926  0.1554
14509SOL    HW144690   8.312   5.038   7.123  1.3865 -1.4628 -0.5288
14509SOL    HW244691   8.290   5.113   7.252 -1.6980  1.2558 -2.4632
14510SOL     OW44692   0.272   6.412   3.879  0.3098 -0.0845  0.3381
14510SOL    HW144693   0.246   6.502   3.859 -1.9214 -0.6377  0.4570
14510SOL    HW244694   0.220   6.358   3.819 -0.1084 -1.3702  1.7788
14511SOL     OW44695   8.706   2.380   0.128  0.2926 -0.3702  0.3897
14511SOL    HW144696   8.660   2.460   0.152  0.0867 -1.1451  2.8755
14511SOL    HW244697   8.641   2.327   0.083 -0.5952 -0.4635  1.7181
14512SOL     OW44698   0.105   1.871   1.950  0.2183 -0.1671 -0.2978
14512SOL    HW144699   0.065   1.862   1.864  1.2768  0.6361 -0.9048
14512SOL    HW244700   0.155   1.952   1.945  0.3634 -0.1444  1.0563
14513SOL     OW44701   0.431   3.929   0.025 -0.1232  0.4546 -0.1199
14513SOL    HW144702   0.512   3.888  -0.004 -1.1214 -2.4458  0.8924
14513SOL    HW244703   0.402   3.876   0.099 -2.3961  2.0698  0.2605
14514SOL     OW44704   1.714   7.478   7.288  0.3289  0.1502 -0.3166
14514SOL    HW144705   1.794   7.524   7.316 -0.2328  0.6843  0.4417
14514SOL    HW244706   1.676   7.534   7.221  1.3577 -0.8388 -1.7996
14515SOL     OW44707   0.462   6.012   6.933  0.0403  0.1518  0.2156
14515SOL    HW144708   0.557   6.007   6.923  0.4517 -1.0353  3.5744
14515SOL    HW244709   0.448   6.058   7.016 -2.3687  0.5101 -0.2911
14516SOL     OW44710   8.280   7.554   2.366  0.3072 -0.0350 -0.1943
14516SOL    HW144711   8.338   7.597   2.429 -1.8867 -0.1615  2.0369
14516SOL    HW244712   8.194   7.591   2.382 -1.5244 -4.1847  1.0728
14517SOL     OW44713   4.327   2.520   3.396  0.5099  0.2918  0.4340
14517SOL    HW144714   4.259   2.464   3.433  1.7805 -2.6068 -1.2858
14517SOL    HW244715   4.405   2.503   3.450  1.1601 -0.4487 -0.6834
14518SOL     OW44716   2.669   2.308   7.068  0.0831  0.7404  0.3123
14518SOL    HW144717   2.730   2.310   7.142  0.8619  1.2137 -0.3196
14518SOL    HW244718   2.583   2.324   7.107  0.3448  0.0433  1.2260
14519SOL     OW44719   6.483   1.948   7.998 -0.5389 -0.5213 -0.2836
14519SOL    HW144720   6.441   1.874   8.042 -0.6278 -0.7888 -0.8002
14519SOL    HW244721   6.427   1.965   7.922  0.1069 -0.6649 -0.8010
14520SOL     OW44722   4.796   7.902   1.383 -0.5384  0.0924  0.0306
14520SOL    HW144723   4.864   7.835   1.385 -0.9794 -0.3526  1.1103
14520SOL    HW244724   4.830   7.974   1.436  0.2299  1.0581 -1.7004
14521SOL     OW44725   8.485   6.318   0.387 -0.2115  0.4076 -0.2355
14521SOL    HW144726   8.442   6.239   0.419  0.1794  0.2281 -0.1630
14521SOL    HW244727   8.541   6.288   0.316  0.2100  0.5736  0.0289
14522SOL     OW44728   5.659   6.854   0.319  0.8161 -0.0246  0.5120
14522SOL    HW144729   5.579   6.804   0.331  0.5441  0.2739 -0.0255
14522SOL    HW244730   5.635   6.925   0.260  1.6788 -0.4263 -0.3601
14523SOL     OW44731   6.961   8.641   2.213 -0.1175 -0.2452 -0.0816
14523SOL    HW144732   7.035   8.632   2.153  0.4539  2.9139 -0.0147
14523SOL    HW244733   6.987   8.710   2.274 -3.1076  1.0763 -0.0957
14524SOL     OW44734   5.340   8.430   4.066 -0.2992  0.4564 -0.0276
14524SOL    HW144735   5.384   8.347   4.083 -1.8007 -0.0795  1.4463
14524SOL    HW244736   5.280   8.441   4.139  0.8449  3.5501  0.6014
14525SOL     OW44737   0.329   7.993   2.542 -0.1377 -0.0978  0.2476
14525SOL    HW144738   0.320   8.058   2.473  1.5641 -0.5560 -0.4623
14525SOL    HW244739   0.332   8.045   2.623 -0.3540  0.5882 -0.1730
14526SOL     OW44740   6.482   7.592   7.783  0.6131  0.2916 -0.1457
14526SOL    HW144741   6.498   7.545   7.701 -0.6793 -1.8039  0.7234
14526SOL    HW244742   6.490   7.525   7.851 -0.0966  1.6035  1.2847
14527SOL     OW44743   0.952   4.765   7.417 -0.2706  0.5796 -0.4841
14527SOL    HW144744   1.018   4.711   7.461 -0.1532  0.7272 -0.4774
14527SOL    HW244745   0.931   4.834   7.480 -1.2113 -0.0677 -0.0679
14528SOL     OW44746   1.509   5.872   2.666 -0.3059 -0.0981  0.2210
14528SOL    HW144747   1.507   5.908   2.755  1.8709  0.8004 -0.0316
14528SOL    HW244748   1.540   5.945   2.612 -0.5474 -0.9552 -1.1068
14529SOL     OW44749   4.547   4.164   4.040  0.3755 -0.4517  0.0122
14529SOL    HW144750   4.588   4.110   4.108  3.3262  0.4564 -0.9141
14529SOL    HW244751   4.589   4.137   3.959 -0.4268  1.0232 -0.9376
14530SOL     OW44752   3.326   2.581   3.522  0.4583 -0.1862 -0.0776
14530SOL    HW144753   3.341   2.514   3.455  1.3835  0.0340 -0.1002
14530SOL    HW244754   3.321   2.663   3.474  0.3344 -0.1190  0.0488
14531SOL     OW44755   1.540   0.919   7.214 -0.0196  0.4203 -0.1525
14531SOL    HW144756   1.479   0.981   7.253  1.0916  0.7594  1.1044
14531SOL    HW244757   1.596   0.891   7.286 -0.5474 -2.1524 -0.6590
14532SOL     OW44758   4.584   8.555   0.820 -0.5427 -0.0910  0.4140
14532SOL    HW144759   4.521   8.550   0.749  0.2839 -0.7920 -0.2860
14532SOL    HW244760   4.636   8.475   0.813  2.6408  1.9135 -1.1328
14533SOL     OW44761   6.832   1.653   0.162 -0.1284 -0.3961  0.4984
14533SOL    HW144762   6.894   1.678   0.230  1.5362  1.3141 -1.4757
14533SOL    HW244763   6.887   1.637   0.085 -2.0238 -0.4802 -0.9059
14534SOL     OW44764   6.866   5.895   1.353  0.1021 -0.8710 -0.1625
14534SOL    HW144765   6.914   5.949   1.415 -0.6068 -1.2031  0.6988
14534SOL    HW244766   6.822   5.829   1.407 -1.5052 -0.4390 -0.8725
14535SOL     OW44767   3.028   6.628   0.669  0.1811 -0.6381  0.4355
14535SOL    HW144768   2.949   6.639   0.616  1.7254 -3.7618 -2.9411
14535SOL    HW244769   3.099   6.661   0.614  1.4728  1.4164  3.0855
14536SOL     OW44770   1.106   2.756   6.513 -0.7025  0.7441  0.5016
14536SOL    HW144771   1.071   2.785   6.429 -1.3738  1.1665  0.9202
14536SOL    HW244772   1.127   2.664   6.500 -1.7252  0.5538  0.1570
14537SOL     OW44773   5.896   6.023   4.668 -0.4602 -0.3159  0.3297
14537SOL    HW144774   5.926   6.114   4.669 -0.3514 -0.2805 -1.5525
14537SOL    HW244775   5.807   6.026   4.704 -0.6663  0.6349 -0.2250
14538SOL     OW44776   4.698   0.045   6.390  0.3058 -0.4119  0.3811
14538SOL    HW144777   4.625   0.058   6.451 -0.1924 -0.4434 -0.1946
14538SOL    HW244778   4.706  -0.050   6.382  0.3793 -0.4084  0.4120
14539SOL     OW44779   1.114   0.761   2.241  0.1114  0.0102  0.0994
14539SOL    HW144780   1.127   0.676   2.283 -0.8783 -1.7375 -2.8451
14539SOL    HW244781   1.034   0.750   2.189 -0.5146  3.0379  0.2258
14540SOL     OW44782   0.468   1.474   2.753  0.4877  0.0577  0.2541
14540SOL    HW144783   0.491   1.492   2.662  0.9926 -2.8435 -0.2864
14540SOL    HW244784   0.374   1.453   2.751  1.0978 -2.9951 -0.2148
14541SOL     OW44785   6.966   5.231   6.533 -0.6291 -0.2158  0.2445
14541SOL    HW144786   7.055   5.237   6.567  0.3935  3.0848 -2.4435
14541SOL    HW244787   6.975   5.248   6.440 -4.1064  0.1340 -0.1494
14542SOL     OW44788   5.014   1.266   4.892 -0.2916  0.3876 -0.4289
14542SOL    HW144789   5.047   1.234   4.977 -0.3860  2.7013  0.5383
14542SOL    HW244790   4.919   1.270   4.903 -0.2673  1.1571 -0.4584
14543SOL     OW44791   1.780   2.172   3.845  0.3782  0.1278 -0.4638
14543SOL    HW144792   1.710   2.135   3.899  0.9023  0.6552  0.5881
14543SOL    HW244793   1.814   2.096   3.796 -0.4265 -0.2621 -0.4477
14544SOL     OW44794   7.688   4.685   7.093  0.4243 -0.1984  0.4631
14544SOL    HW144795   7.684   4.781   7.100  1.7952 -0.2016  1.8902
14544SOL    HW244796   7.722   4.669   7.005 -1.0795  0.5569 -0.2974
14545SOL     OW44797   1.783   5.761   2.733 -0.4866 -0.4642  0.3639
14545SOL    HW144798   1.717   5.793   2.671 -0.5379 -0.2623  0.5253
14545SOL    HW244799   1.853   5.727   2.677 -1.1978 -1.6726  0.1747
14546SOL     OW44800   1.577   3.695   8.093 -0.6033  0.1399 -0.8031
14546SOL    HW144801   1.565   3.655   8.179 -0.4065 -1.1074 -1.3280
14546SOL    HW244802   1.666   3.730   8.094 -0.7466  0.4944 -0.3637
14547SOL     OW44803   0.256   0.459   8.299 -0.3672 -0.3933 -0.5486
14547SOL    HW144804   0.202   0.380   8.303 -0.8004 -0.0773  0.0937
14547SOL    HW244805   0.194   0.531   8.312  0.4349 -0.1082  2.8706
14548SOL     OW44806   4.882   2.432   3.534  0.3884  0.0396 -1.0771
14548SOL    HW144807   4.843   2.372   3.598 -0.1266 -0.3738 -1.7551
14548SOL    HW244808   4.897   2.513   3.582  0.4447 -0.4119 -0.3183
14549SOL     OW44809   8.512   7.024   0.730 -0.1549  0.0260  0.8608
14549SOL    HW144810   8.595   7.034   0.684 -0.8374 -3.4579 -1.5806
14549SOL    HW244811   8.490   6.931   0.720 -2.0991 -0.2913  5.5329
14550SOL     OW44812   1.876   4.136   5.281 -0.0239 -0.7201  0.3197
14550SOL    HW144813   1.782   4.132   5.264 -0.0001  0.8755 -0.3874
14550SOL    HW244814   1.884   4.182   5.364  0.1571  0.7378 -0.4771
14551SOL     OW44815   1.275   8.686   4.044 -0.1972 -0.4687  0.2707
14551SOL    HW144816   1.282   8.607   4.097 -0.0366 -1.6249 -1.3981
14551SOL    HW244817   1.307   8.757   4.101  1.2387 -1.8438  1.2505
14552SOL     OW44818   7.193   6.487   0.782  0.2452  0.2507 -0.0780
14552SOL    HW144819   7.176   6.409   0.730 -1.1004 -0.6908  1.6394
14552SOL    HW244820   7.114   6.540   0.772  0.4021  0.5409  0.2018
14553SOL     OW44821   2.049   2.918   4.801  0.1492  0.2766 -0.1436
14553SOL    HW144822   1.956   2.938   4.789  0.0898 -0.5120 -1.1297
14553SOL    HW244823   2.076   2.972   4.876 -1.1095  0.4737  0.1885
14554SOL     OW44824   8.195   1.346   4.371 -0.0074 -0.1143 -0.4030
14554SOL    HW144825   8.188   1.331   4.465  1.3447 -0.7818 -0.3829
14554SOL    HW244826   8.282   1.383   4.359 -0.8340  1.6971 -1.2124
14555SOL     OW44827   0.463   5.412   6.895  0.3525 -0.3617  0.2703
14555SOL    HW144828   0.550   5.425   6.860 -0.0656 -0.6050 -0.8880
14555SOL    HW244829   0.472   5.338   6.956  0.8915 -0.5547 -0.0471
14556SOL     OW44830   3.381   1.644   7.870 -0.0637 -0.0559 -0.0272
14556SOL    HW144831   3.328   1.569   7.844  0.3398  0.0058 -1.0596
14556SOL    HW244832   3.468   1.608   7.886  0.0616  0.1515 -0.2450
14557SOL     OW44833   3.615   6.390   5.952 -0.0525  0.6054 -0.3831
14557SOL    HW144834   3.676   6.426   5.886 -0.0528 -0.1915 -0.8296
14557SOL    HW244835   3.671   6.369   6.027  0.2446 -0.1928 -0.8189
14558SOL     OW44836   0.845   3.940   7.074  0.1853 -0.1711 -0.1730
14558SOL    HW144837   0.914   3.931   7.009  0.2053 -2.1612  0.0735
14558SOL    HW244838   0.780   3.875   7.050 -0.3829 -0.0994  1.0707
14559SOL     OW44839   4.415   6.264   6.704 -0.0484  0.0507  0.2662
14559SOL    HW144840   4.472   6.340   6.708 -2.3662  1.8327  2.9806
14559SOL    HW244841   4.431   6.217   6.787  1.5037 -2.6803 -1.4326
14560SOL     OW44842   7.273   8.124   3.891  0.0604 -0.1579  0.4327
14560SOL    HW144843   7.210   8.195   3.875  0.0049 -0.4957 -1.0230
14560SOL    HW244844   7.220   8.054   3.928 -0.4616 -0.4477 -0.8032
14561SOL     OW44845   0.099   0.679   6.798 -1.1551 -0.2046  0.0727
14561SOL    HW144846   0.082   0.585   6.793 -3.9240  0.2555 -0.7193
14561SOL    HW244847   0.073   0.712   6.712  0.6352  1.2123  0.0156
14562SOL     OW44848   2.468   0.203   3.543 -0.4475 -0.5080  0.4708
14562SOL    HW144849   2.553   0.228   3.507 -0.3989 -0.0291  0.9107
14562SOL    HW244850   2.407   0.213   3.470 -0.2384 -0.1819  0.3408
14563SOL     OW44851   8.589   5.995   1.984 -0.4914 -0.0104  0.1152
14563SOL    HW144852   8.635   6.066   2.028  0.0490  0.0119 -0.4696
14563SOL    HW244853   8.621   5.915   2.025  0.1646 -0.0003 -0.3630
14564SOL     OW44854   2.358   8.555   1.932 -0.1598 -0.4380 -0.4334
14564SOL    HW144855   2.446   8.531   1.962 -0.1248 -1.6789 -1.4607
14564SOL    HW244856   2.371   8.589   1.843 -0.7468 -0.9370 -0.7165
14565SOL     OW44857   2.557   0.567   7.251  0.1677  0.2060  0.2779
14565SOL    HW144858   2.644   0.594   7.222  1.6713 -1.1142  3.1203
14565SOL    HW244859   2.509   0.649   7.264  1.5741  1.0705  0.2375
14566SOL     OW44860   8.582   7.962   5.804 -0.1254  0.2408  0.0097
14566SOL    HW144861   8.534   7.914   5.872 -0.0129  2.5172  1.8187
14566SOL    HW244862   8.670   7.971   5.840  0.1062  0.9627 -0.7235
14567SOL     OW44863   3.153   6.057   1.625  0.0856  0.5478 -0.7637
14567SOL    HW144864   3.216   6.121   1.657 -0.2080  0.6971 -0.4660
14567SOL    HW244865   3.172   5.978   1.675 -2.5509  1.6858  2.4815
14568SOL     OW44866   7.133   2.268   8.144 -0.1909  0.3294  0.0467
14568SOL    HW144867   7.208   2.307   8.098 -0.2622 -2.2338 -2.5526
14568SOL    HW244868   7.059   2.283   8.085 -1.2122  0.4934  1.3231
14569SOL     OW44869   5.067   2.519   0.223 -0.0962 -0.0790 -0.0580
14569SOL    HW144870   5.123   2.445   0.247  1.5530  1.0809 -0.1045
14569SOL    HW244871   5.067   2.574   0.302 -1.5230 -0.2393  0.0695
14570SOL     OW44872   5.679   4.350   3.502 -0.3544 -0.4838 -0.1668
14570SOL    HW144873   5.717   4.265   3.478  0.6193  0.5229 -2.5458
14570SOL    HW244874   5.754   4.409   3.504 -1.4112  1.1388 -2.9057
14571SOL     OW44875   4.499   5.754   4.618  0.6666  0.2621  0.0250
14571SOL    HW144876   4.467   5.680   4.668 -0.4394 -0.2499 -1.3776
14571SOL    HW244877   4.427   5.817   4.617  1.1742  0.8632  0.2336
14572SOL     OW44878   6.812   5.418   1.563  0.0070  0.3632 -0.5315
14572SOL    HW144879   6.754   5.418   1.640  0.4667  1.8976 -0.1377
14572SOL    HW244880   6.833   5.326   1.548 -2.4751 -0.2501 -0.6601
14573SOL     OW44881   8.696   5.266   6.611 -0.2254  0.1457 -0.0087
14573SOL    HW144882   8.614   5.263   6.561 -0.6190 -2.6652  0.6220
14573SOL    HW244883   8.685   5.198   6.678  1.5382  1.6328  1.9145
14574SOL     OW44884   0.338   4.174   4.745 -0.5641  0.1683 -0.1662
14574SOL    HW144885   0.284   4.218   4.679  2.0305  2.9387 -0.6612
14574SOL    HW244886   0.290   4.184   4.827 -1.2309  1.7969 -0.7120
14575SOL     OW44887   1.728   8.137   7.476  0.2448 -0.2201 -0.4371
14575SOL    HW144888   1.647   8.188   7.481  0.3077 -0.1509 -0.1108
14575SOL    HW244889   1.728   8.084   7.556  1.0254  0.5441  0.0850
14576SOL     OW44890   6.875   7.205   1.852  0.6923  0.2305 -0.1726
14576SOL    HW144891   6.963   7.216   1.816  0.7738  2.8527  0.6040
14576SOL    HW244892   6.874   7.257   1.932 -1.3303 -0.4267  0.3140
14577SOL     OW44893   5.849   0.563   5.618 -0.0728 -0.4512 -0.1287
14577SOL    HW144894   5.895   0.544   5.537 -0.4153 -0.4664 -0.3192
14577SOL    HW244895   5.777   0.500   5.621  0.4926 -1.0921  0.6518
14578SOL     OW44896   6.681   6.639   8.016  0.6125  0.1602 -1.1770
14578SOL    HW144897   6.697   6.545   8.016  0.1924  0.0800 -1.7968
14578SOL    HW244898   6.588   6.647   7.995  0.1943  0.6580  0.7528
14579SOL     OW44899   0.379   5.708   0.097 -0.3183  0.0175  0.2431
14579SOL    HW144900   0.453   5.698   0.157  0.4426  0.0623 -0.6622
14579SOL    HW244901   0.391   5.638   0.033  0.0057  1.1622 -0.9847
14580SOL     OW44902   6.274   4.524   1.878  0.3091 -0.0250 -0.2344
14580SOL    HW144903   6.253   4.608   1.919 -2.8262 -0.2884 -1.0025
14580SOL    HW244904   6.244   4.459   1.941  2.3914 -0.6209  0.1999
14581SOL     OW44905   2.530   3.622   0.519 -0.0038  0.0591 -0.2820
14581SOL    HW144906   2.453   3.645   0.468  0.1903  1.1731 -0.1168
14581SOL    HW244907   2.594   3.690   0.496  0.6798 -0.4397  0.1156
14582SOL     OW44908   1.149   0.190   2.832 -0.8125  0.3767  0.2164
14582SOL    HW144909   1.162   0.108   2.879  0.7016  0.8724  0.7133
14582SOL    HW244910   1.089   0.240   2.887 -0.1262  0.4096  0.9483
14583SOL     OW44911   8.267   2.046   3.164 -0.1180  0.0238  0.7568
14583SOL    HW144912   8.192   2.018   3.112  1.3734  0.0557 -1.5431
14583SOL    HW244913   8.293   1.967   3.212 -1.1211 -0.2029  0.9370
14584SOL     OW44914   4.408   0.882   7.270 -0.1598  0.3222 -0.0427
14584SOL    HW144915   4.407   0.954   7.207  1.8462  2.7828  2.4722
14584SOL    HW244916   4.501   0.869   7.289 -0.6942  0.2398  2.8974
14585SOL     OW44917   8.849   8.457   5.919 -0.2251 -0.0046  0.0885
14585SOL    HW144918   8.767   8.506   5.911 -0.4548  0.2568  2.9721
14585SOL    HW244919   8.900   8.506   5.984 -0.4030 -3.3377  3.0434
14586SOL     OW44920   7.007   6.955   4.227  0.0704  0.4616 -0.4113
14586SOL    HW144921   7.055   6.886   4.273 -1.3665 -0.9332 -0.9359
14586SOL    HW244922   6.935   6.977   4.286 -0.1909  0.6323 -0.7956
14587SOL     OW44923   4.548   2.905   4.424 -0.3576 -0.1515 -0.2675
14587SOL    HW144924   4.483   2.885   4.491 -0.4407 -0.3792 -0.4157
14587SOL    HW244925   4.625   2.855   4.450 -0.2834  0.0158 -0.1634
14588SOL     OW44926   1.018   4.001   5.817  0.0181 -0.0513  0.3392
14588SOL    HW144927   1.065   4.081   5.797  0.0138  0.0454  0.7097
14588SOL    HW244928   1.040   3.982   5.909  0.7392 -0.9583 -0.0026
14589SOL     OW44929   4.613   3.922   2.712  0.4112  0.0108  0.3427
14589SOL    HW144930   4.652   3.843   2.674 -1.4546 -1.4992  1.3707
14589SOL    HW244931   4.565   3.890   2.789  0.5309  2.3343  1.4580
14590SOL     OW44932   8.463   8.395   7.592 -0.0756 -0.0786 -0.4438
14590SOL    HW144933   8.391   8.454   7.571 -1.3433 -1.0223  0.9905
14590SOL    HW244934   8.537   8.452   7.610 -1.4168  1.1908  1.4777
14591SOL     OW44935   6.195   2.825   4.142 -0.1873  0.3137 -0.2393
14591SOL    HW144936   6.242   2.752   4.102  3.3183  1.9732  0.4795
14591SOL    HW244937   6.176   2.884   4.069  0.8167  0.5896 -0.2939
14592SOL     OW44938   1.533   3.937   5.952 -0.4391  0.0585 -0.1669
14592SOL    HW144939   1.456   3.910   5.902 -0.3896  2.5841 -1.7570
14592SOL    HW244940   1.600   3.874   5.926 -1.6866 -1.6974  0.6307
14593SOL     OW44941   4.033   1.549   4.216  0.6415 -0.1767 -0.2441
14593SOL    HW144942   4.128   1.536   4.226  0.5450 -3.2923 -1.9417
14593SOL    HW244943   3.994   1.475   4.262 -0.8974  0.3051 -0.7281
14594SOL     OW44944   2.228   6.714   1.417  0.0894  0.5759  0.0573
14594SOL    HW144945   2.252   6.687   1.505  0.2142 -2.0960 -0.6926
14594SOL    HW244946   2.132   6.718   1.417  0.0611 -0.0440  0.1695
14595SOL     OW44947   4.162   5.927   5.147  0.3445 -0.1008  0.5923
14595SOL    HW144948   4.190   5.953   5.235 -3.3820  1.9299  1.3588
14595SOL    HW244949   4.154   6.009   5.098 -1.9966 -0.6729 -0.1379
14596SOL     OW44950   7.437   2.721   1.761  0.3290  0.3041 -0.2491
14596SOL    HW144951   7.352   2.700   1.799 -0.0529 -0.5234 -1.5262
14596SOL    HW244952   7.453   2.812   1.786 -0.4586  0.1612  0.8369
14597SOL     OW44953   3.077   5.726   7.959  0.0426 -0.4557 -0.2414
14597SOL    HW144954   3.151   5.666   7.960  2.6588  2.5093  0.4696
14597SOL    HW244955   3.047   5.727   7.868 -0.4509 -3.0949 -0.1788
14598SOL     OW44956   6.131   6.230   5.897 -0.2697 -0.0809 -0.0759
14598SOL    HW144957   6.144   6.138   5.875  0.0498  0.2449 -1.3012
14598SOL    HW244958   6.036   6.240   5.904 -0.2827 -0.6469  0.7967
14599SOL     OW44959   2.595   1.826   3.853  0.0088  0.1974 -0.0452
14599SOL    HW144960   2.655   1.873   3.796 -0.5184 -0.7368 -1.4149
14599SOL    HW244961   2.632   1.739   3.862 -0.3214  0.0948  0.4189
14600SOL     OW44962   8.460   2.842   8.712 -0.4456  0.3306 -0.4073
14600SOL    HW144963   8.451   2.838   8.616  0.6318 -1.7936 -0.4875
14600SOL    HW244964   8.456   2.750   8.740 -0.1214  0.8681  1.5360
14601SOL     OW44965   5.767   4.414   5.872 -0.9491  0.1942 -0.2073
14601SOL    HW144966   5.810   4.372   5.947 -1.2357 -0.0371 -0.1693
14601SOL    HW244967   5.798   4.504   5.874  0.4557 -0.2594 -0.8814
14602SOL     OW44968   2.961   2.884   6.363  0.2214  0.4223 -0.1813
14602SOL    HW144969   3.015   2.811   6.393 -0.0964  0.2845  0.0543
14602SOL    HW244970   3.018   2.932   6.302  1.1889  1.1918  1.2488
14603SOL     OW44971   5.002   5.551   5.176  0.3181 -0.0617  0.5108
14603SOL    HW144972   5.020   5.458   5.165 -1.2319 -0.4779  1.2041
14603SOL    HW244973   4.937   5.571   5.108  1.0793  0.6682 -0.0199
14604SOL     OW44974   8.232   4.654   1.778 -0.2955  0.6802  0.3051
14604SOL    HW144975   8.219   4.643   1.684  0.9093  1.6760 -0.0024
14604SOL    HW244976   8.321   4.624   1.794 -0.8837 -0.6244  1.3628
14605SOL     OW44977   6.534   2.080   5.514  0.6094 -0.5094  0.5789
14605SOL    HW144978   6.628   2.066   5.508  0.7254  0.7184 -1.2722
14605SOL    HW244979   6.524   2.170   5.547  0.1613  0.0691 -1.0342
14606SOL     OW44980   5.377   8.501   6.203  0.8427 -0.0726 -0.1713
14606SOL    HW144981   5.303   8.546   6.162 -0.5506 -2.6826 -0.7783
14606SOL    HW244982   5.450   8.513   6.143 -0.0598 -0.3545 -1.3498
14607SOL     OW44983   4.709   5.777   8.570 -0.0927 -0.7023 -0.0390
14607SOL    HW144984   4.770   5.802   8.501  0.8990  1.3068  1.4567
14607SOL    HW244985   4.762   5.727   8.632 -0.1518  0.2671  0.8210
14608SOL     OW44986   0.200   4.939   6.099  0.2520  0.0464 -0.3257
14608SOL    HW144987   0.155   4.991   6.166  0.1463 -0.9967  0.4251
14608SOL    HW244988   0.178   4.984   6.017  0.5411  1.4557  0.3293
14609SOL     OW44989   2.909   4.505   8.829  0.1729 -0.4824  0.0877
14609SOL    HW144990   2.826   4.553   8.825 -0.3886 -1.4916 -0.7962
14609SOL    HW244991   2.929   4.500   8.923 -0.3049  0.5328  0.2538
14610SOL     OW44992   0.478   1.723   3.620  0.2924  0.3614  0.0776
14610SOL    HW144993   0.550   1.680   3.665 -0.5574  0.7928  1.9365
14610SOL    HW244994   0.425   1.651   3.585  2.1113  0.0357 -2.2968
14611SOL     OW44995   3.048   6.941   0.619  0.0621 -0.3294 -0.8499
14611SOL    HW144996   3.131   6.973   0.654 -0.3863 -0.4806  0.3727
14611SOL    HW244997   3.030   6.861   0.668 -0.0650 -1.1469 -2.1622
14612SOL     OW44998   0.307   8.735   4.584 -0.2793 -0.2517  0.4449
14612SOL    HW144999   0.338   8.656   4.629 -0.1083  0.4477  1.6202
14612SOL    HW245000   0.283   8.794   4.656  0.4809  1.1112 -0.3897
14613SOL     OW45001   7.409   6.173   4.049 -0.5819 -0.1153  0.1216
14613SOL    HW145002   7.338   6.122   4.010  0.7761 -0.1687 -2.4720
14613SOL    HW245003   7.467   6.108   4.088 -0.5885 -0.2829 -0.1476
14614SOL     OW45004   0.446   2.661   7.634  0.0018 -0.4435 -0.1250
14614SOL    HW145005   0.524   2.715   7.651  0.1071 -0.7860  0.5288
14614SOL    HW245006   0.476   2.595   7.572 -0.3455  0.7413 -1.6017
14615SOL     OW45007   2.705   8.422   0.645  0.1978 -0.0002  0.0115
14615SOL    HW145008   2.714   8.336   0.684  1.7719 -0.5883 -1.5248
14615SOL    HW245009   2.662   8.475   0.713  0.6707 -1.5468  1.5860
14616SOL     OW45010   5.123   2.112   3.497  0.1456 -0.7173 -0.2091
14616SOL    HW145011   5.199   2.142   3.546  0.3844 -0.6530 -0.6176
14616SOL    HW245012   5.049   2.133   3.554  0.4402 -0.9288  0.2633
14617SOL     OW45013   3.432   1.842   1.858  0.0824  0.0002 -0.1656
14617SOL    HW145014   3.364   1.863   1.921  0.1276  0.4269 -0.2536
14617SOL    HW245015   3.409   1.892   1.780  0.6203  0.3411 -0.1165
14618SOL     OW45016   8.235   2.066   8.630 -0.3900  0.5649  0.1745
14618SOL    HW145017   8.148   2.092   8.599 -0.6015  0.4978  0.6938
14618SOL    HW245018   8.232   2.082   8.725  0.6089  1.8575  0.0305
14619SOL     OW45019   0.720   4.748   8.404  0.3322 -0.4601  0.4304
14619SOL    HW145020   0.648   4.796   8.362  0.8417  0.7961  0.9358
14619SOL    HW245021   0.769   4.711   8.331  0.0196 -0.0607  0.0046
14620SOL     OW45022   6.422   0.287   8.617 -0.0602  0.3014 -0.1521
14620SOL    HW145023   6.502   0.340   8.614  0.6328 -0.7069 -0.0721
14620SOL    HW245024   6.389   0.300   8.706  0.2657  0.3785 -0.0404
14621SOL     OW45025   4.238   8.459   7.492  0.0099 -0.1196 -0.2949
14621SOL    HW145026   4.315   8.412   7.460  0.5358 -0.2122  1.0291
14621SOL    HW245027   4.175   8.390   7.512  0.5657 -0.2630  1.0887
14622SOL     OW45028   6.049   4.008   1.519  0.2306  0.4334 -0.3815
14622SOL    HW145029   6.001   4.087   1.543 -2.4777 -1.1270 -0.3095
14622SOL    HW245030   6.035   4.000   1.425  1.0988  0.3805 -0.5153
14623SOL     OW45031   8.162   5.599   3.837  0.8220 -0.4050  0.2387
14623SOL    HW145032   8.071   5.574   3.855  1.1259 -1.9717 -0.2637
14623SOL    HW245033   8.213   5.523   3.863  1.7121 -0.8104 -2.4297
14624SOL     OW45034   1.235   7.594   3.590 -0.0329 -0.3154  0.3347
14624SOL    HW145035   1.157   7.544   3.610 -0.2941 -0.2898 -0.5716
14624SOL    HW245036   1.255   7.641   3.671  0.3533 -2.0339  1.2727
14625SOL     OW45037   2.749   5.092   4.045 -0.1497 -0.3986 -0.1496
14625SOL    HW145038   2.807   5.043   3.986  0.1282 -0.2596  0.0069
14625SOL    HW245039   2.678   5.123   3.988 -1.1329 -2.2225  0.0035
14626SOL     OW45040   4.557   1.490   4.290  0.0517  0.4134 -0.0171
14626SOL    HW145041   4.613   1.415   4.309  0.5308  0.7785  0.0110
14626SOL    HW245042   4.477   1.473   4.342 -0.5836 -0.9453 -1.3708
14627SOL     OW45043   5.962   2.682   4.075  1.0876 -0.1715  0.6065
14627SOL    HW145044   6.009   2.599   4.071 -0.0721 -0.7948 -0.9451
14627SOL    HW245045   6.031   2.749   4.075  2.0192 -1.0774 -0.9585
14628SOL     OW45046   3.390   1.118   5.947 -0.0108  0.0524 -0.0938
14628SOL    HW145047   3.368   1.051   6.011  0.1295  0.0577 -0.0399
14628SOL    HW245048   3.389   1.200   5.997 -0.1824  0.0914 -0.1592
14629SOL     OW45049   6.316   2.394   2.340  0.0514  0.2798  0.3846
14629SOL    HW145050   6.314   2.475   2.392  1.1699 -0.9267  2.4683
14629SOL    HW245051   6.371   2.415   2.265  0.5759  1.3879  1.0543
14630SOL     OW45052   1.204   6.042   4.485 -0.1993 -0.7303  0.3483
14630SOL    HW145053   1.155   6.069   4.562 -1.9955  0.9153 -1.2882
14630SOL    HW245054   1.148   5.978   4.442  0.5694 -1.2610  0.1065
14631SOL     OW45055   4.883   2.342   6.732 -0.5861  0.2480  0.3104
14631SOL    HW145056   4.791   2.336   6.705  0.0632  0.2840 -2.1266
14631SOL    HW245057   4.932   2.329   6.651  1.5755  0.2910  1.5553
14632SOL     OW45058   1.975   4.504   6.012  0.0894 -0.7832  0.2540
14632SOL    HW145059   1.953   4.483   6.103  0.3286 -0.7161  0.3281
14632SOL    HW245060   2.035   4.578   6.018  1.1138 -1.5763  0.1077
14633SOL     OW45061   4.928   3.776   2.462 -0.2060  0.2817 -0.1685
14633SOL    HW145062   4.926   3.837   2.535 -0.1367  1.0251 -0.7690
14633SOL    HW245063   4.971   3.698   2.497 -0.5833  0.4557  0.6976
14634SOL     OW45064   2.079   4.109   7.267  0.0070  0.1771 -0.0164
14634SOL    HW145065   2.164   4.135   7.233  0.2333  2.1362  1.8406
14634SOL    HW245066   2.099   4.060   7.347 -0.5808  0.5279  0.3566
14635SOL     OW45067   4.841   7.274   6.242  0.6306  0.9554 -0.3016
14635SOL    HW145068   4.753   7.311   6.250  0.0620 -0.3862 -0.1291
14635SOL    HW245069   4.841   7.230   6.157 -0.5707 -3.1730  1.5751
14636SOL     OW45070   5.476   5.625   3.006 -0.3613  0.2648  0.1329
14636SOL    HW145071   5.564   5.588   3.000 -0.8190 -0.7934 -0.1723
14636SOL    HW245072   5.448   5.606   3.096  0.0799  1.4808  0.5589
14637SOL     OW45073   3.172   6.308   2.647 -0.0206 -0.1171  0.1865
14637SOL    HW145074   3.158   6.369   2.574 -1.5512 -2.3210 -1.4960
14637SOL    HW245075   3.204   6.228   2.606  0.0505 -1.1071  2.0683
14638SOL     OW45076   3.732   2.896   0.353  0.1843 -0.1816 -0.5162
14638SOL    HW145077   3.808   2.951   0.370 -1.0237  1.5473 -0.4977
14638SOL    HW245078   3.719   2.901   0.259 -1.0446  1.1374 -0.2974
14639SOL     OW45079   6.158   6.349   4.924 -0.5745  0.5712 -0.1528
14639SOL    HW145080   6.068   6.364   4.895 -0.8058 -1.7405 -0.8997
14639SOL    HW245081   6.154   6.268   4.975  1.0840  0.3145 -0.3493
14640SOL     OW45082   7.782   2.973   6.536  0.9616  0.1402 -0.2990
14640SOL    HW145083   7.731   3.038   6.488 -1.8253 -1.9073 -0.3522
14640SOL    HW245084   7.838   2.932   6.470  1.7809  1.5059 -0.5012
14641SOL     OW45085   2.062   6.267   1.416 -0.3543 -0.2753 -0.0369
14641SOL    HW145086   2.075   6.294   1.507 -2.2217  2.8816 -0.5802
14641SOL    HW245087   1.987   6.208   1.419 -0.4478 -0.1358  0.4652
14642SOL     OW45088   0.256   6.778   5.007  0.0115 -0.1563 -0.7844
14642SOL    HW145089   0.247   6.708   4.941  1.6423  0.9945 -2.3325
14642SOL    HW245090   0.207   6.852   4.970 -0.9040 -0.1481  0.3906
14643SOL     OW45091   8.219   3.588   2.543 -0.3126 -0.1755 -0.0027
14643SOL    HW145092   8.298   3.548   2.578 -0.5178  0.0576  0.7550
14643SOL    HW245093   8.151   3.522   2.558 -0.2725 -0.3674 -0.6329
14644SOL     OW45094   6.012   3.339   7.048  0.0275  0.3217  0.2469
14644SOL    HW145095   6.088   3.371   7.000  0.3948 -0.8612  0.0291
14644SOL    HW245096   5.991   3.410   7.109 -1.5445  2.6964 -2.7832
14645SOL     OW45097   1.738   0.078   8.080  0.0149  0.1867 -0.0862
14645SOL    HW145098   1.778   0.141   8.139 -1.2468  0.7633  0.1686
14645SOL    HW245099   1.774   0.100   7.994  1.0963 -0.0307  0.2898
14646SOL     OW45100   6.088   4.931   5.310 -0.0955  0.2786  0.5005
14646SOL    HW145101   6.022   5.002   5.312 -0.1825  0.2507 -0.6319
14646SOL    HW245102   6.172   4.977   5.303 -0.2962  0.3175 -3.1477
14647SOL     OW45103   7.439   0.328   7.656 -0.4098 -0.2827  0.3437
14647SOL    HW145104   7.349   0.296   7.654 -0.7802  0.7020 -1.6993
14647SOL    HW245105   7.431   0.423   7.645  0.8881 -0.2514 -0.5964
14648SOL     OW45106   6.486   0.809   1.477 -0.5985  0.0437 -0.4700
14648SOL    HW145107   6.516   0.726   1.514  1.8247  0.7329 -0.7383
14648SOL    HW245108   6.442   0.853   1.550  0.6496 -0.2644  0.4962
14649SOL     OW45109   6.469   3.850   2.496 -0.0913  0.4207 -0.0017
14649SOL    HW145110   6.516   3.907   2.556  1.7847 -1.5062  0.4714
14649SOL    HW245111   6.511   3.863   2.411  0.1341 -0.0153  0.0406
14650SOL     OW45112   6.402   3.044   8.789 -0.2264  0.1436 -0.3726
14650SOL    HW145113   6.378   3.136   8.798 -0.8650 -0.1750  1.4842
14650SOL    HW245114   6.410   3.012   8.878  1.2003 -1.3178 -0.9685
14651SOL     OW45115   5.906   7.484   3.705 -0.3989 -0.8283  0.0059
14651SOL    HW145116   5.820   7.508   3.740 -1.1466 -1.0601 -1.5961
14651SOL    HW245117   5.909   7.388   3.710 -0.8628 -0.9239 -1.3098
14652SOL     OW45118   2.210   0.292   4.495  0.0199  0.5803 -0.3833
14652SOL    HW145119   2.262   0.327   4.423  1.1491  0.3716  0.3046
14652SOL    HW245120   2.125   0.271   4.455  0.6485  0.3751 -1.6684
14653SOL     OW45121   6.312   6.477   7.370 -0.0265  0.4261 -0.4934
14653SOL    HW145122   6.288   6.410   7.305 -0.9826  0.5043 -0.2325
14653SOL    HW245123   6.407   6.468   7.378 -0.1372 -0.9745 -0.4009
14654SOL     OW45124   3.435   2.284   0.338 -0.0180 -0.2800 -0.1456
14654SOL    HW145125   3.383   2.364   0.334 -1.1767 -0.9263  1.0236
14654SOL    HW245126   3.514   2.309   0.387 -0.0008  0.3139 -0.4660
14655SOL     OW45127   7.335   5.662   3.738 -0.5702 -0.3108  0.0074
14655SOL    HW145128   7.401   5.603   3.702  2.3011  1.3543  2.0913
14655SOL    HW245129   7.369   5.750   3.719 -2.1122  0.6156  1.3015
14656SOL     OW45130   1.065   7.858   2.602 -0.4610 -0.0535 -0.2018
14656SOL    HW145131   1.058   7.795   2.674  1.2984  1.0138  0.9876
14656SOL    HW245132   1.119   7.814   2.537 -1.7043 -0.8585 -0.7393
14657SOL     OW45133   7.590   6.132   6.397 -0.0387 -0.2944  0.0345
14657SOL    HW145134   7.564   6.043   6.375 -2.5510  0.8210 -1.9984
14657SOL    HW245135   7.645   6.159   6.323  0.0071  0.1371  0.2237
14658SOL     OW45136   3.679   7.942   8.852  0.2565 -0.4020  0.4677
14658SOL    HW145137   3.628   7.888   8.912  0.5002 -0.4486  0.6323
14658SOL    HW245138   3.760   7.893   8.837  0.6139  0.0551  0.8650
14659SOL     OW45139   3.595   3.775   7.273  0.3049 -0.3909  0.4723
14659SOL    HW145140   3.525   3.779   7.338 -0.1899 -1.5543  0.0330
14659SOL    HW245141   3.606   3.866   7.244 -0.0736  0.0046  1.5211
14660SOL     OW45142   6.627   7.812   8.550 -0.2019  0.7959  0.4935
14660SOL    HW145143   6.606   7.807   8.643 -0.0272 -0.4772  0.4905
14660SOL    HW245144   6.672   7.895   8.540  0.1001  0.7886  1.6234
14661SOL     OW45145   1.381   0.048   4.273  0.2129 -0.0232  0.1388
14661SOL    HW145146   1.373   0.009   4.360  1.9937 -0.0847  0.3064
14661SOL    HW245147   1.327   0.127   4.277  1.1582  0.5828  1.6725
14662SOL     OW45148   1.402   0.470   5.949  0.2038  0.0731 -0.4361
14662SOL    HW145149   1.468   0.532   5.918 -0.7518  0.1289 -2.5221
14662SOL    HW245150   1.323   0.493   5.900 -1.0367 -0.7939  1.0761
14663SOL     OW45151   3.512   0.674   6.920  0.0174  0.3082  0.2758
14663SOL    HW145152   3.553   0.588   6.914  0.2556  0.5142 -1.8034
14663SOL    HW245153   3.539   0.719   6.840 -1.2137  1.8213  0.6664
14664SOL     OW45154   0.282   2.077   5.438  0.3772  0.0007 -0.3349
14664SOL    HW145155   0.372   2.108   5.438  0.3888  0.0187  1.1190
14664SOL    HW245156   0.288   1.985   5.413  0.7248  0.1509 -0.8278
14665SOL     OW45157   8.556   0.597   6.465  0.8135 -0.4813  0.2327
14665SOL    HW145158   8.601   0.681   6.456  0.8889 -0.4971  0.4493
14665SOL    HW245159   8.478   0.605   6.410  0.5585 -0.0835  0.6430
14666SOL     OW45160   6.972   6.020   7.062 -0.4361 -0.0628 -0.0062
14666SOL    HW145161   6.888   5.978   7.046 -1.5402  2.4394 -1.2793
14666SOL    HW245162   7.004   6.044   6.974  0.1328  1.6552  0.6322
14667SOL     OW45163   2.787   4.910   4.938  0.1275 -0.2898  0.1790
14667SOL    HW145164   2.743   4.993   4.957  0.4143  0.9611 -3.7706
14667SOL    HW245165   2.716   4.848   4.924 -0.0929 -0.7523  2.8816
14668SOL     OW45166   3.511   6.647   3.311  0.6188  0.1342 -0.4424
14668SOL    HW145167   3.544   6.620   3.226  0.1389  1.0534 -0.9405
14668SOL    HW245168   3.421   6.676   3.294  0.6467  0.6920  0.2968
14669SOL     OW45169   1.934   4.416   1.168 -0.2121 -0.4209 -0.2352
14669SOL    HW145170   1.904   4.459   1.249  2.2902  0.4001  0.3460
14669SOL    HW245171   1.946   4.325   1.193 -0.3500 -0.3571  0.0680
14670SOL     OW45172   3.504   1.742   3.889 -0.2256 -0.0006 -0.3163
14670SOL    HW145173   3.448   1.735   3.812  0.4801 -2.2413 -0.6787
14670SOL    HW245174   3.593   1.729   3.855  0.2570  0.6464  0.6592
14671SOL     OW45175   3.037   1.247   8.134 -0.1092 -0.2149  0.0225
14671SOL    HW145176   2.977   1.207   8.197 -0.2452  1.8057  1.2807
14671SOL    HW245177   2.981   1.305   8.081  0.5780  1.2683  0.8456
14672SOL     OW45178   7.116   2.844   2.915 -0.3503  0.0770  0.2431
14672SOL    HW145179   7.047   2.882   2.861  0.4061 -0.2455 -0.9853
14672SOL    HW245180   7.197   2.885   2.884 -0.0418  1.1455  2.2888
14673SOL     OW45181   2.019   0.633   7.326  0.3621  0.1630  0.0785
14673SOL    HW145182   2.038   0.567   7.258  1.4958 -1.3012  1.7353
14673SOL    HW245183   1.929   0.612   7.353  0.6394 -0.5929  0.4482
14674SOL     OW45184   7.826   7.088   3.556 -0.0958  0.0286  0.2779
14674SOL    HW145185   7.905   7.117   3.602 -0.0427  1.4866 -0.6681
14674SOL    HW245186   7.795   7.013   3.608  1.4782 -0.1206  1.0849
14675SOL     OW45187   8.297   6.835   3.474  0.3661  0.4495  0.7791
14675SOL    HW145188   8.335   6.896   3.411  0.1583  1.2646  1.4278
14675SOL    HW245189   8.310   6.749   3.434 -1.1061  1.0222 -1.0948
14676SOL     OW45190   1.424   4.462   7.420  0.7557  0.3172  0.8049
14676SOL    HW145191   1.451   4.542   7.375 -1.1377  0.8932  0.6202
14676SOL    HW245192   1.488   4.396   7.391  3.7144  2.1304  2.6297
14677SOL     OW45193   1.544   1.139   6.084 -0.7501 -0.4526  0.4115
14677SOL    HW145194   1.633   1.161   6.112 -0.4428 -0.2349 -0.6834
14677SOL    HW245195   1.488   1.195   6.137 -0.1303  0.7279 -0.1337
14678SOL     OW45196   6.917   3.243   2.607 -0.7103  0.2514 -0.1323
14678SOL    HW145197   6.869   3.266   2.686 -1.4172  1.0943 -0.7905
14678SOL    HW245198   6.992   3.302   2.607 -1.4470  1.2092 -0.7834
14679SOL     OW45199   8.253   0.441   2.609  0.2454 -0.2625  0.0526
14679SOL    HW145200   8.314   0.481   2.547 -0.2145 -0.1113 -0.3013
14679SOL    HW245201   8.308   0.384   2.662  1.1195  1.5904  1.2551
14680SOL     OW45202   2.555   2.330   4.032 -0.8809 -0.1639 -0.3590
14680SOL    HW145203   2.606   2.410   4.041 -1.1662  0.1470 -1.3390
14680SOL    HW245204   2.539   2.301   4.122  0.2704  0.1997 -0.0247
14681SOL     OW45205   7.230   0.144   3.877  0.2643  0.1677  0.1098
14681SOL    HW145206   7.285   0.073   3.911  1.8022  1.6306  0.8125
14681SOL    HW245207   7.275   0.172   3.797 -1.0002 -0.4239 -0.8329
14682SOL     OW45208   4.380   7.251   2.240  0.0998  0.1635 -0.0442
14682SOL    HW145209   4.328   7.263   2.320  0.3992 -0.8809  0.3257
14682SOL    HW245210   4.453   7.313   2.249 -0.4826  0.8561 -0.0510
14683SOL     OW45211   5.787   2.241   4.399 -0.0761  0.1604 -0.6305
14683SOL    HW145212   5.703   2.195   4.407  0.1303 -0.2303 -0.7050
14683SOL    HW245213   5.839   2.186   4.341  1.7652 -1.8658  2.6346
14684SOL     OW45214   2.813   4.235   7.529 -0.0070 -0.9631 -0.4828
14684SOL    HW145215   2.804   4.305   7.595 -1.5197 -2.0999  0.5990
14684SOL    HW245216   2.723   4.220   7.499  0.1344 -3.0642  0.0020
14685SOL     OW45217   4.767   0.844   8.243  0.6069 -0.1714  0.3563
14685SOL    HW145218   4.754   0.769   8.302 -0.8744 -0.6990 -0.5970
14685SOL    HW245219   4.693   0.901   8.261  1.0088  0.4366  0.1098
14686SOL     OW45220   3.278   5.790   8.802  0.0272  0.0891  0.0078
14686SOL    HW145221   3.266   5.797   8.897  3.3377  0.3090  0.5366
14686SOL    HW245222   3.306   5.699   8.788 -0.7701 -0.0437 -0.8433
14687SOL     OW45223   4.827   5.755   7.124  0.5333  0.4351 -0.4151
14687SOL    HW145224   4.752   5.762   7.064  1.2821 -0.1675 -1.4560
14687SOL    HW245225   4.840   5.661   7.135 -0.8411  0.4809  2.3599
14688SOL     OW45226   4.132   4.710   1.539 -0.5510  0.3504  0.6511
14688SOL    HW145227   4.190   4.782   1.565  0.2721 -0.2247  0.4856
14688SOL    HW245228   4.187   4.655   1.484 -1.0539 -0.5895  1.0636
14689SOL     OW45229   5.875   5.537   6.920 -0.1519  0.6516 -0.5483
14689SOL    HW145230   5.924   5.596   6.978  2.6742 -2.5852  0.7402
14689SOL    HW245231   5.783   5.558   6.936  0.5186  1.2964  3.7522
14690SOL     OW45232   3.415   6.467   8.824 -0.3152  0.3086 -0.2348
14690SOL    HW145233   3.495   6.518   8.814 -0.5963  0.6358 -0.8628
14690SOL    HW245234   3.344   6.528   8.804 -0.7373  0.0537  0.4287
14691SOL     OW45235   7.837   7.831   8.214  0.5777 -0.4288 -0.2334
14691SOL    HW145236   7.830   7.841   8.119  1.0834  2.8938 -0.0429
14691SOL    HW245237   7.928   7.853   8.234  0.1797  0.0843  1.1143
14692SOL     OW45238   1.240   3.511   4.692  0.3164 -0.2709  0.3200
14692SOL    HW145239   1.165   3.568   4.676  0.4683  0.3630  1.7997
14692SOL    HW245240   1.211   3.452   4.761  0.7980 -0.7840  0.0913
14693SOL     OW45241   6.425   2.849   3.464  0.5933  0.2563  0.0489
14693SOL    HW145242   6.330   2.839   3.464  0.4772  1.2341 -0.5818
14693SOL    HW245243   6.452   2.824   3.553 -0.3690  0.9154  0.5406
14694SOL     OW45244   2.816   6.608   5.202  0.1420  0.0669  0.5604
14694SOL    HW145245   2.761   6.550   5.254  0.2929 -0.1586  0.4702
14694SOL    HW245246   2.765   6.624   5.122 -0.7646  1.6375  1.4078
14695SOL     OW45247   6.546   8.430   1.373  1.0212  0.7571  0.0520
14695SOL    HW145248   6.556   8.522   1.399  1.3508  1.1624 -1.4091
14695SOL    HW245249   6.563   8.430   1.279  1.6982 -0.9241  0.1508
14696SOL     OW45250   8.531   7.833   6.041 -0.2091 -0.4667  0.3262
14696SOL    HW145251   8.552   7.912   6.089  1.2277  0.4801 -1.6922
14696SOL    HW245252   8.466   7.788   6.095  0.3412  1.1241  2.4368
14697SOL     OW45253   0.152   1.894   5.855  0.0082  0.1251 -0.1562
14697SOL    HW145254   0.146   1.974   5.802  0.2922  1.1413  1.2776
14697SOL    HW245255   0.136   1.924   5.945  2.9441 -0.9097  0.8362
14698SOL     OW45256   3.668   8.470   6.798  0.6214  1.2495  0.1247
14698SOL    HW145257   3.690   8.501   6.885  1.7916  0.6900  0.0585
14698SOL    HW245258   3.753   8.449   6.758  0.0375  0.3078 -0.6834
14699SOL     OW45259   0.991   4.671   3.418  0.2810  0.3362  0.2754
14699SOL    HW145260   1.029   4.591   3.382  0.3148  0.1655  0.6851
14699SOL    HW245261   0.923   4.696   3.355 -0.7874 -0.8748  0.9059
14700SOL     OW45262   5.673   4.357   7.166 -0.1542 -0.6316  0.1359
14700SOL    HW145263   5.766   4.333   7.171  0.8419  2.2838 -1.5825
14700SOL    HW245264   5.656   4.363   7.072 -2.2374 -1.4855  0.4138
14701SOL     OW45265   8.318   3.785   5.832  0.4586 -0.1699  0.9582
14701SOL    HW145266   8.298   3.699   5.796  1.0526 -0.3602  1.0671
14701SOL    HW245267   8.404   3.807   5.796 -1.0848  1.9248 -1.8444
14702SOL     OW45268   2.370   8.108   7.254 -0.4682  0.7708 -0.2764
14702SOL    HW145269   2.296   8.131   7.310  0.8403  1.0154  1.4501
14702SOL    HW245270   2.435   8.071   7.314  1.1352  1.3397 -1.5808
14703SOL     OW45271   2.593   7.296   0.787  0.2487 -0.3273 -0.1382
14703SOL    HW145272   2.666   7.283   0.726  0.1451 -1.7875  0.0131
14703SOL    HW245273   2.613   7.378   0.832  2.1514 -1.0173  0.3590
14704SOL     OW45274   4.890   7.848   4.067 -0.6461 -0.3487 -0.3099
14704SOL    HW145275   4.900   7.940   4.092 -2.4123 -0.5626  1.4294
14704SOL    HW245276   4.930   7.800   4.139 -1.8968 -0.9480  0.0049
14705SOL     OW45277   4.326   1.682   7.296 -0.8851 -0.0827  0.3015
14705SOL    HW145278   4.405   1.714   7.339 -0.3101  0.0050 -0.7848
14705SOL    HW245279   4.254   1.727   7.342 -0.1916  1.5341 -0.1022
14706SOL     OW45280   2.613   1.761   4.742 -0.4266 -0.1147  0.1756
14706SOL    HW145281   2.632   1.698   4.672  1.1687 -0.0663  0.5271
14706SOL    HW245282   2.620   1.709   4.822 -0.4851  0.2113  0.3930
14707SOL     OW45283   1.909   6.033   7.095  0.0281  0.1723 -0.2862
14707SOL    HW145284   1.864   6.036   7.179 -0.4014 -2.2825 -0.3545
14707SOL    HW245285   1.839   6.036   7.030  0.3316  1.6046 -0.5727
14708SOL     OW45286   1.268   5.847   6.635  0.6072  0.2787 -0.3689
14708SOL    HW145287   1.284   5.850   6.541  2.1447 -0.5336 -0.1648
14708SOL    HW245288   1.307   5.765   6.664  1.4230  1.1618  1.1960
14709SOL     OW45289   6.504   7.977   0.390  0.0233  0.1445 -0.1438
14709SOL    HW145290   6.495   7.883   0.401 -0.5782  0.4028  1.9743
14709SOL    HW245291   6.446   7.999   0.317 -0.4805 -1.0057 -0.0984
14710SOL     OW45292   3.347   8.753   5.840  0.0164  0.8108  0.3766
14710SOL    HW145293   3.387   8.687   5.784  0.5866  1.8135 -0.4270
14710SOL    HW245294   3.295   8.703   5.903  0.2030 -0.3788 -0.3905
14711SOL     OW45295   3.818   2.913   6.941 -0.5413 -0.7136 -0.1855
14711SOL    HW145296   3.791   2.823   6.921 -1.5869 -0.5202  0.3201
14711SOL    HW245297   3.852   2.946   6.858  1.8239 -2.2138  0.0522
14712SOL     OW45298   3.784   7.061   0.230 -0.6900 -0.2761  0.3572
14712SOL    HW145299   3.825   7.135   0.276  0.6510 -1.2307  0.7684
14712SOL    HW245300   3.770   7.093   0.141  0.7398  0.1727  0.2737
14713SOL     OW45301   4.407   0.852   5.721  0.2966 -0.7750 -0.2302
14713SOL    HW145302   4.362   0.814   5.646 -0.8679 -0.4589  0.2920
14713SOL    HW245303   4.424   0.943   5.695 -0.6800 -0.4824  0.1150
14714SOL     OW45304   5.113   3.205   4.983  0.0539 -0.1406 -0.2133
14714SOL    HW145305   5.106   3.144   4.910 -2.1371 -0.3313  0.1019
14714SOL    HW245306   5.191   3.258   4.963  1.1986 -2.0756 -1.1833
14715SOL     OW45307   0.012   1.749   7.197 -0.6821 -0.2199 -0.0032
14715SOL    HW145308  -0.046   1.676   7.174 -2.6402  1.5627 -1.0650
14715SOL    HW245309   0.061   1.766   7.117  0.1626 -0.6673  0.4048
14716SOL     OW45310   5.256   4.767   8.717 -0.4593  0.1766 -1.1261
14716SOL    HW145311   5.300   4.809   8.792  2.3530 -1.0938 -1.9058
14716SOL    HW245312   5.262   4.832   8.647  0.1328  0.0528 -1.1983
14717SOL     OW45313   7.169   4.563   6.569 -0.2028 -0.7286  0.3451
14717SOL    HW145314   7.130   4.510   6.639  0.5740 -0.5275  0.9487
14717SOL    HW245315   7.100   4.571   6.503 -0.9094 -1.0350  1.0328
14718SOL     OW45316   7.353   1.756   0.014  0.2271  0.1430  0.8723
14718SOL    HW145317   7.300   1.735   0.090  0.2835  0.0669  0.8920
14718SOL    HW245318   7.385   1.844   0.029  0.4070  0.0506  1.0352
14719SOL     OW45319   8.715   5.529   1.178 -0.1125  0.3701  1.3146
14719SOL    HW145320   8.761   5.530   1.262 -0.5265  0.6400  1.5397
14719SOL    HW245321   8.643   5.591   1.189  0.9881  1.9045  0.0904
14720SOL     OW45322   5.072   1.853   3.586  0.0415 -0.4377  0.3890
14720SOL    HW145323   5.097   1.939   3.553  0.0433 -0.0132  1.4538
14720SOL    HW245324   5.146   1.797   3.563  0.8647  0.2507  1.2597
14721SOL     OW45325   7.552   8.731   7.572 -0.2039  0.3108  0.1757
14721SOL    HW145326   7.558   8.699   7.662  0.2585  0.0634  0.0622
14721SOL    HW245327   7.622   8.796   7.565  0.8617 -0.8768 -0.4856
14722SOL     OW45328   0.809   8.334   5.750 -0.0384  0.0943 -0.1238
14722SOL    HW145329   0.824   8.423   5.717 -1.7808  0.1541 -0.8767
14722SOL    HW245330   0.857   8.331   5.832 -1.7288  2.5298  1.0934
14723SOL     OW45331   1.234   3.071   3.416  0.1229  0.8831 -0.0514
14723SOL    HW145332   1.166   3.121   3.370  0.9264  2.0674  0.0063
14723SOL    HW245333   1.198   2.982   3.423 -1.7809  1.6722  0.7176
14724SOL     OW45334   3.834   5.157   1.069  0.6703 -0.7009  0.1162
14724SOL    HW145335   3.784   5.117   1.140 -2.1476  1.3095 -0.5373
14724SOL    HW245336   3.801   5.114   0.990  0.6738 -0.0157 -0.2644
14725SOL     OW45337   8.725   4.952   8.588 -0.2328  0.3701 -0.0747
14725SOL    HW145338   8.807   4.942   8.540  1.0119 -0.3880  2.0552
14725SOL    HW245339   8.742   5.024   8.649 -1.2226  0.3191  0.2845
14726SOL     OW45340   4.334   0.655   5.902 -0.3476 -0.2738 -0.7465
14726SOL    HW145341   4.369   0.711   5.833  0.7564  0.3890  0.3125
14726SOL    HW245342   4.262   0.608   5.860 -0.5277  1.0401 -1.9994
14727SOL     OW45343   5.995   8.114   5.023 -0.2172 -0.6023  0.0134
14727SOL    HW145344   5.952   8.036   5.059 -0.0602  0.1038  1.8640
14727SOL    HW245345   5.924   8.177   5.011 -0.0065 -0.0710  1.3167
14728SOL     OW45346   6.821   8.376   4.864 -0.1665 -0.0706  0.1840
14728SOL    HW145347   6.759   8.342   4.799  0.7388 -1.2891 -0.0717
14728SOL    HW245348   6.815   8.315   4.937  1.5510 -0.9096 -0.3212
14729SOL     OW45349   3.677   5.882   6.930 -0.2498  0.7188 -0.5759
14729SOL    HW145350   3.617   5.908   6.860 -0.9011  3.7194  0.9383
14729SOL    HW245351   3.749   5.945   6.925  0.1593  0.4192  0.8772
14730SOL     OW45352   0.803   5.406   4.387  0.0016 -0.5622 -0.3800
14730SOL    HW145353   0.737   5.461   4.430  0.0834  1.0022 -2.1186
14730SOL    HW245354   0.770   5.394   4.298  1.6071 -0.5011 -1.0267
14731SOL     OW45355   3.391   5.634   3.318 -0.5677 -0.1601 -0.0004
14731SOL    HW145356   3.484   5.629   3.343 -0.3100  1.3193 -0.5958
14731SOL    HW245357   3.352   5.557   3.360  1.0401 -1.1963 -0.2965
14732SOL     OW45358   2.145   3.935   0.801  0.2317 -0.2689  0.1789
14732SOL    HW145359   2.225   3.926   0.749  0.0224 -2.0137  0.0943
14732SOL    HW245360   2.078   3.961   0.737  0.5138  0.1779  0.0632
14733SOL     OW45361   8.141   3.043   7.232 -0.0166 -0.2366 -0.1405
14733SOL    HW145362   8.136   3.060   7.138 -1.2746  1.3288  0.1652
14733SOL    HW245363   8.059   2.999   7.253 -1.2167  2.1721  0.6575
14734SOL     OW45364   0.731   2.207   7.681 -0.4052  0.5872 -0.0345
14734SOL    HW145365   0.774   2.281   7.639  0.9323  0.0810  0.3967
14734SOL    HW245366   0.643   2.204   7.642 -0.9202  3.1036  0.7927
14735SOL     OW45367   0.462   4.169   7.207  0.8431  0.2765 -0.1051
14735SOL    HW145368   0.418   4.142   7.126  3.5441 -1.4287 -1.1738
14735SOL    HW245369   0.523   4.237   7.179  0.4831  1.0104  0.8737
14736SOL     OW45370   7.689   8.515   3.549 -0.2796  1.1904  0.5814
14736SOL    HW145371   7.723   8.544   3.633  0.1360  0.7513  0.5761
14736SOL    HW245372   7.608   8.468   3.570  1.3886 -1.7258  1.1509
14737SOL     OW45373   2.329   3.158   5.997 -0.1587 -0.2782  0.0837
14737SOL    HW145374   2.328   3.173   6.092  2.4051 -0.1288  0.1441
14737SOL    HW245375   2.353   3.066   5.988  1.6469  0.1958 -0.3739
14738SOL     OW45376   2.884   1.343   6.295 -0.2464 -0.1087 -0.5769
14738SOL    HW145377   2.949   1.392   6.245  1.5504 -0.3837  1.3803
14738SOL    HW245378   2.857   1.272   6.236  0.9582  0.2030 -1.5523
14739SOL     OW45379   0.052   8.390   4.337 -0.4816 -0.3194 -0.7077
14739SOL    HW145380   0.114   8.372   4.267  0.7113  2.8346 -0.6298
14739SOL    HW245381  -0.013   8.448   4.297  0.1653  1.4479  0.7033
14740SOL     OW45382   7.914   4.369   0.187  0.3889  0.2877  0.3589
14740SOL    HW145383   7.943   4.430   0.120  0.5488  0.6455  0.7503
14740SOL    HW245384   7.995   4.340   0.230  0.3898 -0.8888 -0.4104
14741SOL     OW45385   1.216   8.065   7.885  0.0721  0.3248 -0.7849
14741SOL    HW145386   1.226   7.997   7.952  2.8847  1.4014  0.0326
14741SOL    HW245387   1.178   8.139   7.933 -0.0574  0.3440 -0.9188
14742SOL     OW45388   3.392   2.296   4.584  0.1075 -0.3035  0.3472
14742SOL    HW145389   3.445   2.218   4.598  1.5375  0.7116  0.8725
14742SOL    HW245390   3.413   2.324   4.495 -3.3271 -2.5713 -1.4113
14743SOL     OW45391   1.759   2.095   0.373  0.3245 -0.6028 -0.0397
14743SOL    HW145392   1.782   2.153   0.301  0.0062  0.7525  0.9058
14743SOL    HW245393   1.836   2.040   0.385  0.7253 -0.2310 -0.8263
14744SOL     OW45394   7.377   1.897   6.581  0.2105 -0.5479 -0.2317
14744SOL    HW145395   7.422   1.974   6.548 -0.1810 -0.2429 -0.0554
14744SOL    HW245396   7.430   1.867   6.655  0.9030 -1.0330 -0.9025
14745SOL     OW45397   0.948   6.803   7.161  0.2876  0.0273  0.2907
14745SOL    HW145398   1.024   6.749   7.180 -0.7195 -1.4443  0.2816
14745SOL    HW245399   0.972   6.852   7.082  1.4702  0.1122  0.6935
14746SOL     OW45400   0.587   2.602   2.138  0.2303 -0.0630 -0.3212
14746SOL    HW145401   0.639   2.633   2.064  0.3379  0.6936  0.0587
14746SOL    HW245402   0.597   2.507   2.137  0.2342 -0.0621 -1.2737
14747SOL     OW45403   5.527   8.744   3.612 -0.8187 -0.6160 -0.2224
14747SOL    HW145404   5.503   8.837   3.603  0.1303 -0.4524 -1.4332
14747SOL    HW245405   5.443   8.699   3.621 -1.4513  0.1759 -1.6999
14748SOL     OW45406   3.932   2.025   7.603 -0.3468 -0.2822  0.5257
14748SOL    HW145407   4.009   2.083   7.600  0.1577 -0.9521  0.2776
14748SOL    HW245408   3.936   1.985   7.690  0.3486 -1.3124  0.0451
14749SOL     OW45409   4.010   0.825   6.516  0.0470 -0.2658  0.1425
14749SOL    HW145410   3.947   0.892   6.543  3.1968  2.6635  0.9936
14749SOL    HW245411   4.012   0.831   6.421 -1.7615 -1.2833  0.0093
14750SOL     OW45412   1.753   3.268   0.011 -0.1590  0.1541  0.6021
14750SOL    HW145413   1.736   3.234  -0.077  1.2718 -0.1379  0.4032
14750SOL    HW245414   1.803   3.198   0.054  1.6490  1.4154  0.6506
14751SOL     OW45415   4.626   7.836   7.860 -0.2680  0.8200  0.0758
14751SOL    HW145416   4.539   7.867   7.833  0.0693  1.1318 -0.6937
14751SOL    HW245417   4.678   7.917   7.869  0.5896  0.5474 -1.8234
14752SOL     OW45418   0.285   7.690   1.458 -0.3302  0.9591 -0.1003
14752SOL    HW145419   0.305   7.642   1.539 -1.6432  1.6178  0.6408
14752SOL    HW245420   0.325   7.636   1.389 -2.3774 -1.6939  0.6016
14753SOL     OW45421   0.943   7.491   7.906 -0.1462 -0.1941 -0.4346
14753SOL    HW145422   0.878   7.533   7.849 -1.9244 -1.3612  0.6408
14753SOL    HW245423   0.957   7.405   7.867 -0.6735 -0.6428  0.3218
14754SOL     OW45424   6.709   5.905   4.192  0.2007 -0.5230 -0.4384
14754SOL    HW145425   6.737   5.826   4.146  0.1030 -0.1402 -1.1777
14754SOL    HW245426   6.637   5.877   4.248  1.6388 -1.4031  1.0464
14755SOL     OW45427   1.160   0.279   7.859 -0.5707  0.2616  0.5384
14755SOL    HW145428   1.221   0.305   7.790 -0.7800 -0.4689  0.0782
14755SOL    HW245429   1.201   0.203   7.901 -1.9921 -1.4261 -0.9793
14756SOL     OW45430   6.121   4.574   6.178 -0.0450 -0.0861 -0.0807
14756SOL    HW145431   6.192   4.625   6.216  1.0808 -2.3427  1.0852
14756SOL    HW245432   6.110   4.609   6.090 -0.2886  2.9769  1.0409
14757SOL     OW45433   4.603   7.430   6.226 -0.6372  0.0093 -0.1815
14757SOL    HW145434   4.579   7.514   6.186 -1.2409 -0.1713 -0.2076
14757SOL    HW245435   4.527   7.407   6.280 -0.2821 -0.2938  0.1982
14758SOL     OW45436   5.719   6.100   0.564 -0.0250  0.0027 -0.4774
14758SOL    HW145437   5.671   6.084   0.646  0.5226  0.2314 -0.1040
14758SOL    HW245438   5.723   6.195   0.557 -1.9333  0.0373 -1.8939
14759SOL     OW45439   1.513   7.927   1.705  0.1023 -0.3992 -0.4368
14759SOL    HW145440   1.603   7.939   1.676  0.7543 -0.9519  1.2230
14759SOL    HW245441   1.485   8.014   1.734  0.8641 -0.6157  1.0146
14760SOL     OW45442   8.728   3.739   6.370  0.2715 -0.2757  0.1625
14760SOL    HW145443   8.681   3.822   6.378 -0.6600 -0.5966 -1.6408
14760SOL    HW245444   8.704   3.690   6.449 -0.1386  0.6844  0.6421
14761SOL     OW45445   6.153   2.373   3.792  0.2551 -0.5416 -0.2324
14761SOL    HW145446   6.094   2.342   3.724  0.4163  0.7126 -0.9625
14761SOL    HW245447   6.219   2.304   3.799  0.2426 -0.6857 -1.3580
14762SOL     OW45448   2.886   0.121   4.549  0.2278 -0.1095 -0.5330
14762SOL    HW145449   2.911   0.146   4.638 -2.4742 -0.0621  0.2849
14762SOL    HW245450   2.914   0.030   4.541 -1.5986 -0.8760  1.2682
14763SOL     OW45451   4.981   2.169   0.857 -0.0092 -0.2952  0.3505
14763SOL    HW145452   5.030   2.250   0.871  0.4352 -0.5341  0.2187
14763SOL    HW245453   4.906   2.175   0.916  1.2719 -0.8378  2.1180
14764SOL     OW45454   0.342   1.895   0.125 -0.3672  0.0790 -0.1887
14764SOL    HW145455   0.376   1.877   0.037  1.4050 -0.3006  0.5330
14764SOL    HW245456   0.404   1.853   0.184 -0.7790  1.4635  1.3135
14765SOL     OW45457   8.646   3.461   0.154 -0.8157 -0.7037  0.0680
14765SOL    HW145458   8.618   3.402   0.084  2.2695 -3.2312  0.7266
14765SOL    HW245459   8.734   3.488   0.129 -0.6496  0.4641  1.7275
14766SOL     OW45460   4.748   7.111   8.565  0.2053  0.1955 -0.3088
14766SOL    HW145461   4.655   7.089   8.553 -0.2330  1.0363  1.2666
14766SOL    HW245462   4.767   7.175   8.496 -0.6100  0.6265 -0.1434
14767SOL     OW45463   5.054   5.911   7.992  0.0077 -0.3250  0.1639
14767SOL    HW145464   4.996   5.983   8.016 -1.1773 -0.4816 -1.9922
14767SOL    HW245465   5.051   5.852   8.068 -1.8797  0.1641  0.5394
14768SOL     OW45466   8.809   1.590   6.425  0.0081 -0.5076  0.3333
14768SOL    HW145467   8.842   1.680   6.427 -0.7941 -0.2228  0.9638
14768SOL    HW245468   8.744   1.586   6.495 -1.6566 -0.9046 -1.1465
14769SOL     OW45469   8.790   2.119   8.156 -0.5517  0.1889  0.2641
14769SOL    HW145470   8.705   2.083   8.131 -1.9673  2.5579  1.3247
14769SOL    HW245471   8.807   2.082   8.243 -1.1805  0.7156  0.6251
14770SOL     OW45472   4.601   0.412   1.270 -0.0396 -0.3318  0.2410
14770SOL    HW145473   4.642   0.333   1.305  1.6704  0.7526  0.8414
14770SOL    HW245474   4.513   0.385   1.246  0.1640 -2.1642  1.3634
14771SOL     OW45475   2.318   3.426   1.944  0.3466 -0.2923 -0.1781
14771SOL    HW145476   2.289   3.343   1.980  1.4132 -0.1828  1.0145
14771SOL    HW245477   2.385   3.402   1.880  2.1355 -0.3523  1.5965
14772SOL     OW45478   7.666   1.852   0.339 -0.5476  0.3122 -0.0341
14772SOL    HW145479   7.678   1.767   0.295  2.0223 -0.4924  1.9768
14772SOL    HW245480   7.746   1.900   0.319 -2.6564  3.1163 -2.5688
14773SOL     OW45481   8.439   7.656   5.710  0.3613  0.2294 -0.1496
14773SOL    HW145482   8.366   7.648   5.772 -1.9112  3.1886 -2.1238
14773SOL    HW245483   8.397   7.653   5.624  2.6179  1.7469 -1.3942
14774SOL     OW45484   4.805   6.243   7.341 -0.3910  0.0846  0.2924
14774SOL    HW145485   4.751   6.172   7.307  0.6983 -0.5097 -0.2411
14774SOL    HW245486   4.851   6.204   7.415  0.4930  0.1000 -0.2325
14775SOL     OW45487   5.736   3.761   8.671  0.0363  0.4704  0.4349
14775SOL    HW145488   5.813   3.744   8.616 -0.1572 -0.8852  0.5535
14775SOL    HW245489   5.701   3.843   8.637  0.8583  0.4967 -0.4058
14776SOL     OW45490   4.622   1.745   3.737  0.2309  0.2682 -0.0458
14776SOL    HW145491   4.686   1.744   3.665  0.5355  2.7549  0.0852
14776SOL    HW245492   4.559   1.677   3.714  0.8615  0.3195 -2.1669
14777SOL     OW45493   3.950   5.248   8.658  0.0720 -0.8768  0.1918
14777SOL    HW145494   3.913   5.192   8.590 -0.0180  0.8647 -1.2747
14777SOL    HW245495   4.033   5.278   8.622  0.1654 -0.1533  0.9798
14778SOL     OW45496   8.561   4.624   2.440  0.2719 -0.0107 -0.0205
14778SOL    HW145497   8.540   4.716   2.452 -0.7233 -0.0918 -1.0217
14778SOL    HW245498   8.487   4.577   2.478  1.8394 -0.5143  2.6826
14779SOL     OW45499   0.532   2.277   0.676  0.1691 -0.2487  0.1085
14779SOL    HW145500   0.450   2.260   0.630 -0.9532 -1.4816  2.4172
14779SOL    HW245501   0.600   2.260   0.611 -1.3130  2.3575 -2.3773
14780SOL     OW45502   2.315   8.656   8.304  0.0980 -0.1615 -0.0191
14780SOL    HW145503   2.297   8.570   8.341 -3.3921 -0.3794 -1.8021
14780SOL    HW245504   2.385   8.640   8.240  0.3940 -1.4007  0.5922
14781SOL     OW45505   0.286   8.552   8.438  0.5145  0.2838 -0.1052
14781SOL    HW145506   0.308   8.459   8.435  0.2075  0.2146 -0.2395
14781SOL    HW245507   0.230   8.560   8.516  0.3822  0.3207 -0.2034
14782SOL     OW45508   2.124   8.355   6.874 -0.4882  0.7604  0.3265
14782SOL    HW145509   2.161   8.279   6.919  1.4339  1.5291  0.1582
14782SOL    HW245510   2.031   8.352   6.894 -0.7085 -2.2429 -0.5629
14783SOL     OW45511   1.588   2.275   4.328  0.4524 -0.1768  0.1831
14783SOL    HW145512   1.546   2.345   4.376  1.1888 -0.7872  1.8057
14783SOL    HW245513   1.681   2.300   4.326  0.7266 -1.0769  0.8090
14784SOL     OW45514   7.441   4.242   1.603 -0.2842  0.5859 -0.2742
14784SOL    HW145515   7.473   4.210   1.688 -0.4803  2.8804  0.7306
14784SOL    HW245516   7.372   4.180   1.579  1.4129 -1.5390 -0.0236
14785SOL     OW45517   5.961   2.244   7.745 -0.4627  0.0319 -0.0528
14785SOL    HW145518   6.036   2.270   7.692 -1.4337  2.4693 -0.3667
14785SOL    HW245519   5.888   2.240   7.684 -1.1280  0.4829  0.6897
14786SOL     OW45520   8.708   5.056   7.663 -0.4124 -0.2590 -0.5132
14786SOL    HW145521   8.614   5.046   7.678 -0.5865 -0.8278 -1.7950
14786SOL    HW245522   8.722   5.019   7.575  0.8662  0.5963 -0.7025
14787SOL     OW45523   6.879   5.066   0.188 -0.0309 -0.4326  0.5939
14787SOL    HW145524   6.798   5.019   0.208  0.8103 -1.9577  0.5952
14787SOL    HW245525   6.943   5.031   0.251  1.3887 -1.5634 -1.3643
14788SOL     OW45526   3.401   1.426   5.608 -0.2664 -0.6134 -0.4210
14788SOL    HW145527   3.492   1.403   5.626  0.5207  2.8947  0.6446
14788SOL    HW245528   3.397   1.433   5.512  0.6814 -0.4487 -0.4568
14789SOL     OW45529   5.499   5.511   1.466 -0.2977  0.3605  0.4104
14789SOL    HW145530   5.535   5.441   1.520 -1.9128  0.2563  1.4343
14789SOL    HW245531   5.518   5.484   1.376  1.7283  0.1310  0.8481
14790SOL     OW45532   2.932   5.304   2.192 -0.2528  0.3818 -0.0552
14790SOL    HW145533   2.941   5.270   2.103 -0.2904  1.1511 -0.3674
14790SOL    HW245534   2.877   5.241   2.237 -0.8164  0.3397 -0.7914
14791SOL     OW45535   3.817   5.879   5.823 -0.4221  0.1904  0.1823
14791SOL    HW145536   3.811   5.785   5.840 -0.4788  0.0128 -0.7458
14791SOL    HW245537   3.909   5.894   5.802 -0.7690 -0.0429 -1.6698
14792SOL     OW45538   2.249   3.092   0.166  0.1711  0.8619  0.7997
14792SOL    HW145539   2.167   3.113   0.121  0.7917 -0.1430 -0.8859
14792SOL    HW245540   2.234   3.005   0.204  0.7960  0.1822 -0.4626
14793SOL     OW45541   8.122   7.898   7.061  0.1688 -0.1482 -0.1002
14793SOL    HW145542   8.172   7.978   7.052  0.6251 -0.3038  0.8905
14793SOL    HW245543   8.165   7.851   7.133  0.0795 -1.4059 -0.8533
14794SOL     OW45544   1.820   0.134   8.743 -0.2546 -0.2813 -0.1335
14794SOL    HW145545   1.836   0.228   8.750  1.7192 -0.5546 -0.5024
14794SOL    HW245546   1.734   0.128   8.703  0.1039  1.3906 -1.2640
14795SOL     OW45547   2.436   7.595   3.631 -0.4012  0.2059 -0.1597
14795SOL    HW145548   2.427   7.605   3.726 -0.9098 -1.9330  0.0580
14795SOL    HW245549   2.354   7.629   3.596 -0.4260  0.5320  0.2020
14796SOL     OW45550   2.379   6.096   8.018  0.1468 -1.1184  0.0873
14796SOL    HW145551   2.288   6.069   8.028 -0.1475 -0.7706 -1.4336
14796SOL    HW245552   2.378   6.190   8.036 -0.0480 -0.8614 -1.1791
14797SOL     OW45553   8.803   4.109   0.838 -0.4133 -0.1705  0.3583
14797SOL    HW145554   8.779   4.197   0.809  0.3077 -0.4941 -1.3429
14797SOL    HW245555   8.725   4.055   0.820 -0.6656  0.0074  0.9020
14798SOL     OW45556   1.498   8.719   5.544  1.3560 -0.0649  0.2275
14798SOL    HW145557   1.406   8.738   5.565  0.6470 -1.1248 -1.6951
14798SOL    HW245558   1.546   8.794   5.579 -0.1462  0.2136  1.8357
14799SOL     OW45559   6.162   2.068   2.723 -0.1846  0.1884 -0.3185
14799SOL    HW145560   6.112   2.011   2.782 -0.0509 -0.3826 -0.7495
14799SOL    HW245561   6.160   2.023   2.639  2.3480 -0.6544  0.0008
14800SOL     OW45562   3.659   7.367   7.668 -0.2606  0.3990 -0.5244
14800SOL    HW145563   3.736   7.339   7.718 -0.3676  0.7084 -0.1792
14800SOL    HW245564   3.585   7.329   7.714 -0.2980 -0.2103 -1.0737
14801SOL     OW45565   2.305   4.557   6.896 -0.1256 -0.6454 -0.7742
14801SOL    HW145566   2.233   4.615   6.918 -0.3812 -0.6176 -1.6341
14801SOL    HW245567   2.275   4.470   6.923 -1.0705 -0.8513 -2.3048
14802SOL     OW45568   1.303   1.466   6.023  0.6848  0.4032 -0.0791
14802SOL    HW145569   1.274   1.388   6.071  0.8945  0.8005  0.7128
14802SOL    HW245570   1.391   1.444   5.993  1.7618  1.1896  2.2526
14803SOL     OW45571   3.706   0.271   0.482 -0.3310 -0.7144  0.0619
14803SOL    HW145572   3.647   0.283   0.557  0.6926  1.6470  0.5837
14803SOL    HW245573   3.657   0.306   0.407  0.0253  0.3553  0.3206
14804SOL     OW45574   3.612   3.618   3.415  0.1388  0.2747 -0.2811
14804SOL    HW145575   3.539   3.680   3.415 -1.1124 -1.1476  0.2234
14804SOL    HW245576   3.572   3.533   3.434  1.8076 -0.7000 -0.8861
14805SOL     OW45577   6.976   1.484   2.200  0.5136  0.0680 -0.4857
14805SOL    HW145578   6.956   1.512   2.289  0.6758  0.3021 -0.5228
14805SOL    HW245579   6.979   1.565   2.149  2.3707  0.1327 -0.3226
14806SOL     OW45580   6.514   0.488   0.579 -0.7909  0.0258  0.1985
14806SOL    HW145581   6.432   0.489   0.628 -0.8889  0.2133  0.0308
14806SOL    HW245582   6.506   0.413   0.521 -0.3659 -0.6484  0.9874
14807SOL     OW45583   8.095   4.364   2.342 -0.3981  0.4447 -0.2535
14807SOL    HW145584   8.021   4.358   2.402  0.5527  2.0103  1.1806
14807SOL    HW245585   8.116   4.274   2.320 -2.1591 -0.0642  0.0117
14808SOL     OW45586   3.837   7.016   7.205 -0.3301 -0.6185 -0.6322
14808SOL    HW145587   3.795   7.027   7.120 -1.4496 -2.3694 -0.3529
14808SOL    HW245588   3.788   7.074   7.264 -0.3497 -0.3413 -0.9189
14809SOL     OW45589   8.302   0.697   7.358  0.2138 -0.0365 -0.4569
14809SOL    HW145590   8.292   0.776   7.412 -0.6625 -0.8829  0.6730
14809SOL    HW245591   8.290   0.624   7.419 -2.4019 -1.0572 -2.0157
14810SOL     OW45592   7.301   3.532   3.481  0.1193  0.0826  0.1570
14810SOL    HW145593   7.349   3.484   3.414  0.1857  0.9742 -0.4533
14810SOL    HW245594   7.212   3.538   3.446  0.1391  0.4907  0.1714
14811SOL     OW45595   5.118   2.065   0.424 -0.6818 -0.5400  0.0242
14811SOL    HW145596   5.180   2.021   0.366  0.6205  0.7351  0.3645
14811SOL    HW245597   5.034   2.061   0.379  0.4430  1.2018 -2.4236
14812SOL     OW45598   6.019   8.140   3.449 -0.1851 -0.0808 -0.2703
14812SOL    HW145599   6.070   8.145   3.368 -0.3777 -0.1617 -0.3941
14812SOL    HW245600   5.984   8.228   3.461 -0.2798 -0.1068 -0.3535
14813SOL     OW45601   6.286   3.623   5.287  0.5171 -0.3772  0.2392
14813SOL    HW145602   6.193   3.605   5.273  0.3738  0.1835  0.4208
14813SOL    HW245603   6.329   3.593   5.207 -0.0204  0.7667 -0.5090
14814SOL     OW45604   8.550   5.307   7.475 -0.6000  0.5654  0.1433
14814SOL    HW145605   8.465   5.316   7.432 -0.7930  1.1726  0.6487
14814SOL    HW245606   8.560   5.212   7.487 -0.6805  0.4053 -0.9524
14815SOL     OW45607   7.143   4.262   1.735  0.5574  0.3618  0.4062
14815SOL    HW145608   7.144   4.346   1.690  0.0436 -0.4925 -1.2846
14815SOL    HW245609   7.128   4.198   1.665 -3.7411 -0.8227  2.1213
14816SOL     OW45610   6.460   4.191   0.475 -0.6055  0.0061 -0.0130
14816SOL    HW145611   6.454   4.270   0.528 -0.3403  1.1435 -1.5958
14816SOL    HW245612   6.551   4.163   0.483  0.0187  1.4521 -1.5603
14817SOL     OW45613   7.237   3.022   7.567  0.1221 -0.0765  0.3346
14817SOL    HW145614   7.175   2.963   7.524 -0.9140  0.6761  0.7495
14817SOL    HW245615   7.217   3.014   7.661  1.1504 -0.3682  0.5398
14818SOL     OW45616   1.895   7.289   0.064 -0.3428  0.2597 -0.6117
14818SOL    HW145617   1.969   7.269   0.006 -1.3911 -1.6579 -1.3711
14818SOL    HW245618   1.934   7.298   0.150  0.8953  0.2108 -1.1449
14819SOL     OW45619   5.663   1.562   3.913  0.2056  0.1753  0.0674
14819SOL    HW145620   5.698   1.591   3.828 -0.4140  3.5348  0.7984
14819SOL    HW245621   5.569   1.553   3.898 -0.1100  2.0718  0.5996
14820SOL     OW45622   6.112   3.950   6.370  0.4624  0.2439 -0.2937
14820SOL    HW145623   6.030   3.912   6.338  0.6412 -0.0201 -0.4448
14820SOL    HW245624   6.111   3.934   6.464 -0.6598  2.1511  0.0601
14821SOL     OW45625   4.609   4.986   7.684 -0.0513 -0.5884  0.2415
14821SOL    HW145626   4.610   4.938   7.767 -2.6051  0.4321  0.9541
14821SOL    HW245627   4.670   4.938   7.628  0.7562 -2.0727  2.2765
14822SOL     OW45628   6.740   2.725   5.950  0.4485 -0.3472  1.0226
14822SOL    HW145629   6.747   2.630   5.935  0.3264 -0.4865  1.8135
14822SOL    HW245630   6.827   2.759   5.930  0.1694 -0.4434 -0.4883
14823SOL     OW45631   4.029   3.293   7.540 -0.0498  0.3007 -0.3534
14823SOL    HW145632   3.973   3.231   7.586  0.1121 -0.7114 -1.4767
14823SOL    HW245633   3.986   3.307   7.456  0.6326  0.6276 -0.6541
14824SOL     OW45634   6.059   4.417   5.726 -0.4860  0.1832 -0.0176
14824SOL    HW145635   6.039   4.325   5.739  0.8207 -0.2293 -0.7500
14824SOL    HW245636   5.983   4.452   5.678 -0.9331 -0.5238  0.1630
14825SOL     OW45637   4.909   4.830   7.643 -0.3920 -0.2139 -0.1999
14825SOL    HW145638   4.912   4.910   7.590 -1.1212  0.6110  0.9314
14825SOL    HW245639   4.926   4.759   7.582  3.5282  0.9689 -0.7257
14826SOL     OW45640   0.264   6.321   4.959 -0.7570  0.2384  0.1831
14826SOL    HW145641   0.275   6.274   4.876 -1.1262  2.1226 -0.9812
14826SOL    HW245642   0.306   6.264   5.024  0.3450 -0.8717 -1.4206
14827SOL     OW45643   8.355   4.401   1.264  0.4629 -0.0085 -0.1823
14827SOL    HW145644   8.404   4.402   1.347 -1.3157  0.3331  0.9252
14827SOL    HW245645   8.279   4.346   1.283  0.6455 -0.9483 -2.0126
14828SOL     OW45646   8.634   4.126   2.073 -0.2256  0.1242 -0.0493
14828SOL    HW145647   8.644   4.119   2.168 -0.7268  1.3853  0.1163
14828SOL    HW245648   8.706   4.073   2.037  1.2124  1.2700  1.0371
14829SOL     OW45649   4.777   4.440   7.553 -0.5688 -0.3708  0.4131
14829SOL    HW145650   4.685   4.426   7.533 -0.2136 -1.5629 -0.5326
14829SOL    HW245651   4.817   4.353   7.544  0.3974 -0.1706  2.2609
14830SOL     OW45652   7.275   7.106   6.910 -0.1956 -0.4923 -0.2817
14830SOL    HW145653   7.310   7.086   6.823  1.6234 -1.0941  0.5321
14830SOL    HW245654   7.218   7.032   6.931 -0.5247 -0.4165 -0.8895
14831SOL     OW45655   5.110   8.083   6.648 -0.1775 -0.0983  0.0360
14831SOL    HW145656   5.195   8.041   6.641  0.0151  0.0301  1.3740
14831SOL    HW245657   5.050   8.012   6.672 -0.2049  0.0306  0.3602
14832SOL     OW45658   2.830   8.731   8.716 -0.0062  0.6325 -0.2520
14832SOL    HW145659   2.843   8.736   8.811  1.0280  1.5094 -0.4222
14832SOL    HW245660   2.864   8.645   8.692 -0.7709  0.1816  0.2294
14833SOL     OW45661   7.258   8.236   6.768 -0.4867  0.8059  0.5103
14833SOL    HW145662   7.264   8.171   6.838  1.6517  0.1926 -0.1630
14833SOL    HW245663   7.349   8.255   6.745 -1.0022  4.2400  0.8247
14834SOL     OW45664   7.997   5.548   2.802  0.1068 -0.2482  0.3137
14834SOL    HW145665   7.931   5.566   2.736 -0.7675  2.4661  1.7597
14834SOL    HW245666   8.078   5.585   2.766  0.0654 -0.4967 -0.0317
14835SOL     OW45667   0.836   5.921   0.671 -0.1731 -0.1254 -0.5331
14835SOL    HW145668   0.775   5.919   0.598 -0.6169  2.1262 -0.2960
14835SOL    HW245669   0.791   5.973   0.738  0.6130 -1.3255  0.9969
14836SOL     OW45670   0.794   7.280   1.993 -0.4038  0.1129  0.6209
14836SOL    HW145671   0.768   7.194   2.026 -1.6531  0.2746  0.1220
14836SOL    HW245672   0.747   7.342   2.048 -0.5600  0.4375  0.1299
14837SOL     OW45673   6.208   1.548   6.182 -0.2304 -0.6314  0.6297
14837SOL    HW145674   6.240   1.526   6.270 -0.6899  0.0568  0.9793
14837SOL    HW245675   6.117   1.516   6.181 -0.6502  0.5081  0.8701
14838SOL     OW45676   3.314   5.250   7.766  0.8513 -0.6035  0.6467
14838SOL    HW145677   3.352   5.329   7.729 -1.3872  0.0427 -0.4733
14838SOL    HW245678   3.348   5.179   7.711  0.7170 -0.0895 -0.1212
14839SOL     OW45679   4.667   0.087   7.054  0.2642  0.2917  0.1096
14839SOL    HW145680   4.701   0.157   6.998  0.5164  0.2306  0.1817
14839SOL    HW245681   4.680   0.007   7.003 -0.0809  0.3034  0.0014
14840SOL     OW45682   0.204   1.532   6.413  0.1310 -0.2337 -0.2802
14840SOL    HW145683   0.109   1.545   6.410  0.3869  2.1053 -0.0860
14840SOL    HW245684   0.225   1.485   6.332 -0.8958  1.8077 -1.8192
14841SOL     OW45685   3.580   7.268   3.138  0.4279  0.6294  0.5279
14841SOL    HW145686   3.532   7.237   3.215  0.5501  0.6106  0.5966
14841SOL    HW245687   3.535   7.348   3.112  1.4507  1.5989  1.6635
14842SOL     OW45688   0.762   4.827   7.186 -0.4326  0.0814  0.2270
14842SOL    HW145689   0.710   4.871   7.254  2.8083  1.4636  2.0287
14842SOL    HW245690   0.795   4.898   7.131  1.2981 -0.4623  0.4973
14843SOL     OW45691   3.584   0.069   2.047  0.3953 -0.2270 -0.8836
14843SOL    HW145692   3.558   0.091   1.957 -0.9712  1.0019 -0.2429
14843SOL    HW245693   3.538  -0.013   2.066  0.5746 -0.4156 -1.2552
14844SOL     OW45694   5.874   7.056   8.512 -0.3303  0.4006 -0.0465
14844SOL    HW145695   5.825   7.136   8.492 -1.3599 -0.1226  0.3268
14844SOL    HW245696   5.937   7.048   8.440 -1.3752  0.6197 -1.0087
14845SOL     OW45697   6.561   4.430   3.590 -0.0844 -0.5703 -0.3894
14845SOL    HW145698   6.646   4.473   3.580  0.2571 -1.4286 -1.4486
14845SOL    HW245699   6.582   4.340   3.612 -0.6795 -1.0165 -1.5699
14846SOL     OW45700   0.304   2.985   2.010 -0.4715 -0.0291 -0.1733
14846SOL    HW145701   0.341   3.017   1.928  1.9256 -0.5111  0.6387
14846SOL    HW245702   0.339   3.044   2.077  0.3196 -1.5751  0.8397
14847SOL     OW45703   3.383   2.053   0.232  0.7981 -0.4712  0.7642
14847SOL    HW145704   3.410   2.145   0.232 -1.2155  0.1700 -0.2701
14847SOL    HW245705   3.445   2.010   0.173  0.9704  0.5010  0.2134
14848SOL     OW45706   5.393   3.800   7.346 -0.0823  0.0613  0.0824
14848SOL    HW145707   5.454   3.728   7.331 -0.8111 -0.5295 -0.0758
14848SOL    HW245708   5.433   3.851   7.416  0.2104 -0.7680  0.5312
14849SOL     OW45709   2.090   7.852   7.273  0.2285 -0.0381 -0.3534
14849SOL    HW145710   2.110   7.914   7.344 -1.6553 -1.3239  1.3994
14849SOL    HW245711   2.159   7.786   7.279 -1.2091 -1.4253  1.9272
14850SOL     OW45712   6.672   4.513   6.357  1.0070  0.1092 -0.2980
14850SOL    HW145713   6.637   4.599   6.381  0.9077  0.1903 -0.7284
14850SOL    HW245714   6.602   4.473   6.306  0.1802 -1.0769  1.6392
14851SOL     OW45715   1.232   1.737   6.013  0.7456  0.1959  0.1571
14851SOL    HW145716   1.250   1.644   6.003  2.2498  0.2033  2.1913
14851SOL    HW245717   1.318   1.779   6.010  0.0693  1.5776 -0.9931
14852SOL     OW45718   8.534   7.208   8.576  0.3710  0.0879 -0.1693
14852SOL    HW145719   8.552   7.301   8.589 -0.4156 -0.0158  2.3651
14852SOL    HW245720   8.611   7.174   8.530  1.2991  1.7288  0.0944
14853SOL     OW45721   4.555   1.375   8.807 -0.5600  0.2537  0.4447
14853SOL    HW145722   4.553   1.464   8.773 -0.8115 -0.0093 -0.2582
14853SOL    HW245723   4.556   1.385   8.902 -3.9895  1.0223  0.5264
14854SOL     OW45724   2.096   2.347   6.662  0.6608  0.2779 -0.8577
14854SOL    HW145725   2.106   2.256   6.690 -0.7938  0.3840  0.0849
14854SOL    HW245726   2.102   2.344   6.567  1.1612 -0.7241 -0.8030
14855SOL     OW45727   0.314   4.654   0.001 -0.5134 -0.2499  0.6553
14855SOL    HW145728   0.266   4.680  -0.078  2.8131  0.7338 -1.2198
14855SOL    HW245729   0.360   4.733   0.029  1.0455 -1.4219  1.5415
14856SOL     OW45730   0.296   2.626   6.435  0.5614  0.9658 -0.3430
14856SOL    HW145731   0.273   2.536   6.459 -1.9451  1.5766 -0.1403
14856SOL    HW245732   0.391   2.626   6.430  0.6694 -1.5259  0.3211
14857SOL     OW45733   5.741   5.746   7.717 -0.4064 -0.4723 -0.1199
14857SOL    HW145734   5.702   5.695   7.646 -2.0511 -0.7570  0.9262
14857SOL    HW245735   5.716   5.836   7.698 -1.6541 -0.6491  0.5296
14858SOL     OW45736   7.204   4.103   1.491  0.1262  0.2620 -0.0098
14858SOL    HW145737   7.188   4.010   1.505 -0.6778  0.5430  1.0378
14858SOL    HW245738   7.181   4.118   1.399 -1.9995 -0.1313  0.4186
14859SOL     OW45739   4.250   1.398   8.727  0.3376 -0.0610 -0.4080
14859SOL    HW145740   4.304   1.475   8.749  0.0670 -0.1502  0.6111
14859SOL    HW245741   4.195   1.385   8.804 -0.0802 -0.8869 -0.8408
14860SOL     OW45742   0.195   0.597   2.701 -0.4094  0.6117 -0.2285
14860SOL    HW145743   0.107   0.637   2.699 -0.6960 -0.0286 -0.5740
14860SOL    HW245744   0.248   0.653   2.644 -0.2338  1.8059  1.0532
14861SOL     OW45745   1.471   0.274   3.003 -0.1751 -0.6779  0.0909
14861SOL    HW145746   1.466   0.355   3.054 -0.3745 -1.8579  2.0830
14861SOL    HW245747   1.461   0.302   2.912  0.9736  1.6339  0.5940
14862SOL     OW45748   7.922   6.952   0.537  0.2232  0.2837  0.4273
14862SOL    HW145749   7.864   6.927   0.609  0.5616  2.6036  1.5871
14862SOL    HW245750   7.887   6.905   0.461 -1.5516 -0.4399  1.6221
14863SOL     OW45751   7.549   8.303   3.786 -0.2100  0.3547 -0.0363
14863SOL    HW145752   7.597   8.261   3.715  1.1041 -1.1818  1.6752
14863SOL    HW245753   7.466   8.330   3.747  0.7088  0.1086 -2.2703
14864SOL     OW45754   1.979   4.175   1.210  0.3084  0.2559  0.4019
14864SOL    HW145755   2.050   4.151   1.150 -0.1583  1.3895 -0.6460
14864SOL    HW245756   1.933   4.092   1.227  0.3130 -0.0604 -1.0030
14865SOL     OW45757   6.903   2.812   6.617  0.0497 -0.0490  0.2631
14865SOL    HW145758   6.978   2.868   6.634  0.9337 -1.1478  0.1381
14865SOL    HW245759   6.831   2.872   6.599  0.7328  1.0369  1.0640
14866SOL     OW45760   8.241   5.631   3.483  0.0772  0.3468 -0.8434
14866SOL    HW145761   8.312   5.660   3.541  0.3180 -0.1799 -0.8692
14866SOL    HW245762   8.277   5.640   3.395 -0.8557  2.7384 -1.0522
14867SOL     OW45763   2.904   1.794   8.522 -0.0221  0.5432 -0.4207
14867SOL    HW145764   2.947   1.719   8.481  0.3030  0.9955 -0.9184
14867SOL    HW245765   2.941   1.871   8.478  0.0808  1.0301  0.4784
14868SOL     OW45766   7.321   2.577   7.278  0.2241  0.1015 -0.1108
14868SOL    HW145767   7.353   2.490   7.300 -1.0832 -0.0202  1.5474
14868SOL    HW245768   7.363   2.635   7.342 -1.2573  0.2047  0.8201
14869SOL     OW45769   8.313   7.493   3.788  0.0146 -0.2632 -0.7340
14869SOL    HW145770   8.382   7.552   3.758 -0.1033  0.6192  0.6849
14869SOL    HW245771   8.284   7.449   3.708 -0.2294  1.9384 -1.9319
14870SOL     OW45772   4.974   1.055   8.080  0.1179  0.0244 -0.2961
14870SOL    HW145773   4.976   1.073   8.174 -1.4830 -0.5595 -0.1143
14870SOL    HW245774   4.881   1.062   8.056  0.5036  0.2169 -1.8444
14871SOL     OW45775   7.971   7.621   8.399  0.0092 -0.8380  0.5831
14871SOL    HW145776   8.006   7.551   8.344 -0.5506 -1.8220  1.4578
14871SOL    HW245777   7.900   7.659   8.347 -0.3690 -1.6099  0.5182
14872SOL     OW45778   1.578   4.690   1.396  0.1234 -1.1438  0.7131
14872SOL    HW145779   1.510   4.637   1.355 -0.4215 -3.1582  3.8736
14872SOL    HW245780   1.533   4.770   1.423 -0.1925 -1.0921  0.0613
14873SOL     OW45781   0.204   3.510   7.562  0.1685 -0.1478 -0.0775
14873SOL    HW145782   0.191   3.557   7.645  1.4516 -1.3985  0.8998
14873SOL    HW245783   0.167   3.567   7.495  2.4671  2.7432  0.9085
14874SOL     OW45784   8.850   0.103   1.110  1.2287  0.0052  1.1894
14874SOL    HW145785   8.834   0.168   1.178 -0.1979  1.5837 -0.5401
14874SOL    HW245786   8.936   0.127   1.074  0.8831  0.7352  0.8204
14875SOL     OW45787   5.544   5.030   8.321 -0.5173 -0.1356 -0.1232
14875SOL    HW145788   5.532   4.940   8.351  1.4600 -0.1044  0.9311
14875SOL    HW245789   5.522   5.027   8.228  0.3387 -1.9180 -0.3129
14876SOL     OW45790   1.751   4.955   8.022  0.0592 -0.1052  0.6417
14876SOL    HW145791   1.756   4.926   7.931 -2.1642  0.5810  0.2438
14876SOL    HW245792   1.754   5.051   8.018 -1.1193 -0.0253  1.1672
14877SOL     OW45793   6.341   4.249   7.788 -0.2261 -0.2493 -0.7701
14877SOL    HW145794   6.319   4.338   7.815 -0.6014  0.6017 -3.5189
14877SOL    HW245795   6.256   4.205   7.779 -0.0376 -0.9703  0.6950
14878SOL     OW45796   5.880   4.993   2.866 -0.0303  0.2480  0.3395
14878SOL    HW145797   5.937   5.066   2.841  1.4199 -1.1683 -0.7028
14878SOL    HW245798   5.811   4.993   2.800  1.6397 -1.0868 -1.5353
14879SOL     OW45799   3.939   0.756   3.670 -0.0173  0.1799  0.0097
14879SOL    HW145800   3.858   0.776   3.718 -0.5368 -1.7036 -0.0116
14879SOL    HW245801   3.937   0.661   3.658  1.3615  0.3071 -1.5347
14880SOL     OW45802   0.480   1.551   4.134 -0.0087 -0.0483 -0.2826
14880SOL    HW145803   0.434   1.547   4.050 -1.2704 -1.8338  0.4351
14880SOL    HW245804   0.478   1.461   4.167  0.9171  0.5180  1.4191
14881SOL     OW45805   5.669   0.871   4.859  0.3924 -0.7050  0.1896
14881SOL    HW145806   5.592   0.816   4.856  0.0749 -0.2604 -2.2869
14881SOL    HW245807   5.659   0.923   4.939  0.1315 -3.3170  1.9695
14882SOL     OW45808   7.870   5.130   5.499 -0.0585 -0.3144 -0.2422
14882SOL    HW145809   7.917   5.208   5.470 -1.5472  2.3557  3.6845
14882SOL    HW245810   7.940   5.068   5.522  1.3032  0.9972 -0.6680
14883SOL     OW45811   0.127   5.859   2.568  0.1276 -0.0689 -0.0542
14883SOL    HW145812   0.154   5.903   2.648 -0.6000  2.5898 -1.1558
14883SOL    HW245813   0.033   5.845   2.578 -0.2499  1.5635 -0.9240
14884SOL     OW45814   5.745   7.758   8.855  0.0177 -0.5729 -0.2188
14884SOL    HW145815   5.765   7.804   8.773  1.5082 -0.5371  0.1228
14884SOL    HW245816   5.652   7.740   8.851  0.0933 -0.7091 -1.9941
14885SOL     OW45817   2.767   2.944   0.006 -0.1070 -0.1246 -0.3298
14885SOL    HW145818   2.707   3.011  -0.026  1.4146 -0.0665 -3.3709
14885SOL    HW245819   2.812   2.986   0.080  0.4001  2.0532 -1.7968
14886SOL     OW45820   7.864   4.157   8.547  0.4333 -0.1315 -0.1206
14886SOL    HW145821   7.957   4.148   8.526 -0.1126 -0.8493 -2.6133
14886SOL    HW245822   7.850   4.252   8.552  0.8585  0.0937 -2.2658
14887SOL     OW45823   5.247   6.944   2.071  0.7042  0.1774 -0.1376
14887SOL    HW145824   5.253   6.948   1.976  2.9326 -1.5540 -0.1387
14887SOL    HW245825   5.249   7.035   2.099  1.3178  0.6661 -1.6773
14888SOL     OW45826   4.783   3.463   6.847  0.4509  0.2596 -0.2229
14888SOL    HW145827   4.770   3.502   6.933 -0.8864 -3.0132  1.2453
14888SOL    HW245828   4.720   3.508   6.791 -0.4962  0.7517  1.1685
14889SOL     OW45829   7.257   4.920   7.796  0.0982 -0.1747 -0.4102
14889SOL    HW145830   7.238   4.846   7.854 -0.2650 -0.3340 -0.7213
14889SOL    HW245831   7.331   4.964   7.836 -0.2674 -0.1712  0.2787
14890SOL     OW45832   3.026   0.533   0.641  0.1774  0.4668 -0.5975
14890SOL    HW145833   2.973   0.514   0.719  0.9386 -0.1488 -0.2178
14890SOL    HW245834   3.108   0.569   0.675  0.6119 -0.0283 -1.1026
14891SOL     OW45835   2.416   0.125   3.868 -0.0371  0.4674 -0.2956
14891SOL    HW145836   2.491   0.068   3.878 -1.1775 -0.6998  2.8576
14891SOL    HW245837   2.386   0.141   3.958 -2.6769  2.0678 -1.3476
14892SOL     OW45838   2.004   2.160   2.001 -0.3921 -0.0301  0.3920
14892SOL    HW145839   1.932   2.102   1.978  0.4703 -0.3163 -1.7934
14892SOL    HW245840   2.070   2.145   1.934  0.6237  2.1480  0.8112
14893SOL     OW45841   1.367   2.170   7.720  0.1398 -0.2453 -0.2826
14893SOL    HW145842   1.334   2.089   7.760 -0.4415  0.7274  1.3024
14893SOL    HW245843   1.413   2.214   7.791  0.7551  0.6734 -1.2195
14894SOL     OW45844   3.902   6.386   8.170  0.8537 -0.1308  0.1087
14894SOL    HW145845   3.978   6.418   8.121  1.1357  1.7262  1.6433
14894SOL    HW245846   3.841   6.459   8.168  1.0701  0.2063  2.8553
14895SOL     OW45847   4.859   7.537   6.129  0.2403 -0.4498 -0.0958
14895SOL    HW145848   4.790   7.501   6.185 -0.9148  0.1273 -1.1122
14895SOL    HW245849   4.897   7.608   6.181 -1.3738  0.6219 -0.3287
14896SOL     OW45850   2.930   1.135   8.786 -0.1694 -0.3822 -0.7774
14896SOL    HW145851   2.975   1.052   8.769  0.8995 -0.0391  0.2178
14896SOL    HW245852   2.984   1.201   8.741 -1.5303 -0.2907 -2.3676
14897SOL     OW45853   1.872   5.292   5.183 -0.2416 -0.2985  0.6540
14897SOL    HW145854   1.928   5.364   5.214 -1.0937  0.3602  0.6791
14897SOL    HW245855   1.933   5.219   5.171  0.9438  0.8832 -1.0019
14898SOL     OW45856   4.361   4.039   2.018 -0.5477 -0.0802 -0.7892
14898SOL    HW145857   4.374   4.057   1.925  1.4152 -0.4159 -0.6251
14898SOL    HW245858   4.371   3.944   2.026  1.7176  0.1614  0.0434
14899SOL     OW45859   7.710   6.804   4.208  0.2869 -0.0898  0.0780
14899SOL    HW145860   7.731   6.871   4.273 -0.8940  0.1724  0.2124
14899SOL    HW245861   7.784   6.806   4.147 -0.2127  2.1388 -0.5417
14900SOL     OW45862   8.383   8.242   3.134 -0.7487  0.0700  0.1788
14900SOL    HW145863   8.324   8.167   3.146  0.7021 -0.9488  1.2781
14900SOL    HW245864   8.424   8.254   3.219 -0.1060  1.4009 -0.3035
14901SOL     OW45865   6.067   5.837   6.810  0.5647  0.0646 -1.0225
14901SOL    HW145866   6.058   5.799   6.897  0.4523  1.4488 -0.3978
14901SOL    HW245867   5.978   5.853   6.780  0.6074  1.8710 -0.3094
14902SOL     OW45868   0.187   0.359   2.520 -0.3753  0.4024 -0.0187
14902SOL    HW145869   0.209   0.415   2.594 -1.6028  0.8212  0.0472
14902SOL    HW245870   0.244   0.282   2.530  0.9361  1.3699  0.1904
14903SOL     OW45871   0.334   4.911   7.658  0.5831 -0.2796  0.4006
14903SOL    HW145872   0.316   4.874   7.571 -0.6083 -0.7638  0.8368
14903SOL    HW245873   0.318   5.005   7.648 -2.5425 -0.6601  0.7706
14904SOL     OW45874   5.320   5.344   1.686 -0.5729 -0.6055  0.2259
14904SOL    HW145875   5.367   5.367   1.766  0.9805 -1.6396 -0.3457
14904SOL    HW245876   5.256   5.414   1.675  1.9464  1.8268  0.1560
14905SOL     OW45877   3.366   6.063   7.469 -0.0872  0.2133 -1.0193
14905SOL    HW145878   3.436   6.081   7.406  1.5207  0.9059  0.8666
14905SOL    HW245879   3.349   5.969   7.459  2.0002 -0.2562 -0.7042
14906SOL     OW45880   0.680   8.081   8.484  0.1309 -0.3144  0.0810
14906SOL    HW145881   0.733   8.140   8.537  0.2053 -0.7953  0.5550
14906SOL    HW245882   0.742   8.036   8.427 -0.0872  1.1772 -1.4126
14907SOL     OW45883   6.932   4.942   3.726  0.4796  0.2062 -0.7473
14907SOL    HW145884   6.888   4.859   3.747  0.9394  0.2749  0.6228
14907SOL    HW245885   7.002   4.948   3.792  1.6886  0.7408 -2.0379
14908SOL     OW45886   8.859   6.792   3.802 -0.2523  0.3882  0.4981
14908SOL    HW145887   8.812   6.831   3.728  0.4626 -2.0651 -1.3867
14908SOL    HW245888   8.819   6.833   3.879 -1.3044  2.7818 -1.1768
14909SOL     OW45889   8.044   5.914   6.369  0.0088 -0.2563 -0.0295
14909SOL    HW145890   8.004   5.936   6.453  2.9785 -1.9441  2.0051
14909SOL    HW245891   7.997   5.835   6.341  0.1088 -0.6643  0.9187
14910SOL     OW45892   8.055   2.133   0.999 -0.4142  0.2004 -0.1514
14910SOL    HW145893   8.104   2.051   1.008 -0.9244 -0.2068 -1.0149
14910SOL    HW245894   7.993   2.116   0.929  0.5397  1.8453 -1.4621
14911SOL     OW45895   2.240   0.531   2.814  0.2626  0.3774 -0.8959
14911SOL    HW145896   2.185   0.454   2.802 -0.1852  0.6004 -0.3531
14911SOL    HW245897   2.213   0.590   2.743  1.8334 -0.6212 -2.3871
14912SOL     OW45898   2.556   0.072   8.386 -0.4982 -0.7760  0.1650
14912SOL    HW145899   2.532   0.163   8.372  0.1032  0.2511  4.4307
14912SOL    HW245900   2.488   0.037   8.443  1.1785 -1.8410  1.6163
14913SOL     OW45901   4.154   5.371   4.217  0.1523  0.4437  0.3813
14913SOL    HW145902   4.076   5.425   4.207 -0.5730 -0.9147 -2.0698
14913SOL    HW245903   4.172   5.338   4.129  3.5185  0.6879  0.8388
14914SOL     OW45904   6.722   2.265   3.919  0.3635 -0.9305  0.0503
14914SOL    HW145905   6.636   2.296   3.947  0.4754 -1.1417  0.6432
14914SOL    HW245906   6.704   2.209   3.843  0.0446 -0.4291 -0.2457
14915SOL     OW45907   5.140   6.010   1.283  0.5252 -0.4359  0.1324
14915SOL    HW145908   5.109   5.975   1.366 -1.0770  0.0673 -0.2231
14915SOL    HW245909   5.226   5.969   1.270  0.8416 -0.4747  2.0500
14916SOL     OW45910   1.969   8.167   3.518  0.3329  0.6380 -0.1151
14916SOL    HW145911   2.015   8.240   3.477 -0.8736  0.8160 -1.2112
14916SOL    HW245912   1.938   8.203   3.602  0.5001  1.1108 -0.2503
14917SOL     OW45913   2.522   4.441   7.199 -0.3079 -0.6663 -0.3781
14917SOL    HW145914   2.547   4.474   7.285 -0.5362 -2.5936  0.4745
14917SOL    HW245915   2.524   4.518   7.142  0.9515  0.4452  1.0939
14918SOL     OW45916   0.261   1.658   0.285  0.2355 -0.4752 -0.1456
14918SOL    HW145917   0.267   1.579   0.231 -2.4350 -0.0548 -1.2345
14918SOL    HW245918   0.324   1.719   0.245 -0.1183 -0.9329 -1.4680
14919SOL     OW45919   4.564   3.608   6.369  0.0595  0.1999 -0.5294
14919SOL    HW145920   4.631   3.640   6.429  0.6133  1.7211 -1.8913
14919SOL    HW245921   4.608   3.604   6.284 -0.6670 -2.0272 -0.8569
14920SOL     OW45922   4.372   7.089   1.152  0.1105  0.4547 -0.0636
14920SOL    HW145923   4.359   6.995   1.139  1.2620 -0.0515  1.9331
14920SOL    HW245924   4.439   7.094   1.220  1.1471  2.7538 -1.1633
14921SOL     OW45925   5.799   5.217   1.047  0.6534 -0.1880 -0.1785
14921SOL    HW145926   5.722   5.230   0.991  1.1222  0.0501 -0.7768
14921SOL    HW245927   5.769   5.242   1.134  0.3012  0.7647 -0.5594
14922SOL     OW45928   4.836   6.498   6.416 -0.1843  0.1999  0.0433
14922SOL    HW145929   4.918   6.450   6.428 -0.1383 -0.0119 -1.0111
14922SOL    HW245930   4.770   6.429   6.405 -1.0364  0.2621  3.5031
14923SOL     OW45931   7.479   5.984   8.356  0.1799  0.4217  0.2721
14923SOL    HW145932   7.536   6.056   8.383 -0.0002 -0.0187  1.9002
14923SOL    HW245933   7.537   5.926   8.306 -0.0210  2.4305 -2.5757
14924SOL     OW45934   7.891   1.651   1.883  0.0266 -0.1602  0.1404
14924SOL    HW145935   7.841   1.658   1.802  0.4909  0.3045 -0.1118
14924SOL    HW245936   7.941   1.733   1.888 -0.1445 -0.0937  0.9902
14925SOL     OW45937   0.823   2.955   1.822 -0.7509 -0.7217  0.6017
14925SOL    HW145938   0.804   2.969   1.729 -1.5809  0.0839  0.8761
14925SOL    HW245939   0.737   2.944   1.863 -0.6223  1.7130  1.6868
14926SOL     OW45940   3.376   7.330   5.862  0.0692  0.3804  0.3528
14926SOL    HW145941   3.282   7.343   5.844 -0.5951 -2.6740  1.0732
14926SOL    HW245942   3.396   7.245   5.824  2.0987  0.0971  1.8918
14927SOL     OW45943   6.839   0.518   5.693  0.5216 -0.4683 -0.3564
14927SOL    HW145944   6.864   0.602   5.731 -0.7670  1.0011 -2.5205
14927SOL    HW245945   6.883   0.516   5.608 -0.4745 -1.3739 -0.8757
14928SOL     OW45946   8.199   4.890   1.472  0.7507  0.5728  0.1374
14928SOL    HW145947   8.258   4.964   1.462 -0.0882  1.2757  0.2487
14928SOL    HW245948   8.180   4.886   1.566  0.3917  0.5481  0.0666
14929SOL     OW45949   7.688   7.706   2.845 -0.0844  0.5840  0.6990
14929SOL    HW145950   7.733   7.642   2.789  1.6821  1.5990  0.8519
14929SOL    HW245951   7.753   7.776   2.857 -1.8181  2.2637  0.7912
14930SOL     OW45952   3.228   6.205   3.255 -0.1967 -0.1542 -0.6723
14930SOL    HW145953   3.281   6.207   3.175  4.8250 -0.5957  2.2136
14930SOL    HW245954   3.207   6.113   3.267  0.0265 -0.2453 -0.9564
14931SOL     OW45955   5.824   8.127   2.889  0.1707 -0.2326 -0.7452
14931SOL    HW145956   5.802   8.056   2.828  1.1123 -1.2346  0.0346
14931SOL    HW245957   5.762   8.197   2.869 -0.7067 -1.2381 -1.6192
14932SOL     OW45958   5.035   4.761   7.397  0.1539 -0.3816 -0.2443
14932SOL    HW145959   4.979   4.764   7.320 -0.4279  0.2762  0.1906
14932SOL    HW245960   5.053   4.667   7.410 -1.4162 -0.6795  0.0036
14933SOL     OW45961   4.465   3.233   1.886 -0.2223  0.3375 -0.0119
14933SOL    HW145962   4.472   3.154   1.940  1.0628  0.7015  0.3969
14933SOL    HW245963   4.453   3.304   1.949 -3.2407  0.3542 -0.4416
14934SOL     OW45964   7.093   3.626   7.673 -0.0292  0.1978 -0.5245
14934SOL    HW145965   7.180   3.640   7.709 -1.0753  1.2845  1.7737
14934SOL    HW245966   7.062   3.546   7.715 -0.4795  0.3330 -0.5911
14935SOL     OW45967   1.845   8.377   5.122 -0.2771 -0.2475 -0.5145
14935SOL    HW145968   1.769   8.366   5.065  0.0590 -0.5492 -0.9151
14935SOL    HW245969   1.911   8.318   5.085  0.2374  0.2064 -0.3303
14936SOL     OW45970   6.737   2.142   0.848 -0.2630  0.3190  0.1713
14936SOL    HW145971   6.681   2.108   0.778 -0.1476 -0.4745  0.4433
14936SOL    HW245972   6.826   2.133   0.815 -0.1962 -0.2540  0.4912
14937SOL     OW45973   0.254   3.768   1.996 -0.8646 -0.1188 -0.5717
14937SOL    HW145974   0.257   3.846   1.941 -4.1906 -0.5257 -1.5561
14937SOL    HW245975   0.243   3.803   2.085 -1.4247  0.5748 -0.8940
14938SOL     OW45976   5.231   4.780   0.411 -0.2826 -0.3196  0.1709
14938SOL    HW145977   5.136   4.790   0.399 -0.3964  2.3839  2.3632
14938SOL    HW245978   5.246   4.799   0.504  2.6637  2.2128 -0.6632
14939SOL     OW45979   0.494   5.798   5.244 -0.8549  0.2993 -0.1406
14939SOL    HW145980   0.554   5.870   5.264  0.2091 -0.9366  1.3961
14939SOL    HW245981   0.533   5.756   5.167  0.3549 -0.5395  0.8917
14940SOL     OW45982   3.392   2.069   0.881 -0.0917  0.2254  0.3060
14940SOL    HW145983   3.378   2.119   0.961  1.2591  1.2036 -0.0437
14940SOL    HW245984   3.482   2.036   0.889 -0.3874 -0.7426 -0.2326
14941SOL     OW45985   6.396   1.814   3.989 -0.0094 -0.3119 -0.1182
14941SOL    HW145986   6.430   1.730   4.019 -1.3319 -0.9597 -0.3517
14941SOL    HW245987   6.336   1.791   3.918 -0.4171  0.8339 -0.1614
14942SOL     OW45988   4.652   6.678   6.486  0.4795  0.0149  0.2783
14942SOL    HW145989   4.685   6.742   6.548  1.4409  0.9095 -1.0898
14942SOL    HW245990   4.725   6.620   6.469 -0.2292 -1.1461  1.1016
14943SOL     OW45991   1.130   6.698   7.537  0.3056  0.0256  0.1092
14943SOL    HW145992   1.035   6.690   7.524  0.6163 -2.2130 -1.1883
14943SOL    HW245993   1.148   6.648   7.616  0.7144 -2.3523 -1.3684
14944SOL     OW45994   7.867   4.740   5.832 -0.3271  0.8639 -0.0032
14944SOL    HW145995   7.889   4.827   5.867  2.3739  0.1004  0.4458
14944SOL    HW245996   7.917   4.734   5.751  1.1886 -0.9468  0.9708
14945SOL     OW45997   1.865   1.108   6.705 -0.2685  0.8441  0.1988
14945SOL    HW145998   1.847   1.201   6.707  0.6744  1.0322  1.6008
14945SOL    HW245999   1.961   1.102   6.713 -0.4129 -0.2561  1.4395
14946SOL     OW46000   2.101   8.572   4.956 -0.6030  0.0715  0.6295
14946SOL    HW146001   2.043   8.603   5.025 -0.9704 -0.1186  0.4099
14946SOL    HW246002   2.093   8.477   4.959  0.3463  0.0026  1.1487
14947SOL     OW46003   4.070   6.738   4.408 -0.1468  0.9454 -0.0359
14947SOL    HW146004   3.993   6.737   4.350 -0.6239 -1.3747  0.5438
14947SOL    HW246005   4.049   6.674   4.476  2.4427 -0.0257 -0.0464
14948SOL     OW46006   2.005   8.220   4.718 -0.1247  0.2106 -0.8282
14948SOL    HW146007   1.912   8.209   4.736  0.0093  0.8971  0.3852
14948SOL    HW246008   2.045   8.140   4.752 -0.2239  0.1057 -0.9580
14949SOL     OW46009   4.211   5.145   5.831  0.4076  0.3911 -0.5439
14949SOL    HW146010   4.214   5.209   5.760 -0.6718  0.8804 -0.1733
14949SOL    HW246011   4.118   5.126   5.842  0.6994 -1.2771 -0.6666
14950SOL     OW46012   5.347   7.476   8.598 -0.5227 -0.4757 -0.2811
14950SOL    HW146013   5.328   7.432   8.515 -0.1298 -0.2620 -0.4901
14950SOL    HW246014   5.403   7.415   8.645 -2.8737 -1.7909  0.9950
14951SOL     OW46015   4.507   2.631   8.683  0.2690 -0.2789  0.5642
14951SOL    HW146016   4.547   2.544   8.688 -0.5077 -0.6719  0.1028
14951SOL    HW246017   4.415   2.614   8.664 -0.0218  0.6270  1.1115
14952SOL     OW46018   4.961   5.499   7.630  0.0851 -0.5116 -0.5504
14952SOL    HW146019   4.972   5.514   7.724 -3.5086  0.2498 -0.1042
14952SOL    HW246020   4.926   5.410   7.624 -0.9391 -0.1000 -0.9936
14953SOL     OW46021   5.121   5.918   8.381 -0.2201 -0.2030  0.6118
14953SOL    HW146022   5.172   5.878   8.310 -0.3114 -2.3119  1.6650
14953SOL    HW246023   5.185   5.935   8.450  0.0096  2.5439 -0.1426
14954SOL     OW46024   1.781   2.574   0.414 -0.0662 -0.3628 -0.0639
14954SOL    HW146025   1.818   2.531   0.338 -0.1487  1.9856 -1.5306
14954SOL    HW246026   1.846   2.563   0.483 -0.0730 -2.6875 -0.3517
14955SOL     OW46027   1.446   8.165   3.645 -0.2448 -0.0755  0.0724
14955SOL    HW146028   1.500   8.093   3.678  1.0262  0.5593 -0.5864
14955SOL    HW246029   1.462   8.166   3.551 -0.4106  0.9574  0.0499
14956SOL     OW46030   0.870   1.006   2.006  0.1762  0.3776  0.2545
14956SOL    HW146031   0.882   1.071   1.937  0.1536  0.2492  0.1318
14956SOL    HW246032   0.889   1.054   2.087  1.3075  0.2462  0.0895
14957SOL     OW46033   3.567   1.962   3.512 -0.5987  0.0611  0.1965
14957SOL    HW146034   3.577   1.872   3.480  0.2679  0.0555  0.4462
14957SOL    HW246035   3.645   2.007   3.480 -0.6110  0.5050  0.7867
14958SOL     OW46036   0.083   7.585   3.655 -0.1233  0.4243  0.8461
14958SOL    HW146037   0.135   7.650   3.703 -0.9948  1.1315  0.8485
14958SOL    HW246038   0.059   7.520   3.721  0.5347  0.2176  0.8944
14959SOL     OW46039   7.964   7.455   4.723  0.5815  0.2901 -0.1523
14959SOL    HW146040   8.056   7.450   4.694  0.8850 -0.9227  0.9283
14959SOL    HW246041   7.939   7.546   4.706  0.9775 -0.0609 -3.3586
14960SOL     OW46042   2.026   4.200   8.582 -0.4642  0.0406  0.2966
14960SOL    HW146043   2.079   4.194   8.503  0.5525 -0.0807  0.9758
14960SOL    HW246044   2.081   4.164   8.651 -1.2210  0.4364  1.1282
14961SOL     OW46045   5.745   5.086   4.142 -0.5669  0.1011  0.0496
14961SOL    HW146046   5.705   5.007   4.104 -0.9821  1.2737 -2.0654
14961SOL    HW246047   5.822   5.053   4.189 -1.0149 -1.6177 -0.3468
14962SOL     OW46048   7.144   0.962   7.022 -0.2585  0.3616  0.4275
14962SOL    HW146049   7.067   1.013   6.997 -1.6809 -1.7318  0.2208
14962SOL    HW246050   7.215   0.997   6.969 -0.8698  2.7797  1.0598
14963SOL     OW46051   8.747   8.668   3.852 -0.5026  0.3310  0.4431
14963SOL    HW146052   8.761   8.599   3.788 -0.2935  0.8278 -0.0531
14963SOL    HW246053   8.661   8.704   3.831  0.5976  2.2411 -1.2825
14964SOL     OW46054   7.934   4.977   8.837  0.8397  0.2118  0.3657
14964SOL    HW146055   7.987   5.006   8.912  3.7654 -1.6744 -0.7739
14964SOL    HW246056   7.985   5.004   8.760 -0.8557 -0.0298 -0.8890
14965SOL     OW46057   5.807   2.791   8.222  0.7485  0.2934  0.6062
14965SOL    HW146058   5.875   2.724   8.212  1.2088  0.8017  0.2739
14965SOL    HW246059   5.725   2.745   8.203  1.1371  0.0142 -0.4809
14966SOL     OW46060   3.927   7.039   5.878  0.3351  0.3927 -0.1327
14966SOL    HW146061   3.896   7.093   5.950  0.7916  0.5978 -0.0827
14966SOL    HW246062   3.895   7.082   5.799 -1.0724 -0.4154 -0.0278
14967SOL     OW46063   8.646   0.847   4.108  0.2148  0.8845  0.7320
14967SOL    HW146064   8.616   0.804   4.188 -0.4867 -3.3769 -1.5205
14967SOL    HW246065   8.567   0.882   4.067 -0.0645 -0.4551  0.0866
14968SOL     OW46066   4.546   2.520   5.018  0.7403 -0.2276  0.1997
14968SOL    HW146067   4.637   2.516   4.987  0.8575  1.8305  0.0881
14968SOL    HW246068   4.537   2.610   5.051 -0.4828 -1.2033  2.7398
14969SOL     OW46069   5.159   1.569   0.191 -0.4545  0.6010  0.1947
14969SOL    HW146070   5.097   1.574   0.118  0.0124  0.3114 -0.2208
14969SOL    HW246071   5.239   1.535   0.152 -1.3627 -3.6990  1.5752
14970SOL     OW46072   6.413   5.480   2.624  0.1959 -0.1573 -0.4168
14970SOL    HW146073   6.479   5.549   2.616  0.6198 -0.4674  0.3081
14970SOL    HW246074   6.393   5.477   2.717 -1.1227  0.1808 -0.6799
14971SOL     OW46075   4.009   4.787   0.959 -0.5566 -0.8317 -0.3963
14971SOL    HW146076   3.930   4.776   1.011 -0.6104  0.2687 -0.2151
14971SOL    HW246077   4.080   4.784   1.023 -0.6618  1.1862 -0.1107
14972SOL     OW46078   7.001   7.313   3.413  0.0926 -0.3540  0.3827
14972SOL    HW146079   6.989   7.355   3.499 -0.9257  1.9684 -0.8129
14972SOL    HW246080   6.928   7.252   3.406 -1.2182  1.1719  0.2433
14973SOL     OW46081   1.765   0.294   0.881 -0.2842  0.7511  1.0584
14973SOL    HW146082   1.805   0.375   0.851 -1.3613 -0.0092 -3.0693
14973SOL    HW246083   1.672   0.314   0.889 -0.6278 -0.0711 -0.4170
14974SOL     OW46084   2.945   3.882   7.875 -0.0061  0.0205 -0.0266
14974SOL    HW146085   2.968   3.806   7.821 -0.1336  1.0065 -1.5206
14974SOL    HW246086   2.853   3.899   7.855 -0.9393 -1.2808  2.6737
14975SOL     OW46087   2.767   5.861   2.191 -0.1142  0.3370  0.3388
14975SOL    HW146088   2.719   5.918   2.131 -1.3578  0.7131  1.6366
14975SOL    HW246089   2.847   5.910   2.213  0.3072  0.2351 -0.8859
14976SOL     OW46090   3.103   8.064   0.364 -0.4753 -0.2616 -0.0140
14976SOL    HW146091   3.149   7.989   0.402 -0.2631 -0.6030 -0.9378
14976SOL    HW246092   3.029   8.027   0.318 -1.1021  0.2116  0.5950
14977SOL     OW46093   0.723   7.768   2.065 -0.1092 -0.3985 -0.8897
14977SOL    HW146094   0.670   7.688   2.061  0.2776 -0.7982  1.0531
14977SOL    HW246095   0.669   7.829   2.115 -0.3780  0.5787 -2.3183
14978SOL     OW46096   0.595   3.473   6.850  0.0262  0.2744  0.8422
14978SOL    HW146097   0.637   3.419   6.917 -0.4924 -1.0974  0.1063
14978SOL    HW246098   0.505   3.440   6.846 -0.4588  1.5561  0.7218
14979SOL     OW46099   6.467   2.237   1.608  0.4216  0.1593 -0.5732
14979SOL    HW146100   6.493   2.180   1.536 -2.1928 -2.9164  0.6483
14979SOL    HW246101   6.513   2.201   1.684  0.0195  0.7486 -0.0478
14980SOL     OW46102   7.884   6.566   0.909 -0.6958  0.0672 -0.4205
14980SOL    HW146103   7.876   6.627   0.835  1.4171  1.1099  0.1401
14980SOL    HW246104   7.886   6.622   0.986  1.6498 -0.5876  0.0844
14981SOL     OW46105   4.921   8.291   8.805 -0.2977 -0.6761 -0.3630
14981SOL    HW146106   4.885   8.202   8.811  0.5453 -1.1106 -1.4245
14981SOL    HW246107   4.900   8.320   8.717  1.3059 -0.6901 -0.7921
14982SOL     OW46108   4.654   1.436   3.145 -0.5769  0.6520  0.0731
14982SOL    HW146109   4.673   1.499   3.214 -0.8108 -1.4069  2.1506
14982SOL    HW246110   4.564   1.408   3.162 -0.2952 -0.6329 -0.4348
14983SOL     OW46111   7.004   7.238   2.166  0.8479  0.0563  0.2728
14983SOL    HW146112   7.011   7.181   2.242 -1.6878  1.2541  1.4992
14983SOL    HW246113   6.910   7.245   2.149  1.2833 -0.1564 -3.0210
14984SOL     OW46114   4.546   3.838   5.024  0.0359 -0.0179 -0.0090
14984SOL    HW146115   4.457   3.826   5.056 -0.6154  1.3293 -1.1826
14984SOL    HW246116   4.600   3.842   5.103 -1.2505  1.3369  0.8640
14985SOL     OW46117   4.716   6.260   2.116 -0.0819 -0.1099 -0.2835
14985SOL    HW146118   4.760   6.313   2.050  3.0952 -2.9628 -0.7228
14985SOL    HW246119   4.749   6.293   2.199 -1.3553  1.2115 -0.2784
14986SOL     OW46120   7.495   7.306   0.977  0.0799 -0.3461  0.5219
14986SOL    HW146121   7.588   7.309   0.953  0.1545  0.5669  0.9069
14986SOL    HW246122   7.485   7.372   1.045 -1.7056  2.8530 -2.5052
14987SOL     OW46123   7.080   5.408   7.415  0.1466  0.4645  0.4320
14987SOL    HW146124   7.138   5.484   7.421 -1.0490  1.5264 -0.7782
14987SOL    HW246125   7.078   5.387   7.321  1.1613 -1.6586  0.8359
14988SOL     OW46126   1.120   2.162   7.623 -0.7082 -0.0760 -0.2793
14988SOL    HW146127   1.203   2.166   7.671 -0.3492 -2.7974 -0.4878
14988SOL    HW246128   1.136   2.211   7.543 -0.6673  2.8365  1.3676
14989SOL     OW46129   6.641   7.283   0.991  0.2830  0.5477 -0.0456
14989SOL    HW146130   6.639   7.378   0.975 -0.7281  0.4031 -0.9158
14989SOL    HW246131   6.553   7.253   0.968  0.8878 -0.7571 -0.7820
14990SOL     OW46132   4.243   5.603   1.626 -0.1048 -0.3393  0.2926
14990SOL    HW146133   4.188   5.525   1.618  1.0934 -1.1577 -0.2328
14990SOL    HW246134   4.253   5.635   1.536 -0.9239  0.6828  0.5435
14991SOL     OW46135   6.090   6.609   3.190 -0.0930 -0.3296  0.0075
14991SOL    HW146136   6.083   6.691   3.239 -1.0265 -0.0027 -0.6503
14991SOL    HW246137   6.110   6.543   3.257  0.5662  0.4071  0.5530
14992SOL     OW46138   7.095   5.439   1.526 -0.1975  0.1175 -0.1218
14992SOL    HW146139   7.003   5.456   1.547 -0.8723 -1.8905 -1.2132
14992SOL    HW246140   7.142   5.455   1.608 -1.6072  0.4305  0.6493
14993SOL     OW46141   8.796   6.061   0.325  0.0312  0.2921  0.2336
14993SOL    HW146142   8.707   6.092   0.307 -0.1288  0.6000  1.4248
14993SOL    HW246143   8.789   5.966   0.330 -0.0505  0.2559 -0.5770
14994SOL     OW46144   7.370   5.323   3.686 -0.0808  0.1687 -0.0583
14994SOL    HW146145   7.285   5.282   3.702 -0.9107  1.7329 -0.3264
14994SOL    HW246146   7.402   5.348   3.773  0.3822 -0.9037  0.0968
14995SOL     OW46147   3.945   5.260   2.889 -0.0709  0.2262 -0.3242
14995SOL    HW146148   3.904   5.203   2.824 -0.3263 -0.3835  0.3554
14995SOL    HW246149   3.875   5.320   2.915 -0.0787  0.2264 -0.3451
14996SOL     OW46150   7.556   1.781   2.468  0.2487 -0.1277  0.1494
14996SOL    HW146151   7.474   1.797   2.419  1.5828  0.3838 -2.0920
14996SOL    HW246152   7.592   1.869   2.482 -0.4716 -0.1857  2.9246
14997SOL     OW46153   1.042   7.181   0.036  0.2357 -0.2438 -0.0763
14997SOL    HW146154   1.089   7.146  -0.040 -0.1015 -1.3974  0.2242
14997SOL    HW246155   1.038   7.108   0.097 -1.6995 -0.1194  0.0148
14998SOL     OW46156   3.553   7.156   0.650 -0.2951 -0.3344  0.4987
14998SOL    HW146157   3.534   7.157   0.556  0.6838 -0.1350  0.2976
14998SOL    HW246158   3.622   7.090   0.659 -1.6172 -1.6672  1.3347
14999SOL     OW46159   0.475   4.513   5.292  0.2762  0.5927  0.1052
14999SOL    HW146160   0.388   4.475   5.304  0.5515 -0.9442 -2.0801
14999SOL    HW246161   0.535   4.439   5.303  1.1332  1.1907 -0.4453
15000SOL     OW46162   5.701   4.620   5.363  0.4508 -0.2455 -0.1150
15000SOL    HW146163   5.663   4.650   5.281  1.3993  1.0869 -0.0948
15000SOL    HW246164   5.663   4.533   5.377 -0.5137 -0.0552 -1.4199
15001SOL     OW46165   2.330   8.368   4.500 -0.8858  0.3436 -0.4047
15001SOL    HW146166   2.269   8.420   4.553 -0.9515 -1.0629  1.0011
15001SOL    HW246167   2.383   8.433   4.454 -1.1903  1.6495  0.9937
15002SOL     OW46168   4.094   4.464   7.155 -0.1517 -0.3880 -0.7391
15002SOL    HW146169   4.124   4.552   7.131  1.0571 -0.9149 -1.2670
15002SOL    HW246170   4.022   4.479   7.215 -1.5205  0.9894 -2.5889
15003SOL     OW46171   1.224   4.898   0.216 -0.1980 -0.8690  1.0529
15003SOL    HW146172   1.160   4.885   0.146  0.3046 -2.2105  0.8016
15003SOL    HW246173   1.305   4.923   0.170 -0.3180 -0.0309  1.2975
15004SOL     OW46174   6.674   8.068   0.920  0.1442  0.1341 -0.2586
15004SOL    HW146175   6.769   8.064   0.905  0.3153  1.2165  0.4418
15004SOL    HW246176   6.665   8.078   1.015 -0.7062 -0.5605 -0.2509
15005SOL     OW46177   3.642   2.379   0.517  0.2020  0.4875 -0.2973
15005SOL    HW146178   3.628   2.384   0.611  1.0527  2.2321 -0.2284
15005SOL    HW246179   3.656   2.469   0.490 -0.8531  0.1120 -2.2503
15006SOL     OW46180   5.354   8.267   5.877 -0.1945  0.0608 -0.2070
15006SOL    HW146181   5.429   8.290   5.931 -0.7373  1.2257  0.0922
15006SOL    HW246182   5.389   8.263   5.788  0.9942 -3.2315  0.2852
15007SOL     OW46183   1.326   8.646   1.017 -0.2569  0.5212  0.6661
15007SOL    HW146184   1.371   8.727   0.991  0.5558  0.6559  2.3264
15007SOL    HW246185   1.353   8.633   1.108 -0.9751 -1.2265  0.6562
15008SOL     OW46186   0.763   0.742   6.047 -0.1786  0.0463 -0.0588
15008SOL    HW146187   0.671   0.716   6.046  0.0413 -0.7434 -0.4311
15008SOL    HW246188   0.780   0.774   5.958  0.5998 -2.3969 -0.8662
15009SOL     OW46189   3.427   1.551   6.397  0.2269 -0.2727  0.2481
15009SOL    HW146190   3.336   1.562   6.425 -0.9835 -2.5725 -2.2974
15009SOL    HW246191   3.450   1.463   6.424  2.1737  0.6348  1.8062
15010SOL     OW46192   7.170   3.778   4.270 -0.8049 -0.2313 -0.4482
15010SOL    HW146193   7.100   3.832   4.233 -0.4787  0.4968 -0.0326
15010SOL    HW246194   7.201   3.827   4.347  2.8286  1.5699 -2.7520
15011SOL     OW46195   4.782   0.314   6.450  0.2001  0.2617  0.2519
15011SOL    HW146196   4.765   0.227   6.413 -0.7184  0.7965 -0.6385
15011SOL    HW246197   4.840   0.355   6.385 -0.2071  0.6757  0.1493
15012SOL     OW46198   5.356   3.278   3.782  0.4946 -0.5849 -0.1358
15012SOL    HW146199   5.337   3.368   3.810 -0.1502 -0.9708  0.7149
15012SOL    HW246200   5.449   3.267   3.799  0.4330 -0.2966  0.3948
15013SOL     OW46201   3.829   0.683   3.080  0.4675 -0.3991  0.4732
15013SOL    HW146202   3.747   0.641   3.055 -0.1563  0.8713  0.2883
15013SOL    HW246203   3.897   0.630   3.039 -0.2604 -1.3174  0.4088
15014SOL     OW46204   8.551   8.055   0.609  0.0297  0.2549  0.4824
15014SOL    HW146205   8.463   8.082   0.635  0.3583  0.9281  0.9594
15014SOL    HW246206   8.580   8.124   0.549 -0.8166 -1.4239 -1.9817
15015SOL     OW46207   7.088   7.664   1.643  0.0689  0.2921 -0.0489
15015SOL    HW146208   7.101   7.648   1.550 -1.3342 -0.3192 -0.1600
15015SOL    HW246209   7.160   7.722   1.668 -1.9173  4.1588 -2.4721
15016SOL     OW46210   0.762   1.644   1.303  0.0258 -0.6819 -0.7673
15016SOL    HW146211   0.748   1.694   1.222  0.3266 -0.5233 -0.7246
15016SOL    HW246212   0.836   1.687   1.345 -1.7554  0.8859  0.9225
15017SOL     OW46213   0.052   0.057   2.889 -0.0864  0.1146  0.4002
15017SOL    HW146214   0.069   0.004   2.966  1.9334  1.0217  0.6288
15017SOL    HW246215   0.138   0.083   2.857 -0.9271  1.0955 -1.2312
15018SOL     OW46216   6.014   0.280   1.138 -0.0532  0.2740  0.0696
15018SOL    HW146217   6.065   0.266   1.058  1.4230  0.9008  0.8672
15018SOL    HW246218   5.971   0.364   1.125  0.4420  0.5281  0.0586
15019SOL     OW46219   0.241   4.954   3.875  0.0310 -0.1056 -0.6224
15019SOL    HW146220   0.206   4.936   3.962 -0.9112  0.5987 -0.8423
15019SOL    HW246221   0.221   5.047   3.859  3.3081  0.8102 -0.1691
15020SOL     OW46222   7.856   0.995   6.858 -0.2521  0.0980  0.4900
15020SOL    HW146223   7.881   0.937   6.930 -0.5349 -0.5079  0.1096
15020SOL    HW246224   7.835   1.078   6.900  0.6705  0.0873  0.9894
15021SOL     OW46225   2.991   1.624   5.781  0.4173  0.8827 -0.3624
15021SOL    HW146226   3.011   1.691   5.847 -0.8947  2.2789 -1.3077
15021SOL    HW246227   2.896   1.619   5.780  0.4745 -1.5691  0.1662
15022SOL     OW46228   8.305   0.339   0.560  0.1278 -0.0429  0.5500
15022SOL    HW146229   8.230   0.383   0.520 -0.1459 -2.1665 -1.5035
15022SOL    HW246230   8.272   0.254   0.588  1.6619 -0.9969 -0.3189
15023SOL     OW46231   8.131   4.513   0.584 -0.5075  0.7754  0.5703
15023SOL    HW146232   8.099   4.423   0.575 -0.3377  0.7053  0.6555
15023SOL    HW246233   8.062   4.558   0.632 -2.9490  1.9751 -3.5318
15024SOL     OW46234   2.832   1.094   8.278  0.0296  0.2849  0.0267
15024SOL    HW146235   2.897   1.058   8.339 -0.5386 -1.2958 -0.2532
15024SOL    HW246236   2.759   1.122   8.334 -0.0176 -0.1219  0.1727
15025SOL     OW46237   7.175   7.161   8.266  0.1431 -0.4594 -0.3714
15025SOL    HW146238   7.269   7.176   8.271 -0.1798  1.7168 -0.0732
15025SOL    HW246239   7.145   7.216   8.194 -0.8590 -1.5400 -0.8267
15026SOL     OW46240   8.391   8.203   1.327 -0.0593  0.2298  0.2604
15026SOL    HW146241   8.472   8.251   1.337 -1.0292  2.1975 -0.6623
15026SOL    HW246242   8.322   8.266   1.348 -1.4318 -0.4982 -1.6860
15027SOL     OW46243   0.215   0.362   5.777  0.3552 -0.1940  0.5836
15027SOL    HW146244   0.275   0.326   5.842  1.1075 -0.6833 -0.3604
15027SOL    HW246245   0.188   0.287   5.725 -1.1761  0.0047  1.0513
15028SOL     OW46246   8.109   5.097   4.432  0.3643  0.0937 -0.2308
15028SOL    HW146247   8.185   5.105   4.374  1.3067 -1.7794  0.6682
15028SOL    HW246248   8.120   5.168   4.495  1.1098  0.1145 -0.3769
15029SOL     OW46249   6.571   6.431   2.459 -0.1087 -0.1262 -0.3200
15029SOL    HW146250   6.611   6.351   2.493 -0.8617 -0.2689  0.2624
15029SOL    HW246251   6.545   6.409   2.369  0.3675 -0.2903 -0.4205
15030SOL     OW46252   1.988   8.434   1.357 -0.3841  0.0527 -0.1057
15030SOL    HW146253   2.042   8.372   1.309 -0.2406  0.4606 -0.4803
15030SOL    HW246254   1.977   8.508   1.296 -0.5071  0.4120  0.3475
15031SOL     OW46255   6.805   0.343   0.240  0.7702 -0.4354  0.5835
15031SOL    HW146256   6.852   0.313   0.318  0.0051  0.0597  1.2432
15031SOL    HW246257   6.752   0.268   0.213  0.3932 -0.3410  1.0455
15032SOL     OW46258   2.644   5.085   3.742 -0.2757 -0.4858 -0.3529
15032SOL    HW146259   2.724   5.036   3.763  0.1285  0.5776  0.6713
15032SOL    HW246260   2.675   5.171   3.715 -0.9849 -0.7197 -2.0633
15033SOL     OW46261   5.472   0.822   5.901  0.0110  0.3371  0.1525
15033SOL    HW146262   5.388   0.840   5.945 -1.6612  1.1457 -3.0602
15033SOL    HW246263   5.458   0.739   5.857  1.3473 -0.0695  0.4552
15034SOL     OW46264   7.254   7.011   1.377  0.0430  0.3237 -0.2820
15034SOL    HW146265   7.268   6.973   1.290  1.3165  1.0651 -0.4203
15034SOL    HW246266   7.310   6.959   1.434 -0.3117  0.2419 -0.0080
15035SOL     OW46267   5.021   2.000   6.369 -0.7570  0.3038 -0.6955
15035SOL    HW146268   5.060   2.062   6.309  0.0897 -0.8839 -1.4246
15035SOL    HW246269   5.094   1.947   6.400 -1.5809 -1.0859 -1.0130
15036SOL     OW46270   4.251   4.673   3.229  0.3693  0.0723  0.0932
15036SOL    HW146271   4.177   4.733   3.232 -0.6392 -1.1431  2.9045
15036SOL    HW246272   4.245   4.632   3.143 -0.7916  1.6568 -0.6377
15037SOL     OW46273   4.379   6.948   0.655 -0.6787 -0.1200 -0.2290
15037SOL    HW146274   4.374   7.044   0.649 -0.5841 -0.1001 -0.0093
15037SOL    HW246275   4.438   6.922   0.584 -1.9893 -0.1554 -1.3273
15038SOL     OW46276   7.610   3.046   4.651  0.0054  0.0020  0.2056
15038SOL    HW146277   7.631   2.983   4.720  2.7777  0.1138 -0.4174
15038SOL    HW246278   7.586   2.992   4.576  0.8753 -0.2960  0.1259
15039SOL     OW46279   0.756   1.915   8.587  0.3369  0.1234  0.5971
15039SOL    HW146280   0.781   1.966   8.664  0.1489 -1.6064  1.8622
15039SOL    HW246281   0.839   1.888   8.548  0.4552 -0.9059  1.5345
15040SOL     OW46282   2.324   1.444   7.994 -0.5194 -0.5005 -0.5959
15040SOL    HW146283   2.240   1.427   7.953 -0.5626  0.4731 -0.9303
15040SOL    HW246284   2.352   1.528   7.959 -0.1306 -0.0722  0.6737
15041SOL     OW46285   6.086   1.302   2.631 -0.0125 -0.4914  0.1573
15041SOL    HW146286   6.009   1.301   2.574  0.3938 -2.4720 -0.4195
15041SOL    HW246287   6.148   1.359   2.586 -0.3909 -0.5189 -0.4164
15042SOL     OW46288   3.742   1.175   3.112  0.5914 -0.2749 -0.4738
15042SOL    HW146289   3.726   1.202   3.203 -1.4205 -1.2829 -0.4726
15042SOL    HW246290   3.659   1.137   3.083  0.8044  1.0534 -3.1358
15043SOL     OW46291   3.476   0.139   5.575  0.1397  0.4381 -0.1579
15043SOL    HW146292   3.548   0.157   5.635  0.8315 -0.7003 -0.6158
15043SOL    HW246293   3.504   0.180   5.492 -0.0174  0.4990 -0.1816
15044SOL     OW46294   7.234   0.668   5.374  0.2473 -0.2760 -0.1247
15044SOL    HW146295   7.312   0.675   5.320  0.2321  0.2442 -0.0863
15044SOL    HW246296   7.161   0.680   5.313  0.2353  0.4990  0.0342
15045SOL     OW46297   4.171   7.166   0.165  0.2676  0.2895 -0.3798
15045SOL    HW146298   4.175   7.254   0.202  0.6507  0.4941 -0.8948
15045SOL    HW246299   4.175   7.180   0.070  1.3209 -0.3315 -0.4386
15046SOL     OW46300   3.734   5.399   8.832  0.3796 -0.1011  0.0041
15046SOL    HW146301   3.769   5.354   8.756  0.3941  2.6512 -1.7355
15046SOL    HW246302   3.707   5.328   8.891  0.5863 -2.3494 -2.4051
15047SOL     OW46303   5.297   5.581   2.173  0.5828 -0.6889 -0.4183
15047SOL    HW146304   5.305   5.593   2.268 -1.3064 -1.0904 -0.1515
15047SOL    HW246305   5.307   5.486   2.160 -1.7035 -1.0284 -0.2215
15048SOL     OW46306   1.442   5.249   1.856 -0.0307  0.1468 -0.2453
15048SOL    HW146307   1.385   5.265   1.781  0.7046 -1.1853 -1.1465
15048SOL    HW246308   1.403   5.299   1.927 -1.5258  0.3712 -1.1677
15049SOL     OW46309   2.218   2.273   5.658  0.6412  0.1502  0.0608
15049SOL    HW146310   2.169   2.355   5.646 -0.8987 -0.8413 -0.7557
15049SOL    HW246311   2.176   2.232   5.734  0.3708 -0.5722 -0.4682
15050SOL     OW46312   8.598   0.755   0.550  0.7169  0.3161 -0.2876
15050SOL    HW146313   8.680   0.784   0.511 -0.6404  1.8724 -2.2015
15050SOL    HW246314   8.561   0.694   0.485 -0.0584  0.3611  0.0987
15051SOL     OW46315   2.699   5.106   2.791 -0.1876 -1.1416 -0.1610
15051SOL    HW146316   2.639   5.051   2.741 -1.5789 -0.4880  0.7303
15051SOL    HW246317   2.708   5.061   2.875  0.5716 -1.2253 -0.2820
15052SOL     OW46318   8.311   1.071   8.293 -0.1332 -0.2941  0.0369
15052SOL    HW146319   8.374   1.061   8.365 -1.3932 -0.2211  1.1830
15052SOL    HW246320   8.229   1.095   8.336 -0.9373 -0.3171 -1.4303
15053SOL     OW46321   4.873   4.276   6.598  0.0193 -0.7921 -1.2931
15053SOL    HW146322   4.793   4.320   6.571  0.2077  0.4923  0.1044
15053SOL    HW246323   4.847   4.184   6.607 -1.9641 -0.1040  1.2917
15054SOL     OW46324   7.933   4.051   4.281  0.2027  0.3284 -0.1666
15054SOL    HW146325   7.895   4.027   4.365  1.3751 -0.7255  0.1042
15054SOL    HW246326   7.968   4.139   4.293  2.2373 -0.5858  1.1699
15055SOL     OW46327   8.379   0.927   2.320 -0.3842  0.5885  0.5059
15055SOL    HW146328   8.472   0.939   2.302 -0.2782  0.6987  1.1103
15055SOL    HW246329   8.337   1.004   2.280 -0.4989 -0.6044 -1.8293
15056SOL     OW46330   3.495   6.704   5.034 -0.5587 -0.5770 -0.6269
15056SOL    HW146331   3.536   6.696   5.121 -1.3419 -0.9273 -0.2742
15056SOL    HW246332   3.565   6.682   4.973  0.8693  2.4716 -0.2958
15057SOL     OW46333   2.308   5.400   0.880 -0.1987  0.5175  0.0085
15057SOL    HW146334   2.260   5.449   0.813  0.8649  1.3209 -0.1981
15057SOL    HW246335   2.398   5.397   0.847  0.1076 -0.0609  0.8694
15058SOL     OW46336   6.258   6.851   5.603 -0.1889  0.2091  0.4955
15058SOL    HW146337   6.254   6.946   5.615  0.4923  0.1061  1.6871
15058SOL    HW246338   6.183   6.818   5.652 -0.9256  0.1681 -0.6226
15059SOL     OW46339   0.966   8.202   1.682  0.3206 -0.0621  0.3302
15059SOL    HW146340   1.009   8.194   1.767  2.3467 -1.7753 -0.7740
15059SOL    HW246341   1.031   8.245   1.627 -0.8458  0.7221 -0.4906
15060SOL     OW46342   2.416   6.508   6.555 -0.3537 -0.6230 -0.0714
15060SOL    HW146343   2.405   6.533   6.646 -0.4551  0.1939 -0.2966
15060SOL    HW246344   2.469   6.429   6.557  0.1884 -0.2445  0.6623
15061SOL     OW46345   3.109   6.160   8.392 -0.5446 -0.2549  0.2086
15061SOL    HW146346   3.091   6.130   8.303  1.2877  0.5869 -0.4944
15061SOL    HW246347   3.144   6.082   8.437  0.6471 -0.1694 -0.5060
15062SOL     OW46348   5.282   7.735   1.733 -0.2931 -0.0300 -0.6252
15062SOL    HW146349   5.312   7.709   1.646  0.2369  0.0539 -0.4680
15062SOL    HW246350   5.242   7.821   1.721  2.1338  1.1975 -0.3463
15063SOL     OW46351   5.340   4.083   4.458 -0.4261 -0.5555  0.2177
15063SOL    HW146352   5.363   3.991   4.467 -1.3200 -0.7337  0.8277
15063SOL    HW246353   5.373   4.124   4.538 -0.2968 -0.3983  0.0860
15064SOL     OW46354   0.888   3.737   0.029  0.3928  0.2288  1.1193
15064SOL    HW146355   0.925   3.657  -0.009 -1.0295 -0.1789  0.4938
15064SOL    HW246356   0.911   3.732   0.122  1.5899 -0.1440  0.8245
15065SOL     OW46357   4.092   8.386   5.718  0.2939  0.0346  0.4905
15065SOL    HW146358   4.185   8.401   5.701  0.6800 -1.4481  1.1752
15065SOL    HW246359   4.068   8.315   5.659 -0.1100 -0.3820  1.1419
15066SOL     OW46360   6.035   0.060   1.496  0.7156 -0.1015  0.2221
15066SOL    HW146361   5.963   0.093   1.550 -0.5503 -1.1725 -0.7445
15066SOL    HW246362   6.070   0.137   1.452 -1.1760  0.2289 -0.8197
15067SOL     OW46363   2.824   2.667   3.964 -0.3359  0.5950 -0.1273
15067SOL    HW146364   2.832   2.624   4.050  1.1507  1.3188  0.1310
15067SOL    HW246365   2.877   2.614   3.906 -2.0299 -0.3926 -0.8506
15068SOL     OW46366   0.619   4.179   6.934 -0.1086 -0.0428 -0.0570
15068SOL    HW146367   0.566   4.111   6.975 -0.4568  0.9580  1.2281
15068SOL    HW246368   0.633   4.244   7.003  0.3837  1.1037 -1.1759
15069SOL     OW46369   5.221   2.775   8.556  0.1487 -0.3425  0.3980
15069SOL    HW146370   5.274   2.697   8.576  2.0156  0.9118  0.5502
15069SOL    HW246371   5.177   2.795   8.638 -1.2829 -1.8659  0.0647
15070SOL     OW46372   0.757   1.103   8.748 -0.0181 -0.1439  0.1921
15070SOL    HW146373   0.678   1.118   8.696 -0.0580  0.1261  0.3273
15070SOL    HW246374   0.829   1.136   8.693 -0.0786  0.3095  0.3785
15071SOL     OW46375   3.932   4.505   0.200 -0.1034 -0.2148 -0.1659
15071SOL    HW146376   3.996   4.463   0.258  0.9391  0.3345 -0.8901
15071SOL    HW246377   3.982   4.527   0.121 -0.8219  1.5347 -0.1835
15072SOL     OW46378   4.741   1.630   6.793  0.1382  0.1723 -0.7530
15072SOL    HW146379   4.674   1.620   6.861 -0.5735 -2.0265 -1.6824
15072SOL    HW246380   4.699   1.598   6.714  1.8798 -0.0066 -1.6462
15073SOL     OW46381   2.656   3.690   2.393 -0.3088  0.2330 -0.1532
15073SOL    HW146382   2.628   3.608   2.354 -1.5393  0.3746  0.3945
15073SOL    HW246383   2.675   3.748   2.319  1.0029 -0.6633 -0.5453
15074SOL     OW46384   4.989   1.042   1.520  0.2913 -0.7234  0.1661
15074SOL    HW146385   5.020   0.971   1.577 -2.4611 -2.0719  0.1519
15074SOL    HW246386   4.985   1.118   1.577  0.5504 -1.2723  0.9406
15075SOL     OW46387   6.473   0.471   4.850  0.5381  0.0353  0.9314
15075SOL    HW146388   6.401   0.534   4.860 -0.4988 -0.9792  0.0920
15075SOL    HW246389   6.449   0.398   4.906  1.5706  0.2133  1.6317
15076SOL     OW46390   3.463   6.727   2.016 -0.0657 -0.1114 -0.4663
15076SOL    HW146391   3.520   6.677   2.075  0.9413  0.5061 -0.8905
15076SOL    HW246392   3.518   6.745   1.940 -0.1803  2.1933 -0.0593
15077SOL     OW46393   1.049   0.864   0.376 -0.7145 -0.0162  0.1939
15077SOL    HW146394   1.111   0.834   0.442  0.2102 -1.6347 -1.3065
15077SOL    HW246395   1.004   0.938   0.416 -1.0303 -1.6231  3.0368
15078SOL     OW46396   2.630   4.850   7.594 -0.4556 -0.0352 -0.3368
15078SOL    HW146397   2.722   4.838   7.573 -0.1204  1.1586  0.3867
15078SOL    HW246398   2.624   4.835   7.688 -0.2311  3.6690  0.4144
15079SOL     OW46399   6.228   3.145   2.571  0.1260  0.0487 -0.3933
15079SOL    HW146400   6.292   3.205   2.610  1.1853 -0.3232 -1.4972
15079SOL    HW246401   6.259   3.132   2.482 -0.0573 -2.1446 -0.1847
15080SOL     OW46402   7.280   2.789   7.089  0.1013 -0.0432  0.1197
15080SOL    HW146403   7.283   2.722   7.158  0.0090  0.0920  0.2589
15080SOL    HW246404   7.364   2.783   7.045  0.4223  0.3202  0.6781
15081SOL     OW46405   3.112   2.346   5.352  0.3364 -0.0065 -1.6399
15081SOL    HW146406   3.155   2.431   5.366  0.5647 -0.4698  1.2445
15081SOL    HW246407   3.018   2.366   5.356  0.3873  0.1602 -1.1655
15082SOL     OW46408   3.943   7.212   0.778 -0.4155  0.2836  0.5603
15082SOL    HW146409   3.954   7.278   0.709 -0.2902  0.5802  0.8618
15082SOL    HW246410   4.015   7.228   0.839 -0.2762 -0.2528  0.5447
15083SOL     OW46411   6.968   3.043   8.647  0.1656 -0.6632 -0.4812
15083SOL    HW146412   7.026   3.028   8.722 -0.1338 -0.4557 -0.2007
15083SOL    HW246413   6.944   2.955   8.617 -1.4234 -0.8032  1.0291
15084SOL     OW46414   2.803   1.507   7.539 -0.7156 -0.1144 -0.0516
15084SOL    HW146415   2.801   1.590   7.492  0.2656  0.2858  0.5686
15084SOL    HW246416   2.780   1.442   7.474 -0.2645  0.5200 -0.8661
15085SOL     OW46417   3.970   8.757   1.283  0.0714  0.1678  0.3049
15085SOL    HW146418   3.917   8.681   1.306 -1.4144  0.3877 -2.0078
15085SOL    HW246419   4.060   8.724   1.281 -0.2986 -0.9615  1.4657
15086SOL     OW46420   0.949   0.339   2.186  0.1543 -0.4832 -0.3303
15086SOL    HW146421   0.975   0.248   2.175 -0.4380 -0.6478 -0.4137
15086SOL    HW246422   0.886   0.354   2.115 -0.8132 -0.4240  0.5170
15087SOL     OW46423   4.881   0.588   6.278 -0.0320  0.6096 -0.0561
15087SOL    HW146424   4.826   0.581   6.355 -0.3126  0.7999 -0.2390
15087SOL    HW246425   4.875   0.680   6.252  0.1403  0.5685 -0.2481
15088SOL     OW46426   2.251   3.110   0.489  0.1485 -0.5629 -0.1212
15088SOL    HW146427   2.302   3.053   0.431 -2.2878 -1.0274 -1.9755
15088SOL    HW246428   2.243   3.192   0.441  1.1880  0.4143  1.2747
15089SOL     OW46429   2.421   2.547   4.961  0.0128  0.1313  0.2759
15089SOL    HW146430   2.465   2.596   4.891  0.3805  0.4770  0.7426
15089SOL    HW246431   2.367   2.612   5.006 -1.8673 -0.4909 -0.9565
15090SOL     OW46432   7.950   6.483   3.798  0.1827  0.6481  0.2406
15090SOL    HW146433   7.956   6.566   3.752  0.1979  2.2697  2.9766
15090SOL    HW246434   8.032   6.476   3.848 -0.0128 -0.7891  0.4269
15091SOL     OW46435   6.785   3.622   6.553 -0.0369  0.1498 -0.7676
15091SOL    HW146436   6.851   3.571   6.505  0.0739 -0.2856 -0.1615
15091SOL    HW246437   6.703   3.574   6.539 -0.7351  1.8893 -3.4136
15092SOL     OW46438   1.077   7.896   6.158  0.2007  0.1511 -0.3171
15092SOL    HW146439   1.164   7.935   6.162 -0.0656  0.9227 -1.4059
15092SOL    HW246440   1.036   7.937   6.081 -0.6195 -1.2320 -0.6464
15093SOL     OW46441   4.107   4.076   7.199 -0.2359 -0.2267 -0.4476
15093SOL    HW146442   4.107   3.982   7.178 -0.4632 -0.0946 -1.0818
15093SOL    HW246443   4.147   4.117   7.123 -0.7516  0.2451 -0.4712
15094SOL     OW46444   5.409   0.899   7.224 -0.1673 -0.1601  0.4405
15094SOL    HW146445   5.379   0.862   7.308  1.9927 -0.4030  1.1764
15094SOL    HW246446   5.504   0.887   7.226  0.1620  1.7570 -1.1322
15095SOL     OW46447   4.388   3.136   3.025 -0.3102 -0.3844  0.2812
15095SOL    HW146448   4.348   3.088   2.952 -1.0235  0.7973 -0.1351
15095SOL    HW246449   4.427   3.068   3.080 -0.0676 -1.3236 -1.0095
15096SOL     OW46450   6.697   0.231   2.605 -0.2110  0.5309  0.4497
15096SOL    HW146451   6.678   0.277   2.523 -1.1523 -0.5869  0.0034
15096SOL    HW246452   6.611   0.216   2.644  0.0185 -1.1348  0.3880
15097SOL     OW46453   2.265   6.671   5.040 -0.0740 -0.0464 -0.2074
15097SOL    HW146454   2.357   6.690   5.057 -0.3744 -0.7620  2.8086
15097SOL    HW246455   2.218   6.741   5.086 -1.0658 -0.0303 -1.2118
15098SOL     OW46456   7.919   5.645   3.038 -0.4771  0.5417 -0.7859
15098SOL    HW146457   7.942   5.737   3.030 -0.7623  0.5485 -1.5476
15098SOL    HW246458   7.951   5.604   2.958 -0.4774  0.0008 -0.5178
15099SOL     OW46459   2.980   2.295   8.182 -0.3101 -0.0104  0.6293
15099SOL    HW146460   2.917   2.331   8.244 -0.8036  0.4939 -0.1483
15099SOL    HW246461   3.023   2.224   8.230  0.1170  1.0877  1.9184
15100SOL     OW46462   1.541   4.548   8.499  0.0534  0.0546 -0.0346
15100SOL    HW146463   1.611   4.610   8.476 -0.7316 -0.0788 -3.3690
15100SOL    HW246464   1.586   4.464   8.510  0.7599  0.5866  1.3501
15101SOL     OW46465   2.776   7.665   1.509 -0.7611  0.2299  0.6627
15101SOL    HW146466   2.816   7.748   1.536  1.1984 -0.6703  0.6699
15101SOL    HW246467   2.833   7.632   1.440 -0.6784 -1.7809  1.6266
15102SOL     OW46468   6.370   7.572   3.284  0.1942 -0.3711  0.0241
15102SOL    HW146469   6.315   7.647   3.261  0.8228 -0.2973 -1.3187
15102SOL    HW246470   6.457   7.594   3.250  0.8596 -0.8801  1.3090
15103SOL     OW46471   6.162   6.356   8.347 -0.4157 -0.1648  0.3628
15103SOL    HW146472   6.177   6.269   8.383 -0.6240 -0.3983 -0.0999
15103SOL    HW246473   6.206   6.355   8.262  1.8254  1.0476  1.4079
15104SOL     OW46474   7.213   5.832   8.111  0.1908 -0.3681 -0.2379
15104SOL    HW146475   7.230   5.779   8.189  0.6786 -1.0339 -0.7899
15104SOL    HW246476   7.129   5.874   8.129  1.1510  0.9480  1.4202
15105SOL     OW46477   7.350   4.988   1.225 -0.3527  0.3008  0.0791
15105SOL    HW146478   7.339   5.072   1.181  0.8435  0.5200  0.1468
15105SOL    HW246479   7.443   4.967   1.212 -0.2935 -0.2999  1.2964
15106SOL     OW46480   8.592   0.967   6.886 -0.3565 -0.5528 -0.3456
15106SOL    HW146481   8.505   0.967   6.927 -0.1446  0.6253  0.1625
15106SOL    HW246482   8.647   0.920   6.949 -0.2898  0.1596  0.1370
15107SOL     OW46483   1.088   5.469   1.094  0.1055 -0.1562 -0.0752
15107SOL    HW146484   1.060   5.378   1.098  0.1941 -0.2689 -1.4410
15107SOL    HW246485   1.169   5.467   1.043  0.1548  0.6768 -0.0447
15108SOL     OW46486   5.777   7.849   6.398 -0.3976 -0.0969  0.2794
15108SOL    HW146487   5.826   7.824   6.476 -0.3467 -0.2647  0.1927
15108SOL    HW246488   5.728   7.771   6.374  0.0710 -0.2379 -0.2279
15109SOL     OW46489   6.997   3.997   7.030 -0.3647  0.6786 -0.2178
15109SOL    HW146490   6.936   3.924   7.039  1.0290 -0.3176  1.9706
15109SOL    HW246491   7.052   3.973   6.955 -0.6906  0.0503 -0.2621
15110SOL     OW46492   2.836   5.542   3.327  0.7180 -0.5601  0.2120
15110SOL    HW146493   2.915   5.580   3.291  0.0641  1.5176  0.8286
15110SOL    HW246494   2.780   5.617   3.348 -2.2850 -1.9527 -2.0525
15111SOL     OW46495   0.869   0.595   6.922  0.2324  0.2974  0.2788
15111SOL    HW146496   0.925   0.666   6.892  1.9745 -0.8403  0.6802
15111SOL    HW246497   0.843   0.549   6.842  0.8752  0.1187  0.1711
15112SOL     OW46498   2.740   1.270   1.474  0.1067 -0.1639 -0.5488
15112SOL    HW146499   2.699   1.214   1.409  1.1285  0.7949 -2.0970
15112SOL    HW246500   2.671   1.289   1.537 -1.2342 -0.2581 -1.9458
15113SOL     OW46501   4.692   4.597   4.350  0.0586  0.0580 -0.2097
15113SOL    HW146502   4.723   4.675   4.303 -0.1761  1.2213  1.4757
15113SOL    HW246503   4.769   4.540   4.355  0.7998  1.0730  0.2819
15114SOL     OW46504   2.483   3.119   8.146  0.1280 -0.0107 -0.1480
15114SOL    HW146505   2.413   3.111   8.081  0.8359  0.1550 -0.9315
15114SOL    HW246506   2.441   3.091   8.228 -0.7527 -0.2785 -0.6694
15115SOL     OW46507   8.353   1.886   7.658  0.1572  0.4102  0.5539
15115SOL    HW146508   8.405   1.847   7.728  0.0045  0.2975  0.6057
15115SOL    HW246509   8.386   1.847   7.578  0.5089  0.7326  0.5378
15116SOL     OW46510   4.651   7.046   2.463 -0.5493 -0.6264  0.1133
15116SOL    HW146511   4.742   7.032   2.486 -1.0469 -2.4594  1.1601
15116SOL    HW246512   4.648   7.037   2.368  0.1320 -2.1498  0.2136
15117SOL     OW46513   5.135   3.073   3.968 -0.0645 -0.1992  0.3503
15117SOL    HW146514   5.165   2.991   3.928  0.0550  0.0131  0.0023
15117SOL    HW246515   5.195   3.139   3.934 -1.2350  0.3291 -0.7803
15118SOL     OW46516   1.987   3.298   4.664  0.0569  0.4101  0.4182
15118SOL    HW146517   1.988   3.393   4.650  1.3313  0.4166  0.4692
15118SOL    HW246518   1.973   3.288   4.759 -0.9551  0.5117  0.2938
15119SOL     OW46519   5.039   0.552   1.913  0.2422 -0.1466  0.2209
15119SOL    HW146520   4.963   0.559   1.855  0.6686 -1.6456 -0.5740
15119SOL    HW246521   5.006   0.506   1.991 -0.0843  0.9368  0.7487
15120SOL     OW46522   4.580   3.579   1.692  0.2561 -0.4568 -0.0363
15120SOL    HW146523   4.601   3.492   1.658 -0.3492 -0.3414 -0.7220
15120SOL    HW246524   4.664   3.624   1.695  0.8216 -1.5003  1.6649
15121SOL     OW46525   3.809   1.059   2.780  0.1155  0.0649 -0.1703
15121SOL    HW146526   3.852   1.044   2.865 -2.3269  1.9837  1.5396
15121SOL    HW246527   3.753   0.982   2.768 -0.4832  0.3634  0.6278
15122SOL     OW46528   0.835   1.486   2.839  0.1361 -0.2407  0.0817
15122SOL    HW146529   0.788   1.427   2.898 -0.3969  1.4484  1.4371
15122SOL    HW246530   0.909   1.518   2.891  1.6176 -1.2301 -1.3127
15123SOL     OW46531   1.102   6.855   8.703 -0.0834  0.1512 -0.6803
15123SOL    HW146532   1.033   6.837   8.767 -1.1140 -0.3585 -1.8863
15123SOL    HW246533   1.177   6.883   8.756  0.1930 -3.2662  1.0199
15124SOL     OW46534   5.414   0.070   0.095 -0.2832  0.3396  0.6995
15124SOL    HW146535   5.466   0.144   0.127 -0.5648  0.7301  0.2674
15124SOL    HW246536   5.326   0.087   0.127 -0.9583  1.5959 -1.5374
15125SOL     OW46537   5.266   7.943   5.031 -0.3934  0.1669 -0.1822
15125SOL    HW146538   5.301   8.014   4.977  0.3327 -0.5342 -0.6442
15125SOL    HW246539   5.294   7.964   5.120  0.9053 -0.1985 -0.4953
15126SOL     OW46540   6.049   7.493   0.720  0.1689  0.2336 -1.1789
15126SOL    HW146541   6.128   7.519   0.767  1.0720 -1.7186 -1.5177
15126SOL    HW246542   6.002   7.575   0.704  0.6026  1.1248  1.6728
15127SOL     OW46543   8.353   3.636   2.176 -0.5767 -0.3926  0.3799
15127SOL    HW146544   8.426   3.684   2.138 -0.9249  0.5621  0.8725
15127SOL    HW246545   8.281   3.648   2.113 -0.1893 -1.7414 -0.3455
15128SOL     OW46546   6.607   2.511   3.032 -0.3859 -0.0994 -0.0618
15128SOL    HW146547   6.691   2.538   2.996 -0.8905 -0.4137 -1.5091
15128SOL    HW246548   6.621   2.511   3.127  1.2776 -0.3132 -0.2831
15129SOL     OW46549   6.283   6.050   4.871 -0.1254 -0.0796 -0.4201
15129SOL    HW146550   6.242   6.055   4.957 -0.7817 -0.3837 -0.7045
15129SOL    HW246551   6.366   6.095   4.881  0.1193 -0.7159  0.5525
15130SOL     OW46552   4.275   7.011   2.184 -0.5732  0.1759 -0.1015
15130SOL    HW146553   4.311   7.098   2.203  0.2017 -0.5258  1.9905
15130SOL    HW246554   4.186   7.028   2.155 -0.6708  1.6584  0.9272
15131SOL     OW46555   0.913   5.011   4.089  0.2389  0.1964 -0.3018
15131SOL    HW146556   0.930   5.074   4.159  2.3173 -0.1454 -0.4321
15131SOL    HW246557   0.877   4.934   4.133  0.2140  0.4914  0.1999
15132SOL     OW46558   8.533   5.337   7.130  0.1257  0.2722 -0.3190
15132SOL    HW146559   8.481   5.258   7.147 -0.2436  0.4142 -0.7713
15132SOL    HW246560   8.581   5.352   7.211  1.3231 -1.2661 -0.6757
15133SOL     OW46561   4.451   0.170   7.868 -0.1923  0.9408  0.0337
15133SOL    HW146562   4.528   0.131   7.825 -0.7418 -1.7760  1.2930
15133SOL    HW246563   4.394   0.195   7.795  0.7928  0.6261 -0.8828
15134SOL     OW46564   6.261   8.218   5.706 -0.4725  0.4768 -0.1307
15134SOL    HW146565   6.323   8.184   5.641  0.0599 -1.0362  1.1265
15134SOL    HW246566   6.240   8.306   5.674  0.5366  0.1558 -1.8147
15135SOL     OW46567   5.945   5.358   5.798  0.4842  0.0547 -0.0932
15135SOL    HW146568   5.946   5.369   5.703 -1.9556 -0.4755 -0.2596
15135SOL    HW246569   5.877   5.418   5.829  0.1824 -0.8496  1.1132
15136SOL     OW46570   2.436   0.882   2.318  0.2459  1.0174  0.0984
15136SOL    HW146571   2.472   0.916   2.236 -1.0846 -1.4560 -1.6750
15136SOL    HW246572   2.505   0.826   2.353  0.0586  0.3831 -0.5199
15137SOL     OW46573   2.851   5.990   8.630 -0.1800  0.0676  0.2832
15137SOL    HW146574   2.931   5.975   8.581  0.3422  0.5335  0.9854
15137SOL    HW246575   2.876   6.047   8.703 -0.7017 -1.4404  1.7195
15138SOL     OW46576   2.823   8.170   6.851  0.0092 -0.5641  0.0092
15138SOL    HW146577   2.833   8.084   6.890  2.2455 -0.2257  0.2908
15138SOL    HW246578   2.779   8.153   6.767 -1.3821 -1.7050  0.9149
15139SOL     OW46579   5.936   6.176   3.525  0.2624  0.7791  0.0695
15139SOL    HW146580   5.851   6.204   3.493 -0.7215 -0.5085  1.3663
15139SOL    HW246581   5.972   6.252   3.570 -0.5482  1.1145  0.1533
15140SOL     OW46582   6.437   5.408   7.727 -0.3088 -0.0926 -0.3510
15140SOL    HW146583   6.400   5.347   7.664 -1.2001 -0.9808  0.9842
15140SOL    HW246584   6.421   5.367   7.812  1.5614  0.6935  0.4167
15141SOL     OW46585   3.584   2.469   3.579 -0.5566 -0.0651  0.6874
15141SOL    HW146586   3.562   2.479   3.672  2.1656  1.2110  1.2767
15141SOL    HW246587   3.508   2.504   3.533 -1.5923  0.1100  2.4343
15142SOL     OW46588   6.442   3.361   6.038 -0.3713  0.1659 -0.2662
15142SOL    HW146589   6.378   3.403   6.095  0.2801  1.4804 -0.4436
15142SOL    HW246590   6.436   3.268   6.058 -2.0799  0.3006 -0.0478
15143SOL     OW46591   0.923   3.890   5.576  0.0201 -0.0821 -0.3584
15143SOL    HW146592   0.948   3.798   5.574  0.3088 -0.0317 -3.3289
15143SOL    HW246593   0.960   3.923   5.657 -2.2045 -3.0670  2.1149
15144SOL     OW46594   4.029   4.736   5.518 -0.5087  0.0192  0.0912
15144SOL    HW146595   4.080   4.656   5.502  0.1847  0.6162 -0.8120
15144SOL    HW246596   3.989   4.723   5.604  0.3807 -0.8875  0.3802
15145SOL     OW46597   4.361   5.977   2.279  0.1470 -0.0115 -0.0019
15145SOL    HW146598   4.434   5.955   2.337  0.3612 -0.3968 -0.4055
15145SOL    HW246599   4.397   6.039   2.216 -0.0801  0.3943  0.2683
15146SOL     OW46600   6.225   3.504   2.382 -0.6171 -0.6005  0.1590
15146SOL    HW146601   6.208   3.586   2.428 -0.9840 -0.4127 -0.2979
15146SOL    HW246602   6.188   3.517   2.295 -0.0017 -0.9730 -0.1700
15147SOL     OW46603   0.470   3.973   7.015  0.0032  0.0936  0.3639
15147SOL    HW146604   0.465   3.895   7.069  1.3787  0.4422  1.0545
15147SOL    HW246605   0.392   3.970   6.960 -0.2654 -1.4417  0.7926
15148SOL     OW46606   5.371   7.923   1.416  0.4236  0.0001  1.0042
15148SOL    HW146607   5.293   7.975   1.395 -1.4057 -2.4529  1.1496
15148SOL    HW246608   5.444   7.982   1.403 -1.2974  1.8073 -1.4433
15149SOL     OW46609   0.124   8.158   4.711  0.0177 -0.2829  0.2121
15149SOL    HW146610   0.068   8.196   4.778  1.6052  2.9036 -0.0911
15149SOL    HW246611   0.184   8.101   4.759  0.3810  1.0583  1.4134
15150SOL     OW46612   2.575   5.053   5.882 -0.0864 -0.5334 -0.2401
15150SOL    HW146613   2.644   4.989   5.862 -0.2501 -0.5932 -0.6156
15150SOL    HW246614   2.501   5.025   5.829 -0.3260 -0.3293 -0.0134
15151SOL     OW46615   0.621   1.996   1.564 -0.5303 -0.5595 -0.0286
15151SOL    HW146616   0.579   1.911   1.579  0.1299 -0.8549  0.2032
15151SOL    HW246617   0.650   2.023   1.651  0.7912 -0.9233 -0.3303
15152SOL     OW46618   6.095   1.516   5.198 -0.5986  0.0505 -0.1920
15152SOL    HW146619   6.158   1.519   5.127 -1.7844 -0.8230 -1.3343
15152SOL    HW246620   6.026   1.577   5.172 -1.0941 -0.3536  0.1491
15153SOL     OW46621   7.291   5.997   3.537 -0.1905  0.2050 -0.7068
15153SOL    HW146622   7.228   6.068   3.548 -1.2882 -0.9175  0.6470
15153SOL    HW246623   7.245   5.919   3.568  1.6948 -0.7469 -0.1506
15154SOL     OW46624   4.930   4.159   1.678  0.0218  0.2517 -0.4761
15154SOL    HW146625   4.842   4.174   1.712 -0.3803 -1.6715 -0.5701
15154SOL    HW246626   4.947   4.066   1.695  1.6531  0.3577 -1.3266
15155SOL     OW46627   1.593   3.021   4.057 -0.1961 -0.1236 -0.2363
15155SOL    HW146628   1.607   3.045   3.965 -1.8304 -1.3452 -0.8416
15155SOL    HW246629   1.590   3.105   4.103  1.6917  0.4786 -1.0995
15156SOL     OW46630   2.471   0.160   0.861 -0.2309  0.3780  0.1169
15156SOL    HW146631   2.414   0.085   0.874 -0.1990  0.4304  0.5834
15156SOL    HW246632   2.412   0.232   0.838 -0.5019  0.7401  1.8313
15157SOL     OW46633   5.608   8.816   1.288  0.6252 -0.0479 -0.2455
15157SOL    HW146634   5.694   8.812   1.245 -0.4604 -0.7315 -2.5508
15157SOL    HW246635   5.622   8.779   1.375  2.5654 -0.5477 -0.7295
15158SOL     OW46636   3.563   7.760   8.647 -0.6737 -0.3483  0.9412
15158SOL    HW146637   3.482   7.710   8.640 -1.7348  1.3650  0.2189
15158SOL    HW246638   3.622   7.705   8.699 -1.6373 -2.4420 -0.0946
15159SOL     OW46639   3.284   1.109   6.416  0.1623 -0.6546  0.0710
15159SOL    HW146640   3.293   1.124   6.322  0.1772  2.3440  0.4246
15159SOL    HW246641   3.218   1.041   6.424  0.8014 -1.6034 -2.1066
15160SOL     OW46642   2.112   2.386   1.082 -0.1487  0.0926  0.2769
15160SOL    HW146643   2.048   2.343   1.025 -0.3350  1.2961 -0.4635
15160SOL    HW246644   2.126   2.324   1.154 -1.2246 -0.7118 -0.1797
15161SOL     OW46645   8.637   6.636   1.906 -0.2705  0.3175  0.2754
15161SOL    HW146646   8.595   6.641   1.820  0.3205  1.2532  0.0224
15161SOL    HW246647   8.656   6.728   1.929  2.6497 -0.0673 -0.1512
15162SOL     OW46648   3.667   2.620   5.639  0.4421  0.8085 -0.5786
15162SOL    HW146649   3.741   2.559   5.648 -0.2204 -0.2399 -1.9348
15162SOL    HW246650   3.613   2.603   5.716  2.1785  2.4778  1.1168
15163SOL     OW46651   3.190   6.360   5.236 -0.5838  0.2672  0.5108
15163SOL    HW146652   3.242   6.440   5.242  0.2730 -0.3465  1.6886
15163SOL    HW246653   3.238   6.296   5.288  0.9529 -2.2488 -3.4767
15164SOL     OW46654   2.230   6.007   6.091  0.0562  0.0763 -0.2670
15164SOL    HW146655   2.284   6.055   6.154 -1.0929 -0.1278  0.9316
15164SOL    HW246656   2.215   6.070   6.019  1.0870  0.4427 -0.1734
15165SOL     OW46657   1.688   2.279   2.080  0.3854  0.5378  0.1436
15165SOL    HW146658   1.613   2.332   2.108 -0.4183 -0.1207 -0.7070
15165SOL    HW246659   1.757   2.301   2.143 -1.0090 -0.0939  2.0113
15166SOL     OW46660   8.022   3.902   1.669 -0.0560  0.2766 -0.6550
15166SOL    HW146661   8.083   3.850   1.722  0.8560 -0.3976 -2.2933
15166SOL    HW246662   8.031   3.991   1.704  0.0709 -0.2470  0.6924
15167SOL     OW46663   8.617   4.493   3.601 -0.0829 -0.3486  0.2714
15167SOL    HW146664   8.684   4.425   3.598  0.3934 -0.0118  2.3235
15167SOL    HW246665   8.622   4.534   3.514  3.2342  0.4778  0.7225
15168SOL     OW46666   0.205   7.852   6.642 -0.1364 -0.4486  0.0241
15168SOL    HW146667   0.210   7.948   6.636  0.1526 -0.5068 -0.6709
15168SOL    HW246668   0.158   7.837   6.725 -2.9375  0.3632 -1.2806
15169SOL     OW46669   5.918   1.670   8.807  0.3638 -0.5533 -0.3877
15169SOL    HW146670   5.919   1.766   8.804 -2.8400 -0.4212 -1.9221
15169SOL    HW246671   5.915   1.649   8.900  2.0701  0.7315  0.0117
15170SOL     OW46672   8.599   2.429   6.220  0.5287 -0.4277 -0.2010
15170SOL    HW146673   8.684   2.395   6.248  1.0882  1.2717  0.3175
15170SOL    HW246674   8.614   2.462   6.132 -0.1424 -1.9512 -0.9106
15171SOL     OW46675   3.252   7.963   8.452 -0.8080  0.5901  0.0739
15171SOL    HW146676   3.227   8.043   8.405 -2.0166 -0.0483 -0.4349
15171SOL    HW246677   3.310   7.993   8.521 -1.3188  1.9316 -0.0377
15172SOL     OW46678   3.114   4.582   1.230  0.4413  0.1953 -0.3302
15172SOL    HW146679   3.035   4.541   1.195  0.9124  0.7167 -2.0814
15172SOL    HW246680   3.145   4.521   1.297 -0.2665 -1.0525 -1.1032
15173SOL     OW46681   4.715   6.054   8.684  0.5330 -0.4159 -0.0166
15173SOL    HW146682   4.783   6.033   8.620 -0.2699 -0.3335 -0.9181
15173SOL    HW246683   4.640   6.002   8.656 -0.6523  1.5484 -0.7000
15174SOL     OW46684   1.603   4.355   6.061 -0.2219 -0.1853  0.0050
15174SOL    HW146685   1.659   4.283   6.033 -1.5851 -1.7100  1.0349
15174SOL    HW246686   1.587   4.338   6.154 -1.1633  1.0504  0.0953
15175SOL     OW46687   6.534   6.183   4.893 -0.9026  0.0674  0.3029
15175SOL    HW146688   6.514   6.275   4.912 -0.5992  0.0955  0.5068
15175SOL    HW246689   6.616   6.187   4.842 -0.6951 -0.1071  0.6193
15176SOL     OW46690   6.549   5.294   1.961  0.0348 -0.1238 -0.6279
15176SOL    HW146691   6.455   5.316   1.960  0.2016  0.8298  0.8924
15176SOL    HW246692   6.592   5.378   1.944  0.6307 -0.1159  0.8095
15177SOL     OW46693   2.354   5.155   6.167  0.8693  0.5120  0.1204
15177SOL    HW146694   2.419   5.224   6.181  3.3138 -1.3624 -1.2282
15177SOL    HW246695   2.387   5.080   6.215 -0.9297 -0.2287  0.3057
15178SOL     OW46696   7.340   3.520   7.525 -0.1740 -0.7122 -0.2385
15178SOL    HW146697   7.299   3.455   7.581 -0.6577  0.5770  0.9407
15178SOL    HW246698   7.397   3.571   7.583 -0.9051  0.8374 -0.8128
15179SOL     OW46699   7.403   5.681   5.827  0.0015  0.1865 -0.3965
15179SOL    HW146700   7.357   5.697   5.745 -2.0665 -0.2892  0.5948
15179SOL    HW246701   7.344   5.716   5.894  0.3802 -1.8048  1.0543
15180SOL     OW46702   5.919   0.007   1.120  0.4795  0.0641 -0.3190
15180SOL    HW146703   6.008  -0.029   1.126  1.2332  1.9958  2.3399
15180SOL    HW246704   5.932   0.102   1.122 -1.6338  0.4346  2.7152
15181SOL     OW46705   0.595   8.067   4.287  0.3387 -0.0750  0.0367
15181SOL    HW146706   0.663   8.122   4.327  0.6412 -0.1520 -0.3627
15181SOL    HW246707   0.523   8.128   4.270  0.6591  0.1941 -0.3720
15182SOL     OW46708   3.446   5.441   7.418 -0.7119  0.6160  0.2531
15182SOL    HW146709   3.410   5.524   7.388 -0.7477  0.6778  0.4645
15182SOL    HW246710   3.381   5.376   7.393 -0.0424  0.4613 -1.1928
15183SOL     OW46711   7.637   8.364   7.048  0.1802 -0.0758 -0.0604
15183SOL    HW146712   7.587   8.342   6.970 -0.5097 -0.0192  0.3600
15183SOL    HW246713   7.574   8.359   7.119  1.1389 -1.7547  0.7447
15184SOL     OW46714   1.688   5.819   4.412  0.7885  0.7361 -0.5445
15184SOL    HW146715   1.759   5.797   4.472 -0.5406  1.0761  1.2209
15184SOL    HW246716   1.681   5.742   4.356  2.0450  0.3925 -0.2764
15185SOL     OW46717   5.067   2.752   3.343  0.1423  0.1220  0.5136
15185SOL    HW146718   5.151   2.795   3.359 -0.2401  0.5160  1.5926
15185SOL    HW246719   5.031   2.738   3.430 -0.4492 -0.9930  0.0990
15186SOL     OW46720   2.309   5.195   2.935  0.2607 -0.0824  0.1662
15186SOL    HW146721   2.226   5.238   2.952  1.0231  1.1644  0.9274
15186SOL    HW246722   2.363   5.262   2.891  0.2025 -1.5144 -2.2760
15187SOL     OW46723   2.455   0.022   4.872 -0.7285 -0.3418 -0.0758
15187SOL    HW146724   2.416   0.043   4.787  1.6375 -0.4463 -1.2583
15187SOL    HW246725   2.497   0.103   4.899  0.6279 -0.9850 -0.2128
15188SOL     OW46726   5.808   4.102   6.029 -0.1101 -0.1038  0.5375
15188SOL    HW146727   5.819   4.188   6.068  3.0175  0.3707 -1.0601
15188SOL    HW246728   5.741   4.114   5.962  1.3515  1.5600 -0.7060
15189SOL     OW46729   7.359   1.522   3.268  0.1569 -0.4552 -0.4642
15189SOL    HW146730   7.271   1.544   3.297  0.6307  2.0364 -0.6734
15189SOL    HW246731   7.382   1.592   3.206  2.0481 -1.3674 -0.8531
15190SOL     OW46732   4.628   7.865   0.902  0.2876 -0.2148  0.0393
15190SOL    HW146733   4.653   7.952   0.934 -0.3443 -0.6261  1.7172
15190SOL    HW246734   4.709   7.829   0.865  1.5350 -0.3703  2.7223
15191SOL     OW46735   0.515   0.224   2.373  0.0966  0.0054 -0.7410
15191SOL    HW146736   0.600   0.181   2.377  0.6845  1.1748  1.1832
15191SOL    HW246737   0.469   0.183   2.300  0.3483 -4.2900  1.2157
15192SOL     OW46738   7.576   1.542   0.838 -1.5685 -0.2316 -0.4138
15192SOL    HW146739   7.590   1.610   0.772 -0.7066  0.0755  0.0613
15192SOL    HW246740   7.531   1.586   0.910 -0.6304 -0.0411  0.0735
15193SOL     OW46741   3.045   0.525   8.573 -0.3576  0.3633 -0.3512
15193SOL    HW146742   3.003   0.572   8.500  0.0808  0.4486 -0.5495
15193SOL    HW246743   3.137   0.547   8.566  0.0621 -1.4064 -1.1533
15194SOL     OW46744   2.228   7.717   5.219  0.1990  0.0318 -1.0674
15194SOL    HW146745   2.289   7.655   5.180 -0.5727 -0.5502 -1.3806
15194SOL    HW246746   2.261   7.730   5.308  1.1412  0.2460 -1.4339
15195SOL     OW46747   3.330   3.818   2.047 -0.9577 -0.6823 -0.1045
15195SOL    HW146748   3.403   3.862   2.002 -0.1753 -0.8553  0.9569
15195SOL    HW246749   3.344   3.839   2.140 -1.5846 -1.7067  0.2290
15196SOL     OW46750   4.696   2.641   7.933 -0.4694 -0.4441 -0.1601
15196SOL    HW146751   4.757   2.670   8.000 -0.5366  0.1988 -0.3670
15196SOL    HW246752   4.693   2.714   7.871 -0.2174 -1.1327 -0.9920
15197SOL     OW46753   7.970   3.369   4.518 -0.1370 -0.4670 -0.5615
15197SOL    HW146754   7.890   3.422   4.520 -0.2568 -0.6510 -0.4735
15197SOL    HW246755   8.041   3.433   4.523 -0.2224 -0.1480 -2.4752
15198SOL     OW46756   8.357   1.326   5.884  0.6034  0.2776 -0.3262
15198SOL    HW146757   8.411   1.306   5.961  0.4626 -0.6729 -0.4552
15198SOL    HW246758   8.330   1.240   5.851 -0.7770  0.7200 -0.4212
15199SOL     OW46759   4.100   5.066   7.857  0.4704 -0.5202  0.1103
15199SOL    HW146760   4.094   5.139   7.919 -0.2042 -0.6799  0.2466
15199SOL    HW246761   4.190   5.035   7.865  0.4319 -0.4576  0.9230
15200SOL     OW46762   7.412   7.055   5.235 -0.0546  0.3744  0.2301
15200SOL    HW146763   7.381   7.040   5.324  1.5015  0.2421  0.7827
15200SOL    HW246764   7.416   6.967   5.196 -0.6181  0.4196  0.0661
15201SOL     OW46765   4.725   6.301   0.893 -0.0087 -0.4304  0.7266
15201SOL    HW146766   4.697   6.210   0.902  0.9037 -0.7809  0.2210
15201SOL    HW246767   4.693   6.329   0.808  0.7608 -0.6875  0.3430
15202SOL     OW46768   4.270   2.067   5.788 -0.2445 -0.1176  0.3893
15202SOL    HW146769   4.333   2.071   5.860  0.1546  1.2971 -0.0097
15202SOL    HW246770   4.322   2.087   5.710 -1.1950  1.1762  0.0583
15203SOL     OW46771   0.739   6.133   1.804 -0.7149  0.3675 -0.0660
15203SOL    HW146772   0.670   6.066   1.797  0.2677 -0.6752 -0.1610
15203SOL    HW246773   0.775   6.120   1.892 -0.0376  0.2683 -0.3483
15204SOL     OW46774   0.558   0.677   8.401  0.0327 -0.3166 -0.2991
15204SOL    HW146775   0.501   0.655   8.475 -1.5289  1.6448 -0.8313
15204SOL    HW246776   0.514   0.750   8.358  2.6264  0.8284 -1.1964
15205SOL     OW46777   2.669   8.388   7.306 -0.1292 -0.0053 -0.5741
15205SOL    HW146778   2.689   8.365   7.397  0.5276  0.2466 -0.6501
15205SOL    HW246779   2.692   8.481   7.299 -1.3861  0.3273 -0.6618
15206SOL     OW46780   0.795   0.577   1.418 -0.1997 -0.3068  0.0271
15206SOL    HW146781   0.835   0.645   1.364 -1.1485 -0.2479 -0.6239
15206SOL    HW246782   0.837   0.587   1.504 -1.5210  2.2630  0.4751
15207SOL     OW46783   0.285   6.239   2.664 -0.4000  0.1495 -0.2982
15207SOL    HW146784   0.322   6.321   2.698  0.9730 -0.2124 -0.8512
15207SOL    HW246785   0.191   6.250   2.674 -0.1775  1.1391  1.1442
15208SOL     OW46786   5.730   6.173   1.192 -0.3706  0.7421  0.3145
15208SOL    HW146787   5.791   6.178   1.118 -0.8598 -1.6486 -0.3243
15208SOL    HW246788   5.780   6.205   1.267  1.0129  0.6677 -0.5478
15209SOL     OW46789   0.656   8.256   1.575 -0.7692 -0.5308 -0.2336
15209SOL    HW146790   0.747   8.283   1.568 -1.0227  0.5005  0.3142
15209SOL    HW246791   0.649   8.218   1.662 -1.4223  1.7372  0.7777
15210SOL     OW46792   7.225   6.663   1.346  0.1399  0.4965 -0.4184
15210SOL    HW146793   7.186   6.652   1.260 -0.5676  0.5947 -0.1196
15210SOL    HW246794   7.273   6.581   1.361 -0.4395  0.1183 -0.5547
15211SOL     OW46795   5.058   4.112   6.971 -0.0859 -0.6314  0.0676
15211SOL    HW146796   5.139   4.076   7.007 -0.6483 -1.6016  0.4064
15211SOL    HW246797   5.082   4.144   6.885  1.3765  2.0167  1.3330
15212SOL     OW46798   7.059   5.098   0.954  0.0237  0.8374  0.2246
15212SOL    HW146799   7.143   5.060   0.930 -0.0800 -0.8951  2.3033
15212SOL    HW246800   7.081   5.182   0.995  0.4985  1.6402 -1.6029
15213SOL     OW46801   3.516   4.830   1.159  0.2627  0.3468 -0.6257
15213SOL    HW146802   3.425   4.821   1.129  0.0708 -1.7547  0.4249
15213SOL    HW246803   3.567   4.780   1.096  0.5660  0.6766 -0.6410
15214SOL     OW46804   1.844   6.572   7.940 -0.9175 -0.5548 -0.1276
15214SOL    HW146805   1.814   6.494   7.893 -0.7469 -0.6114 -0.1445
15214SOL    HW246806   1.856   6.638   7.872 -1.3347 -0.4266 -0.0792
15215SOL     OW46807   5.430   0.297   2.935 -0.0313 -0.1767 -0.2398
15215SOL    HW146808   5.405   0.328   2.848  0.9217 -0.6010 -0.6818
15215SOL    HW246809   5.519   0.265   2.924  0.8722  1.6156  1.3445
15216SOL     OW46810   0.301   5.135   1.853  0.3192 -0.2956  0.3175
15216SOL    HW146811   0.205   5.136   1.855  0.3070 -1.3823  2.1286
15216SOL    HW246812   0.327   5.208   1.909  0.5545 -0.2364  0.1342
15217SOL     OW46813   2.217   3.520   8.071 -0.2805  0.1883 -0.2586
15217SOL    HW146814   2.281   3.494   8.005 -1.6949 -1.6561 -0.9927
15217SOL    HW246815   2.249   3.483   8.153  0.8094  1.3843 -0.1028
15218SOL     OW46816   1.571   3.370   2.779  0.5704  0.9189  0.4514
15218SOL    HW146817   1.554   3.302   2.845  0.2159 -0.5224 -1.0666
15218SOL    HW246818   1.658   3.403   2.801  0.7346  0.0092  1.2492
15219SOL     OW46819   7.465   6.512   3.881  0.2691 -0.2374  0.1733
15219SOL    HW146820   7.419   6.455   3.819  0.5786 -0.8822  0.5271
15219SOL    HW246821   7.482   6.592   3.831  0.6254 -0.7903 -0.6263
15220SOL     OW46822   0.279   6.151   6.764  0.5725 -0.0386 -0.3038
15220SOL    HW146823   0.347   6.128   6.828 -1.3742 -1.7790  1.2855
15220SOL    HW246824   0.232   6.223   6.805 -0.7530 -1.2318  0.3515
15221SOL     OW46825   4.350   1.286   4.407 -0.2746  0.4849  0.1558
15221SOL    HW146826   4.302   1.218   4.454  0.3539 -0.1583 -0.1263
15221SOL    HW246827   4.320   1.278   4.316  1.5565 -1.0539 -0.3855
15222SOL     OW46828   1.209   4.098   7.435  0.1949  0.7236 -0.1932
15222SOL    HW146829   1.266   4.098   7.358  0.9241 -0.3297  0.3256
15222SOL    HW246830   1.262   4.139   7.504  0.3662 -0.3022  0.3040
15223SOL     OW46831   2.017   7.972   8.602 -0.0225 -0.2978 -0.3153
15223SOL    HW146832   2.090   8.025   8.568  0.0152  0.3407  0.7207
15223SOL    HW246833   1.979   7.931   8.524  1.3567 -0.5347 -0.8992
15224SOL     OW46834   2.830   8.838   7.225 -0.1689 -0.3292  0.4152
15224SOL    HW146835   2.885   8.916   7.239  2.5258 -1.9277 -0.4078
15224SOL    HW246836   2.778   8.830   7.305 -0.4954  2.2466  0.5411
15225SOL     OW46837   0.309   1.310   8.330  0.3087  0.2906 -0.0666
15225SOL    HW146838   0.283   1.402   8.323  0.6072  0.2794 -1.8568
15225SOL    HW246839   0.401   1.313   8.357  0.0051  0.4729  0.9756
15226SOL     OW46840   6.231   6.839   4.932 -0.2483 -0.0817  0.0218
15226SOL    HW146841   6.322   6.865   4.913  0.1332 -1.6001 -0.3957
15226SOL    HW246842   6.192   6.825   4.846 -0.4056 -0.9441  0.2272
15227SOL     OW46843   2.605   1.902   6.943 -0.2222  0.2651  0.0866
15227SOL    HW146844   2.548   1.825   6.945  1.5474 -1.1020  1.4141
15227SOL    HW246845   2.685   1.871   6.903  0.2575  1.6419 -0.0565
15228SOL     OW46846   0.760   2.220   4.743 -0.2583 -0.5693  0.3008
15228SOL    HW146847   0.845   2.185   4.769 -0.0505  0.0008  0.4071
15228SOL    HW246848   0.732   2.165   4.671  0.8126  0.0434 -0.6153
15229SOL     OW46849   3.453   3.522   6.654 -0.5632  0.4682  0.0330
15229SOL    HW146850   3.394   3.541   6.727 -0.4164 -1.2579  0.6466
15229SOL    HW246851   3.521   3.467   6.692  2.3242  3.4982 -0.3236
15230SOL     OW46852   1.707   5.364   4.658  0.1131  0.0611  0.0164
15230SOL    HW146853   1.703   5.278   4.618  1.1381  0.7482 -1.6621
15230SOL    HW246854   1.621   5.375   4.700  0.0053 -1.7779  0.3698
15231SOL     OW46855   8.164   3.004   0.422 -0.3406  0.5669  0.5141
15231SOL    HW146856   8.162   3.098   0.442  0.2995  0.3104  1.8728
15231SOL    HW246857   8.156   2.962   0.507  2.0911 -0.6115  0.2191
15232SOL     OW46858   3.788   7.370   1.151  0.0200 -0.6205  0.4003
15232SOL    HW146859   3.839   7.303   1.196  4.0073  1.5870 -0.3802
15232SOL    HW246860   3.842   7.448   1.155 -2.3675  1.4244 -2.5499
15233SOL     OW46861   5.070   7.111   6.862 -0.1277  0.2950 -0.1495
15233SOL    HW146862   5.031   7.084   6.945 -1.5121  0.7573 -0.6144
15233SOL    HW246863   5.164   7.101   6.875 -0.2959  0.6125  1.5632
15234SOL     OW46864   1.395   5.880   5.255  0.6785 -0.0438 -0.4567
15234SOL    HW146865   1.456   5.886   5.180  1.5363 -0.1206  0.2160
15234SOL    HW246866   1.308   5.887   5.216  1.1378  0.7943 -1.3731
15235SOL     OW46867   3.612   3.259   0.851  0.1805  0.0543 -0.4677
15235SOL    HW146868   3.518   3.241   0.860  0.1751  0.3357  0.0863
15235SOL    HW246869   3.618   3.354   0.849  0.5351  0.0578  0.4516
15236SOL     OW46870   8.490   0.922   1.111 -0.4868  0.8281  0.3768
15236SOL    HW146871   8.444   0.843   1.140 -1.4193  0.7349 -1.2221
15236SOL    HW246872   8.467   0.989   1.175 -3.2688  0.8963 -0.5545
15237SOL     OW46873   3.185   1.834   3.077 -0.1914 -0.3840  0.4602
15237SOL    HW146874   3.099   1.867   3.106  0.8669  4.0298 -0.6279
15237SOL    HW246875   3.248   1.879   3.133  1.4845  0.2625 -1.7757
15238SOL     OW46876   3.625   5.051   4.795 -0.2982  0.1476 -0.5701
15238SOL    HW146877   3.614   5.114   4.866  1.6485 -0.2615  0.1555
15238SOL    HW246878   3.683   5.095   4.732 -1.0655  0.0653 -1.3488
15239SOL     OW46879   1.801   7.533   2.333  0.0505 -0.0341  0.2858
15239SOL    HW146880   1.738   7.480   2.285 -0.8114  0.6525  0.6215
15239SOL    HW246881   1.752   7.565   2.409  0.7074  0.7716  0.3848
15240SOL     OW46882   0.725   3.410   8.022 -0.3559  0.1415 -0.2643
15240SOL    HW146883   0.729   3.452   7.936  0.9998  1.1599  0.2577
15240SOL    HW246884   0.644   3.444   8.061  0.2749  1.6416 -0.1896
15241SOL     OW46885   1.305   6.974   5.725  0.0693 -0.9197  0.6570
15241SOL    HW146886   1.293   7.019   5.642  0.9014 -0.1934  0.9152
15241SOL    HW246887   1.227   6.996   5.776  0.4970  0.3227  0.8089
15242SOL     OW46888   4.569   3.823   6.938  0.0039  0.1414  0.6297
15242SOL    HW146889   4.488   3.872   6.951 -0.2258  0.4330 -1.5970
15242SOL    HW246890   4.637   3.890   6.935  0.6550 -0.1801  3.9868
15243SOL     OW46891   7.007   7.859   6.774  0.2747 -0.8061 -0.3531
15243SOL    HW146892   7.086   7.854   6.719 -0.7308 -1.1513 -1.8267
15243SOL    HW246893   6.972   7.770   6.772 -0.7679 -0.3950 -0.6801
15244SOL     OW46894   5.399   7.012   6.036 -0.6039 -0.3535 -0.9020
15244SOL    HW146895   5.379   6.968   5.953  0.0181  1.0812 -1.8421
15244SOL    HW246896   5.340   7.087   6.038 -0.5742 -0.3443 -0.0583
15245SOL     OW46897   7.940   5.547   8.549 -0.2235  0.4100  0.1435
15245SOL    HW146898   7.950   5.593   8.632 -0.3501 -1.0675  1.0065
15245SOL    HW246899   7.952   5.455   8.570 -0.7940 -0.0568 -1.3904
15246SOL     OW46900   2.141   4.103   6.096  0.0053  0.2977 -0.7052
15246SOL    HW146901   2.184   4.142   6.173  1.1027  0.9672 -1.6124
15246SOL    HW246902   2.201   4.122   6.024 -0.4090 -1.3825 -1.5352
15247SOL     OW46903   4.850   3.918   3.361  0.0208  0.2114  0.0091
15247SOL    HW146904   4.858   3.858   3.436  1.4540  1.4406  0.9027
15247SOL    HW246905   4.923   3.894   3.303  0.1321  0.5760 -0.0038
15248SOL     OW46906   2.534   5.571   1.256  0.4173  0.1247 -0.0236
15248SOL    HW146907   2.572   5.612   1.178 -0.6009 -0.3851 -0.8055
15248SOL    HW246908   2.594   5.501   1.278  0.1777 -0.4128 -1.0066
15249SOL     OW46909   2.098   8.483   1.671  0.3758  0.2660  0.0679
15249SOL    HW146910   2.088   8.532   1.753 -0.3910  1.5299 -0.7550
15249SOL    HW246911   2.050   8.402   1.686 -2.9365  2.0117 -0.3261
15250SOL     OW46912   4.100   1.036   7.230  0.5741  0.2692 -0.5088
15250SOL    HW146913   4.135   0.973   7.294  0.5734  0.7390 -0.0401
15250SOL    HW246914   4.045   0.983   7.173  0.3035 -0.1065  0.0838
15251SOL     OW46915   1.451   0.699   6.828 -0.1983 -0.0077  0.5369
15251SOL    HW146916   1.466   0.637   6.757  0.7265  1.0619 -0.2392
15251SOL    HW246917   1.534   0.745   6.838 -0.8556  1.0968  1.1007
15252SOL     OW46918   4.755   2.480   3.310 -0.0839  0.2448  0.1277
15252SOL    HW146919   4.685   2.415   3.298  1.0018 -0.8044 -0.8032
15252SOL    HW246920   4.801   2.452   3.389  1.0071 -0.7472 -0.8331
15253SOL     OW46921   0.417   1.738   4.388 -0.2019  0.1953  0.4963
15253SOL    HW146922   0.425   1.672   4.318 -1.1110 -0.5844  1.1108
15253SOL    HW246923   0.385   1.816   4.343  0.6606  0.1712 -0.2029
15254SOL     OW46924   4.939   8.139   4.210 -0.0596  0.3984 -0.2937
15254SOL    HW146925   4.857   8.188   4.208 -0.1167  0.2917 -1.5174
15254SOL    HW246926   4.957   8.125   4.303 -1.0302  1.0764  0.0104
15255SOL     OW46927   3.342   6.881   4.892  0.6016  0.1337  0.4597
15255SOL    HW146928   3.386   6.804   4.928 -1.1737 -1.4739 -0.5588
15255SOL    HW246929   3.249   6.867   4.913  0.1810  1.7423 -0.1974
15256SOL     OW46930   1.685   6.424   1.702 -0.0552 -0.2369  0.0548
15256SOL    HW146931   1.696   6.436   1.608  0.3598 -0.1072  0.1158
15256SOL    HW246932   1.756   6.364   1.727 -1.1177 -1.5551  0.0288
15257SOL     OW46933   4.389   6.972   0.253  0.2594 -0.3835 -0.6178
15257SOL    HW146934   4.383   6.944   0.161 -0.1960 -1.8606 -0.1671
15257SOL    HW246935   4.321   7.039   0.262 -0.2587 -0.8265 -1.1558
15258SOL     OW46936   6.842   7.627   1.055 -0.3202  0.4668 -0.1546
15258SOL    HW146937   6.914   7.690   1.051  2.3845 -2.4316 -0.6913
15258SOL    HW246938   6.835   7.591   0.967 -0.8789 -0.9184  0.4161
15259SOL     OW46939   2.426   7.383   5.261 -0.0637 -0.1587  0.6470
15259SOL    HW146940   2.391   7.311   5.209 -0.6280  0.9407 -0.5683
15259SOL    HW246941   2.452   7.449   5.196  1.1321  0.4346  1.6820
15260SOL     OW46942   5.444   6.558   6.599 -0.0105  0.5518  0.0231
15260SOL    HW146943   5.416   6.506   6.524 -0.2291  2.5615 -1.3846
15260SOL    HW246944   5.538   6.540   6.607 -0.3396 -1.1413  0.5493
15261SOL     OW46945   6.417   8.164   1.403  0.2111 -0.0449 -0.4682
15261SOL    HW146946   6.479   8.169   1.475 -1.1415 -0.6444  0.8050
15261SOL    HW246947   6.405   8.255   1.376  0.6360  0.2121  0.1693
15262SOL     OW46948   3.076   3.413   7.659  0.0236  0.2849  0.1004
15262SOL    HW146949   3.026   3.380   7.585  0.1463  0.9551 -0.2901
15262SOL    HW246950   3.167   3.415   7.628  0.2473 -0.5230  0.6604
15263SOL     OW46951   1.104   8.720   6.767 -0.3317 -0.6580  0.5832
15263SOL    HW146952   1.154   8.643   6.740  0.9427  0.5094 -0.5509
15263SOL    HW246953   1.016   8.705   6.731 -0.1737 -1.6862  0.5921
15264SOL     OW46954   5.331   3.164   1.703  0.3298  0.0733  0.1997
15264SOL    HW146955   5.270   3.102   1.664  2.0638 -1.3456 -0.3803
15264SOL    HW246956   5.417   3.122   1.696  1.4775  2.1838  0.5175
15265SOL     OW46957   4.177   8.153   1.636 -0.1020  0.1814  0.7318
15265SOL    HW146958   4.231   8.231   1.642  0.6401 -0.3080  0.5360
15265SOL    HW246959   4.164   8.125   1.726  1.3726 -0.6276  0.7310
15266SOL     OW46960   6.649   7.136   0.384  0.0728  0.2959  0.4330
15266SOL    HW146961   6.585   7.100   0.445 -0.7933  2.0437  0.6300
15266SOL    HW246962   6.596   7.168   0.311  0.9634 -0.4014 -0.5395
15267SOL     OW46963   5.340   8.671   5.844 -0.2903 -0.5146 -0.8226
15267SOL    HW146964   5.311   8.610   5.776 -0.5422 -0.7790 -0.4844
15267SOL    HW246965   5.265   8.678   5.904  0.0757 -0.6258 -0.3397
15268SOL     OW46966   0.457   6.396   5.715  0.3053  0.0008 -0.5422
15268SOL    HW146967   0.458   6.305   5.685 -0.0392 -0.3891  0.5534
15268SOL    HW246968   0.547   6.415   5.739  0.1853 -0.4399  0.2919
15269SOL     OW46969   5.863   7.009   1.363 -0.6093  0.1505  0.3288
15269SOL    HW146970   5.783   6.959   1.376 -0.3358 -0.7880 -1.3352
15269SOL    HW246971   5.835   7.101   1.366 -1.2635 -0.0864  2.4748
15270SOL     OW46972   1.877   4.320   8.356 -0.5673  0.1284  0.0698
15270SOL    HW146973   1.961   4.308   8.312 -0.8174  1.1533 -0.7289
15270SOL    HW246974   1.812   4.289   8.294 -1.0414  3.0386 -1.0534
15271SOL     OW46975   7.115   1.736   3.899 -0.3686 -0.5198  0.1183
15271SOL    HW146976   7.120   1.754   3.805 -0.5670 -0.5563  0.0998
15271SOL    HW246977   7.205   1.719   3.925  0.4102  3.7165  0.8275
15272SOL     OW46978   7.912   4.502   3.002  0.1037  0.3506  0.1222
15272SOL    HW146979   7.836   4.530   2.951  0.0276  0.6704  0.4162
15272SOL    HW246980   7.972   4.576   2.999 -0.0410  0.4984  0.7820
15273SOL     OW46981   8.141   6.774   5.175  0.0400  0.3086 -0.2497
15273SOL    HW146982   8.049   6.771   5.199  0.6396  0.7206  2.4239
15273SOL    HW246983   8.167   6.682   5.167 -0.8364  0.1818 -2.3673
15274SOL     OW46984   4.589   3.820   5.310  0.8078  0.1080 -0.2418
15274SOL    HW146985   4.644   3.790   5.381  0.4026  1.8014  0.8462
15274SOL    HW246986   4.500   3.798   5.338  0.5240  2.0089  0.4813
15275SOL     OW46987   5.226   2.857   6.289  0.1954  0.6661 -0.2114
15275SOL    HW146988   5.212   2.830   6.380  0.1135  1.1030 -0.0923
15275SOL    HW246989   5.145   2.832   6.244  0.9411 -1.2876 -0.5917
15276SOL     OW46990   3.122   2.276   4.625 -0.2000  0.0178 -0.4491
15276SOL    HW146991   3.217   2.272   4.612  0.3810  1.1368  2.6049
15276SOL    HW246992   3.106   2.221   4.703 -2.2748 -1.0853 -1.5587
15277SOL     OW46993   0.042   1.610   3.489  0.3391  0.4381  1.0125
15277SOL    HW146994   0.030   1.669   3.563 -1.7633  1.3166  0.0556
15277SOL    HW246995   0.063   1.668   3.415  0.1033 -0.1945  0.4385
15278SOL     OW46996   1.979   2.931   5.191  0.3225 -0.0500  0.1463
15278SOL    HW146997   1.935   2.846   5.190 -0.0270  0.1160  0.7795
15278SOL    HW246998   2.001   2.946   5.283  0.0953  0.6863  0.0919
15279SOL     OW46999   2.292   1.802   4.880 -0.4568  0.3626  0.0310
15279SOL    HW147000   2.259   1.794   4.790 -0.9514 -0.9887  0.3009
15279SOL    HW247001   2.292   1.896   4.898 -0.1545  0.6723 -1.4538
15280SOL     OW47002   1.878   6.297   4.868  0.2307 -0.3080 -0.2920
15280SOL    HW147003   1.893   6.376   4.919 -1.1642 -0.3545  0.2276
15280SOL    HW247004   1.931   6.230   4.910 -0.4645 -0.2121  0.7594
15281SOL     OW47005   3.725   2.981   1.406  0.3590  0.7423  0.0927
15281SOL    HW147006   3.655   2.992   1.469 -0.8156  0.6747 -1.1425
15281SOL    HW247007   3.720   3.058   1.350 -0.3737 -0.3922 -1.5103
15282SOL     OW47008   5.331   7.849   0.541  0.2635 -0.1484  0.2436
15282SOL    HW147009   5.361   7.774   0.593 -1.1831 -2.2728 -1.8002
15282SOL    HW247010   5.338   7.820   0.450 -0.9506  1.9916 -0.6152
15283SOL     OW47011   2.897   8.505   0.195  0.4308 -0.1122  0.2353
15283SOL    HW147012   2.832   8.471   0.257  0.3452  1.1249  0.8580
15283SOL    HW247013   2.956   8.431   0.179 -1.4913 -1.4683 -0.8755
15284SOL     OW47014   2.225   5.602   7.570  0.2119  0.8479  0.2713
15284SOL    HW147015   2.285   5.586   7.642  0.7106  0.2761 -0.2634
15284SOL    HW247016   2.264   5.674   7.521  0.0629  0.9915  0.3642
15285SOL     OW47017   0.834   0.762   3.063 -0.0117  0.1756  0.2208
15285SOL    HW147018   0.843   0.846   3.108 -1.0510 -0.1211  1.0349
15285SOL    HW247019   0.759   0.719   3.106  0.8284 -1.4013  0.1981
15286SOL     OW47020   8.347   5.309   6.788  0.4007 -0.4918  0.0592
15286SOL    HW147021   8.425   5.260   6.761  0.7804 -0.9138  1.7373
15286SOL    HW247022   8.374   5.400   6.788  0.2658 -0.4433 -1.3041
15287SOL     OW47023   5.612   6.906   7.338 -0.2819  0.1062 -0.2094
15287SOL    HW147024   5.703   6.918   7.367  0.4471 -1.1169 -1.8536
15287SOL    HW247025   5.585   6.824   7.380  0.1273 -0.6555 -1.3876
15288SOL     OW47026   1.977   5.441   8.795 -0.1117  0.3445 -0.3389
15288SOL    HW147027   1.944   5.462   8.882  0.9264 -0.9394  0.4015
15288SOL    HW247028   2.017   5.522   8.764  0.1887  0.6115  0.7092
15289SOL     OW47029   6.561   5.067   8.679 -0.2042 -0.0496  0.4730
15289SOL    HW147030   6.586   5.120   8.603 -1.5777  1.1084  0.7815
15289SOL    HW247031   6.504   4.999   8.643  0.8048 -0.7875  0.2114
15290SOL     OW47032   6.973   4.257   7.772 -0.6506 -0.4011  0.4621
15290SOL    HW147033   6.963   4.239   7.865 -2.6263  1.1955  0.6263
15290SOL    HW247034   6.987   4.171   7.732 -0.2748 -1.1600  2.1657
15291SOL     OW47035   4.507   4.323   7.891  0.0745 -0.2908 -0.2051
15291SOL    HW147036   4.554   4.394   7.937 -0.6776 -0.4403  0.8317
15291SOL    HW247037   4.568   4.249   7.894  0.2243 -0.1576  0.1349
15292SOL     OW47038   8.841   4.080   5.773 -0.0548  0.2435  0.2467
15292SOL    HW147039   8.871   4.148   5.712  0.1444  0.8218  0.9728
15292SOL    HW247040   8.751   4.061   5.746  0.1386  0.2655 -0.4191
15293SOL     OW47041   6.505   7.077   5.876 -0.3680 -0.4978 -0.5710
15293SOL    HW147042   6.551   7.070   5.960 -1.3924  0.5684  0.1080
15293SOL    HW247043   6.420   7.036   5.891 -0.6120 -0.1712 -1.0301
15294SOL     OW47044   0.470   2.923   0.563 -0.0760 -0.0901 -0.1363
15294SOL    HW147045   0.516   2.852   0.519  0.8695  0.1291  0.4618
15294SOL    HW247046   0.489   3.001   0.510 -0.5075 -0.1474 -0.3829
15295SOL     OW47047   6.128   1.267   2.089  0.0287  0.2186  0.0743
15295SOL    HW147048   6.147   1.176   2.066 -1.0377  0.5926 -2.5947
15295SOL    HW247049   6.046   1.263   2.137  1.0589 -0.3626  1.8842
15296SOL     OW47050   6.697   3.302   4.906 -0.4443  0.8156  0.2557
15296SOL    HW147051   6.618   3.277   4.858 -1.0955 -0.5528  1.9594
15296SOL    HW247052   6.767   3.295   4.840 -1.5956  1.2605 -1.0727
15297SOL     OW47053   3.475   6.984   4.462 -0.0165  0.6813  0.0137
15297SOL    HW147054   3.515   7.062   4.500  0.7225 -0.1978  1.1163
15297SOL    HW247055   3.534   6.960   4.390  0.1964  0.6932  0.1806
15298SOL     OW47056   2.308   6.078   4.792  0.3486  0.6534 -0.3352
15298SOL    HW147057   2.328   6.158   4.841 -2.8543  1.5519 -0.2868
15298SOL    HW247058   2.334   6.099   4.702  1.1024  1.0794 -0.0355
15299SOL     OW47059   5.239   1.879   7.771  0.1145  0.1641 -0.2470
15299SOL    HW147060   5.163   1.825   7.797 -0.6777  1.1710 -0.4097
15299SOL    HW247061   5.235   1.880   7.675  0.3675  0.1700 -0.2556
15300SOL     OW47062   5.042   5.050   0.587  0.5073 -0.0502 -0.4881
15300SOL    HW147063   4.969   5.000   0.624  1.2128 -0.1756  0.8068
15300SOL    HW247064   5.062   5.006   0.504 -2.0201  1.0793 -1.8082
15301SOL     OW47065   5.472   2.592   8.471  0.5425  0.2404  0.9169
15301SOL    HW147066   5.470   2.613   8.565  0.1568  0.0796  0.9475
15301SOL    HW247067   5.425   2.509   8.465  0.4354  0.3284  0.5586
15302SOL     OW47068   8.521   8.405   0.036  0.7496  0.2648  0.1395
15302SOL    HW147069   8.615   8.411   0.052  0.5024  0.8885  1.5226
15302SOL    HW247070   8.492   8.333   0.093  0.2338  0.8267  0.6034
15303SOL     OW47071   5.825   1.403   8.740  0.4504  0.1630  0.1347
15303SOL    HW147072   5.730   1.414   8.744  0.1729 -2.1243  1.1747
15303SOL    HW247073   5.859   1.492   8.746 -1.6147  1.0286 -0.1378
15304SOL     OW47074   7.125   7.612   7.770 -0.1206  0.3769 -0.3226
15304SOL    HW147075   7.156   7.684   7.825 -1.6763  0.0023  1.1450
15304SOL    HW247076   7.031   7.609   7.786 -0.1859 -1.5865 -0.8198
15305SOL     OW47077   7.516   5.676   1.884 -0.1157  0.3499  0.4363
15305SOL    HW147078   7.596   5.726   1.903 -0.4455  0.9352  0.3017
15305SOL    HW247079   7.490   5.641   1.970  1.1311 -1.1593  0.2493
15306SOL     OW47080   4.743   5.485   4.489 -0.3791  0.1311  0.8456
15306SOL    HW147081   4.829   5.442   4.480 -1.2093 -1.5293  0.3742
15306SOL    HW247082   4.702   5.438   4.562 -1.2705  0.2108  0.4002
15307SOL     OW47083   2.472   3.319   6.646  0.3964  0.5241  0.4232
15307SOL    HW147084   2.528   3.377   6.594  2.2150 -1.2712  0.2523
15307SOL    HW247085   2.383   3.348   6.627  1.1478  1.9201 -1.2410
15308SOL     OW47086   5.366   7.619   4.331  0.3411  0.1403  0.1814
15308SOL    HW147087   5.369   7.570   4.413  1.2451  0.0429  0.1019
15308SOL    HW247088   5.428   7.690   4.343  0.1852  0.3603 -0.2771
15309SOL     OW47089   3.490   6.858   0.085 -0.3753 -0.2610  0.1070
15309SOL    HW147090   3.554   6.869   0.015  0.0104 -1.1555  0.2997
15309SOL    HW247091   3.438   6.938   0.083 -0.2351 -0.1852 -1.0513
15310SOL     OW47092   5.503   0.101   2.643  0.8367  0.6537  0.2363
15310SOL    HW147093   5.409   0.086   2.640  0.9402 -0.3186  1.2107
15310SOL    HW247094   5.534   0.076   2.556  0.3622 -0.2710  0.3220
15311SOL     OW47095   2.285   5.718   8.393  0.3552  0.3539  0.4473
15311SOL    HW147096   2.329   5.758   8.318  0.0978  1.8305  1.0442
15311SOL    HW247097   2.344   5.734   8.467 -0.1964  0.4566  0.8712
15312SOL     OW47098   5.258   3.164   8.151  0.3199 -0.5391  0.3688
15312SOL    HW147099   5.177   3.216   8.148  0.1234 -0.8924 -0.7389
15312SOL    HW247100   5.321   3.214   8.098  1.0464  0.0509  1.7266
15313SOL     OW47101   5.423   3.377   8.008  0.2226  0.4021  0.3702
15313SOL    HW147102   5.503   3.380   7.955 -0.2491 -0.0402 -0.3848
15313SOL    HW247103   5.374   3.454   7.982  0.1949  0.4292  0.5011
15314SOL     OW47104   2.453   5.785   5.703  0.0997  0.2046 -0.3171
15314SOL    HW147105   2.395   5.832   5.763 -1.5327 -2.3941  0.2653
15314SOL    HW247106   2.410   5.701   5.687  3.4089 -1.6649 -0.3423
15315SOL     OW47107   3.466   1.121   3.824  0.0886 -0.5357  0.2367
15315SOL    HW147108   3.434   1.183   3.890 -1.5154 -2.0694  0.9708
15315SOL    HW247109   3.439   1.035   3.856 -1.1689 -1.3186 -2.6333
15316SOL     OW47110   0.355   0.112   2.555 -0.5055  0.3964  0.2090
15316SOL    HW147111   0.400   0.081   2.634  0.2743 -2.1586 -1.0971
15316SOL    HW247112   0.419   0.170   2.513  0.9137 -1.6293 -0.6183
15317SOL     OW47113   6.197   1.791   7.334  0.2740  0.4060  0.0455
15317SOL    HW147114   6.147   1.861   7.375 -1.8822 -1.3365  0.5922
15317SOL    HW247115   6.137   1.717   7.330  1.5037 -0.6160 -3.0923
15318SOL     OW47116   7.322   8.100   6.001  0.1584  0.5277 -0.0958
15318SOL    HW147117   7.404   8.109   5.952 -0.0722  1.0112 -0.3971
15318SOL    HW247118   7.311   8.006   6.012 -0.5183  0.3169 -2.2288
15319SOL     OW47119   7.977   8.302   7.932  0.2934 -0.0073 -0.0650
15319SOL    HW147120   8.020   8.225   7.970 -0.2275  0.4324  1.5099
15319SOL    HW247121   7.997   8.373   7.994 -1.1112  0.6174 -0.2870
15320SOL     OW47122   7.405   2.767   2.319 -0.0383  0.2674  0.2369
15320SOL    HW147123   7.459   2.696   2.284 -0.7608 -0.6197  0.8684
15320SOL    HW247124   7.376   2.816   2.243 -2.4593 -2.2220 -0.6056
15321SOL     OW47125   3.091   1.489   5.054  0.2782 -0.8171 -0.2654
15321SOL    HW147126   3.040   1.452   5.126 -0.1539  1.6530  0.8054
15321SOL    HW247127   3.171   1.437   5.053  0.5793 -0.5870  2.4637
15322SOL     OW47128   7.348   6.066   7.509  0.1829  0.0252  0.8226
15322SOL    HW147129   7.301   6.073   7.426 -0.4972 -2.5467  0.8983
15322SOL    HW247130   7.317   6.141   7.561 -1.7604 -0.0412 -0.1420
15323SOL     OW47131   2.234   5.924   7.753 -0.0599  0.0318 -0.1400
15323SOL    HW147132   2.231   6.011   7.715 -0.8490 -1.3648 -3.6716
15323SOL    HW247133   2.147   5.887   7.736  0.4096 -1.6116  0.7929
15324SOL     OW47134   5.482   6.993   0.549 -0.3786  0.7531  0.0015
15324SOL    HW147135   5.390   6.991   0.522  0.4198 -0.4832 -2.8836
15324SOL    HW247136   5.524   7.052   0.486  1.1267 -0.1196  0.1576
15325SOL     OW47137   8.838   0.758   2.647  0.4954  0.4297  0.1436
15325SOL    HW147138   8.856   0.847   2.619 -0.2146  0.2726 -0.8785
15325SOL    HW247139   8.765   0.729   2.591  1.2436 -1.0631 -0.1241
15326SOL     OW47140   5.557   3.308   3.243 -0.8038  0.3589 -0.1968
15326SOL    HW147141   5.616   3.345   3.309  2.5801 -1.1307 -2.1412
15326SOL    HW247142   5.554   3.375   3.174 -2.2314  0.7953  0.2397
15327SOL     OW47143   6.937   4.061   5.210 -0.6932 -0.9765  0.3807
15327SOL    HW147144   6.918   4.155   5.216  0.8160 -0.6143 -0.1366
15327SOL    HW247145   6.963   4.048   5.119 -0.3054 -1.7746  0.5995
15328SOL     OW47146   3.068   1.274   3.482 -0.1485  0.4132  0.3052
15328SOL    HW147147   3.129   1.329   3.433  0.1489 -1.2637 -1.3057
15328SOL    HW247148   3.118   1.247   3.559  0.7644  0.0093 -0.4032
15329SOL     OW47149   3.475   7.651   8.369  0.5355 -0.0316  0.4740
15329SOL    HW147150   3.492   7.739   8.334 -1.1553 -0.1054 -0.6361
15329SOL    HW247151   3.524   7.593   8.310  1.4530  0.1306  1.0600
15330SOL     OW47152   8.310   6.424   2.503 -0.1894 -0.9662 -0.0935
15330SOL    HW147153   8.324   6.507   2.548 -1.1130 -0.0514 -1.4220
15330SOL    HW247154   8.262   6.447   2.423  1.0155 -2.5715 -1.3608
15331SOL     OW47155   0.020   1.771   4.711  0.3012  0.1456  0.2745
15331SOL    HW147156   0.058   1.685   4.732 -1.5383 -1.0453 -0.9898
15331SOL    HW247157   0.078   1.808   4.645 -0.4509 -1.4737 -1.3569
15332SOL     OW47158   7.163   2.733   8.569 -0.4978  0.4923  0.8987
15332SOL    HW147159   7.245   2.708   8.610 -0.8365  0.7767  1.7575
15332SOL    HW247160   7.137   2.655   8.520  0.5419  0.5802  0.1773
15333SOL     OW47161   5.847   5.419   3.446 -0.1542  0.1682 -0.3096
15333SOL    HW147162   5.852   5.434   3.352 -1.3116 -1.0148 -0.5852
15333SOL    HW247163   5.845   5.324   3.456  0.9036  0.2474  0.9879
15334SOL     OW47164   6.749   6.631   8.383 -0.1455 -0.1441  0.1373
15334SOL    HW147165   6.771   6.707   8.437 -0.3723 -0.1506  0.2435
15334SOL    HW247166   6.815   6.629   8.314  0.9608 -0.9117  1.1720
15335SOL     OW47167   1.696   8.567   7.646 -0.0893  0.1103  0.1187
15335SOL    HW147168   1.672   8.655   7.677 -1.7446 -0.0574 -0.5861
15335SOL    HW247169   1.772   8.582   7.590  0.7425  0.8525  1.3810
15336SOL     OW47170   6.550   1.153   5.908 -0.4652 -0.2924  0.1580
15336SOL    HW147171   6.568   1.245   5.890  2.7685 -0.9834 -0.8489
15336SOL    HW247172   6.580   1.140   5.998  3.4060 -1.1284 -1.0570
15337SOL     OW47173   3.435   7.227   8.127  0.1003 -0.2272  0.6682
15337SOL    HW147174   3.491   7.152   8.150 -2.2592 -2.0850  0.7000
15337SOL    HW247175   3.408   7.209   8.037  0.4059  1.2450  0.2534
15338SOL     OW47176   7.114   5.701   8.858  0.2421 -0.1654  0.3546
15338SOL    HW147177   7.100   5.610   8.881 -0.6092  0.0236  0.6309
15338SOL    HW247178   7.035   5.746   8.887  0.4094  0.5709 -0.2753
15339SOL     OW47179   1.806   6.659   6.123 -0.1362 -0.1816  0.2394
15339SOL    HW147180   1.862   6.582   6.117 -0.0387 -0.1738  1.0024
15339SOL    HW247181   1.718   6.626   6.104  0.1998 -0.0343 -1.8859
15340SOL     OW47182   3.235   2.261   5.730  0.5324  0.1848  0.3952
15340SOL    HW147183   3.155   2.297   5.692  0.9619 -0.0681 -0.7868
15340SOL    HW247184   3.275   2.334   5.777 -1.0543 -0.0067  2.1958
15341SOL     OW47185   0.803   7.219   0.904  0.0418  0.0032  0.0160
15341SOL    HW147186   0.884   7.229   0.854  0.1704 -1.9571 -0.2217
15341SOL    HW247187   0.792   7.304   0.947  0.5599  1.3801 -2.3480
15342SOL     OW47188   5.887   2.867   0.607  0.3255 -0.0103  0.3367
15342SOL    HW147189   5.854   2.839   0.522  1.2005 -0.6338  0.1833
15342SOL    HW247190   5.822   2.837   0.670  0.0649 -0.2465 -0.0447
15343SOL     OW47191   7.282   7.020   6.373 -0.8699 -0.2147 -0.2446
15343SOL    HW147192   7.294   7.018   6.278 -0.3825 -1.3249 -0.1697
15343SOL    HW247193   7.309   6.934   6.403  0.6973  0.6845  1.1076
15344SOL     OW47194   7.058   5.184   1.661 -0.1240  0.5511 -0.7350
15344SOL    HW147195   7.066   5.158   1.569  0.2813  1.3487 -0.9326
15344SOL    HW247196   7.127   5.248   1.673 -0.2552  0.5365  0.1039
15345SOL     OW47197   0.214   7.955   7.197 -0.0361  0.2905  0.1293
15345SOL    HW147198   0.261   7.886   7.244 -1.5728 -1.3365 -0.5905
15345SOL    HW247199   0.262   7.965   7.115 -0.2289 -0.4741 -0.0808
15346SOL     OW47200   8.589   2.399   0.888 -0.0022 -0.6020 -0.2600
15346SOL    HW147201   8.570   2.326   0.947 -1.4173 -1.4373 -1.6702
15346SOL    HW247202   8.669   2.438   0.924 -1.6583  0.0144  3.1753
15347SOL     OW47203   1.876   1.426   1.692 -0.0309 -0.0044  0.0967
15347SOL    HW147204   1.915   1.401   1.776  0.3854  0.7141  0.1165
15347SOL    HW247205   1.785   1.447   1.714 -1.0599 -3.4806 -0.2318
15348SOL     OW47206   8.413   3.679   8.253  0.2887  0.3058 -0.0821
15348SOL    HW147207   8.450   3.766   8.241 -1.5594  1.2926  0.9820
15348SOL    HW247208   8.427   3.635   8.168  1.3119  1.5741 -0.6073
15349SOL     OW47209   0.007   2.363   8.109 -0.3385 -0.1881 -0.5215
15349SOL    HW147210   0.006   2.268   8.119 -2.1188 -0.1410  0.3472
15349SOL    HW247211  -0.054   2.394   8.177 -0.8838  1.4598 -1.6976
15350SOL     OW47212   6.397   1.952   8.604 -0.1533 -1.2440 -0.4168
15350SOL    HW147213   6.406   1.943   8.510 -0.8170 -2.6467 -0.3627
15350SOL    HW247214   6.306   1.979   8.618  0.9882  3.5337 -0.3855
15351SOL     OW47215   7.646   7.717   7.037  0.1530  0.1890  0.3702
15351SOL    HW147216   7.680   7.629   7.019 -1.1865 -0.0806 -1.0570
15351SOL    HW247217   7.677   7.737   7.126  0.1753 -1.8702  0.8734
15352SOL     OW47218   6.835   4.537   3.570 -0.2536  0.4177 -0.5146
15352SOL    HW147219   6.809   4.601   3.504 -0.6638  0.8594  0.0751
15352SOL    HW247220   6.848   4.587   3.650  0.1700 -0.1275 -0.2274
15353SOL     OW47221   1.096   6.395   5.918  0.5303  0.1734  0.4148
15353SOL    HW147222   1.110   6.416   5.826 -1.4032 -0.6849 -0.1057
15353SOL    HW247223   1.164   6.331   5.939  0.3500 -0.4092 -0.7160
15354SOL     OW47224   5.507   0.158   0.965  0.2465 -0.2819 -0.3229
15354SOL    HW147225   5.514   0.241   0.919 -0.4128 -1.4067 -2.6193
15354SOL    HW247226   5.464   0.100   0.902 -0.4117 -2.0346  1.6448
15355SOL     OW47227   3.721   6.110   6.531  0.2518 -0.1769 -0.1896
15355SOL    HW147228   3.766   6.031   6.561  0.6373  0.2052  0.2379
15355SOL    HW247229   3.786   6.155   6.477 -0.2320 -0.5486 -1.1131
15356SOL     OW47230   6.000   3.054   2.950 -0.0947  0.1751  0.3795
15356SOL    HW147231   6.025   3.035   2.859 -1.2287  1.4444 -0.2327
15356SOL    HW247232   5.974   2.969   2.985 -0.8649 -0.1636 -0.9059
15357SOL     OW47233   6.441   5.831   0.889  0.4016 -0.6398 -0.0476
15357SOL    HW147234   6.414   5.756   0.837 -2.0036  0.4694 -0.4877
15357SOL    HW247235   6.370   5.845   0.951  0.7414  1.3108 -0.0174
15358SOL     OW47236   2.690   7.523   1.949  0.3237  0.5818 -0.5471
15358SOL    HW147237   2.600   7.512   1.920  0.0736  2.2156 -0.5042
15358SOL    HW247238   2.701   7.462   2.022 -0.6536  0.1880 -0.7215
15359SOL     OW47239   4.957   4.863   0.396 -0.1850 -0.1762  0.2428
15359SOL    HW147240   4.897   4.917   0.343 -0.1964  2.1491  2.4411
15359SOL    HW247241   4.908   4.782   0.410 -2.0478  0.8791  0.3178
15360SOL     OW47242   7.996   0.694   6.159  0.5206  0.0355  0.1043
15360SOL    HW147243   8.010   0.771   6.104 -0.0068 -0.9300 -1.4290
15360SOL    HW247244   8.051   0.626   6.121 -1.1917 -1.1517 -0.3526
15361SOL     OW47245   3.431   6.402   0.837 -0.0467 -0.1079 -0.2257
15361SOL    HW147246   3.336   6.419   0.843 -0.0355 -0.2988  0.5539
15361SOL    HW247247   3.470   6.490   0.840 -0.1958 -0.0303 -0.4972
15362SOL     OW47248   6.029   0.666   7.539  0.0569 -0.1542  0.0460
15362SOL    HW147249   6.071   0.732   7.593  0.0287 -0.3228  0.2783
15362SOL    HW247250   6.028   0.587   7.594 -0.1189 -0.2829 -0.1386
15363SOL     OW47251   0.106   4.173   2.350  0.2833  0.3575 -0.1578
15363SOL    HW147252   0.013   4.186   2.372  0.1779 -2.1376  1.2093
15363SOL    HW247253   0.153   4.205   2.427  0.4648  0.2270 -0.2158
15364SOL     OW47254   3.368   5.602   3.866 -0.3139 -0.1654 -0.5587
15364SOL    HW147255   3.364   5.595   3.962  0.7805 -0.2249 -0.4998
15364SOL    HW247256   3.346   5.693   3.848  0.5845  0.1543 -0.1453
15365SOL     OW47257   5.872   1.624   7.046 -0.0423 -0.3444  0.5052
15365SOL    HW147258   5.811   1.690   7.015 -1.4630 -0.9170  1.9535
15365SOL    HW247259   5.869   1.555   6.980  2.0882  1.2991 -1.4654
15366SOL     OW47260   5.096   8.293   2.013  0.2314 -0.0523 -0.2204
15366SOL    HW147261   5.044   8.308   2.093 -0.3901  1.9741 -0.9682
15366SOL    HW247262   5.153   8.369   2.007 -0.5624  0.4278 -2.3206
15367SOL     OW47263   5.715   5.716   2.389  0.4304  0.2433 -0.3917
15367SOL    HW147264   5.648   5.748   2.449 -0.0932 -1.5038  0.0054
15367SOL    HW247265   5.722   5.623   2.408  2.9828  0.3598 -0.4461
15368SOL     OW47266   8.490   2.072   0.979 -0.2729 -0.1587 -0.3577
15368SOL    HW147267   8.511   1.985   1.013 -2.1935 -0.7970 -0.6610
15368SOL    HW247268   8.504   2.065   0.884  1.5201  0.5117 -0.1801
15369SOL     OW47269   7.420   0.865   3.322 -0.3711  0.3799 -0.4326
15369SOL    HW147270   7.379   0.851   3.407 -1.3346  1.0254 -0.7824
15369SOL    HW247271   7.483   0.794   3.314 -0.6987 -0.0340  0.5573
15370SOL     OW47272   3.025   4.185   8.849  0.5105  0.1915  0.0222
15370SOL    HW147273   3.063   4.113   8.799  0.2590 -0.4768  0.7562
15370SOL    HW247274   3.093   4.252   8.850  1.1240 -0.4139  0.1165
15371SOL     OW47275   2.660   1.018   1.086 -0.7590 -0.2325 -0.3781
15371SOL    HW147276   2.739   1.008   1.139 -1.0634 -0.0806  0.1090
15371SOL    HW247277   2.590   0.979   1.139 -1.4232  1.6348  0.2110
15372SOL     OW47278   1.949   0.712   3.482 -0.0204  0.0758  0.1335
15372SOL    HW147279   2.003   0.638   3.454  0.4288  0.5310 -0.2381
15372SOL    HW247280   1.992   0.788   3.443 -0.8585  0.4605 -0.0549
15373SOL     OW47281   1.870   0.859   4.731 -0.5160  0.0217  0.2765
15373SOL    HW147282   1.815   0.936   4.712 -1.4021 -0.7146 -0.2405
15373SOL    HW247283   1.865   0.849   4.826 -3.3026 -1.4200  0.0918
15374SOL     OW47284   6.081   0.196   3.279 -0.3655 -0.3186  0.1365
15374SOL    HW147285   6.116   0.113   3.247  1.4982  0.8664 -1.1383
15374SOL    HW247286   5.993   0.201   3.240 -0.8364 -1.9984  0.8857
15375SOL     OW47287   3.727   5.296   5.448 -0.1449 -0.7410 -0.3818
15375SOL    HW147288   3.765   5.217   5.487  1.7928  1.4617  2.5614
15375SOL    HW247289   3.795   5.328   5.389  0.9430  0.9024  1.6515
15376SOL     OW47290   7.637   3.751   8.094 -0.1120 -0.3317  0.1323
15376SOL    HW147291   7.662   3.787   8.009 -1.3519 -0.3931 -0.2684
15376SOL    HW247292   7.629   3.657   8.079 -1.1009 -0.2542  0.1099
15377SOL     OW47293   8.763   3.184   8.292 -0.4347  0.4534 -0.0866
15377SOL    HW147294   8.786   3.259   8.237 -0.1432 -0.1046 -0.7552
15377SOL    HW247295   8.671   3.167   8.272 -0.4894  0.6026  0.0354
15378SOL     OW47296   6.752   6.287   4.061  0.1331  0.4569 -0.0674
15378SOL    HW147297   6.794   6.284   3.975  1.1693 -0.1142  0.4406
15378SOL    HW247298   6.700   6.206   4.064 -1.7023  1.5339 -1.0043
15379SOL     OW47299   5.723   1.517   0.951  0.0933 -0.4850 -0.1190
15379SOL    HW147300   5.647   1.475   0.991 -1.5456  0.4483 -2.0991
15379SOL    HW247301   5.798   1.469   0.986 -1.4156 -1.8851  1.3620
15380SOL     OW47302   4.277   5.948   3.801  0.0900  0.1310 -0.5986
15380SOL    HW147303   4.370   5.960   3.783 -0.0981 -0.3482 -1.9885
15380SOL    HW247304   4.252   6.028   3.849  1.2638  0.1225  0.0803
15381SOL     OW47305   8.281   3.210   8.684  0.3432 -0.9004 -0.5014
15381SOL    HW147306   8.310   3.186   8.596  1.5267  1.4191 -0.8347
15381SOL    HW247307   8.285   3.306   8.685 -2.1127 -0.7241  1.2748
15382SOL     OW47308   4.175   0.853   0.135 -0.0054  0.4433 -0.5328
15382SOL    HW147309   4.192   0.766   0.099  1.3206  0.3460  0.2658
15382SOL    HW247310   4.203   0.914   0.066  3.0693  0.2716  0.4135
15383SOL     OW47311   0.428   5.269   2.642  0.3652  0.2817 -0.1800
15383SOL    HW147312   0.431   5.198   2.578 -1.7621 -0.3449  0.3339
15383SOL    HW247313   0.402   5.346   2.590  0.4761  0.1904 -0.3725
15384SOL     OW47314   0.270   8.448   5.196 -0.0781 -0.5272 -0.3501
15384SOL    HW147315   0.252   8.537   5.228 -1.7706 -1.3146  1.0653
15384SOL    HW247316   0.338   8.415   5.255 -0.7969 -0.8077  0.3368
15385SOL     OW47317   8.274   4.152   6.669 -0.6443 -0.3838 -0.2341
15385SOL    HW147318   8.325   4.176   6.592 -0.6467  0.2559 -0.0403
15385SOL    HW247319   8.184   4.145   6.636 -1.0006  1.8767  0.0570
15386SOL     OW47320   8.237   5.189   5.761 -0.0674 -0.2485 -0.0707
15386SOL    HW147321   8.246   5.100   5.796  0.2048 -0.3851 -0.4825
15386SOL    HW247322   8.315   5.202   5.707  1.5866  1.3841  2.4553
15387SOL     OW47323   5.904   5.567   2.938 -0.6677  0.3720  0.3555
15387SOL    HW147324   5.968   5.533   2.876 -1.5311 -0.4751 -0.1047
15387SOL    HW247325   5.954   5.626   2.995  0.2379  0.7562 -0.8050
15388SOL     OW47326   4.815   0.735   1.617  0.2041 -0.2316 -0.2032
15388SOL    HW147327   4.820   0.654   1.668  1.9486  0.0298  0.0862
15388SOL    HW247328   4.892   0.785   1.643 -0.4444  1.2061 -0.9358
15389SOL     OW47329   1.852   1.685   0.902  0.1581  0.2943 -0.1632
15389SOL    HW147330   1.825   1.610   0.848 -0.2449 -1.3335  2.1475
15389SOL    HW247331   1.833   1.761   0.847 -1.5083 -1.1797 -1.7989
15390SOL     OW47332   0.915   2.420   0.104 -0.0172  0.1105  0.8572
15390SOL    HW147333   0.983   2.478   0.070 -1.4574  2.9347  2.4752
15390SOL    HW247334   0.857   2.405   0.029 -0.1542  1.6355  0.6303
15391SOL     OW47335   2.705   3.824   2.162 -0.2921  0.2075 -0.3624
15391SOL    HW147336   2.764   3.890   2.124 -0.9623 -0.0852 -2.0093
15391SOL    HW247337   2.708   3.751   2.100 -3.4531  0.7451 -1.3306
15392SOL     OW47338   3.674   1.325   2.188 -0.2714  0.3077  0.0769
15392SOL    HW147339   3.709   1.249   2.142 -1.2045  0.0143 -0.1566
15392SOL    HW247340   3.684   1.397   2.126 -0.3876  0.1571 -0.1167
15393SOL     OW47341   3.643   1.245   6.172 -0.1584 -0.2671 -1.0853
15393SOL    HW147342   3.725   1.294   6.170  0.5541 -1.3574 -0.1748
15393SOL    HW247343   3.657   1.172   6.111 -0.1256 -0.9250 -0.3076
15394SOL     OW47344   4.779   5.077   6.879 -0.1937 -0.0525  0.5597
15394SOL    HW147345   4.847   5.088   6.945  1.3121 -1.8478 -0.5869
15394SOL    HW247346   4.715   5.019   6.921  0.9713 -1.5461  0.3506
15395SOL     OW47347   0.396   0.481   7.344  0.0178 -0.2353 -0.3245
15395SOL    HW147348   0.329   0.489   7.412 -2.5575 -2.5689 -2.3668
15395SOL    HW247349   0.392   0.564   7.296 -0.1516  0.3007  0.5806
15396SOL     OW47350   4.429   0.724   3.419 -0.0219 -0.1228  0.0738
15396SOL    HW147351   4.411   0.667   3.344 -0.3870 -1.5499  1.1962
15396SOL    HW247352   4.348   0.773   3.432  0.7707  1.8037 -1.7995
15397SOL     OW47353   2.283   1.444   1.829 -0.7920  0.0754 -0.2239
15397SOL    HW147354   2.337   1.486   1.761 -0.4515  1.9211  1.1039
15397SOL    HW247355   2.216   1.509   1.850 -1.0448 -0.5596  1.0261
15398SOL     OW47356   5.114   6.181   5.072 -0.1277  1.0131  0.2085
15398SOL    HW147357   5.032   6.140   5.046 -1.3614  2.3729  1.7123
15398SOL    HW247358   5.112   6.180   5.168  1.5016  1.3086  0.2752
15399SOL     OW47359   2.667   4.894   0.861 -0.8667  0.2664  0.2051
15399SOL    HW147360   2.683   4.980   0.824 -0.4693 -1.0225 -2.9087
15399SOL    HW247361   2.749   4.847   0.848 -1.4642 -0.9631  0.7158
15400SOL     OW47362   7.656   0.062   2.689  0.5549  0.2513 -0.2520
15400SOL    HW147363   7.654   0.091   2.780 -2.3807  1.0816 -0.4882
15400SOL    HW247364   7.731   0.108   2.651  1.9275 -0.2194  1.7294
15401SOL     OW47365   4.404   3.073   6.819  0.2097  0.0471  0.4862
15401SOL    HW147366   4.425   3.126   6.896  0.1666 -0.0230  0.5462
15401SOL    HW247367   4.381   3.137   6.751 -0.2332  0.0945  0.6764
15402SOL     OW47368   8.782   5.813   7.950 -0.2874  0.4876 -0.4805
15402SOL    HW147369   8.699   5.800   7.906 -0.2359 -0.1184 -0.3968
15402SOL    HW247370   8.780   5.905   7.978 -0.3171  0.8885 -1.7501
15403SOL     OW47371   1.323   2.534   2.418  0.6755  0.9109 -0.4102
15403SOL    HW147372   1.405   2.502   2.379 -0.3244  0.5276 -2.3179
15403SOL    HW247373   1.329   2.508   2.510  1.0112 -2.7583 -1.2927
15404SOL     OW47374   4.411   0.138   2.821  0.0901  0.0344  0.4632
15404SOL    HW147375   4.457   0.067   2.778  1.3802  0.6551  0.7681
15404SOL    HW247376   4.444   0.137   2.911 -0.9098  0.1505  0.8468
15405SOL     OW47377   3.011   0.712   8.355  0.0427 -0.2679  0.2910
15405SOL    HW147378   3.098   0.688   8.325  1.1454 -0.2244  3.1188
15405SOL    HW247379   3.024   0.793   8.404 -1.6672 -0.0473  0.4482
15406SOL     OW47380   2.065   4.630   7.060 -0.0087 -0.1460 -0.4562
15406SOL    HW147381   2.060   4.723   7.080  1.3266  0.1743 -1.4908
15406SOL    HW247382   2.019   4.588   7.132 -2.7856  1.4185 -1.1670
15407SOL     OW47383   2.412   2.199   2.114  0.2890 -0.0955  0.0321
15407SOL    HW147384   2.355   2.151   2.175  0.1617 -0.0060 -0.0179
15407SOL    HW247385   2.352   2.240   2.052  0.4133 -0.0862 -0.0817
15408SOL     OW47386   0.376   7.309   2.621 -0.1656 -0.1519  0.1828
15408SOL    HW147387   0.317   7.384   2.616  0.3445  0.3467  1.3223
15408SOL    HW247388   0.360   7.261   2.539 -1.8089  0.2002  0.2569
15409SOL     OW47389   0.233   6.541   1.425  0.2051  0.1711  0.0052
15409SOL    HW147390   0.199   6.460   1.464 -1.4352  0.3979 -0.8677
15409SOL    HW247391   0.277   6.585   1.497 -0.4359 -0.6716  0.9517
15410SOL     OW47392   3.099   2.327   7.012 -0.0857 -0.2270  0.0887
15410SOL    HW147393   3.173   2.348   6.955 -0.4436 -0.1996 -0.3690
15410SOL    HW247394   3.066   2.244   6.979  0.3895 -0.7789  0.9545
15411SOL     OW47395   5.805   1.582   2.522 -0.2278 -0.5987 -0.4710
15411SOL    HW147396   5.822   1.566   2.615 -2.1020 -0.6057 -0.0893
15411SOL    HW247397   5.872   1.531   2.476  1.0386 -0.2096  0.8522
15412SOL     OW47398   8.360   6.390   5.551  0.1701  0.6071  0.7196
15412SOL    HW147399   8.373   6.306   5.595  3.4752 -0.7582 -2.3774
15412SOL    HW247400   8.278   6.378   5.501  0.9359 -1.1533 -0.2208
15413SOL     OW47401   7.256   7.813   7.954 -0.4125  0.4153  0.1963
15413SOL    HW147402   7.254   7.865   7.874 -1.2682  1.3363  0.7899
15413SOL    HW247403   7.236   7.876   8.024  0.4385 -0.3422  1.1496
15414SOL     OW47404   5.952   4.802   1.643  0.1397 -0.2949  0.4462
15414SOL    HW147405   5.957   4.706   1.645  1.1255 -0.2594  0.3375
15414SOL    HW247406   6.010   4.827   1.571 -0.2188  0.3821  0.3869
15415SOL     OW47407   7.688   6.090   7.224  0.1130  0.3963  0.3680
15415SOL    HW147408   7.624   6.050   7.164  1.0810 -0.6182 -0.0257
15415SOL    HW247409   7.661   6.182   7.230 -2.0378 -0.2169  1.0825
15416SOL     OW47410   0.954   7.931   5.526  0.0665 -0.3234 -0.5672
15416SOL    HW147411   0.987   8.007   5.478  0.0696 -0.0448 -0.1264
15416SOL    HW247412   0.894   7.968   5.591  1.7621 -0.4737  1.1479
15417SOL     OW47413   1.780   8.223   8.443  0.3737 -0.1089  0.3295
15417SOL    HW147414   1.841   8.162   8.401  1.6646  2.0733 -1.2090
15417SOL    HW247415   1.717   8.244   8.374  1.0923  1.6936  0.1681
15418SOL     OW47416   2.322   0.234   3.305  0.3825  0.6407 -0.1774
15418SOL    HW147417   2.372   0.208   3.228 -0.8363 -0.0692 -0.7567
15418SOL    HW247418   2.231   0.242   3.274  0.1634  2.2646  0.7562
15419SOL     OW47419   0.362   1.204   7.416  0.0898 -0.1818 -0.1726
15419SOL    HW147420   0.440   1.229   7.466 -0.4640 -1.0706  1.2013
15419SOL    HW247421   0.331   1.285   7.376 -0.4123  0.9519  2.3478
15420SOL     OW47422   0.940   8.640   5.004  0.2466  0.4954  0.0839
15420SOL    HW147423   0.943   8.555   4.960  0.2879  0.2917  0.4724
15420SOL    HW247424   0.932   8.704   4.933 -1.4579  0.0722 -0.1523
15421SOL     OW47425   6.732   0.751   8.137 -0.0029 -0.6559  0.4049
15421SOL    HW147426   6.783   0.675   8.165  0.8914  0.7459  2.9336
15421SOL    HW247427   6.732   0.748   8.042  1.8024 -2.6426  0.4244
15422SOL     OW47428   1.801   3.752   0.661 -0.0616  0.6240  0.0203
15422SOL    HW147429   1.796   3.842   0.631 -0.1699  0.3442 -0.8265
15422SOL    HW247430   1.774   3.699   0.585 -0.4205 -0.0988  0.6287
15423SOL     OW47431   7.907   1.859   2.663 -0.2668 -0.5555  0.4005
15423SOL    HW147432   7.978   1.920   2.643  0.2638 -1.2091  0.2782
15423SOL    HW247433   7.946   1.772   2.653 -0.9504 -0.9172  0.8166
15424SOL     OW47434   0.404   1.723   6.374  0.1888 -0.1090  0.5557
15424SOL    HW147435   0.338   1.655   6.385  1.5695 -1.6186  0.0033
15424SOL    HW247436   0.478   1.693   6.426  0.9596  0.7965  0.0114
15425SOL     OW47437   6.079   5.610   1.916 -0.2371 -0.0627  0.1112
15425SOL    HW147438   5.993   5.647   1.892 -0.1538  0.6706  0.8953
15425SOL    HW247439   6.127   5.606   1.833 -1.3846 -1.5130 -0.5387
15426SOL     OW47440   5.881   4.676   6.282  0.2175 -0.0280 -0.0780
15426SOL    HW147441   5.962   4.651   6.238  0.2611  1.0371 -0.6619
15426SOL    HW247442   5.889   4.771   6.293 -1.0355  0.1210 -0.3416
15427SOL     OW47443   2.307   0.863   0.256 -0.1244  0.0378  0.0503
15427SOL    HW147444   2.298   0.803   0.330  0.4963  0.2614  0.3178
15427SOL    HW247445   2.398   0.851   0.227 -0.2309  0.2799 -0.3925
15428SOL     OW47446   2.792   1.487   8.386  0.3005 -0.7102  0.4574
15428SOL    HW147447   2.846   1.544   8.331  1.2547 -0.6048  1.4557
15428SOL    HW247448   2.724   1.454   8.328 -1.3921  2.8345  0.1814
15429SOL     OW47449   0.193   3.135   1.352 -0.2468  0.3861 -0.2081
15429SOL    HW147450   0.213   3.043   1.368 -0.8672  0.4238  0.9152
15429SOL    HW247451   0.100   3.144   1.374 -0.1430  1.3239 -0.0923
15430SOL     OW47452   0.824   7.932   1.857 -0.0763  0.3955 -0.1041
15430SOL    HW147453   0.811   7.861   1.919 -1.9828 -0.3760 -1.2894
15430SOL    HW247454   0.918   7.935   1.842  0.0500 -1.8749  0.0108
15431SOL     OW47455   7.236   4.165   2.714  0.2371  0.2883 -0.1152
15431SOL    HW147456   7.152   4.125   2.737  0.1762  0.6364  0.2796
15431SOL    HW247457   7.301   4.105   2.751  0.1388  1.4774  2.1746
15432SOL     OW47458   0.962   1.773   5.871 -0.3183 -0.0974  0.8200
15432SOL    HW147459   1.033   1.786   5.934  0.9651  1.3953 -0.8212
15432SOL    HW247460   0.900   1.844   5.890 -0.0240  0.2395  0.5347
15433SOL     OW47461   4.791   7.355   7.927 -0.2504  0.3979 -0.0678
15433SOL    HW147462   4.745   7.346   8.010  0.1875 -0.1662  0.1103
15433SOL    HW247463   4.825   7.445   7.928 -1.1809  0.7649 -0.1221
15434SOL     OW47464   5.852   6.131   6.961 -0.0725  0.6543 -0.0474
15434SOL    HW147465   5.909   6.159   6.889 -0.1987  4.6779  1.1949
15434SOL    HW247466   5.769   6.107   6.919  0.6482  0.4488 -1.3911
15435SOL     OW47467   3.993   8.461   2.161 -0.7435 -0.0767  0.5752
15435SOL    HW147468   4.061   8.400   2.135  0.1116  0.2824  1.8789
15435SOL    HW247469   3.960   8.427   2.244 -1.5668  0.2060  0.3705
15436SOL     OW47470   2.515   1.288   4.628  0.4174 -0.0170 -0.1005
15436SOL    HW147471   2.521   1.351   4.556 -0.3264 -1.7176 -1.7293
15436SOL    HW247472   2.605   1.273   4.654  0.6532  1.1576 -0.1790
15437SOL     OW47473   4.825   4.763   4.015  0.0829 -0.5936 -0.0141
15437SOL    HW147474   4.844   4.849   4.052  1.3781 -1.7570  2.2669
15437SOL    HW247475   4.733   4.748   4.035  0.1254 -0.1546  0.5386
15438SOL     OW47476   5.677   5.749   6.237 -0.1098 -0.3352 -0.1252
15438SOL    HW147477   5.669   5.660   6.272 -0.0066  0.2320  1.4385
15438SOL    HW247478   5.609   5.755   6.171 -1.8253 -0.8114  1.5049
15439SOL     OW47479   3.412   2.362   5.465 -0.4517 -0.3878  0.5319
15439SOL    HW147480   3.406   2.428   5.534 -0.2097 -0.3040  0.4728
15439SOL    HW247481   3.422   2.279   5.512  1.2841 -0.1759  0.5945
15440SOL     OW47482   3.109   6.018   0.503  0.1553 -0.0743  0.0107
15440SOL    HW147483   3.040   6.052   0.446 -1.7655 -1.5787  1.2741
15440SOL    HW247484   3.178   5.989   0.444 -0.9390  0.1397 -1.4226
15441SOL     OW47485   0.270   3.900   2.759 -0.4085 -0.1831 -0.3137
15441SOL    HW147486   0.258   3.932   2.849  2.8525 -0.3369  0.3092
15441SOL    HW247487   0.266   3.805   2.768 -4.5536 -0.2937 -1.2405
15442SOL     OW47488   0.118   3.886   3.679  0.2525 -0.3607  0.0597
15442SOL    HW147489   0.057   3.911   3.610  1.3006  0.8094 -0.4810
15442SOL    HW247490   0.097   3.943   3.753  0.4515 -0.2035 -0.0037
15443SOL     OW47491   1.864   6.755   5.162  0.1871  0.3385  0.0607
15443SOL    HW147492   1.818   6.672   5.170 -0.4490  0.4239 -2.0447
15443SOL    HW247493   1.819   6.800   5.090  0.7764  2.3275  0.8671
15444SOL     OW47494   4.061   0.037   0.693 -0.3248  0.0647  0.7616
15444SOL    HW147495   4.040   0.120   0.736 -0.5740  0.6044 -0.3559
15444SOL    HW247496   4.147   0.052   0.652 -1.0083  0.2780 -0.6470
15445SOL     OW47497   5.161   1.544   1.460  0.2537 -0.6808 -0.3156
15445SOL    HW147498   5.070   1.516   1.474  0.1888 -0.9363 -1.1529
15445SOL    HW247499   5.193   1.567   1.547  0.2619 -3.2295  0.4377
15446SOL     OW47500   3.108   3.880   7.224 -0.4689 -0.7424  0.4673
15446SOL    HW147501   3.144   3.815   7.284  0.3465 -0.5131  0.2356
15446SOL    HW247502   3.081   3.952   7.281 -0.0463 -0.6826  0.5947
15447SOL     OW47503   4.973   5.032   7.835  0.2475  0.3735 -0.0092
15447SOL    HW147504   5.047   5.033   7.774 -0.2436  0.0992 -0.6251
15447SOL    HW247505   4.906   4.979   7.791 -0.0353 -0.0196  0.8764
15448SOL     OW47506   4.997   3.096   5.614 -0.0622  0.8388  0.7204
15448SOL    HW147507   4.931   3.046   5.664 -2.0674  1.5062 -1.1432
15448SOL    HW247508   4.959   3.183   5.603  1.6075  1.5771  0.4396
15449SOL     OW47509   6.561   2.230   2.512 -0.4265 -0.5855  0.4031
15449SOL    HW147510   6.517   2.310   2.539 -0.0659 -0.0871 -0.4101
15449SOL    HW247511   6.557   2.232   2.416 -0.2561 -1.4514  0.3678
15450SOL     OW47512   1.000   6.530   0.281 -0.5298 -0.4028 -0.2589
15450SOL    HW147513   1.023   6.487   0.198 -0.4861 -1.7101  0.4099
15450SOL    HW247514   0.969   6.459   0.337 -1.6605  0.6227  0.4764
15451SOL     OW47515   5.205   7.599   6.227  0.8112 -0.2382  0.0506
15451SOL    HW147516   5.134   7.654   6.260  2.2031  0.1443  2.6191
15451SOL    HW247517   5.161   7.535   6.171 -1.4398  0.4887  0.8655
15452SOL     OW47518   4.235   2.898   2.197 -0.0993  0.0793 -0.1032
15452SOL    HW147519   4.211   2.977   2.246  2.2106 -0.0603  1.4558
15452SOL    HW247520   4.185   2.828   2.239 -0.6418  0.4293 -0.1544
15453SOL     OW47521   6.652   5.212   3.321 -0.0322 -0.3041  0.1447
15453SOL    HW147522   6.728   5.271   3.322  0.2802 -0.5622 -2.1488
15453SOL    HW247523   6.669   5.150   3.392  1.9557 -0.3782 -0.3165
15454SOL     OW47524   4.052   1.409   0.956  0.0605  0.2883  0.2853
15454SOL    HW147525   4.065   1.402   1.050  0.4056  0.2285  0.2355
15454SOL    HW247526   4.023   1.322   0.929  0.4977  0.1454  0.2580
15455SOL     OW47527   4.854   6.840   2.613 -0.2578  0.3633  0.0054
15455SOL    HW147528   4.824   6.855   2.702 -2.1270 -1.4961 -0.2245
15455SOL    HW247529   4.911   6.763   2.620  0.9573  1.2059 -0.2164
15456SOL     OW47530   5.435   8.693   5.553  0.4421  0.0807  1.0239
15456SOL    HW147531   5.452   8.729   5.640  2.0206  1.7013  0.1239
15456SOL    HW247532   5.521   8.694   5.510 -0.4635  0.3164 -0.8841
15457SOL     OW47533   3.771   8.257   3.571 -0.5916 -0.0671  0.3284
15457SOL    HW147534   3.833   8.186   3.560 -0.9988 -0.2915 -0.6546
15457SOL    HW247535   3.778   8.282   3.663  0.7900 -0.2252  0.2873
15458SOL     OW47536   0.267   3.592   5.439 -0.1615  0.3672  0.2915
15458SOL    HW147537   0.236   3.665   5.494 -1.1265 -0.2790  0.6482
15458SOL    HW247538   0.355   3.573   5.471 -0.4717  0.4127  1.2234
15459SOL     OW47539   2.542   0.647   0.460 -0.4224  0.1311 -0.4481
15459SOL    HW147540   2.628   0.631   0.499 -1.0493  0.1707  1.0443
15459SOL    HW247541   2.555   0.722   0.402  0.8491 -0.8012 -1.4335
15460SOL     OW47542   2.153   4.208   8.364 -0.3865  0.1352  0.5822
15460SOL    HW147543   2.221   4.269   8.334  0.1616 -0.9169 -0.3824
15460SOL    HW247544   2.126   4.161   8.285 -0.4441 -1.2221  1.3802
15461SOL     OW47545   4.736   5.304   0.617 -0.1801  0.2215 -0.2871
15461SOL    HW147546   4.686   5.336   0.542  0.6305 -0.2901 -1.0544
15461SOL    HW247547   4.671   5.262   0.673 -0.8714  1.0649 -0.4298
15462SOL     OW47548   5.827   8.556   1.409 -0.0568  0.4093 -0.2025
15462SOL    HW147549   5.785   8.496   1.346  0.3486  0.6465 -0.7110
15462SOL    HW247550   5.869   8.622   1.354 -2.2411  2.3969  0.3684
15463SOL     OW47551   4.704   0.894   2.053  0.0024 -0.0695 -1.1002
15463SOL    HW147552   4.679   0.873   1.963 -0.9345  1.5433 -1.2552
15463SOL    HW247553   4.791   0.855   2.063  0.4248  0.2769 -2.9270
15464SOL     OW47554   0.721   4.170   2.941 -0.2439 -0.1891  0.3974
15464SOL    HW147555   0.672   4.250   2.962 -0.2996 -0.4505  1.3050
15464SOL    HW247556   0.704   4.155   2.848  1.8188  2.2910 -0.5176
15465SOL     OW47557   4.485   8.219   1.706 -0.8543  0.2593 -0.0601
15465SOL    HW147558   4.574   8.204   1.736 -0.7765  1.3506  0.2675
15465SOL    HW247559   4.447   8.278   1.771 -1.0295  1.7862 -1.4842
15466SOL     OW47560   3.126   0.054   5.197 -0.6369  0.5827 -0.4018
15466SOL    HW147561   3.147   0.090   5.111  0.1708 -0.6732 -0.7488
15466SOL    HW247562   3.037   0.020   5.187  0.6598 -2.9200 -1.9815
15467SOL     OW47563   1.780   7.415   6.991  0.4915  0.3959 -0.5476
15467SOL    HW147564   1.801   7.337   6.941 -0.7671 -1.0237  1.0471
15467SOL    HW247565   1.866   7.453   7.012  1.1001 -0.2235 -1.7940
15468SOL     OW47566   5.284   4.113   7.763  0.0204  0.2347 -0.3910
15468SOL    HW147567   5.216   4.173   7.794 -1.6085 -2.3705  1.5674
15468SOL    HW247568   5.256   4.089   7.675 -0.8862  0.2263 -0.1122
15469SOL     OW47569   3.866   3.478   6.169 -0.2040  0.2376 -0.1923
15469SOL    HW147570   3.937   3.442   6.115 -0.2335  3.3219 -2.5541
15469SOL    HW247571   3.857   3.415   6.241  1.7732 -2.6823 -2.2461
15470SOL     OW47572   4.567   6.068   1.011 -0.3982 -0.0078  0.4006
15470SOL    HW147573   4.628   6.028   0.949  0.7610  0.2472  1.3412
15470SOL    HW247574   4.608   6.055   1.097 -1.6844  0.1541  1.0646
15471SOL     OW47575   1.941   5.207   7.435  0.1099  0.0210  0.6857
15471SOL    HW147576   1.971   5.274   7.496  1.9649  0.6909 -0.8333
15471SOL    HW247577   2.010   5.204   7.368 -1.1483 -1.6501 -0.6185
15472SOL     OW47578   8.542   0.102   8.205 -0.5300  0.2804 -0.0591
15472SOL    HW147579   8.496   0.021   8.185 -0.2694  0.1415 -0.0976
15472SOL    HW247580   8.490   0.143   8.274 -1.2093  0.5636 -0.7246
15473SOL     OW47581   0.948   5.198   4.881  0.5485  0.7438  0.0427
15473SOL    HW147582   0.985   5.194   4.793  0.9950 -1.1943  0.2789
15473SOL    HW247583   0.860   5.162   4.871 -0.1059  2.2489  0.0916
15474SOL     OW47584   4.168   2.780   3.629  0.1940  0.0852  0.7821
15474SOL    HW147585   4.160   2.871   3.657  0.3797  0.0372  0.9838
15474SOL    HW247586   4.260   2.769   3.604  0.2262 -0.1145  0.9858
15475SOL     OW47587   8.098   3.216   1.850 -0.2298 -0.5648 -0.3768
15475SOL    HW147588   8.095   3.222   1.945  1.6191  0.5022 -0.3327
15475SOL    HW247589   8.019   3.261   1.820 -1.7841 -2.4858  0.6332
15476SOL     OW47590   1.393   2.928   5.057  0.6324  0.3280  0.0240
15476SOL    HW147591   1.344   2.959   4.981  1.3965  3.2531  0.5957
15476SOL    HW247592   1.330   2.933   5.130  0.4739 -0.5287 -0.0434
15477SOL     OW47593   0.263   4.704   5.361  0.0962 -0.3693 -0.1384
15477SOL    HW147594   0.296   4.623   5.322  0.0385 -0.9837  1.0353
15477SOL    HW247595   0.190   4.675   5.416  1.5245  0.1550  2.1303
15478SOL     OW47596   4.285   8.017   4.277 -0.2194 -0.4691  0.2548
15478SOL    HW147597   4.350   7.997   4.345  0.8808  2.2961  0.1599
15478SOL    HW247598   4.203   7.984   4.312  0.4992 -0.0691  2.4735
15479SOL     OW47599   2.383   6.079   6.645  0.1177 -0.0286  0.5029
15479SOL    HW147600   2.398   5.993   6.608  0.4170 -0.3815  1.4088
15479SOL    HW247601   2.376   6.064   6.740 -3.9472  0.3423  0.4543
15480SOL     OW47602   5.291   5.105   4.419 -0.0875 -0.0950 -0.0236
15480SOL    HW147603   5.350   5.118   4.345 -0.7682 -0.8188 -0.7128
15480SOL    HW247604   5.286   5.010   4.429 -1.5265 -0.0802 -0.3246
15481SOL     OW47605   8.606   3.998   2.497  0.7255  0.2002 -0.0217
15481SOL    HW147606   8.623   4.084   2.460 -0.8158  1.3722  1.7711
15481SOL    HW247607   8.635   4.005   2.588 -0.1620 -0.8965  0.3749
15482SOL     OW47608   5.129   4.761   5.609 -0.1991 -0.4254 -0.4043
15482SOL    HW147609   5.117   4.816   5.531 -1.7852 -1.0753 -0.6395
15482SOL    HW247610   5.068   4.689   5.598 -0.1683 -0.7518  1.2698
15483SOL     OW47611   5.519   3.831   1.579 -0.2232 -0.1390  0.9206
15483SOL    HW147612   5.580   3.888   1.626 -0.6254  0.9006  0.2390
15483SOL    HW247613   5.456   3.892   1.540 -0.0241 -0.9674 -0.7707
15484SOL     OW47614   5.470   5.882   7.031  0.5929  0.6692 -0.0825
15484SOL    HW147615   5.548   5.882   6.975  1.0562  0.1026  0.5544
15484SOL    HW247616   5.450   5.789   7.044  0.2192  0.8039  0.3213
15485SOL     OW47617   4.544   5.250   7.700 -0.3332 -0.0698 -0.6368
15485SOL    HW147618   4.563   5.276   7.610  1.0794 -1.3161 -0.7448
15485SOL    HW247619   4.562   5.156   7.702  1.0939  0.1717  1.2868
15486SOL     OW47620   4.813   5.621   4.976 -0.0402  0.5616 -0.8857
15486SOL    HW147621   4.853   5.671   4.906  1.4057 -0.2194 -0.6420
15486SOL    HW247622   4.790   5.537   4.936 -0.6559  0.6806 -0.8013
15487SOL     OW47623   1.286   6.011   2.109  0.0160  0.0200 -0.5560
15487SOL    HW147624   1.221   6.055   2.054  2.2026  0.8720 -2.6439
15487SOL    HW247625   1.281   6.055   2.193 -1.6117  0.5064 -0.8738
15488SOL     OW47626   0.083   5.583   7.975 -0.4743  0.2477  0.5457
15488SOL    HW147627   0.016   5.521   8.005 -0.8544  0.4404  0.1053
15488SOL    HW247628   0.038   5.667   7.969 -0.2182  0.3560  0.1286
15489SOL     OW47629   1.856   0.969   2.887 -0.1840  0.0170 -0.4767
15489SOL    HW147630   1.911   1.013   2.952  0.5541  0.9677 -1.7031
15489SOL    HW247631   1.819   0.894   2.934  1.8069 -0.4034  0.5326
15490SOL     OW47632   8.454   7.217   1.016  0.0058  0.2890  0.1848
15490SOL    HW147633   8.527   7.273   1.042 -1.4277  2.4219 -0.1249
15490SOL    HW247634   8.496   7.140   0.978  2.1027  1.6304 -0.4169
15491SOL     OW47635   0.172   6.977   4.577  0.4808 -0.1096  0.1134
15491SOL    HW147636   0.255   7.017   4.551  0.8955 -1.1303 -0.1828
15491SOL    HW247637   0.173   6.890   4.537 -0.1847 -0.6100  1.1254
15492SOL     OW47638   6.388   4.774   1.161  0.0674  0.2850  0.1319
15492SOL    HW147639   6.376   4.745   1.251  1.3003  2.2941  0.9923
15492SOL    HW247640   6.317   4.837   1.146  0.8169  1.1876  0.2836
15493SOL     OW47641   0.398   1.170   2.787 -0.0612  0.1707  0.5700
15493SOL    HW147642   0.483   1.127   2.787 -0.1637 -0.1299 -1.3712
15493SOL    HW247643   0.419   1.263   2.799  0.6042  0.1592 -0.3678
15494SOL     OW47644   0.205   3.117   2.467  0.0120 -0.0165  0.1560
15494SOL    HW147645   0.260   3.038   2.467 -0.5352 -0.4097 -0.4131
15494SOL    HW247646   0.120   3.086   2.497  0.1761  0.6584  1.3770
15495SOL     OW47647   0.971   1.453   6.307  0.3864  0.4263 -0.2743
15495SOL    HW147648   1.063   1.465   6.330 -0.0109  0.3765  1.5244
15495SOL    HW247649   0.956   1.359   6.320 -0.2466  0.6690  0.8998
15496SOL     OW47650   4.327   2.348   0.344  0.4864 -0.5018  0.1516
15496SOL    HW147651   4.416   2.382   0.339 -0.1237  1.3913  1.2929
15496SOL    HW247652   4.331   2.277   0.408  1.1772 -0.5033  0.1120
15497SOL     OW47653   4.708   0.491   3.981  0.9600  0.2515 -0.1102
15497SOL    HW147654   4.719   0.583   4.004  0.0594  0.1276  0.8771
15497SOL    HW247655   4.758   0.443   4.047 -3.2383 -0.2127  3.1443
15498SOL     OW47656   7.006   4.392   4.740 -0.1448 -0.4585 -0.0515
15498SOL    HW147657   6.941   4.401   4.670 -0.0002 -0.3257 -0.1713
15498SOL    HW247658   7.081   4.443   4.709  0.1690 -0.9456 -0.1024
15499SOL     OW47659   3.054   4.268   5.975 -0.5611 -0.0168 -0.5694
15499SOL    HW147660   3.087   4.264   6.065 -0.7224 -1.2701 -0.5417
15499SOL    HW247661   3.094   4.193   5.931 -0.1338  0.8346 -1.6835
15500SOL     OW47662   0.715   4.042   1.737 -0.1815  0.4505  0.4351
15500SOL    HW147663   0.761   4.120   1.706 -0.7008  0.6588  0.1808
15500SOL    HW247664   0.638   4.075   1.782 -0.5639  0.0795  0.0631
15501SOL     OW47665   6.024   0.433   7.673 -0.0647 -0.2582  0.1987
15501SOL    HW147666   6.007   0.474   7.758  0.8330  1.5745 -0.4757
15501SOL    HW247667   6.116   0.409   7.675 -0.4318 -1.7946  0.3506
15502SOL     OW47668   7.494   6.012   5.054  0.3343  0.2433 -0.1470
15502SOL    HW147669   7.417   5.978   5.009  0.1848  0.7374 -0.2784
15502SOL    HW247670   7.504   6.101   5.020  0.3533  0.5421  0.6246
15503SOL     OW47671   0.665   6.543   1.105 -0.3528 -0.2420 -0.1351
15503SOL    HW147672   0.573   6.565   1.121 -0.2740  1.6377 -1.8753
15503SOL    HW247673   0.714   6.595   1.168 -0.4295  0.1257 -0.3729
15504SOL     OW47674   8.348   7.484   6.122 -0.0109 -0.4391  0.5334
15504SOL    HW147675   8.275   7.423   6.131 -1.0857  0.7552  0.2020
15504SOL    HW247676   8.426   7.429   6.127 -0.9496 -1.9651 -0.6452
15505SOL     OW47677   3.076   4.932   7.972  0.0559 -0.0568  0.1215
15505SOL    HW147678   2.989   4.905   7.942 -0.4733  0.6898  0.9315
15505SOL    HW247679   3.067   4.939   8.067  0.9934  0.0951  0.2095
15506SOL     OW47680   4.297   3.605   7.269 -0.0486 -0.7081 -0.4190
15506SOL    HW147681   4.389   3.602   7.295  0.0343  1.9412 -0.1983
15506SOL    HW247682   4.278   3.515   7.241  2.4813 -1.4186 -0.1410
15507SOL     OW47683   3.926   2.171   2.335  0.1441 -0.0481  0.1264
15507SOL    HW147684   3.933   2.205   2.424  1.1423  0.2698 -0.0651
15507SOL    HW247685   3.964   2.083   2.340 -1.2715 -0.6668  0.3490
15508SOL     OW47686   8.825   1.190   7.005 -0.4172  0.2886 -0.5101
15508SOL    HW147687   8.822   1.193   6.909  1.1217 -0.4393 -0.6002
15508SOL    HW247688   8.794   1.102   7.027 -1.5498  0.7263 -0.2703
15509SOL     OW47689   0.308   5.784   8.436 -0.0904 -0.3913  0.0138
15509SOL    HW147690   0.235   5.753   8.489  0.2031 -0.5490  0.3281
15509SOL    HW247691   0.373   5.715   8.442 -0.7956 -1.3398 -2.1347
15510SOL     OW47692   1.608   7.328   2.603  0.5934 -0.0021 -1.3019
15510SOL    HW147693   1.576   7.325   2.512 -0.1054  2.1124 -1.1878
15510SOL    HW247694   1.537   7.289   2.654  1.6381 -2.6817 -1.7297
15511SOL     OW47695   4.579   6.520   4.675  0.6647 -0.6676  0.1805
15511SOL    HW147696   4.510   6.460   4.647 -0.7725  0.6394  0.7929
15511SOL    HW247697   4.552   6.606   4.643  1.6228 -0.0008  1.0724
15512SOL     OW47698   7.897   5.461   2.524 -0.0339 -0.1770 -0.1540
15512SOL    HW147699   7.839   5.407   2.471  0.1574 -0.5170 -0.0226
15512SOL    HW247700   7.985   5.437   2.495  0.0735 -0.4019  0.3533
15513SOL     OW47701   3.897   5.786   4.320  0.0913 -0.0401 -0.0713
15513SOL    HW147702   3.815   5.833   4.303  1.1501  1.5795 -1.0729
15513SOL    HW247703   3.909   5.793   4.415 -0.8781 -0.2253  0.0752
15514SOL     OW47704   7.736   5.459   8.272  0.2874 -0.1635 -0.0768
15514SOL    HW147705   7.801   5.526   8.251 -0.6160  1.0458  0.8879
15514SOL    HW247706   7.774   5.412   8.346  0.5561 -0.1851 -0.2268
15515SOL     OW47707   5.584   0.578   0.576  0.3946 -0.2086  0.3773
15515SOL    HW147708   5.653   0.639   0.549  1.2063 -1.0533  0.5177
15515SOL    HW247709   5.535   0.561   0.496  0.9147 -0.3199  0.0787
15516SOL     OW47710   1.632   2.822   5.540  0.0871 -0.5499  0.2091
15516SOL    HW147711   1.549   2.826   5.493  0.7298  0.9807 -0.8623
15516SOL    HW247712   1.661   2.913   5.546  1.2638 -0.9728  1.3397
15517SOL     OW47713   8.289   5.884   8.588  0.4985 -0.5750  0.0316
15517SOL    HW147714   8.240   5.865   8.668  2.6504  1.0184  1.8663
15517SOL    HW247715   8.327   5.800   8.563  1.9649 -0.7189  2.3381
15518SOL     OW47716   5.901   5.792   8.447  0.0010  0.1378  0.3092
15518SOL    HW147717   5.833   5.837   8.396  1.1219  1.8406  0.2714
15518SOL    HW247718   5.982   5.808   8.400  1.1284  1.9839  2.6857
15519SOL     OW47719   0.353   4.833   1.185 -0.2577  0.4795  0.2655
15519SOL    HW147720   0.399   4.853   1.104  0.0145 -1.3902 -0.1013
15519SOL    HW247721   0.261   4.822   1.158 -0.0642 -0.8083  0.0387
15520SOL     OW47722   0.997   3.810   7.663 -0.4687  0.1277 -0.1709
15520SOL    HW147723   0.957   3.725   7.647 -1.0362  0.4972 -0.7775
15520SOL    HW247724   1.075   3.811   7.607 -0.3602 -0.0643 -0.0227
15521SOL     OW47725   7.883   5.496   3.929  0.4176 -0.1700 -0.0199
15521SOL    HW147726   7.858   5.586   3.949  2.0575  0.0554  1.2363
15521SOL    HW247727   7.870   5.449   4.011 -0.9914 -1.2696 -0.8156
15522SOL     OW47728   5.885   1.289   0.624  0.3390  0.0241 -0.2624
15522SOL    HW147729   5.917   1.273   0.535  0.7631  0.2818 -0.1581
15522SOL    HW247730   5.799   1.330   0.611 -0.7623 -2.1821 -0.5393
15523SOL     OW47731   2.732   1.363   4.999 -0.9771  0.5409 -0.0067
15523SOL    HW147732   2.741   1.290   4.938 -0.8340  0.6152 -0.0753
15523SOL    HW247733   2.732   1.323   5.086 -0.0156  0.5329  0.0006
15524SOL     OW47734   8.319   6.344   5.005 -0.2074 -0.5040 -0.3157
15524SOL    HW147735   8.334   6.300   4.921 -2.1747 -2.3714  0.2103
15524SOL    HW247736   8.371   6.294   5.067  1.3713  0.9733 -0.3745
15525SOL     OW47737   4.291   3.155   2.601 -0.2372 -0.1404  0.5306
15525SOL    HW147738   4.284   3.250   2.605  0.6210 -0.0391 -0.0776
15525SOL    HW247739   4.215   3.126   2.550 -1.0141  0.1278  1.5170
15526SOL     OW47740   3.662   3.260   0.077  0.4477  0.1313 -0.1636
15526SOL    HW147741   3.660   3.295  -0.012 -0.4469  2.1450  0.5892
15526SOL    HW247742   3.696   3.333   0.130 -2.1888  0.2139  1.5998
15527SOL     OW47743   0.867   4.037   7.728  0.4238 -0.5270  0.1893
15527SOL    HW147744   0.934   3.968   7.732  0.2379 -0.7725 -0.7515
15527SOL    HW247745   0.910   4.115   7.763  1.3537 -0.5721 -0.8262
15528SOL     OW47746   4.735   6.084   1.532 -0.1919  0.4046 -0.0496
15528SOL    HW147747   4.803   6.082   1.599 -0.9672 -1.7537  0.7781
15528SOL    HW247748   4.658   6.119   1.578 -0.2029  0.8074 -0.3755
15529SOL     OW47749   3.867   3.637   7.105 -0.2812 -0.1453 -0.2682
15529SOL    HW147750   3.807   3.701   7.067 -0.6044 -0.3735 -0.1408
15529SOL    HW247751   3.864   3.563   7.045  1.1185  0.4712 -1.1573
15530SOL     OW47752   1.414   8.530   3.205 -0.6070  0.6598  0.4099
15530SOL    HW147753   1.398   8.581   3.284  0.9491  0.7907  0.6652
15530SOL    HW247754   1.509   8.529   3.195 -0.7673  1.0006 -1.6827
15531SOL     OW47755   6.279   3.767   4.621  0.1933 -0.3436 -0.1851
15531SOL    HW147756   6.365   3.789   4.657 -0.6243  0.0390  1.6558
15531SOL    HW247757   6.216   3.805   4.683 -1.3010 -2.0636 -0.5285
15532SOL     OW47758   2.119   1.524   5.842 -0.6161  0.1303  0.0220
15532SOL    HW147759   2.185   1.593   5.839  1.6146 -1.7657  1.4245
15532SOL    HW247760   2.113   1.492   5.752  2.0739 -1.0512  0.1827
15533SOL     OW47761   0.275   0.794   3.478 -0.3279 -0.4340  0.1401
15533SOL    HW147762   0.362   0.787   3.439  0.5071  0.1191  1.7580
15533SOL    HW247763   0.226   0.719   3.444  1.4066 -1.8731  0.6243
15534SOL     OW47764   5.031   7.514   7.628 -0.4610  0.0988  0.4748
15534SOL    HW147765   4.986   7.568   7.562  0.5053 -1.4223 -1.5488
15534SOL    HW247766   4.962   7.483   7.685 -1.8954 -1.1234 -1.7680
15535SOL     OW47767   6.393   5.762   4.934 -0.2013 -0.1189  0.0514
15535SOL    HW147768   6.391   5.771   5.029  2.9078  0.7412  0.1589
15535SOL    HW247769   6.353   5.843   4.902 -0.2702  0.0930  0.6546
15536SOL     OW47770   2.122   7.913   3.404  0.0409 -0.0688 -0.0155
15536SOL    HW147771   2.159   7.983   3.457  1.7025 -0.3166 -0.7749
15536SOL    HW247772   2.110   7.953   3.317 -0.4325 -0.3210 -0.0713
15537SOL     OW47773   7.143   0.801   3.801 -0.1262 -0.1816 -0.2867
15537SOL    HW147774   7.213   0.809   3.866 -0.3862 -0.6884  0.0675
15537SOL    HW247775   7.169   0.726   3.747  0.1881  0.3607 -0.8997
15538SOL     OW47776   0.987   8.229   8.226  0.0842 -0.4006  0.1114
15538SOL    HW147777   0.967   8.195   8.139  0.5134  1.1582 -0.6226
15538SOL    HW247778   0.943   8.314   8.229  0.8373 -0.0322  1.0832
15539SOL     OW47779   8.858   7.953   2.628  0.4417 -0.1574 -0.4032
15539SOL    HW147780   8.921   7.913   2.568  3.2780  2.6459  0.4243
15539SOL    HW247781   8.852   7.891   2.700  0.8226 -1.3096 -1.3204
15540SOL     OW47782   6.064   5.448   1.270  0.0174  0.1887  0.0125
15540SOL    HW147783   6.152   5.481   1.283  0.7609 -1.5818 -0.2549
15540SOL    HW247784   6.020   5.515   1.218  1.7853  0.2908 -1.4212
15541SOL     OW47785   2.399   0.194   4.159  0.2702  0.1323 -0.2140
15541SOL    HW147786   2.392   0.281   4.198  1.3061  0.2356 -0.2308
15541SOL    HW247787   2.469   0.151   4.208 -0.8599 -1.0484  0.4184
15542SOL     OW47788   4.645   1.618   5.852  0.4823 -0.3402  0.0524
15542SOL    HW147789   4.713   1.664   5.901  0.2469  0.7877 -0.6396
15542SOL    HW247790   4.673   1.526   5.852  1.0348 -0.1928  1.3546
15543SOL     OW47791   2.724   1.691   1.620 -0.1345 -0.4877 -0.8839
15543SOL    HW147792   2.672   1.733   1.689  0.8125 -1.2957  0.3600
15543SOL    HW247793   2.665   1.690   1.544 -2.3077 -2.0954  0.6756
15544SOL     OW47794   0.121   2.266   3.046 -0.2578 -0.0631 -0.1370
15544SOL    HW147795   0.029   2.275   3.070 -0.8829  1.3791 -2.7869
15544SOL    HW247796   0.124   2.190   2.989  0.3186 -0.4117  0.3402
15545SOL     OW47797   6.554   4.513   0.958  0.4698 -0.0199  0.0155
15545SOL    HW147798   6.615   4.517   0.885 -1.7058 -1.5660 -2.0472
15545SOL    HW247799   6.543   4.420   0.976  0.9297  0.3118  2.3819
15546SOL     OW47800   0.976   0.881   6.891  0.5480 -0.1307 -0.3272
15546SOL    HW147801   1.004   0.948   6.953  0.1717  0.1615 -0.4747
15546SOL    HW247802   1.058   0.851   6.851  0.7714 -0.1702  0.1527
15547SOL     OW47803   6.077   4.946   3.356  0.1862 -0.1654  0.4145
15547SOL    HW147804   6.147   4.964   3.293  0.0378  0.4445  0.4189
15547SOL    HW247805   6.057   5.031   3.395 -1.7904  0.0368 -0.8774
15548SOL     OW47806   2.149   2.414   2.340 -0.4586 -0.2875  0.5986
15548SOL    HW147807   2.094   2.493   2.342 -0.6639 -0.4285  0.4504
15548SOL    HW247808   2.187   2.411   2.428  1.0346  1.0225  0.0531
15549SOL     OW47809   3.898   6.315   6.426 -0.4211  0.2649 -0.5690
15549SOL    HW147810   3.939   6.317   6.340 -0.2327  0.5033 -0.4740
15549SOL    HW247811   3.953   6.371   6.481  0.8094 -1.7145  0.3132
15550SOL     OW47812   4.946   7.183   2.983 -0.5174 -0.4914  0.7854
15550SOL    HW147813   4.896   7.105   3.006 -1.4813 -0.1607 -0.1312
15550SOL    HW247814   4.910   7.211   2.899  1.5204 -0.4970 -0.1584
15551SOL     OW47815   0.148   7.645   2.886  0.1507 -0.0702 -0.0890
15551SOL    HW147816   0.137   7.630   2.980  0.8608 -0.4207 -0.0576
15551SOL    HW247817   0.242   7.663   2.875  0.4672 -1.9998 -0.9811
15552SOL     OW47818   4.165   4.483   7.800  0.7805  0.0133  0.1930
15552SOL    HW147819   4.098   4.481   7.732 -0.8745  0.5763  1.7180
15552SOL    HW247820   4.222   4.409   7.780  0.3455  0.1699 -1.7728
15553SOL     OW47821   8.136   4.596   3.591  0.0272 -0.3253 -0.1891
15553SOL    HW147822   8.180   4.512   3.579  1.5794  0.7454 -3.0060
15553SOL    HW247823   8.070   4.599   3.522 -0.2183  0.6501  0.0686
15554SOL     OW47824   5.302   1.987   3.072  0.3277  0.2283  0.1569
15554SOL    HW147825   5.312   2.082   3.068  1.5093  0.0908 -0.8606
15554SOL    HW247826   5.341   1.962   3.156 -1.4258  0.7662  1.1780
15555SOL     OW47827   5.169   6.650   7.610 -0.4981 -0.0499  0.7291
15555SOL    HW147828   5.221   6.695   7.544 -0.3196 -0.3059  0.6930
15555SOL    HW247829   5.166   6.559   7.581  0.1619 -0.3114  1.4214
15556SOL     OW47830   5.244   8.777   1.949 -0.1830 -0.1693 -0.5243
15556SOL    HW147831   5.339   8.769   1.945 -0.1942  0.1214 -1.6183
15556SOL    HW247832   5.227   8.819   2.034  0.7657  1.2204 -0.9970
15557SOL     OW47833   6.333   0.813   0.538 -0.5146 -0.0232  0.2495
15557SOL    HW147834   6.326   0.733   0.486  0.3336 -0.4786  0.8127
15557SOL    HW247835   6.420   0.847   0.518  0.1890 -0.6610  1.9578
15558SOL     OW47836   7.703   2.974   8.067 -0.5584  0.2273  0.2217
15558SOL    HW147837   7.630   3.034   8.082  0.1753  0.6594  2.3520
15558SOL    HW247838   7.781   3.024   8.090  0.1181 -1.3215  1.5076
15559SOL     OW47839   7.760   1.431   8.068  0.0052 -0.5517 -0.5522
15559SOL    HW147840   7.835   1.390   8.110  0.0630 -0.8496 -0.9393
15559SOL    HW247841   7.799   1.491   8.004 -0.0225  1.7151  1.4309
15560SOL     OW47842   7.467   2.963   6.955  0.4961 -0.7130 -0.4866
15560SOL    HW147843   7.503   2.953   6.867  1.0390  0.2748 -0.3867
15560SOL    HW247844   7.406   3.037   6.947 -1.3161 -2.1366 -0.5833
15561SOL     OW47845   4.068   2.665   2.310 -1.0217  0.1397 -0.0747
15561SOL    HW147846   4.090   2.583   2.353  0.6425  0.1842 -0.7810
15561SOL    HW247847   4.023   2.639   2.229 -1.3079 -0.0343  0.1387
15562SOL     OW47848   2.468   6.760   0.760  0.3070  0.2821 -0.0674
15562SOL    HW147849   2.477   6.665   0.753  1.5007  0.2628  1.3047
15562SOL    HW247850   2.554   6.790   0.789 -0.7351  1.5154  1.9192
15563SOL     OW47851   8.653   1.455   2.720 -0.0704  0.0227 -0.7912
15563SOL    HW147852   8.588   1.387   2.706  0.7698 -1.1518  0.7052
15563SOL    HW247853   8.729   1.428   2.668 -0.5482  1.1421 -2.1520
15564SOL     OW47854   4.139   3.100   2.336  0.3673  0.1701 -0.3757
15564SOL    HW147855   4.138   3.194   2.353 -0.0718  0.1181 -0.1149
15564SOL    HW247856   4.053   3.069   2.363  0.0957 -0.1292 -1.5218
15565SOL     OW47857   8.703   5.186   1.602  0.0829  0.4810 -0.2111
15565SOL    HW147858   8.635   5.182   1.534  0.5166 -0.4936 -0.5960
15565SOL    HW247859   8.683   5.113   1.661  0.0436  0.9769  0.4077
15566SOL     OW47860   4.640   7.042   7.305  0.2864 -0.1174  0.3243
15566SOL    HW147861   4.601   7.045   7.218 -2.1003 -0.6548  1.2834
15566SOL    HW247862   4.686   6.959   7.308  1.5392  0.5047 -0.8346
15567SOL     OW47863   2.380   8.504   4.784  0.3384  0.2517  0.5902
15567SOL    HW147864   2.391   8.409   4.792  1.6553  0.4104  0.9770
15567SOL    HW247865   2.309   8.525   4.844 -1.6797 -0.7605 -1.2767
15568SOL     OW47866   2.050   8.473   6.105  0.0730 -0.3343  0.6108
15568SOL    HW147867   2.011   8.418   6.038  1.3381  0.0303 -0.4645
15568SOL    HW247868   2.144   8.471   6.087  0.0939  3.5404 -0.6286
15569SOL     OW47869   7.528   0.192   0.085  0.2878  0.2257  0.4051
15569SOL    HW147870   7.621   0.168   0.074 -0.0467 -0.6583 -0.8465
15569SOL    HW247871   7.528   0.258   0.154  1.4674 -2.3383  3.0786
15570SOL     OW47872   3.172   0.510   1.337  0.0771  0.2076 -0.3764
15570SOL    HW147873   3.147   0.424   1.372 -1.1243  0.6686 -0.0539
15570SOL    HW247874   3.262   0.497   1.306 -0.2902 -1.3410 -0.9190
15571SOL     OW47875   8.156   7.877   0.471  0.0520  0.2317 -0.0477
15571SOL    HW147876   8.133   7.952   0.525 -0.6215 -1.9594  2.9805
15571SOL    HW247877   8.071   7.837   0.449  0.4135  0.1231 -1.3344
15572SOL     OW47878   2.937   3.853   7.466 -0.2253  0.3727  0.2357
15572SOL    HW147879   2.923   3.767   7.504 -1.1426 -2.0847 -4.8886
15572SOL    HW247880   2.853   3.898   7.476 -0.2015  0.1717  1.5901
15573SOL     OW47881   7.027   4.580   0.782 -0.4202 -0.0683  0.2949
15573SOL    HW147882   7.075   4.619   0.710 -1.7809 -1.3919 -1.4176
15573SOL    HW247883   7.094   4.541   0.838  0.7185  1.7790  0.2950
15574SOL     OW47884   4.702   1.448   4.034 -0.0676  0.6614 -0.3648
15574SOL    HW147885   4.708   1.539   4.065  0.4435  0.6370 -0.3803
15574SOL    HW247886   4.643   1.405   4.096 -0.1282  0.9502 -0.2209
15575SOL     OW47887   6.564   5.702   7.293  0.2267  0.1473 -0.9505
15575SOL    HW147888   6.648   5.667   7.321  0.9321  1.9208 -0.6822
15575SOL    HW247889   6.504   5.681   7.364  0.4743 -0.9657 -1.0553
15576SOL     OW47890   0.841   5.470   0.986  0.2327  0.2387 -0.0597
15576SOL    HW147891   0.936   5.471   0.986  0.2857  3.5371 -0.6956
15576SOL    HW247892   0.817   5.435   1.072  1.9272 -1.3729 -0.1787
15577SOL     OW47893   5.825   2.048   1.319  0.1650  0.2366 -0.4241
15577SOL    HW147894   5.765   2.015   1.252 -2.1003  0.2397  1.4573
15577SOL    HW247895   5.906   1.999   1.305 -0.3879 -0.0967 -2.8148
15578SOL     OW47896   3.760   4.878   5.704  0.0716  0.3547  0.1779
15578SOL    HW147897   3.699   4.948   5.725  0.2977  0.0350  2.1043
15578SOL    HW247898   3.735   4.848   5.616 -3.1730 -0.4165  1.2595
15579SOL     OW47899   7.826   3.741   2.241  0.1002  0.1403 -0.0540
15579SOL    HW147900   7.763   3.793   2.291  0.6536 -0.5693  1.4576
15579SOL    HW247901   7.790   3.652   2.242  0.1237  0.1152 -0.9336
15580SOL     OW47902   8.482   1.934   0.248  0.6539  0.3434 -0.3526
15580SOL    HW147903   8.515   1.959   0.334 -1.0092 -0.2058  0.4805
15580SOL    HW247904   8.553   1.958   0.188  2.7400 -1.1905  1.3504
15581SOL     OW47905   5.216   1.000   8.514 -0.9183 -0.2713 -0.4199
15581SOL    HW147906   5.182   1.079   8.556  0.8028  0.8350 -1.0095
15581SOL    HW247907   5.258   1.031   8.434  1.7836 -1.4201  0.4149
15582SOL     OW47908   1.917   1.181   7.010  0.0843  0.1156 -0.2159
15582SOL    HW147909   1.924   1.136   6.926 -3.0110 -0.6005 -0.1790
15582SOL    HW247910   1.906   1.111   7.075 -0.1505  0.7448  0.4433
15583SOL     OW47911   0.541   3.542   3.692  0.4775  0.4512 -0.1351
15583SOL    HW147912   0.481   3.587   3.751  0.4336 -0.6870  0.7385
15583SOL    HW247913   0.553   3.456   3.732  1.3030  0.0310 -1.2339
15584SOL     OW47914   4.805   3.159   3.070 -0.0494 -0.0651 -0.3808
15584SOL    HW147915   4.764   3.221   3.009 -3.3662  0.1953  1.8454
15584SOL    HW247916   4.758   3.077   3.055 -0.3868 -0.1928  1.2401
15585SOL     OW47917   2.794   6.813   7.316 -0.0225 -0.2633  0.1312
15585SOL    HW147918   2.802   6.813   7.411  0.8790  0.8288  0.0753
15585SOL    HW247919   2.761   6.900   7.294 -3.3388 -1.4899 -0.3813
15586SOL     OW47920   6.062   0.006   3.885 -0.2459  1.0509 -0.3801
15586SOL    HW147921   6.094  -0.020   3.798 -2.2279 -0.1867 -0.7961
15586SOL    HW247922   6.065   0.101   3.884 -2.0192  1.1749 -2.5749
15587SOL     OW47923   3.168   7.691   1.502  0.2172 -0.2512 -0.5974
15587SOL    HW147924   3.218   7.725   1.576 -2.1850 -0.0605  1.0596
15587SOL    HW247925   3.213   7.726   1.424  1.2738  1.8094  0.8457
15588SOL     OW47926   3.671   2.419   8.179  0.2564  0.1216  0.3821
15588SOL    HW147927   3.642   2.375   8.258 -0.1156 -0.9254 -0.3199
15588SOL    HW247928   3.674   2.351   8.112  0.4263  1.0029 -0.5485
15589SOL     OW47929   4.475   0.923   2.871 -0.3667 -0.0941  0.4621
15589SOL    HW147930   4.512   0.855   2.816 -0.6868  0.2682 -0.2110
15589SOL    HW247931   4.383   0.897   2.883 -0.0212 -0.7722  1.7787
15590SOL     OW47932   1.343   5.412   8.724  0.3159 -0.1995  0.5991
15590SOL    HW147933   1.408   5.361   8.677 -0.5260 -1.3014  0.5747
15590SOL    HW247934   1.380   5.500   8.730  0.6951 -0.1565 -1.6219
15591SOL     OW47935   1.468   0.213   4.977 -0.2111  0.4452  0.1149
15591SOL    HW147936   1.562   0.198   4.977 -0.6367 -2.9239  0.2627
15591SOL    HW247937   1.440   0.187   5.065 -1.5701 -1.2750 -0.7770
15592SOL     OW47938   7.505   1.900   4.639 -0.1231 -0.1930 -0.0172
15592SOL    HW147939   7.512   1.846   4.718 -3.5578 -1.2656 -0.2804
15592SOL    HW247940   7.525   1.840   4.567 -0.1620 -0.0814 -0.1203
15593SOL     OW47941   0.267   2.477   8.805  0.2195  0.1172 -0.6296
15593SOL    HW147942   0.258   2.414   8.876  0.7044 -0.0072 -0.6725
15593SOL    HW247943   0.202   2.545   8.824  1.5685  1.0337  0.9393
15594SOL     OW47944   7.160   5.856   7.847  0.0289 -0.7535 -0.5327
15594SOL    HW147945   7.133   5.764   7.845 -2.9273 -0.0447  0.8658
15594SOL    HW247946   7.192   5.870   7.936  3.2757 -0.9946 -1.5286
15595SOL     OW47947   7.045   6.208   6.607  0.6649  0.4407 -0.1091
15595SOL    HW147948   7.101   6.193   6.531 -1.1121  0.6979 -1.5364
15595SOL    HW247949   6.958   6.224   6.570 -0.7491 -1.5618  2.0435
15596SOL     OW47950   8.829   7.789   6.844  0.5104 -1.0292 -0.1425
15596SOL    HW147951   8.885   7.711   6.845  0.0697 -1.3476  0.6084
15596SOL    HW247952   8.786   7.789   6.930 -1.1406 -1.1719 -0.9294
15597SOL     OW47953   7.232   1.901   2.079 -0.0732 -0.4277 -0.4438
15597SOL    HW147954   7.183   1.854   2.011 -0.7152 -0.6365  0.1528
15597SOL    HW247955   7.165   1.936   2.138  0.4905 -1.1967  0.7052
15598SOL     OW47956   8.194   7.159   5.769  1.1292  0.3517 -0.0911
15598SOL    HW147957   8.249   7.180   5.694  0.4884  0.2353 -0.6078
15598SOL    HW247958   8.116   7.118   5.731 -0.0948  2.0605  0.4806
15599SOL     OW47959   5.556   5.124   6.094  0.1212 -0.0639  0.7107
15599SOL    HW147960   5.624   5.145   6.030  1.4599  0.1840  2.1612
15599SOL    HW247961   5.582   5.172   6.173 -0.3541 -1.9400  2.0646
15600SOL     OW47962   5.911   0.345   8.346 -0.3136  0.6444  0.0079
15600SOL    HW147963   5.895   0.407   8.418 -2.7211 -0.2177  0.2948
15600SOL    HW247964   5.971   0.280   8.384  0.2400  1.4278  0.5041
15601SOL     OW47965   5.247   8.713   3.673  0.0414 -0.1355 -0.3146
15601SOL    HW147966   5.188   8.645   3.642 -0.4977  0.2380 -0.1314
15601SOL    HW247967   5.189   8.779   3.711  0.4702  0.9876 -1.5500
15602SOL     OW47968   2.486   1.636   8.297  0.1935 -0.5351 -0.2373
15602SOL    HW147969   2.445   1.552   8.274 -2.1113  0.6339 -0.7520
15602SOL    HW247970   2.575   1.630   8.263 -0.3901 -2.1897 -1.6273
15603SOL     OW47971   2.632   6.031   2.063 -0.3470  0.2299  0.2411
15603SOL    HW147972   2.593   5.945   2.050 -0.3467  0.1042  1.0346
15603SOL    HW247973   2.567   6.092   2.029 -0.2170 -0.0870 -0.6079
15604SOL     OW47974   0.693   0.846   3.413 -0.2454 -0.0348 -0.1061
15604SOL    HW147975   0.752   0.798   3.471 -0.5532  1.3038  1.3807
15604SOL    HW247976   0.697   0.799   3.330  0.8938 -1.4929  0.7376
15605SOL     OW47977   7.727   0.588   5.760  0.2579  0.0205 -0.4062
15605SOL    HW147978   7.720   0.675   5.800  1.7902  0.3106 -0.6988
15605SOL    HW247979   7.812   0.588   5.717 -0.5570 -0.9256 -2.1600
15606SOL     OW47980   4.619   4.341   6.549 -0.4638 -0.8483  0.3437
15606SOL    HW147981   4.605   4.435   6.547  0.3449 -0.7278 -1.4433
15606SOL    HW247982   4.533   4.304   6.571 -0.2301  0.3433  3.7592
15607SOL     OW47983   3.197   2.874   8.234  0.3545  0.3349  0.1327
15607SOL    HW147984   3.216   2.850   8.144 -0.8849  0.9874 -0.3281
15607SOL    HW247985   3.244   2.957   8.248 -0.2631  0.7571 -0.2533
15608SOL     OW47986   0.087   2.548   5.542  0.1304 -0.2857  0.1336
15608SOL    HW147987   0.176   2.583   5.548 -0.2336  0.9025 -0.7800
15608SOL    HW247988   0.084   2.477   5.605  2.3391 -1.7078 -1.2209
15609SOL     OW47989   5.409   4.354   0.978 -0.0499  0.5496 -0.1517
15609SOL    HW147990   5.437   4.363   0.887 -0.6654  3.5880 -0.1562
15609SOL    HW247991   5.488   4.374   1.029 -0.0389  0.1765 -0.0171
15610SOL     OW47992   7.734   7.655   0.935  0.5611 -0.5405  0.1026
15610SOL    HW147993   7.719   7.561   0.933 -0.4862 -0.3669 -1.3298
15610SOL    HW247994   7.666   7.689   0.993 -0.4859 -0.4624 -1.1273
15611SOL     OW47995   5.571   0.250   0.278 -0.8479 -0.5787  0.1252
15611SOL    HW147996   5.508   0.234   0.348 -2.0750 -1.1796 -1.0628
15611SOL    HW247997   5.655   0.220   0.313 -1.2920 -0.1770  1.5809
15612SOL     OW47998   2.954   6.338   6.554 -0.1044 -0.1184 -0.2582
15612SOL    HW147999   3.043   6.311   6.577  0.5627  1.0233 -1.3462
15612SOL    HW248000   2.961   6.433   6.540 -1.4682 -0.0324 -0.4517
15613SOL     OW48001   1.015   4.924   5.790 -0.4279 -0.4308  0.9623
15613SOL    HW148002   1.035   4.844   5.839 -1.1239 -1.3003 -0.1319
15613SOL    HW248003   0.920   4.930   5.792 -0.3545  1.1601  2.1928
15614SOL     OW48004   4.153   8.786   4.900 -0.7808 -0.1681  0.3214
15614SOL    HW148005   4.108   8.718   4.950  1.1437 -2.0458 -0.3405
15614SOL    HW248006   4.177   8.853   4.965 -2.2474 -0.3365  1.0752
15615SOL     OW48007   2.973   3.205   0.830 -0.0544 -0.2017 -0.2779
15615SOL    HW148008   2.906   3.217   0.897  1.6315 -0.5796  1.5627
15615SOL    HW248009   3.014   3.291   0.820  0.3803 -0.3848 -0.0708
15616SOL     OW48010   7.333   1.620   4.064  0.3068  0.1293 -0.2170
15616SOL    HW148011   7.377   1.559   4.004 -0.7398 -0.7104 -0.1688
15616SOL    HW248012   7.382   1.702   4.055 -0.1382  0.2140 -2.6337
15617SOL     OW48013   6.592   7.238   6.237  0.3397 -0.4263  0.4251
15617SOL    HW148014   6.639   7.303   6.289  2.0108 -1.1571 -0.1027
15617SOL    HW248015   6.541   7.289   6.175  2.1411  0.4240 -0.4236
15618SOL     OW48016   1.414   7.862   6.548 -0.3349  0.0279  0.2729
15618SOL    HW148017   1.394   7.932   6.485  0.6167 -0.0503 -0.1425
15618SOL    HW248018   1.443   7.909   6.626  0.5188  0.1160 -0.0810
15619SOL     OW48019   3.157   3.323   7.280 -0.2961 -0.8620 -0.0106
15619SOL    HW148020   3.148   3.415   7.301  0.2339 -0.9343  0.5805
15619SOL    HW248021   3.073   3.298   7.242 -0.3853 -0.1029 -0.3300
15620SOL     OW48022   5.799   3.264   4.354 -0.0912  0.5946 -0.2291
15620SOL    HW148023   5.775   3.232   4.441 -0.0176  3.8521  1.1281
15620SOL    HW248024   5.716   3.287   4.314 -0.1128 -0.7707 -1.0242
15621SOL     OW48025   4.677   1.353   5.616 -0.1251 -0.0045  0.0792
15621SOL    HW148026   4.621   1.426   5.642 -0.5234 -0.9057  1.9632
15621SOL    HW248027   4.617   1.279   5.607  0.3840 -0.3146 -0.9507
15622SOL     OW48028   1.417   1.636   2.883 -0.7763 -0.1985  0.2376
15622SOL    HW148029   1.342   1.696   2.882 -1.2083 -0.7295 -1.1692
15622SOL    HW248030   1.378   1.549   2.895 -0.1713 -0.2629  2.0130
15623SOL     OW48031   5.195   6.118   7.815 -0.5003 -0.1754  0.3775
15623SOL    HW148032   5.106   6.146   7.838 -0.2754  0.1005  0.9365
15623SOL    HW248033   5.183   6.034   7.772 -1.2615  1.1171 -2.0961
15624SOL     OW48034   2.078   1.518   1.211 -0.7024 -0.0369  0.3350
15624SOL    HW148035   2.173   1.532   1.215 -0.7242  0.3984 -0.4183
15624SOL    HW248036   2.058   1.469   1.291  0.1210  0.0608  0.6192
15625SOL     OW48037   8.074   1.446   3.852 -0.3231 -0.1190  0.6705
15625SOL    HW148038   7.985   1.417   3.872  0.4440 -2.3986  1.0624
15625SOL    HW248039   8.094   1.406   3.767  0.1109  0.9628  0.2326
15626SOL     OW48040   3.861   3.308   7.307  0.0776  0.0452 -0.5155
15626SOL    HW148041   3.801   3.272   7.372  1.4657 -1.9800 -0.2530
15626SOL    HW248042   3.813   3.304   7.225 -0.8076  0.2600 -0.0249
15627SOL     OW48043   2.849   0.726   2.537  0.0719  0.7313 -0.6764
15627SOL    HW148044   2.901   0.701   2.460 -0.3500  2.3800 -1.5415
15627SOL    HW248045   2.909   0.779   2.589  0.4384 -0.5956  0.3086
15628SOL     OW48046   3.333   0.729   5.333 -0.1368 -0.1281  0.1030
15628SOL    HW148047   3.306   0.715   5.242 -0.7118  0.6982  0.1427
15628SOL    HW248048   3.428   0.730   5.330 -0.1446 -0.5138 -0.4246
15629SOL     OW48049   3.427   7.310   7.807  0.0935  0.2640 -0.0365
15629SOL    HW148050   3.428   7.224   7.848  1.2293  0.1865 -0.2022
15629SOL    HW248051   3.334   7.333   7.803 -0.3030 -1.3407 -0.8320
15630SOL     OW48052   7.174   3.172   8.071 -0.0520  0.2646 -0.0093
15630SOL    HW148053   7.156   3.265   8.056  2.2686  1.0322  1.3592
15630SOL    HW248054   7.152   3.158   8.164 -0.1645 -0.4920 -0.1459
15631SOL     OW48055   2.571   0.359   0.434 -0.2338  0.1204 -0.2893
15631SOL    HW148056   2.535   0.322   0.354  1.3728  0.5135 -1.2585
15631SOL    HW248057   2.516   0.436   0.452  1.2769  2.0148 -2.9733
15632SOL     OW48058   0.260   6.532   6.605 -0.1254  0.0814  0.2513
15632SOL    HW148059   0.190   6.469   6.586  0.7498 -1.1906  1.0753
15632SOL    HW248060   0.272   6.527   6.700  0.9073  0.4719  0.1567
15633SOL     OW48061   1.045   1.264   5.819 -0.0400  0.1981 -0.4111
15633SOL    HW148062   1.105   1.315   5.765  0.5530 -0.2839 -0.2142
15633SOL    HW248063   1.055   1.299   5.907  1.5912 -1.3036  0.0511
15634SOL     OW48064   4.383   8.076   6.577 -0.0634 -0.0503  0.3690
15634SOL    HW148065   4.427   8.161   6.583  0.6838 -0.3508 -0.5325
15634SOL    HW248066   4.434   8.018   6.634  1.4166 -0.6541 -1.4633
15635SOL     OW48067   8.836   1.184   1.732 -0.4537 -0.0069 -0.0005
15635SOL    HW148068   8.904   1.180   1.664  0.3097 -0.6427  0.7655
15635SOL    HW248069   8.832   1.094   1.766 -0.7067  0.3333  0.8964
15636SOL     OW48070   0.853   0.755   4.497 -0.7333 -0.0103  0.5795
15636SOL    HW148071   0.827   0.739   4.406  0.0348  0.4215  0.2765
15636SOL    HW248072   0.841   0.850   4.509 -0.4920 -0.0109  0.8248
15637SOL     OW48073   4.811   3.483   2.703 -0.3812  0.0581  0.3974
15637SOL    HW148074   4.810   3.387   2.710 -0.7975  0.1123  1.1872
15637SOL    HW248075   4.902   3.508   2.718  0.0282 -0.3011 -1.2791
15638SOL     OW48076   8.746   2.469   6.707  0.3580 -0.0866  0.5294
15638SOL    HW148077   8.653   2.451   6.708  0.1442  0.7103 -1.0873
15638SOL    HW248078   8.752   2.565   6.712  0.9570  0.0347 -1.6850
15639SOL     OW48079   7.278   6.913   8.068  0.9450 -1.0827  0.5013
15639SOL    HW148080   7.258   6.932   8.159  2.1059  1.6242  0.2859
15639SOL    HW248081   7.194   6.924   8.023  0.5422 -1.5644  1.1273
15640SOL     OW48082   3.674   7.397   4.018  0.1141  0.0460 -0.0963
15640SOL    HW148083   3.683   7.353   4.102  0.3909  0.9879  0.3735
15640SOL    HW248084   3.580   7.395   3.999  0.1683 -1.1627 -0.3193
15641SOL     OW48085   4.825   0.227   6.897  0.0577 -0.6273 -0.8374
15641SOL    HW148086   4.886   0.300   6.906  1.7435 -1.9351 -1.1596
15641SOL    HW248087   4.844   0.189   6.811  0.5227 -2.5385  0.0431
15642SOL     OW48088   3.040   6.851   4.941 -0.3246 -0.4947 -0.1556
15642SOL    HW148089   2.972   6.862   4.875  1.3568  0.0083 -1.8809
15642SOL    HW248090   3.014   6.911   5.011 -2.3372 -1.3083 -0.1187
15643SOL     OW48091   6.473   7.226   0.206 -0.8095 -0.4499  1.1191
15643SOL    HW148092   6.380   7.245   0.221 -0.2910  1.7297  1.9608
15643SOL    HW248093   6.509   7.307   0.171  0.4087 -1.9215 -1.3465
15644SOL     OW48094   4.679   0.414   3.227 -0.0887 -0.1901 -0.6990
15644SOL    HW148095   4.762   0.399   3.271  0.0985  0.0021 -0.9809
15644SOL    HW248096   4.671   0.509   3.222  0.1847 -0.2038 -1.6064
15645SOL     OW48097   7.803   7.933   8.473 -0.1387  0.2043  0.3134
15645SOL    HW148098   7.825   7.914   8.382 -1.7765 -0.7655  0.0728
15645SOL    HW248099   7.810   7.848   8.517  0.3377  0.6074  1.0420
15646SOL     OW48100   2.422   6.984   4.288 -0.0842 -0.2346 -0.3711
15646SOL    HW148101   2.437   6.914   4.224 -2.0923  0.2957 -1.5037
15646SOL    HW248102   2.508   7.025   4.299  0.4580 -0.7528 -2.2662
15647SOL     OW48103   5.050   2.399   4.945  0.4647 -0.1212  0.0479
15647SOL    HW148104   4.987   2.410   5.016  0.8186  0.2128  0.3141
15647SOL    HW248105   5.000   2.415   4.865 -0.1489 -1.3630  0.1595
15648SOL     OW48106   4.023   2.808   5.755 -0.2647 -0.3092  0.0304
15648SOL    HW148107   4.034   2.824   5.661  2.8033  0.5627  0.4369
15648SOL    HW248108   3.950   2.864   5.780 -0.1364  0.6385 -1.5843
15649SOL     OW48109   0.656   2.333   6.660  0.5765 -0.2003  0.3325
15649SOL    HW148110   0.676   2.264   6.723  2.7827  0.8122  0.8414
15649SOL    HW248111   0.651   2.413   6.712  0.5544  0.3814 -0.5442
15650SOL     OW48112   4.794   6.852   8.119 -0.4517 -0.3138 -0.6485
15650SOL    HW148113   4.714   6.801   8.132 -0.6373  0.3072  0.7840
15650SOL    HW248114   4.800   6.864   8.024 -0.9573 -2.0859 -0.9289
15651SOL     OW48115   3.882   6.758   5.216 -0.6316  0.4177  0.7530
15651SOL    HW148116   3.942   6.815   5.266 -0.5628  0.8529  0.1850
15651SOL    HW248117   3.940   6.694   5.175 -0.6664  0.1841  1.0703
15652SOL     OW48118   8.633   0.025   8.625  0.4535  0.0339  0.2606
15652SOL    HW148119   8.580  -0.054   8.611  0.7433 -0.0921 -0.1629
15652SOL    HW248120   8.614   0.051   8.715 -2.6264  1.7056 -0.7399
15653SOL     OW48121   7.184   0.940   0.865 -0.7495  0.8162  0.3817
15653SOL    HW148122   7.209   0.862   0.816 -1.3243  0.0768  1.2265
15653SOL    HW248123   7.209   0.920   0.955 -2.6015  0.8101  0.9264
15654SOL     OW48124   1.159   1.684   0.482 -0.4994 -0.1437 -0.4005
15654SOL    HW148125   1.181   1.693   0.389 -1.0792 -0.1278 -0.5357
15654SOL    HW248126   1.146   1.590   0.495  1.2808 -0.3705  0.0587
15655SOL     OW48127   4.040   2.754   7.051 -0.0108  0.2137 -0.5109
15655SOL    HW148128   4.112   2.813   7.027  0.6686 -0.5965 -0.4896
15655SOL    HW248129   3.968   2.813   7.075  1.5317  1.1095  2.3466
15656SOL     OW48130   2.469   8.727   7.349 -0.0610 -0.0206 -0.5674
15656SOL    HW148131   2.461   8.684   7.264  2.0145 -0.1650 -0.7566
15656SOL    HW248132   2.387   8.707   7.394 -1.1701 -0.0305 -2.4713
15657SOL     OW48133   3.270   8.364   4.138 -0.2913  0.9504 -0.0095
15657SOL    HW148134   3.202   8.390   4.075 -1.4212  1.1920  1.2549
15657SOL    HW248135   3.321   8.443   4.152  0.1936  0.8051 -0.8634
15658SOL     OW48136   0.837   7.036   3.328  0.1952 -0.2794  0.1758
15658SOL    HW148137   0.899   6.975   3.367  0.1932  0.8843  2.1350
15658SOL    HW248138   0.752   7.007   3.359 -0.3420 -1.8209 -2.4379
15659SOL     OW48139   5.260   1.636   3.506  0.0219 -0.3158  0.3485
15659SOL    HW148140   5.229   1.620   3.417  1.3885 -1.5708  0.0581
15659SOL    HW248141   5.198   1.590   3.562 -0.7581  0.3535  0.0474
15660SOL     OW48142   2.626   0.834   4.572  0.1191 -0.0657  0.0008
15660SOL    HW148143   2.569   0.795   4.639  1.6386 -1.8072  0.3716
15660SOL    HW248144   2.569   0.893   4.523 -2.4695 -2.9157 -0.7220
15661SOL     OW48145   5.913   1.575   8.387  0.2526  0.7434 -0.0741
15661SOL    HW148146   5.824   1.558   8.418 -0.0713  1.5274 -0.5565
15661SOL    HW248147   5.969   1.538   8.455 -0.4382  0.0996  0.1563
15662SOL     OW48148   0.397   3.423   0.583  0.2500 -0.2576 -0.3182
15662SOL    HW148149   0.357   3.338   0.565  0.3621 -0.4159  0.1463
15662SOL    HW248150   0.324   3.485   0.583 -0.1417 -0.6622  1.3332
15663SOL     OW48151   5.151   0.111   5.663 -0.4247 -0.3750 -0.4154
15663SOL    HW148152   5.195   0.191   5.692 -0.0529 -1.2587  1.6530
15663SOL    HW248153   5.059   0.125   5.685 -0.2492 -0.7574  0.6689
15664SOL     OW48154   6.418   1.324   2.082  0.7040 -0.7133 -0.1325
15664SOL    HW148155   6.336   1.298   2.041  0.5384 -1.9812  0.9690
15664SOL    HW248156   6.409   1.300   2.174  1.0895  2.0397  0.7105
15665SOL     OW48157   4.506   3.975   6.565  0.8767 -1.0171 -0.5588
15665SOL    HW148158   4.505   4.000   6.472 -0.9323 -1.8303 -0.8011
15665SOL    HW248159   4.487   4.056   6.612  0.0147 -0.9357 -1.0264
15666SOL     OW48160   5.001   7.541   6.755 -0.2294 -0.2922 -0.1498
15666SOL    HW148161   4.954   7.503   6.829 -1.2269 -1.0896 -1.1654
15666SOL    HW248162   4.932   7.571   6.695  0.5559  0.0214 -0.9189
15667SOL     OW48163   4.547   5.277   1.048  0.0058 -0.1100 -0.8171
15667SOL    HW148164   4.548   5.260   0.954  1.8814 -2.5895 -0.4430
15667SOL    HW248165   4.538   5.191   1.089  0.8375  0.7132  1.2828
15668SOL     OW48166   8.610   3.572   0.901  0.2858  0.2291  0.4237
15668SOL    HW148167   8.701   3.579   0.871 -0.4340  1.6013 -1.6322
15668SOL    HW248168   8.583   3.483   0.875  0.9004 -0.0531  0.7227
15669SOL     OW48169   7.411   7.235   5.901  0.0572 -0.3816  0.7781
15669SOL    HW148170   7.478   7.282   5.951  0.4459  0.8519 -0.8411
15669SOL    HW248171   7.350   7.303   5.872 -0.2308 -1.0751 -0.3050
15670SOL     OW48172   8.010   1.017   6.119  0.0031 -0.2140  0.2493
15670SOL    HW148173   7.955   1.034   6.042  0.1864  0.7429  0.3151
15670SOL    HW248174   7.951   1.029   6.193 -0.5725 -2.6460  0.2627
15671SOL     OW48175   4.583   6.354   0.666 -0.5363 -0.2874 -0.1074
15671SOL    HW148176   4.553   6.346   0.575 -0.5709  2.4640 -0.4206
15671SOL    HW248177   4.503   6.348   0.718 -0.9291  1.2251 -0.5131
15672SOL     OW48178   7.626   8.341   0.452  0.1596  0.1415  0.3954
15672SOL    HW148179   7.632   8.436   0.435  1.7481 -0.1950 -1.2489
15672SOL    HW248180   7.681   8.327   0.529  1.2362  0.3701 -0.3129
15673SOL     OW48181   5.769   8.707   3.750 -0.0124 -0.1204 -0.2091
15673SOL    HW148182   5.692   8.704   3.693 -0.8985  0.2577  0.9346
15673SOL    HW248183   5.840   8.733   3.692 -1.1466  1.6111 -0.9207
15674SOL     OW48184   4.818   0.657   0.009  0.0924 -0.3138  0.0697
15674SOL    HW148185   4.763   0.709   0.068 -0.2771  1.2384 -1.5268
15674SOL    HW248186   4.756   0.614  -0.050  0.4195 -2.4063  1.1676
15675SOL     OW48187   2.477   4.542   7.646  0.0008 -0.2259 -0.5923
15675SOL    HW148188   2.396   4.583   7.617 -0.0242  0.7273  0.7446
15675SOL    HW248189   2.520   4.608   7.702  0.5111 -1.5769  0.7015
15676SOL     OW48190   4.281   6.316   3.687  0.2868 -0.0350 -0.1858
15676SOL    HW148191   4.241   6.244   3.638  0.6710  0.1847 -0.8277
15676SOL    HW248192   4.345   6.273   3.744  0.6188 -0.1894 -0.6722
15677SOL     OW48193   5.253   8.518   5.631 -0.3504  0.6173  0.1249
15677SOL    HW148194   5.328   8.567   5.597 -0.5651  0.8548 -0.0043
15677SOL    HW248195   5.280   8.426   5.624  0.4537  0.7355  1.2980
15678SOL     OW48196   8.321   6.119   2.749 -0.2975 -0.3438  0.4082
15678SOL    HW148197   8.314   6.082   2.837  0.6061  2.9345  2.0208
15678SOL    HW248198   8.244   6.175   2.740 -0.5062 -0.8204 -1.0251
15679SOL     OW48199   7.812   4.857   3.572 -0.3262  0.3037 -0.2632
15679SOL    HW148200   7.866   4.843   3.494 -0.9283  0.0243 -0.6346
15679SOL    HW248201   7.855   4.930   3.618  0.5314 -0.1009 -0.3977
15680SOL     OW48202   1.934   2.554   3.760 -0.1868  0.5726 -0.4740
15680SOL    HW148203   1.917   2.647   3.746 -0.9648  0.7705  1.4357
15680SOL    HW248204   1.870   2.528   3.826 -0.6597 -1.5857 -1.6888
15681SOL     OW48205   5.756   5.569   5.779  0.3493  0.3156 -0.2972
15681SOL    HW148206   5.829   5.630   5.789 -0.6695  1.3600  1.2923
15681SOL    HW248207   5.682   5.624   5.754 -0.7118 -0.1528  1.6257
15682SOL     OW48208   7.790   0.207   8.772 -0.2134 -0.5350  0.3083
15682SOL    HW148209   7.741   0.180   8.694 -0.1815  1.4484 -0.4758
15682SOL    HW248210   7.847   0.277   8.740  0.0501  0.0896  2.0623
15683SOL     OW48211   0.850   3.021   0.720  0.1396 -0.1461  0.1493
15683SOL    HW148212   0.852   3.116   0.722 -1.0082 -0.0399 -1.6063
15683SOL    HW248213   0.919   2.994   0.782  2.0635  1.8257 -0.9937
15684SOL     OW48214   6.672   6.542   8.847 -0.4772 -0.0163  0.3431
15684SOL    HW148215   6.679   6.453   8.813 -0.3155  0.7984 -1.9424
15684SOL    HW248216   6.580   6.566   8.833 -0.0333  0.9207 -1.2109
15685SOL     OW48217   3.561   5.151   5.264  0.0257 -0.0159 -0.2777
15685SOL    HW148218   3.468   5.169   5.270 -0.4208 -2.4077  1.7445
15685SOL    HW248219   3.603   5.222   5.312 -1.0030 -0.2879  1.0721
15686SOL     OW48220   4.337   3.740   4.232  0.0645  0.3062  0.2786
15686SOL    HW148221   4.302   3.767   4.317  0.5723  0.5553  0.4187
15686SOL    HW248222   4.420   3.787   4.225 -0.5323  1.2243 -0.9024
15687SOL     OW48223   2.993   6.152   5.737 -1.0487 -0.1712  0.1022
15687SOL    HW148224   2.908   6.139   5.778 -0.4881  0.2947  1.4877
15687SOL    HW248225   3.043   6.204   5.801 -0.5395  1.6979 -1.7151
15688SOL     OW48226   1.060   8.635   7.555 -0.4607  0.1998  0.3201
15688SOL    HW148227   1.070   8.656   7.648  0.5269 -2.0499  0.7701
15688SOL    HW248228   1.135   8.678   7.513 -0.2362  0.2303  0.7472
15689SOL     OW48229   1.898   3.591   5.311  0.1618  0.2105 -0.0497
15689SOL    HW148230   1.925   3.682   5.316  1.3152 -0.1170  0.0250
15689SOL    HW248231   1.980   3.541   5.316 -0.4568 -0.8327  0.0706
15690SOL     OW48232   8.689   8.520   8.573 -0.3221  0.4522 -0.0181
15690SOL    HW148233   8.686   8.528   8.478  1.3148 -0.4419 -0.1936
15690SOL    HW248234   8.628   8.586   8.606 -0.8180  0.8497 -1.6769
15691SOL     OW48235   0.697   2.644   1.895  0.2271  0.1148 -0.1758
15691SOL    HW148236   0.676   2.642   1.801  1.7140  1.5301 -0.5802
15691SOL    HW248237   0.787   2.614   1.900  0.1296 -0.0263  0.8235
15692SOL     OW48238   0.594   0.264   0.478  0.5861 -0.3245 -0.1113
15692SOL    HW148239   0.528   0.329   0.456  1.8638  0.8365 -0.7262
15692SOL    HW248240   0.652   0.263   0.401  1.4409 -1.0714  0.5280
15693SOL     OW48241   6.880   7.984   8.394 -0.1930 -0.3226  0.2638
15693SOL    HW148242   6.889   7.975   8.489  0.4184  0.5640  0.3033
15693SOL    HW248243   6.851   8.074   8.380  1.3384  0.0916 -0.4649
15694SOL     OW48244   3.809   8.553   3.581 -0.1372  0.2886  0.7134
15694SOL    HW148245   3.869   8.543   3.655 -0.3889  1.1930  1.0514
15694SOL    HW248246   3.793   8.464   3.551  0.4746 -0.0431  1.3435
15695SOL     OW48247   3.201   2.062   5.410 -0.3205  0.0915  0.3131
15695SOL    HW148248   3.294   2.060   5.384 -1.0519 -0.6188 -2.6578
15695SOL    HW248249   3.169   2.146   5.378 -0.6624  0.4660  1.6049
15696SOL     OW48250   6.183   8.628   0.334  0.1171 -0.2010  0.3066
15696SOL    HW148251   6.240   8.698   0.303 -0.5550 -0.5763 -1.9286
15696SOL    HW248252   6.094   8.660   0.321 -0.1982 -1.2792 -0.3812
15697SOL     OW48253   0.009   6.723   8.620 -0.8759  0.9985 -0.1368
15697SOL    HW148254  -0.032   6.671   8.551  1.3221 -1.4350  0.2317
15697SOL    HW248255   0.080   6.769   8.574 -1.0631  1.4809  0.0533
15698SOL     OW48256   0.313   7.039   1.121  0.2527  0.4407  0.3654
15698SOL    HW148257   0.289   6.946   1.118  1.5823  0.0880 -0.2008
15698SOL    HW248258   0.232   7.085   1.099 -0.2573 -0.6160 -0.0648
15699SOL     OW48259   8.542   2.571   7.359 -0.8434 -0.1227 -0.3851
15699SOL    HW148260   8.494   2.526   7.290  0.7192 -0.2001 -1.4642
15699SOL    HW248261   8.484   2.644   7.384 -1.1609  0.3120 -2.2521
15700SOL     OW48262   2.635   0.082   7.406 -0.3109  0.8905 -0.5155
15700SOL    HW148263   2.574   0.155   7.412 -0.8674  0.3599  0.4146
15700SOL    HW248264   2.580   0.007   7.383 -0.1059  0.2980  0.8555
15701SOL     OW48265   7.591   3.089   5.953  0.3957 -0.1122 -0.0619
15701SOL    HW148266   7.578   3.095   6.048 -1.4927  0.7821 -0.3416
15701SOL    HW248267   7.522   3.143   5.915  0.8795 -0.7460 -1.9748
15702SOL     OW48268   7.709   4.556   1.370  0.0962 -0.6627 -0.1656
15702SOL    HW148269   7.721   4.647   1.342 -0.1100 -0.8133 -0.7618
15702SOL    HW248270   7.635   4.558   1.430  0.3235 -0.3837  0.1091
15703SOL     OW48271   3.996   0.454   0.040 -0.3462  0.2869  0.2045
15703SOL    HW148272   3.944   0.415  -0.030  0.8335 -1.7687  0.3864
15703SOL    HW248273   3.941   0.524   0.075 -0.7425  1.8220 -3.1013
15704SOL     OW48274   6.099   5.810   5.318 -0.1482  0.1025  0.0943
15704SOL    HW148275   6.080   5.855   5.401  0.3389 -0.5114  0.5455
15704SOL    HW248276   6.032   5.743   5.311 -1.0834  1.0902 -0.7488
15705SOL     OW48277   1.230   2.883   7.244  0.1278 -0.2157 -0.2167
15705SOL    HW148278   1.228   2.802   7.296  0.8173 -0.4233 -0.4919
15705SOL    HW248279   1.321   2.890   7.215  0.4877  1.5634  1.1817
15706SOL     OW48280   6.287   3.584   0.393 -0.0182 -0.1005  0.1980
15706SOL    HW148281   6.234   3.613   0.467  1.0862  0.5504  0.7729
15706SOL    HW248282   6.246   3.503   0.363 -0.2496 -0.6085  1.7946
15707SOL     OW48283   8.503   8.803   1.309 -0.3641 -0.6144 -0.3096
15707SOL    HW148284   8.511   8.715   1.271  0.6219 -0.7643  0.2197
15707SOL    HW248285   8.427   8.797   1.367  0.2911 -1.4084  0.4878
15708SOL     OW48286   0.449   0.698   7.164  0.2774 -0.1203 -0.2222
15708SOL    HW148287   0.412   0.770   7.216 -2.2993 -0.7987 -0.9660
15708SOL    HW248288   0.542   0.697   7.188 -0.1926  1.5054  2.0696
15709SOL     OW48289   6.150   5.067   7.676  0.2329 -0.0623  0.2866
15709SOL    HW148290   6.218   5.017   7.721  1.1559  0.7266 -0.1997
15709SOL    HW248291   6.197   5.138   7.632 -0.7124 -0.4078 -1.3671
15710SOL     OW48292   4.413   0.535   6.776  0.0017  0.4489 -0.1354
15710SOL    HW148293   4.349   0.599   6.744 -1.3983 -0.5016  0.6557
15710SOL    HW248294   4.366   0.487   6.845  2.1470  0.8730  1.7091
15711SOL     OW48295   3.144   4.857   5.767 -0.7126  0.0468  0.5362
15711SOL    HW148296   3.107   4.826   5.850 -0.0608 -1.5263  0.2565
15711SOL    HW248297   3.100   4.941   5.752 -1.8614 -0.2965  1.7698
15712SOL     OW48298   6.640   6.726   3.211  0.2673  0.6475  0.4713
15712SOL    HW148299   6.676   6.644   3.177 -0.8561  0.3947 -0.1527
15712SOL    HW248300   6.645   6.717   3.306 -1.8492 -1.1088  0.4830
15713SOL     OW48301   7.073   6.191   5.624 -0.1214 -0.1152  0.6447
15713SOL    HW148302   7.144   6.160   5.569  0.7050 -0.1384  1.6947
15713SOL    HW248303   7.073   6.286   5.612 -0.1649 -0.1513  0.3558
15714SOL     OW48304   2.025   0.225   0.244  0.6624  0.0557  0.0748
15714SOL    HW148305   1.980   0.145   0.215  1.7395 -0.2148 -0.9536
15714SOL    HW248306   2.065   0.260   0.164  0.9711  1.1316  0.6818
15715SOL     OW48307   0.477   3.686   7.500 -0.0729 -0.7690  0.0377
15715SOL    HW148308   0.408   3.748   7.523  0.6844 -1.0336  3.5337
15715SOL    HW248309   0.555   3.740   7.488 -0.3943 -0.6663 -1.8820
15716SOL     OW48310   5.502   3.556   6.791  0.8259  0.0121 -0.3061
15716SOL    HW148311   5.446   3.487   6.754 -0.0906 -0.4350  1.7611
15716SOL    HW248312   5.442   3.630   6.804  1.4236  0.6107 -0.9019
15717SOL     OW48313   3.393   3.372   1.811 -0.5167 -0.1244 -0.4100
15717SOL    HW148314   3.403   3.422   1.730  2.6730 -1.5122 -1.0001
15717SOL    HW248315   3.421   3.432   1.879 -0.1986  0.0383 -0.6829
15718SOL     OW48316   7.642   0.320   8.256  0.2372  0.0686  0.4731
15718SOL    HW148317   7.581   0.249   8.234 -2.1902  2.0223  0.4455
15718SOL    HW248318   7.712   0.311   8.191 -2.5119  0.6067 -2.8911
15719SOL     OW48319   7.618   7.174   7.579  0.5572  0.8423 -0.2845
15719SOL    HW148320   7.568   7.174   7.661  0.8026 -0.3570 -0.1161
15719SOL    HW248321   7.556   7.208   7.514 -0.5215 -0.6341 -0.0884
15720SOL     OW48322   1.819   1.546   8.008 -0.4819 -0.1575  0.0369
15720SOL    HW148323   1.910   1.546   7.978 -0.1962  0.6821  0.8691
15720SOL    HW248324   1.768   1.550   7.927  0.2151 -0.4362 -0.4351
15721SOL     OW48325   7.812   8.554   4.291 -0.0141 -0.3232  0.1401
15721SOL    HW148326   7.880   8.598   4.240  0.9134  1.1303  2.4954
15721SOL    HW248327   7.744   8.620   4.302 -0.4910 -0.8328  0.2735
15722SOL     OW48328   0.915   4.483   0.611  0.4034  0.2638  0.4844
15722SOL    HW148329   0.977   4.481   0.538 -0.3339  1.2276 -0.1963
15722SOL    HW248330   0.907   4.576   0.632 -2.0519  0.3578 -0.5594
15723SOL     OW48331   7.638   6.571   1.868  0.1824  0.0851  0.3042
15723SOL    HW148332   7.574   6.639   1.848 -0.3285 -0.9037 -1.7261
15723SOL    HW248333   7.595   6.517   1.935 -0.5245  0.2620  0.0056
15724SOL     OW48334   4.456   5.721   3.993 -0.3448 -0.0201  0.1973
15724SOL    HW148335   4.409   5.781   3.935 -1.3058  1.3006  2.2104
15724SOL    HW248336   4.428   5.746   4.081  3.2984  0.1067  1.5025
15725SOL     OW48337   3.163   5.028   7.541 -0.0791 -0.2185 -0.0047
15725SOL    HW148338   3.234   5.043   7.478 -1.3331  1.2660 -1.1649
15725SOL    HW248339   3.147   5.114   7.580 -1.3592 -0.4788  0.0853
15726SOL     OW48340   0.144   2.094   4.651  0.3240  0.1934 -0.3740
15726SOL    HW148341   0.157   2.007   4.614  1.6787  0.1117  0.2518
15726SOL    HW248342   0.221   2.144   4.625 -0.4310  1.2226 -0.7259
15727SOL     OW48343   6.792   1.353   1.624 -0.3943  0.4849 -0.2733
15727SOL    HW148344   6.731   1.297   1.672  1.3762 -0.8399  0.5694
15727SOL    HW248345   6.807   1.428   1.682 -1.2643  0.8732 -0.5337
15728SOL     OW48346   1.885   1.455   1.982 -0.1266 -0.1132  0.4143
15728SOL    HW148347   1.961   1.466   2.039 -0.7700 -0.9678  1.4754
15728SOL    HW248348   1.813   1.493   2.031 -0.8447 -1.6118  0.5700
15729SOL     OW48349   3.793   6.344   3.621  0.1875 -0.1945 -0.5196
15729SOL    HW148350   3.769   6.403   3.692  2.2394 -1.1759  1.0709
15729SOL    HW248351   3.855   6.393   3.567  0.7236 -0.3625 -0.0623
15730SOL     OW48352   4.410   5.996   4.966  0.2862  0.0364  0.0262
15730SOL    HW148353   4.357   6.073   4.982 -0.9208 -0.4628 -1.3693
15730SOL    HW248354   4.394   5.939   5.041 -0.3676  0.3173  0.1010
15731SOL     OW48355   1.613   3.226   5.781  0.5325 -0.3186  0.4288
15731SOL    HW148356   1.544   3.181   5.829  0.2664 -0.7058 -0.2948
15731SOL    HW248357   1.637   3.165   5.711  0.8727  0.2456  0.0436
15732SOL     OW48358   7.534   0.869   2.110 -0.3782 -0.0419  0.2900
15732SOL    HW148359   7.474   0.918   2.054 -0.5016 -1.5709 -0.9973
15732SOL    HW248360   7.620   0.905   2.090 -0.4171 -0.5945 -0.9779
15733SOL     OW48361   0.208   2.169   1.578 -0.0660  0.3238  0.1330
15733SOL    HW148362   0.224   2.076   1.561 -0.6899  0.0534  0.9561
15733SOL    HW248363   0.294   2.210   1.570  0.3440 -0.4469  0.4933
15734SOL     OW48364   5.770   5.171   5.913  0.3541 -0.3877 -0.1316
15734SOL    HW148365   5.847   5.200   5.865 -0.3607 -0.9372 -1.6571
15734SOL    HW248366   5.712   5.134   5.847 -0.7900 -0.9349  1.1168
15735SOL     OW48367   2.872   4.836   4.141  0.4679 -0.2466  0.3181
15735SOL    HW148368   2.798   4.893   4.119  0.5346 -0.0802  0.5238
15735SOL    HW248369   2.867   4.824   4.236  1.7963  1.3232  0.6351
15736SOL     OW48370   4.459   4.205   5.977 -0.3126  0.3191  0.3471
15736SOL    HW148371   4.469   4.285   5.926  0.6616  0.6391  0.9981
15736SOL    HW248372   4.370   4.176   5.960 -0.4337  1.1348 -0.4837
15737SOL     OW48373   7.925   3.369   5.900  0.3780 -0.3549  0.0741
15737SOL    HW148374   7.897   3.420   5.824  0.8667  0.3631  0.3552
15737SOL    HW248375   8.005   3.413   5.929 -0.7661  0.5300  2.0895
15738SOL     OW48376   7.748   6.047   3.519  0.8010 -0.1204  0.1811
15738SOL    HW148377   7.762   5.970   3.573  0.9608 -0.1327  0.1222
15738SOL    HW248378   7.823   6.104   3.539  0.9907 -0.2296 -0.2098
15739SOL     OW48379   2.023   4.135   0.432 -0.1925 -0.3689 -1.1413
15739SOL    HW148380   1.934   4.123   0.465  0.6061 -1.0833  0.9313
15739SOL    HW248381   2.024   4.223   0.394 -1.4507  0.1339 -0.0633
15740SOL     OW48382   8.296   5.290   7.338 -0.4309  0.1514  0.2580
15740SOL    HW148383   8.249   5.315   7.258 -0.6571  0.1345  0.3850
15740SOL    HW248384   8.232   5.301   7.408 -0.9509 -2.0059  0.1955
15741SOL     OW48385   8.394   4.545   2.918  0.4465  0.0248  0.1884
15741SOL    HW148386   8.348   4.493   2.852 -1.0634  0.7668  0.6032
15741SOL    HW248387   8.422   4.481   2.984 -0.4483 -0.4099  0.1661
15742SOL     OW48388   6.505   7.681   6.149 -0.0475 -0.2049 -0.4430
15742SOL    HW148389   6.480   7.595   6.115  1.0616 -0.6214 -0.2588
15742SOL    HW248390   6.592   7.667   6.185 -0.7228  0.4917  1.5597
15743SOL     OW48391   5.775   8.033   0.498 -0.3994  0.0301 -0.4759
15743SOL    HW148392   5.823   7.958   0.464 -1.8268 -0.8667 -0.5801
15743SOL    HW248393   5.749   8.082   0.420 -0.9425 -0.3097 -0.5142
15744SOL     OW48394   6.093   2.200   6.246 -0.0767 -0.5072  0.0485
15744SOL    HW148395   6.153   2.158   6.308  0.1614 -0.7214 -0.3190
15744SOL    HW248396   6.128   2.176   6.160 -1.2319 -1.4440 -0.1924
15745SOL     OW48397   5.540   1.220   0.071  0.3484  0.6121  0.2132
15745SOL    HW148398   5.537   1.274   0.150  2.6333  2.0442 -0.5595
15745SOL    HW248399   5.601   1.149   0.093  0.9749  1.0027 -0.2173
15746SOL     OW48400   7.101   4.385   7.351 -0.1424  0.6822  0.2903
15746SOL    HW148401   7.194   4.373   7.371 -0.0497  1.0782  0.1152
15746SOL    HW248402   7.075   4.303   7.310  0.0236  0.4094  0.7178
15747SOL     OW48403   3.567   0.250   0.963 -0.3224 -0.2237 -0.6264
15747SOL    HW148404   3.525   0.165   0.973 -0.0796 -0.2699  0.0569
15747SOL    HW248405   3.494   0.313   0.958 -0.5439 -0.0737  2.5408
15748SOL     OW48406   1.723   7.481   8.199  0.1821 -0.0758 -0.3263
15748SOL    HW148407   1.734   7.533   8.120 -2.6407  0.5965 -0.3634
15748SOL    HW248408   1.715   7.391   8.168 -0.1681  0.0995 -0.7550
15749SOL     OW48409   0.616   7.922   7.347 -0.0552  0.2809  0.2460
15749SOL    HW148410   0.635   8.002   7.297 -2.0934  0.7362  0.1198
15749SOL    HW248411   0.700   7.878   7.354  1.3115  2.8065  0.9828
15750SOL     OW48412   2.907   2.403   0.991 -0.2100 -0.5524 -0.2197
15750SOL    HW148413   2.866   2.318   1.005 -0.0449 -0.5986 -0.0106
15750SOL    HW248414   2.994   2.382   0.955 -0.7506 -0.4319 -1.6748
15751SOL     OW48415   1.740   0.272   1.521 -0.1042  1.2838  0.6357
15751SOL    HW148416   1.797   0.219   1.576 -0.3056  2.1100  1.6590
15751SOL    HW248417   1.779   0.360   1.523 -0.9276  1.6587  0.6539
15752SOL     OW48418   5.678   8.785   5.508 -0.1567 -0.0321  0.1976
15752SOL    HW148419   5.765   8.796   5.545 -0.2038  1.9552 -0.1940
15752SOL    HW248420   5.655   8.871   5.473 -0.6811 -1.3725 -3.2137
15753SOL     OW48421   8.435   2.561   1.627 -0.3471 -0.0101  0.2927
15753SOL    HW148422   8.352   2.516   1.646 -0.5890  0.3784  0.1779
15753SOL    HW248423   8.409   2.652   1.609  0.2710  0.5454  2.0062
15754SOL     OW48424   1.622   0.195   0.214 -0.0068 -0.7006  0.4222
15754SOL    HW148425   1.607   0.116   0.265  1.4733 -2.8109 -2.1170
15754SOL    HW248426   1.590   0.173   0.126  0.6256  1.4585 -0.4183
15755SOL     OW48427   3.490   7.791   4.386  0.2276  1.0529  0.1559
15755SOL    HW148428   3.509   7.745   4.467  1.0478  1.4276  0.1903
15755SOL    HW248429   3.484   7.722   4.320 -0.1833  0.7698  0.4812
15756SOL     OW48430   2.659   7.807   0.573 -0.6609  0.1018  0.7054
15756SOL    HW148431   2.619   7.747   0.511 -0.2394  1.2741 -0.7694
15756SOL    HW248432   2.594   7.817   0.642 -1.7267 -0.2083 -0.2222
15757SOL     OW48433   0.127   7.441   6.475 -0.0282  0.7063 -0.3280
15757SOL    HW148434   0.162   7.530   6.485  1.0260  0.2667 -0.0194
15757SOL    HW248435   0.074   7.427   6.553 -0.1817  1.0490 -0.3669
15758SOL     OW48436   8.607   4.476   1.071  0.3880 -0.2753 -0.6941
15758SOL    HW148437   8.578   4.386   1.085 -1.3092  0.4410  0.8099
15758SOL    HW248438   8.544   4.529   1.120  3.3009  1.5524  1.4058
15759SOL     OW48439   2.496   3.351   5.071  0.9263  0.0123 -0.0170
15759SOL    HW148440   2.482   3.278   5.130  0.8919 -0.9281 -1.1525
15759SOL    HW248441   2.408   3.383   5.051  0.9901  1.3600  1.6352
15760SOL     OW48442   7.172   5.324   4.419 -0.0720 -0.0104 -0.1389
15760SOL    HW148443   7.181   5.265   4.494  1.1206  0.9210  0.4735
15760SOL    HW248444   7.224   5.400   4.441 -0.0565  0.4837 -1.7345
15761SOL     OW48445   6.554   5.221   0.068  0.0312  0.5410 -0.3783
15761SOL    HW148446   6.558   5.173   0.151 -0.7960 -1.0128 -1.1745
15761SOL    HW248447   6.575   5.155   0.001 -1.5512  1.1529 -1.5595
15762SOL     OW48448   8.795   2.240   7.283 -0.1118 -0.2228 -0.1891
15762SOL    HW148449   8.734   2.221   7.355  0.6864 -1.3390  0.2265
15762SOL    HW248450   8.740   2.238   7.205 -0.5459 -1.7723  0.1190
15763SOL     OW48451   1.595   5.485   1.632 -0.4734 -0.0413 -0.2390
15763SOL    HW148452   1.566   5.549   1.568 -1.8968 -2.0130 -1.6993
15763SOL    HW248453   1.540   5.500   1.708 -0.4714  0.7532 -0.3890
15764SOL     OW48454   7.929   2.774   3.454  0.3248 -0.0940 -0.1233
15764SOL    HW148455   7.853   2.718   3.468  1.9068 -2.1359  0.8823
15764SOL    HW248456   7.902   2.860   3.485 -1.5315 -0.7698  0.2366
15765SOL     OW48457   6.321   5.683   0.665 -0.0482  0.1452 -0.0932
15765SOL    HW148458   6.388   5.700   0.599 -1.1182 -0.3394 -1.3687
15765SOL    HW248459   6.324   5.588   0.679  1.6634  0.4695  2.2766
15766SOL     OW48460   7.496   8.015   0.442  0.7750  0.0937 -0.2388
15766SOL    HW148461   7.437   8.060   0.502  1.0891  2.4261 -1.5898
15766SOL    HW248462   7.580   8.059   0.453  1.3031 -0.6676 -1.0759
15767SOL     OW48463   6.661   7.089   5.650  0.1813 -0.5445 -0.7115
15767SOL    HW148464   6.582   7.068   5.698 -0.1417  0.9223 -0.5489
15767SOL    HW248465   6.723   7.120   5.716  0.7731 -1.3475 -0.8779
15768SOL     OW48466   2.479   7.720   6.752  0.0466 -0.0684  0.2931
15768SOL    HW148467   2.383   7.721   6.755  0.0248 -0.7036  0.0595
15768SOL    HW248468   2.506   7.739   6.842 -0.3256 -1.1113  0.6439
15769SOL     OW48469   1.168   0.507   2.338  0.4019  0.1222 -0.0018
15769SOL    HW148470   1.243   0.457   2.370  1.0184  1.4780  0.7753
15769SOL    HW248471   1.110   0.442   2.299  1.1859 -1.1821  0.9370
15770SOL     OW48472   1.600   8.496   6.440  0.5064 -0.5122 -0.0193
15770SOL    HW148473   1.625   8.588   6.431 -2.9730  0.5517 -0.3413
15770SOL    HW248474   1.629   8.472   6.528  0.7682  1.1616  0.3896
15771SOL     OW48475   0.338   5.809   7.561 -0.1963  0.5412  0.1646
15771SOL    HW148476   0.305   5.768   7.481 -1.4204  0.1275  0.8701
15771SOL    HW248477   0.404   5.872   7.530  0.5642 -0.7864 -1.0504
15772SOL     OW48478   4.014   3.115   4.575  0.3775 -1.0553  0.2072
15772SOL    HW148479   4.005   3.085   4.666  0.0692  0.8518  0.8405
15772SOL    HW248480   3.968   3.199   4.573 -1.0485 -1.7991 -2.1320
15773SOL     OW48481   1.945   7.060   2.954 -0.3550  0.1742  0.1999
15773SOL    HW148482   1.927   7.153   2.946 -0.7168  0.2376  1.5138
15773SOL    HW248483   1.914   7.022   2.872 -1.2799  1.0502  0.1324
15774SOL     OW48484   0.270   6.904   7.950  0.1370 -0.3175  0.2060
15774SOL    HW148485   0.196   6.887   8.007  0.4059 -1.1481  0.3226
15774SOL    HW248486   0.339   6.936   8.008  1.1723 -3.2730  0.7987
15775SOL     OW48487   6.275   7.317   3.251  0.3850 -0.1654 -0.0138
15775SOL    HW148488   6.248   7.337   3.161  2.0705 -0.2975 -0.5860
15775SOL    HW248489   6.321   7.395   3.280  0.8013 -0.5339  0.3363
15776SOL     OW48490   0.533   4.205   4.164  0.3629  0.6304  0.0985
15776SOL    HW148491   0.534   4.110   4.155 -0.7327  0.6565 -0.4672
15776SOL    HW248492   0.543   4.221   4.258 -0.4856 -0.0909  0.3273
15777SOL     OW48493   0.613   1.385   8.650  0.2643  0.5381  0.0173
15777SOL    HW148494   0.597   1.390   8.555  0.4633  3.5801  0.0160
15777SOL    HW248495   0.531   1.355   8.687 -0.3062  0.7224 -1.0565
15778SOL     OW48496   3.985   8.612   6.796 -0.3857 -0.1475 -0.3853
15778SOL    HW148497   3.960   8.694   6.839  1.9173  0.2472  0.3151
15778SOL    HW248498   3.995   8.549   6.868  1.0086 -0.1505 -0.5534
15779SOL     OW48499   1.870   3.319   6.028 -0.0233 -0.4440  0.0718
15779SOL    HW148500   1.798   3.383   6.034  0.8899  0.6452 -0.2239
15779SOL    HW248501   1.826   3.235   6.021 -1.2781  0.1762  0.0852
15780SOL     OW48502   2.991   0.496   7.521 -0.4551  0.4210  0.0647
15780SOL    HW148503   2.968   0.446   7.443  0.3992 -1.9444  1.2298
15780SOL    HW248504   3.086   0.505   7.516 -0.4547  0.7228  0.5514
15781SOL     OW48505   7.864   8.429   1.217  0.2528 -0.2051  0.5455
15781SOL    HW148506   7.832   8.342   1.242  0.8996 -0.7410 -0.4767
15781SOL    HW248507   7.927   8.451   1.285 -0.0664 -0.4354  0.9246
15782SOL     OW48508   6.180   0.726   3.919  0.6251 -0.1928 -0.1784
15782SOL    HW148509   6.184   0.633   3.940  1.0918  0.2979  2.2804
15782SOL    HW248510   6.272   0.753   3.914  0.5495 -0.1614 -2.7844
15783SOL     OW48511   1.623   1.758   3.048  0.5533 -0.1575  0.1951
15783SOL    HW148512   1.679   1.786   2.975 -1.3718 -0.9526 -1.6995
15783SOL    HW248513   1.570   1.688   3.011 -0.5806 -0.5180  2.3768
15784SOL     OW48514   8.194   3.127   4.508 -0.2024  0.3795  0.4359
15784SOL    HW148515   8.247   3.048   4.495  0.7059  1.2842 -1.8591
15784SOL    HW248516   8.252   3.189   4.552  0.8354  1.4122 -2.1838
15785SOL     OW48517   0.853   3.178   2.951  0.2670 -0.0483 -0.0198
15785SOL    HW148518   0.863   3.083   2.958  2.2292  0.0560 -0.8282
15785SOL    HW248519   0.759   3.193   2.962  0.0748 -1.9458  1.3982
15786SOL     OW48520   4.711   8.021   3.320 -0.1703  0.7868  0.0520
15786SOL    HW148521   4.699   7.938   3.366  1.3947  0.7065  0.3738
15786SOL    HW248522   4.719   8.087   3.389 -0.1123  1.0202 -0.1744
15787SOL     OW48523   5.156   5.897   3.738  0.0990  0.3203 -0.2788
15787SOL    HW148524   5.195   5.977   3.702  1.3763 -0.9856 -1.9752
15787SOL    HW248525   5.113   5.856   3.663 -1.8767  0.1242  0.8932
15788SOL     OW48526   2.118   8.455   3.536 -0.1822  0.1086 -0.2468
15788SOL    HW148527   2.205   8.488   3.558 -0.8383  1.9299 -0.2477
15788SOL    HW248528   2.070   8.456   3.619 -0.3880 -0.2911 -0.3594
15789SOL     OW48529   2.745   8.065   1.974 -0.1811 -0.4549 -0.9240
15789SOL    HW148530   2.714   7.979   1.945 -1.0946 -0.6296  0.4754
15789SOL    HW248531   2.722   8.069   2.067  2.6073  0.0421 -0.1453
15790SOL     OW48532   6.664   7.370   3.661 -0.4712  0.4741  0.5218
15790SOL    HW148533   6.570   7.357   3.673 -0.4490  0.7625  1.0502
15790SOL    HW248534   6.672   7.413   3.575 -0.8260  0.4794  0.4927
15791SOL     OW48535   6.869   7.293   2.506  0.0377  0.2667 -0.5639
15791SOL    HW148536   6.832   7.237   2.438  1.2325  1.0762 -1.9084
15791SOL    HW248537   6.811   7.369   2.509  0.5724  0.7178 -1.4331
15792SOL     OW48538   4.427   4.539   1.994 -0.3570  0.2909  0.2034
15792SOL    HW148539   4.445   4.619   2.043  0.5441 -0.0774  0.5045
15792SOL    HW248540   4.513   4.497   1.984 -0.7779 -0.5161 -0.1518
15793SOL     OW48541   8.076   1.015   0.745 -0.3283 -0.1475  0.0835
15793SOL    HW148542   8.002   1.075   0.743 -0.0559  0.2451  1.1059
15793SOL    HW248543   8.125   1.034   0.665 -0.6422  0.4885  0.0374
15794SOL     OW48544   7.386   1.392   7.897 -0.6551 -0.4022 -0.0025
15794SOL    HW148545   7.353   1.347   7.820 -1.1383  0.1082 -0.0995
15794SOL    HW248546   7.431   1.469   7.863 -2.3033  0.7472  0.2623
15795SOL     OW48547   1.363   6.546   6.838 -0.3192  0.0325  0.0352
15795SOL    HW148548   1.456   6.544   6.857 -0.0898  1.1142 -0.8703
15795SOL    HW248549   1.350   6.483   6.768  0.1902  1.6116 -1.5564
15796SOL     OW48550   4.374   1.688   5.884 -0.0109 -0.9006 -0.4187
15796SOL    HW148551   4.467   1.667   5.879  0.2678 -0.0503  0.7296
15796SOL    HW248552   4.359   1.711   5.976 -0.8140  1.2436 -1.0262
15797SOL     OW48553   7.770   4.867   2.274  0.8204  0.1054 -0.8301
15797SOL    HW148554   7.842   4.811   2.245 -0.7324 -1.4279 -1.9318
15797SOL    HW248555   7.714   4.809   2.324  0.6201  1.4229  0.5266
15798SOL     OW48556   0.125   5.809   8.712  0.5781 -0.1915  0.1901
15798SOL    HW148557   0.211   5.832   8.748  1.3154 -2.0094 -0.2975
15798SOL    HW248558   0.063   5.833   8.780  1.5245  0.5916  0.7973
15799SOL     OW48559   4.953   3.410   5.671 -0.0205  0.7730  0.0775
15799SOL    HW148560   4.872   3.359   5.675  0.9075 -0.7637  0.1411
15799SOL    HW248561   4.938   3.484   5.730 -0.7058 -0.4964  1.5591
15800SOL     OW48562   3.855   6.144   8.248 -0.1838  0.8511  0.3775
15800SOL    HW148563   3.841   6.228   8.204  2.4492  0.4422 -1.4767
15800SOL    HW248564   3.943   6.151   8.284 -0.3262 -0.7720  1.1038
15801SOL     OW48565   6.534   4.095   1.272 -0.0555  0.2563 -0.4831
15801SOL    HW148566   6.562   4.186   1.259  0.4135  0.0115 -1.2819
15801SOL    HW248567   6.554   4.052   1.188  0.0207 -0.6569 -0.0060
15802SOL     OW48568   4.139   7.647   6.680  0.2703  0.3687 -0.1278
15802SOL    HW148569   4.075   7.635   6.610  0.0755  0.7214 -0.0095
15802SOL    HW248570   4.137   7.565   6.729 -0.3351  0.5048  0.0795
15803SOL     OW48571   3.022   1.858   5.299 -0.0426  0.3342 -0.2673
15803SOL    HW148572   3.064   1.911   5.367 -0.7952  1.0779 -0.3685
15803SOL    HW248573   3.019   1.770   5.337  1.6767  0.2214 -0.3016
15804SOL     OW48574   5.684   7.347   3.408 -0.2070  0.1980 -0.4316
15804SOL    HW148575   5.599   7.324   3.371 -2.0232  2.8143  1.6539
15804SOL    HW248576   5.681   7.312   3.497  0.0104  1.9016  0.2919
15805SOL     OW48577   6.179   5.014   5.583  0.7452 -0.2806  0.7621
15805SOL    HW148578   6.212   5.096   5.547  0.8258 -1.5054 -2.3231
15805SOL    HW248579   6.237   4.947   5.547  0.0397 -1.7981  2.3026
15806SOL     OW48580   6.058   6.441   7.181  0.0946 -0.5220  0.3587
15806SOL    HW148581   5.970   6.465   7.153 -0.3781 -0.8896  1.4540
15806SOL    HW248582   6.114   6.459   7.105 -0.6553  1.3071  0.1900
15807SOL     OW48583   6.136   5.882   6.084  0.1450  0.4036 -0.0943
15807SOL    HW148584   6.106   5.792   6.091 -1.8898  1.1366  4.1315
15807SOL    HW248585   6.061   5.931   6.051  0.8857  0.7207 -1.3544
15808SOL     OW48586   1.065   2.871   8.054  0.1630 -0.2105  0.4685
15808SOL    HW148587   1.139   2.830   8.098 -0.3621 -1.1027  0.5497
15808SOL    HW248588   1.103   2.943   8.004  1.0749 -0.6248  0.5529
15809SOL     OW48589   5.084   5.993   4.765 -0.6713 -0.0950  0.3361
15809SOL    HW148590   5.132   6.000   4.848  0.4144  4.1393 -0.4307
15809SOL    HW248591   5.152   5.994   4.698 -1.6563 -1.0422 -0.7259
15810SOL     OW48592   8.566   0.747   7.755  0.1072 -0.0196 -0.2233
15810SOL    HW148593   8.618   0.756   7.835  0.5284  0.3958 -0.5351
15810SOL    HW248594   8.550   0.653   7.747 -1.2936  0.0679  1.1898
15811SOL     OW48595   8.451   8.675   8.602 -0.2432  0.3634  0.2348
15811SOL    HW148596   8.424   8.615   8.532  3.2768  0.7489 -1.7121
15811SOL    HW248597   8.408   8.641   8.681 -1.2908 -2.4892 -1.4180
15812SOL     OW48598   7.620   1.004   4.546 -0.3310 -0.1556  0.5246
15812SOL    HW148599   7.588   1.027   4.459 -1.2196  0.2810  0.9551
15812SOL    HW248600   7.713   1.028   4.545 -0.3953  0.0757 -0.2130
15813SOL     OW48601   7.706   0.914   3.780  0.6327  0.2587  0.2614
15813SOL    HW148602   7.640   0.971   3.741  0.1438 -1.9840 -2.5274
15813SOL    HW248603   7.784   0.928   3.727  0.8365 -0.7890  0.2569
15814SOL     OW48604   6.934   1.163   6.957 -0.2169  0.2046 -0.2439
15814SOL    HW148605   6.895   1.179   7.043  0.7076 -1.0220  0.4367
15814SOL    HW248606   7.010   1.222   6.953  0.0263 -0.0889 -0.0046
15815SOL     OW48607   0.997   3.628   4.699 -0.3496 -0.3865  0.0447
15815SOL    HW148608   0.935   3.682   4.651 -0.9310  1.2527  2.4363
15815SOL    HW248609   0.944   3.563   4.744  0.0550 -1.1508 -0.5586
15816SOL     OW48610   2.546   8.158   1.554  0.4263  0.0526 -0.1367
15816SOL    HW148611   2.564   8.070   1.588  0.4109  0.3968  0.7808
15816SOL    HW248612   2.603   8.165   1.477  1.1695 -0.3913  0.3563
15817SOL     OW48613   3.134   8.147   2.149  0.5332  0.9508  0.4838
15817SOL    HW148614   3.218   8.142   2.103 -0.2380  0.5758 -0.9654
15817SOL    HW248615   3.069   8.119   2.083 -0.6278  0.2694  1.8510
15818SOL     OW48616   8.749   2.327   5.052 -0.5977 -0.0137  0.1215
15818SOL    HW148617   8.808   2.364   4.986 -0.2063 -0.3619  0.2750
15818SOL    HW248618   8.766   2.233   5.050 -0.8283 -0.0657  0.4824
15819SOL     OW48619   3.998   3.738   7.625  0.7753 -0.0789 -0.6546
15819SOL    HW148620   4.068   3.679   7.598  1.1184 -0.2396  0.5049
15819SOL    HW248621   3.928   3.723   7.561  0.4033 -2.6091  0.2196
15820SOL     OW48622   1.812   8.207   0.498 -0.7301  0.1113 -0.6878
15820SOL    HW148623   1.796   8.294   0.462  1.4631  1.5854  1.5313
15820SOL    HW248624   1.907   8.195   0.491  0.2693  1.2007  5.2613
15821SOL     OW48625   5.268   3.283   5.396 -0.0361 -0.0389 -0.3977
15821SOL    HW148626   5.249   3.377   5.400 -2.1062 -0.3177 -2.2069
15821SOL    HW248627   5.249   3.251   5.485  0.2357  1.1507  0.1077
15822SOL     OW48628   2.526   5.870   0.245 -0.1486  0.3722  0.4235
15822SOL    HW148629   2.591   5.936   0.222 -0.5430  0.4451 -0.5207
15822SOL    HW248630   2.503   5.889   0.336  0.3232  1.0398  0.4031
15823SOL     OW48631   5.711   4.506   4.837  0.0901 -0.1735 -0.0117
15823SOL    HW148632   5.785   4.457   4.803 -0.7125 -1.0790 -0.5311
15823SOL    HW248633   5.662   4.442   4.889  1.3298  1.1930  3.0214
15824SOL     OW48634   7.188   8.379   1.341 -0.5335 -0.0224  0.0090
15824SOL    HW148635   7.204   8.460   1.389 -2.3855  0.2194  0.2978
15824SOL    HW248636   7.092   8.374   1.334 -0.4007 -1.4458 -1.2715
15825SOL     OW48637   8.037   5.452   6.879 -0.1800 -0.3440 -0.4171
15825SOL    HW148638   7.953   5.442   6.835 -0.4289  1.0874 -0.3355
15825SOL    HW248639   8.074   5.533   6.842  1.9022 -1.7417 -1.6052
15826SOL     OW48640   4.179   3.476   5.108  0.4222  0.2903 -0.8882
15826SOL    HW148641   4.085   3.487   5.095  0.8508  2.0955 -3.0530
15826SOL    HW248642   4.208   3.556   5.151  0.6961 -1.2894  2.1568
15827SOL     OW48643   8.586   2.386   1.809  0.0821  0.2934  0.0886
15827SOL    HW148644   8.572   2.443   1.885 -0.9583 -1.0732  0.9686
15827SOL    HW248645   8.517   2.411   1.748 -0.4352 -0.0691  0.5141
15828SOL     OW48646   4.057   3.000   0.172  0.0007 -0.0474  0.5338
15828SOL    HW148647   4.063   3.060   0.099 -0.7362 -0.7227 -0.0992
15828SOL    HW248648   4.008   3.048   0.239 -1.1182 -0.1373 -0.1909
15829SOL     OW48649   3.277   6.153   8.016  0.4402 -0.1745 -0.0357
15829SOL    HW148650   3.319   6.087   7.962 -0.7959 -0.7906 -0.2763
15829SOL    HW248651   3.224   6.205   7.955  0.4715  0.2942  0.3240
15830SOL     OW48652   4.565   8.177   8.611 -0.2760  0.4886 -0.6406
15830SOL    HW148653   4.533   8.149   8.525 -3.5262  1.5514  0.0970
15830SOL    HW248654   4.495   8.231   8.647  0.3049 -1.0009  3.2855
15831SOL     OW48655   2.839   2.759   4.301 -0.4852 -0.2013 -0.1640
15831SOL    HW148656   2.797   2.676   4.325 -1.2547 -0.0269 -0.8779
15831SOL    HW248657   2.792   2.825   4.351 -1.6792  0.0915 -1.6068
15832SOL     OW48658   8.344   4.854   8.047 -0.3652  0.1221  0.1616
15832SOL    HW148659   8.266   4.833   7.995 -0.5216 -0.2787  0.5477
15832SOL    HW248660   8.339   4.795   8.122  0.0696  0.4183  0.4278
15833SOL     OW48661   2.378   2.959   6.632  0.0485 -0.8837  0.4957
15833SOL    HW148662   2.352   3.020   6.701 -0.5131  0.0147 -0.4750
15833SOL    HW248663   2.455   2.914   6.667  2.4330  2.5262  0.1503
15834SOL     OW48664   7.496   2.625   5.080  0.1964  0.0381 -0.4620
15834SOL    HW148665   7.432   2.555   5.091 -1.2782  1.5245  1.0486
15834SOL    HW248666   7.575   2.591   5.122 -0.5418 -0.6754  0.4001
15835SOL     OW48667   5.586   1.008   5.102 -0.1813 -0.4176  0.3248
15835SOL    HW148668   5.562   0.993   5.194 -1.7523  0.9809  0.1920
15835SOL    HW248669   5.658   1.070   5.106  1.4027 -2.1924  0.6395
15836SOL     OW48670   2.328   1.722   2.400  0.0041 -0.3735  0.3637
15836SOL    HW148671   2.240   1.685   2.400 -0.4195  0.5099 -1.2539
15836SOL    HW248672   2.353   1.724   2.307  2.4657 -2.2230  0.8987
15837SOL     OW48673   4.354   7.924   0.913 -0.0822 -0.2917  0.0731
15837SOL    HW148674   4.362   7.933   1.008  0.6183  0.2394 -0.0230
15837SOL    HW248675   4.444   7.934   0.881 -0.2876 -0.6637 -0.6317
15838SOL     OW48676   0.682   4.801   1.485  0.1212  0.2598  0.4687
15838SOL    HW148677   0.623   4.772   1.415 -2.2113  1.5896  1.7501
15838SOL    HW248678   0.725   4.878   1.449  2.6694 -1.7379 -1.1602
15839SOL     OW48679   1.707   5.756   6.899 -0.2716 -0.9013  0.3473
15839SOL    HW148680   1.713   5.663   6.919 -0.1298 -0.7486  1.0371
15839SOL    HW248681   1.620   5.782   6.929  0.2381 -0.5002  1.5160
15840SOL     OW48682   2.870   2.799   7.483 -0.2089  0.7052 -0.1962
15840SOL    HW148683   2.881   2.705   7.500  0.8289  0.4236 -2.1186
15840SOL    HW248684   2.955   2.827   7.447 -1.4042  1.6999 -2.4010
15841SOL     OW48685   6.244   3.476   6.233 -0.3914  0.4546  0.3483
15841SOL    HW148686   6.152   3.447   6.230 -0.5411  0.8525  0.8334
15841SOL    HW248687   6.243   3.550   6.294  0.0483  1.2241 -0.5585
15842SOL     OW48688   8.415   5.495   8.709  0.0942 -0.9236  0.3161
15842SOL    HW148689   8.455   5.562   8.654 -1.1691 -0.1724  0.2563
15842SOL    HW248690   8.360   5.445   8.650 -2.3387  0.7306  1.0005
15843SOL     OW48691   6.021   4.280   5.367  0.0059 -0.0160 -0.2657
15843SOL    HW148692   6.018   4.373   5.389 -0.0472  0.0545 -0.5715
15843SOL    HW248693   6.114   4.261   5.357 -0.0585  0.5637 -2.5424
15844SOL     OW48694   0.636   5.087   6.289  0.1792 -0.2345 -0.6752
15844SOL    HW148695   0.629   4.993   6.278 -1.1147 -0.3450  0.7753
15844SOL    HW248696   0.730   5.104   6.289  0.5193 -1.8049  0.9604
15845SOL     OW48697   0.242   7.451   6.184 -0.3738 -0.0126  0.2951
15845SOL    HW148698   0.256   7.475   6.276  0.8836  0.4643  0.0055
15845SOL    HW248699   0.327   7.466   6.143 -1.1889  0.8162 -1.1753
15846SOL     OW48700   5.421   7.967   7.935  0.3101 -0.3428  0.0540
15846SOL    HW148701   5.351   7.951   7.998  1.0851 -1.8905  0.5634
15846SOL    HW248702   5.414   7.896   7.872  0.6621  0.1826 -0.5965
15847SOL     OW48703   4.733   1.747   4.984 -0.0357 -0.1347  0.4067
15847SOL    HW148704   4.816   1.698   4.988 -0.0678 -0.2077  0.2202
15847SOL    HW248705   4.759   1.839   4.994 -0.1303 -0.2842  2.3093
15848SOL     OW48706   5.745   7.603   7.030  0.1150  0.3470 -0.1067
15848SOL    HW148707   5.737   7.615   6.935  0.1336  1.8476  0.0525
15848SOL    HW248708   5.676   7.657   7.067  0.6985  0.5213  0.7638
15849SOL     OW48709   8.602   0.591   0.335 -0.2443  0.0140 -0.2686
15849SOL    HW148710   8.534   0.597   0.268 -1.4850  1.6275  1.0373
15849SOL    HW248711   8.590   0.504   0.373 -1.7208  0.3205  0.0357
15850SOL     OW48712   0.465   0.976   7.698 -0.0623  0.5402  0.1698
15850SOL    HW148713   0.493   0.934   7.779 -0.5942  1.1476  0.6760
15850SOL    HW248714   0.432   0.904   7.644  2.9333 -0.3089 -0.6975
15851SOL     OW48715   7.384   3.842   0.627 -0.0661 -0.4067  0.5159
15851SOL    HW148716   7.431   3.781   0.684  2.1174 -0.0397 -0.8138
15851SOL    HW248717   7.372   3.921   0.681  2.5868  0.1931  0.3673
15852SOL     OW48718   3.372   0.811   1.178  0.1679  0.2624 -0.3207
15852SOL    HW148719   3.338   0.858   1.254  0.1223  1.1894 -0.9062
15852SOL    HW248720   3.390   0.723   1.212 -1.9814 -0.0350  0.2280
15853SOL     OW48721   0.932   0.677   3.432  0.4469 -0.4567  0.0027
15853SOL    HW148722   0.940   0.583   3.417  0.5696 -0.5549  0.6647
15853SOL    HW248723   1.007   0.715   3.386  0.5361 -0.7064 -0.0564
15854SOL     OW48724   4.628   0.985   3.177 -0.0757 -0.1078 -0.5303
15854SOL    HW148725   4.601   0.893   3.185  0.9329 -0.3952 -0.2882
15854SOL    HW248726   4.718   0.986   3.211  0.2995  0.7785 -1.5153
15855SOL     OW48727   5.571   4.327   8.235  0.3197 -0.5398 -0.4074
15855SOL    HW148728   5.628   4.373   8.297 -0.6642  0.8288 -0.4662
15855SOL    HW248729   5.569   4.383   8.158 -0.3631 -1.0281 -0.7514
15856SOL     OW48730   5.020   1.523   5.547 -0.0798  0.1321  0.3950
15856SOL    HW148731   5.005   1.609   5.586  0.3691  0.3578  0.0761
15856SOL    HW248732   5.112   1.525   5.521  0.3315 -0.9497  1.6651
15857SOL     OW48733   4.071   7.422   6.265 -0.7621 -0.1490  0.3992
15857SOL    HW148734   4.043   7.467   6.345 -0.4883  1.4553 -0.3724
15857SOL    HW248735   4.095   7.492   6.205  0.5278 -1.3675 -0.5647
15858SOL     OW48736   2.520   2.915   2.553 -0.0235  0.1278 -0.6685
15858SOL    HW148737   2.534   2.837   2.607  0.4957  0.9501  0.4261
15858SOL    HW248738   2.608   2.946   2.532 -0.1952 -0.5593 -2.6167
15859SOL     OW48739   4.100   0.250   4.110 -0.0308 -0.6227 -0.1381
15859SOL    HW148740   4.080   0.157   4.104  1.9938 -1.0354 -1.4187
15859SOL    HW248741   4.140   0.260   4.197 -0.1750 -0.9599 -0.0311
15860SOL     OW48742   8.166   8.134   1.947  0.3033  1.0612  0.2197
15860SOL    HW148743   8.073   8.110   1.955  0.2556  0.5429 -1.5038
15860SOL    HW248744   8.204   8.109   2.031 -1.2058  1.7788  1.1646
15861SOL     OW48745   5.785   5.215   8.302 -0.0356 -0.1736  0.1092
15861SOL    HW148746   5.702   5.171   8.286 -0.3726  0.4142  0.1961
15861SOL    HW248747   5.845   5.177   8.238 -1.0080  1.1453 -1.7102
15862SOL     OW48748   5.879   6.170   8.431 -0.3089 -0.5356  0.2876
15862SOL    HW148749   5.973   6.156   8.423 -0.1283  1.2103 -1.2207
15862SOL    HW248750   5.870   6.257   8.468 -1.3434 -0.4627 -0.1029
15863SOL     OW48751   3.284   4.168   0.228  0.6584 -0.1681 -0.2670
15863SOL    HW148752   3.299   4.109   0.154  0.9081 -0.4943  0.0377
15863SOL    HW248753   3.260   4.111   0.300 -0.0258  0.1873 -0.2072
15864SOL     OW48754   0.621   3.316   3.895 -0.0068  0.2578 -0.6809
15864SOL    HW148755   0.529   3.302   3.920  0.2520 -0.3053 -0.0121
15864SOL    HW248756   0.671   3.284   3.970  0.7536  0.0343 -1.2739
15865SOL     OW48757   2.973   6.103   6.886 -0.6722  0.4392  0.0382
15865SOL    HW148758   2.927   6.163   6.943 -0.0310  1.1951 -0.2295
15865SOL    HW248759   3.048   6.153   6.852  0.0423 -0.5882  0.0410
15866SOL     OW48760   8.821   4.929   4.390 -0.0240 -0.1357  0.1410
15866SOL    HW148761   8.857   5.001   4.441  0.2165 -0.3077  0.2095
15866SOL    HW248762   8.895   4.871   4.374 -0.6091 -1.4097  1.8013
15867SOL     OW48763   2.833   4.796   8.773  0.6172  0.1306 -0.7388
15867SOL    HW148764   2.898   4.816   8.840  1.9289 -2.2986 -1.1618
15867SOL    HW248765   2.856   4.851   8.699  0.5882  1.1237 -0.0361
15868SOL     OW48766   0.725   5.998   6.923  0.3044 -0.3612  0.0363
15868SOL    HW148767   0.770   5.995   7.008 -0.1790 -1.4724  0.2723
15868SOL    HW248768   0.756   6.079   6.882  1.3021 -0.3075  0.8590
15869SOL     OW48769   5.400   3.419   6.019 -0.7275 -0.4239  0.4378
15869SOL    HW148770   5.325   3.474   5.995 -0.0404 -0.1345 -1.1895
15869SOL    HW248771   5.419   3.369   5.939  0.5100 -0.8490  0.9800
15870SOL     OW48772   0.045   7.737   0.805  0.1865  0.1409 -1.2152
15870SOL    HW148773   0.034   7.643   0.817 -0.9252  0.3881 -0.0945
15870SOL    HW248774  -0.041   7.768   0.776 -0.0193  1.0409  0.2131
15871SOL     OW48775   5.438   8.222   0.348 -0.8858  0.1275  0.3381
15871SOL    HW148776   5.480   8.173   0.419 -0.8474 -1.4913 -0.7449
15871SOL    HW248777   5.431   8.159   0.277 -3.6944  0.8147 -0.1024
15872SOL     OW48778   6.922   2.437   6.748  0.4229  0.5008 -0.3778
15872SOL    HW148779   6.994   2.406   6.803 -0.9961  1.5180  2.2602
15872SOL    HW248780   6.961   2.506   6.694  1.9102 -0.6325 -0.8156
15873SOL     OW48781   4.713   8.337   2.619  0.5549  0.0978  0.0401
15873SOL    HW148782   4.786   8.276   2.611  1.4061  1.0609  0.2759
15873SOL    HW248783   4.640   8.283   2.651  1.5784 -0.6068  1.2906
15874SOL     OW48784   7.308   2.910   5.794  0.0176  0.4233  0.4613
15874SOL    HW148785   7.385   2.860   5.822  0.5906  0.6505 -0.6176
15874SOL    HW248786   7.275   2.952   5.873  0.3317 -0.5876  1.1396
15875SOL     OW48787   8.356   5.683   5.691  0.1432 -0.2218  0.1693
15875SOL    HW148788   8.412   5.719   5.622 -0.7947  0.5532 -0.1995
15875SOL    HW248789   8.410   5.615   5.731  1.4874  0.7286  0.0508
15876SOL     OW48790   5.628   8.531   4.039 -0.7222 -0.0770  0.5761
15876SOL    HW148791   5.633   8.622   4.067 -2.7819  0.5341 -0.7915
15876SOL    HW248792   5.535   8.508   4.050 -0.7532 -1.1526 -1.4739
15877SOL     OW48793   0.395   8.161   1.814  0.3103 -0.3884 -0.5957
15877SOL    HW148794   0.490   8.151   1.817  0.2112 -1.1404  0.7878
15877SOL    HW248795   0.362   8.106   1.885 -0.9851  1.8438  0.6717
15878SOL     OW48796   5.114   1.005   4.458  0.2410  0.2610  0.7000
15878SOL    HW148797   5.209   0.996   4.455  0.1628 -1.4706  2.0885
15878SOL    HW248798   5.099   1.099   4.461  1.8632  0.5872 -0.2563
15879SOL     OW48799   7.533   3.591   1.503  0.2501  0.0885 -0.0636
15879SOL    HW148800   7.474   3.630   1.568 -0.2846 -1.7758  0.6640
15879SOL    HW248801   7.491   3.607   1.419  1.3678  3.2884 -0.1369
15880SOL     OW48802   1.289   2.504   4.954  0.6616  0.5920 -0.3795
15880SOL    HW148803   1.208   2.552   4.942  0.8086  1.9046  2.8345
15880SOL    HW248804   1.271   2.443   5.026  2.1920  0.1648 -0.3132
15881SOL     OW48805   0.206   5.905   7.083  0.4667  0.4678  0.2104
15881SOL    HW148806   0.279   5.848   7.060  0.3946  0.0926  0.8666
15881SOL    HW248807   0.139   5.886   7.017 -0.5068 -2.0617  1.7799
15882SOL     OW48808   5.821   5.544   8.818  0.1485 -0.5482  0.1935
15882SOL    HW148809   5.776   5.480   8.873 -1.2040 -0.2534 -0.5325
15882SOL    HW248810   5.867   5.491   8.752 -0.9879 -0.8100 -0.4220
15883SOL     OW48811   4.762   0.766   6.912  0.4853 -0.1072  0.4101
15883SOL    HW148812   4.704   0.690   6.908  0.2887 -0.1411  2.7514
15883SOL    HW248813   4.840   0.738   6.864 -0.3439 -1.0692 -0.4293
15884SOL     OW48814   4.696   0.933   7.552 -0.3017 -0.7936 -0.6679
15884SOL    HW148815   4.678   0.952   7.644 -2.4886  0.5052 -1.2781
15884SOL    HW248816   4.640   0.858   7.532 -0.8736 -0.2402 -1.2193
15885SOL     OW48817   6.862   2.284   3.102 -0.0240  0.2277 -0.1906
15885SOL    HW148818   6.897   2.340   3.172  1.0993 -1.4458  0.6731
15885SOL    HW248819   6.776   2.257   3.134 -0.2688  0.8636 -0.2884
15886SOL     OW48820   6.462   0.466   6.510 -0.0964  0.5941 -0.0125
15886SOL    HW148821   6.411   0.419   6.576 -1.4334  1.1796 -0.5911
15886SOL    HW248822   6.484   0.549   6.552 -0.1681  0.5978  0.0182
15887SOL     OW48823   7.336   1.099   6.816  0.2073 -0.4215 -0.6966
15887SOL    HW148824   7.375   1.059   6.738  1.2188  0.8680 -0.8924
15887SOL    HW248825   7.333   1.193   6.796  1.9029  0.1563  1.3539
15888SOL     OW48826   0.291   4.554   1.800 -0.2706 -0.5141  0.1813
15888SOL    HW148827   0.205   4.582   1.832 -1.0819 -1.4860 -1.0121
15888SOL    HW248828   0.315   4.620   1.735 -1.5493 -1.7467 -1.6451
15889SOL     OW48829   0.761   2.448   3.258  0.8008 -0.1644 -0.4554
15889SOL    HW148830   0.806   2.388   3.317 -0.2817  0.6114  1.2726
15889SOL    HW248831   0.676   2.464   3.301  0.3372  1.1570 -1.7683
15890SOL     OW48832   7.702   8.087   2.429  0.1434  0.3099  0.4029
15890SOL    HW148833   7.778   8.132   2.392  0.5197 -0.8881 -0.3422
15890SOL    HW248834   7.733   8.055   2.514 -0.3098  1.9190  1.2075
15891SOL     OW48835   4.393   2.923   1.986 -0.2978 -0.2324 -0.0366
15891SOL    HW148836   4.479   2.948   2.019 -0.0470 -0.9320 -0.1406
15891SOL    HW248837   4.342   2.904   2.065 -0.6062  0.9077  0.0651
15892SOL     OW48838   7.558   1.022   7.411 -0.0712 -0.3298  0.4612
15892SOL    HW148839   7.555   1.096   7.351 -0.3612 -1.0809 -0.4631
15892SOL    HW248840   7.536   1.060   7.497 -1.5054  0.4432 -0.2113
15893SOL     OW48841   4.528   5.128   0.426  0.2343  0.3492  0.0435
15893SOL    HW148842   4.462   5.084   0.481 -2.6853  2.0538 -1.7972
15893SOL    HW248843   4.523   5.220   0.452 -0.5792  1.0448 -2.3143
15894SOL     OW48844   5.600   2.586   7.162  0.1394 -0.1788 -0.0114
15894SOL    HW148845   5.639   2.673   7.160 -0.4263  0.0679 -0.6457
15894SOL    HW248846   5.597   2.563   7.255 -0.0016  0.6113  0.1841
15895SOL     OW48847   0.947   4.303   2.021  0.9087  0.9911  0.4040
15895SOL    HW148848   0.866   4.267   2.058  0.3465  1.0626 -0.7360
15895SOL    HW248849   0.918   4.376   1.966  1.3306 -1.1807 -2.9547
15896SOL     OW48850   7.144   2.030   6.675 -0.1972  0.1491  0.1940
15896SOL    HW148851   7.228   1.990   6.653  0.8930  1.5376  1.6205
15896SOL    HW248852   7.144   2.114   6.628 -0.8955  0.0715  0.0350
15897SOL     OW48853   0.820   5.305   0.650  0.2380 -0.4790 -0.4964
15897SOL    HW148854   0.753   5.299   0.582  0.8080 -0.2096 -1.0932
15897SOL    HW248855   0.868   5.386   0.629 -0.0262 -0.0113  0.6374
15898SOL     OW48856   1.691   5.423   6.483 -0.1955  1.0354 -0.2117
15898SOL    HW148857   1.622   5.458   6.539 -0.8556  1.3129 -1.1795
15898SOL    HW248858   1.769   5.422   6.539 -1.2511 -0.4991  1.2893
15899SOL     OW48859   7.226   4.545   4.706  0.2293 -0.4440  0.1703
15899SOL    HW148860   7.202   4.597   4.783  0.7435  0.9598 -0.5661
15899SOL    HW248861   7.320   4.557   4.698  0.1457 -0.3397 -0.8189
15900SOL     OW48862   7.864   0.920   4.159 -0.6491 -0.4135 -1.1055
15900SOL    HW148863   7.805   0.989   4.128 -0.4702  0.8998  1.2421
15900SOL    HW248864   7.952   0.950   4.136 -0.4942  0.7001  0.7482
15901SOL     OW48865   0.155   3.257   4.638 -0.0775 -0.8458  0.1098
15901SOL    HW148866   0.103   3.237   4.715 -1.9134 -0.5482 -0.9905
15901SOL    HW248867   0.139   3.184   4.578  1.5667 -1.2333  0.0832
15902SOL     OW48868   1.384   0.992   8.201  0.1477 -0.0720 -0.7361
15902SOL    HW148869   1.306   1.047   8.203  0.0743 -0.1645 -0.9687
15902SOL    HW248870   1.455   1.052   8.181 -0.1329 -0.2707 -2.4701
15903SOL     OW48871   1.650   8.564   8.660 -0.0839 -0.1282 -0.7345
15903SOL    HW148872   1.742   8.589   8.654 -0.6107  1.7836 -2.0430
15903SOL    HW248873   1.635   8.545   8.752  0.9826  2.4241  0.0582
15904SOL     OW48874   3.994   4.155   3.905  0.4222 -0.0814  0.6556
15904SOL    HW148875   3.938   4.233   3.901  2.6230  1.6089  1.0850
15904SOL    HW248876   3.996   4.132   3.998  2.0277  1.1214  0.9437
15905SOL     OW48877   6.555   8.372   3.031 -0.0246  0.4200  0.1844
15905SOL    HW148878   6.615   8.300   3.015  0.2259  1.1353 -2.5307
15905SOL    HW248879   6.474   8.331   3.060  0.3210 -0.8962 -0.6656
15906SOL     OW48880   6.486   4.773   5.661  0.0943 -1.1939  0.2324
15906SOL    HW148881   6.490   4.689   5.707  2.2273 -1.0020  0.4776
15906SOL    HW248882   6.536   4.833   5.716  0.0075 -0.1717 -0.7713
15907SOL     OW48883   3.302   2.806   3.317 -0.2074 -0.2694  0.2748
15907SOL    HW148884   3.231   2.743   3.299  0.4979 -1.2727  0.8760
15907SOL    HW248885   3.350   2.811   3.235 -0.7638  0.1477 -0.0325
15908SOL     OW48886   7.281   7.285   3.313  0.2878 -0.4948  0.3085
15908SOL    HW148887   7.273   7.372   3.273  1.4060 -0.4374  0.1794
15908SOL    HW248888   7.209   7.281   3.376 -0.1087  0.3087 -0.0696
15909SOL     OW48889   1.000   0.050   4.304 -0.2882  1.1245  0.2329
15909SOL    HW148890   0.991  -0.039   4.270 -0.1327  1.0929  0.2715
15909SOL    HW248891   0.966   0.106   4.234  0.4079  1.0826 -0.1479
15910SOL     OW48892   8.520   3.149   2.233  0.4415  0.0899 -0.2421
15910SOL    HW148893   8.482   3.236   2.221 -0.8458 -0.3463  0.5314
15910SOL    HW248894   8.453   3.099   2.278  0.9064 -1.5084 -1.2295
15911SOL     OW48895   8.447   1.152   2.895 -0.0626  0.6615 -0.8948
15911SOL    HW148896   8.460   1.084   2.829  1.1304  1.5991 -1.6653
15911SOL    HW248897   8.517   1.136   2.959 -1.5748 -0.6222  0.5407
15912SOL     OW48898   3.856   2.827   7.260  0.4893 -0.1368 -0.5910
15912SOL    HW148899   3.789   2.883   7.219 -0.4912 -0.3154  0.7056
15912SOL    HW248900   3.806   2.766   7.314  1.7058 -0.0265  0.7218
15913SOL     OW48901   0.750   4.049   0.396 -0.3827 -0.4006 -0.6641
15913SOL    HW148902   0.733   4.115   0.463  1.6617  0.7423 -1.1903
15913SOL    HW248903   0.712   4.086   0.316 -0.7143 -0.6641 -0.6332
15914SOL     OW48904   3.610   6.540   2.188 -0.2113 -0.2773 -0.1803
15914SOL    HW148905   3.601   6.554   2.282 -0.6986 -2.7100  0.1875
15914SOL    HW248906   3.683   6.478   2.179 -0.0539  0.0474 -1.4256
15915SOL     OW48907   0.513   4.007   2.227 -0.5399  0.1276 -0.3603
15915SOL    HW148908   0.468   3.960   2.298  0.1632 -0.6382 -0.4046
15915SOL    HW248909   0.595   4.037   2.267 -1.7215  2.8861  0.1779
15916SOL     OW48910   7.658   3.887   2.404  0.0986 -0.0888 -0.4360
15916SOL    HW148911   7.637   3.978   2.381 -0.5723  0.3859  1.8808
15916SOL    HW248912   7.574   3.844   2.412  0.3809 -0.6410 -0.4238
15917SOL     OW48913   1.815   2.643   3.485  0.7694  0.1983  0.4775
15917SOL    HW148914   1.724   2.673   3.485  1.0518  1.1431 -0.5145
15917SOL    HW248915   1.865   2.720   3.512  1.2841 -0.3098  0.9961
15918SOL     OW48916   7.939   6.416   4.407  0.4885  0.1316  0.1269
15918SOL    HW148917   7.904   6.504   4.419  0.6185  0.2733 -0.5028
15918SOL    HW248918   7.870   6.358   4.440  0.3806  0.4662  0.4921
15919SOL     OW48919   0.762   7.562   2.534  0.0993  0.1366  0.6047
15919SOL    HW148920   0.834   7.624   2.520  0.0801  0.1697  0.6532
15919SOL    HW248921   0.804   7.476   2.528 -0.0539  0.1245 -0.4844
15920SOL     OW48922   0.258   2.078   8.598 -0.5064 -0.1913 -0.1485
15920SOL    HW148923   0.299   2.119   8.522 -0.7100 -0.6183 -0.4940
15920SOL    HW248924   0.225   2.151   8.649 -2.4800  0.0916 -1.6669
15921SOL     OW48925   1.750   4.966   7.020 -0.1600  0.4593 -0.5540
15921SOL    HW148926   1.691   4.999   6.953 -1.0154  0.9283  0.4082
15921SOL    HW248927   1.809   5.039   7.039 -0.4521  0.6125 -0.2147
15922SOL     OW48928   1.320   3.409   0.062 -0.4079 -0.7305  0.4329
15922SOL    HW148929   1.250   3.350   0.033 -0.5937 -0.5656  0.5498
15922SOL    HW248930   1.348   3.453  -0.018 -1.7421  0.6132  0.6705
15923SOL     OW48931   6.207   3.795   1.413  0.2489 -0.1795 -0.5311
15923SOL    HW148932   6.136   3.851   1.381  1.3155  0.5371 -1.7318
15923SOL    HW248933   6.266   3.854   1.459  0.5991 -0.5881 -0.4440
15924SOL     OW48934   1.755   1.647   4.923 -0.1638  0.1851  0.5229
15924SOL    HW148935   1.722   1.575   4.977  0.4187  0.3397  1.0928
15924SOL    HW248936   1.835   1.676   4.966  0.5295  0.0712 -0.6268
15925SOL     OW48937   5.260   5.138   8.014  0.0096 -0.0783  0.1498
15925SOL    HW148938   5.293   5.220   7.978 -1.3727 -0.0895 -1.2889
15925SOL    HW248939   5.235   5.087   7.936  0.8929 -1.9073  0.9956
15926SOL     OW48940   5.923   3.805   7.725  0.1510 -0.2929 -0.3407
15926SOL    HW148941   5.845   3.831   7.775  0.8008  1.9042 -0.3637
15926SOL    HW248942   5.914   3.711   7.715 -0.4419 -0.7425  3.1662
15927SOL     OW48943   8.644   4.036   3.198  0.5845  0.5919  0.3038
15927SOL    HW148944   8.721   4.037   3.254  0.3950  2.5559  0.5964
15927SOL    HW248945   8.571   4.059   3.256 -0.5393 -2.6144  0.3620
15928SOL     OW48946   8.449   6.641   4.843 -0.2047  0.0971 -0.1221
15928SOL    HW148947   8.423   6.583   4.915  0.0706 -0.5495 -0.5349
15928SOL    HW248948   8.399   6.721   4.858 -0.4274 -0.1634  0.5821
15929SOL     OW48949   5.539   0.469   3.306 -0.0238 -0.4056  0.0516
15929SOL    HW148950   5.589   0.532   3.254 -2.2108  1.1815 -0.2921
15929SOL    HW248951   5.584   0.386   3.293  1.0177  0.4319 -2.2767
15930SOL     OW48952   7.086   0.930   5.132  0.1135 -0.3179  0.0840
15930SOL    HW148953   7.164   0.907   5.080 -0.0527 -0.8512  0.0627
15930SOL    HW248954   7.116   0.998   5.192  0.2765  0.4032 -0.7988
15931SOL     OW48955   1.549   4.470   2.864  0.7823 -0.2761 -0.5324
15931SOL    HW148956   1.624   4.528   2.874  0.1720  0.3831  0.3257
15931SOL    HW248957   1.586   4.390   2.826  1.8698  0.1275 -0.3666
15932SOL     OW48958   0.044   2.803   5.265 -0.0633  0.0609 -0.5153
15932SOL    HW148959   0.065   2.853   5.344 -1.3127  0.7539 -0.5919
15932SOL    HW248960   0.012   2.869   5.203 -0.7773 -0.6995 -0.9714
15933SOL     OW48961   2.092   3.148   5.400  0.5092  0.3244 -0.2860
15933SOL    HW148962   2.116   3.056   5.409  0.6556  0.4636  0.8507
15933SOL    HW248963   2.073   3.177   5.489 -1.3296  0.9191 -0.8300
15934SOL     OW48964   3.064   4.362   5.007  0.4439 -0.2147 -1.3542
15934SOL    HW148965   3.036   4.271   4.996  0.4670 -0.2545 -1.0986
15934SOL    HW248966   3.078   4.371   5.102 -0.3415  0.2765 -1.2744
15935SOL     OW48967   8.123   3.900   0.852  0.2751 -0.2490  0.0620
15935SOL    HW148968   8.218   3.893   0.863  0.0905 -0.1450  2.1963
15935SOL    HW248969   8.087   3.835   0.912 -1.0145  0.9092  0.6114
15936SOL     OW48970   5.259   1.885   0.273 -0.3934  0.7179 -0.6516
15936SOL    HW148971   5.282   1.937   0.196 -1.0373  1.2277 -0.5076
15936SOL    HW248972   5.214   1.808   0.237  3.6990 -1.7378 -1.1870
15937SOL     OW48973   3.779   6.507   0.235  0.5133  0.1541  0.4754
15937SOL    HW148974   3.691   6.541   0.252  0.4712  0.3220 -0.0531
15937SOL    HW248975   3.825   6.581   0.193  0.2696 -0.5796 -1.1758
15938SOL     OW48976   4.935   6.741   5.639  0.0521 -0.4979  0.4883
15938SOL    HW148977   4.978   6.825   5.627  0.9720 -1.0934 -0.5007
15938SOL    HW248978   4.957   6.716   5.729  0.7945 -0.2623  0.3738
15939SOL     OW48979   8.161   0.467   2.904  0.3016  0.8805  0.0017
15939SOL    HW148980   8.228   0.523   2.944 -0.5550  0.4677  2.1713
15939SOL    HW248981   8.124   0.520   2.834  0.2659  2.6430  1.2795
15940SOL     OW48982   2.777   5.099   6.571  0.4345  0.3241 -0.6286
15940SOL    HW148983   2.790   5.186   6.535 -1.4408  0.1838 -1.7855
15940SOL    HW248984   2.865   5.069   6.593  1.1644  2.3272 -0.5686
15941SOL     OW48985   1.944   4.788   1.199  1.0399 -0.1612 -0.0906
15941SOL    HW148986   1.907   4.771   1.113 -1.2774  2.0044  0.3518
15941SOL    HW248987   1.901   4.725   1.257  0.7213 -0.0034 -0.1514
15942SOL     OW48988   7.851   4.978   4.908  1.1622  0.2650 -0.0028
15942SOL    HW148989   7.889   4.895   4.881  1.6658 -0.5937  2.9744
15942SOL    HW248990   7.911   5.011   4.975 -0.0249  2.0945  0.2211
15943SOL     OW48991   1.109   5.119   8.772 -0.2650 -0.3864 -0.1748
15943SOL    HW148992   1.180   5.116   8.709 -0.6785  0.6440 -0.7024
15943SOL    HW248993   1.081   5.028   8.780  1.1450 -0.8273  0.1037
15944SOL     OW48994   6.979   1.198   2.193 -0.5432  0.4876  0.0174
15944SOL    HW148995   6.961   1.280   2.147 -1.5952  1.4338  1.9606
15944SOL    HW248996   7.044   1.222   2.259 -0.0747 -0.5070 -0.0721
15945SOL     OW48997   4.033   0.913   4.041 -0.0464  0.2249  0.1178
15945SOL    HW148998   4.078   0.852   3.984 -1.3637 -1.0551  0.3951
15945SOL    HW248999   3.942   0.884   4.042 -0.5936  1.8030  0.7814
15946SOL     OW49000   0.829   7.236   7.311  0.5734  0.1686  0.0894
15946SOL    HW149001   0.904   7.189   7.275  0.8606  0.6056  0.1019
15946SOL    HW249002   0.853   7.328   7.304 -0.1025  0.3324 -0.2199
15947SOL     OW49003   8.440   5.130   5.605 -0.0456 -0.6570  0.3134
15947SOL    HW149004   8.426   5.222   5.580 -0.0173 -0.2205  1.8343
15947SOL    HW249005   8.457   5.086   5.522  2.5437  1.1747 -0.2818
15948SOL     OW49006   5.235   2.950   2.895  0.2677  0.6387  0.2733
15948SOL    HW149007   5.255   2.995   2.976 -0.6564  0.5669  0.5512
15948SOL    HW249008   5.140   2.937   2.897 -0.0871  2.3661 -1.6964
15949SOL     OW49009   2.814   2.624   6.727  0.3212 -0.4487 -0.6135
15949SOL    HW149010   2.839   2.608   6.818 -2.7604 -2.1816  0.0731
15949SOL    HW249011   2.874   2.569   6.676  3.0050  1.5701  0.1083
15950SOL     OW49012   0.360   8.005   3.803  0.3650 -0.8765 -0.0724
15950SOL    HW149013   0.348   8.018   3.709  1.2943 -0.5469 -0.1581
15950SOL    HW249014   0.371   8.093   3.839  1.9673 -1.0759  0.0346
15951SOL     OW49015   1.287   5.431   8.124 -0.3070  0.4569  0.7732
15951SOL    HW149016   1.215   5.492   8.106 -0.3140  0.0807 -0.5461
15951SOL    HW249017   1.331   5.420   8.040  0.2605 -0.6403  1.1933
15952SOL     OW49018   7.839   2.478   7.945 -0.3737 -0.3253  0.2841
15952SOL    HW149019   7.906   2.538   7.977  0.2484 -1.1544  0.5789
15952SOL    HW249020   7.872   2.391   7.968  0.1083 -1.0087 -2.5970
15953SOL     OW49021   8.093   0.161   3.549  0.3877 -0.2318 -0.5294
15953SOL    HW149022   8.029   0.179   3.479  0.6868  0.6270 -0.5971
15953SOL    HW249023   8.167   0.218   3.529  1.4141 -1.6000 -0.7436
15954SOL     OW49024   0.594   4.142   3.481  0.8592 -0.3663  0.1105
15954SOL    HW149025   0.648   4.106   3.410 -0.3083  0.5435 -1.3100
15954SOL    HW249026   0.516   4.086   3.482 -0.1614  0.9560 -0.9196
15955SOL     OW49027   2.320   6.996   0.582 -0.1869 -0.2210  0.0193
15955SOL    HW149028   2.276   7.081   0.591 -0.8167 -0.6380  1.2223
15955SOL    HW249029   2.393   7.001   0.643  0.3787 -0.1870 -0.6553
15956SOL     OW49030   5.184   8.135   8.827 -0.3316 -0.2133  0.4069
15956SOL    HW149031   5.234   8.191   8.887  2.1740  1.9146 -3.3022
15956SOL    HW249032   5.110   8.190   8.800 -1.2351 -1.0205  1.1688
15957SOL     OW49033   0.478   1.017   4.329 -0.2406  0.3092 -0.6764
15957SOL    HW149034   0.441   0.964   4.399  1.8596  1.6337  1.5835
15957SOL    HW249035   0.409   1.021   4.263 -2.6041 -0.4536  1.5952
15958SOL     OW49036   4.100   5.569   0.249  0.4449  0.1227 -0.2136
15958SOL    HW149037   4.042   5.646   0.249  1.3321  0.8059  0.1457
15958SOL    HW249038   4.080   5.524   0.332  1.5679  1.2531  0.7023
15959SOL     OW49039   0.740   4.975   0.481  0.5970 -0.1657  0.1946
15959SOL    HW149040   0.697   4.915   0.543 -0.4850 -0.3999 -0.7668
15959SOL    HW249041   0.670   5.005   0.424  1.6111 -0.0755 -1.0276
15960SOL     OW49042   7.987   2.246   8.008  0.5666 -0.1164  0.4202
15960SOL    HW149043   7.964   2.213   8.095 -2.0093  1.0748  0.2776
15960SOL    HW249044   7.962   2.175   7.948  0.2585 -0.0757  0.4988
15961SOL     OW49045   2.535   4.597   1.523 -0.8477 -0.0781  0.2682
15961SOL    HW149046   2.468   4.568   1.462 -0.5598  0.3965 -0.2876
15961SOL    HW249047   2.604   4.633   1.467  0.6937 -2.1594  0.7037
15962SOL     OW49048   8.814   6.943   4.254 -0.0253 -0.0583 -0.4565
15962SOL    HW149049   8.808   7.021   4.199  2.3169 -0.6593 -1.6935
15962SOL    HW249050   8.778   6.872   4.200 -3.4646  0.2737  1.1765
15963SOL     OW49051   6.412   1.231   8.542  0.4531 -0.2442 -0.7220
15963SOL    HW149052   6.504   1.244   8.565  0.3283  0.3257 -0.5318
15963SOL    HW249053   6.363   1.267   8.616  0.0594  0.6622 -1.4052
15964SOL     OW49054   2.157   4.655   3.474 -0.1502  0.0877 -0.3063
15964SOL    HW149055   2.160   4.744   3.511 -0.2679 -0.6007  1.4665
15964SOL    HW249056   2.241   4.645   3.430  0.4065  0.6407  0.5956
15965SOL     OW49057   7.670   1.124   3.043 -0.3033  0.1023  0.0744
15965SOL    HW149058   7.761   1.101   3.060 -0.5739 -0.1767  1.2233
15965SOL    HW249059   7.660   1.212   3.079 -0.3857  0.2917 -0.4084
15966SOL     OW49060   1.667   4.809   0.021  0.2389  0.2467  0.1839
15966SOL    HW149061   1.703   4.891  -0.013 -0.2875  0.0092 -0.9800
15966SOL    HW249062   1.690   4.743  -0.044 -1.6578 -0.0361 -0.2634
15967SOL     OW49063   5.114   0.207   1.530  0.5698  0.4852  0.6773
15967SOL    HW149064   5.166   0.145   1.582 -0.0547 -0.9817 -0.3842
15967SOL    HW249065   5.108   0.167   1.443 -2.3490  0.5574  0.7385
15968SOL     OW49066   0.181   0.944   6.140 -0.0235  0.3029  0.1795
15968SOL    HW149067   0.114   0.915   6.077  0.1990 -1.3489  0.6590
15968SOL    HW249068   0.131   0.993   6.206 -0.6192 -0.0045 -0.0281
15969SOL     OW49069   7.788   2.574   1.412  0.1659 -0.4704 -0.2743
15969SOL    HW149070   7.840   2.531   1.345 -0.6072  0.6287 -1.6310
15969SOL    HW249071   7.853   2.613   1.471  0.9455  1.1886 -2.1275
15970SOL     OW49072   2.882   7.899   8.384  0.2658 -0.0112 -0.0348
15970SOL    HW149073   2.798   7.901   8.431  1.0315  1.3618  1.3455
15970SOL    HW249074   2.870   7.960   8.311 -0.4621 -1.1042 -0.8714
15971SOL     OW49075   7.724   2.422   4.904  0.8695 -0.0197 -0.2351
15971SOL    HW149076   7.754   2.450   4.991  0.0880  0.4027 -0.0914
15971SOL    HW249077   7.645   2.372   4.921 -0.9365  2.4200 -0.8273
15972SOL     OW49078   0.538   3.238   7.781  0.0129  0.1109 -0.3118
15972SOL    HW149079   0.501   3.314   7.736 -0.1346  0.7606  0.8805
15972SOL    HW249080   0.589   3.193   7.713  0.5521  1.5545 -0.9031
15973SOL     OW49081   3.854   7.641   0.579 -0.9030 -0.8007 -0.0696
15973SOL    HW149082   3.875   7.723   0.624 -0.5193 -1.2757  0.6392
15973SOL    HW249083   3.822   7.668   0.493  0.6026  0.0387 -0.3975
15974SOL     OW49084   6.127   2.646   1.642 -0.4828  0.1075  0.5519
15974SOL    HW149085   6.035   2.668   1.658 -0.5245 -0.7986  1.8151
15974SOL    HW249086   6.164   2.638   1.730  0.8153  0.4648  0.0535
15975SOL     OW49087   6.682   3.951   2.301 -0.9444  0.2772 -0.4591
15975SOL    HW149088   6.767   3.912   2.324 -1.2353  0.0275  0.2209
15975SOL    HW249089   6.690   3.974   2.208 -0.4750 -0.6509 -0.6606
15976SOL     OW49090   5.192   3.977   4.883 -0.0747  0.4014 -0.1953
15976SOL    HW149091   5.209   3.890   4.921  1.3842  1.9765  3.2043
15976SOL    HW249092   5.122   4.013   4.938  1.4395  2.4538  0.4964
15977SOL     OW49093   1.003   0.566   4.976 -0.2911  0.3676 -0.2700
15977SOL    HW149094   0.986   0.641   5.033  2.2969 -0.0863  1.2662
15977SOL    HW249095   1.099   0.557   4.976 -0.4555 -2.4130 -1.0821
15978SOL     OW49096   0.080   3.961   7.673  0.4851 -0.4714  0.0073
15978SOL    HW149097   0.076   3.942   7.579 -0.0116 -1.9323  0.3130
15978SOL    HW249098   0.132   4.042   7.678  0.3761 -0.2765 -1.5286
15979SOL     OW49099   4.939   6.516   8.382  0.1725  0.2575  0.2635
15979SOL    HW149100   4.977   6.602   8.364 -0.7027  0.5716 -0.1786
15979SOL    HW249101   4.936   6.511   8.477 -0.4574  1.0593  0.3057
15980SOL     OW49102   6.689   4.962   3.040  0.2454 -0.0590 -0.1849
15980SOL    HW149103   6.702   4.911   2.960  1.9040  0.4529 -0.2882
15980SOL    HW249104   6.725   5.048   3.019 -2.0090  1.0216  0.1617
15981SOL     OW49105   2.873   2.013   3.888 -0.0673 -0.0303 -0.4330
15981SOL    HW149106   2.853   2.079   3.955  0.4040  0.2342 -0.5464
15981SOL    HW249107   2.935   1.954   3.930 -0.2661 -0.2345 -0.4275
15982SOL     OW49108   6.540   4.157   3.591  0.3446  0.2555 -0.9508
15982SOL    HW149109   6.558   4.121   3.504 -2.1076 -1.9803 -0.6592
15982SOL    HW249110   6.547   4.082   3.650 -1.7672  0.8722  0.1961
15983SOL     OW49111   6.373   4.273   4.830 -0.6436  0.2223 -0.6501
15983SOL    HW149112   6.414   4.308   4.909 -0.9303  2.0952 -1.2827
15983SOL    HW249113   6.301   4.220   4.862  1.0170 -1.5377  0.4163
15984SOL     OW49114   8.238   6.574   4.392  0.3752 -0.0423  0.0845
15984SOL    HW149115   8.157   6.563   4.341 -0.1075  1.6002  0.4355
15984SOL    HW249116   8.208   6.576   4.483  1.0328 -1.1712  0.3407
15985SOL     OW49117   0.816   4.113   8.154  0.3931  0.5881  0.9109
15985SOL    HW149118   0.911   4.115   8.166  1.2502 -0.2025 -3.5961
15985SOL    HW249119   0.792   4.204   8.135  0.7703  0.4622 -0.2770
15986SOL     OW49120   5.566   0.210   2.271 -0.0186  0.1643  0.6442
15986SOL    HW149121   5.494   0.253   2.225 -0.0229  0.6206  1.0729
15986SOL    HW249122   5.611   0.159   2.203 -0.6968 -0.0653  0.3607
15987SOL     OW49123   7.538   3.622   5.605 -0.7352 -0.1502  0.3396
15987SOL    HW149124   7.446   3.605   5.623 -0.9530 -1.5255 -1.7951
15987SOL    HW249125   7.551   3.593   5.515  1.6541  0.5750  0.3849
15988SOL     OW49126   1.661   1.019   0.867 -0.6370  0.3103 -1.1374
15988SOL    HW149127   1.695   1.087   0.925 -0.1905 -0.3566 -0.6018
15988SOL    HW249128   1.738   0.988   0.819 -0.6169 -0.6284 -0.5217
15989SOL     OW49129   3.066   7.337   0.662 -0.3739  0.2477  0.2452
15989SOL    HW149130   3.034   7.411   0.611  1.4084 -0.9111 -2.9046
15989SOL    HW249131   3.151   7.366   0.696  1.2223 -0.7239 -2.5441
15990SOL     OW49132   0.767   7.314   2.930 -0.2732  0.2048 -0.1446
15990SOL    HW149133   0.858   7.299   2.905  0.9688  2.8677  2.2269
15990SOL    HW249134   0.744   7.397   2.888 -1.0956  0.3121  0.4836
15991SOL     OW49135   3.049   2.869   6.961  0.5509  0.5908  0.3500
15991SOL    HW149136   3.060   2.842   6.870  0.4194  0.1442  0.4658
15991SOL    HW249137   2.964   2.835   6.986  0.9612 -0.0593  0.9067
15992SOL     OW49138   0.172   4.383   6.036  0.1321 -0.1518 -0.5427
15992SOL    HW149139   0.160   4.288   6.033 -1.4137 -0.1448  2.0359
15992SOL    HW249140   0.109   4.417   5.972 -0.3990 -0.8184 -0.3800
15993SOL     OW49141   1.693   4.233   4.870 -0.0834 -0.0896 -0.4641
15993SOL    HW149142   1.696   4.143   4.838  0.4422 -0.2077 -0.1016
15993SOL    HW249143   1.657   4.225   4.958  0.8711 -0.0735 -0.0509
15994SOL     OW49144   2.701   3.399   1.558 -0.0037 -0.2198  0.5753
15994SOL    HW149145   2.717   3.309   1.529 -0.9122 -0.3052  0.3322
15994SOL    HW249146   2.691   3.449   1.476 -2.4861 -0.4450  0.6775
15995SOL     OW49147   7.652   1.733   8.810 -0.1865  0.1860  0.8318
15995SOL    HW149148   7.616   1.664   8.755  0.7399 -0.4525  0.9995
15995SOL    HW249149   7.580   1.795   8.823 -0.8271 -0.4061  0.1208
15996SOL     OW49150   0.642   3.456   4.791 -0.2656  0.4506 -0.1606
15996SOL    HW149151   0.668   3.364   4.784 -0.7364  0.3761 -1.0337
15996SOL    HW249152   0.550   3.454   4.816 -0.6508  0.6538 -1.4868
15997SOL     OW49153   1.820   1.711   7.463 -0.0701  0.1876  0.0868
15997SOL    HW149154   1.786   1.730   7.375 -2.2797  0.1516  0.8606
15997SOL    HW249155   1.772   1.771   7.520 -0.2529 -1.2386  1.5093
15998SOL     OW49156   5.137   6.405   4.350  0.6394  0.5404 -0.1152
15998SOL    HW149157   5.143   6.331   4.410  0.0787  0.4304 -0.1843
15998SOL    HW249158   5.135   6.482   4.407  1.9860  0.5646 -0.0693
15999SOL     OW49159   6.429   0.388   6.782  0.4428  0.2128  0.1610
15999SOL    HW149160   6.502   0.389   6.844 -0.0002  0.5923  0.6916
15999SOL    HW249161   6.421   0.297   6.755  1.1315  0.1747  0.0675
16000SOL     OW49162   0.445   8.243   0.951 -0.4560  1.0035 -0.1129
16000SOL    HW149163   0.362   8.284   0.925 -0.5652  0.8409 -0.0302
16000SOL    HW249164   0.419   8.176   1.015 -0.3482  0.4103 -0.6771
16001SOL     OW49165   3.055   1.606   8.324 -0.4689 -0.4339  0.3980
16001SOL    HW149166   3.097   1.562   8.398  0.2575  1.0057  0.8660
16001SOL    HW249167   3.127   1.630   8.265 -0.8930 -0.2402 -0.0575
16002SOL     OW49168   1.145   7.536   1.493  0.0934 -0.1103 -0.1451
16002SOL    HW149169   1.083   7.549   1.421  0.9252  0.2628 -0.8153
16002SOL    HW249170   1.231   7.557   1.455  0.4040  1.6075  1.3647
16003SOL     OW49171   0.953   8.640   8.042 -0.3156  0.3767  0.2699
16003SOL    HW149172   0.885   8.645   7.975  0.7364 -1.4363 -1.0288
16003SOL    HW249173   1.007   8.717   8.026  0.8576 -0.8225 -2.1449
16004SOL     OW49174   0.908   2.362   5.893 -0.2256 -0.2966  0.0557
16004SOL    HW149175   0.941   2.387   5.979 -0.2000  0.4687 -0.1697
16004SOL    HW249176   0.985   2.334   5.845  0.0013  0.7840 -0.2289
16005SOL     OW49177   6.531   1.297   7.504 -0.3463  0.1828  0.1678
16005SOL    HW149178   6.550   1.249   7.423  0.6271 -1.1778  1.1520
16005SOL    HW249179   6.437   1.283   7.518 -0.4289  0.0327 -0.4610
16006SOL     OW49180   2.533   4.291   6.203  0.0430  0.0899 -0.3662
16006SOL    HW149181   2.560   4.342   6.279 -0.0257  0.7191 -0.7557
16006SOL    HW249182   2.441   4.270   6.220  0.4926 -1.2998  0.5448
16007SOL     OW49183   2.374   6.980   1.918 -0.1410  0.2680  0.1963
16007SOL    HW149184   2.437   6.979   1.846 -0.7680  1.7328 -0.4131
16007SOL    HW249185   2.362   6.888   1.941  1.0486 -0.1351 -0.6951
16008SOL     OW49186   5.898   0.707   3.375 -0.4182  0.2376  0.2141
16008SOL    HW149187   5.904   0.620   3.337  0.1876 -0.3657  1.6540
16008SOL    HW249188   5.909   0.766   3.300  0.1744 -0.9044 -0.6340
16009SOL     OW49189   1.639   0.826   7.451  0.5027 -0.2111  0.2127
16009SOL    HW149190   1.682   0.874   7.522  0.8504 -0.0565 -0.1015
16009SOL    HW249191   1.622   0.739   7.488 -0.7975  0.3566  1.0476
16010SOL     OW49192   0.327   7.111   2.446  0.9128 -0.2836 -0.3966
16010SOL    HW149193   0.275   7.038   2.480 -0.0720  0.0908 -1.0659
16010SOL    HW249194   0.305   7.114   2.353  2.2694 -0.2181 -0.7407
16011SOL     OW49195   2.647   8.277   4.603 -0.1891  0.0176 -0.7179
16011SOL    HW149196   2.580   8.299   4.539 -0.6643  0.2970 -0.1349
16011SOL    HW249197   2.729   8.281   4.554 -0.4552  1.1131 -1.0990
16012SOL     OW49198   1.495   7.634   8.207  0.1515 -0.0630  0.1451
16012SOL    HW149199   1.565   7.570   8.221  1.6996  1.8287  1.7566
16012SOL    HW249200   1.530   7.694   8.141 -0.6043  0.0494 -0.1650
16013SOL     OW49201   7.550   7.735   1.120  0.6970  0.6795  0.3253
16013SOL    HW149202   7.467   7.779   1.102  0.5710  0.7742  1.0833
16013SOL    HW249203   7.539   7.699   1.208  1.1101 -0.1403  0.0507
16014SOL     OW49204   4.654   2.241   0.037 -0.2956  0.3280 -0.5040
16014SOL    HW149205   4.705   2.319   0.060 -0.4387  0.5029 -0.7605
16014SOL    HW249206   4.619   2.210   0.120 -0.1284  0.4617 -0.3818
16015SOL     OW49207   7.973   4.694   3.377  0.2203  0.5909  0.4696
16015SOL    HW149208   7.908   4.639   3.332  0.3661 -0.2932  1.3084
16015SOL    HW249209   8.011   4.748   3.307  0.3478 -0.6477 -0.4610
16016SOL     OW49210   8.229   4.345   6.055  0.0972 -0.5693  0.0197
16016SOL    HW149211   8.217   4.401   5.978  0.1541 -0.9494 -0.2710
16016SOL    HW249212   8.141   4.335   6.092  0.1879  0.2685  0.4734
16017SOL     OW49213   2.102   0.598   8.060 -0.2508  0.1753 -0.1288
16017SOL    HW149214   2.119   0.643   7.978  0.2868  1.7750  0.8280
16017SOL    HW249215   2.012   0.623   8.082 -0.0717  0.5165  0.2278
16018SOL     OW49216   8.468   7.158   4.134 -0.5110 -0.0825 -0.5049
16018SOL    HW149217   8.396   7.198   4.183 -0.0778 -0.7749  0.7587
16018SOL    HW249218   8.459   7.064   4.152 -0.6482 -0.4313 -2.2289
16019SOL     OW49219   2.755   7.152   1.349  0.3049  0.0634 -0.4901
16019SOL    HW149220   2.702   7.219   1.392  0.4853  0.7331 -1.2766
16019SOL    HW249221   2.793   7.102   1.420 -1.1558 -0.2630  0.1051
16020SOL     OW49222   7.891   1.683   3.663  0.3023  0.5593 -0.3256
16020SOL    HW149223   7.861   1.750   3.601 -2.4200  0.7741  1.0533
16020SOL    HW249224   7.896   1.603   3.611 -2.4708  0.6120 -0.8337
16021SOL     OW49225   4.983   0.115   0.723  0.2794 -0.1549  0.0833
16021SOL    HW149226   4.903   0.168   0.728  0.2148 -0.3495  1.2996
16021SOL    HW249227   5.051   0.176   0.696 -0.4140 -0.1484 -1.7859
16022SOL     OW49228   8.142   0.106   7.169 -0.3315  0.2221  0.0667
16022SOL    HW149229   8.201   0.058   7.110  0.0118 -0.1196  0.6817
16022SOL    HW249230   8.145   0.196   7.135 -0.7847 -0.1203 -0.9346
16023SOL     OW49231   4.754   7.008   6.371 -0.7612 -0.0247 -0.1504
16023SOL    HW149232   4.704   6.948   6.426 -1.9666  1.4842  0.5002
16023SOL    HW249233   4.702   7.016   6.291 -1.1600  0.9120  0.1873
16024SOL     OW49234   2.194   6.553   2.217 -0.2703  0.2220  0.3133
16024SOL    HW149235   2.133   6.586   2.284 -1.9229 -0.8486 -0.5979
16024SOL    HW249236   2.240   6.631   2.186 -0.2498  0.8935  1.9008
16025SOL     OW49237   4.287   5.328   7.044 -0.3070  0.6330  0.0867
16025SOL    HW149238   4.292   5.247   7.095  0.1762  0.9666  0.5844
16025SOL    HW249239   4.290   5.299   6.953 -0.8841  0.0454  0.2462
16026SOL     OW49240   1.655   4.130   7.550  0.5285 -0.4001  0.2527
16026SOL    HW149241   1.691   4.062   7.606 -1.2156 -0.6114  1.1903
16026SOL    HW249242   1.663   4.095   7.461  1.8195 -0.7653  0.4871
16027SOL     OW49243   3.899   1.951   7.182 -0.9053  0.1304 -0.3335
16027SOL    HW149244   3.881   1.895   7.257 -0.7784  2.6038  1.6712
16027SOL    HW249245   3.813   1.979   7.151 -0.9269 -0.2349 -0.6160
16028SOL     OW49246   6.473   8.684   1.016  0.2463  0.1835  0.0970
16028SOL    HW149247   6.516   8.710   0.934  0.6965  0.2953  0.3679
16028SOL    HW249248   6.442   8.595   0.999  2.2191 -0.6506  0.4941
16029SOL     OW49249   8.540   7.532   4.415  0.0970  0.8004 -0.1934
16029SOL    HW149250   8.597   7.458   4.395 -0.0925  0.1604  1.4957
16029SOL    HW249251   8.452   7.496   4.413 -0.0698  1.2089 -0.2798
16030SOL     OW49252   1.425   5.799   1.962 -0.1636 -0.4072 -0.1175
16030SOL    HW149253   1.502   5.799   2.018  0.2532 -0.0105 -0.6723
16030SOL    HW249254   1.360   5.849   2.011  0.8581  1.7296 -0.8203
16031SOL     OW49255   4.971   7.341   8.721 -0.4037  0.1997 -0.5033
16031SOL    HW149256   4.946   7.420   8.673 -1.0992 -0.6567 -1.5815
16031SOL    HW249257   4.951   7.269   8.662 -0.3430 -0.8345  0.6875
16032SOL     OW49258   6.127   5.960   2.669 -0.6118  0.7066  0.2052
16032SOL    HW149259   6.065   5.888   2.658  1.8859 -1.4743 -0.8826
16032SOL    HW249260   6.169   5.968   2.583  0.7029  1.9680  0.9313
16033SOL     OW49261   6.005   3.267   3.872 -0.0741  0.2659 -0.3882
16033SOL    HW149262   6.022   3.328   3.944 -0.4268 -0.2366  0.1305
16033SOL    HW249263   6.092   3.247   3.837  0.2254 -0.4190  0.6851
16034SOL     OW49264   0.212   7.267   0.387  0.1323 -0.1906 -0.5596
16034SOL    HW149265   0.156   7.197   0.353 -1.0237  0.6550 -0.4984
16034SOL    HW249266   0.300   7.230   0.388 -0.4061 -1.5373 -0.7823
16035SOL     OW49267   5.032   4.903   2.738  0.2235  0.4236  0.1952
16035SOL    HW149268   5.043   4.966   2.667 -0.7532  0.5692  0.1527
16035SOL    HW249269   5.081   4.941   2.811  1.8897 -0.1156 -0.6062
16036SOL     OW49270   0.999   6.409   3.672 -0.5394 -0.1999  0.1446
16036SOL    HW149271   1.081   6.378   3.711 -0.0025  0.0141 -0.7897
16036SOL    HW249272   1.026   6.453   3.592 -1.5816 -0.2018 -0.2172
16037SOL     OW49273   5.119   8.044   4.728 -0.2902  0.5848 -0.0654
16037SOL    HW149274   5.214   8.034   4.720 -0.1984  1.6505 -0.4988
16037SOL    HW249275   5.089   7.961   4.766  1.0596  0.9887  2.1006
16038SOL     OW49276   3.636   1.344   4.832 -0.0572 -0.2500 -0.4781
16038SOL    HW149277   3.704   1.374   4.893 -1.8467  0.2042  1.4095
16038SOL    HW249278   3.655   1.251   4.820  0.0163 -0.5011  1.2911
16039SOL     OW49279   4.444   7.708   0.478 -0.9962  0.3650  0.1125
16039SOL    HW149280   4.429   7.786   0.531 -2.7112  1.3298 -1.6562
16039SOL    HW249281   4.469   7.741   0.392  1.3774 -1.1416  0.1210
16040SOL     OW49282   7.956   4.215   8.179 -0.3011  0.1408 -0.1333
16040SOL    HW149283   8.031   4.218   8.121  0.1457 -0.5900  0.3930
16040SOL    HW249284   7.920   4.127   8.167 -1.6003  0.7612 -1.0194
16041SOL     OW49285   1.108   8.541   2.271  0.1467 -0.1438  0.2329
16041SOL    HW149286   1.173   8.548   2.201  1.0745 -1.5274  0.9094
16041SOL    HW249287   1.153   8.492   2.340 -1.6186 -1.1837  0.6985
16042SOL     OW49288   8.623   8.539   7.922  0.3665 -0.4963 -0.3429
16042SOL    HW149289   8.621   8.562   8.015 -0.3554 -2.9066  0.2879
16042SOL    HW249290   8.713   8.507   7.907  1.3884  2.4460 -1.2339
16043SOL     OW49291   1.788   7.470   4.342 -0.1827  0.6200 -0.3989
16043SOL    HW149292   1.796   7.408   4.269  0.6765 -0.5089  0.6150
16043SOL    HW249293   1.697   7.460   4.371 -0.4153  0.7856 -1.0513
16044SOL     OW49294   5.304   8.770   3.413 -0.4741  0.0274  0.8710
16044SOL    HW149295   5.262   8.746   3.495 -1.2983 -1.2153  0.1209
16044SOL    HW249296   5.309   8.689   3.363  1.2444  0.4826  0.2139
16045SOL     OW49297   6.950   4.612   1.149  0.7573 -0.4715  0.6938
16045SOL    HW149298   6.871   4.666   1.155  1.2054  0.4771 -1.1287
16045SOL    HW249299   7.013   4.667   1.102  2.6906 -1.0367  2.5100
16046SOL     OW49300   6.645   3.987   2.654  0.0434 -0.0564  0.3964
16046SOL    HW149301   6.731   3.951   2.674 -0.2333 -0.2535  1.3129
16046SOL    HW249302   6.653   4.080   2.674  0.2443  0.0591 -0.2142
16047SOL     OW49303   0.370   0.426   0.211  0.0988 -0.4817  0.2070
16047SOL    HW149304   0.281   0.445   0.181  0.3015 -0.0583 -0.1339
16047SOL    HW249305   0.378   0.472   0.294  0.0310 -0.4439  0.1927
16048SOL     OW49306   1.267   5.389   6.379  0.0113  0.2737 -0.1738
16048SOL    HW149307   1.194   5.328   6.377 -0.0972  0.3952  0.0366
16048SOL    HW249308   1.344   5.335   6.393  0.2242 -0.0970 -2.4060
16049SOL     OW49309   6.165   5.022   1.863  0.2692 -0.2227 -0.1425
16049SOL    HW149310   6.119   4.944   1.832  0.1159  0.0547 -0.6151
16049SOL    HW249311   6.096   5.082   1.891  0.4100 -1.4995  3.4114
16050SOL     OW49312   2.853   6.617   2.290  0.5847 -0.4463 -0.3283
16050SOL    HW149313   2.804   6.675   2.232 -0.6127 -1.4014 -0.3031
16050SOL    HW249314   2.897   6.677   2.351 -0.8478  0.4403 -0.1150
16051SOL     OW49315   5.091   1.653   7.830 -0.1613 -0.0709 -0.0034
16051SOL    HW149316   5.109   1.605   7.910  0.3735  0.4872  0.2209
16051SOL    HW249317   5.083   1.586   7.762  0.4163 -0.4766  0.3291
16052SOL     OW49318   1.358   5.292   7.601  0.1791  0.0604 -0.2111
16052SOL    HW149319   1.351   5.388   7.602  0.8493  0.1369 -1.1428
16052SOL    HW249320   1.411   5.273   7.523 -1.7863 -1.1716 -1.3526
16053SOL     OW49321   2.182   7.602   2.116  0.5119 -0.5460 -0.2892
16053SOL    HW149322   2.103   7.555   2.143  0.8095 -0.6659  0.3847
16053SOL    HW249323   2.169   7.692   2.147  1.5210 -1.0278  1.6902
16054SOL     OW49324   4.020   6.017   4.799  0.3665  0.1642  0.5612
16054SOL    HW149325   3.955   6.077   4.762 -1.4561 -0.2455  2.8543
16054SOL    HW249326   4.057   6.065   4.873  0.0364 -0.9378  1.4646
16055SOL     OW49327   4.338   3.320   5.732 -0.1171  0.0200 -0.6826
16055SOL    HW149328   4.368   3.329   5.823 -1.0819  0.3476 -0.3825
16055SOL    HW249329   4.397   3.255   5.694  0.1830 -0.2665  0.2342
16056SOL     OW49330   8.598   0.119   7.923  0.1610 -0.5503  0.6832
16056SOL    HW149331   8.594   0.138   8.017  0.0200  2.0574  0.2108
16056SOL    HW249332   8.641   0.196   7.885 -2.6277 -0.0527 -1.7607
16057SOL     OW49333   7.287   8.603   7.596 -0.4835  0.2243  0.0140
16057SOL    HW149334   7.247   8.581   7.680 -0.5715 -0.0043 -0.0879
16057SOL    HW249335   7.317   8.693   7.607 -1.4072  0.5469 -0.0565
16058SOL     OW49336   5.619   7.461   8.328 -0.2641  0.3890  0.2721
16058SOL    HW149337   5.603   7.473   8.234 -0.5575  0.3054  0.3100
16058SOL    HW249338   5.607   7.549   8.365  0.9503  0.6455  0.0811
16059SOL     OW49339   2.276   7.708   3.203  0.1004 -0.3011 -0.4803
16059SOL    HW149340   2.238   7.793   3.224 -2.0548 -1.5314  1.0183
16059SOL    HW249341   2.225   7.676   3.128  1.5466  0.1046 -1.6681
16060SOL     OW49342   5.824   7.791   8.082  0.0468 -0.4161  0.2305
16060SOL    HW149343   5.808   7.877   8.045 -0.6935 -0.9224 -0.6654
16060SOL    HW249344   5.919   7.783   8.085  0.2956 -1.2475 -3.8536
16061SOL     OW49345   6.341   6.055   0.733 -0.5084 -0.3113  0.1442
16061SOL    HW149346   6.318   6.146   0.750 -0.0660 -0.3254  0.8079
16061SOL    HW249347   6.354   6.016   0.819 -1.9144 -1.3315 -0.0486
16062SOL     OW49348   1.031   7.788   3.616  0.0247  0.1649  0.1089
16062SOL    HW149349   1.077   7.761   3.537  0.2962  0.9425 -0.0018
16062SOL    HW249350   1.016   7.881   3.605  2.5029  0.9430  2.1441
16063SOL     OW49351   5.398   0.445   6.029  0.1176 -0.1018  0.2873
16063SOL    HW149352   5.467   0.491   6.075  0.2987 -1.0994  1.0530
16063SOL    HW249353   5.317   0.490   6.053  0.5021  1.2597 -0.8544
16064SOL     OW49354   6.746   8.719   6.611  0.1042 -0.6913 -0.1813
16064SOL    HW149355   6.737   8.814   6.623 -0.0658 -0.5617 -1.2755
16064SOL    HW249356   6.839   8.702   6.626  0.0981 -0.3958  0.2260
16065SOL     OW49357   5.103   2.955   6.643 -0.1671 -0.1269  0.3019
16065SOL    HW149358   5.028   2.979   6.588  1.4651  2.0338 -1.1682
16065SOL    HW249359   5.127   2.867   6.614 -1.1722 -0.2132 -0.3020
16066SOL     OW49360   8.122   4.575   2.674 -0.0190  0.3960  0.5857
16066SOL    HW149361   8.101   4.648   2.615  1.1251 -0.8580 -1.4592
16066SOL    HW249362   8.042   4.522   2.676 -0.3567  0.9076  0.8937
16067SOL     OW49363   2.755   4.540   7.985  0.0928  0.5224 -0.0439
16067SOL    HW149364   2.756   4.450   7.950  2.2492  0.3042  0.4591
16067SOL    HW249365   2.840   4.551   8.026 -0.4875  2.5111  0.7434
16068SOL     OW49366   3.869   6.707   0.101  0.3121  0.3468  0.1236
16068SOL    HW149367   3.931   6.710   0.029  0.4471  1.2665  0.2703
16068SOL    HW249368   3.899   6.775   0.162 -0.4852  0.3982  0.4728
16069SOL     OW49369   3.185   7.552   4.740 -0.0819  0.5392 -0.0094
16069SOL    HW149370   3.264   7.604   4.724  0.3671 -0.0280  0.3253
16069SOL    HW249371   3.153   7.530   4.652 -1.1261  2.6059 -0.1931
16070SOL     OW49372   7.036   8.357   0.001  0.0845  0.4503  0.0955
16070SOL    HW149373   7.108   8.313  -0.043  0.1375  1.0827 -0.4620
16070SOL    HW249374   7.078   8.405   0.073  0.2118  0.7674 -0.1901
16071SOL     OW49375   4.468   7.382   0.016  0.1725  0.1682 -0.3060
16071SOL    HW149376   4.422   7.396   0.099 -1.0946  0.8207 -1.0695
16071SOL    HW249377   4.543   7.441   0.020  0.4801 -0.2604  0.6115
16072SOL     OW49378   2.023   3.960   4.580  0.5187  0.5781  0.1016
16072SOL    HW149379   2.054   3.912   4.657 -1.3765  1.1805  1.3014
16072SOL    HW249380   1.936   3.925   4.563  0.2115  1.6825 -0.6949
16073SOL     OW49381   2.454   2.492   6.416 -0.6474 -0.3473 -0.5067
16073SOL    HW149382   2.398   2.570   6.426 -0.4454 -0.1803 -0.6827
16073SOL    HW249383   2.510   2.512   6.342 -0.2611 -0.4619 -0.2497
16074SOL     OW49384   8.212   8.144   7.391 -0.0664 -0.2002 -0.3601
16074SOL    HW149385   8.200   8.050   7.378  0.7112 -0.5893  1.5092
16074SOL    HW249386   8.297   8.152   7.433 -1.3699  1.0492  2.2709
16075SOL     OW49387   2.401   2.253   8.271  0.0285 -0.3902 -0.3839
16075SOL    HW149388   2.450   2.211   8.342 -0.1606  0.7043  0.4320
16075SOL    HW249389   2.374   2.182   8.214  1.7284 -1.1299 -0.3261
16076SOL     OW49390   2.695   6.941   5.555 -0.7522  0.3112  0.1182
16076SOL    HW149391   2.633   7.013   5.565 -1.7392 -0.6096  0.8392
16076SOL    HW249392   2.712   6.912   5.644 -0.4297 -0.3932 -0.1693
16077SOL     OW49393   8.339   5.370   8.181  0.3996 -0.0056  0.5684
16077SOL    HW149394   8.337   5.416   8.098 -0.6658  1.1003  1.1795
16077SOL    HW249395   8.387   5.289   8.162 -0.4312 -0.1217 -1.2802
16078SOL     OW49396   5.251   7.330   7.721 -0.4672  0.6258 -0.0694
16078SOL    HW149397   5.180   7.391   7.702  0.4445  1.1811 -1.9243
16078SOL    HW249398   5.330   7.384   7.717  0.2610 -0.4592 -0.6757
16079SOL     OW49399   0.599   1.279   1.532 -0.4429 -0.5338 -0.3713
16079SOL    HW149400   0.531   1.273   1.599  0.4453 -0.7127  0.5486
16079SOL    HW249401   0.560   1.330   1.462 -1.5150 -0.6240  0.1420
16080SOL     OW49402   2.503   6.265   1.976 -0.1278  0.3268 -0.0442
16080SOL    HW149403   2.573   6.309   2.023  0.5341  0.6395 -1.2621
16080SOL    HW249404   2.423   6.302   2.012  0.3950  2.7067 -1.0964
16081SOL     OW49405   6.685   1.930   2.229 -0.1353  0.7478  0.2735
16081SOL    HW149406   6.711   1.862   2.291  0.3849  1.5291  0.9249
16081SOL    HW249407   6.766   1.977   2.209 -0.6702  1.9228  0.7652
16082SOL     OW49408   8.439   7.913   7.130  0.4181  0.2809  0.2788
16082SOL    HW149409   8.525   7.890   7.096 -0.9212 -2.1484 -1.8512
16082SOL    HW249410   8.403   7.974   7.065  0.0055  0.1357  0.3652
16083SOL     OW49411   1.129   8.405   3.449  0.1689  0.1806  0.2115
16083SOL    HW149412   1.200   8.393   3.387 -1.5086 -1.0825 -1.5851
16083SOL    HW249413   1.059   8.347   3.417 -1.8997  1.8212  1.5144
16084SOL     OW49414   7.115   0.244   0.910  0.1284  0.0963 -0.5455
16084SOL    HW149415   7.134   0.150   0.917  0.7359  0.2327 -0.3096
16084SOL    HW249416   7.046   0.260   0.974  0.0253 -0.1863 -0.5834
16085SOL     OW49417   8.129   2.978   6.744 -0.0354 -0.0670 -0.2994
16085SOL    HW149418   8.121   2.940   6.832  1.3464  0.3294  0.0144
16085SOL    HW249419   8.206   3.034   6.749  1.3499 -1.6547 -2.3368
16086SOL     OW49420   2.545   3.471   2.302 -0.0906  0.2511 -0.1952
16086SOL    HW149421   2.519   3.398   2.245  0.2414 -0.0201 -0.0074
16086SOL    HW249422   2.475   3.478   2.367 -0.2527  0.2710 -0.3735
16087SOL     OW49423   2.225   4.307   6.956  0.4645 -0.1083 -0.2405
16087SOL    HW149424   2.242   4.223   6.913  1.5820 -0.7314  1.3338
16087SOL    HW249425   2.222   4.286   7.049 -1.9636  1.1952  0.0542
16088SOL     OW49426   7.882   5.559   1.798 -0.1613 -0.5078 -1.0257
16088SOL    HW149427   7.851   5.594   1.715  1.0589  1.9975 -0.5357
16088SOL    HW249428   7.910   5.470   1.778  0.0034 -0.0137 -3.2871
16089SOL     OW49429   5.337   3.439   1.222  0.2925 -0.2392 -0.0173
16089SOL    HW149430   5.245   3.456   1.202  0.2247 -1.0628 -0.4429
16089SOL    HW249431   5.334   3.377   1.296  0.4862 -0.7115 -0.3981
16090SOL     OW49432   4.006   0.478   2.962  0.1380  0.1680 -0.2080
16090SOL    HW149433   4.048   0.412   3.018 -1.6698 -1.4342 -0.6225
16090SOL    HW249434   4.021   0.447   2.873 -0.2458  0.6348 -0.4366
16091SOL     OW49435   5.515   1.109   2.893 -0.2216 -0.6102 -0.0660
16091SOL    HW149436   5.592   1.078   2.846 -1.2361 -1.5747 -1.1561
16091SOL    HW249437   5.523   1.070   2.980  1.3867  0.7398  0.4318
16092SOL     OW49438   8.436   5.392   1.492 -0.1731  0.3947 -0.0994
16092SOL    HW149439   8.462   5.483   1.472  1.0623  0.3985  1.3148
16092SOL    HW249440   8.439   5.347   1.407 -0.9161  1.6813 -0.8440
16093SOL     OW49441   5.641   4.038   5.480  0.5421 -0.3205 -0.3192
16093SOL    HW149442   5.706   4.098   5.516  0.1860 -0.0602 -0.0905
16093SOL    HW249443   5.574   4.096   5.442  0.5234 -0.5838 -0.6932
16094SOL     OW49444   7.136   6.455   5.100  0.0913  0.5334 -0.2527
16094SOL    HW149445   7.124   6.547   5.124 -1.2957  0.2135  0.4406
16094SOL    HW249446   7.226   6.435   5.122  0.1968  1.5407  0.2701
16095SOL     OW49447   1.194   6.737   3.555  0.2051 -0.5799  0.1532
16095SOL    HW149448   1.280   6.732   3.513  0.1368  0.4743 -0.1420
16095SOL    HW249449   1.205   6.690   3.638  0.3971 -2.5330 -0.9084
16096SOL     OW49450   0.403   7.591   5.946  0.0025  0.5166 -0.2699
16096SOL    HW149451   0.490   7.584   5.983 -0.8426 -0.0405  1.7417
16096SOL    HW249452   0.381   7.683   5.954  0.1041  0.5205 -0.0219
16097SOL     OW49453   1.536   1.125   3.156 -0.3032  0.3690 -0.3764
16097SOL    HW149454   1.610   1.124   3.096  1.3390 -0.2204  1.5531
16097SOL    HW249455   1.566   1.077   3.233 -2.8925 -0.3485  0.2945
16098SOL     OW49456   2.169   7.746   6.265  0.0835  0.5442 -0.2217
16098SOL    HW149457   2.082   7.781   6.286  0.8304  1.5353  1.4225
16098SOL    HW249458   2.229   7.795   6.322  1.7312 -0.1208 -1.3105
16099SOL     OW49459   5.015   0.119   1.006 -0.3765  0.1075  0.4191
16099SOL    HW149460   4.943   0.182   1.009 -0.2408  0.2364  1.0244
16099SOL    HW249461   5.037   0.113   0.913 -0.9406  0.3227  0.2649
16100SOL     OW49462   5.267   6.574   3.487 -0.0289  0.1932 -0.4139
16100SOL    HW149463   5.227   6.625   3.557  1.7362  0.7011  0.2794
16100SOL    HW249464   5.205   6.582   3.414 -0.4023  2.3470  0.0455
16101SOL     OW49465   3.684   7.576   6.491 -0.8009 -0.2754  0.2192
16101SOL    HW149466   3.635   7.654   6.465 -0.7380 -0.3299 -0.0637
16101SOL    HW249467   3.633   7.539   6.563 -1.6896 -0.8489 -0.6770
16102SOL     OW49468   7.981   0.003   4.811 -0.0503 -0.1458  0.2861
16102SOL    HW149469   7.911   0.013   4.747 -0.6673 -1.5400  0.7134
16102SOL    HW249470   7.955   0.060   4.884 -0.4175 -0.1754  0.1799
16103SOL     OW49471   5.936   3.349   0.511 -0.1915 -0.2555 -0.2634
16103SOL    HW149472   5.881   3.428   0.511  2.7146  1.9346  1.1967
16103SOL    HW249473   5.979   3.350   0.426 -1.3785 -1.2827 -0.9119
16104SOL     OW49474   8.498   2.221   0.041  0.0700 -0.0090 -0.3631
16104SOL    HW149475   8.442   2.208   0.118  1.9348  0.9204  1.2316
16104SOL    HW249476   8.440   2.264  -0.023 -1.8157 -1.7660  0.0531
16105SOL     OW49477   0.815   4.142   2.355  0.0817  0.2161 -0.0308
16105SOL    HW149478   0.747   4.118   2.417  0.3337 -0.2871  0.0575
16105SOL    HW249479   0.810   4.237   2.349  0.0261  0.2682  0.7268
16106SOL     OW49480   3.633   1.998   3.171 -0.2411 -0.5094  0.4405
16106SOL    HW149481   3.639   1.914   3.125 -0.4151 -0.2708 -0.0163
16106SOL    HW249482   3.699   1.992   3.240  0.9390 -0.3548 -0.6549
16107SOL     OW49483   6.646   1.443   1.320  0.4806 -0.6791  0.4148
16107SOL    HW149484   6.740   1.455   1.323  0.5178 -0.6278 -0.6042
16107SOL    HW249485   6.610   1.509   1.379  0.9509  1.0298 -1.1350
16108SOL     OW49486   6.142   4.532   7.641  0.1074 -0.1519  0.0264
16108SOL    HW149487   6.110   4.459   7.587 -0.2516 -0.7391  1.0121
16108SOL    HW249488   6.091   4.526   7.722 -0.2069  1.4326 -0.0195
16109SOL     OW49489   3.051   7.660   5.466  0.2292 -0.2289  0.1050
16109SOL    HW149490   3.144   7.655   5.489  0.0774  0.1585  0.8361
16109SOL    HW249491   3.038   7.591   5.400  1.1800  0.1750 -0.5268
16110SOL     OW49492   1.662   0.123   1.302 -0.4088 -0.5184 -0.6022
16110SOL    HW149493   1.680   0.178   1.379  1.1329  0.3796 -1.5584
16110SOL    HW249494   1.678   0.033   1.333 -2.1008 -0.4186  0.7331
16111SOL     OW49495   2.711   7.894   0.135 -0.6867 -0.3778 -0.0695
16111SOL    HW149496   2.736   7.966   0.193 -1.6923  0.5019 -0.6912
16111SOL    HW249497   2.616   7.889   0.142 -0.5318 -3.3670  1.9387
16112SOL     OW49498   7.169   2.664   6.125 -0.4343  0.3816  0.3211
16112SOL    HW149499   7.167   2.669   6.030  1.1870  2.2407  0.3236
16112SOL    HW249500   7.225   2.588   6.144  0.5448  0.9364 -0.2507
16113SOL     OW49501   3.247   7.780   4.543 -0.1195 -0.3702 -0.3159
16113SOL    HW149502   3.336   7.794   4.509 -0.1632 -0.3822 -0.4366
16113SOL    HW249503   3.202   7.734   4.472 -0.5039  0.4910 -0.6301
16114SOL     OW49504   3.065   0.976   8.419 -0.0416 -0.0368 -0.4192
16114SOL    HW149505   3.046   1.059   8.464  0.3904  0.7360 -1.6156
16114SOL    HW249506   3.135   0.998   8.359 -0.6979 -1.0064 -1.5622
16115SOL     OW49507   1.830   2.129   5.712 -0.2846  0.3951 -0.1718
16115SOL    HW149508   1.887   2.075   5.658 -0.0381  0.5786 -0.0956
16115SOL    HW249509   1.864   2.119   5.801  0.0367  1.0257 -0.2226
16116SOL     OW49510   2.429   7.259   7.521  0.1973 -0.3104 -0.4864
16116SOL    HW149511   2.422   7.319   7.595 -0.4548 -1.3944  0.3673
16116SOL    HW249512   2.466   7.179   7.559  0.8237 -0.5438 -1.5474
16117SOL     OW49513   6.691   3.243   0.739 -0.0999 -0.6593 -0.1797
16117SOL    HW149514   6.742   3.187   0.681  0.4843 -0.7762  0.4302
16117SOL    HW249515   6.609   3.259   0.692 -0.5590 -2.5661 -0.1154
16118SOL     OW49516   1.381   7.564   6.453 -0.5263 -0.3257  0.6187
16118SOL    HW149517   1.404   7.646   6.497  0.1966  0.3913 -1.0197
16118SOL    HW249518   1.443   7.500   6.489 -1.4666 -0.3494  2.3342
16119SOL     OW49519   3.287   7.314   3.243 -0.0810 -0.2536 -0.8019
16119SOL    HW149520   3.224   7.297   3.313  0.3072 -0.2925 -0.4590
16119SOL    HW249521   3.357   7.364   3.285 -0.5603  1.0493 -1.4970
16120SOL     OW49522   4.689   8.132   4.511  0.1649  0.3580 -0.4336
16120SOL    HW149523   4.629   8.063   4.481  0.3462  0.4759 -1.0748
16120SOL    HW249524   4.775   8.090   4.513  0.2799  0.5726 -0.8533
16121SOL     OW49525   0.247   7.868   1.688  0.2728  0.2814 -0.0237
16121SOL    HW149526   0.274   7.840   1.600  2.0899  0.3563  0.4559
16121SOL    HW249527   0.311   7.827   1.746 -0.3039  1.0431  1.1776
16122SOL     OW49528   6.995   3.583   5.092 -0.2240  0.0754  0.1402
16122SOL    HW149529   6.910   3.552   5.060  1.0701 -0.3118 -3.2842
16122SOL    HW249530   6.994   3.562   5.186 -2.0994 -4.1789 -0.6013
16123SOL     OW49531   2.029   2.574   4.374  0.6113  0.2800 -0.1972
16123SOL    HW149532   2.022   2.543   4.284  1.0226 -0.8779  0.1556
16123SOL    HW249533   2.070   2.660   4.367 -2.0555  1.5931 -1.3233
16124SOL     OW49534   5.941   8.594   5.247  0.6384  0.2778 -0.3610
16124SOL    HW149535   5.908   8.684   5.243 -0.3807 -0.1216 -1.0098
16124SOL    HW249536   5.922   8.557   5.161  0.9095 -0.6164 -0.0449
16125SOL     OW49537   5.486   6.816   8.354 -0.5584  0.0302 -0.3406
16125SOL    HW149538   5.505   6.885   8.290 -1.6889  1.2324  0.5653
16125SOL    HW249539   5.519   6.850   8.437 -2.1217  0.0252  0.3257
16126SOL     OW49540   6.426   8.417   4.721  0.1433  0.3325 -0.2660
16126SOL    HW149541   6.373   8.473   4.778  0.1650  1.0859 -0.9535
16126SOL    HW249542   6.409   8.451   4.633  0.1700 -0.7532 -0.7015
16127SOL     OW49543   6.725   5.857   6.527  0.1791 -0.2969  0.1345
16127SOL    HW149544   6.746   5.889   6.439 -0.7306 -0.4341 -0.1518
16127SOL    HW249545   6.805   5.870   6.578  0.6032  0.1183 -0.6229
16128SOL     OW49546   5.843   8.008   7.088  0.1955  0.1796 -0.8240
16128SOL    HW149547   5.904   7.938   7.112 -0.6077 -0.2931 -0.1001
16128SOL    HW249548   5.761   7.983   7.130 -0.0121  1.7393 -0.2751
16129SOL     OW49549   2.354   0.161   7.006 -0.4061  0.3513 -0.1893
16129SOL    HW149550   2.406   0.224   7.056  0.2141 -0.5245  0.3026
16129SOL    HW249551   2.418   0.108   6.960 -0.9178  0.0559 -0.5714
16130SOL     OW49552   0.055   5.855   4.969 -0.0326 -0.5981  0.2056
16130SOL    HW149553   0.013   5.901   5.041  1.1701 -0.3322  0.7588
16130SOL    HW249554  -0.005   5.783   4.948 -1.2902  0.4088  0.2113
16131SOL     OW49555   7.852   7.953   1.871  0.0175 -0.1372  0.1383
16131SOL    HW149556   7.887   7.888   1.810 -1.0396 -1.6972  1.1036
16131SOL    HW249557   7.865   7.914   1.958 -0.8487  0.8314  0.7377
16132SOL     OW49558   2.161   1.077   3.792  0.3560 -0.0670 -0.0489
16132SOL    HW149559   2.112   1.002   3.824  0.4267  0.6669  1.9534
16132SOL    HW249560   2.199   1.048   3.709 -0.7929 -1.7254 -0.0410
16133SOL     OW49561   0.667   0.214   0.748  0.4112  0.0935 -0.4218
16133SOL    HW149562   0.629   0.233   0.662 -1.5846  0.4953  0.4835
16133SOL    HW249563   0.735   0.149   0.731  1.4102  1.5928 -2.5169
16134SOL     OW49564   5.759   3.165   7.786 -0.3758 -0.1846 -0.1927
16134SOL    HW149565   5.748   3.166   7.691 -1.8384  0.4915 -0.0328
16134SOL    HW249566   5.720   3.083   7.814  1.4980 -1.1721 -0.2925
16135SOL     OW49567   7.325   0.965   1.605  0.4175 -0.4220  0.0657
16135SOL    HW149568   7.274   1.030   1.557 -1.9024 -0.5507  2.1329
16135SOL    HW249569   7.310   0.882   1.559 -0.0433 -0.2044 -0.1732
16136SOL     OW49570   8.600   0.812   5.249 -0.7152 -0.6454 -0.5518
16136SOL    HW149571   8.593   0.886   5.189  1.4987 -0.6937 -0.9598
16136SOL    HW249572   8.562   0.843   5.331  0.0995  0.9319 -0.7398
16137SOL     OW49573   6.068   0.620   4.934  0.4717 -0.0386  0.2181
16137SOL    HW149574   6.037   0.602   4.845  0.3681  0.9780  0.0380
16137SOL    HW249575   6.135   0.688   4.924  0.7473 -0.1973  0.8822
16138SOL     OW49576   7.008   5.833   7.613 -0.3335 -0.2289 -0.8351
16138SOL    HW149577   7.063   5.855   7.689 -0.7311 -0.9727 -0.3228
16138SOL    HW249578   6.971   5.748   7.634 -0.1896 -0.5994 -2.0264
16139SOL     OW49579   2.296   6.701   4.763  0.1412  0.2656  0.4800
16139SOL    HW149580   2.281   6.795   4.770  1.7087  0.5436  0.4604
16139SOL    HW249581   2.302   6.670   4.853 -1.4312 -0.0490  0.5228
16140SOL     OW49582   3.200   0.703   5.090 -0.3798 -0.0870 -0.6359
16140SOL    HW149583   3.160   0.669   5.009 -2.4693  0.5391  0.0536
16140SOL    HW249584   3.200   0.798   5.078 -0.8023  0.0165  0.1086
16141SOL     OW49585   0.234   2.876   7.873  0.4251  0.9245  0.0779
16141SOL    HW149586   0.325   2.848   7.879  0.3841  0.8583  0.4675
16141SOL    HW249587   0.199   2.861   7.961 -0.1494  0.2795 -0.2463
16142SOL     OW49588   7.285   7.973   1.118 -0.0487 -0.4832  0.6037
16142SOL    HW149589   7.278   7.934   1.205 -1.4291 -1.0423  0.2787
16142SOL    HW249590   7.250   8.061   1.128  2.3077  0.4512  1.1612
16143SOL     OW49591   8.062   6.563   6.541 -0.4788  0.1504 -0.2093
16143SOL    HW149592   8.021   6.555   6.456  1.2071  0.2371 -1.0724
16143SOL    HW249593   8.132   6.498   6.541  0.5493  1.2133  0.4697
16144SOL     OW49594   3.805   8.263   5.851  0.4135 -0.1358  0.2159
16144SOL    HW149595   3.858   8.242   5.928  0.5165 -0.4660  0.0548
16144SOL    HW249596   3.858   8.324   5.801  0.7068 -0.5851 -0.0224
16145SOL     OW49597   0.400   1.898   3.810 -0.0024 -0.4525  0.4638
16145SOL    HW149598   0.325   1.943   3.771  1.1233  0.6535 -0.5172
16145SOL    HW249599   0.416   1.823   3.753  1.9256  1.4130 -1.6517
16146SOL     OW49600   2.425   8.190   0.581 -0.2739  0.5606 -0.0134
16146SOL    HW149601   2.452   8.192   0.489 -0.1351 -0.2455  0.0079
16146SOL    HW249602   2.497   8.235   0.627  0.9765 -1.3386  0.0100
16147SOL     OW49603   2.901   2.631   8.394 -0.0676 -0.0974  0.5040
16147SOL    HW149604   2.833   2.580   8.437 -0.3874  1.0717  1.4469
16147SOL    HW249605   2.858   2.713   8.370  0.9284  0.5836  0.9366
16148SOL     OW49606   5.346   7.933   7.513  0.6144 -0.0733  0.8228
16148SOL    HW149607   5.313   7.877   7.442 -0.4904  0.7303  0.6905
16148SOL    HW249608   5.271   7.985   7.540  1.2859  0.3693  1.8966
16149SOL     OW49609   5.303   0.978   1.533 -0.1062 -0.8877 -0.1587
16149SOL    HW149610   5.341   0.934   1.608 -0.9490 -1.2525  0.0717
16149SOL    HW249611   5.292   0.909   1.467 -0.2288 -0.7615 -0.2735
16150SOL     OW49612   2.774   6.613   0.242  0.0748 -0.2061  0.0464
16150SOL    HW149613   2.729   6.682   0.292 -0.1997 -0.6200  0.3712
16150SOL    HW249614   2.854   6.656   0.209 -0.0603  0.2491  0.2989
16151SOL     OW49615   0.185   6.820   6.641  0.0586 -0.8042  0.2616
16151SOL    HW149616   0.271   6.780   6.627 -0.3034 -1.8184  0.8095
16151SOL    HW249617   0.132   6.790   6.567 -0.0033 -0.7393  0.2792
16152SOL     OW49618   0.180   8.279   8.292 -0.0257 -0.6872  0.1873
16152SOL    HW149619   0.098   8.264   8.339  1.2540  1.0833  3.2852
16152SOL    HW249620   0.160   8.352   8.233 -0.7988 -0.5708  0.5750
16153SOL     OW49621   2.163   4.739   2.165  0.2621  0.4469  0.3891
16153SOL    HW149622   2.236   4.786   2.205  1.0348 -1.9282  1.9468
16153SOL    HW249623   2.201   4.657   2.135 -1.1409  0.5190 -1.8333
16154SOL     OW49624   7.378   7.289   7.954 -0.0421 -0.3195 -0.1757
16154SOL    HW149625   7.379   7.216   7.893  0.6743 -0.2411 -0.2607
16154SOL    HW249626   7.390   7.366   7.900 -3.4654  0.1687 -0.4473
16155SOL     OW49627   1.901   7.477   1.276 -0.3523  0.1530 -0.9535
16155SOL    HW149628   1.953   7.551   1.309  0.5574 -1.5087  1.6880
16155SOL    HW249629   1.965   7.419   1.235 -0.7618 -0.0323 -1.3334
16156SOL     OW49630   2.646   0.090   0.066 -0.6753 -0.2948 -0.0386
16156SOL    HW149631   2.705   0.021   0.096 -1.9428 -0.7128  1.6854
16156SOL    HW249632   2.564   0.074   0.114 -2.2679  0.1754 -2.4073
16157SOL     OW49633   5.733   7.269   1.964 -0.0233 -0.6632  0.5844
16157SOL    HW149634   5.753   7.196   2.023  1.4753 -1.0364 -0.3237
16157SOL    HW249635   5.693   7.228   1.888  0.3025 -0.4853  0.3139
16158SOL     OW49636   4.218   2.891   7.571  0.7056 -0.2470  0.1112
16158SOL    HW149637   4.162   2.825   7.610 -1.7635  0.9616 -1.1410
16158SOL    HW249638   4.174   2.915   7.489  2.4845  1.5877 -0.3996
16159SOL     OW49639   3.738   7.796   4.790  0.8364  0.4593  0.4676
16159SOL    HW149640   3.657   7.758   4.755 -0.4856  1.5672  2.1889
16159SOL    HW249641   3.796   7.721   4.803 -0.3734 -0.5142  0.4003
16160SOL     OW49642   8.491   2.100   4.988 -0.2783 -0.0143  0.4121
16160SOL    HW149643   8.433   2.044   4.936  1.2121 -1.4831  0.2308
16160SOL    HW249644   8.564   2.120   4.929 -0.3157  1.3699  0.7925
16161SOL     OW49645   4.347   0.413   6.993  0.1800  0.1924  0.4006
16161SOL    HW149646   4.363   0.448   7.081 -1.8328 -0.5343  1.0934
16161SOL    HW249647   4.366   0.320   7.000  1.6656  0.4022 -0.4172
16162SOL     OW49648   4.867   5.247   7.566 -0.2553  0.3383 -0.0106
16162SOL    HW149649   4.793   5.291   7.522 -0.8504  1.2720  1.8372
16162SOL    HW249650   4.875   5.163   7.521 -1.8278  0.6171 -0.8862
16163SOL     OW49651   3.350   3.344   4.863  0.8351  0.0955  0.0930
16163SOL    HW149652   3.258   3.363   4.880  0.4405 -0.7701 -0.9425
16163SOL    HW249653   3.390   3.339   4.949 -0.0337  0.6995  0.5475
16164SOL     OW49654   1.374   4.818   7.734  0.1491  0.0528  0.2144
16164SOL    HW149655   1.427   4.744   7.761 -0.0029 -0.8971 -1.8816
16164SOL    HW249656   1.437   4.880   7.697  0.3623  1.3507  2.5901
16165SOL     OW49657   7.775   3.531   4.348  0.9137 -0.2752  0.2389
16165SOL    HW149658   7.833   3.606   4.339 -0.4659  0.5875 -2.3282
16165SOL    HW249659   7.770   3.492   4.261 -2.0438 -0.5068  0.3817
16166SOL     OW49660   1.431   2.934   6.742 -0.1764  0.0045  0.0300
16166SOL    HW149661   1.501   2.891   6.693  0.6235 -1.4298  2.2535
16166SOL    HW249662   1.477   2.991   6.804 -1.1630  2.1335 -1.0979
16167SOL     OW49663   4.018   6.726   8.720 -0.6852  0.2737  0.3484
16167SOL    HW149664   4.112   6.743   8.718 -0.6384  0.1870  1.2227
16167SOL    HW249665   3.979   6.798   8.671 -0.0285 -0.9332 -2.1127
16168SOL     OW49666   5.570   0.589   6.142  0.0579 -0.4844  0.2393
16168SOL    HW149667   5.605   0.577   6.230 -0.1560 -1.1780  0.2403
16168SOL    HW249668   5.599   0.676   6.115 -0.4896  0.0342  1.2745
16169SOL     OW49669   1.236   4.374   4.081  0.0100 -0.5993  0.3661
16169SOL    HW149670   1.256   4.322   4.158 -0.9820 -0.9749  0.3843
16169SOL    HW249671   1.143   4.396   4.091  0.3663  1.0637  0.2995
16170SOL     OW49672   1.217   0.514   3.293  0.5471 -0.6414 -0.2383
16170SOL    HW149673   1.258   0.572   3.228  0.6166  0.5952  0.8676
16170SOL    HW249674   1.287   0.491   3.353  0.5201 -1.9214 -0.6757
16171SOL     OW49675   2.165   1.666   8.609 -0.4353 -0.2006 -0.4447
16171SOL    HW149676   2.131   1.755   8.623 -0.7657 -0.1775 -1.3398
16171SOL    HW249677   2.096   1.621   8.561 -0.0736 -0.8034 -0.4043
16172SOL     OW49678   1.212   1.073   8.505 -0.0926 -0.1776 -0.2121
16172SOL    HW149679   1.282   1.130   8.538  0.3370  0.9234 -2.8029
16172SOL    HW249680   1.215   1.084   8.410 -2.6575 -1.4957 -0.5220
16173SOL     OW49681   8.154   2.509   4.556 -0.3672  0.1720  0.2773
16173SOL    HW149682   8.128   2.430   4.508 -0.2052 -0.3694  1.0595
16173SOL    HW249683   8.074   2.537   4.601 -0.7673  1.2230 -1.0083
16174SOL     OW49684   4.209   7.613   0.527  0.0436  0.0723 -0.0361
16174SOL    HW149685   4.171   7.667   0.596 -0.7956 -1.1915  0.5191
16174SOL    HW249686   4.300   7.642   0.522 -0.1268  0.8414  0.9256
16175SOL     OW49687   8.295   6.866   5.645  0.6722  0.1071  0.8428
16175SOL    HW149688   8.311   6.955   5.612  1.8182 -0.0666  0.8720
16175SOL    HW249689   8.200   6.858   5.648  0.4891  0.2474 -2.0783
16176SOL     OW49690   8.197   0.100   1.538  0.2096 -0.1368 -0.5805
16176SOL    HW149691   8.145   0.112   1.459 -0.0579 -1.3212 -0.6108
16176SOL    HW249692   8.133   0.096   1.609 -0.0146 -3.3176 -0.7955
16177SOL     OW49693   0.104   7.709   7.832  0.4568  0.3933  0.4578
16177SOL    HW149694   0.173   7.723   7.767  0.5435 -0.2603  0.4048
16177SOL    HW249695   0.030   7.677   7.781  0.8640 -1.1545  0.8031
16178SOL     OW49696   1.139   3.836   6.379  0.1618  0.0210 -0.3280
16178SOL    HW149697   1.053   3.846   6.338  0.1404 -0.4716 -0.4068
16178SOL    HW249698   1.179   3.922   6.372 -0.1612  0.1463 -0.6600
16179SOL     OW49699   2.807   0.390   4.694 -0.3242 -0.1748  0.4873
16179SOL    HW149700   2.855   0.469   4.669 -1.5782  0.8099  1.0683
16179SOL    HW249701   2.715   0.417   4.692 -0.8104 -1.7614  0.2464
16180SOL     OW49702   8.181   2.050   2.132  0.5222 -0.2647 -0.1409
16180SOL    HW149703   8.192   2.144   2.144  2.1909 -0.4838  0.3977
16180SOL    HW249704   8.262   2.021   2.089  0.3101 -1.5232  0.2395
16181SOL     OW49705   7.626   2.419   1.248 -0.1565  0.1415 -0.5967
16181SOL    HW149706   7.645   2.455   1.162  1.8679 -1.1171 -0.7623
16181SOL    HW249707   7.649   2.489   1.309  1.6111 -0.0448 -0.9904
16182SOL     OW49708   2.171   7.768   1.675 -0.0334  0.7386  0.0132
16182SOL    HW149709   2.259   7.779   1.640 -0.1276  1.5342 -0.0016
16182SOL    HW249710   2.115   7.761   1.597 -0.1419  1.6643 -0.0089
16183SOL     OW49711   1.163   4.066   0.771  0.2796 -0.3655  0.4230
16183SOL    HW149712   1.250   4.093   0.744 -0.7538  2.3542 -0.5582
16183SOL    HW249713   1.120   4.037   0.690 -0.1578 -0.4069  0.6644
16184SOL     OW49714   5.467   4.712   6.467 -0.3792  0.4871  0.0407
16184SOL    HW149715   5.482   4.705   6.561 -0.2759  0.4379  0.0206
16184SOL    HW249716   5.544   4.759   6.434 -0.5704  0.7992  0.0270
16185SOL     OW49717   5.742   6.233   7.179 -0.6428  0.2435 -0.1755
16185SOL    HW149718   5.772   6.201   7.093  0.1139 -0.2025  0.2492
16185SOL    HW249719   5.649   6.208   7.182 -0.4688 -0.4719 -0.5307
16186SOL     OW49720   8.664   3.108   4.542 -0.0519  0.5771 -0.0166
16186SOL    HW149721   8.570   3.092   4.556  0.6092 -1.0955  3.5628
16186SOL    HW249722   8.696   3.025   4.506  0.3239  0.5415  0.3995
16187SOL     OW49723   0.437   4.482   0.917  0.1695  0.1683  0.0144
16187SOL    HW149724   0.454   4.404   0.865  2.8007  1.0347 -0.5302
16187SOL    HW249725   0.504   4.481   0.985  0.5855  2.1884 -0.2983
16188SOL     OW49726   5.686   2.973   3.498 -0.5234  0.1263  0.0848
16188SOL    HW149727   5.691   2.919   3.420 -0.0335 -0.0188  0.2136
16188SOL    HW249728   5.742   3.048   3.480  0.5458 -0.4783  0.7324
16189SOL     OW49729   1.861   7.996   2.112 -0.3789 -0.4260  0.1600
16189SOL    HW149730   1.823   8.026   2.194  0.6499  0.4728  0.3278
16189SOL    HW249731   1.825   8.055   2.046  0.0361 -0.1356  0.1932
16190SOL     OW49732   5.360   8.671   3.895 -0.3172 -0.0489  0.0537
16190SOL    HW149733   5.318   8.681   3.810 -1.4914  0.8895  0.7262
16190SOL    HW249734   5.356   8.577   3.913 -0.2062 -0.2305 -0.8379
16191SOL     OW49735   6.604   8.727   2.771  0.2522  1.1064  0.7146
16191SOL    HW149736   6.514   8.746   2.795 -0.6039  0.8392 -1.9103
16191SOL    HW249737   6.606   8.633   2.755  0.3932  1.3773 -1.1788
16192SOL     OW49738   6.459   1.205   4.143  0.0997  0.2797 -0.0729
16192SOL    HW149739   6.530   1.144   4.123  1.3425  1.6684  0.0156
16192SOL    HW249740   6.488   1.289   4.108 -1.1855  1.0378  0.6070
16193SOL     OW49741   7.968   1.514   7.610 -0.0636 -0.0738  0.6206
16193SOL    HW149742   8.043   1.472   7.568 -0.7938  0.3535 -1.2197
16193SOL    HW249743   7.987   1.608   7.605 -1.8174  0.2738 -2.3953
16194SOL     OW49744   5.172   5.771   5.155  0.3453  0.4490 -0.2293
16194SOL    HW149745   5.134   5.820   5.227  0.1614  0.8048 -0.5606
16194SOL    HW249746   5.135   5.683   5.162 -1.6066  1.1218 -1.3077
16195SOL     OW49747   8.365   7.722   3.148 -0.0517  0.0776  0.3193
16195SOL    HW149748   8.454   7.747   3.123 -0.3215  1.0686  0.2951
16195SOL    HW249749   8.309   7.761   3.080 -0.4771 -1.0108  0.0133
16196SOL     OW49750   1.548   1.639   5.344  0.2744 -0.0678  0.4794
16196SOL    HW149751   1.500   1.714   5.308 -0.3337 -1.7263 -2.5626
16196SOL    HW249752   1.498   1.612   5.421 -1.5754  0.5174 -0.4581
16197SOL     OW49753   3.775   2.561   7.845 -0.0696 -0.0043 -0.5128
16197SOL    HW149754   3.712   2.500   7.809 -0.4990 -0.2234  0.5704
16197SOL    HW249755   3.744   2.647   7.816 -2.4372  0.1752  2.0653
16198SOL     OW49756   1.419   3.478   4.470  0.3265 -0.5413 -0.1002
16198SOL    HW149757   1.500   3.471   4.520  0.2039  0.8732  0.3382
16198SOL    HW249758   1.349   3.468   4.535  0.1574 -0.6611 -0.2988
16199SOL     OW49759   8.131   8.562   5.936  0.6205 -0.2792 -0.6061
16199SOL    HW149760   8.077   8.624   5.984 -0.5777  0.3051 -2.5819
16199SOL    HW249761   8.169   8.614   5.864  2.7092 -0.9995 -0.0934
16200SOL     OW49762   4.674   7.035   2.193  0.2554  0.1693 -0.5532
16200SOL    HW149763   4.752   7.091   2.184  0.0870  0.2734 -1.4311
16200SOL    HW249764   4.705   6.948   2.168 -0.1797  0.4308 -2.0903
16201SOL     OW49765   4.005   0.571   7.406  0.2756 -0.0739  0.5349
16201SOL    HW149766   3.938   0.639   7.398  0.1456 -0.3397 -0.8574
16201SOL    HW249767   4.052   0.573   7.322  0.5438 -1.4051  0.6317
16202SOL     OW49768   7.328   5.541   1.282 -0.2724 -0.3469 -0.4139
16202SOL    HW149769   7.287   5.475   1.337 -1.1881  0.1515 -0.4797
16202SOL    HW249770   7.261   5.564   1.217 -0.1700  1.0029 -0.0794
16203SOL     OW49771   0.028   0.293   3.047 -0.5279 -0.1019  0.2279
16203SOL    HW149772   0.029   0.210   2.999 -2.6797  0.8700 -1.6867
16203SOL    HW249773   0.102   0.343   3.011 -0.3622 -0.4809  0.0389
16204SOL     OW49774   2.460   7.541   2.501 -0.8574  0.0842 -0.0860
16204SOL    HW149775   2.488   7.616   2.553 -0.0595  0.2588 -0.7506
16204SOL    HW249776   2.458   7.573   2.411  0.0042 -0.8154 -0.4443
16205SOL     OW49777   5.273   5.375   8.265  0.4991 -0.0375  0.1550
16205SOL    HW149778   5.182   5.344   8.260  0.1072  0.7786  1.5277
16205SOL    HW249779   5.284   5.430   8.187 -0.4583  0.5119  0.3890
16206SOL     OW49780   1.807   5.433   5.840 -0.7033 -0.0936  0.1858
16206SOL    HW149781   1.827   5.461   5.929  0.1863  0.3552 -0.1374
16206SOL    HW249782   1.727   5.480   5.817 -1.5276 -1.0043  1.1011
16207SOL     OW49783   3.434   3.629   1.040 -0.4513 -0.2301  0.2126
16207SOL    HW149784   3.443   3.701   0.976  0.6691  0.5290  1.1788
16207SOL    HW249785   3.341   3.609   1.040 -0.9736  1.9310  0.6231
16208SOL     OW49786   6.068   6.480   0.183  0.1492 -0.8987 -0.3883
16208SOL    HW149787   6.071   6.545   0.253  0.1075 -2.5559  1.2342
16208SOL    HW249788   6.084   6.530   0.103  0.0760  1.0904  0.7683
16209SOL     OW49789   0.592   8.080   2.932  0.3213  0.3140 -0.0813
16209SOL    HW149790   0.549   8.159   2.900 -0.3191 -0.1072 -0.2772
16209SOL    HW249791   0.682   8.106   2.947  0.1168  1.0812 -0.1514
16210SOL     OW49792   2.578   4.462   6.413  0.5702  0.7526  0.0201
16210SOL    HW149793   2.660   4.443   6.458 -0.5357  0.4683  1.9967
16210SOL    HW249794   2.511   4.413   6.461 -0.7878  1.0091 -1.5007
16211SOL     OW49795   2.710   4.937   3.020  0.1431 -0.1457 -0.4026
16211SOL    HW149796   2.659   4.858   3.040  2.3432 -1.4639  0.4548
16211SOL    HW249797   2.664   5.008   3.064 -0.7395 -1.3176  0.6330
16212SOL     OW49798   2.503   0.161   3.103 -0.1569 -0.6994 -0.3187
16212SOL    HW149799   2.598   0.156   3.091 -0.5936 -2.9289 -4.4149
16212SOL    HW249800   2.474   0.228   3.042 -1.3599 -1.2500 -0.3893
16213SOL     OW49801   5.201   0.594   7.002  0.2938  0.2325 -0.2096
16213SOL    HW149802   5.267   0.662   6.988  0.1059  0.2001 -1.3786
16213SOL    HW249803   5.163   0.615   7.087  0.3845  1.4702 -0.4530
16214SOL     OW49804   6.487   2.855   4.002 -0.3144  0.2661 -0.1410
16214SOL    HW149805   6.476   2.908   3.923  0.3696  0.6073 -0.0129
16214SOL    HW249806   6.488   2.765   3.969  1.7489  0.4547 -0.7784
16215SOL     OW49807   2.587   7.985   4.698  0.7942 -0.3895  0.0077
16215SOL    HW149808   2.590   8.081   4.698  1.8764 -0.4056  0.4216
16215SOL    HW249809   2.609   7.961   4.607  2.5786 -0.2493  0.3552
16216SOL     OW49810   2.711   6.008   7.893  0.5841  0.9366  0.2397
16216SOL    HW149811   2.689   6.042   7.979 -0.9392 -0.5274  0.4666
16216SOL    HW249812   2.806   5.996   7.896  0.6141  1.3350  1.5403
16217SOL     OW49813   0.310   7.549   5.690  0.4351 -0.4206 -0.2000
16217SOL    HW149814   0.324   7.581   5.780  0.2562  0.8939 -0.6103
16217SOL    HW249815   0.217   7.526   5.687  0.4107 -0.3408 -0.0832
16218SOL     OW49816   5.650   0.212   8.336 -0.6631 -0.1369 -0.1597
16218SOL    HW149817   5.742   0.230   8.316  0.0534 -2.6970  0.5562
16218SOL    HW249818   5.640   0.237   8.428 -0.7412  0.2435 -0.2675
16219SOL     OW49819   5.722   2.918   7.622  0.0924 -0.4600 -0.2118
16219SOL    HW149820   5.630   2.946   7.628 -0.4987 -2.0061 -1.3615
16219SOL    HW249821   5.748   2.903   7.713 -0.0862  2.0061  0.3152
16220SOL     OW49822   7.644   0.419   6.195 -0.1435 -0.2840  0.3392
16220SOL    HW149823   7.662   0.424   6.101 -0.9475 -0.0817  0.1853
16220SOL    HW249824   7.563   0.369   6.201  1.3832 -2.8300  1.1134
16221SOL     OW49825   3.086   5.252   4.042 -0.4632  0.0496 -0.3231
16221SOL    HW149826   3.089   5.166   4.085  0.5311  0.2961  0.1320
16221SOL    HW249827   3.178   5.276   4.030 -0.6757  1.6561  0.8260
16222SOL     OW49828   6.354   1.250   3.810  0.7940  0.1771  0.6642
16222SOL    HW149829   6.272   1.211   3.841  1.1875 -1.2029  0.0504
16222SOL    HW249830   6.345   1.252   3.715  1.6485 -0.4532  0.5539
16223SOL     OW49831   6.716   1.430   0.162  0.3472 -0.0135  0.0218
16223SOL    HW149832   6.750   1.519   0.163  1.4715 -0.4213 -0.4507
16223SOL    HW249833   6.700   1.409   0.254 -3.8035  2.0492  0.0323
16224SOL     OW49834   3.247   7.450   1.644  0.2099  0.5872 -0.6517
16224SOL    HW149835   3.209   7.407   1.567 -0.1345  1.2737 -0.8730
16224SOL    HW249836   3.175   7.497   1.683 -0.3726 -2.0613  1.8222
16225SOL     OW49837   0.515   3.417   1.875 -0.2417 -1.0014 -0.3765
16225SOL    HW149838   0.455   3.464   1.933  0.7317  0.0981 -0.2061
16225SOL    HW249839   0.593   3.473   1.872  0.1255 -1.5423 -1.9312
16226SOL     OW49840   3.864   6.634   6.914 -0.3451  0.0846  0.0298
16226SOL    HW149841   3.926   6.654   6.984  0.1894 -0.5005 -0.2642
16226SOL    HW249842   3.894   6.686   6.839 -0.2768 -0.1065 -0.0772
16227SOL     OW49843   7.633   0.300   7.857  0.1409 -0.3745  0.3135
16227SOL    HW149844   7.654   0.207   7.853  0.7300 -0.2094 -0.7829
16227SOL    HW249845   7.563   0.312   7.794  0.5835  0.0478 -0.1074
16228SOL     OW49846   0.057   1.002   0.238  0.0530  0.6043  0.5667
16228SOL    HW149847   0.101   1.022   0.155  1.3781  1.3661  1.4147
16228SOL    HW249848   0.016   0.917   0.224 -2.4332  2.0441 -1.8884
16229SOL     OW49849   0.648   5.899   0.471  0.0364  0.5936 -0.1557
16229SOL    HW149850   0.597   5.837   0.419 -0.5094  0.3747  0.6162
16229SOL    HW249851   0.695   5.952   0.407  0.8298 -0.8755 -0.8397
16230SOL     OW49852   0.492   4.478   3.772  0.1662  0.0871 -0.3772
16230SOL    HW149853   0.575   4.525   3.780  2.0149 -3.0693  0.7797
16230SOL    HW249854   0.444   4.500   3.852  0.9811  0.0879  0.1274
16231SOL     OW49855   8.792   8.708   5.155 -0.7265 -0.1743 -0.0865
16231SOL    HW149856   8.825   8.682   5.241  3.1133  2.0387 -0.6720
16231SOL    HW249857   8.807   8.632   5.099  1.7872  0.0710  0.1531
16232SOL     OW49858   2.107   6.631   8.320  0.4529 -0.1013 -0.0379
16232SOL    HW149859   2.109   6.594   8.409 -0.1697  0.8140  0.3650
16232SOL    HW249860   2.077   6.559   8.265  0.6547 -0.6227  0.5203
16233SOL     OW49861   3.630   5.043   8.002 -0.6356 -0.9350  0.2113
16233SOL    HW149862   3.558   5.106   7.998  0.3106  0.1485 -1.9588
16233SOL    HW249863   3.680   5.068   8.080 -0.9829  0.2360  0.0847
16234SOL     OW49864   6.644   8.717   8.798 -0.8731  0.0913 -0.0459
16234SOL    HW149865   6.680   8.685   8.715 -1.6193 -3.2533  0.7675
16234SOL    HW249866   6.677   8.806   8.806  1.8628 -0.5731 -2.4046
16235SOL     OW49867   4.479   1.265   7.924 -0.0381 -0.4561  0.0130
16235SOL    HW149868   4.434   1.180   7.925 -2.3484  0.6764 -0.4221
16235SOL    HW249869   4.446   1.309   8.003  0.1659  0.4945 -0.4288
16236SOL     OW49870   6.045   8.066   8.168 -0.0829 -0.8126 -0.1700
16236SOL    HW149871   6.066   7.990   8.114  0.5266 -1.6440  1.2083
16236SOL    HW249872   6.100   8.057   8.246 -1.2009  0.1629  0.7676
16237SOL     OW49873   2.761   7.897   1.087 -0.0435  0.0621 -0.2712
16237SOL    HW149874   2.723   7.811   1.106  1.0614 -0.7893 -1.7349
16237SOL    HW249875   2.813   7.883   1.008  2.4224  1.4202  1.0006
16238SOL     OW49876   7.548   0.118   5.493 -0.2287  0.5142 -0.0922
16238SOL    HW149877   7.523   0.209   5.475  0.4341  0.6367 -0.4027
16238SOL    HW249878   7.623   0.102   5.437 -2.0002 -1.1361 -2.1761
16239SOL     OW49879   6.290   4.935   8.629 -0.9206 -0.1460  0.2075
16239SOL    HW149880   6.279   4.950   8.723 -0.2652  0.2232  0.2298
16239SOL    HW249881   6.219   4.875   8.606  0.3030 -2.1461  1.3901
16240SOL     OW49882   0.474   2.225   7.495 -0.0221 -0.2960  0.6116
16240SOL    HW149883   0.522   2.227   7.412 -0.9008 -0.1585  0.0874
16240SOL    HW249884   0.383   2.211   7.469 -0.4571  0.7599  1.4888
16241SOL     OW49885   1.004   5.496   0.549 -0.2184  0.5650 -0.0491
16241SOL    HW149886   0.994   5.423   0.487  2.1195 -1.4934  1.8115
16241SOL    HW249887   1.087   5.537   0.525  0.5051  0.0085  1.3718
16242SOL     OW49888   0.118   7.070   6.529 -0.1661  0.1112 -0.3756
16242SOL    HW149889   0.180   7.004   6.561  0.5687  0.9292 -0.0744
16242SOL    HW249890   0.150   7.093   6.443 -0.1018  0.4819 -0.2522
16243SOL     OW49891   2.610   6.052   3.421  0.2181 -0.1754  0.1225
16243SOL    HW149892   2.515   6.046   3.429 -0.0373 -0.6728 -2.3776
16243SOL    HW249893   2.643   6.000   3.494 -1.4986 -1.7524 -0.1292
16244SOL     OW49894   6.867   7.911   3.180 -0.2246  0.8315  0.3988
16244SOL    HW149895   6.934   7.898   3.248 -0.1177 -0.6749  0.0262
16244SOL    HW249896   6.785   7.889   3.224 -0.2035  0.2862  0.1656
16245SOL     OW49897   5.372   2.500   6.303 -0.4157 -0.8989 -0.0979
16245SOL    HW149898   5.429   2.508   6.380  0.3335 -0.5706 -0.6718
16245SOL    HW249899   5.355   2.591   6.277 -1.3834 -0.9927  0.1952
16246SOL     OW49900   6.100   3.958   5.630  0.0976  0.3344 -0.2247
16246SOL    HW149901   6.160   3.985   5.561 -0.8237  0.4005 -1.0291
16246SOL    HW249902   6.141   3.880   5.669  0.2982 -0.1300 -1.3285
16247SOL     OW49903   1.061   2.525   8.043 -0.3210  0.1016 -0.6911
16247SOL    HW149904   1.026   2.516   7.954  0.4129  1.3110 -1.1136
16247SOL    HW249905   1.113   2.605   8.041  1.4418 -0.9603  0.2729
16248SOL     OW49906   8.037   8.617   6.262  0.0386 -0.3288 -0.2653
16248SOL    HW149907   7.979   8.600   6.188  1.1551  1.2071 -1.5762
16248SOL    HW249908   8.107   8.554   6.252  3.4111  3.3667 -4.2705
16249SOL     OW49909   8.202   5.574   0.278  0.1474 -0.5436 -0.2054
16249SOL    HW149910   8.141   5.539   0.213  0.5029 -2.0091  0.2033
16249SOL    HW249911   8.191   5.517   0.354  0.2277  0.7218  0.7877
16250SOL     OW49912   3.325   6.891   2.208  0.0888  0.3321 -0.1138
16250SOL    HW149913   3.288   6.979   2.199 -2.1036 -0.4166  0.8467
16250SOL    HW249914   3.365   6.873   2.123 -0.3833  1.8323 -0.6922
16251SOL     OW49915   1.829   0.834   8.747 -0.1091  0.1706  1.1118
16251SOL    HW149916   1.813   0.900   8.679  0.5817 -0.9579 -0.2138
16251SOL    HW249917   1.753   0.840   8.804 -0.3837  1.6388  0.6374
16252SOL     OW49918   5.628   4.871   7.576 -0.3449  0.1736  0.3050
16252SOL    HW149919   5.588   4.938   7.631  0.0469 -0.0173  0.8278
16252SOL    HW249920   5.572   4.868   7.498 -1.1759  0.1237  0.8873
16253SOL     OW49921   3.835   2.826   7.689  0.4594  0.9091 -0.4357
16253SOL    HW149922   3.774   2.845   7.760 -0.6955  0.7456 -1.3487
16253SOL    HW249923   3.870   2.911   7.663 -0.5353  1.1968 -0.8882
16254SOL     OW49924   1.267   8.368   4.984  0.0576  0.6037 -0.4327
16254SOL    HW149925   1.341   8.423   5.008 -1.8425  2.5033  1.6349
16254SOL    HW249926   1.220   8.355   5.067 -2.0207 -0.3407 -1.6778
16255SOL     OW49927   8.252   1.026   3.012 -0.3176  0.2110 -0.1843
16255SOL    HW149928   8.210   0.992   2.933  0.5327  1.4320 -1.1917
16255SOL    HW249929   8.324   1.080   2.980  0.2822  0.4364  1.4436
16256SOL     OW49930   4.421   0.975   4.743  0.7500 -0.0583  0.3226
16256SOL    HW149931   4.398   1.023   4.823  2.2103  2.0031 -0.4048
16256SOL    HW249932   4.517   0.970   4.745  0.7664 -0.6614 -0.9272
16257SOL     OW49933   7.483   3.952   7.180 -0.2654  0.4751  0.1797
16257SOL    HW149934   7.437   3.872   7.205 -1.9458  1.1868 -0.4064
16257SOL    HW249935   7.490   3.946   7.084  3.6706 -0.9831  0.3797
16258SOL     OW49936   4.054   8.537   2.923 -0.1092  0.2292 -0.0260
16258SOL    HW149937   3.966   8.573   2.913 -0.3314 -0.3487 -0.1899
16258SOL    HW249938   4.108   8.589   2.863  0.0156  1.7162  1.2906
16259SOL     OW49939   5.574   5.743   7.971  0.3551 -0.5524  0.3123
16259SOL    HW149940   5.658   5.699   7.953  0.7094  0.4479 -0.5954
16259SOL    HW249941   5.537   5.760   7.884  0.0479  0.5910  0.6520
16260SOL     OW49942   6.874   2.332   0.527 -0.1182  0.6411 -0.4525
16260SOL    HW149943   6.902   2.241   0.524 -1.0342  0.3683 -0.9084
16260SOL    HW249944   6.900   2.362   0.615 -0.7183 -0.3660  0.0920
16261SOL     OW49945   7.017   6.564   3.752 -0.3876 -0.0495 -0.2133
16261SOL    HW149946   7.100   6.589   3.711 -0.3190  0.2618  0.1105
16261SOL    HW249947   7.038   6.558   3.845 -1.1605  1.9172  0.1307
16262SOL     OW49948   8.018   4.523   5.304  0.3391  0.1325  0.7306
16262SOL    HW149949   7.973   4.598   5.266  0.0407 -0.9827 -1.2857
16262SOL    HW249950   7.947   4.467   5.337  0.2076 -1.2023 -1.6341
16263SOL     OW49951   7.620   2.434   5.924 -0.4413  0.0773 -0.0641
16263SOL    HW149952   7.677   2.500   5.884  2.4021 -1.2529  1.4543
16263SOL    HW249953   7.601   2.373   5.853 -0.2572  0.7449 -0.6987
16264SOL     OW49954   8.296   1.678   2.252 -0.3665  0.6882 -0.2817
16264SOL    HW149955   8.320   1.700   2.162 -0.2910  0.9600 -0.1984
16264SOL    HW249956   8.208   1.641   2.246  0.5593 -1.5706 -0.7562
16265SOL     OW49957   7.399   2.593   8.704  0.4495  0.0834 -0.4147
16265SOL    HW149958   7.453   2.606   8.783  0.3615  1.6344 -0.5844
16265SOL    HW249959   7.463   2.585   8.633  0.5018  1.2180 -0.5164
16266SOL     OW49960   7.229   2.203   0.116 -0.3694 -0.6161 -0.0938
16266SOL    HW149961   7.166   2.131   0.116  1.8262 -2.6734  0.3219
16266SOL    HW249962   7.296   2.175   0.179  0.4847  1.9178  0.2137
16267SOL     OW49963   7.941   0.423   3.291 -0.1077  0.5411  0.3463
16267SOL    HW149964   8.011   0.478   3.327 -0.3618  0.4958  0.9292
16267SOL    HW249965   7.876   0.485   3.258 -0.1780  0.5905  0.5743
16268SOL     OW49966   7.507   1.023   7.046 -0.4397  0.2418  0.5832
16268SOL    HW149967   7.447   1.054   7.113 -2.1174 -0.8471 -0.3452
16268SOL    HW249968   7.457   1.027   6.965  1.3446  0.9538 -0.5388
16269SOL     OW49969   2.079   0.765   7.536 -0.3947  0.4854  0.1366
16269SOL    HW149970   2.052   0.717   7.458 -1.0027  1.2295 -0.1335
16269SOL    HW249971   2.164   0.729   7.559 -0.1632  0.3167 -0.9328
16270SOL     OW49972   7.116   6.462   6.696 -0.1447 -0.6473 -0.2383
16270SOL    HW149973   7.088   6.376   6.665  1.3193 -1.0160 -0.6156
16270SOL    HW249974   7.160   6.445   6.779 -0.2502 -0.1970 -0.0869
16271SOL     OW49975   0.464   0.746   1.319  0.4933 -0.0312 -0.2625
16271SOL    HW149976   0.397   0.771   1.256  1.1205 -1.9120 -1.7938
16271SOL    HW249977   0.532   0.813   1.311  0.0023  0.4184 -0.6753
16272SOL     OW49978   3.362   2.106   6.686 -0.2123 -0.3250 -0.1790
16272SOL    HW149979   3.279   2.075   6.650 -1.9770 -1.2800  4.0807
16272SOL    HW249980   3.394   2.031   6.737  3.0069  0.2694 -1.1382
16273SOL     OW49981   6.155   6.691   6.460  0.0659 -0.0593 -0.1798
16273SOL    HW149982   6.183   6.732   6.542 -1.5745 -0.6140  0.6918
16273SOL    HW249983   6.161   6.761   6.395  2.9176 -0.0121  0.0157
16274SOL     OW49984   0.568   5.929   8.575  1.1018  0.1050  0.0391
16274SOL    HW149985   0.620   5.849   8.565  2.1170  0.8995 -1.1888
16274SOL    HW249986   0.630   5.994   8.607  0.4036  0.5586  0.4885
16275SOL     OW49987   2.059   4.353   0.743 -0.6001 -0.1225  0.0435
16275SOL    HW149988   2.079   4.320   0.831  2.1252  0.8770 -0.0923
16275SOL    HW249989   2.134   4.326   0.690 -2.3266 -0.9513 -2.1057
16276SOL     OW49990   6.854   2.616   0.734 -0.2227 -0.2068 -0.1581
16276SOL    HW149991   6.863   2.570   0.818  0.9526 -1.6160 -1.0157
16276SOL    HW249992   6.944   2.629   0.705 -0.6344 -0.3555 -1.5338
16277SOL     OW49993   6.427   0.497   5.435  0.1979 -0.1540 -0.1403
16277SOL    HW149994   6.513   0.456   5.444  0.2843  0.0038 -0.2305
16277SOL    HW249995   6.419   0.553   5.513  0.3020  0.0555 -0.2801
16278SOL     OW49996   1.237   1.654   0.185  0.3775 -0.3321 -0.7107
16278SOL    HW149997   1.214   1.651   0.092  1.4766 -1.1376 -0.9710
16278SOL    HW249998   1.191   1.579   0.223 -0.1718  0.0698 -0.5740
16279SOL     OW49999   8.091   3.529   0.125  0.5412 -0.0093  0.1802
16279SOL    HW150000   8.180   3.536   0.158  0.5588  1.1343 -0.0607
16279SOL    HW250001   8.100   3.522   0.030  0.4050 -0.8172  0.2254
16280SOL     OW50002   3.706   5.219   7.604  0.1656 -0.3388 -0.0197
16280SOL    HW150003   3.695   5.294   7.663  1.8670  1.4863 -1.8851
16280SOL    HW250004   3.798   5.196   7.612 -0.3114 -2.2393  0.4412
16281SOL     OW50005   1.749   6.950   3.823  0.0855 -0.2430 -0.1155
16281SOL    HW150006   1.751   7.042   3.847  2.2132  0.0074 -1.0485
16281SOL    HW250007   1.821   6.911   3.872 -0.3129 -1.2644 -0.3146
16282SOL     OW50008   5.524   3.250   2.079  0.2724 -0.2981 -0.5254
16282SOL    HW150009   5.541   3.318   2.144  0.0150  0.2421 -1.0143
16282SOL    HW250010   5.609   3.232   2.039  0.6509 -1.4332  0.7088
16283SOL     OW50011   5.441   4.435   1.811  0.4386 -0.5632 -0.2786
16283SOL    HW150012   5.488   4.499   1.758  1.3716 -0.1811  0.9350
16283SOL    HW250013   5.399   4.376   1.748 -0.5711  1.3054 -1.4289
16284SOL     OW50014   5.807   3.527   4.629 -0.5278 -0.0697 -0.0727
16284SOL    HW150015   5.784   3.475   4.706 -0.0521  0.9909  0.8103
16284SOL    HW250016   5.902   3.531   4.630 -0.5058 -0.1539 -0.8058
16285SOL     OW50017   3.741   8.668   5.849 -0.3736 -0.2770  0.0362
16285SOL    HW150018   3.836   8.668   5.835 -0.2466  1.5010  0.7134
16285SOL    HW250019   3.714   8.758   5.831 -1.8737 -0.6517  0.2952
16286SOL     OW50020   1.755   8.073   2.807 -0.1531 -0.3445 -0.1090
16286SOL    HW150021   1.840   8.107   2.838 -0.1941  0.3111 -0.6882
16286SOL    HW250022   1.706   8.056   2.887  0.2044  0.1293  0.2232
16287SOL     OW50023   7.411   6.725   1.781  0.3214 -0.3087  0.6229
16287SOL    HW150024   7.408   6.820   1.776  1.3993 -0.3404 -1.9153
16287SOL    HW250025   7.319   6.698   1.782 -0.0303  0.7185  2.6507
16288SOL     OW50026   6.796   1.229   1.961 -0.3051  0.1319  0.1642
16288SOL    HW150027   6.882   1.260   1.933 -0.9547  1.0586 -0.8986
16288SOL    HW250028   6.751   1.308   1.993 -0.6195 -0.4184  1.1372
16289SOL     OW50029   0.700   1.329   5.703 -0.3146 -0.3094 -0.1596
16289SOL    HW150030   0.616   1.363   5.670  0.5260  0.5835 -1.4662
16289SOL    HW250031   0.734   1.398   5.759  0.4954  0.2295 -1.2831
16290SOL     OW50032   4.490   6.098   6.911  0.6300 -0.1690 -0.5276
16290SOL    HW150033   4.536   6.037   6.854  1.1635 -2.0585  1.7482
16290SOL    HW250034   4.452   6.043   6.980 -1.1820  1.8237  0.1935
16291SOL     OW50035   6.617   6.124   7.134 -0.0299  1.1360  0.5817
16291SOL    HW150036   6.552   6.085   7.193 -1.7304  0.3537 -1.6552
16291SOL    HW250037   6.665   6.050   7.098 -1.0192  1.3082 -1.1847
16292SOL     OW50038   2.206   7.085   6.616  0.0370  0.7110  0.3623
16292SOL    HW150039   2.187   7.175   6.643 -1.7781  0.9727 -1.5853
16292SOL    HW250040   2.152   7.070   6.539  1.3770 -1.5935 -0.2443
16293SOL     OW50041   6.405   8.699   8.153  0.0065 -0.2984  0.0980
16293SOL    HW150042   6.371   8.634   8.092  1.4583 -1.0341  0.0366
16293SOL    HW250043   6.380   8.783   8.114 -0.6125 -0.7810 -0.5780
16294SOL     OW50044   8.777   4.753   8.847 -0.0004 -0.5666 -0.4533
16294SOL    HW150045   8.812   4.689   8.785 -0.8978 -1.3654 -0.1529
16294SOL    HW250046   8.845   4.821   8.851  1.1145 -1.6363 -0.5481
16295SOL     OW50047   4.434   8.330   7.378  0.1032  0.2235  0.5056
16295SOL    HW150048   4.373   8.265   7.343  0.2312  0.0100  0.6736
16295SOL    HW250049   4.519   8.307   7.340 -0.2120  1.5376 -1.0598
16296SOL     OW50050   2.193   7.414   6.078  0.2719  0.3213 -0.2715
16296SOL    HW150051   2.113   7.463   6.097 -0.3190 -0.0273 -1.7219
16296SOL    HW250052   2.207   7.359   6.155 -1.0539  0.1795 -0.1130
16297SOL     OW50053   5.374   5.511   5.625  0.0850 -0.4710  0.3211
16297SOL    HW150054   5.431   5.584   5.648  1.3246 -1.3818  0.2281
16297SOL    HW250055   5.296   5.552   5.587  0.1588  0.8521  1.4899
16298SOL     OW50056   5.998   8.045   2.169 -0.1624 -0.7570 -0.9294
16298SOL    HW150057   5.981   8.031   2.076  0.4355 -1.5529 -0.9392
16298SOL    HW250058   6.035   7.961   2.198  2.3239  0.3452 -0.6188
16299SOL     OW50059   3.380   7.697   7.496  0.5909  0.5426  0.2574
16299SOL    HW150060   3.296   7.743   7.502  1.0557  1.3432  0.7475
16299SOL    HW250061   3.401   7.699   7.403 -0.6272 -0.9696 -0.1069
16300SOL     OW50062   7.435   1.374   7.509 -0.2745  0.1930 -0.4536
16300SOL    HW150063   7.376   1.355   7.436 -1.0026 -1.8165  0.5849
16300SOL    HW250064   7.377   1.379   7.585  0.8216 -1.3323  0.5263
16301SOL     OW50065   6.454   8.734   4.589  0.3962  0.0849 -0.0944
16301SOL    HW150066   6.427   8.657   4.538  1.2082  0.5686 -1.3151
16301SOL    HW250067   6.376   8.788   4.594 -0.2252 -0.8683  0.9085
16302SOL     OW50068   3.014   0.675   1.163  0.4984  0.9064 -0.2306
16302SOL    HW150069   3.078   0.628   1.111 -1.0690 -0.0705 -1.3550
16302SOL    HW250070   3.040   0.660   1.254  0.9732 -0.7809 -0.6193
16303SOL     OW50071   0.444   2.605   3.250 -0.4455 -0.3537  0.7284
16303SOL    HW150072   0.366   2.652   3.222 -1.9940 -1.9645  2.0617
16303SOL    HW250073   0.464   2.546   3.177 -0.3063  0.2425  0.2781
16304SOL     OW50074   4.948   8.276   5.389  0.5321  0.0744 -0.0244
16304SOL    HW150075   4.921   8.366   5.406 -1.7561 -0.5499 -0.0488
16304SOL    HW250076   4.971   8.275   5.296 -0.7226  0.3804 -0.3647
16305SOL     OW50077   1.907   2.787   6.927  0.5537 -0.2699  0.5095
16305SOL    HW150078   2.000   2.808   6.933  0.2702  1.6210 -0.6654
16305SOL    HW250079   1.890   2.783   6.832 -1.2830  3.6028  0.4843
16306SOL     OW50080   2.986   0.663   7.926 -0.2763 -0.6612 -0.0947
16306SOL    HW150081   2.958   0.683   8.016  0.5611 -2.5250  0.6283
16306SOL    HW250082   3.056   0.726   7.908 -0.6892 -0.0441  0.4231
16307SOL     OW50083   0.719   4.007   5.435 -0.0056  0.3743 -0.3042
16307SOL    HW150084   0.649   3.969   5.488 -0.5874 -1.0317 -1.9948
16307SOL    HW250085   0.799   3.969   5.470 -0.1327  1.2180  0.9902
16308SOL     OW50086   8.159   7.719   6.245  0.1853  0.3828 -0.0070
16308SOL    HW150087   8.153   7.794   6.303  0.4987  0.8187 -0.5255
16308SOL    HW250088   8.251   7.690   6.251  0.0509 -0.0002  0.2429
16309SOL     OW50089   3.655   5.718   3.284  0.2185 -0.4244  0.3625
16309SOL    HW150090   3.691   5.785   3.342  0.5646 -1.4582  1.3944
16309SOL    HW250091   3.731   5.674   3.248  0.0126  0.4209 -1.1961
16310SOL     OW50092   0.010   0.919   7.409 -0.3215 -0.2054  0.0092
16310SOL    HW150093   0.012   0.930   7.504 -0.8330 -2.3451  0.3172
16310SOL    HW250094  -0.063   0.974   7.380  0.5318  1.3561  0.6631
16311SOL     OW50095   3.558   4.353   7.649  0.8227  0.3176 -0.4637
16311SOL    HW150096   3.512   4.434   7.671  0.5162  0.1882 -0.6104
16311SOL    HW250097   3.573   4.310   7.733 -0.6628 -0.3467 -0.5018
16312SOL     OW50098   7.614   0.048   2.315 -0.1506 -0.3098  0.0643
16312SOL    HW150099   7.558  -0.017   2.357 -1.5051  0.9381  0.2895
16312SOL    HW250100   7.555   0.095   2.255  1.2142 -0.4959 -1.4608
16313SOL     OW50101   8.494   1.313   1.790  0.6101  0.2959 -0.1526
16313SOL    HW150102   8.583   1.341   1.813  0.2131 -0.0217  1.8854
16313SOL    HW250103   8.446   1.395   1.777  0.3518  0.5933  2.2571
16314SOL     OW50104   7.331   0.478   7.257 -0.2083  0.0581 -0.7025
16314SOL    HW150105   7.387   0.540   7.211 -0.4083  0.3660 -0.5332
16314SOL    HW250106   7.384   0.399   7.264  0.3655  0.4787 -0.1733
16315SOL     OW50107   5.486   8.457   6.727 -0.2021 -0.1581 -0.6260
16315SOL    HW150108   5.549   8.385   6.728  0.2801  0.2279  1.7412
16315SOL    HW250109   5.473   8.475   6.634  1.8979 -1.3506 -1.2315
16316SOL     OW50110   5.862   7.529   0.126 -0.5030  0.2481 -0.0762
16316SOL    HW150111   5.844   7.611   0.081  0.5239  0.5650  0.0709
16316SOL    HW250112   5.944   7.498   0.088 -1.3300 -1.1829 -0.7769
16317SOL     OW50113   4.235   4.289   8.359 -0.3348 -0.6027  0.1320
16317SOL    HW150114   4.310   4.346   8.376 -0.9766  0.1160  0.6219
16317SOL    HW250115   4.163   4.328   8.409 -0.9028 -1.5905  0.1148
16318SOL     OW50116   2.991   3.941   0.258 -0.1127  0.2706 -0.4517
16318SOL    HW150117   3.072   3.939   0.310 -1.4181  0.4803  1.6877
16318SOL    HW250118   2.969   4.033   0.251 -0.4512  0.1815 -0.5713
16319SOL     OW50119   1.737   2.309   6.233 -0.5335 -0.2999  0.2968
16319SOL    HW150120   1.685   2.379   6.196 -0.1325 -0.8604 -1.4383
16319SOL    HW250121   1.824   2.320   6.193 -0.3981 -1.6090  0.1789
16320SOL     OW50122   4.497   1.611   2.378 -0.1702 -0.6335 -0.2447
16320SOL    HW150123   4.422   1.574   2.423 -1.0055 -0.6829 -1.6307
16320SOL    HW250124   4.541   1.536   2.337 -0.3586 -0.4197 -0.8562
16321SOL     OW50125   6.811   1.905   3.878 -0.3056  0.7409 -0.9129
16321SOL    HW150126   6.887   1.904   3.937 -1.1420  1.1528  0.2108
16321SOL    HW250127   6.832   1.973   3.813  0.3304  0.7826 -0.6717
16322SOL     OW50128   5.188   0.518   6.596  0.1820  0.1334 -0.2875
16322SOL    HW150129   5.227   0.563   6.522  1.1280 -0.7573 -0.3522
16322SOL    HW250130   5.262   0.480   6.643 -0.4732 -0.1015  0.5928
16323SOL     OW50131   1.119   7.055   5.902 -0.8560  0.4643 -0.5636
16323SOL    HW150132   1.053   6.990   5.928 -2.1307  2.1970  0.7221
16323SOL    HW250133   1.076   7.109   5.836 -0.5687  1.2992 -0.0858
16324SOL     OW50134   7.916   5.314   7.834  0.1353  0.1265 -0.1964
16324SOL    HW150135   7.945   5.230   7.797  2.5653 -0.4183  2.5358
16324SOL    HW250136   7.928   5.304   7.928 -1.5550  2.8718  0.4261
16325SOL     OW50137   0.544   6.345   3.738 -0.5424 -0.4222  0.6030
16325SOL    HW150138   0.483   6.387   3.799  0.5122 -1.0735  2.1973
16325SOL    HW250139   0.568   6.414   3.677 -0.5115  0.7063  1.8397
16326SOL     OW50140   7.582   7.470   0.646  0.0789  0.4612  0.4878
16326SOL    HW150141   7.560   7.442   0.558  0.3371  0.5208  0.4023
16326SOL    HW250142   7.653   7.411   0.673 -0.6516 -0.1905  1.0259
16327SOL     OW50143   8.147   0.127   6.358  0.4434 -0.2739 -0.0760
16327SOL    HW150144   8.166   0.148   6.267 -2.6240  0.9332 -0.5504
16327SOL    HW250145   8.151   0.210   6.404 -0.0496 -0.5475  0.4752
16328SOL     OW50146   7.873   7.139   4.614  0.0881  0.1375 -0.2450
16328SOL    HW150147   7.840   7.160   4.702 -1.0380  1.0324 -0.8556
16328SOL    HW250148   7.968   7.154   4.621  0.0235  0.1413  0.8320
16329SOL     OW50149   4.168   7.123   2.786  0.3164  0.4354  0.0272
16329SOL    HW150150   4.168   7.045   2.730  1.1370 -1.1940  2.1347
16329SOL    HW250151   4.114   7.186   2.739  1.4895 -0.5410 -2.8957
16330SOL     OW50152   5.049   3.663   6.202 -0.1767  0.1730 -0.1551
16330SOL    HW150153   5.112   3.735   6.197 -1.7599  1.5956 -0.4654
16330SOL    HW250154   4.967   3.705   6.226 -1.1748 -1.5409 -0.4347
16331SOL     OW50155   5.148   8.615   6.046 -0.1870 -0.2572  0.4795
16331SOL    HW150156   5.107   8.573   6.122 -2.1337  0.3688 -0.1707
16331SOL    HW250157   5.107   8.701   6.041  0.9579  0.2592 -0.4652
16332SOL     OW50158   6.510   3.014   1.188 -0.1544  0.4239 -0.1953
16332SOL    HW150159   6.542   3.065   1.113 -0.0029  0.2359 -0.2589
16332SOL    HW250160   6.422   2.987   1.163 -0.1937  0.5627 -0.2075
16333SOL     OW50161   1.889   8.662   6.564  0.0364  0.5818 -0.4353
16333SOL    HW150162   1.829   8.717   6.514 -0.0287  1.6483  0.7557
16333SOL    HW250163   1.937   8.613   6.498 -1.2263  0.6769 -1.4608
16334SOL     OW50164   7.846   5.272   5.904 -0.0347  0.0671 -0.1420
16334SOL    HW150165   7.826   5.299   5.994  0.8157  1.2727 -0.2935
16334SOL    HW250166   7.905   5.340   5.872  0.5786 -0.9682 -1.2337
16335SOL     OW50167   1.163   3.690   2.180  0.1841 -0.0521  0.0117
16335SOL    HW150168   1.076   3.730   2.180 -0.2313 -0.9166 -0.4491
16335SOL    HW250169   1.223   3.762   2.199 -0.8282  0.1228  3.2097
16336SOL     OW50170   5.979   8.513   3.112 -0.0817 -0.3893  0.7061
16336SOL    HW150171   5.911   8.521   3.045  0.4847  0.6810  0.2270
16336SOL    HW250172   5.960   8.582   3.175  0.5581 -0.0667  0.5594
16337SOL     OW50173   6.960   3.029   1.988  0.3948 -0.5417 -0.2605
16337SOL    HW150174   7.013   2.976   1.930 -0.5816 -1.3416 -0.4430
16337SOL    HW250175   6.894   2.969   2.023 -0.4111  0.4189 -0.0707
16338SOL     OW50176   7.773   1.003   0.946  0.3631 -0.2174  0.3959
16338SOL    HW150177   7.852   1.014   0.999  1.3711 -0.1104 -1.0811
16338SOL    HW250178   7.778   0.914   0.912 -0.2696 -0.2834  0.4627
16339SOL     OW50179   7.396   5.248   1.374  0.3277 -0.8079 -0.3419
16339SOL    HW150180   7.351   5.245   1.290 -0.8616 -0.5031  0.2714
16339SOL    HW250181   7.478   5.294   1.355 -0.1564 -0.2938 -1.2366
16340SOL     OW50182   4.623   7.784   4.064  0.2972  0.0644 -0.1863
16340SOL    HW150183   4.667   7.841   4.001 -0.6103  0.9102 -0.0792
16340SOL    HW250184   4.694   7.732   4.102  0.7784 -1.1205 -2.5088
16341SOL     OW50185   1.172   2.362   5.775  0.6016  0.2660 -0.7720
16341SOL    HW150186   1.216   2.415   5.842 -0.1092 -0.3773  0.2382
16341SOL    HW250187   1.233   2.361   5.701  0.5509  2.6742 -0.9337
16342SOL     OW50188   0.626   4.942   7.381  0.1911 -0.4258 -0.4319
16342SOL    HW150189   0.533   4.919   7.388  0.5387 -1.5774  1.1550
16342SOL    HW250190   0.661   4.925   7.469  1.2938  2.9759 -0.0648
16343SOL     OW50191   0.308   7.094   2.786  0.3568  0.1086  0.0085
16343SOL    HW150192   0.309   7.177   2.738 -0.8493  0.8769  1.2261
16343SOL    HW250193   0.400   7.076   2.804  0.6751  0.9436 -0.6735
16344SOL     OW50194   5.079   6.777   4.735  0.2585 -0.2171  0.7246
16344SOL    HW150195   5.107   6.869   4.737 -0.0824 -0.1311  1.6109
16344SOL    HW250196   4.988   6.781   4.707  0.5932 -0.3859 -0.4692
16345SOL     OW50197   7.031   0.398   2.004  0.2148 -0.1853 -0.6842
16345SOL    HW150198   7.067   0.474   1.958 -1.2206  0.4750 -0.7659
16345SOL    HW250199   6.975   0.355   1.940 -1.9990  0.8725  0.4022
16346SOL     OW50200   2.904   2.465   1.970 -0.2322 -0.0046  0.1193
16346SOL    HW150201   2.839   2.406   2.010  0.2505 -0.0805  0.8123
16346SOL    HW250202   2.932   2.420   1.891 -2.9459  1.1928 -1.6802
16347SOL     OW50203   7.337   8.558   7.315  0.0358  0.6276 -0.6298
16347SOL    HW150204   7.310   8.562   7.407 -0.9352  1.5300 -0.9441
16347SOL    HW250205   7.397   8.632   7.305  0.5519  0.2226 -0.6117
16348SOL     OW50206   4.307   7.258   6.666  0.0398  0.4921  0.6969
16348SOL    HW150207   4.302   7.179   6.613 -0.8090  0.2072  1.1783
16348SOL    HW250208   4.275   7.231   6.752  1.7221  0.8593  1.4806
16349SOL     OW50209   5.005   4.020   7.658 -0.1896 -0.3551  0.2089
16349SOL    HW150210   5.026   3.930   7.682  0.8993 -0.2172 -0.1579
16349SOL    HW250211   5.006   4.068   7.741  0.3540 -0.4753  0.2751
16350SOL     OW50212   1.626   0.098   5.605  0.0998 -0.1453  0.7415
16350SOL    HW150213   1.720   0.110   5.615  0.1209  0.4236 -0.0222
16350SOL    HW250214   1.587   0.142   5.681  0.3075  2.7355 -0.7015
16351SOL     OW50215   8.393   6.371   3.853  0.5059 -0.6752 -0.6209
16351SOL    HW150216   8.373   6.389   3.761 -3.1410 -3.3105 -0.5502
16351SOL    HW250217   8.380   6.276   3.863  0.9245 -0.5205  2.5796
16352SOL     OW50218   1.088   8.345   4.247 -0.0597  0.3083 -0.2177
16352SOL    HW150219   1.089   8.334   4.151 -1.5837 -2.1292 -0.0456
16352SOL    HW250220   1.000   8.378   4.266 -1.0650 -2.5497  0.5253
16353SOL     OW50221   8.208   6.880   1.228  0.0340  0.4336 -0.1479
16353SOL    HW150222   8.235   6.888   1.136 -1.1454 -1.4090 -0.7010
16353SOL    HW250223   8.203   6.971   1.259 -0.0093  1.1267 -2.0461
16354SOL     OW50224   1.683   8.076   3.106  0.0412  0.3468 -0.4404
16354SOL    HW150225   1.642   8.044   3.186  0.2185  0.4067 -0.3278
16354SOL    HW250226   1.775   8.055   3.115  0.3907  1.9761  0.1802
16355SOL     OW50227   6.594   5.164   8.407  0.6844  0.3953  0.0197
16355SOL    HW150228   6.609   5.186   8.315 -1.1242 -0.5071 -0.5385
16355SOL    HW250229   6.585   5.069   8.408 -1.0697  0.5314  0.8133
16356SOL     OW50230   8.551   5.586   2.743  0.0845 -0.1262  0.4292
16356SOL    HW150231   8.622   5.650   2.738 -0.4439  0.3511 -1.2733
16356SOL    HW250232   8.567   5.527   2.670 -0.2733 -1.0957  1.1155
16357SOL     OW50233   6.127   2.486   5.376 -0.6892 -0.4425  0.3744
16357SOL    HW150234   6.137   2.497   5.471  2.2983  1.0330  0.0075
16357SOL    HW250235   6.113   2.575   5.343 -0.8776 -0.8387 -0.6640
16358SOL     OW50236   8.668   2.984   7.396 -0.5818 -0.3933 -0.2778
16358SOL    HW150237   8.687   2.937   7.315 -0.2757  0.6672 -0.8493
16358SOL    HW250238   8.752   3.020   7.423 -0.6215 -1.0178  0.7113
16359SOL     OW50239   8.385   8.640   0.002 -0.1159  0.4471 -0.6785
16359SOL    HW150240   8.300   8.596   0.004 -0.9542  1.9172 -1.5782
16359SOL    HW250241   8.449   8.569  -0.004 -1.4123 -0.6734 -2.2347
16360SOL     OW50242   2.527   5.132   4.704  0.9086 -0.1123 -0.0509
16360SOL    HW150243   2.536   5.223   4.675 -1.3089 -0.0196 -0.6528
16360SOL    HW250244   2.446   5.133   4.757 -0.3629 -2.1058 -1.8321
16361SOL     OW50245   8.599   8.124   8.402  0.0200 -0.7019 -0.4378
16361SOL    HW150246   8.669   8.168   8.354 -0.0366  0.7807  0.7616
16361SOL    HW250247   8.581   8.045   8.351  1.3167 -0.2040 -1.7416
16362SOL     OW50248   4.500   5.819   0.708 -0.2718  0.2772  0.0037
16362SOL    HW150249   4.482   5.812   0.802  1.0798  0.3016  0.2927
16362SOL    HW250250   4.470   5.736   0.671  1.3984 -0.7680  0.8753
16363SOL     OW50251   6.918   6.611   4.587  0.2612  0.0212  0.4005
16363SOL    HW150252   6.900   6.579   4.675  0.5001 -0.8856  0.1297
16363SOL    HW250253   6.960   6.537   4.543  0.3890  0.5554 -0.3906
16364SOL     OW50254   7.688   2.716   0.696 -0.1074 -0.0012  0.3684
16364SOL    HW150255   7.756   2.715   0.629  0.4667  0.0977  0.9355
16364SOL    HW250256   7.713   2.787   0.755 -1.3286  0.7838 -0.0352
16365SOL     OW50257   3.566   4.855   6.639 -0.1997  0.6784  0.1630
16365SOL    HW150258   3.560   4.760   6.652 -0.6820  0.6037 -0.5614
16365SOL    HW250259   3.481   4.879   6.602 -0.4812  1.5647  1.3095
16366SOL     OW50260   7.886   4.003   2.039 -0.1042 -0.0987 -0.3490
16366SOL    HW150261   7.860   4.094   2.029 -0.3756 -0.2770 -1.3648
16366SOL    HW250262   7.813   3.952   2.004  0.3273 -0.6836 -0.4250
16367SOL     OW50263   6.401   0.843   6.569 -0.5208 -0.9969  0.1755
16367SOL    HW150264   6.458   0.806   6.636  0.7300  1.6541  0.6668
16367SOL    HW250265   6.323   0.786   6.570  0.1609 -2.0140  2.6596
16368SOL     OW50266   0.845   4.421   5.856  0.5127 -0.4101 -0.3748
16368SOL    HW150267   0.762   4.465   5.870  0.4417 -1.2646  2.4586
16368SOL    HW250268   0.840   4.388   5.766 -0.8752  2.1513 -1.3317
16369SOL     OW50269   8.802   1.711   6.866 -0.0080 -1.2013 -0.2743
16369SOL    HW150270   8.737   1.754   6.922  0.4953 -0.8756  0.0559
16369SOL    HW250271   8.882   1.760   6.879  0.3963 -1.8096 -0.4302
16370SOL     OW50272   5.685   4.811   4.786 -0.2509 -0.1500 -0.1184
16370SOL    HW150273   5.736   4.761   4.723 -0.5035  0.3920 -0.7673
16370SOL    HW250274   5.642   4.879   4.734 -0.4154  0.3494  0.6466
16371SOL     OW50275   6.631   8.282   2.049 -0.4855  0.2994  0.4780
16371SOL    HW150276   6.643   8.374   2.023 -0.6305  0.3565  0.6148
16371SOL    HW250277   6.680   8.274   2.131  0.4016 -0.0113 -0.0666
16372SOL     OW50278   1.855   2.117   8.507 -0.0904  0.2623 -0.1689
16372SOL    HW150279   1.837   2.193   8.451  0.7236  1.5387  1.2318
16372SOL    HW250280   1.920   2.067   8.459 -0.6571  0.4252 -1.1341
16373SOL     OW50281   8.742   2.301   7.752 -0.4763  0.3971  0.1128
16373SOL    HW150282   8.736   2.206   7.742 -0.0907  0.3382  0.3796
16373SOL    HW250283   8.803   2.329   7.684 -0.9264  0.5089 -0.2423
16374SOL     OW50284   0.552   7.253   6.344  0.7613  0.1978  0.7004
16374SOL    HW150285   0.555   7.346   6.319 -1.3095  0.1495  0.0703
16374SOL    HW250286   0.484   7.248   6.410 -0.3105 -1.0705 -0.4307
16375SOL     OW50287   0.631   8.190   3.221  0.1534 -0.1840 -0.2585
16375SOL    HW150288   0.644   8.167   3.128 -0.4212 -0.7017 -0.2200
16375SOL    HW250289   0.670   8.277   3.230 -0.7377  0.3482 -1.2494
16376SOL     OW50290   6.489   0.877   4.547  0.5773  0.2580  0.3922
16376SOL    HW150291   6.442   0.812   4.598 -2.1311 -0.1988 -2.4154
16376SOL    HW250292   6.462   0.961   4.586 -0.6730 -0.1046  0.3586
16377SOL     OW50293   1.451   2.445   6.851 -0.1476 -0.5866  0.0232
16377SOL    HW150294   1.446   2.458   6.946  2.4305 -1.2432  0.3157
16377SOL    HW250295   1.413   2.524   6.813  0.9990  0.7810  1.6219
16378SOL     OW50296   6.520   1.880   1.369 -0.0609  0.2203 -0.3803
16378SOL    HW150297   6.436   1.909   1.405 -0.1187  0.4399 -0.6835
16378SOL    HW250298   6.579   1.953   1.386  1.1393 -1.3985  3.3931
16379SOL     OW50299   7.160   7.106   6.047 -0.5206 -0.1886 -0.1507
16379SOL    HW150300   7.132   7.017   6.068 -0.0656 -0.3348 -0.1544
16379SOL    HW250301   7.245   7.095   6.004 -0.2045  0.2817  0.3408
16380SOL     OW50302   7.628   0.287   4.645 -0.0812  0.3809 -0.0572
16380SOL    HW150303   7.591   0.300   4.558 -1.1297  0.3235  0.3668
16380SOL    HW250304   7.557   0.250   4.697  0.9086 -0.7987  0.5046
16381SOL     OW50305   0.136   7.211   5.128 -0.5200  0.5203  0.3732
16381SOL    HW150306   0.161   7.259   5.049  1.3726 -1.4289 -0.3412
16381SOL    HW250307   0.057   7.163   5.103 -0.4798  0.6525 -0.0169
16382SOL     OW50308   0.038   4.754   5.791  0.1863 -0.0114 -0.0127
16382SOL    HW150309   0.028   4.822   5.724 -2.1890 -1.3411 -1.1552
16382SOL    HW250310  -0.016   4.784   5.864  0.1230 -0.0949 -0.0247
16383SOL     OW50311   3.448   0.569   2.103 -0.0256  0.3142 -0.3608
16383SOL    HW150312   3.420   0.495   2.049  2.3961 -1.6816  0.9221
16383SOL    HW250313   3.459   0.532   2.190  1.4789  2.1526  0.2884
16384SOL     OW50314   1.683   5.245   7.264 -0.5391 -0.1387  0.6967
16384SOL    HW150315   1.723   5.333   7.268 -0.5607 -0.1109  0.3349
16384SOL    HW250316   1.703   5.206   7.349  0.2423 -0.1148  0.5350
16385SOL     OW50317   6.805   0.149   7.519 -0.4583  0.0535 -0.0208
16385SOL    HW150318   6.799   0.162   7.614 -1.0474  0.7486 -0.1361
16385SOL    HW250319   6.888   0.189   7.494 -1.6039  2.5762 -0.1639
16386SOL     OW50320   6.059   8.458   6.690 -0.0829  0.4177 -0.1127
16386SOL    HW150321   6.016   8.417   6.615  0.1364  1.0811 -0.6134
16386SOL    HW250322   6.011   8.424   6.766 -0.5552  0.0299 -0.5691
16387SOL     OW50323   4.250   5.344   5.196  0.1458 -0.3170  0.0811
16387SOL    HW150324   4.246   5.271   5.258 -1.1227 -1.3976 -1.2172
16387SOL    HW250325   4.293   5.415   5.245  0.7568 -1.6868  1.6027
16388SOL     OW50326   0.608   2.329   0.332  0.3649 -0.7310  0.0579
16388SOL    HW150327   0.559   2.253   0.300 -0.3637 -0.5562  0.7296
16388SOL    HW250328   0.663   2.295   0.402  1.3429 -0.9558 -0.7964
16389SOL     OW50329   2.744   1.746   4.431 -0.0321 -0.0215 -0.0221
16389SOL    HW150330   2.765   1.658   4.463  0.7471  0.9904  2.5028
16389SOL    HW250331   2.799   1.757   4.354  0.4609 -1.4608  0.1005
16390SOL     OW50332   5.319   7.940   6.567 -0.7799 -0.5926 -0.3381
16390SOL    HW150333   5.369   7.893   6.633 -2.6924 -0.5065  1.2499
16390SOL    HW250334   5.346   7.901   6.484  1.3919 -0.9677  0.4810
16391SOL     OW50335   4.456   1.820   4.907 -0.1272 -0.0847 -0.1153
16391SOL    HW150336   4.541   1.787   4.938 -0.5584 -0.2784  0.9124
16391SOL    HW250337   4.434   1.765   4.832  0.6853  0.0098 -0.4286
16392SOL     OW50338   1.453   7.067   3.514  0.0650  0.1201  0.5277
16392SOL    HW150339   1.505   7.139   3.551 -0.4303 -0.3194  2.1669
16392SOL    HW250340   1.484   6.990   3.561 -0.2516 -0.5531 -0.3572
16393SOL     OW50341   2.526   6.495   0.674 -0.4231 -0.4319  0.0963
16393SOL    HW150342   2.455   6.475   0.612 -1.7466  1.1395  1.0197
16393SOL    HW250343   2.537   6.415   0.724 -1.0650 -0.9274 -0.5306
16394SOL     OW50344   0.609   8.411   1.103  0.0862 -0.0084  0.2299
16394SOL    HW150345   0.572   8.497   1.081 -0.2859 -0.3946 -0.7210
16394SOL    HW250346   0.550   8.349   1.061 -0.6848 -0.8197  2.4124
16395SOL     OW50347   0.501   0.326   4.678 -0.3421  0.1903  0.1448
16395SOL    HW150348   0.470   0.317   4.588 -0.1374 -1.1334  0.1890
16395SOL    HW250349   0.592   0.356   4.669 -0.9979  2.3399 -0.0098
16396SOL     OW50350   0.759   0.399   4.702  0.3346  0.0797  0.4113
16396SOL    HW150351   0.814   0.379   4.779  2.2325 -1.9257 -1.3345
16396SOL    HW250352   0.775   0.492   4.685  2.1087 -0.1067  0.8328
16397SOL     OW50353   5.617   3.591   5.329 -0.2478 -0.5278 -0.8670
16397SOL    HW150354   5.696   3.540   5.347  1.1705  1.0602 -2.1453
16397SOL    HW250355   5.601   3.640   5.410  0.2418 -0.6910 -0.6674
16398SOL     OW50356   8.106   5.568   5.462  0.3254 -0.2330 -0.0496
16398SOL    HW150357   8.081   5.658   5.443 -0.0452 -0.4361 -0.5573
16398SOL    HW250358   8.201   5.566   5.452  0.1431 -0.3844 -2.2466
16399SOL     OW50359   1.893   4.737   0.937 -0.1141  0.2010 -0.4602
16399SOL    HW150360   1.919   4.675   0.869  0.1450  0.5219 -0.6565
16399SOL    HW250361   1.940   4.818   0.915 -1.3136  0.8140 -0.8517
16400SOL     OW50362   6.622   8.099   1.204 -0.4894  0.6712 -0.3283
16400SOL    HW150363   6.567   8.173   1.182 -2.0284  0.3863  2.2266
16400SOL    HW250364   6.602   8.079   1.295  1.5642 -1.4496 -0.2261
16401SOL     OW50365   3.421   7.542   7.956 -0.6566 -0.4641  0.0063
16401SOL    HW150366   3.428   7.478   7.885 -0.2886 -1.5094  0.9617
16401SOL    HW250367   3.451   7.624   7.917  1.0597 -1.3393 -0.6314
16402SOL     OW50368   8.598   2.428   3.792  0.1035 -0.3050  0.2951
16402SOL    HW150369   8.663   2.368   3.829 -0.3549 -0.3255  1.0957
16402SOL    HW250370   8.524   2.423   3.852 -0.0878  0.7953  0.1739
16403SOL     OW50371   7.582   7.658   3.766  0.4669 -0.9820 -0.3269
16403SOL    HW150372   7.530   7.729   3.804 -1.4287 -0.3830 -3.6293
16403SOL    HW250373   7.522   7.583   3.763  0.6795 -1.1234 -1.6602
16404SOL     OW50374   2.869   1.315   3.933 -0.0710  0.5089  0.4837
16404SOL    HW150375   2.816   1.388   3.901 -0.3534 -0.9175 -2.7180
16404SOL    HW250376   2.959   1.340   3.911  0.1774  1.0534  1.9896
16405SOL     OW50377   6.185   2.795   5.847 -0.0858 -0.1157 -0.4758
16405SOL    HW150378   6.090   2.778   5.850 -0.0478 -0.5441 -1.3043
16405SOL    HW250379   6.195   2.858   5.776  0.5146 -2.2431 -2.3970
16406SOL     OW50380   5.877   5.488   2.531 -0.1274  0.4367 -0.2781
16406SOL    HW150381   5.796   5.437   2.531 -0.1190  0.3819  1.0956
16406SOL    HW250382   5.944   5.426   2.504  0.0530 -0.6575  2.3717
16407SOL     OW50383   6.332   7.910   5.525  0.1287 -0.0511  0.4765
16407SOL    HW150384   6.384   7.990   5.515 -0.5221  0.5649  1.7752
16407SOL    HW250385   6.394   7.839   5.510  1.0536  0.6804  0.7592
16408SOL     OW50386   7.551   3.888   4.384 -0.2454  0.0769 -0.2247
16408SOL    HW150387   7.480   3.947   4.356 -1.7686 -1.5859 -0.0411
16408SOL    HW250388   7.576   3.841   4.305  0.6269  0.5999 -0.2706
16409SOL     OW50389   6.150   3.498   8.457 -0.1508  0.3324 -0.2300
16409SOL    HW150390   6.090   3.441   8.410 -1.3599  2.9231 -2.0972
16409SOL    HW250391   6.236   3.478   8.420 -0.6875  0.2917 -1.5117
16410SOL     OW50392   4.558   7.642   3.715 -0.2806 -0.1048 -0.2542
16410SOL    HW150393   4.542   7.549   3.698 -0.3750  0.1008 -1.4220
16410SOL    HW250394   4.598   7.645   3.802 -1.1249 -1.1541  0.1900
16411SOL     OW50395   5.547   3.945   8.563 -0.1545  0.0488  0.2666
16411SOL    HW150396   5.472   3.997   8.594  1.2409  0.8931  2.4527
16411SOL    HW250397   5.586   3.999   8.494 -0.6297  0.3359  0.2111
16412SOL     OW50398   5.391   8.022   1.761 -0.4344 -0.5450 -0.6816
16412SOL    HW150399   5.372   8.113   1.784 -0.0660 -0.9287  1.3107
16412SOL    HW250400   5.450   8.028   1.686 -1.3588  0.8175 -1.3274
16413SOL     OW50401   2.662   4.527   7.426  0.2989 -0.0705 -0.3005
16413SOL    HW150402   2.649   4.437   7.456  2.4903  0.1010  1.4106
16413SOL    HW250403   2.598   4.579   7.474  0.0166 -0.5390 -0.1695
16414SOL     OW50404   1.970   3.324   1.798 -0.3222 -0.0632 -0.2178
16414SOL    HW150405   2.011   3.400   1.840 -0.9591  0.1516  0.0356
16414SOL    HW250406   1.941   3.357   1.713  0.7138 -0.4229 -0.7264
16415SOL     OW50407   0.960   0.994   5.759 -0.1686 -0.3764  0.3267
16415SOL    HW150408   0.876   0.986   5.805 -0.0047 -1.3887  0.4703
16415SOL    HW250409   0.968   1.087   5.740 -1.0925 -0.1981  0.7546
16416SOL     OW50410   8.153   4.309   2.071  0.0126 -0.0868  0.8657
16416SOL    HW150411   8.163   4.396   2.108 -0.2651 -0.6837  2.4324
16416SOL    HW250412   8.236   4.265   2.091  0.5782  0.1309 -0.8742
16417SOL     OW50413   8.345   2.769   6.401  0.3162  0.4273  0.1343
16417SOL    HW150414   8.376   2.839   6.344 -0.1054  1.7282  1.4195
16417SOL    HW250415   8.250   2.765   6.386  0.1981  0.7946  0.7187
16418SOL     OW50416   5.282   5.305   0.426  0.4499  0.6147  0.7317
16418SOL    HW150417   5.188   5.288   0.416  0.6933 -2.3427  2.3761
16418SOL    HW250418   5.307   5.349   0.345 -1.9446 -0.6071 -0.7903
16419SOL     OW50419   7.168   1.635   7.729 -0.0141 -0.1907  0.0932
16419SOL    HW150420   7.105   1.702   7.752  0.1058  0.8514 -2.3233
16419SOL    HW250421   7.204   1.606   7.813 -2.2595  0.5396  1.4060
16420SOL     OW50422   4.350   0.490   3.132 -0.0634  0.0618  0.0354
16420SOL    HW150423   4.280   0.553   3.151  0.5333  0.4683  0.9628
16420SOL    HW250424   4.330   0.458   3.045 -0.6337  1.2137 -0.2841
16421SOL     OW50425   5.146   5.814   2.148  0.3524 -0.3760  0.5540
16421SOL    HW150426   5.169   5.721   2.139  0.8759 -0.3763  1.7908
16421SOL    HW250427   5.119   5.840   2.059  1.1763 -1.4400 -0.0345
16422SOL     OW50428   3.902   4.420   1.622 -0.1609  0.4717  0.0063
16422SOL    HW150429   3.905   4.371   1.704  1.2593  2.0935  0.9741
16422SOL    HW250430   3.988   4.407   1.583  0.9734  3.5848  1.2033
16423SOL     OW50431   2.161   7.403   5.440  0.8952 -0.1293 -0.2400
16423SOL    HW150432   2.172   7.310   5.458  0.9144 -0.2128 -0.6653
16423SOL    HW250433   2.235   7.426   5.384 -0.2583 -0.3735 -1.9539
16424SOL     OW50434   4.583   1.772   3.255 -0.2759 -0.1523  0.7117
16424SOL    HW150435   4.507   1.740   3.304 -0.2363  0.1331  0.9654
16424SOL    HW250436   4.658   1.735   3.302 -0.1869  1.1526  1.6475
16425SOL     OW50437   5.259   2.079   5.473  0.3144 -0.5091 -0.1362
16425SOL    HW150438   5.328   2.093   5.408  1.6061 -1.4392  0.9739
16425SOL    HW250439   5.264   2.157   5.529 -0.4744  0.0640 -0.8411
16426SOL     OW50440   3.360   6.048   8.658  0.2302  0.0203  0.3428
16426SOL    HW150441   3.307   5.975   8.690 -0.0639  0.1985  0.2573
16426SOL    HW250442   3.410   6.010   8.585  1.2833 -0.5250  1.3098
16427SOL     OW50443   0.459   2.119   1.854  0.9523 -0.1046 -0.0537
16427SOL    HW150444   0.549   2.137   1.883  0.1116  1.5037  1.8298
16427SOL    HW250445   0.426   2.204   1.824 -0.5250 -0.2230  1.1132
16428SOL     OW50446   4.300   7.367   8.380  0.3161  0.6066 -0.5312
16428SOL    HW150447   4.374   7.405   8.427  0.4807  0.9563 -1.0575
16428SOL    HW250448   4.296   7.417   8.298 -0.8139  0.9161 -0.2973
16429SOL     OW50449   1.756   8.425   6.671  0.1589  0.3822 -0.9184
16429SOL    HW150450   1.786   8.388   6.753  0.9213 -2.0253 -2.1776
16429SOL    HW250451   1.828   8.480   6.641  0.5065  0.0456 -0.7056
16430SOL     OW50452   5.282   1.455   6.130 -0.4330  0.3430 -0.2132
16430SOL    HW150453   5.197   1.426   6.161 -0.5368  1.7111  0.9392
16430SOL    HW250454   5.272   1.468   6.036 -0.9780 -1.1505 -0.3757
16431SOL     OW50455   8.572   1.356   3.248  0.1707  0.1364 -0.8301
16431SOL    HW150456   8.559   1.416   3.174 -1.1169  0.7952 -0.1092
16431SOL    HW250457   8.489   1.308   3.254 -0.9141  2.0568  1.8513
16432SOL     OW50458   1.518   4.416   6.557 -0.6547 -0.1225 -0.2659
16432SOL    HW150459   1.510   4.341   6.498  1.3977 -0.0210 -0.7424
16432SOL    HW250460   1.588   4.392   6.617 -1.6483  0.4300  1.1667
16433SOL     OW50461   1.948   0.858   2.329 -0.2978 -0.5973 -0.4103
16433SOL    HW150462   1.919   0.895   2.246 -0.3758 -1.8984 -0.9840
16433SOL    HW250463   1.903   0.909   2.395 -0.7731  0.0075 -1.1929
16434SOL     OW50464   3.790   7.824   6.842 -0.1245  0.0987 -0.1221
16434SOL    HW150465   3.744   7.742   6.860 -0.2027  0.5450  1.9716
16434SOL    HW250466   3.750   7.857   6.762 -0.5006 -1.5931 -0.6775
16435SOL     OW50467   6.323   3.635   1.986 -0.3730 -0.2149  0.1485
16435SOL    HW150468   6.331   3.725   2.016  0.0237  0.0654 -0.7665
16435SOL    HW250469   6.330   3.640   1.891 -0.3662 -1.2106  0.0792
16436SOL     OW50470   0.086   2.311   7.585 -0.0775 -0.3607 -0.1308
16436SOL    HW150471   0.159   2.355   7.630  0.2215 -0.2333 -0.7244
16436SOL    HW250472   0.062   2.372   7.515 -1.1045 -0.1691  0.3717
16437SOL     OW50473   2.268   3.665   3.924 -0.1286  0.4697 -0.1727
16437SOL    HW150474   2.238   3.744   3.968  0.4370  0.0046  1.0771
16437SOL    HW250475   2.261   3.596   3.990  1.7889 -0.0298 -0.4236
16438SOL     OW50476   2.452   6.338   3.620 -0.0123  0.6250 -0.0207
16438SOL    HW150477   2.425   6.426   3.647  1.5132  0.9098  0.7333
16438SOL    HW250478   2.482   6.349   3.530  0.4508  0.9623  0.1681
16439SOL     OW50479   1.958   4.768   1.541 -0.4835  0.0761 -0.1785
16439SOL    HW150480   1.913   4.705   1.485 -0.4152 -0.6742  0.5852
16439SOL    HW250481   2.051   4.752   1.524 -0.4791  0.9340 -1.0108
16440SOL     OW50482   0.372   1.884   5.065 -0.4448  0.0404  0.3469
16440SOL    HW150483   0.296   1.919   5.018 -1.0903  0.3346  1.5653
16440SOL    HW250484   0.339   1.806   5.109 -0.1294  0.3298  1.1195
16441SOL     OW50485   3.366   7.461   8.533 -0.1724  0.0759  0.2894
16441SOL    HW150486   3.277   7.444   8.502  0.5341 -0.9919 -1.2953
16441SOL    HW250487   3.395   7.536   8.480  0.9659 -1.6183 -1.6202
16442SOL     OW50488   8.063   7.305   4.414  0.4804  0.3020 -0.4463
16442SOL    HW150489   7.981   7.317   4.366  0.9102 -0.1854 -1.3235
16442SOL    HW250490   8.127   7.359   4.368  1.1475 -0.9868 -1.0970
16443SOL     OW50491   4.983   6.822   1.482  0.4125 -0.3644 -0.0140
16443SOL    HW150492   4.960   6.786   1.396  0.0696 -0.4411  0.1059
16443SOL    HW250493   5.073   6.852   1.472  1.1080 -2.2468  0.1952
16444SOL     OW50494   4.844   1.587   1.075  0.2478 -0.3658  0.6978
16444SOL    HW150495   4.821   1.563   0.986 -1.1236 -3.5752  1.8001
16444SOL    HW250496   4.939   1.600   1.073  0.0535  1.2532 -1.4633
16445SOL     OW50497   6.287   1.740   0.844  0.0333 -0.2029  0.0313
16445SOL    HW150498   6.289   1.681   0.920 -2.2427  0.0495  0.3663
16445SOL    HW250499   6.336   1.693   0.777 -0.1346 -1.6517  0.8685
16446SOL     OW50500   6.210   4.663   6.826 -0.9136  0.2909  0.2875
16446SOL    HW150501   6.263   4.687   6.749 -1.3015 -1.7780 -0.6834
16446SOL    HW250502   6.145   4.733   6.833  1.6282  2.7252  1.3090
16447SOL     OW50503   4.363   2.258   0.692  0.2631  0.0581  0.1431
16447SOL    HW150504   4.383   2.351   0.694 -1.1920  0.3860  1.9304
16447SOL    HW250505   4.296   2.246   0.759 -0.7741 -2.0064 -1.1502
16448SOL     OW50506   1.729   3.341   7.570  0.4260  0.0744 -0.0490
16448SOL    HW150507   1.646   3.305   7.602  1.1328 -1.1560  0.4585
16448SOL    HW250508   1.716   3.349   7.476  0.2789 -1.7534 -0.2372
16449SOL     OW50509   2.751   1.641   5.235  0.2361 -0.1733 -0.0141
16449SOL    HW150510   2.720   1.728   5.262 -0.7860 -0.5430  0.0395
16449SOL    HW250511   2.812   1.615   5.303  1.4695  0.9869 -0.6206
16450SOL     OW50512   3.817   8.782   3.967  0.1970 -0.4438  0.3752
16450SOL    HW150513   3.804   8.713   3.902 -2.3188  1.8501 -1.7700
16450SOL    HW250514   3.912   8.780   3.984  0.4338 -3.4193 -0.6252
16451SOL     OW50515   3.169   5.432   5.852  0.0569  0.3303  0.3460
16451SOL    HW150516   3.103   5.481   5.902  0.3287  3.0572 -1.7243
16451SOL    HW250517   3.253   5.465   5.885  0.4131 -1.7326  1.6492
16452SOL     OW50518   0.407   5.116   1.573 -0.1826 -0.3879 -0.4530
16452SOL    HW150519   0.342   5.058   1.533 -0.9855 -0.9233  1.5200
16452SOL    HW250520   0.375   5.131   1.662  2.6252 -1.0519  0.7787
16453SOL     OW50521   8.670   7.590   7.417  0.3633 -0.2486  0.0065
16453SOL    HW150522   8.664   7.503   7.457  0.7068 -2.9528 -4.9651
16453SOL    HW250523   8.764   7.611   7.421  0.3161 -0.1692  1.0143
16454SOL     OW50524   8.360   3.912   4.079 -0.2846 -0.2229  0.9924
16454SOL    HW150525   8.275   3.941   4.111 -0.1455  0.6201  0.6158
16454SOL    HW250526   8.373   3.826   4.119 -1.5138 -0.5672  0.6897
16455SOL     OW50527   1.960   1.009   5.085  0.3710  0.0019 -1.0770
16455SOL    HW150528   2.022   1.082   5.080 -0.7511  1.0152 -0.8442
16455SOL    HW250529   1.875   1.050   5.066 -0.2247 -1.3429 -1.3771
16456SOL     OW50530   1.845   8.330   2.130  0.2152  0.1020  0.2612
16456SOL    HW150531   1.862   8.263   2.197  1.2653  0.7974  0.7290
16456SOL    HW250532   1.930   8.373   2.119 -0.2905  0.9139 -0.5121
16457SOL     OW50533   0.350   7.340   1.452 -0.0896 -0.0382 -0.5433
16457SOL    HW150534   0.341   7.394   1.374  1.5181  1.4493  0.2320
16457SOL    HW250535   0.420   7.279   1.432  1.0810  1.0637  0.0724
16458SOL     OW50536   1.471   7.457   5.338 -0.4959 -0.2118  0.2588
16458SOL    HW150537   1.559   7.437   5.305 -0.4768  0.1647  0.0798
16458SOL    HW250538   1.477   7.548   5.369 -0.5757 -0.4690  1.0756
16459SOL     OW50539   0.020   0.122   0.802 -0.1812  0.9424  0.1952
16459SOL    HW150540  -0.023   0.053   0.852  0.8165 -0.2735 -0.5579
16459SOL    HW250541  -0.046   0.152   0.739 -0.4246  0.2033  0.0907
16460SOL     OW50542   6.237   1.065   2.620 -0.1069  0.2881  0.0640
16460SOL    HW150543   6.208   1.053   2.529  0.6833  0.2261 -0.1840
16460SOL    HW250544   6.181   1.135   2.654 -0.4095  0.3091 -0.4708
16461SOL     OW50545   4.682   1.277   7.295  0.1095  0.0584  0.6668
16461SOL    HW150546   4.691   1.343   7.226  1.9189  0.4109  1.1866
16461SOL    HW250547   4.609   1.307   7.348  0.0863  0.9505  0.1496
16462SOL     OW50548   7.773   0.585   8.007 -0.3899  0.1582  0.4421
16462SOL    HW150549   7.824   0.663   7.987 -0.4263  0.5150  1.6465
16462SOL    HW250550   7.787   0.527   7.932 -1.4749  1.8513 -1.1730
16463SOL     OW50551   8.066   1.082   8.387  0.0397  0.4616 -0.8363
16463SOL    HW150552   7.998   1.024   8.351 -1.3054  1.0902  0.5733
16463SOL    HW250553   8.020   1.134   8.454  2.1849  0.0818  1.0253
16464SOL     OW50554   8.247   5.340   8.568 -0.1582 -0.5769 -0.1477
16464SOL    HW150555   8.247   5.318   8.475  0.1868 -2.6634  0.2961
16464SOL    HW250556   8.197   5.270   8.609 -1.2733  0.8950  1.1562
16465SOL     OW50557   5.629   4.660   3.699 -0.2081 -0.0129  0.3590
16465SOL    HW150558   5.692   4.604   3.655  1.9834  3.6257 -1.5746
16465SOL    HW250559   5.547   4.647   3.651  0.4204 -0.9785 -0.4881
16466SOL     OW50560   0.131   7.027   7.327  0.0913  0.6541  0.0477
16466SOL    HW150561   0.097   6.939   7.341 -0.9568  0.6498 -2.1362
16466SOL    HW250562   0.175   7.023   7.242  0.0999  2.1907 -0.0567
16467SOL     OW50563   1.905   8.747   8.742  0.4326  0.6811  0.0167
16467SOL    HW150564   1.979   8.730   8.800  0.6842  1.7528  0.0247
16467SOL    HW250565   1.874   8.834   8.767 -1.1490  0.0501  0.3459
16468SOL     OW50566   1.942   3.637   0.208 -0.2403 -0.0256 -0.3402
16468SOL    HW150567   1.862   3.686   0.225 -0.5687 -0.6754 -0.0013
16468SOL    HW250568   2.012   3.694   0.240 -0.6327  0.1226  0.2541
16469SOL     OW50569   7.641   3.987   5.151  0.3909 -0.5752  0.0687
16469SOL    HW150570   7.555   3.944   5.150 -0.3286  0.7768  0.6848
16469SOL    HW250571   7.688   3.948   5.077 -0.2301 -2.3160  0.5265
16470SOL     OW50572   0.570   3.725   4.235  0.1164  0.3828  0.1636
16470SOL    HW150573   0.492   3.760   4.278  0.0007  0.4827 -0.1261
16470SOL    HW250574   0.591   3.645   4.284  1.4080  1.7371  1.9530
16471SOL     OW50575   0.463   6.123   0.273  0.1251  0.3736  0.3839
16471SOL    HW150576   0.370   6.099   0.282  0.3398 -0.2415  1.0595
16471SOL    HW250577   0.484   6.102   0.182 -0.4961  0.8977  0.1076
16472SOL     OW50578   0.636   1.144   6.414  0.8297  0.2951 -0.2567
16472SOL    HW150579   0.613   1.217   6.358  1.0179 -0.5658 -1.4950
16472SOL    HW250580   0.697   1.091   6.362 -0.1270 -1.3106  0.1680
16473SOL     OW50581   6.959   4.810   3.464 -0.0210  0.5800  0.1117
16473SOL    HW150582   6.948   4.895   3.507 -1.2825 -0.2922  1.5925
16473SOL    HW250583   6.884   4.803   3.405  0.5843  0.8627 -0.7171
16474SOL     OW50584   5.402   8.233   7.864  0.2151 -0.0436  0.4020
16474SOL    HW150585   5.339   8.263   7.930 -0.8609 -0.3602 -0.4431
16474SOL    HW250586   5.401   8.137   7.872 -1.6356 -0.2608 -1.5096
16475SOL     OW50587   7.522   4.536   1.815  0.1308 -0.1525  0.2432
16475SOL    HW150588   7.449   4.560   1.872  0.4653 -0.4850  0.8171
16475SOL    HW250589   7.593   4.512   1.875  1.4694  2.2594 -0.1935
16476SOL     OW50590   0.327   1.620   5.716  0.0465  0.0876 -0.0050
16476SOL    HW150591   0.401   1.642   5.773 -0.6197  1.8878  0.2150
16476SOL    HW250592   0.310   1.527   5.735  2.0250 -0.3016  0.1643
16477SOL     OW50593   0.987   6.056   7.549 -0.3606  0.4616 -0.5097
16477SOL    HW150594   0.906   6.075   7.596 -1.0459 -1.2468 -0.9112
16477SOL    HW250595   0.965   5.982   7.492  1.9808 -1.4583  0.8586
16478SOL     OW50596   4.622   8.597   8.081  0.4966  0.3355 -0.4965
16478SOL    HW150597   4.614   8.653   8.004  0.5889  0.1548 -0.6383
16478SOL    HW250598   4.706   8.553   8.070 -0.2680 -1.0290 -1.1980
16479SOL     OW50599   8.310   2.340   7.899 -0.4677 -0.0342  0.7359
16479SOL    HW150600   8.235   2.329   7.840  0.2530 -0.1307 -0.1733
16479SOL    HW250601   8.341   2.251   7.916 -0.5284  0.0087  1.0742
16480SOL     OW50602   5.602   6.733   2.562  0.4799  0.4745  0.7485
16480SOL    HW150603   5.564   6.720   2.476  0.4722  0.5151  0.7457
16480SOL    HW250604   5.623   6.645   2.593  1.7267  0.5345  0.1417
16481SOL     OW50605   3.613   6.480   1.072 -0.5784  0.0556  0.2219
16481SOL    HW150606   3.545   6.444   1.129 -0.7422  0.3504  0.2161
16481SOL    HW250607   3.565   6.531   1.007 -0.4631 -1.0735 -0.7760
16482SOL     OW50608   2.779   4.326   5.918 -0.8941  0.6537 -0.2034
16482SOL    HW150609   2.863   4.347   5.959 -1.3334  1.8314  0.1170
16482SOL    HW250610   2.754   4.242   5.957 -0.9523  1.3858  1.4108
16483SOL     OW50611   6.125   8.559   7.428  0.0328  0.2113 -0.2493
16483SOL    HW150612   6.214   8.562   7.462 -0.1320 -2.4458  0.6333
16483SOL    HW250613   6.077   8.504   7.490 -2.1114  1.1406 -0.9709
16484SOL     OW50614   3.151   5.759   4.995  0.2603 -0.1453  0.2197
16484SOL    HW150615   3.106   5.701   4.933 -1.0710 -0.4852  1.4601
16484SOL    HW250616   3.154   5.709   5.077  1.7382  0.4131  0.5343
16485SOL     OW50617   4.518   2.345   4.670 -0.2492  0.5248 -0.6850
16485SOL    HW150618   4.504   2.251   4.657 -1.2022  0.7509 -1.4145
16485SOL    HW250619   4.600   2.364   4.625 -0.0623  0.0460 -0.5481
16486SOL     OW50620   1.887   5.712   0.800 -0.4305 -0.0358 -0.0040
16486SOL    HW150621   1.882   5.761   0.881  0.6846 -0.3612  0.2848
16486SOL    HW250622   1.843   5.767   0.735  0.3679  1.1269  0.4145
16487SOL     OW50623   6.147   0.117   7.838  0.3307 -0.7374  0.1164
16487SOL    HW150624   6.208   0.135   7.766  0.8213  0.6373  0.8368
16487SOL    HW250625   6.105   0.201   7.855  1.3459 -0.6388  2.4473
16488SOL     OW50626   5.504   0.758   2.914 -0.2485 -0.0775  0.4135
16488SOL    HW150627   5.550   0.677   2.937  1.3664  0.9092  0.8248
16488SOL    HW250628   5.530   0.775   2.823 -1.5807 -0.6461 -0.0987
16489SOL     OW50629   2.093   0.162   6.978 -0.3279  0.2942 -0.6495
16489SOL    HW150630   2.183   0.137   6.998 -0.4941  0.7334  0.7233
16489SOL    HW250631   2.076   0.122   6.892  1.3773  0.7382 -1.2402
16490SOL     OW50632   3.445   2.256   8.279 -0.2011 -0.0940 -0.4061
16490SOL    HW150633   3.470   2.166   8.262 -1.3011 -0.8747  1.6485
16490SOL    HW250634   3.506   2.286   8.347  0.7430  1.0670 -1.7078
16491SOL     OW50635   5.853   1.976   7.518  0.3712 -0.1858 -0.3762
16491SOL    HW150636   5.844   2.032   7.595 -0.1034 -0.6703 -0.0729
16491SOL    HW250637   5.773   1.925   7.516 -0.0283  0.4597 -1.7313
16492SOL     OW50638   7.594   0.791   0.555 -0.1449 -0.3429  0.1472
16492SOL    HW150639   7.577   0.797   0.461  1.3446 -0.3212 -0.1561
16492SOL    HW250640   7.666   0.852   0.570 -0.7646  0.1137  1.4288
16493SOL     OW50641   6.022   6.476   2.108  0.4183  0.5351  0.0998
16493SOL    HW150642   6.106   6.499   2.067  1.4598  1.7800  2.6894
16493SOL    HW250643   5.957   6.492   2.039  2.1299  1.3630 -1.4197
16494SOL     OW50644   6.722   1.825   8.636  0.6435 -0.2287 -0.0511
16494SOL    HW150645   6.679   1.812   8.721 -1.3974 -2.1190 -1.2394
16494SOL    HW250646   6.719   1.919   8.622 -1.2719 -0.0752  0.9176
16495SOL     OW50647   7.129   6.476   4.758 -0.1573  0.8302 -0.4367
16495SOL    HW150648   7.159   6.567   4.759 -1.2368  1.1952  0.4305
16495SOL    HW250649   7.058   6.473   4.823  0.7787 -0.9442  0.5963
16496SOL     OW50650   7.782   2.010   5.398 -0.4089 -0.2268 -0.1877
16496SOL    HW150651   7.853   2.067   5.427 -0.5062  0.3096 -0.9788
16496SOL    HW250652   7.702   2.057   5.422 -0.5163 -0.8633  0.7708
16497SOL     OW50653   3.068   8.360   7.888 -0.3570 -0.5092  0.0691
16497SOL    HW150654   3.055   8.428   7.822  1.2707 -1.5666 -1.4271
16497SOL    HW250655   3.150   8.384   7.931 -0.4333 -0.8492  0.4110
16498SOL     OW50656   3.107   3.905   5.574 -0.4340 -0.0389  0.3392
16498SOL    HW150657   3.041   3.858   5.523 -1.6948 -1.0738  2.7586
16498SOL    HW250658   3.178   3.842   5.585 -0.9836 -0.5192  1.3556
16499SOL     OW50659   7.735   3.046   5.423 -0.0080  0.1786 -0.3305
16499SOL    HW150660   7.694   3.018   5.505  1.3894 -1.0219 -0.0128
16499SOL    HW250661   7.824   3.013   5.428  0.5192  1.2767 -1.7495
16500SOL     OW50662   2.766   1.444   3.387 -0.1800 -0.7497 -0.7665
16500SOL    HW150663   2.815   1.412   3.462 -0.3446  0.3224 -0.1748
16500SOL    HW250664   2.832   1.457   3.318  0.5165  1.1903  0.1878
16501SOL     OW50665   8.237   1.204   8.655  0.1576  0.3762 -0.8240
16501SOL    HW150666   8.217   1.267   8.585  0.4436  1.3424 -0.0587
16501SOL    HW250667   8.154   1.158   8.669 -0.3674  1.3462 -0.6489
16502SOL     OW50668   0.931   4.511   0.034  0.1587  0.4717  0.2798
16502SOL    HW150669   0.854   4.454   0.034  0.6217 -0.1642 -0.2689
16502SOL    HW250670   1.004   4.453   0.056  0.7097  0.7389 -0.8160
16503SOL     OW50671   5.151   3.687   4.899  0.4460  0.1336 -0.0794
16503SOL    HW150672   5.057   3.704   4.909  0.1264 -0.4557 -1.7875
16503SOL    HW250673   5.174   3.634   4.975 -0.8226 -0.5002 -0.1146
16504SOL     OW50674   7.850   1.108   5.387  0.5139  0.0033 -0.7298
16504SOL    HW150675   7.835   1.076   5.298  0.6617  0.8569 -1.0752
16504SOL    HW250676   7.828   1.035   5.443  1.7313 -1.0240 -1.5280
16505SOL     OW50677   1.960   0.886   2.655  0.0921 -0.1537  0.1176
16505SOL    HW150678   1.992   0.971   2.624  0.4092 -0.7714 -1.3422
16505SOL    HW250679   1.893   0.907   2.720  0.1209  1.2101 -0.2758
16506SOL     OW50680   3.590   6.408   7.642  0.1154 -0.6175 -0.2449
16506SOL    HW150681   3.654   6.354   7.596 -0.0204 -3.1865  2.2731
16506SOL    HW250682   3.505   6.375   7.611  0.0336 -0.7566  0.1193
16507SOL     OW50683   6.548   4.587   8.417  0.1854  0.2714  0.0317
16507SOL    HW150684   6.593   4.502   8.427  0.6217  0.4440 -0.4098
16507SOL    HW250685   6.548   4.624   8.505 -0.8515 -0.5993  0.4165
16508SOL     OW50686   1.475   8.689   3.767  0.1820 -0.5021  0.2083
16508SOL    HW150687   1.547   8.706   3.827  0.0309  0.5512  0.1226
16508SOL    HW250688   1.485   8.598   3.741  1.7284 -0.2665 -0.1093
16509SOL     OW50689   5.207   0.305   2.273 -0.2722 -1.3240 -0.7792
16509SOL    HW150690   5.170   0.223   2.306 -2.9647  0.1514  0.1938
16509SOL    HW250691   5.201   0.297   2.178 -0.6516 -2.1947 -0.6989
16510SOL     OW50692   8.231   0.087   6.639  0.0082  0.1467 -0.7667
16510SOL    HW150693   8.268   0.174   6.656  0.0063  0.4365 -2.1325
16510SOL    HW250694   8.137   0.097   6.656  0.1060  0.2054 -0.2275
16511SOL     OW50695   5.507   4.023   2.301  0.7413  0.6298 -0.1971
16511SOL    HW150696   5.435   4.010   2.241 -1.1483  2.3639  1.5473
16511SOL    HW250697   5.526   3.935   2.336  0.7340 -0.1089 -1.9746
16512SOL     OW50698   3.240   5.509   2.487 -0.3915  0.4204  0.5313
16512SOL    HW150699   3.183   5.432   2.489  0.8328 -0.5087  1.3487
16512SOL    HW250700   3.288   5.501   2.405  0.2921 -0.1373  0.9712
16513SOL     OW50701   5.665   4.968   2.700  0.0583 -0.3867  0.4244
16513SOL    HW150702   5.608   5.025   2.751  0.2259 -1.6563  2.0931
16513SOL    HW250703   5.619   4.957   2.617 -1.7022 -0.6453  1.3811
16514SOL     OW50704   8.457   7.106   7.248 -1.0080  0.9245  0.0242
16514SOL    HW150705   8.471   7.100   7.342  1.2253  0.2787 -0.3046
16514SOL    HW250706   8.380   7.163   7.239 -1.6051  0.5411  2.2231
16515SOL     OW50707   0.178   1.008   2.801 -0.1044 -0.1199 -0.3011
16515SOL    HW150708   0.265   1.046   2.810 -0.0422 -0.5278  0.9711
16515SOL    HW250709   0.153   1.027   2.711  0.2118  2.2975  0.0539
16516SOL     OW50710   6.096   4.714   2.623  0.2810 -0.9593 -0.0982
16516SOL    HW150711   6.089   4.704   2.718  0.2077 -0.0829  0.0041
16516SOL    HW250712   6.013   4.756   2.598  0.8723  0.0938 -0.3421
16517SOL     OW50713   4.075   6.900   6.328  0.3450 -0.3960  0.4604
16517SOL    HW150714   4.159   6.871   6.293 -0.2438  0.1951 -1.6522
16517SOL    HW250715   4.012   6.836   6.294 -0.0452 -1.0669  2.3596
16518SOL     OW50716   7.230   5.777   2.255 -0.1763 -0.4833  0.2028
16518SOL    HW150717   7.218   5.811   2.166  0.2482  1.0907  0.7117
16518SOL    HW250718   7.144   5.745   2.280 -0.6649  0.4364 -0.2475
16519SOL     OW50719   6.585   4.818   0.513  0.6745 -0.9408  0.2264
16519SOL    HW150720   6.593   4.739   0.460  1.5022 -0.5823 -0.2046
16519SOL    HW250721   6.550   4.884   0.453  2.2138 -0.3596 -0.0993
16520SOL     OW50722   3.188   0.396   2.953 -0.2607 -0.5276  0.5379
16520SOL    HW150723   3.211   0.346   3.031 -0.1093  0.7433  1.3187
16520SOL    HW250724   3.272   0.414   2.911 -0.0497  1.2839  1.6491
16521SOL     OW50725   0.159   8.821   0.614 -0.0222  0.0478 -0.4978
16521SOL    HW150726   0.103   8.875   0.670 -0.5674 -0.1305 -0.8619
16521SOL    HW250727   0.101   8.754   0.579  1.1823 -2.5489  2.1017
16522SOL     OW50728   3.063   3.323   0.106 -0.1655  0.0681 -0.1749
16522SOL    HW150729   3.001   3.395   0.118  0.3054  0.2539  1.3745
16522SOL    HW250730   3.105   3.341   0.022 -1.1181  0.7694 -0.5231
16523SOL     OW50731   6.900   8.074   1.201  0.2777  0.3355 -0.1891
16523SOL    HW150732   6.889   8.001   1.263 -0.5582 -1.3755 -2.2192
16523SOL    HW250733   6.810   8.096   1.175  0.6286  0.7881 -1.0379
16524SOL     OW50734   5.214   8.134   1.296 -0.4104 -0.5740  0.5109
16524SOL    HW150735   5.295   8.168   1.256 -0.8424  0.6603  0.6492
16524SOL    HW250736   5.161   8.107   1.222 -0.1056 -0.8506  0.3902
16525SOL     OW50737   1.947   4.691   4.478 -0.0653  0.5416 -0.3763
16525SOL    HW150738   1.911   4.776   4.453 -0.7081  0.3422 -0.1604
16525SOL    HW250739   1.923   4.632   4.407 -0.9474  0.2149  0.1733
16526SOL     OW50740   8.699   2.621   5.197 -0.6154 -0.4232  0.3744
16526SOL    HW150741   8.632   2.589   5.257  1.0542  0.7394  3.0589
16526SOL    HW250742   8.769   2.652   5.254  1.6006 -0.2186 -2.2488
16527SOL     OW50743   6.594   0.895   4.136  0.0552  0.5236  0.4008
16527SOL    HW150744   6.653   0.826   4.165 -1.6366  0.1157  3.2722
16527SOL    HW250745   6.651   0.969   4.115  1.6956 -0.6186  0.6983
16528SOL     OW50746   2.125   1.200   2.253 -0.0441  0.5439  0.1427
16528SOL    HW150747   2.059   1.254   2.296 -0.8282  0.4852 -0.9675
16528SOL    HW250748   2.125   1.229   2.162 -1.6605 -2.4004 -0.8917
16529SOL     OW50749   2.268   0.256   4.982  0.0581  0.4909  0.3378
16529SOL    HW150750   2.364   0.252   4.987 -0.0075 -0.9383  0.6172
16529SOL    HW250751   2.243   0.320   5.049  0.7968  0.7840  0.3456
16530SOL     OW50752   0.597   6.516   7.432  0.0316  0.4607 -0.0829
16530SOL    HW150753   0.605   6.447   7.497  0.9385 -0.2463 -0.9241
16530SOL    HW250754   0.529   6.485   7.372  2.3207 -1.1062 -2.0666
16531SOL     OW50755   2.460   3.942   6.267 -0.2067 -0.0021  0.0116
16531SOL    HW150756   2.377   3.896   6.252  0.1870 -0.9971  0.8121
16531SOL    HW250757   2.494   3.959   6.179 -0.2154 -1.5468 -0.3155
16532SOL     OW50758   4.393   2.095   4.647  0.1291  0.0295 -0.0310
16532SOL    HW150759   4.315   2.086   4.701 -0.3271  0.9681 -0.5087
16532SOL    HW250760   4.436   2.009   4.652 -0.2119 -0.0825  1.3182
16533SOL     OW50761   0.765   5.050   1.097 -0.2098  0.0259  0.1534
16533SOL    HW150762   0.701   5.049   1.169 -0.6293 -0.5274 -0.2238
16533SOL    HW250763   0.745   5.130   1.049 -0.9881 -0.4228 -0.2853
16534SOL     OW50764   1.028   6.862   3.401 -0.6124 -0.3205 -0.0838
16534SOL    HW150765   1.087   6.819   3.463 -0.5397  0.9631  0.7684
16534SOL    HW250766   0.982   6.790   3.358 -1.6147 -1.2401  2.3663
16535SOL     OW50767   8.068   8.340   7.138 -0.1455 -0.0559  0.7409
16535SOL    HW150768   7.988   8.286   7.133 -0.7367  0.8977 -0.6450
16535SOL    HW250769   8.047   8.418   7.087  1.3075  0.7142  1.2845
16536SOL     OW50770   1.239   2.671   3.756 -0.1229 -1.0623  0.2458
16536SOL    HW150771   1.292   2.727   3.812  0.4097 -0.1545 -1.1141
16536SOL    HW250772   1.163   2.724   3.732 -0.1712 -1.3101 -0.1727
16537SOL     OW50773   6.162   5.241   5.021 -0.0860 -0.5690 -0.4634
16537SOL    HW150774   6.218   5.229   4.944 -0.0559  0.7896 -0.6670
16537SOL    HW250775   6.103   5.313   4.998  0.5170  0.4840  1.0943
16538SOL     OW50776   2.230   4.445   6.256 -0.3430  0.0150 -0.5722
16538SOL    HW150777   2.136   4.463   6.249 -0.6732  0.7092  3.3122
16538SOL    HW250778   2.270   4.531   6.271  0.4601 -0.5594  0.7402
16539SOL     OW50779   6.535   8.035   6.331 -0.4894  0.3216 -0.5360
16539SOL    HW150780   6.578   7.952   6.346  0.4288  1.1246  1.7629
16539SOL    HW250781   6.483   8.050   6.411 -0.5772  1.9514 -0.8541
16540SOL     OW50782   6.080   1.552   7.920  0.0432  0.2582 -0.0208
16540SOL    HW150783   6.133   1.631   7.929 -0.3544  0.4310  1.0335
16540SOL    HW250784   6.091   1.506   8.003  1.3944 -1.5450 -1.1210
16541SOL     OW50785   3.111   2.902   7.679 -0.0040 -0.4081 -0.2273
16541SOL    HW150786   3.078   2.845   7.748  0.4104 -1.0659 -0.5598
16541SOL    HW250787   3.186   2.854   7.643 -1.3666 -0.9929 -2.4384
16542SOL     OW50788   7.287   5.819   4.458  0.9451 -0.1808 -0.2971
16542SOL    HW150789   7.320   5.901   4.495 -1.4469  1.8987 -2.4368
16542SOL    HW250790   7.345   5.801   4.384 -0.0296  1.0673 -1.4009
16543SOL     OW50791   4.722   5.964   5.931  0.1876 -0.2179 -0.0812
16543SOL    HW150792   4.804   5.929   5.965  1.2706  1.6441 -0.5994
16543SOL    HW250793   4.678   5.889   5.891  1.3971 -1.3553  0.6608
16544SOL     OW50794   2.281   8.429   2.588 -0.3285 -0.1547  0.2531
16544SOL    HW150795   2.303   8.509   2.635 -0.4134 -0.2806  0.5100
16544SOL    HW250796   2.289   8.452   2.495 -1.0307  0.3490  0.3066
16545SOL     OW50797   5.106   4.484   7.373 -0.2001 -0.3238 -0.6360
16545SOL    HW150798   5.100   4.411   7.312 -0.8999 -1.1879  0.4360
16545SOL    HW250799   5.095   4.445   7.459 -0.0506  0.9771  0.0048
16546SOL     OW50800   3.799   5.284   4.287 -0.6870  0.0868 -0.2895
16546SOL    HW150801   3.761   5.229   4.219 -1.5685  0.9774 -0.5351
16546SOL    HW250802   3.854   5.347   4.239 -1.3413  0.7414 -0.1949
16547SOL     OW50803   8.629   3.791   4.966 -0.0240  0.2281 -0.4135
16547SOL    HW150804   8.687   3.715   4.966  0.8819  0.8928  0.3352
16547SOL    HW250805   8.613   3.808   4.873 -0.8217 -1.2841 -0.5839
16548SOL     OW50806   4.933   2.729   2.470 -0.1709 -0.3668 -0.4105
16548SOL    HW150807   5.006   2.735   2.531 -1.0510  0.5170  0.6071
16548SOL    HW250808   4.868   2.674   2.514 -0.5237 -0.3210 -0.8583
16549SOL     OW50809   0.224   4.477   4.246 -0.1784 -0.4687  0.2635
16549SOL    HW150810   0.166   4.446   4.315 -0.3271  2.7029  1.7229
16549SOL    HW250811   0.184   4.446   4.165 -2.9256  0.0261  1.3342
16550SOL     OW50812   0.148   1.334   7.878  0.3602 -0.3086  0.0490
16550SOL    HW150813   0.112   1.336   7.789  0.2483 -1.1088  0.0733
16550SOL    HW250814   0.243   1.345   7.866  0.4666 -1.4919 -0.2491
16551SOL     OW50815   6.547   1.885   0.894 -0.4715  0.3796 -0.2685
16551SOL    HW150816   6.488   1.823   0.851  0.4442 -0.3743 -0.4781
16551SOL    HW250817   6.557   1.956   0.831 -0.8235  0.3165 -0.3993
16552SOL     OW50818   6.622   8.503   6.546 -0.5571 -0.1941  0.1142
16552SOL    HW150819   6.659   8.586   6.578 -0.4962  0.1541 -0.8189
16552SOL    HW250820   6.585   8.526   6.461 -0.8780 -1.0517  0.0215
16553SOL     OW50821   5.816   7.286   8.390 -0.1835 -0.1736  0.6453
16553SOL    HW150822   5.756   7.357   8.411 -1.2938 -1.1652  0.9432
16553SOL    HW250823   5.805   7.271   8.296 -1.2777 -1.1037  0.9039
16554SOL     OW50824   6.618   8.633   3.124  0.4849 -0.0970 -0.4850
16554SOL    HW150825   6.680   8.582   3.176 -0.0057 -0.4134 -0.2088
16554SOL    HW250826   6.567   8.568   3.077  1.0540  0.1914 -1.5306
16555SOL     OW50827   6.934   5.569   4.226 -0.3266 -0.1592 -0.2937
16555SOL    HW150828   6.894   5.564   4.313  0.2600 -2.8122 -0.0721
16555SOL    HW250829   6.862   5.591   4.168 -1.3199 -0.9648  0.5763
16556SOL     OW50830   4.104   6.283   1.183  0.2094  0.7581 -0.9769
16556SOL    HW150831   4.176   6.324   1.135 -0.3380  0.6088 -1.9450
16556SOL    HW250832   4.083   6.346   1.252  0.9987  0.9800 -0.9282
16557SOL     OW50833   3.387   1.279   7.139  0.0029  0.2112 -0.1199
16557SOL    HW150834   3.410   1.298   7.230  0.5965  0.4776 -0.3149
16557SOL    HW250835   3.450   1.331   7.087 -1.2233  1.1599 -0.6970
16558SOL     OW50836   5.114   2.144   1.229 -0.1712 -1.0915  0.0282
16558SOL    HW150837   5.189   2.179   1.181 -0.9786 -1.0562 -1.2433
16558SOL    HW250838   5.079   2.075   1.172 -0.5417 -1.7726  1.0411
16559SOL     OW50839   3.282   0.117   5.985  0.0140  0.3084  0.4312
16559SOL    HW150840   3.224   0.075   6.048 -1.9206 -0.4374 -1.7244
16559SOL    HW250841   3.329   0.045   5.943  1.1576  0.7789  0.8665
16560SOL     OW50842   8.732   1.142   4.146 -0.1014 -0.3548  0.3101
16560SOL    HW150843   8.732   1.047   4.155 -0.1824 -0.2792  1.1982
16560SOL    HW250844   8.668   1.160   4.076 -0.3479 -0.9320  0.3852
16561SOL     OW50845   6.586   7.350   5.523 -0.0482  0.3810 -0.4269
16561SOL    HW150846   6.566   7.376   5.613  0.1514 -0.7409 -0.0363
16561SOL    HW250847   6.674   7.313   5.527  0.8328  2.2282 -1.5009
16562SOL     OW50848   2.436   3.688   4.427 -0.0719 -0.4297 -0.9547
16562SOL    HW150849   2.474   3.606   4.395  0.2507 -0.6175 -0.1375
16562SOL    HW250850   2.496   3.715   4.496 -0.0156  0.6563 -1.4193
16563SOL     OW50851   1.258   0.968   2.485  0.1249 -0.0116 -0.3240
16563SOL    HW150852   1.237   0.881   2.451 -0.6220  0.0923 -0.1524
16563SOL    HW250853   1.262   0.956   2.580  0.0164  0.1401 -0.3000
16564SOL     OW50854   5.150   2.807   3.896  0.4351 -0.4690  0.1012
16564SOL    HW150855   5.112   2.724   3.866  0.0668  0.1293 -1.1311
16564SOL    HW250856   5.244   2.799   3.875  0.1403  0.0616 -1.5792
16565SOL     OW50857   4.752   2.619   5.665  0.1893 -0.0293  0.1673
16565SOL    HW150858   4.659   2.614   5.689  0.3763 -0.0003  0.9232
16565SOL    HW250859   4.793   2.666   5.738  0.6794  0.6192 -0.5138
16566SOL     OW50860   8.528   6.312   6.050 -0.2646  0.1685  0.1746
16566SOL    HW150861   8.524   6.268   6.135  1.5848 -0.9361 -0.2378
16566SOL    HW250862   8.487   6.251   5.989  1.1654 -0.4897 -0.1862
16567SOL     OW50863   4.897   0.681   8.599 -0.9661  0.2970  0.5977
16567SOL    HW150864   4.933   0.762   8.563 -0.2479 -0.7538 -1.1654
16567SOL    HW250865   4.907   0.690   8.693  1.7032  1.0806  0.3150
16568SOL     OW50866   5.125   0.264   4.122  0.1500 -0.2322  0.1978
16568SOL    HW150867   5.178   0.185   4.114 -0.9718 -1.0012  0.0753
16568SOL    HW250868   5.133   0.308   4.037  0.0699 -0.6865 -0.0457
16569SOL     OW50869   0.636   1.327   6.618 -0.0532  0.2260 -0.5419
16569SOL    HW150870   0.725   1.363   6.618  0.1622 -0.1623  1.4624
16569SOL    HW250871   0.645   1.243   6.573  0.2684  0.8579 -1.6910
16570SOL     OW50872   6.367   8.711   3.978  0.0592  0.1630 -1.1118
16570SOL    HW150873   6.308   8.775   4.017  1.9033  0.7888  0.8529
16570SOL    HW250874   6.451   8.756   3.971  1.3940 -1.9149  0.2191
16571SOL     OW50875   8.162   4.243   6.913  0.0155  0.0009  0.3517
16571SOL    HW150876   8.214   4.218   6.836 -1.1213 -0.7935 -0.1898
16571SOL    HW250877   8.074   4.261   6.878 -0.3368  0.3323  1.3741
16572SOL     OW50878   0.357   4.706   5.827  0.5910  0.0830  0.2034
16572SOL    HW150879   0.306   4.755   5.891  0.8358  1.1725 -0.4132
16572SOL    HW250880   0.297   4.639   5.795 -0.0152  0.4931  0.4719
16573SOL     OW50881   3.892   0.418   1.424 -0.0293  0.2229 -0.0553
16573SOL    HW150882   3.985   0.426   1.404  0.0939 -0.5684  0.1436
16573SOL    HW250883   3.859   0.507   1.421  1.0081  0.6739  1.2250
16574SOL     OW50884   7.998   0.337   2.180  0.1052 -0.0502  0.2067
16574SOL    HW150885   8.064   0.402   2.203 -0.8935  0.4722  1.8488
16574SOL    HW250886   8.045   0.253   2.179  1.2576  0.5933 -1.1929
16575SOL     OW50887   3.539   6.616   0.307  0.0365  0.4523  0.1805
16575SOL    HW150888   3.509   6.684   0.247 -1.5850 -0.3825 -0.0267
16575SOL    HW250889   3.605   6.659   0.362 -0.6241  2.0586 -0.2292
16576SOL     OW50890   1.409   7.127   5.458  0.3880  0.2892 -0.2416
16576SOL    HW150891   1.408   7.215   5.420 -0.2086 -0.9557 -3.4676
16576SOL    HW250892   1.472   7.078   5.405  1.2035 -1.1268  1.8882
16577SOL     OW50893   0.339   6.356   7.945  0.0542 -0.0043  0.2839
16577SOL    HW150894   0.354   6.262   7.932  3.0138  0.3317  0.5244
16577SOL    HW250895   0.321   6.389   7.857  0.2196 -0.6342  0.0029
16578SOL     OW50896   3.778   1.721   7.037 -0.1307 -0.0596 -0.6949
16578SOL    HW150897   3.871   1.699   7.033 -0.4321 -1.6973  0.2637
16578SOL    HW250898   3.776   1.816   7.044  1.5324 -0.0541  0.3607
16579SOL     OW50899   5.696   7.634   2.496 -0.1391 -0.2978 -0.2369
16579SOL    HW150900   5.650   7.672   2.570 -0.8194 -2.4927  0.5405
16579SOL    HW250901   5.786   7.622   2.526 -0.3460 -0.9138  0.1605
16580SOL     OW50902   2.284   4.465   6.640 -0.2023  0.9849  0.4973
16580SOL    HW150903   2.300   4.476   6.734  1.0186  0.0914  0.4053
16580SOL    HW250904   2.344   4.396   6.612  0.0915  1.8391 -1.1310
16581SOL     OW50905   3.128   2.889   5.797 -0.0370 -0.1266 -0.5146
16581SOL    HW150906   3.096   2.945   5.867  0.8762  0.6792 -0.7214
16581SOL    HW250907   3.049   2.862   5.749 -0.5077  0.8160 -0.2882
16582SOL     OW50908   4.811   8.061   5.956 -0.3016  0.6398 -0.1689
16582SOL    HW150909   4.767   8.019   6.030  0.7720  1.4901  1.0146
16582SOL    HW250910   4.889   8.102   5.995  0.4912  0.8175 -1.8430
16583SOL     OW50911   7.067   8.744   3.687 -0.0263  0.3662 -0.0189
16583SOL    HW150912   7.145   8.777   3.733 -0.7643  0.1261  1.4549
16583SOL    HW250913   7.008   8.819   3.683 -0.2482  0.1956  0.0436
16584SOL     OW50914   7.747   6.048   0.116 -0.6073  0.5769  0.3904
16584SOL    HW150915   7.785   6.028   0.202 -2.5809  2.2338  1.7472
16584SOL    HW250916   7.654   6.024   0.125 -0.3910 -1.8943 -2.2778
16585SOL     OW50917   1.173   3.665   4.376 -0.3544  0.0280 -0.3053
16585SOL    HW150918   1.089   3.625   4.398  0.0134 -1.1970 -1.0270
16585SOL    HW250919   1.238   3.600   4.403  0.2946  0.4635 -0.7854
16586SOL     OW50920   8.273   4.580   5.232 -0.1328  0.2357 -0.2748
16586SOL    HW150921   8.180   4.561   5.247  0.1148 -0.2976  0.6598
16586SOL    HW250922   8.286   4.564   5.138 -0.3855 -2.3950  0.0667
16587SOL     OW50923   0.786   7.245   0.582 -0.7261 -0.0504 -0.3373
16587SOL    HW150924   0.811   7.153   0.570 -0.6656  0.0319 -0.8718
16587SOL    HW250925   0.805   7.263   0.674  1.8303  0.1850 -0.8269
16588SOL     OW50926   7.855   1.381   2.610 -0.3303 -0.2160  0.4566
16588SOL    HW150927   7.802   1.457   2.633 -0.2147  0.2567 -0.7632
16588SOL    HW250928   7.793   1.317   2.575 -0.3875 -0.5759  1.1991
16589SOL     OW50929   0.756   5.108   3.373 -0.2257  0.2007 -0.4642
16589SOL    HW150930   0.699   5.114   3.449  1.2265  0.3116  0.6503
16589SOL    HW250931   0.696   5.088   3.300 -1.4985 -1.1620  0.8837
16590SOL     OW50932   5.782   0.154   4.057 -0.3910  0.3468  0.3080
16590SOL    HW150933   5.700   0.128   4.014  0.5207  0.6178 -1.6660
16590SOL    HW250934   5.830   0.071   4.069 -1.1843  0.0850  2.1270
16591SOL     OW50935   6.124   1.941   2.490 -0.1867 -0.6871  0.2722
16591SOL    HW150936   6.028   1.943   2.484 -0.2923  2.8776  1.3359
16591SOL    HW250937   6.154   1.999   2.420  1.2302 -1.4473  0.2053
16592SOL     OW50938   6.144   8.614   7.151  0.3378  0.6399 -0.3908
16592SOL    HW150939   6.125   8.522   7.133  0.3169  0.6623 -0.4849
16592SOL    HW250940   6.126   8.625   7.245  2.6249 -0.0445  0.2122
16593SOL     OW50941   0.953   4.062   7.445  0.0352  0.2134  0.2540
16593SOL    HW150942   1.048   4.076   7.453 -0.1033  1.2779  0.1861
16593SOL    HW250943   0.919   4.073   7.534 -0.1529  0.9573  0.0968
16594SOL     OW50944   4.584   5.785   3.608 -0.4622 -0.0606  0.4218
16594SOL    HW150945   4.589   5.814   3.517 -0.5554  0.7025  0.6510
16594SOL    HW250946   4.596   5.690   3.604 -1.8145 -0.2193 -0.5154
16595SOL     OW50947   0.650   7.655   4.039  0.1284  0.0164 -0.2364
16595SOL    HW150948   0.635   7.749   4.052 -1.5477 -0.2165 -0.2216
16595SOL    HW250949   0.586   7.613   4.097  0.8853 -1.1454 -0.2107
16596SOL     OW50950   7.016   8.003   2.978 -0.7760 -0.2247 -0.1574
16596SOL    HW150951   6.954   8.011   2.906 -2.4360  1.0482  1.3491
16596SOL    HW250952   6.971   7.950   3.043  0.4640 -0.8521  0.2150
16597SOL     OW50953   8.193   7.111   4.285  0.6268 -0.5815 -0.1474
16597SOL    HW150954   8.131   7.038   4.287 -1.0478  0.8273  1.2409
16597SOL    HW250955   8.151   7.181   4.334  2.6893  0.9617 -0.4384
16598SOL     OW50956   2.028   8.347   2.631  0.5487  0.6447 -0.2515
16598SOL    HW150957   2.024   8.288   2.555 -0.4764  2.1946 -1.4620
16598SOL    HW250958   2.121   8.370   2.638  0.5457  1.1568 -1.5990
16599SOL     OW50959   4.974   6.683   5.902  0.1516  0.4347  0.0809
16599SOL    HW150960   4.896   6.668   5.954  1.3372 -2.3610  1.1866
16599SOL    HW250961   5.018   6.757   5.945 -0.8997  0.8107  0.5428
16600SOL     OW50962   2.630   8.509   5.591  0.1091 -0.2476 -0.2038
16600SOL    HW150963   2.616   8.568   5.664 -1.2614  0.6947 -1.1742
16600SOL    HW250964   2.559   8.528   5.530 -1.2877 -3.8600  0.0218
16601SOL     OW50965   6.511   2.881   2.975 -0.4424 -0.7272 -0.1573
16601SOL    HW150966   6.462   2.838   3.045 -1.5618 -2.4889 -1.9132
16601SOL    HW250967   6.603   2.874   3.002 -0.7443 -2.5588  0.5407
16602SOL     OW50968   3.292   1.979   1.656 -0.5589  0.1712 -0.2333
16602SOL    HW150969   3.369   2.011   1.611  1.3563 -1.9389  1.2842
16602SOL    HW250970   3.240   1.936   1.588  0.3087  0.4105 -1.0682
16603SOL     OW50971   4.215   7.354   4.260  0.6256 -0.1585  0.4915
16603SOL    HW150972   4.120   7.351   4.273  0.7183 -1.6532  1.0379
16603SOL    HW250973   4.234   7.446   4.240 -0.7606  0.4129  1.6705
16604SOL     OW50974   6.296   2.008   1.443  0.3362  0.5004  0.2147
16604SOL    HW150975   6.229   2.048   1.389  1.6932  1.5318 -0.7638
16604SOL    HW250976   6.247   1.963   1.513 -1.3413  1.1546 -0.4952
16605SOL     OW50977   5.250   1.898   6.454 -0.4316 -0.6656 -0.2073
16605SOL    HW150978   5.340   1.930   6.453 -0.1894 -1.3448 -0.4244
16605SOL    HW250979   5.252   1.822   6.512 -1.0249 -0.2469  0.3858
16606SOL     OW50980   8.293   0.620   6.345  0.5511 -0.1464  0.3113
16606SOL    HW150981   8.258   0.645   6.259 -1.1388 -0.9239  0.7257
16606SOL    HW250982   8.247   0.678   6.407  0.6217 -0.6262  0.8196
16607SOL     OW50983   7.712   8.611   1.981 -0.5372 -0.3306  0.0820
16607SOL    HW150984   7.711   8.655   2.066 -1.0371 -1.3528  0.6155
16607SOL    HW250985   7.784   8.654   1.934  0.9407 -0.9487  1.6511
16608SOL     OW50986   2.883   8.767   5.391  0.1279 -0.5856  0.3243
16608SOL    HW150987   2.882   8.750   5.297 -2.0467 -5.0212  0.8600
16608SOL    HW250988   2.968   8.732   5.420  1.0467  1.3008  0.0500
16609SOL     OW50989   1.132   1.214   7.580 -0.0144  0.3633  0.6974
16609SOL    HW150990   1.211   1.174   7.544 -0.7066 -1.3723  1.0151
16609SOL    HW250991   1.155   1.306   7.594  1.5965  0.1152 -0.1998
16610SOL     OW50992   3.132   4.529   5.306  0.2404  0.3761  0.1685
16610SOL    HW150993   3.202   4.465   5.322  0.0395 -0.1991 -1.1026
16610SOL    HW250994   3.063   4.504   5.368  0.5142 -0.0767  0.2996
16611SOL     OW50995   4.124   3.242   1.084  0.2110 -0.4616 -0.4537
16611SOL    HW150996   4.032   3.243   1.060 -0.2630 -0.2985  1.2515
16611SOL    HW250997   4.154   3.332   1.068 -0.3468 -0.1018  0.4390
16612SOL     OW50998   7.430   0.479   0.079  0.2440  0.6241  0.1463
16612SOL    HW150999   7.517   0.512   0.057  0.0765  1.1793  0.3013
16612SOL    HW251000   7.440   0.444   0.168  0.5235 -0.1295 -0.1784
16613SOL     OW51001   5.289   2.005   4.679 -0.3035 -0.0629 -0.3807
16613SOL    HW151002   5.249   2.088   4.651 -0.8377 -0.0386  0.4447
16613SOL    HW251003   5.378   2.029   4.705 -0.5779  0.3150  0.2143
16614SOL     OW51004   0.655   0.076   5.274 -0.0501 -0.3393  0.4333
16614SOL    HW151005   0.740   0.117   5.288 -0.2236  0.0878  0.2623
16614SOL    HW251006   0.596   0.149   5.254 -0.8394 -0.4183  2.2321
16615SOL     OW51007   8.177   1.642   5.422  0.4441  0.4823 -0.4165
16615SOL    HW151008   8.129   1.720   5.392 -0.7144 -0.6464 -1.6345
16615SOL    HW251009   8.123   1.607   5.493  1.5388  1.3616  0.9005
16616SOL     OW51010   0.948   6.240   3.253  0.4150  0.3673 -0.6975
16616SOL    HW151011   0.926   6.166   3.196  0.6923 -0.5123  0.2884
16616SOL    HW251012   1.014   6.205   3.312 -0.4780  0.9659  0.7173
16617SOL     OW51013   1.954   0.515   0.598  0.4746  0.1161  0.3891
16617SOL    HW151014   1.891   0.514   0.526  0.2895 -4.4454  0.3038
16617SOL    HW251015   1.901   0.522   0.677  0.1158 -0.4356  0.2062
16618SOL     OW51016   3.401   6.034   6.022 -0.0904  0.3139  0.2319
16618SOL    HW151017   3.489   6.044   5.985  0.4414 -0.3275  1.2650
16618SOL    HW251018   3.385   6.117   6.067  0.6151 -0.0969  1.2805
16619SOL     OW51019   5.815   7.507   6.549 -0.3699  0.1658  0.1187
16619SOL    HW151020   5.733   7.522   6.596 -0.0912 -0.4435  0.8141
16619SOL    HW251021   5.789   7.456   6.472 -0.4863 -1.1905  1.0290
16620SOL     OW51022   0.265   1.844   8.427 -0.6909  0.0186  0.2563
16620SOL    HW151023   0.176   1.812   8.444 -0.5068 -0.4862  0.2839
16620SOL    HW251024   0.274   1.922   8.482 -1.1105  0.0631  0.2621
16621SOL     OW51025   1.029   3.876   6.071  0.3689 -0.3069 -0.4962
16621SOL    HW151026   0.964   3.882   6.141 -0.7270  0.0105 -1.4939
16621SOL    HW251027   1.098   3.936   6.097  0.0628 -0.3140  0.3799
16622SOL     OW51028   6.313   2.747   8.279  0.3842 -0.4565  0.7214
16622SOL    HW151029   6.257   2.789   8.344 -0.1812 -0.6783  0.3895
16622SOL    HW251030   6.376   2.697   8.331  1.2665  1.0200  1.1240
16623SOL     OW51031   6.848   0.652   2.441 -0.2923  0.3709  0.1871
16623SOL    HW151032   6.824   0.710   2.369 -0.2014 -0.2453 -0.3405
16623SOL    HW251033   6.907   0.588   2.402 -0.7604 -0.3608  0.6656
16624SOL     OW51034   8.750   7.941   4.943  0.3232  0.0715  0.2077
16624SOL    HW151035   8.715   7.859   4.976  0.8504  0.5962  2.1690
16624SOL    HW251036   8.719   7.945   4.852 -2.3994 -0.7932  0.9929
16625SOL     OW51037   1.985   7.191   8.317  0.6524  0.3832 -0.3890
16625SOL    HW151038   2.065   7.138   8.313  0.9778  0.9465 -2.4332
16625SOL    HW251039   2.001   7.264   8.257 -0.8127  1.3723  0.3559
16626SOL     OW51040   7.994   4.672   1.196  0.3551  0.5870 -0.2390
16626SOL    HW151041   8.040   4.610   1.140 -0.8349  0.1074 -0.7191
16626SOL    HW251042   7.973   4.622   1.275  0.6460  0.7986 -0.0275
16627SOL     OW51043   3.439   6.970   6.298  0.5435  0.1556 -0.1776
16627SOL    HW151044   3.383   7.003   6.228 -0.1442 -2.4604 -0.9809
16627SOL    HW251045   3.419   7.026   6.373 -2.0636  0.2770 -0.8597
16628SOL     OW51046   2.801   7.134   2.795 -0.4666 -0.2735 -0.2514
16628SOL    HW151047   2.848   7.193   2.736  1.9986  1.0383  2.7414
16628SOL    HW251048   2.847   7.051   2.789 -1.3327 -0.7056 -1.3711
16629SOL     OW51049   0.164   5.993   1.234 -0.0851  0.0864  0.4916
16629SOL    HW151050   0.107   5.925   1.199  0.2312 -0.0599  0.2548
16629SOL    HW251051   0.199   5.955   1.315 -0.7320  0.3828  0.9246
16630SOL     OW51052   1.126   5.604   8.763 -0.1620 -0.5175  0.6205
16630SOL    HW151053   1.070   5.536   8.727  0.3633 -0.5856 -0.1033
16630SOL    HW251054   1.127   5.587   8.857  0.2396 -1.7392  0.4203
16631SOL     OW51055   7.029   4.244   6.319  0.5647 -0.1481  0.0329
16631SOL    HW151056   7.051   4.269   6.229  2.0575 -0.9347  0.1402
16631SOL    HW251057   6.992   4.323   6.358 -1.7043 -0.2417 -1.7256
16632SOL     OW51058   6.153   4.588   4.863  0.3004 -0.1919  0.3837
16632SOL    HW151059   6.167   4.581   4.958  1.1008 -1.1736  0.1995
16632SOL    HW251060   6.216   4.654   4.834 -1.1230  1.4111  0.7664
16633SOL     OW51061   2.913   0.890   0.193  0.3265 -0.0607  0.3143
16633SOL    HW151062   2.842   0.928   0.244  0.4938  0.7202 -0.0191
16633SOL    HW251063   2.957   0.831   0.253 -1.9055 -2.2840 -0.0482
16634SOL     OW51064   1.541   8.375   4.757  0.2388 -0.1787 -0.7386
16634SOL    HW151065   1.560   8.282   4.746  1.9330  0.0354  0.0702
16634SOL    HW251066   1.569   8.416   4.675 -0.1967 -0.3338 -0.9665
16635SOL     OW51067   1.151   2.715   4.708 -0.7520 -0.0145 -0.5025
16635SOL    HW151068   1.141   2.774   4.783 -1.4340 -0.0178 -0.5821
16635SOL    HW251069   1.183   2.771   4.637  2.4423 -0.4718  0.4341
16636SOL     OW51070   8.189   6.775   7.757  0.2239 -0.0187 -0.5158
16636SOL    HW151071   8.135   6.778   7.835 -1.0114 -0.9532 -1.2851
16636SOL    HW251072   8.267   6.726   7.783  0.4251  0.7846  0.4409
16637SOL     OW51073   1.648   8.089   2.564  0.0975  0.8451 -0.1196
16637SOL    HW151074   1.600   8.007   2.553  0.2698  0.8153 -0.6634
16637SOL    HW251075   1.676   8.088   2.655 -1.3829  1.1093  0.3788
16638SOL     OW51076   3.414   1.723   5.403  1.1613 -0.4451 -0.0588
16638SOL    HW151077   3.384   1.672   5.328  2.1324  0.6140 -1.1960
16638SOL    HW251078   3.429   1.811   5.369 -0.8953  0.7967  1.9391
16639SOL     OW51079   6.264   6.118   4.418 -0.3473  0.1031 -0.0400
16639SOL    HW151080   6.275   6.178   4.492  0.0522  0.4621 -0.3848
16639SOL    HW251081   6.199   6.161   4.362 -2.5413 -1.2999  1.2502
16640SOL     OW51082   4.098   1.404   2.083 -0.6433  0.0404 -0.3894
16640SOL    HW151083   4.152   1.329   2.106 -1.9685 -1.2534 -1.3639
16640SOL    HW251084   4.033   1.410   2.154 -0.1849  0.6624 -0.0057
16641SOL     OW51085   1.124   5.612   1.316 -0.4164 -0.1593 -0.0999
16641SOL    HW151086   1.150   5.694   1.275 -0.4723 -0.3153 -0.4590
16641SOL    HW251087   1.099   5.556   1.242  0.8076 -0.9194  0.0180
16642SOL     OW51088   5.299   3.500   1.933  0.8350 -0.3743 -0.2635
16642SOL    HW151089   5.281   3.577   1.986  0.6832 -0.6099  0.0300
16642SOL    HW251090   5.389   3.476   1.954  1.4935  0.7394 -1.6489
16643SOL     OW51091   6.508   8.379   3.870  0.1442  0.1161 -0.9651
16643SOL    HW151092   6.489   8.450   3.808 -2.9504  0.7108  0.5150
16643SOL    HW251093   6.441   8.313   3.853 -0.4163  0.0230  1.3024
16644SOL     OW51094   7.170   5.951   3.122  0.1513  0.1316 -0.0730
16644SOL    HW151095   7.246   5.955   3.065  0.5216  1.6571  0.4794
16644SOL    HW251096   7.197   5.894   3.194  0.2121 -0.5641 -0.6367
16645SOL     OW51097   6.379   8.235   5.959  0.0830  0.4530 -0.0049
16645SOL    HW151098   6.322   8.217   5.884 -1.1422  2.8965  0.2666
16645SOL    HW251099   6.423   8.317   5.936  0.2801  0.8207  1.6098
16646SOL     OW51100   3.521   6.347   3.876 -0.1000 -0.4632  0.1374
16646SOL    HW151101   3.495   6.290   3.804 -0.1282 -0.4920  0.1703
16646SOL    HW251102   3.537   6.287   3.949 -0.5019 -0.3980  0.2808
16647SOL     OW51103   1.123   1.876   7.551  0.1166  0.8969 -0.2426
16647SOL    HW151104   1.115   1.848   7.460 -1.3813 -2.2769  0.6859
16647SOL    HW251105   1.116   1.971   7.549 -1.5806  0.8097 -3.2879
16648SOL     OW51106   7.485   8.762   2.492 -0.0165 -0.5452 -0.2587
16648SOL    HW151107   7.532   8.808   2.562 -1.7898 -0.3244  0.8546
16648SOL    HW251108   7.408   8.817   2.474 -1.0938 -2.0196 -0.3516
16649SOL     OW51109   5.716   7.011   4.371  0.1430 -0.0559 -0.6713
16649SOL    HW151110   5.727   7.016   4.276 -1.0318 -1.6879 -0.9241
16649SOL    HW251111   5.640   6.954   4.384  1.9152 -2.1548  1.2922
16650SOL     OW51112   7.572   3.430   3.368  0.5224 -0.2683  0.5643
16650SOL    HW151113   7.613   3.363   3.314 -0.2365  0.0800 -0.4797
16650SOL    HW251114   7.629   3.507   3.360  0.7292 -0.4014  0.7509
16651SOL     OW51115   6.097   7.236   1.379  0.4858  0.1519  0.4498
16651SOL    HW151116   6.024   7.208   1.324  0.9575 -0.8013  0.2794
16651SOL    HW251117   6.098   7.331   1.372  0.7138  0.0460 -1.4688
16652SOL     OW51118   7.984   5.149   5.096  0.0640 -0.1323 -0.8359
16652SOL    HW151119   7.984   5.240   5.069  0.0781  0.4328  0.9260
16652SOL    HW251120   8.056   5.143   5.159 -1.1420 -0.8787  0.5233
16653SOL     OW51121   3.164   3.216   5.093 -0.4787 -0.1781 -0.1551
16653SOL    HW151122   3.165   3.276   5.168  0.4024 -0.7420  0.3104
16653SOL    HW251123   3.192   3.132   5.130  2.0627 -0.0129 -1.4642
16654SOL     OW51124   8.709   7.662   5.820  0.2681 -0.2306  0.0925
16654SOL    HW151125   8.620   7.677   5.789  0.1262  1.2687  1.1575
16654SOL    HW251126   8.698   7.615   5.903  0.5551 -1.4208 -0.5095
16655SOL     OW51127   8.758   0.792   7.051  0.1120 -0.1616 -0.7958
16655SOL    HW151128   8.851   0.810   7.047  0.7483 -2.2340  1.8292
16655SOL    HW251129   8.739   0.743   6.970  1.0990  0.8283 -1.6524
16656SOL     OW51130   3.359   8.221   7.171  0.2227  0.4232  0.4366
16656SOL    HW151131   3.419   8.212   7.245  1.0640 -0.8038 -0.3596
16656SOL    HW251132   3.413   8.256   7.101 -0.2671  0.3779  0.0329
16657SOL     OW51133   0.164   5.946   3.989 -0.4812 -0.1946 -0.2022
16657SOL    HW151134   0.227   5.985   4.050 -1.0088  0.3894 -0.0123
16657SOL    HW251135   0.080   5.982   4.017 -0.8870 -0.8852 -0.5138
16658SOL     OW51136   3.830   5.338   4.784  0.6876 -0.1508  0.0082
16658SOL    HW151137   3.816   5.383   4.701 -0.8949 -1.6873 -0.6013
16658SOL    HW251138   3.925   5.338   4.795  0.8127  1.8186 -0.7874
16659SOL     OW51139   1.642   7.636   1.530 -0.5647 -0.3029  0.3573
16659SOL    HW151140   1.698   7.692   1.584  2.1382 -3.2666  0.9249
16659SOL    HW251141   1.587   7.697   1.481  1.1232  2.7258  1.9326
16660SOL     OW51142   7.747   4.684   2.832 -0.2689  0.4886 -0.2828
16660SOL    HW151143   7.654   4.706   2.840 -0.2876  0.3139  0.0337
16660SOL    HW251144   7.789   4.764   2.802 -0.5473  0.5200 -0.5935
16661SOL     OW51145   6.333   5.888   1.325 -0.9872 -0.1451 -0.1277
16661SOL    HW151146   6.273   5.958   1.352 -0.9565 -0.3177  0.4022
16661SOL    HW251147   6.374   5.859   1.407 -0.9069 -0.6990 -0.3622
16662SOL     OW51148   8.070   7.734   5.554  0.1686 -0.6833  0.0188
16662SOL    HW151149   8.044   7.742   5.645  1.7908  0.5117  0.4256
16662SOL    HW251150   8.138   7.666   5.554  0.2495 -0.6046 -0.2714
16663SOL     OW51151   1.090   5.104   4.616  0.0746 -0.1766  0.0787
16663SOL    HW151152   1.086   5.193   4.580  0.4751  0.0962  0.6820
16663SOL    HW251153   1.103   5.048   4.540  0.5561  0.3503 -0.2374
16664SOL     OW51154   3.349   3.916   1.663  0.4288 -0.1500  0.1569
16664SOL    HW151155   3.425   3.864   1.687  2.3282  0.5235 -3.6596
16664SOL    HW251156   3.385   4.000   1.633 -1.9546  0.8122 -0.2454
16665SOL     OW51157   4.180   7.800   2.348  0.5198  0.3660 -0.4491
16665SOL    HW151158   4.152   7.732   2.410 -0.8792  0.9893 -0.3603
16665SOL    HW251159   4.214   7.870   2.404 -1.0851  1.0820 -0.3376
16666SOL     OW51160   2.668   0.057   5.721  0.2488  0.2897 -0.0946
16666SOL    HW151161   2.656   0.031   5.630 -1.4214  0.6354 -0.0161
16666SOL    HW251162   2.621  -0.011   5.771 -1.2497  1.5456  0.3096
16667SOL     OW51163   6.073   2.449   4.031 -0.2067 -0.3995 -0.4493
16667SOL    HW151164   6.041   2.364   4.063  0.0204 -0.5081 -0.5113
16667SOL    HW251165   6.108   2.431   3.944  3.2963 -1.0402  0.9110
16668SOL     OW51166   8.381   5.448   4.039  0.0069 -0.3284  0.3104
16668SOL    HW151167   8.368   5.396   3.960  0.6552  0.1763 -0.1438
16668SOL    HW251168   8.434   5.522   4.010 -1.8231  1.1974  0.7089
16669SOL     OW51169   6.655   8.049   6.032  0.0039  0.0530  0.2346
16669SOL    HW151170   6.647   8.056   5.936  0.1528 -1.0341  0.1362
16669SOL    HW251171   6.743   8.014   6.045 -0.1210 -0.0546  0.7701
16670SOL     OW51172   7.882   2.206   1.198 -0.1537 -0.5595  0.1033
16670SOL    HW151173   7.829   2.259   1.139 -0.9904 -1.3610  0.1319
16670SOL    HW251174   7.948   2.166   1.141 -0.9879 -1.3719 -0.3150
16671SOL     OW51175   6.942   6.621   0.704  0.9645 -0.1545 -0.0765
16671SOL    HW151176   6.954   6.700   0.652  1.7605  0.3389  0.8199
16671SOL    HW251177   6.855   6.589   0.681  1.6369 -0.5041 -2.4223
16672SOL     OW51178   3.667   6.333   6.710 -0.3506 -0.2933 -0.4732
16672SOL    HW151179   3.666   6.275   6.634 -1.1390 -0.2115 -0.5334
16672SOL    HW251180   3.591   6.390   6.698 -1.0257 -0.8798  0.8166
16673SOL     OW51181   8.145   0.134   5.899 -1.0523 -0.7653 -0.3493
16673SOL    HW151182   8.116   0.075   5.969  0.4557 -2.0561 -0.7457
16673SOL    HW251183   8.105   0.218   5.920 -2.0731 -1.5699  1.0725
16674SOL     OW51184   8.362   1.761   6.734  0.2449 -0.3810  0.0540
16674SOL    HW151185   8.329   1.696   6.797  1.7521 -1.1066  0.1440
16674SOL    HW251186   8.293   1.768   6.668 -0.9181 -0.3847  1.2169
16675SOL     OW51187   2.067   6.777   8.017  0.0546  0.0185 -0.8170
16675SOL    HW151188   2.150   6.757   7.973 -0.4675 -0.2345 -1.7298
16675SOL    HW251189   2.020   6.693   8.019 -0.8848  0.4907 -1.8978
16676SOL     OW51190   4.367   4.213   6.620 -0.0773 -0.3755 -0.3842
16676SOL    HW151191   4.345   4.198   6.528 -1.8550  2.4482 -0.5582
16676SOL    HW251192   4.282   4.224   6.663  0.7517  1.6210  0.8937
16677SOL     OW51193   2.640   2.394   1.781  0.0218 -0.0353  0.5859
16677SOL    HW151194   2.638   2.371   1.874 -1.8531 -1.0180  0.3489
16677SOL    HW251195   2.571   2.340   1.742 -0.6380  1.8843 -1.0236
16678SOL     OW51196   0.808   4.956   3.097 -0.2921 -0.1281  0.6330
16678SOL    HW151197   0.858   4.997   3.168  0.9577  0.8235 -0.7257
16678SOL    HW251198   0.782   4.871   3.132  0.5127  0.2021  2.1257
16679SOL     OW51199   5.835   2.145   8.682  0.0210 -0.0093 -0.2388
16679SOL    HW151200   5.883   2.070   8.719  0.1580  0.5539  0.7587
16679SOL    HW251201   5.898   2.217   8.685 -0.3245  0.3081 -0.5764
16680SOL     OW51202   1.073   5.885   5.098 -0.6144 -0.3891  0.0858
16680SOL    HW151203   1.145   5.888   5.034 -0.5130 -0.6145  0.1880
16680SOL    HW251204   0.995   5.871   5.045 -0.5608 -0.3220 -0.0118
16681SOL     OW51205   4.195   1.917   2.555  0.0364  0.6163 -0.2333
16681SOL    HW151206   4.141   1.995   2.564 -0.2448  0.2553  1.5820
16681SOL    HW251207   4.276   1.938   2.603 -0.4332 -0.5030  1.1430
16682SOL     OW51208   0.392   6.988   8.539 -0.0077  0.7502  0.1844
16682SOL    HW151209   0.334   7.043   8.486 -0.0885  0.9382  0.4643
16682SOL    HW251210   0.477   6.996   8.496 -0.0993  0.7994  0.0090
16683SOL     OW51211   7.213   7.654   5.070  0.1258 -0.1908 -0.6065
16683SOL    HW151212   7.134   7.625   5.115  1.0016  0.9466  1.8397
16683SOL    HW251213   7.188   7.735   5.025  0.0848  0.7929  1.0913
16684SOL     OW51214   6.832   5.314   7.547 -0.2784  0.1378  0.0051
16684SOL    HW151215   6.920   5.347   7.530  0.0844 -1.2240 -0.8296
16684SOL    HW251216   6.791   5.308   7.461 -0.3235 -1.5781  0.1199
16685SOL     OW51217   1.657   5.897   7.434 -0.0203  0.3754 -0.3480
16685SOL    HW151218   1.611   5.893   7.518  1.5309 -0.8079  0.5068
16685SOL    HW251219   1.603   5.845   7.375  0.0886 -0.8358  0.5803
16686SOL     OW51220   6.392   2.539   8.672 -0.2385 -0.6548  0.1767
16686SOL    HW151221   6.401   2.633   8.662  0.1549 -0.3677  2.5940
16686SOL    HW251222   6.481   2.507   8.685 -0.5636 -0.9528  1.9540
16687SOL     OW51223   2.577   8.226   8.725 -0.2322  0.3068 -0.1133
16687SOL    HW151224   2.588   8.134   8.749 -0.6666  0.3588  0.3263
16687SOL    HW251225   2.496   8.252   8.770 -0.3326  0.7889 -0.5679
16688SOL     OW51226   3.197   4.860   1.223 -0.0029 -0.3869  0.0073
16688SOL    HW151227   3.168   4.769   1.217  0.3404 -0.4529 -0.7419
16688SOL    HW251228   3.139   4.907   1.163  0.7362 -0.3536 -0.7055
16689SOL     OW51229   5.257   1.369   8.797  0.1361  0.2333 -0.2837
16689SOL    HW151230   5.185   1.377   8.734 -0.5516  0.7258  0.5499
16689SOL    HW251231   5.220   1.323   8.872  0.8143  0.0784 -0.0325
16690SOL     OW51232   5.557   5.766   1.594 -0.1473  0.3260 -0.6824
16690SOL    HW151233   5.549   5.823   1.518  2.8820 -0.6364 -1.8700
16690SOL    HW251234   5.533   5.679   1.561 -1.6200  0.3241  0.2884
16691SOL     OW51235   3.986   6.161   7.744 -0.1398  0.0281 -0.7609
16691SOL    HW151236   4.038   6.233   7.779 -0.9271 -0.3467  1.3202
16691SOL    HW251237   3.896   6.191   7.752 -0.3885  0.9279 -4.8948
16692SOL     OW51238   7.998   4.019   6.972 -0.5825  0.6577  0.1348
16692SOL    HW151239   7.950   4.095   7.004 -0.6687  0.7479 -0.2032
16692SOL    HW251240   8.089   4.048   6.966 -0.4898  0.4960  0.7477
16693SOL     OW51241   3.639   1.708   3.397  0.1117  0.2589  0.4337
16693SOL    HW151242   3.607   1.622   3.368  0.2946 -0.6121  2.6054
16693SOL    HW251243   3.734   1.702   3.388  0.0807  0.5191 -0.1010
16694SOL     OW51244   6.281   4.800   1.983 -0.4056  0.0647 -0.2658
16694SOL    HW151245   6.305   4.763   2.069 -4.0894  0.2465  1.0145
16694SOL    HW251246   6.234   4.880   2.004 -4.0887 -1.4025 -2.1454
16695SOL     OW51247   7.529   6.293   0.997  0.1181 -0.0733 -0.2359
16695SOL    HW151248   7.618   6.295   0.961 -0.3411  0.1775 -1.3928
16695SOL    HW251249   7.524   6.209   1.043  1.0035 -0.0113  0.0069
16696SOL     OW51250   4.708   6.243   8.001  0.0564  0.2213 -0.4126
16696SOL    HW151251   4.650   6.188   7.948 -1.8692  1.3442  0.4402
16696SOL    HW251252   4.662   6.252   8.085  1.7309  0.7352  0.4839
16697SOL     OW51253   1.207   0.999   6.302 -0.1166 -0.2775 -0.3566
16697SOL    HW151254   1.159   0.949   6.369 -0.3492  0.1081 -0.2302
16697SOL    HW251255   1.295   0.961   6.302 -0.1289 -0.3168  0.1401
16698SOL     OW51256   2.063   5.454   5.951 -0.6584  0.2443  0.1296
16698SOL    HW151257   2.004   5.418   5.885 -1.0652  0.5738  0.3051
16698SOL    HW251258   2.053   5.397   6.026 -1.5275  0.8718  0.5115
16699SOL     OW51259   8.787   4.088   6.796 -0.2783  0.4059  0.4185
16699SOL    HW151260   8.855   4.153   6.812 -0.6030  1.0632 -0.7468
16699SOL    HW251261   8.716   4.112   6.855 -0.3078  0.9842  0.1509
16700SOL     OW51262   0.761   0.984   6.254 -0.2381 -0.3335 -0.0301
16700SOL    HW151263   0.793   0.894   6.246 -2.0349 -0.9697 -0.6971
16700SOL    HW251264   0.767   1.019   6.165 -1.0748 -0.3782 -0.1144
16701SOL     OW51265   6.545   0.387   3.417  0.3455  0.0869  0.1618
16701SOL    HW151266   6.592   0.429   3.489 -0.1661 -0.0269  0.5622
16701SOL    HW251267   6.518   0.460   3.361 -0.8256  0.3289  1.0268
16702SOL     OW51268   2.575   1.877   3.462  0.1544 -0.0071  0.3755
16702SOL    HW151269   2.611   1.931   3.533 -1.4559  2.1170 -0.3344
16702SOL    HW251270   2.502   1.831   3.503 -1.2802  1.8299 -0.0245
16703SOL     OW51271   2.057   7.241   6.925 -0.2419  1.1675 -0.4430
16703SOL    HW151272   2.059   7.300   7.000  0.8210 -0.0644  0.5485
16703SOL    HW251273   1.964   7.229   6.906 -0.4877  2.7044 -0.3394
16704SOL     OW51274   1.250   4.757   3.483 -0.2086 -0.0334 -0.1618
16704SOL    HW151275   1.169   4.709   3.500 -0.5158  0.6898  0.4884
16704SOL    HW251276   1.310   4.691   3.447 -1.0700 -0.5806 -0.6235
16705SOL     OW51277   7.461   4.965   8.015 -0.7482  0.0535 -0.0670
16705SOL    HW151278   7.479   5.036   7.954 -0.2889 -1.2129 -1.4914
16705SOL    HW251279   7.546   4.927   8.034 -0.9795 -0.1034  0.7158
16706SOL     OW51280   2.613   2.525   6.204 -0.0594 -0.3549 -0.0141
16706SOL    HW151281   2.615   2.429   6.199  0.4891 -0.3224 -0.7202
16706SOL    HW251282   2.622   2.553   6.113 -2.7714  0.3746 -0.1247
16707SOL     OW51283   0.773   1.797   6.849  0.3488 -0.1105 -0.1126
16707SOL    HW151284   0.799   1.809   6.758  0.5973  1.1120  0.1066
16707SOL    HW251285   0.697   1.740   6.845  0.3638 -0.0727 -1.0861
16708SOL     OW51286   5.734   5.485   6.463 -0.4202 -0.0010  0.6660
16708SOL    HW151287   5.659   5.474   6.521 -0.2120 -1.1706  0.7410
16708SOL    HW251288   5.789   5.550   6.507 -2.2568  2.3832 -0.3361
16709SOL     OW51289   2.674   0.094   5.434 -0.1903  0.1551  0.0103
16709SOL    HW151290   2.595   0.060   5.392 -0.1875  1.0103 -0.7136
16709SOL    HW251291   2.740   0.026   5.418 -0.5318 -0.1282 -0.2158
16710SOL     OW51292   6.174   2.042   7.494  0.2936 -0.5749 -0.1078
16710SOL    HW151293   6.081   2.020   7.487  0.1669  0.2760 -1.2789
16710SOL    HW251294   6.182   2.129   7.455  1.0333  0.9057  3.0267
16711SOL     OW51295   2.808   4.356   6.539 -0.9073 -0.0111  0.2002
16711SOL    HW151296   2.827   4.286   6.476 -1.4331  1.0601 -1.1999
16711SOL    HW251297   2.798   4.311   6.623 -1.6585 -1.6708 -0.7348
16712SOL     OW51298   8.288   5.339   3.806  0.4072  0.3192 -0.0450
16712SOL    HW151299   8.260   5.253   3.774 -0.4457 -0.0349  1.5435
16712SOL    HW251300   8.346   5.372   3.737 -1.7441 -0.0964 -2.2075
16713SOL     OW51301   6.644   7.189   8.752  0.3207 -0.0983  0.0727
16713SOL    HW151302   6.730   7.159   8.721  0.6510  1.1057 -0.2048
16713SOL    HW251303   6.596   7.209   8.672  0.0212 -0.0858  0.2541
16714SOL     OW51304   1.788   6.796   0.839 -0.4678 -0.2008  0.0779
16714SOL    HW151305   1.808   6.747   0.919 -1.1327  1.6432  1.4463
16714SOL    HW251306   1.714   6.749   0.801 -1.4457 -0.0264  1.6461
16715SOL     OW51307   3.341   8.809   3.433 -0.0218  0.5182 -0.6386
16715SOL    HW151308   3.366   8.805   3.340 -1.1659 -1.0429 -0.9070
16715SOL    HW251309   3.422   8.788   3.480  0.1928 -0.2982 -1.3492
16716SOL     OW51310   7.804   3.704   1.750  0.1907 -0.6804  0.3788
16716SOL    HW151311   7.793   3.663   1.665 -1.1322 -0.8398  0.5989
16716SOL    HW251312   7.862   3.779   1.734 -1.5185  0.4090 -1.0551
16717SOL     OW51313   2.020   4.152   8.103  0.1877  0.4249 -0.0781
16717SOL    HW151314   2.027   4.116   8.014 -2.0241 -0.8852  0.1991
16717SOL    HW251315   2.005   4.245   8.089  1.5380  0.5421 -0.9832
16718SOL     OW51316   8.656   2.203   4.785  0.0681  0.2170  0.6972
16718SOL    HW151317   8.633   2.199   4.692 -0.4978 -1.5567  0.8836
16718SOL    HW251318   8.727   2.266   4.789  0.4785 -0.0828 -1.0244
16719SOL     OW51319   0.033   5.628   2.069  0.0907  0.2367 -0.5489
16719SOL    HW151320   0.012   5.705   2.016 -1.7785  1.1573  1.3805
16719SOL    HW251321   0.068   5.663   2.151 -0.1730 -0.9832  0.1115
16720SOL     OW51322   1.247   2.352   2.630  0.1209 -0.3798 -0.5824
16720SOL    HW151323   1.177   2.343   2.695 -0.7162 -0.7438 -1.5133
16720SOL    HW251324   1.311   2.409   2.673 -0.2943 -0.7899  0.6489
16721SOL     OW51325   5.713   5.508   0.729 -0.0966 -0.4387  0.1677
16721SOL    HW151326   5.765   5.497   0.649 -1.5086  0.4317 -0.9099
16721SOL    HW251327   5.708   5.603   0.742 -0.7218 -0.5393  0.7337
16722SOL     OW51328   1.729   7.819   5.359  0.2829 -0.4811 -0.9232
16722SOL    HW151329   1.806   7.776   5.320  0.9147  0.2747 -0.5311
16722SOL    HW251330   1.661   7.810   5.292  0.2415 -2.5019 -0.6743
16723SOL     OW51331   7.437   5.487   0.410 -0.5480 -0.0290 -0.3821
16723SOL    HW151332   7.429   5.545   0.486 -2.4843  1.5843 -1.7085
16723SOL    HW251333   7.503   5.528   0.355  0.0163 -0.5724 -0.1240
16724SOL     OW51334   8.365   6.059   8.135  0.1280 -0.1298  0.0942
16724SOL    HW151335   8.310   6.121   8.087  1.5098  0.3451 -0.9658
16724SOL    HW251336   8.304   5.994   8.170 -1.0496 -0.0197 -1.6107
16725SOL     OW51337   2.277   3.373   6.972  0.2676  0.3381  0.0787
16725SOL    HW151338   2.227   3.405   7.047 -1.1107 -0.7075 -0.3480
16725SOL    HW251339   2.369   3.384   6.998 -0.1745  0.7186  1.5952
16726SOL     OW51340   8.834   1.582   5.402  0.2848  0.2869 -0.1949
16726SOL    HW151341   8.901   1.536   5.453 -0.9367  0.9424  2.1184
16726SOL    HW251342   8.751   1.559   5.444 -0.8770  0.4655 -2.2433
16727SOL     OW51343   7.460   5.377   4.292 -0.5850 -0.7205 -0.4352
16727SOL    HW151344   7.452   5.388   4.387  1.7257  2.7342 -0.4395
16727SOL    HW251345   7.373   5.395   4.259 -0.6944  1.6737  0.9240
16728SOL     OW51346   2.245   6.870   3.552 -1.0056 -0.0894 -0.0497
16728SOL    HW151347   2.184   6.846   3.621 -1.1291 -0.5769 -0.3271
16728SOL    HW251348   2.277   6.787   3.518  1.6781  0.1282  1.6908
16729SOL     OW51349   8.647   8.718   0.705  0.2052 -0.2469 -0.6138
16729SOL    HW151350   8.684   8.798   0.665 -1.2887  0.5481 -0.4488
16729SOL    HW251351   8.674   8.723   0.796  0.4863 -0.1513 -0.6999
16730SOL     OW51352   1.844   5.458   1.502 -0.2275  0.2403 -0.0176
16730SOL    HW151353   1.768   5.414   1.539 -1.1945  0.1539 -1.9648
16730SOL    HW251354   1.847   5.543   1.546 -1.2400  0.1083  0.3233
16731SOL     OW51355   2.302   5.304   7.838  0.2908  0.3292 -0.4760
16731SOL    HW151356   2.370   5.372   7.834  2.9432 -1.9554  1.4919
16731SOL    HW251357   2.279   5.300   7.931 -0.0715 -1.1692 -0.6106
16732SOL     OW51358   4.207   2.361   5.075 -0.1451  0.0976 -0.2858
16732SOL    HW151359   4.277   2.417   5.108  0.2225  0.6828 -1.9638
16732SOL    HW251360   4.126   2.403   5.105  0.1775  0.0058  0.7583
16733SOL     OW51361   8.644   3.762   5.670  0.4028 -0.1245  0.4608
16733SOL    HW151362   8.732   3.784   5.639  0.6844 -0.5485  0.9527
16733SOL    HW251363   8.591   3.759   5.590  1.1422 -1.3288 -0.0136
16734SOL     OW51364   2.151   4.502   8.252 -0.7789  0.1069 -0.6961
16734SOL    HW151365   2.244   4.478   8.245 -0.5409  0.9857 -0.6890
16734SOL    HW251366   2.138   4.519   8.346 -0.5134  1.5708 -0.8912
16735SOL     OW51367   1.431   2.272   8.367  0.4029 -0.1369 -0.7908
16735SOL    HW151368   1.368   2.342   8.348  0.0946 -0.5018 -1.1414
16735SOL    HW251369   1.406   2.201   8.307  0.0482 -0.9455  0.2732
16736SOL     OW51370   0.548   8.714   2.275  0.2266 -0.9438  1.1777
16736SOL    HW151371   0.567   8.694   2.183  1.9290 -1.5023  1.6059
16736SOL    HW251372   0.477   8.778   2.272  0.6999 -0.4456 -0.5422
16737SOL     OW51373   3.327   6.792   5.828  0.0743  0.3019  0.3532
16737SOL    HW151374   3.286   6.710   5.802  0.3026 -0.0058  0.9432
16737SOL    HW251375   3.395   6.766   5.890  1.2750  0.7776 -0.7159
16738SOL     OW51376   3.215   6.943   8.162 -0.8576  0.1091 -0.0532
16738SOL    HW151377   3.191   7.033   8.184  2.8812  0.8874  1.7216
16738SOL    HW251378   3.190   6.892   8.239  0.3384  0.3855  0.5457
16739SOL     OW51379   6.950   8.715   5.311  0.1352  0.4663  0.1252
16739SOL    HW151380   6.919   8.628   5.286  0.0746 -0.1377  2.1328
16739SOL    HW251381   6.922   8.725   5.402  2.7161  1.3597  0.8933
16740SOL     OW51382   6.458   4.976   3.507 -0.0103  0.3147 -0.4184
16740SOL    HW151383   6.457   5.032   3.585  1.2275 -0.2122  0.0067
16740SOL    HW251384   6.550   4.976   3.480  0.1201 -1.9076 -0.1094
16741SOL     OW51385   8.123   3.302   7.386  0.2383  0.7779 -0.1232
16741SOL    HW151386   8.127   3.394   7.359 -2.0763  0.6539 -1.1351
16741SOL    HW251387   8.137   3.253   7.306 -0.1285  0.2672  0.1243
16742SOL     OW51388   5.132   6.414   6.799  0.1941  0.0666 -0.6026
16742SOL    HW151389   5.125   6.361   6.720 -1.0225  0.8353 -1.0524
16742SOL    HW251390   5.049   6.462   6.803  0.1372 -0.0986  1.2613
16743SOL     OW51391   5.475   3.830   2.580  0.5152  0.1029  0.5141
16743SOL    HW151392   5.482   3.736   2.565 -1.0224 -0.2254  1.6026
16743SOL    HW251393   5.566   3.860   2.587  1.0239 -1.4246  0.8141
16744SOL     OW51394   2.645   6.508   0.032  0.4539 -0.2112  0.3759
16744SOL    HW151395   2.670   6.547   0.116 -0.9772  1.0382  0.2546
16744SOL    HW251396   2.550   6.518   0.028  0.4085 -0.9569 -1.0579
16745SOL     OW51397   5.010   6.447   5.251  0.0682  0.5021 -0.1059
16745SOL    HW151398   5.064   6.408   5.182  1.3577 -0.0502  1.1647
16745SOL    HW251399   4.921   6.420   5.230  0.4818  0.0374 -1.3479
16746SOL     OW51400   8.211   3.765   1.818  0.4020  0.0199 -0.0966
16746SOL    HW151401   8.192   3.689   1.872  2.0626 -0.0782  0.4139
16746SOL    HW251402   8.262   3.731   1.745  0.4789  0.5186 -0.2822
16747SOL     OW51403   6.379   8.377   8.705  0.4082  0.3582  0.1484
16747SOL    HW151404   6.289   8.349   8.718  0.2330 -0.3236 -2.0875
16747SOL    HW251405   6.394   8.442   8.773 -1.7629  0.4993  0.5586
16748SOL     OW51406   6.843   0.031   1.709 -0.4917  0.4744  0.3900
16748SOL    HW151407   6.763  -0.016   1.686  0.8074 -1.0355 -1.3204
16748SOL    HW251408   6.886   0.048   1.625  2.4032 -1.4280  1.3344
16749SOL     OW51409   7.510   1.762   7.180 -0.8147  0.0406  0.4838
16749SOL    HW151410   7.497   1.731   7.270 -0.8655  0.7915  0.7419
16749SOL    HW251411   7.421   1.779   7.148 -0.7825  0.0215  0.3852
16750SOL     OW51412   6.902   6.862   5.825  0.1413 -0.2455  0.1636
16750SOL    HW151413   6.882   6.799   5.894 -0.3042 -1.9912 -1.4635
16750SOL    HW251414   6.975   6.822   5.777 -1.1755 -0.3872 -1.8672
16751SOL     OW51415   2.544   6.280   6.594  0.5783  0.2455 -0.6325
16751SOL    HW151416   2.468   6.223   6.609  0.9920  0.0292  0.8001
16751SOL    HW251417   2.608   6.224   6.550 -0.5347  0.7914 -3.1175
16752SOL     OW51418   3.010   2.565   7.205 -0.1116  0.4287 -0.0865
16752SOL    HW151419   3.006   2.658   7.226  0.0245  0.4511 -0.1609
16752SOL    HW251420   2.995   2.561   7.111 -1.5567  0.2655  0.1307
16753SOL     OW51421   2.057   1.906   0.371 -0.4432  0.2983  0.3655
16753SOL    HW151422   2.117   1.891   0.444  0.9428  0.2521 -0.7464
16753SOL    HW251423   1.995   1.833   0.376  0.6324 -0.6325  0.5385
16754SOL     OW51424   8.501   3.999   4.648  0.3588 -0.0982 -0.5730
16754SOL    HW151425   8.561   4.055   4.697  1.2513 -1.2001 -0.3692
16754SOL    HW251426   8.546   3.915   4.641 -0.9144 -0.7855 -0.9218
16755SOL     OW51427   0.492   2.920   4.619 -0.1321  0.2039  0.3186
16755SOL    HW151428   0.435   2.997   4.626 -0.9074 -0.4360  1.2733
16755SOL    HW251429   0.491   2.898   4.526  2.0853  2.7799 -0.4509
16756SOL     OW51430   8.726   5.797   0.384 -0.3312  0.5175  0.2763
16756SOL    HW151431   8.694   5.787   0.473  0.9748  0.2132  0.7274
16756SOL    HW251432   8.818   5.770   0.388  0.0737  1.6310 -0.9100
16757SOL     OW51433   5.063   0.202   4.686 -0.4453 -0.4842 -0.0723
16757SOL    HW151434   5.084   0.117   4.724  0.4232 -1.0304 -1.6606
16757SOL    HW251435   5.069   0.188   4.591  1.0645  1.6697 -0.3760
16758SOL     OW51436   6.448   6.546   4.694  0.6560  0.1420 -0.4569
16758SOL    HW151437   6.501   6.479   4.651 -0.2672 -0.3723 -0.8232
16758SOL    HW251438   6.430   6.511   4.782  0.8084  0.2523 -0.3819
16759SOL     OW51439   6.899   5.786   1.757  0.5590 -0.2476 -0.5645
16759SOL    HW151440   6.861   5.711   1.803  0.5894 -0.4921 -0.9344
16759SOL    HW251441   6.993   5.780   1.776  0.2370  1.4392  1.9282
16760SOL     OW51442   0.541   5.430   5.884  0.6585  0.2445 -0.3645
16760SOL    HW151443   0.484   5.354   5.871 -0.0802  0.9020 -1.1188
16760SOL    HW251444   0.528   5.483   5.805  2.2662  0.4540 -0.5226
16761SOL     OW51445   6.984   8.631   4.829 -0.6714 -0.1582 -0.0667
16761SOL    HW151446   6.923   8.558   4.819  1.0096 -1.4938 -1.3284
16761SOL    HW251447   7.042   8.625   4.753  1.5087  0.5190  1.4175
16762SOL     OW51448   4.764   8.410   1.693 -0.1905 -0.2159 -0.2048
16762SOL    HW151449   4.805   8.495   1.710  0.9583 -0.8206  0.1589
16762SOL    HW251450   4.789   8.388   1.603 -2.2243  0.7517 -1.0710
16763SOL     OW51451   5.887   0.856   3.997  0.0575  0.1878 -0.5898
16763SOL    HW151452   5.955   0.919   3.971  0.0170  0.9614  1.0361
16763SOL    HW251453   5.923   0.814   4.075 -1.1903  0.4244  0.1471
16764SOL     OW51454   8.314   3.640   4.737  0.1839  0.2432  0.1642
16764SOL    HW151455   8.296   3.550   4.764  0.8554  0.0666  0.0534
16764SOL    HW251456   8.255   3.694   4.790 -0.4199 -0.2784  0.0296
16765SOL     OW51457   0.248   3.671   3.517 -0.1866  1.1628 -0.2369
16765SOL    HW151458   0.227   3.588   3.474 -0.8244  1.3356 -0.2652
16765SOL    HW251459   0.167   3.697   3.561  0.8384  0.2024  2.4162
16766SOL     OW51460   4.077   5.107   6.090 -0.1385 -0.3328 -0.2656
16766SOL    HW151461   4.032   5.067   6.015 -0.8281  1.0032 -0.5985
16766SOL    HW251462   4.007   5.130   6.151  0.1431  0.9205 -0.3758
16767SOL     OW51463   3.090   8.108   2.766  0.3770 -0.3702 -0.3453
16767SOL    HW151464   3.165   8.102   2.825  0.0214 -0.6620  0.0844
16767SOL    HW251465   3.101   8.034   2.706  0.8008 -0.0054 -0.7231
16768SOL     OW51466   4.558   7.171   5.777  0.3410 -0.0311  0.2740
16768SOL    HW151467   4.627   7.111   5.749  0.2366  0.7692 -1.9124
16768SOL    HW251468   4.506   7.185   5.698 -0.5138  1.7445  1.1110
16769SOL     OW51469   8.523   3.490   1.872  0.0106  0.7832 -0.0806
16769SOL    HW151470   8.492   3.401   1.889 -1.0781  0.9148 -1.2804
16769SOL    HW251471   8.607   3.495   1.918  0.8967 -1.4022 -1.3203
16770SOL     OW51472   2.767   6.086   0.698 -0.1004 -0.1972 -0.0231
16770SOL    HW151473   2.817   6.154   0.652 -0.7852 -0.9047 -1.9031
16770SOL    HW251474   2.713   6.134   0.761  0.6180  0.8498 -0.1834
16771SOL     OW51475   2.362   6.728   3.337 -0.1935  0.1462  0.0127
16771SOL    HW151476   2.356   6.632   3.333 -0.5371  0.2134 -1.4524
16771SOL    HW251477   2.385   6.755   3.248 -2.8773  1.5843 -0.3548
16772SOL     OW51478   5.471   5.239   5.337 -0.3298 -0.1894  1.0254
16772SOL    HW151479   5.433   5.295   5.269 -0.7094 -0.4722  0.9991
16772SOL    HW251480   5.409   5.243   5.409 -0.6703 -1.0458  0.7942
16773SOL     OW51481   3.291   3.035   5.653  0.2648  0.0316  0.8243
16773SOL    HW151482   3.217   3.091   5.632 -0.2042 -1.0697 -0.6633
16773SOL    HW251483   3.252   2.948   5.665  1.2716 -0.4989  0.3536
16774SOL     OW51484   2.336   2.525   3.615  0.0106  0.1999 -0.6252
16774SOL    HW151485   2.335   2.472   3.695  1.0554  0.4478 -0.4360
16774SOL    HW251486   2.257   2.578   3.621 -0.2375 -0.2235 -0.0517
16775SOL     OW51487   7.524   1.226   1.918  0.5407 -0.6590 -0.5040
16775SOL    HW151488   7.605   1.175   1.921  0.6270 -0.4760  2.0877
16775SOL    HW251489   7.455   1.163   1.935  0.4192 -0.3559  0.1662
16776SOL     OW51490   5.541   0.038   6.350  0.4851 -0.6818 -0.2410
16776SOL    HW151491   5.600   0.108   6.322  0.5740  0.6189  2.8279
16776SOL    HW251492   5.587  -0.043   6.327  2.7774  0.2916  0.5904
16777SOL     OW51493   7.245   4.124   5.489  0.1106  0.2067 -0.1104
16777SOL    HW151494   7.213   4.041   5.453  0.6708 -0.5543  1.1075
16777SOL    HW251495   7.175   4.186   5.469 -0.5234 -0.6465 -0.6514
16778SOL     OW51496   4.410   6.671   5.318  0.5536  0.1594 -0.3807
16778SOL    HW151497   4.416   6.612   5.243  0.4523  1.3911 -1.3888
16778SOL    HW251498   4.336   6.637   5.369 -0.1059 -0.0289 -1.4358
16779SOL     OW51499   5.400   7.325   7.036  0.5391 -0.1361  0.4737
16779SOL    HW151500   5.340   7.399   7.037  0.3373 -0.2684 -0.4600
16779SOL    HW251501   5.475   7.353   7.089  0.5220  0.7909  0.0191
16780SOL     OW51502   1.263   7.115   7.038 -0.1633  0.4720 -0.8298
16780SOL    HW151503   1.218   7.152   7.114 -2.9957 -1.2623 -1.5128
16780SOL    HW251504   1.277   7.023   7.061  0.8960  0.4171 -1.6198
16781SOL     OW51505   3.990   0.851   1.880  0.3566 -0.0598 -0.8405
16781SOL    HW151506   3.925   0.783   1.893  0.7325 -0.6490 -1.9461
16781SOL    HW251507   3.989   0.901   1.961 -1.4192 -0.0918 -0.8107
16782SOL     OW51508   5.807   7.353   0.850  0.4938 -0.4849  0.9002
16782SOL    HW151509   5.873   7.370   0.782  1.1257  0.0255  1.6273
16782SOL    HW251510   5.843   7.280   0.901  0.6394 -0.0259  1.4678
16783SOL     OW51511   0.055   6.087   1.744 -0.3956  0.2030  0.2209
16783SOL    HW151512   0.148   6.079   1.722 -0.7460 -0.3138 -1.1237
16783SOL    HW251513   0.051   6.166   1.798  0.7708  0.4480 -0.0091
16784SOL     OW51514   8.038   0.792   3.900  0.3757 -0.2807  0.9627
16784SOL    HW151515   8.048   0.865   3.962 -4.4618  3.6824 -2.1125
16784SOL    HW251516   8.104   0.808   3.834 -0.7900  1.7861  0.1766
16785SOL     OW51517   3.756   2.926   4.605  0.1968  0.2542 -0.0732
16785SOL    HW151518   3.702   2.939   4.683 -0.3583 -1.5457 -0.1052
16785SOL    HW251519   3.816   2.855   4.629  0.7821  0.4447 -0.9227
16786SOL     OW51520   4.517   5.609   1.670 -0.6186 -0.1058 -0.8228
16786SOL    HW151521   4.500   5.703   1.674 -2.7661 -0.4823  1.5677
16786SOL    HW251522   4.431   5.570   1.661  0.0374 -1.8992  0.2473
16787SOL     OW51523   2.414   3.687   7.588  0.0296  0.1068  0.1553
16787SOL    HW151524   2.344   3.750   7.607 -0.8031 -1.0782  1.2110
16787SOL    HW251525   2.391   3.610   7.639  0.7871 -1.2338 -1.4359
16788SOL     OW51526   0.394   5.829   7.988 -0.2211  0.1857 -0.1928
16788SOL    HW151527   0.323   5.851   8.050  0.1741 -0.9239  0.6805
16788SOL    HW251528   0.437   5.753   8.027  1.5490  0.9083 -0.6446
16789SOL     OW51529   7.666   7.705   5.164  0.3263  0.2517 -0.4310
16789SOL    HW151530   7.603   7.717   5.093 -0.6641  1.3649  0.5865
16789SOL    HW251531   7.736   7.768   5.145  0.4477  0.0004 -0.8216
16790SOL     OW51532   6.783   7.383   5.991 -0.2726 -0.0983 -0.3440
16790SOL    HW151533   6.785   7.298   6.037  0.6591 -0.2992 -0.7274
16790SOL    HW251534   6.777   7.447   6.062  2.2109 -0.3562  0.1881
16791SOL     OW51535   7.294   3.589   3.077  0.6161 -0.7645  0.0116
16791SOL    HW151536   7.230   3.643   3.124 -0.5677 -0.3240 -1.9845
16791SOL    HW251537   7.375   3.639   3.080 -0.0172  0.3075 -0.3157
16792SOL     OW51538   7.949   6.262   4.794  0.1549  1.1363 -0.3421
16792SOL    HW151539   7.968   6.168   4.797 -1.3596  0.8110  0.3460
16792SOL    HW251540   8.032   6.303   4.771  0.7150 -0.4141 -1.2678
16793SOL     OW51541   4.677   6.742   5.517 -0.0845  0.3745 -0.0253
16793SOL    HW151542   4.689   6.767   5.426  1.4194  0.8573  0.2771
16793SOL    HW251543   4.763   6.712   5.546 -1.0138 -1.8715  0.6444
16794SOL     OW51544   6.654   4.378   7.379  0.6756 -0.3254  0.0227
16794SOL    HW151545   6.667   4.438   7.452 -0.8030  1.9758 -1.4758
16794SOL    HW251546   6.725   4.315   7.387 -0.9332 -2.0462  5.0912
16795SOL     OW51547   1.193   2.600   7.061 -0.0434 -0.4545 -0.1303
16795SOL    HW151548   1.201   2.689   7.026  0.0855 -0.8020 -0.9982
16795SOL    HW251549   1.283   2.575   7.083 -0.0366 -0.4886 -0.1956
16796SOL     OW51550   1.247   6.026   5.652 -0.2980 -0.2262  0.0868
16796SOL    HW151551   1.202   5.974   5.586 -0.6716  0.6528 -0.3604
16796SOL    HW251552   1.329   6.052   5.610 -0.3840  0.0474  0.0853
16797SOL     OW51553   6.509   5.989   7.730  0.2039  0.1267 -0.0440
16797SOL    HW151554   6.563   5.995   7.809  0.7815  0.3760 -0.4411
16797SOL    HW251555   6.469   5.902   7.734 -2.5542  1.3704  2.2417
16798SOL     OW51556   5.740   2.627   2.934 -0.1840 -0.1864 -0.1746
16798SOL    HW151557   5.790   2.564   2.985 -0.3255 -0.8216 -0.8060
16798SOL    HW251558   5.801   2.657   2.867 -0.0114  0.6137  0.3233
16799SOL     OW51559   6.272   5.112   2.339 -0.1125 -0.1890  0.7033
16799SOL    HW151560   6.324   5.188   2.366  0.0486 -0.3018  0.7092
16799SOL    HW251561   6.307   5.039   2.391  0.0134 -0.3522  0.3894
16800SOL     OW51562   0.509   6.355   6.195 -0.3010  0.6716  0.0489
16800SOL    HW151563   0.457   6.409   6.136 -1.6756 -0.2010  0.3929
16800SOL    HW251564   0.577   6.317   6.140  0.9063  2.9297 -0.1374
16801SOL     OW51565   1.826   3.926   2.528  0.2390  0.0291  0.6248
16801SOL    HW151566   1.870   3.841   2.532 -0.7820 -0.5523 -0.1112
16801SOL    HW251567   1.895   3.987   2.501  0.6910 -0.8078 -0.1804
16802SOL     OW51568   2.774   8.399   7.846  0.2142 -0.8294  0.2503
16802SOL    HW151569   2.845   8.379   7.786  0.1979 -0.2358  0.0275
16802SOL    HW251570   2.805   8.474   7.896 -0.7210  0.2265 -0.6874
16803SOL     OW51571   1.944   1.724   3.081 -0.3020 -0.0535 -0.4948
16803SOL    HW151572   2.007   1.782   3.037 -0.4592  0.0222 -0.6199
16803SOL    HW251573   1.876   1.709   3.016 -0.4941 -0.0076 -0.3046
16804SOL     OW51574   3.116   3.241   5.528  0.3719 -0.7513 -0.3274
16804SOL    HW151575   3.148   3.305   5.592 -0.7203  0.1686 -0.6684
16804SOL    HW251576   3.021   3.245   5.535  0.1923 -0.2702 -2.3158
16805SOL     OW51577   5.646   5.626   1.056 -0.5329 -0.1613 -0.4304
16805SOL    HW151578   5.649   5.721   1.069  0.3938 -0.3091  0.6142
16805SOL    HW251579   5.613   5.615   0.967  0.2659  1.1797 -0.9252
16806SOL     OW51580   8.537   8.840   4.514  0.1845 -0.3081 -0.9056
16806SOL    HW151581   8.504   8.928   4.529 -1.3275 -0.8694 -0.7450
16806SOL    HW251582   8.614   8.852   4.459 -0.3127  1.0772 -1.3327
16807SOL     OW51583   1.052   2.839   6.250 -0.2430  0.1232 -0.1100
16807SOL    HW151584   0.995   2.909   6.216  1.4454  0.5782 -2.1869
16807SOL    HW251585   1.098   2.806   6.173  0.9600 -1.4931  1.2353
16808SOL     OW51586   0.738   8.444   7.535  0.1516 -0.4373 -0.1934
16808SOL    HW151587   0.703   8.469   7.620 -0.8758  0.3825 -0.8427
16808SOL    HW251588   0.688   8.494   7.471  0.3794 -1.5907 -1.3428
16809SOL     OW51589   7.646   8.267   6.619 -0.1570 -0.2423  0.3185
16809SOL    HW151590   7.607   8.354   6.618 -0.6276 -0.4287  1.0552
16809SOL    HW251591   7.741   8.283   6.624 -0.1563  0.2111 -0.8217
16810SOL     OW51592   0.919   4.562   5.483 -0.5134 -0.0923 -0.6288
16810SOL    HW151593   0.872   4.635   5.523  0.1754  1.1388 -1.9495
16810SOL    HW251594   1.011   4.589   5.486  0.1092 -2.1721  1.3638
16811SOL     OW51595   3.368   7.658   4.156  0.3197 -0.2700  0.4042
16811SOL    HW151596   3.293   7.716   4.165 -0.1369 -0.9746  1.2052
16811SOL    HW251597   3.349   7.584   4.213  2.0800  0.0061  1.4153
16812SOL     OW51598   5.148   3.131   0.778 -0.7746 -0.1957  0.4222
16812SOL    HW151599   5.189   3.152   0.694 -0.1321 -2.1903  0.1757
16812SOL    HW251600   5.088   3.059   0.757 -1.8018  0.3638  1.4018
16813SOL     OW51601   3.807   6.673   1.092 -0.2698  0.1910 -0.3200
16813SOL    HW151602   3.797   6.746   1.153 -1.3919  0.3097 -0.6265
16813SOL    HW251603   3.722   6.629   1.093 -0.0834 -0.2096 -1.2785
16814SOL     OW51604   8.059   1.180   1.649  0.0678 -0.0974 -0.2876
16814SOL    HW151605   8.097   1.257   1.607 -2.0760  1.1132 -0.1414
16814SOL    HW251606   8.013   1.214   1.726 -1.4328 -1.4279 -0.5346
16815SOL     OW51607   4.934   0.674   5.860 -0.5319 -0.0880 -0.4896
16815SOL    HW151608   5.023   0.692   5.889 -0.4527 -2.2517  0.7760
16815SOL    HW251609   4.890   0.759   5.865  1.5469  1.1467 -1.6972
16816SOL     OW51610   4.658   6.510   8.397  0.1109 -0.7194  0.3599
16816SOL    HW151611   4.753   6.516   8.392  0.1041 -1.3116 -1.1492
16816SOL    HW251612   4.638   6.519   8.490  1.7435 -1.9805  0.8837
16817SOL     OW51613   2.889   0.679   5.730  0.4007  0.4115  0.3479
16817SOL    HW151614   2.891   0.704   5.637  0.2693  1.9225  0.7368
16817SOL    HW251615   2.932   0.593   5.732  1.6933  0.9965 -0.9097
16818SOL     OW51616   5.219   1.480   2.949 -0.2323 -0.3475 -0.0853
16818SOL    HW151617   5.217   1.576   2.952  0.0336 -0.3394 -0.1695
16818SOL    HW251618   5.311   1.458   2.935 -0.1949 -0.6404  0.6093
16819SOL     OW51619   1.150   2.809   3.419  0.1483  0.0249  0.1712
16819SOL    HW151620   1.093   2.747   3.463 -2.0389  0.2119 -2.1953
16819SOL    HW251621   1.150   2.782   3.328  2.1050  1.3678 -0.3078
16820SOL     OW51622   5.854   7.635   1.310  0.8428 -0.1509  0.0831
16820SOL    HW151623   5.923   7.587   1.355 -0.0259 -0.2544  1.3725
16820SOL    HW251624   5.783   7.640   1.374  0.2361  1.2913 -0.6528
16821SOL     OW51625   5.230   5.232   3.797 -0.0588 -0.2929  0.0218
16821SOL    HW151626   5.260   5.283   3.872  4.6213 -0.6972 -1.2627
16821SOL    HW251627   5.177   5.294   3.746 -0.4749  1.0024  1.9247
16822SOL     OW51628   7.976   0.979   4.911 -0.0969  0.2847  0.3238
16822SOL    HW151629   7.937   0.895   4.886  2.0275 -0.2199 -1.6766
16822SOL    HW251630   7.902   1.039   4.918 -1.5171 -1.3764  0.1915
16823SOL     OW51631   3.361   4.444   1.064  0.4443 -0.3316 -0.2121
16823SOL    HW151632   3.309   4.408   0.992 -0.8542  0.0673  0.4880
16823SOL    HW251633   3.344   4.538   1.060  0.4024 -0.3036  0.5844
16824SOL     OW51634   1.363   0.857   4.717 -0.2024 -0.1218 -0.0257
16824SOL    HW151635   1.293   0.820   4.663 -1.5434 -0.3755  1.7856
16824SOL    HW251636   1.395   0.782   4.769  2.6860 -0.4206 -2.0043
16825SOL     OW51637   6.031   4.185   2.231  0.3182  0.6639 -0.2317
16825SOL    HW151638   5.942   4.167   2.201  0.0123  0.8208  0.5720
16825SOL    HW251639   6.023   4.258   2.291  0.9054  0.2696  0.3445
16826SOL     OW51640   6.242   4.407   0.286 -0.2845  0.9026  0.0278
16826SOL    HW151641   6.212   4.326   0.246 -1.0639 -0.5568  3.3426
16826SOL    HW251642   6.185   4.474   0.249 -0.1005 -0.0850 -2.2205
16827SOL     OW51643   3.138   1.843   4.284 -0.0493  0.4889 -0.3393
16827SOL    HW151644   3.131   1.928   4.327 -0.7828  0.7241 -0.8990
16827SOL    HW251645   3.151   1.781   4.356  0.4035  1.0563  0.0789
16828SOL     OW51646   0.961   7.435   0.025 -0.0647 -0.4396 -0.5650
16828SOL    HW151647   0.964   7.340   0.035 -1.1844 -0.4935 -0.5969
16828SOL    HW251648   1.037   7.467   0.073 -0.0505 -1.3149  0.0178
16829SOL     OW51649   3.250   7.978   0.008  0.2496 -0.1010  0.1038
16829SOL    HW151650   3.299   7.961  -0.073  0.4381 -0.9069  0.3770
16829SOL    HW251651   3.316   7.996   0.074  0.0561  1.6303 -0.1417
16830SOL     OW51652   4.681   1.257   8.520 -0.4525  0.1987 -0.0311
16830SOL    HW151653   4.693   1.164   8.501  4.3330  0.0157  2.4608
16830SOL    HW251654   4.623   1.258   8.596  0.1778 -0.8788  0.4935
16831SOL     OW51655   8.122   2.488   5.880 -0.0005  0.5162  0.7894
16831SOL    HW151656   8.178   2.536   5.940  0.6400 -0.4232  0.9607
16831SOL    HW251657   8.075   2.425   5.935 -0.9498  1.0266  0.5941
16832SOL     OW51658   3.205   0.323   0.772 -0.4700  0.6472  0.5299
16832SOL    HW151659   3.114   0.320   0.801  0.2881 -0.8926  3.0859
16832SOL    HW251660   3.212   0.252   0.707 -1.0146  0.5241  0.6019
16833SOL     OW51661   6.225   7.439   7.744 -0.4116 -0.2343  0.1633
16833SOL    HW151662   6.250   7.527   7.770  0.3537  0.4174 -2.4189
16833SOL    HW251663   6.306   7.388   7.747  0.2025  0.4029 -2.6983
16834SOL     OW51664   8.624   1.956   5.943  0.1828 -0.4524  0.9387
16834SOL    HW151665   8.530   1.971   5.930  0.5557  0.1297 -1.7962
16834SOL    HW251666   8.629   1.869   5.984 -1.5370 -0.8026  0.5044
16835SOL     OW51667   1.584   5.981   4.812 -0.2088 -0.4068  0.0464
16835SOL    HW151668   1.553   5.974   4.722 -0.0122 -0.9926  0.0237
16835SOL    HW251669   1.590   6.075   4.828 -0.1986 -0.3025 -0.5656
16836SOL     OW51670   7.937   6.609   8.044 -0.0701  0.0546  0.0409
16836SOL    HW151671   7.958   6.698   8.073  0.3747 -0.6293  2.0469
16836SOL    HW251672   7.952   6.609   7.950  0.5147  1.9384  0.1078
16837SOL     OW51673   7.783   7.408   8.360  0.0694 -0.1522  0.1515
16837SOL    HW151674   7.778   7.430   8.267 -2.5946 -1.3515 -0.0683
16837SOL    HW251675   7.850   7.340   8.366 -0.1608 -0.4936 -1.0026
16838SOL     OW51676   6.644   6.538   2.834  0.2716 -0.3486  0.4188
16838SOL    HW151677   6.695   6.563   2.910 -0.8958  1.0043  0.7965
16838SOL    HW251678   6.708   6.500   2.774  1.8147  1.6065  0.7092
16839SOL     OW51679   3.496   1.471   1.436  0.4169  0.3274  0.2706
16839SOL    HW151680   3.569   1.484   1.496 -2.5553  1.4398  4.0334
16839SOL    HW251681   3.485   1.376   1.433  0.3021  0.2408  2.0949
16840SOL     OW51682   4.608   4.323   2.558  0.5354 -0.4421  0.1147
16840SOL    HW151683   4.533   4.382   2.549  1.4169  0.8356  0.8468
16840SOL    HW251684   4.570   4.236   2.550 -1.0896  0.1473  0.8508
16841SOL     OW51685   6.379   0.578   2.945 -0.2387 -0.2634  0.5815
16841SOL    HW151686   6.309   0.643   2.939 -0.9630 -1.1476 -2.2644
16841SOL    HW251687   6.402   0.576   3.038 -1.1261  2.9927  1.0015
16842SOL     OW51688   7.619   5.368   4.683 -0.1692  0.3169  0.1589
16842SOL    HW151689   7.687   5.363   4.616 -2.0482 -0.0940 -1.8843
16842SOL    HW251690   7.620   5.458   4.713  1.4927  0.2207  0.4841
16843SOL     OW51691   3.151   2.008   5.655  0.0957  0.2855  0.2924
16843SOL    HW151692   3.189   2.080   5.705 -0.6359  0.8933 -0.0110
16843SOL    HW251693   3.166   2.032   5.563 -1.4039  0.7797  0.1474
16844SOL     OW51694   0.570   7.466   0.180  0.2499  0.1610 -0.0241
16844SOL    HW151695   0.587   7.556   0.155  0.7896 -0.1296 -0.7198
16844SOL    HW251696   0.487   7.469   0.228  1.0320  1.2513  1.3388
16845SOL     OW51697   4.331   3.269   1.641  0.0634  0.4060 -0.3321
16845SOL    HW151698   4.374   3.228   1.716 -1.5389 -0.2444  0.2635
16845SOL    HW251699   4.297   3.196   1.590  1.2524  0.8347 -1.8139
16846SOL     OW51700   5.086   6.362   8.771  0.2579  0.0627  0.5563
16846SOL    HW151701   5.067   6.444   8.724  1.5540 -0.3046 -0.6631
16846SOL    HW251702   5.003   6.315   8.771 -0.3205  1.0526  0.6250
16847SOL     OW51703   2.076   1.043   3.093  0.1382  0.5658 -0.7022
16847SOL    HW151704   2.091   0.951   3.069  0.5320  0.4402 -0.0212
16847SOL    HW251705   2.163   1.083   3.088  0.4354  0.3146  1.3233
16848SOL     OW51706   3.708   7.918   6.598  0.1256 -0.6187 -0.0506
16848SOL    HW151707   3.801   7.934   6.581  0.1842 -0.1132  0.7032
16848SOL    HW251708   3.666   7.931   6.513  0.1720  3.6727  0.3612
16849SOL     OW51709   5.810   5.716   1.899  0.3124  0.0476  0.5513
16849SOL    HW151710   5.817   5.743   1.807  0.0434 -0.7143  0.2941
16849SOL    HW251711   5.775   5.792   1.945  1.7260  0.8961  0.2647
16850SOL     OW51712   7.188   1.438   0.635  0.3730 -0.3750 -0.0311
16850SOL    HW151713   7.239   1.475   0.707  0.5405 -2.3884  0.9641
16850SOL    HW251714   7.246   1.373   0.596 -1.3397 -2.8423  1.2192
16851SOL     OW51715   5.109   7.276   8.452 -0.4940 -0.1214  0.0202
16851SOL    HW151716   5.100   7.281   8.357  0.1117 -0.7112 -0.0739
16851SOL    HW251717   5.202   7.256   8.466 -0.6740 -0.4951  0.7173
16852SOL     OW51718   5.137   5.334   1.313 -0.5839 -0.2032  0.8239
16852SOL    HW151719   5.216   5.283   1.329 -0.6294 -0.0141  1.7507
16852SOL    HW251720   5.092   5.334   1.398  0.0415  2.4160  1.2513
16853SOL     OW51721   5.444   8.652   5.191  0.4236 -0.2327  0.4241
16853SOL    HW151722   5.362   8.605   5.202  0.6843 -1.2597 -1.4144
16853SOL    HW251723   5.509   8.599   5.238  0.2197 -0.0568  0.9002
16854SOL     OW51724   2.547   4.494   0.296  0.2702  0.3399 -0.2311
16854SOL    HW151725   2.532   4.412   0.249 -2.3579  1.0033 -0.7351
16854SOL    HW251726   2.577   4.555   0.228 -0.1241  0.4092 -0.3432
16855SOL     OW51727   4.134   3.638   8.364  0.1305  0.9346 -0.0453
16855SOL    HW151728   4.191   3.689   8.307 -0.9409  0.5020 -1.5515
16855SOL    HW251729   4.047   3.674   8.349 -0.1229  1.2137  1.8076
16856SOL     OW51730   3.543   8.772   3.625  0.4879 -0.4703 -0.1896
16856SOL    HW151731   3.529   8.679   3.606  0.6867 -1.0194  2.0798
16856SOL    HW251732   3.486   8.790   3.699  0.8164  1.1210 -0.2936
16857SOL     OW51733   8.182   7.267   6.167 -0.4548 -0.1370  0.4320
16857SOL    HW151734   8.181   7.185   6.117  1.0084  0.9907 -1.6109
16857SOL    HW251735   8.090   7.283   6.186 -0.8470 -1.8519  0.2105
16858SOL     OW51736   3.546   3.145   3.663 -0.0774 -0.2614  0.0977
16858SOL    HW151737   3.639   3.125   3.661  0.0402 -0.0717  1.9108
16858SOL    HW251738   3.504   3.073   3.615  0.9792 -0.3176 -0.7777
16859SOL     OW51739   3.111   8.076   1.625  0.1850  0.4643 -0.0015
16859SOL    HW151740   3.192   8.047   1.667  0.2491 -1.2469 -1.2101
16859SOL    HW251741   3.132   8.082   1.532 -0.8549  0.8044 -0.2263
16860SOL     OW51742   1.477   2.985   1.837  0.4444  0.0582 -0.0715
16860SOL    HW151743   1.424   2.908   1.820  1.1327 -1.4533  3.7962
16860SOL    HW251744   1.565   2.960   1.808  0.5781 -0.4709  0.7705
16861SOL     OW51745   3.460   2.183   1.128 -0.2368 -0.1047 -0.3148
16861SOL    HW151746   3.543   2.207   1.169  0.1795  0.7693 -1.5925
16861SOL    HW251747   3.424   2.116   1.185  0.6614  0.5138  1.0464
16862SOL     OW51748   6.280   8.652   5.480  0.3230  0.0329 -0.2956
16862SOL    HW151749   6.246   8.615   5.398  2.4378 -1.6550 -0.5150
16862SOL    HW251750   6.251   8.590   5.547  0.7853 -0.0230 -0.1462
16863SOL     OW51751   8.585   7.052   5.239  0.5451 -0.1069  0.2943
16863SOL    HW151752   8.566   7.134   5.285  0.1229  0.9062 -1.6064
16863SOL    HW251753   8.561   6.984   5.302 -1.2202  1.2090  1.1388
16864SOL     OW51754   1.349   6.618   1.417 -0.1331  0.4498  0.0464
16864SOL    HW151755   1.424   6.576   1.376  1.6885  2.1940  1.4137
16864SOL    HW251756   1.352   6.590   1.508 -0.4838  1.3966  0.3617
16865SOL     OW51757   7.388   8.366   5.540  0.0816 -0.0925 -0.2468
16865SOL    HW151758   7.439   8.293   5.573  0.1106 -0.2937 -0.7198
16865SOL    HW251759   7.413   8.373   5.448  0.6776  1.0315 -0.0072
16866SOL     OW51760   3.141   1.954   3.422 -0.8257 -0.1279 -0.1086
16866SOL    HW151761   3.105   1.905   3.496 -1.9653  0.0718 -0.5069
16866SOL    HW251762   3.072   1.950   3.356 -0.2102  0.5191 -0.7949
16867SOL     OW51763   6.571   4.046   4.197 -0.5608 -0.2195 -0.1255
16867SOL    HW151764   6.648   4.011   4.151 -1.0111 -0.0551 -1.0197
16867SOL    HW251765   6.578   4.009   4.285  0.9571  0.3950  0.0524
16868SOL     OW51766   4.794   6.718   3.544  0.0892  0.5593 -0.5319
16868SOL    HW151767   4.800   6.637   3.494  0.0732  0.1258  0.1670
16868SOL    HW251768   4.784   6.691   3.635  1.7966  1.3246 -0.0584
16869SOL     OW51769   2.553   1.926   8.076 -0.1918 -0.1706 -0.2535
16869SOL    HW151770   2.623   1.987   8.102  0.1011 -0.3273 -0.6516
16869SOL    HW251771   2.472   1.970   8.100  0.0640 -0.2811  0.8455
16870SOL     OW51772   0.927   1.108   0.428  0.1678 -0.3813 -0.2332
16870SOL    HW151773   0.996   1.144   0.372  1.0425  0.3754  1.2520
16870SOL    HW251774   0.879   1.184   0.459  1.1259 -0.5271  1.7885
16871SOL     OW51775   0.485   6.462   4.413 -0.1006 -0.4217  0.2153
16871SOL    HW151776   0.432   6.396   4.368 -0.5814 -0.8764  1.3946
16871SOL    HW251777   0.504   6.527   4.346 -3.6185  0.6903  0.0597
16872SOL     OW51778   8.632   2.423   5.932  0.7276  0.0717  0.1442
16872SOL    HW151779   8.720   2.432   5.896  0.7621  1.8886  0.6054
16872SOL    HW251780   8.612   2.330   5.922  2.6747 -0.3772  0.0039
16873SOL     OW51781   8.448   3.231   7.066  0.6048 -0.2191 -0.6538
16873SOL    HW151782   8.524   3.287   7.048  1.1550 -0.9397 -0.5996
16873SOL    HW251783   8.393   3.284   7.125  2.5109 -0.7982  1.8109
16874SOL     OW51784   4.197   7.621   1.368 -0.3149  0.5179 -0.1168
16874SOL    HW151785   4.128   7.566   1.405 -0.5091  0.7104 -0.1922
16874SOL    HW251786   4.166   7.642   1.280  0.9712 -1.4627 -1.1286
16875SOL     OW51787   2.674   5.421   2.426  0.0081 -0.2835  0.2837
16875SOL    HW151788   2.717   5.448   2.507 -0.3675 -1.0376  0.7438
16875SOL    HW251789   2.728   5.459   2.357 -0.9991  2.4610  0.8742
16876SOL     OW51790   1.248   8.423   5.933 -0.1632  0.2907  0.8998
16876SOL    HW151791   1.315   8.479   5.972  0.3252 -0.0745  0.6025
16876SOL    HW251792   1.234   8.460   5.845 -1.5248  1.3306  1.5232
16877SOL     OW51793   5.147   0.975   0.987 -0.2796 -0.5592 -0.1634
16877SOL    HW151794   5.116   1.038   0.922 -0.9798  0.5711  1.2114
16877SOL    HW251795   5.237   1.002   1.006 -1.0811  1.1520  1.6170
16878SOL     OW51796   7.423   4.599   8.189 -0.4291  0.2738  0.1348
16878SOL    HW151797   7.438   4.584   8.282  0.8685 -0.1504 -0.1297
16878SOL    HW251798   7.509   4.591   8.149 -0.8652  1.1133 -1.0250
16879SOL     OW51799   3.276   0.718   8.511 -0.4954 -0.2190  0.0415
16879SOL    HW151800   3.325   0.671   8.578  1.0166  0.6300 -0.4256
16879SOL    HW251801   3.329   0.795   8.492 -1.0654 -0.2576 -1.8851
16880SOL     OW51802   5.897   8.688   5.648 -0.6838  0.2372 -0.1220
16880SOL    HW151803   5.914   8.717   5.738  3.6298  1.7491 -1.1665
16880SOL    HW251804   5.921   8.595   5.648 -0.6304  0.2503  0.2744
16881SOL     OW51805   3.577   2.684   7.701 -0.2016 -0.1306  0.0868
16881SOL    HW151806   3.532   2.767   7.719  1.2569  0.4196  1.4035
16881SOL    HW251807   3.580   2.679   7.605  2.7162  3.1904 -0.2163
16882SOL     OW51808   8.751   8.287   1.012 -0.0488  0.1544 -0.7943
16882SOL    HW151809   8.797   8.365   0.983  0.5426  0.7812  1.6259
16882SOL    HW251810   8.661   8.317   1.027 -0.3507 -0.1666 -1.8488
16883SOL     OW51811   3.905   6.607   7.916 -0.0866  0.1441  0.2314
16883SOL    HW151812   3.891   6.606   7.822 -0.3068 -2.1325  0.2264
16883SOL    HW251813   3.998   6.589   7.927 -0.5153 -2.3379  0.4074
16884SOL     OW51814   2.231   6.257   8.352 -0.8458 -0.3489  0.1926
16884SOL    HW151815   2.188   6.302   8.424 -2.1991  0.2432 -0.9449
16884SOL    HW251816   2.160   6.230   8.294  0.2553  0.9486 -1.9218
16885SOL     OW51817   5.966   7.700   6.683 -0.7328 -0.1707  0.3072
16885SOL    HW151818   6.047   7.651   6.699 -2.1764 -2.3496  1.3772
16885SOL    HW251819   5.914   7.642   6.627 -1.8003  0.9278  0.1379
16886SOL     OW51820   5.851   0.519   1.119  0.4747 -0.0009  0.4380
16886SOL    HW151821   5.793   0.475   1.181  0.2942 -0.6300 -0.1673
16886SOL    HW251822   5.803   0.518   1.036  1.6320 -1.1968 -0.2546
16887SOL     OW51823   8.472   1.002   8.527  0.2915 -0.3665  0.3531
16887SOL    HW151824   8.422   0.986   8.607  1.4693 -0.4735  1.0964
16887SOL    HW251825   8.521   0.922   8.513 -0.2702 -0.5311 -0.7782
16888SOL     OW51826   7.490   4.620   4.634  0.2064  0.0549 -0.0227
16888SOL    HW151827   7.572   4.628   4.682 -0.1904 -0.4237  0.7702
16888SOL    HW251828   7.480   4.704   4.589  0.2167  0.8363  1.3688
16889SOL     OW51829   7.497   2.115   6.466 -0.2668  0.3487 -0.1756
16889SOL    HW151830   7.523   2.077   6.382 -1.1703  0.9037 -0.7191
16889SOL    HW251831   7.564   2.181   6.484  1.3872 -1.4929  0.8350
16890SOL     OW51832   1.938   5.581   3.674  0.2488 -0.0117  0.4091
16890SOL    HW151833   1.855   5.615   3.705  0.1696 -0.1925  0.3918
16890SOL    HW251834   2.001   5.604   3.742  0.4727  1.4750 -0.2606
16891SOL     OW51835   4.243   7.085   5.364  0.1079  0.1840 -0.4866
16891SOL    HW151836   4.189   7.099   5.442  0.4391 -0.5322 -0.1176
16891SOL    HW251837   4.200   7.136   5.295 -1.0233 -0.3451 -0.1922
16892SOL     OW51838   0.770   4.613   4.853 -0.1997  0.0443  0.5915
16892SOL    HW151839   0.788   4.524   4.884  2.5707  0.9528  1.9834
16892SOL    HW251840   0.804   4.669   4.923 -1.6898  2.2193 -0.3372
16893SOL     OW51841   0.259   1.610   0.781 -0.7577  0.8552  0.1892
16893SOL    HW151842   0.300   1.525   0.764 -0.7983  0.7176  0.7283
16893SOL    HW251843   0.254   1.653   0.696 -0.7919  0.2880 -0.1001
16894SOL     OW51844   7.095   2.837   7.355  0.1772 -0.7271 -0.3581
16894SOL    HW151845   7.032   2.765   7.355 -1.3124  0.5217 -0.0777
16894SOL    HW251846   7.117   2.849   7.263 -1.7038  0.2122 -0.7251
16895SOL     OW51847   5.357   2.524   3.407 -0.6721 -0.2671  0.5840
16895SOL    HW151848   5.292   2.593   3.399 -0.7255 -0.3960 -0.1629
16895SOL    HW251849   5.310   2.444   3.383 -0.9889 -0.7985  2.7287
16896SOL     OW51850   6.725   6.419   3.495  0.5246  0.0427 -0.1901
16896SOL    HW151851   6.724   6.329   3.462  0.8042  0.2611 -0.8135
16896SOL    HW251852   6.810   6.454   3.467 -0.1558  0.9528 -1.2423
16897SOL     OW51853   6.387   4.710   1.423  0.4258  0.1058 -0.6160
16897SOL    HW151854   6.418   4.768   1.493 -1.8542  0.3659  0.2648
16897SOL    HW251855   6.465   4.664   1.394  1.6761  0.9606  1.1935
16898SOL     OW51856   6.622   8.678   7.836  0.0008 -0.7566 -0.3411
16898SOL    HW151857   6.631   8.759   7.786  1.2202 -0.4461  0.3528
16898SOL    HW251858   6.536   8.644   7.811  0.2180 -0.1733 -1.9900
16899SOL     OW51859   5.393   5.619   0.498 -0.2592  0.1682 -0.2716
16899SOL    HW151860   5.476   5.659   0.472 -0.1675  0.9570  1.1747
16899SOL    HW251861   5.368   5.565   0.422  1.1015  0.6311 -1.0821
16900SOL     OW51862   6.333   5.082   4.830  0.1515 -0.5121 -0.1414
16900SOL    HW151863   6.329   4.990   4.806 -0.4880 -0.5615  0.1067
16900SOL    HW251864   6.391   5.122   4.766 -1.9435 -0.5141 -2.1837
16901SOL     OW51865   6.038   3.819   4.141 -0.5862  0.1264  0.0484
16901SOL    HW151866   5.947   3.793   4.128 -0.6934  1.0394 -1.1544
16901SOL    HW251867   6.056   3.797   4.233 -1.8276 -0.5926  0.1422
16902SOL     OW51868   7.202   5.519   8.167  0.0690  0.0588 -0.4371
16902SOL    HW151869   7.257   5.451   8.204  1.7846  0.5451 -1.9131
16902SOL    HW251870   7.199   5.587   8.234  1.2817  0.0013 -0.3025
16903SOL     OW51871   7.318   6.550   6.529  0.4322  0.2499  0.5562
16903SOL    HW151872   7.358   6.463   6.528 -0.2866 -0.0847  0.0860
16903SOL    HW251873   7.237   6.538   6.579  0.3778  0.6682  0.5705
16904SOL     OW51874   3.835   3.440   3.428 -0.6735 -0.1278 -0.4680
16904SOL    HW151875   3.819   3.452   3.522 -0.4496  2.1877 -0.6491
16904SOL    HW251876   3.779   3.506   3.386  0.3516 -0.0886 -1.8575
16905SOL     OW51877   6.036   1.675   3.103  0.1990 -0.2729 -0.5553
16905SOL    HW151878   5.941   1.680   3.099  0.1295 -0.2597  0.5426
16905SOL    HW251879   6.054   1.599   3.159  0.8658 -1.0032 -1.7354
16906SOL     OW51880   3.481   4.912   7.339 -0.3365  0.1123  0.0598
16906SOL    HW151881   3.574   4.902   7.319 -0.6129 -1.8526 -0.4330
16906SOL    HW251882   3.477   4.915   7.434  0.1735 -0.5748  0.1077
16907SOL     OW51883   7.782   5.962   3.992  0.4573  0.3812  0.9464
16907SOL    HW151884   7.713   6.003   3.939  1.3734  1.1378  0.3049
16907SOL    HW251885   7.818   6.034   4.044  0.9386  0.0544  1.0697
16908SOL     OW51886   5.236   5.635   1.157 -0.1954 -0.3074 -0.2029
16908SOL    HW151887   5.242   5.542   1.135 -0.9121 -0.5104  0.4274
16908SOL    HW251888   5.174   5.639   1.230  1.0467  0.5112  0.8456
16909SOL     OW51889   7.542   0.167   0.463  0.7525 -0.3787  0.8893
16909SOL    HW151890   7.534   0.093   0.523 -0.9047  0.4029  1.6956
16909SOL    HW251891   7.633   0.194   0.471  1.9800 -3.4328 -0.8300
16910SOL     OW51892   1.370   1.361   0.531  0.2597  0.1129 -0.1659
16910SOL    HW151893   1.435   1.412   0.482  1.0753 -0.6592  0.0792
16910SOL    HW251894   1.406   1.355   0.619 -0.7789  0.7552  0.3141
16911SOL     OW51895   1.454   7.652   5.762 -0.0963  0.1600  0.3763
16911SOL    HW151896   1.540   7.658   5.719 -0.2155  0.4866  0.1783
16911SOL    HW251897   1.402   7.598   5.703 -0.1110  0.1972  0.3551
16912SOL     OW51898   7.690   1.479   1.207 -0.4337 -0.3227 -0.1966
16912SOL    HW151899   7.761   1.522   1.255 -0.4566  1.1450 -1.4070
16912SOL    HW251900   7.734   1.433   1.136 -0.3587 -2.8263  1.3278
16913SOL     OW51901   5.222   4.375   0.392 -1.1275  0.6064  0.1810
16913SOL    HW151902   5.286   4.444   0.407  0.6515 -1.0514  0.7846
16913SOL    HW251903   5.232   4.317   0.468  0.2808 -2.3041 -2.0049
16914SOL     OW51904   0.709   7.670   8.058 -0.4195 -0.1790 -0.6559
16914SOL    HW151905   0.787   7.617   8.048  0.3828  1.0571 -1.1248
16914SOL    HW251906   0.703   7.721   7.977  1.5280  3.8882  1.4585
16915SOL     OW51907   0.682   3.714   2.320  0.3512  0.1600  0.5316
16915SOL    HW151908   0.636   3.631   2.328  0.9916 -0.2293  0.2070
16915SOL    HW251909   0.617   3.780   2.348 -0.5390 -0.3329 -0.3275
16916SOL     OW51910   7.827   5.040   8.036 -0.7788 -0.0491  0.3979
16916SOL    HW151911   7.775   4.969   8.074 -0.4353  0.1557  1.2692
16916SOL    HW251912   7.767   5.115   8.035 -0.9012 -0.1495  0.1974
16917SOL     OW51913   0.107   3.462   3.378  0.0779 -0.2513  0.7047
16917SOL    HW151914   0.019   3.498   3.368  0.9708  1.7020 -0.8763
16917SOL    HW251915   0.124   3.417   3.295  1.0605  0.6304  0.4080
16918SOL     OW51916   4.786   4.505   2.714  0.2315 -0.8000 -0.5346
16918SOL    HW151917   4.785   4.601   2.709  1.0963 -0.8019 -0.8602
16918SOL    HW251918   4.701   4.479   2.679 -0.6260 -0.1087  0.9077
16919SOL     OW51919   7.652   6.308   0.049  0.1585 -0.2046 -0.8340
16919SOL    HW151920   7.715   6.366   0.092 -1.0814 -0.1884  1.0531
16919SOL    HW251921   7.676   6.220   0.078  0.3610 -0.3719 -1.4994
16920SOL     OW51922   4.911   7.575   1.096 -0.3311  0.3822  0.3312
16920SOL    HW151923   4.823   7.604   1.072 -0.0309  1.0575  0.0114
16920SOL    HW251924   4.899   7.486   1.127 -0.8608 -0.2915 -1.6612
16921SOL     OW51925   8.856   4.916   0.544  0.2425  0.4907  0.3987
16921SOL    HW151926   8.825   5.007   0.548  0.3684  0.5110  1.0023
16921SOL    HW251927   8.795   4.868   0.600 -0.4552  0.0126 -0.7329
16922SOL     OW51928   7.599   3.130   8.470 -0.0928  0.4329 -0.3428
16922SOL    HW151929   7.555   3.213   8.455 -1.1517  0.4043  2.1356
16922SOL    HW251930   7.527   3.067   8.482  0.5849  0.0007  1.8367
16923SOL     OW51931   6.086   7.059   4.731 -0.0594 -0.1934  0.1619
16923SOL    HW151932   6.112   6.969   4.713  0.2674  0.0465 -0.6249
16923SOL    HW251933   6.023   7.080   4.662 -0.5933 -0.0117  0.6962
16924SOL     OW51934   5.855   5.040   3.153  0.5517 -0.2539 -0.6268
16924SOL    HW151935   5.864   4.956   3.199 -1.6122 -1.4037 -2.1088
16924SOL    HW251936   5.846   5.016   3.061 -0.8365  1.5408 -1.0229
16925SOL     OW51937   7.379   4.384   2.763  0.3966 -0.3804  0.0897
16925SOL    HW151938   7.324   4.316   2.723 -0.1407 -0.4373  0.8903
16925SOL    HW251939   7.328   4.464   2.752 -0.7662 -0.6993  2.4183
16926SOL     OW51940   8.846   8.116   3.539  0.6762 -0.1433  0.0285
16926SOL    HW151941   8.776   8.111   3.603 -0.3327 -1.0983 -1.1042
16926SOL    HW251942   8.924   8.137   3.591 -0.3498  0.5627  1.3574
16927SOL     OW51943   2.565   6.530   2.367  0.4360  0.3896 -0.4609
16927SOL    HW151944   2.509   6.471   2.417 -0.1230 -0.9356 -2.5112
16927SOL    HW251945   2.589   6.480   2.288  2.0781  1.9926 -1.0713
16928SOL     OW51946   4.521   0.505   1.656 -0.5194 -0.2208  0.4566
16928SOL    HW151947   4.432   0.471   1.665 -0.6389  0.1742  0.7878
16928SOL    HW251948   4.525   0.538   1.566  0.2808 -3.0276 -0.6206
16929SOL     OW51949   3.360   4.759   0.315  0.1129 -0.2344  0.4438
16929SOL    HW151950   3.453   4.757   0.339  0.3344  3.6672  0.5202
16929SOL    HW251951   3.316   4.792   0.394 -1.1074 -0.4460 -0.1308
16930SOL     OW51952   8.223   5.482   2.613  0.3307  0.3919  0.3414
16930SOL    HW151953   8.269   5.404   2.643  0.8167  1.3653  2.2616
16930SOL    HW251954   8.291   5.536   2.574  0.0982  0.1502 -0.4242
16931SOL     OW51955   5.227   4.642   7.929 -0.1342  0.2651 -0.6645
16931SOL    HW151956   5.230   4.581   7.856  0.1517 -0.2542 -0.2299
16931SOL    HW251957   5.148   4.694   7.915  1.1117  1.7827 -2.6066
16932SOL     OW51958   0.912   4.063   4.167  0.9144 -0.2267  0.0646
16932SOL    HW151959   1.003   4.032   4.176  1.3469 -0.8434 -4.1906
16932SOL    HW251960   0.864   3.985   4.140  0.0595  0.8623 -1.7617
16933SOL     OW51961   0.237   3.631   4.219  0.0603  0.5007 -0.0840
16933SOL    HW151962   0.314   3.586   4.184 -1.6640 -2.3855 -0.4928
16933SOL    HW251963   0.202   3.572   4.286 -1.7164  1.8046  0.2328
16934SOL     OW51964   3.014   3.641   6.352  0.0932 -0.1548 -0.3952
16934SOL    HW151965   2.935   3.603   6.314 -0.4846 -0.8028  1.3828
16934SOL    HW251966   3.010   3.618   6.445  0.8109  2.4063  0.3508
16935SOL     OW51967   1.527   1.084   0.207 -0.1949  0.5086  0.5532
16935SOL    HW151968   1.470   1.019   0.168  0.7992 -0.4323  0.6201
16935SOL    HW251969   1.614   1.044   0.207 -0.0556  0.5691  3.4236
16936SOL     OW51970   8.233   0.670   2.017 -0.2345  0.4419 -0.3798
16936SOL    HW151971   8.153   0.650   1.970 -0.4054  0.5550 -0.1389
16936SOL    HW251972   8.230   0.765   2.030  0.5619  0.6458 -1.5070
16937SOL     OW51973   8.218   5.363   0.033  0.3899 -0.0596  0.1754
16937SOL    HW151974   8.281   5.346  -0.037  2.2086 -1.4637  1.9965
16937SOL    HW251975   8.266   5.421   0.093 -1.2536  1.4137  0.1334
16938SOL     OW51976   4.836   8.447   5.878  0.1584 -0.0145  0.3107
16938SOL    HW151977   4.910   8.387   5.866  1.1260  1.2192 -0.0841
16938SOL    HW251978   4.833   8.464   5.972  0.4436  0.0147  0.3138
16939SOL     OW51979   8.621   7.798   0.745 -0.4169 -0.0988 -0.4538
16939SOL    HW151980   8.603   7.886   0.713 -1.8467  0.2814  1.2346
16939SOL    HW251981   8.546   7.776   0.800  0.5029 -1.8649  0.1935
16940SOL     OW51982   5.391   7.939   2.289  0.0613 -0.2359  0.7037
16940SOL    HW151983   5.386   8.034   2.281  1.7809 -0.1539  0.1732
16940SOL    HW251984   5.482   7.921   2.309 -0.3706 -1.7493  1.4820
16941SOL     OW51985   4.058   5.278   8.264  0.0082 -0.3466  0.0334
16941SOL    HW151986   4.065   5.225   8.344 -0.6322  1.7986  1.5983
16941SOL    HW251987   4.035   5.365   8.295 -1.8575  0.2232 -2.6062
16942SOL     OW51988   7.015   6.011   8.114 -0.1728 -0.0914  0.0172
16942SOL    HW151989   7.051   6.080   8.058  0.3335  0.9087  1.5090
16942SOL    HW251990   6.999   6.054   8.198  2.7260 -2.3118  1.9080
16943SOL     OW51991   6.293   4.747   3.414  0.2934  0.1653 -0.2362
16943SOL    HW151992   6.369   4.803   3.427  0.9043  0.7507 -4.7018
16943SOL    HW251993   6.218   4.807   3.416  0.2536  0.1076  0.8215
16944SOL     OW51994   0.644   5.326   0.467  0.9149 -0.3374 -0.9243
16944SOL    HW151995   0.571   5.387   0.474  0.5712 -0.8636  0.4631
16944SOL    HW251996   0.613   5.257   0.408 -0.2342 -1.2264  0.6534
16945SOL     OW51997   8.554   4.760   6.762 -0.0176  0.3000 -0.5836
16945SOL    HW151998   8.617   4.689   6.750  1.2702  1.6263 -2.2316
16945SOL    HW251999   8.518   4.746   6.850  1.1972 -1.5738 -0.3257
16946SOL     OW52000   5.012   8.249   6.835 -0.2156 -0.6933  0.6392
16946SOL    HW152001   5.092   8.292   6.865 -0.8647 -0.1320  1.6230
16946SOL    HW252002   5.035   8.213   6.750 -0.0208  2.8730 -1.0141
16947SOL     OW52003   3.141   8.770   6.152 -0.3197 -0.6702  0.6616
16947SOL    HW152004   3.082   8.782   6.226 -0.2385 -1.2483  0.8176
16947SOL    HW252005   3.142   8.676   6.137  0.0399 -0.5976  0.2293
16948SOL     OW52006   0.982   1.648   0.826 -0.5270 -0.5004  0.0388
16948SOL    HW152007   0.891   1.660   0.801 -0.7952 -0.4687  0.9775
16948SOL    HW252008   1.018   1.736   0.830 -0.0882 -0.5905 -1.6044
16949SOL     OW52009   0.912   3.169   6.136 -0.6147 -0.4296  0.5685
16949SOL    HW152010   0.953   3.248   6.101  0.1557 -1.0972 -0.0705
16949SOL    HW252011   0.919   3.178   6.231  0.7313 -0.3642  0.4804
16950SOL     OW52012   0.105   1.576   8.632  1.1106  0.0244  0.0121
16950SOL    HW152013   0.016   1.604   8.612  0.5670 -0.9052  0.9989
16950SOL    HW252014   0.153   1.657   8.649  0.5387  0.5496 -0.8067
16951SOL     OW52015   3.818   0.737   4.048  0.1177 -0.7577  0.1546
16951SOL    HW152016   3.816   0.645   4.077  0.5138 -0.5025  1.0257
16951SOL    HW252017   3.744   0.744   3.988 -1.9434 -0.8891  2.4930
16952SOL     OW52018   1.304   2.654   6.739 -0.0116  0.6318 -0.4368
16952SOL    HW152019   1.315   2.748   6.720  4.6049  0.3152 -0.2336
16952SOL    HW252020   1.284   2.615   6.653  0.1147  1.5517 -0.8971
16953SOL     OW52021   2.128   2.372   8.027  0.6060 -0.1838 -0.2622
16953SOL    HW152022   2.218   2.400   8.010  1.0268 -2.2051 -1.7423
16953SOL    HW252023   2.074   2.440   7.986  1.4949  0.2840 -0.6901
16954SOL     OW52024   5.478   6.055   3.861  0.2886  0.1752 -0.1499
16954SOL    HW152025   5.493   6.079   3.770  0.3472  1.1619  0.1051
16954SOL    HW252026   5.565   6.032   3.894  0.0947 -1.3898 -0.6532
16955SOL     OW52027   1.808   3.404   6.880 -0.3250 -0.1261  0.1162
16955SOL    HW152028   1.732   3.377   6.828  0.7285  0.0433 -1.6006
16955SOL    HW252029   1.794   3.498   6.894  0.7583  0.5344 -2.5058
16956SOL     OW52030   7.747   7.360   0.069 -0.2102  0.2538 -0.3330
16956SOL    HW152031   7.676   7.319   0.020  0.6860 -0.5070 -1.0236
16956SOL    HW252032   7.820   7.365   0.008  0.1167  1.7604  0.1117
16957SOL     OW52033   1.524   0.936   2.529  0.0578  0.1757  0.2149
16957SOL    HW152034   1.429   0.941   2.526  0.0757  1.7253 -3.4697
16957SOL    HW252035   1.547   0.953   2.621 -3.1647 -0.2824  1.2045
16958SOL     OW52036   1.038   0.228   8.687 -0.0242  0.5858 -0.0457
16958SOL    HW152037   1.130   0.224   8.662 -0.0869 -2.0196 -0.0970
16958SOL    HW252038   0.994   0.268   8.612  0.8111  0.0177 -0.8460
16959SOL     OW52039   7.107   2.103   3.386  0.2510 -0.3315 -0.1357
16959SOL    HW152040   7.013   2.098   3.365  0.2366  1.3862 -0.5762
16959SOL    HW252041   7.118   2.189   3.426  1.2605 -1.4137  2.0856
16960SOL     OW52042   7.816   8.836   4.606 -0.2432  0.3506  0.5733
16960SOL    HW152043   7.752   8.882   4.660 -0.2717  1.2511 -0.2187
16960SOL    HW252044   7.774   8.753   4.584 -0.4391  0.1992  1.4881
16961SOL     OW52045   2.292   5.693   8.066 -0.1263 -0.0775  0.7233
16961SOL    HW152046   2.347   5.763   8.031 -1.1265 -0.0572 -0.9767
16961SOL    HW252047   2.353   5.626   8.095  0.8259 -0.1410 -1.2726
16962SOL     OW52048   3.725   6.685   3.494  0.1060 -0.4585  0.0469
16962SOL    HW152049   3.660   6.669   3.425  1.7646  2.1225 -2.3432
16962SOL    HW252050   3.682   6.749   3.551 -0.0199  0.1373 -0.6897
16963SOL     OW52051   4.283   3.914   6.201 -0.0933  0.1181 -0.1282
16963SOL    HW152052   4.248   3.839   6.249 -0.1979  1.2333  1.6126
16963SOL    HW252053   4.368   3.884   6.170 -0.1415 -0.7336  0.5106
16964SOL     OW52054   7.888   7.724   3.918  0.1976  0.2691 -0.0442
16964SOL    HW152055   7.861   7.718   3.826  1.1494  1.2840 -0.4098
16964SOL    HW252056   7.859   7.810   3.947  0.6594  0.2993  0.3471
16965SOL     OW52057   8.495   4.333   3.428  0.1896  0.8218 -0.0235
16965SOL    HW152058   8.526   4.341   3.518  0.5481  1.0396 -0.1648
16965SOL    HW252059   8.399   4.332   3.435  0.1383 -2.7900  0.6860
16966SOL     OW52060   4.639   1.527   7.510  0.6492 -0.0118  0.3475
16966SOL    HW152061   4.638   1.447   7.562  1.3879  1.0473  2.0561
16966SOL    HW252062   4.706   1.582   7.551  1.8052  0.6021 -2.1806
16967SOL     OW52063   7.733   2.243   1.431  0.1307 -0.1622 -0.3169
16967SOL    HW152064   7.769   2.230   1.343 -0.5568  0.4595 -0.7034
16967SOL    HW252065   7.664   2.308   1.419 -0.3093 -0.4421  0.6049
16968SOL     OW52066   4.496   2.805   1.773 -0.1642  0.2759 -0.5159
16968SOL    HW152067   4.447   2.854   1.839  0.4730 -0.1283  0.2944
16968SOL    HW252068   4.550   2.871   1.729 -0.6292  0.5593 -0.6631
16969SOL     OW52069   0.632   3.371   5.077 -0.0586 -0.2660 -0.3051
16969SOL    HW152070   0.705   3.339   5.024  1.3526  1.0177  0.7750
16969SOL    HW252071   0.625   3.308   5.148 -0.3436 -0.6725 -0.6926
16970SOL     OW52072   3.473   5.925   1.477  0.8412 -0.0219 -0.1004
16970SOL    HW152073   3.482   5.845   1.426 -0.1527 -0.7137  0.7837
16970SOL    HW252074   3.463   5.895   1.567  0.2572  1.0891  0.2163
16971SOL     OW52075   7.656   8.002   7.979 -0.5444 -0.8337 -0.0178
16971SOL    HW152076   7.715   8.006   7.904 -0.2594 -1.3054  0.1689
16971SOL    HW252077   7.626   8.092   7.992 -3.5518 -1.2345 -2.9911
16972SOL     OW52078   6.035   6.361   5.562  0.0257  0.7126 -0.0623
16972SOL    HW152079   5.971   6.290   5.573  1.5430 -0.4543  1.9070
16972SOL    HW252080   6.111   6.318   5.522  1.3310  0.9295  2.0528
16973SOL     OW52081   8.655   2.343   7.034 -0.4895 -0.5300 -0.2419
16973SOL    HW152082   8.702   2.413   7.080 -1.1931  0.0052 -0.3180
16973SOL    HW252083   8.592   2.389   6.979  0.5570 -1.1442 -2.0030
16974SOL     OW52084   3.087   0.569   6.904  0.4111  0.0210 -0.6967
16974SOL    HW152085   3.000   0.592   6.936  1.0588 -0.9384  2.0372
16974SOL    HW252086   3.141   0.647   6.921  0.6571 -0.3355  0.2327
16975SOL     OW52087   7.649   3.514   5.317 -0.5503  0.4078  0.2661
16975SOL    HW152088   7.670   3.440   5.261  0.0121  1.2890 -0.7183
16975SOL    HW252089   7.732   3.559   5.330 -1.3163  2.5487 -1.6289
16976SOL     OW52090   3.131   0.455   3.366 -0.8270  0.3642  0.5016
16976SOL    HW152091   3.105   0.366   3.345 -0.8528  0.4291  0.2602
16976SOL    HW252092   3.067   0.484   3.432 -2.4066  1.0969 -1.2637
16977SOL     OW52093   4.060   6.356   7.450  0.0825  0.2821  0.6242
16977SOL    HW152094   4.002   6.333   7.377 -1.1935 -1.1971  2.0320
16977SOL    HW252095   4.145   6.373   7.409 -0.6812 -0.1428 -1.2252
16978SOL     OW52096   5.463   7.721   8.840  0.8238 -0.1317 -0.1265
16978SOL    HW152097   5.446   7.628   8.857  1.4463 -0.7250 -2.3617
16978SOL    HW252098   5.382   7.765   8.867  0.1006 -1.4638 -0.0168
16979SOL     OW52099   5.978   8.689   2.251  0.0572 -0.1891 -0.1757
16979SOL    HW152100   5.922   8.634   2.306 -0.0513  0.1758  0.0837
16979SOL    HW252101   6.022   8.627   2.192 -0.7996 -0.4471 -0.5526
16980SOL     OW52102   6.182   3.589   3.549  0.0983 -0.2000  0.2560
16980SOL    HW152103   6.241   3.661   3.526 -0.8657 -0.0457 -1.9416
16980SOL    HW252104   6.228   3.543   3.620  1.6729  1.3570  0.3367
16981SOL     OW52105   7.143   1.926   5.699 -0.0947  0.2768  0.0975
16981SOL    HW152106   7.060   1.915   5.746 -0.3149  1.6415  0.0755
16981SOL    HW252107   7.150   1.849   5.643 -1.0381 -0.1533  0.5493
16982SOL     OW52108   3.405   3.538   5.746  0.0695 -0.0261  0.1772
16982SOL    HW152109   3.339   3.588   5.793  1.5741  1.5715  0.7072
16982SOL    HW252110   3.419   3.460   5.800 -1.2186 -0.2911  0.1489
16983SOL     OW52111   2.392   2.701   7.915 -0.3933  0.0791 -0.2821
16983SOL    HW152112   2.473   2.711   7.864  0.2529 -1.2329  0.4523
16983SOL    HW252113   2.326   2.750   7.864  0.8700  1.2962 -0.8135
16984SOL     OW52114   2.213   0.993   5.265  0.3214 -0.1248  0.9689
16984SOL    HW152115   2.178   1.076   5.233  2.2431  1.1712  2.0286
16984SOL    HW252116   2.166   0.927   5.214  0.1114  1.6543 -1.3529
16985SOL     OW52117   2.016   4.851   6.617  0.2832 -0.7928 -0.0866
16985SOL    HW152118   1.947   4.851   6.551  1.6511  1.3784 -1.6686
16985SOL    HW252119   2.082   4.791   6.583 -0.2117 -1.8374  0.7537
16986SOL     OW52120   7.890   3.335   3.636 -0.4988  0.1670 -0.6580
16986SOL    HW152121   7.802   3.361   3.665 -0.2138  1.0150 -0.5221
16986SOL    HW252122   7.902   3.381   3.553 -0.7140 -1.0470 -1.3895
16987SOL     OW52123   1.864   0.961   0.718  0.3542 -0.5743 -0.8059
16987SOL    HW152124   1.837   0.928   0.632 -1.0823 -0.2300 -0.4964
16987SOL    HW252125   1.935   0.902   0.744  0.5136 -0.9504 -2.0270
16988SOL     OW52126   5.740   1.178   2.008  0.2155 -0.5079 -1.1084
16988SOL    HW152127   5.673   1.161   1.942 -0.5935 -0.0737 -0.4219
16988SOL    HW252128   5.774   1.266   1.987  0.9203 -0.9213 -1.7384
16989SOL     OW52129   6.638   5.310   1.064  0.0572 -0.6639 -0.6980
16989SOL    HW152130   6.582   5.245   1.106 -0.6150 -0.1789 -0.8135
16989SOL    HW252131   6.695   5.259   1.006 -1.4849 -1.0571 -1.9408
16990SOL     OW52132   3.340   2.403   3.309  0.5021  0.2847  0.5357
16990SOL    HW152133   3.260   2.354   3.285  0.1870  1.0607 -0.0511
16990SOL    HW252134   3.410   2.359   3.260  0.3549 -0.0733  0.6389
16991SOL     OW52135   0.531   0.342   7.901  0.2768  0.0201 -0.0899
16991SOL    HW152136   0.619   0.363   7.871  0.4155 -0.7520 -0.2338
16991SOL    HW252137   0.533   0.358   7.995  0.2191  1.1702 -0.2694
16992SOL     OW52138   3.154   0.267   4.710 -0.2561 -0.2045 -0.7157
16992SOL    HW152139   3.114   0.329   4.648 -0.3957  0.7595  0.3073
16992SOL    HW252140   3.234   0.239   4.666 -0.4464  0.3117 -1.4221
16993SOL     OW52141   6.515   5.655   7.954  0.1893 -0.4034  0.4218
16993SOL    HW152142   6.502   5.585   8.019 -1.1321 -1.1311 -0.5861
16993SOL    HW252143   6.426   5.677   7.926  0.4510  2.6135  1.6276
16994SOL     OW52144   8.623   3.257   7.401  0.0653 -0.3323  0.1205
16994SOL    HW152145   8.641   3.163   7.397  1.0390 -0.2462  1.6632
16994SOL    HW252146   8.687   3.296   7.342  1.0332 -0.5102  1.0183
16995SOL     OW52147   7.213   2.454   2.124 -0.0573 -0.2795 -0.2372
16995SOL    HW152148   7.214   2.544   2.092  0.4138  0.5360  1.8464
16995SOL    HW252149   7.135   2.450   2.180 -0.3212 -1.3134 -0.6635
16996SOL     OW52150   0.849   6.593   6.896  0.1657  0.1459  0.0427
16996SOL    HW152151   0.834   6.687   6.904 -1.2191 -0.1972  2.9955
16996SOL    HW252152   0.762   6.554   6.905  0.7814 -1.4419 -0.5050
16997SOL     OW52153   8.148   8.640   0.725 -0.1917 -0.3450 -0.2495
16997SOL    HW152154   8.213   8.710   0.735  0.1329 -0.8953  2.2911
16997SOL    HW252155   8.175   8.592   0.646  0.8432  1.0889 -0.7921
16998SOL     OW52156   1.529   4.614   5.802 -0.2525  0.3129 -0.1892
16998SOL    HW152157   1.583   4.612   5.881 -1.3849  2.3063  0.7240
16998SOL    HW252158   1.589   4.596   5.730  0.9760 -0.6571  1.0387
16999SOL     OW52159   8.511   2.631   1.303  0.2447  0.0166 -0.2147
16999SOL    HW152160   8.567   2.614   1.379 -1.2737  0.4844  1.0691
16999SOL    HW252161   8.510   2.727   1.296 -1.5676  0.1145  0.7657
17000SOL     OW52162   2.600   1.589   6.544 -0.2951 -0.4145  0.0825
17000SOL    HW152163   2.656   1.513   6.530 -0.4768 -0.3083 -1.3482
17000SOL    HW252164   2.528   1.557   6.599 -0.3732 -1.2877 -0.5095
17001SOL     OW52165   6.571   0.403   7.718 -0.3530  0.4198 -0.3342
17001SOL    HW152166   6.561   0.425   7.625 -0.0854  0.1710 -0.4203
17001SOL    HW252167   6.660   0.430   7.739  0.1537 -1.0094 -0.5588
17002SOL     OW52168   1.159   8.720   8.573 -0.0169 -0.7951  0.3039
17002SOL    HW152169   1.221   8.768   8.627 -0.5502  0.6633 -0.3084
17002SOL    HW252170   1.189   8.735   8.483  0.0219 -1.9648  0.1027
17003SOL     OW52171   4.882   4.959   5.529 -0.4932  0.6094  0.0037
17003SOL    HW152172   4.871   4.938   5.436 -0.2057  1.4041 -0.2226
17003SOL    HW252173   4.797   4.995   5.556 -0.1079  1.8438 -0.3722
17004SOL     OW52174   1.581   0.266   3.311  0.2050  0.0313  0.7512
17004SOL    HW152175   1.554   0.206   3.380  1.4451 -1.7740 -0.2419
17004SOL    HW252176   1.676   0.266   3.315  0.3188 -0.2372 -0.9855
17005SOL     OW52177   0.867   3.969   4.724 -0.4370 -0.0591  0.1455
17005SOL    HW152178   0.808   4.044   4.731 -1.9389 -1.3316  2.3998
17005SOL    HW252179   0.886   3.961   4.631  0.0483  3.2557 -0.1760
17006SOL     OW52180   6.597   2.657   2.348  0.3658  0.1138  0.6038
17006SOL    HW152181   6.607   2.585   2.409  0.0041 -0.0121  0.5159
17006SOL    HW252182   6.516   2.701   2.375 -1.9135 -2.1199 -1.9748
17007SOL     OW52183   2.950   2.665   2.431 -0.7256 -0.2104 -0.4502
17007SOL    HW152184   2.968   2.711   2.349 -0.3329  0.1701 -0.1560
17007SOL    HW252185   2.981   2.725   2.500 -0.4360 -0.8050 -0.0525
17008SOL     OW52186   7.159   0.315   2.955  0.0709  0.0937  0.0144
17008SOL    HW152187   7.243   0.269   2.951  0.0667 -0.0157  1.1075
17008SOL    HW252188   7.093   0.245   2.956  0.1138 -0.1300  4.3482
17009SOL     OW52189   3.347   6.725   8.676 -0.4000  0.2818  0.0725
17009SOL    HW152190   3.257   6.752   8.696 -0.6598 -0.8515  0.4765
17009SOL    HW252191   3.338   6.664   8.603  0.2117  1.4557 -1.0325
17010SOL     OW52192   7.421   4.024   5.936  0.3568  0.1772  0.5279
17010SOL    HW152193   7.454   4.112   5.915  2.4921 -0.4142  1.1543
17010SOL    HW252194   7.416   4.022   6.031 -0.4409 -0.1566  0.4886
17011SOL     OW52195   8.447   0.836   1.882  0.0190  0.0392  0.3737
17011SOL    HW152196   8.426   0.793   1.965  0.1277  0.4281  0.6076
17011SOL    HW252197   8.394   0.916   1.882  0.6673  0.4837  0.4718
17012SOL     OW52198   2.145   7.162   4.657 -0.2372 -0.3223 -0.0161
17012SOL    HW152199   2.084   7.188   4.588 -0.8662 -1.5987  0.0382
17012SOL    HW252200   2.104   7.086   4.698  0.2970  0.1945  1.5373
17013SOL     OW52201   1.438   0.219   7.289  0.0410 -0.0006  0.3262
17013SOL    HW152202   1.413   0.143   7.237  1.5359 -1.0089  1.0249
17013SOL    HW252203   1.387   0.291   7.251 -0.8255 -1.1755 -0.8540
17014SOL     OW52204   0.961   5.985   8.724  0.4372 -0.2200 -0.0916
17014SOL    HW152205   1.030   5.949   8.670  1.1772  0.2615  0.5157
17014SOL    HW252206   0.938   5.914   8.784  0.1880 -0.4758 -0.4818
17015SOL     OW52207   2.292   6.632   4.489  0.0151 -0.2617 -0.5020
17015SOL    HW152208   2.272   6.641   4.583 -1.3442 -1.3142 -0.6559
17015SOL    HW252209   2.367   6.572   4.486  1.4799  1.4593 -0.0321
17016SOL     OW52210   6.587   1.229   6.728  0.1743 -0.1185 -0.9874
17016SOL    HW152211   6.514   1.200   6.673  1.2892 -1.3666 -1.8727
17016SOL    HW252212   6.613   1.313   6.692 -1.0909  0.5492 -0.3872
17017SOL     OW52213   6.166   1.803   1.591 -0.6799 -0.4314  0.5114
17017SOL    HW152214   6.143   1.730   1.534 -0.1920  0.2071 -0.5289
17017SOL    HW252215   6.254   1.782   1.623 -0.0511  0.1990 -0.6972
17018SOL     OW52216   5.811   0.128   1.625 -0.0668 -0.5202 -0.1348
17018SOL    HW152217   5.731   0.152   1.578 -0.7453 -2.0847  0.1602
17018SOL    HW252218   5.793   0.153   1.716  0.4028  0.5344 -0.3183
17019SOL     OW52219   5.958   6.803   5.912  0.4714  0.1276  0.4601
17019SOL    HW152220   6.006   6.862   5.969  0.5679  0.4793  0.0161
17019SOL    HW252221   6.023   6.741   5.879  0.6972  0.8066 -0.4052
17020SOL     OW52222   8.475   6.143   2.503  0.4072 -0.5467  0.0192
17020SOL    HW152223   8.441   6.079   2.441  0.3174  0.0585 -0.5788
17020SOL    HW252224   8.420   6.134   2.580  0.7246 -1.5303  0.1392
17021SOL     OW52225   4.840   1.272   2.785  0.1560 -0.5187  0.1013
17021SOL    HW152226   4.807   1.241   2.870 -1.8182 -2.0106 -1.1141
17021SOL    HW252227   4.791   1.352   2.769  0.6283 -0.1628  0.4104
17022SOL     OW52228   5.547   5.230   1.561  0.0407  0.1803  0.1692
17022SOL    HW152229   5.530   5.148   1.514 -0.7102  1.0601 -1.1623
17022SOL    HW252230   5.461   5.258   1.593  0.2919  0.4448  0.6243
17023SOL     OW52231   2.464   6.754   5.813  0.1310 -0.1055 -0.4166
17023SOL    HW152232   2.420   6.779   5.894  1.2393  0.2165  0.1070
17023SOL    HW252233   2.552   6.790   5.821  0.5438 -0.8423 -1.3743
17024SOL     OW52234   5.568   2.098   4.330  0.3582 -0.2737 -0.2333
17024SOL    HW152235   5.575   2.098   4.234  0.5470  1.9648 -0.2783
17024SOL    HW252236   5.475   2.088   4.348  0.1286  0.7608 -0.7406
17025SOL     OW52237   7.633   2.053   4.826  0.0275  0.4855 -0.5271
17025SOL    HW152238   7.620   2.010   4.911  0.7965  0.5921 -0.3435
17025SOL    HW252239   7.600   1.989   4.763  0.3716 -0.0267 -0.2037
17026SOL     OW52240   6.900   5.510   0.545 -0.0711 -0.0685 -0.1532
17026SOL    HW152241   6.934   5.495   0.633  1.0750 -1.8755 -0.8328
17026SOL    HW252242   6.909   5.425   0.501 -0.7020  0.7483 -1.9827
17027SOL     OW52243   0.155   5.176   3.011 -0.1527 -0.1647  0.0265
17027SOL    HW152244   0.217   5.247   3.024 -0.9481  0.2634  1.8313
17027SOL    HW252245   0.189   5.128   2.935  1.6031  0.8398  0.1167
17028SOL     OW52246   2.168   1.437   0.621 -0.9016  0.0627  0.5954
17028SOL    HW152247   2.073   1.450   0.630 -0.8054  1.6534 -0.3992
17028SOL    HW252248   2.197   1.413   0.708 -2.5359 -2.8360  0.4779
17029SOL     OW52249   5.425   6.385   3.651 -0.2541  0.1601 -0.3855
17029SOL    HW152250   5.517   6.403   3.674 -0.7330  0.2000  1.6679
17029SOL    HW252251   5.392   6.469   3.618  0.6934 -0.1231 -2.2078
17030SOL     OW52252   2.622   0.633   7.520 -0.3298  0.5539 -0.0917
17030SOL    HW152253   2.579   0.567   7.466 -0.7185  0.3759  0.4308
17030SOL    HW252254   2.695   0.664   7.466 -0.3760 -0.0210 -0.4940
17031SOL     OW52255   6.615   7.770   4.022 -0.3964 -0.2990  0.2230
17031SOL    HW152256   6.561   7.738   4.095 -0.3099  0.1084  0.4698
17031SOL    HW252257   6.593   7.712   3.949  0.1191 -1.2467  0.7930
17032SOL     OW52258   4.884   2.038   6.857 -0.1348 -0.6818  0.1121
17032SOL    HW152259   4.865   2.007   6.769 -0.2997 -1.9106  0.5587
17032SOL    HW252260   4.819   1.994   6.913  0.1828 -0.1910  0.8861
17033SOL     OW52261   3.684   6.980   1.753 -0.4779  0.0992 -0.4957
17033SOL    HW152262   3.775   7.008   1.741  0.4883 -2.7549 -0.7503
17033SOL    HW252263   3.645   7.048   1.807  2.3248  0.6026  1.1342
17034SOL     OW52264   0.247   0.179   0.949  0.5435  0.2398  0.3977
17034SOL    HW152265   0.315   0.123   0.912  1.2738  0.8617  0.7704
17034SOL    HW252266   0.171   0.164   0.893  0.5016 -1.6438  0.9013
17035SOL     OW52267   3.055   6.776   7.994 -0.5748  0.0646 -0.2413
17035SOL    HW152268   3.113   6.772   7.918 -1.0136 -0.0533 -0.5702
17035SOL    HW252269   3.115   6.771   8.069 -0.0139  1.6770 -0.5470
17036SOL     OW52270   0.647   5.880   7.513  0.2507  0.0660  0.3074
17036SOL    HW152271   0.679   5.968   7.535  2.2670 -0.2563 -1.1025
17036SOL    HW252272   0.599   5.892   7.431  1.7689 -0.2911 -0.6906
17037SOL     OW52273   1.788   6.213   5.137 -0.7683  0.6875  0.1048
17037SOL    HW152274   1.824   6.284   5.191 -1.3154  1.1670 -0.1380
17037SOL    HW252275   1.753   6.150   5.200  2.1822 -0.7915  0.4290
17038SOL     OW52276   0.117   4.608   2.307  0.1942 -0.5905  0.2785
17038SOL    HW152277   0.041   4.551   2.297 -1.0723  1.2209 -1.2894
17038SOL    HW252278   0.186   4.566   2.255 -0.8572 -0.5180 -1.2457
17039SOL     OW52279   5.725   8.853   8.046  0.2777 -0.0106  0.1982
17039SOL    HW152280   5.734   8.772   7.997  0.4243 -0.2703  0.6487
17039SOL    HW252281   5.631   8.869   8.050  0.2780  0.1678 -0.4127
17040SOL     OW52282   7.117   7.217   6.432  0.5102 -0.2573  0.0741
17040SOL    HW152283   7.176   7.145   6.409  1.4285  0.4481  0.1790
17040SOL    HW252284   7.172   7.280   6.478 -0.2547  0.5698 -0.1124
17041SOL     OW52285   1.596   0.899   1.287  0.7994  0.1441  0.7075
17041SOL    HW152286   1.640   0.826   1.245  0.0639 -0.3594  0.7876
17041SOL    HW252287   1.598   0.878   1.381  0.4285  0.1325  0.7154
17042SOL     OW52288   0.481   7.877   8.613 -0.1819  0.2701 -0.0388
17042SOL    HW152289   0.407   7.935   8.634  1.1717  2.7695 -1.6144
17042SOL    HW252290   0.557   7.936   8.611  1.5855 -1.8953 -0.1879
17043SOL     OW52291   7.811   0.195   1.590  0.0541 -0.4448  0.0681
17043SOL    HW152292   7.767   0.278   1.606 -0.4859 -0.7346  0.1181
17043SOL    HW252293   7.743   0.129   1.603  1.0684 -1.1130  2.6753
17044SOL     OW52294   0.731   0.253   0.220 -0.5610  0.0274 -0.0883
17044SOL    HW152295   0.769   0.167   0.199  0.9080  0.7024 -0.3111
17044SOL    HW252296   0.651   0.257   0.168 -3.1083 -2.9494  3.0925
17045SOL     OW52297   0.438   7.570   3.642 -0.0303 -0.2794 -0.0718
17045SOL    HW152298   0.501   7.540   3.708  0.5895  1.7993  0.3360
17045SOL    HW252299   0.352   7.550   3.680  0.3353 -0.1340  0.8502
17046SOL     OW52300   2.734   7.930   3.277 -0.6476  0.1668 -0.0241
17046SOL    HW152301   2.735   7.896   3.367 -0.0241  1.3901  0.4519
17046SOL    HW252302   2.663   7.881   3.234  1.3572 -3.0554  0.0446
17047SOL     OW52303   7.612   3.788   6.886 -0.6155  0.1075  0.1764
17047SOL    HW152304   7.526   3.762   6.921 -1.3237 -0.0785 -1.6139
17047SOL    HW252305   7.673   3.724   6.922 -1.3815 -0.3375  0.7014
17048SOL     OW52306   8.601   6.521   4.138 -0.4352 -0.1937 -0.1941
17048SOL    HW152307   8.537   6.591   4.154  0.8474  1.1111 -0.5864
17048SOL    HW252308   8.584   6.458   4.207 -1.2803  0.7714  0.5209
17049SOL     OW52309   3.731   4.358   6.469 -0.2052 -0.7248  0.3120
17049SOL    HW152310   3.696   4.423   6.408 -1.4637 -0.3247  1.4224
17049SOL    HW252311   3.799   4.405   6.518 -0.0047 -0.7129  0.0244
17050SOL     OW52312   7.661   1.297   6.045 -0.0010 -0.4243 -0.4706
17050SOL    HW152313   7.664   1.388   6.074  0.0167 -0.4499 -0.3935
17050SOL    HW252314   7.703   1.298   5.959  0.7478 -0.4993 -0.1130
17051SOL     OW52315   2.785   6.848   6.755 -0.4967 -0.0175 -0.5782
17051SOL    HW152316   2.731   6.925   6.734  0.0233 -0.2626 -3.0697
17051SOL    HW252317   2.875   6.877   6.738 -0.3932 -1.5398 -2.9983
17052SOL     OW52318   7.865   3.309   1.782 -0.4109  0.8533 -0.6197
17052SOL    HW152319   7.833   3.365   1.853  1.1300 -0.5318  1.2506
17052SOL    HW252320   7.835   3.354   1.702 -3.1891  1.8805  0.8408
17053SOL     OW52321   5.158   5.255   5.061 -0.0436  0.9257 -0.4971
17053SOL    HW152322   5.244   5.293   5.077  0.4745 -0.5788  0.6461
17053SOL    HW252323   5.145   5.196   5.136 -0.9617 -0.7519 -1.9204
17054SOL     OW52324   0.673   2.514   4.026 -0.0116  0.0192  0.0895
17054SOL    HW152325   0.597   2.570   4.039 -1.3727 -1.9789  1.1898
17054SOL    HW252326   0.747   2.566   4.059 -1.0971  1.3958  0.4520
17055SOL     OW52327   6.048   2.090   3.131  0.3300  0.2834 -0.0443
17055SOL    HW152328   5.955   2.113   3.125 -0.1437 -1.8084 -2.3526
17055SOL    HW252329   6.092   2.145   3.066  0.2352 -0.6079 -0.8852
17056SOL     OW52330   8.754   3.703   2.181  0.1293 -0.4164 -0.7065
17056SOL    HW152331   8.684   3.704   2.116  1.2113  2.2618 -1.9628
17056SOL    HW252332   8.710   3.729   2.263 -0.7093 -0.9304 -0.9762
17057SOL     OW52333   1.206   0.488   4.528  0.3895 -0.2379 -0.6014
17057SOL    HW152334   1.119   0.449   4.524 -0.3830  1.4875 -1.7916
17057SOL    HW252335   1.228   0.488   4.621 -0.7934 -0.8448 -0.2945
17058SOL     OW52336   2.135   4.709   3.808  0.1121  0.6933  0.1564
17058SOL    HW152337   2.128   4.764   3.730 -0.6236  0.6548  0.1874
17058SOL    HW252338   2.219   4.663   3.798 -1.1971 -1.4771 -2.0460
17059SOL     OW52339   1.993   6.113   4.100  0.1471 -0.4008  0.3902
17059SOL    HW152340   2.040   6.033   4.077 -1.3221 -1.7100  1.6437
17059SOL    HW252341   1.919   6.115   4.039 -0.1228 -0.3119  0.7170
17060SOL     OW52342   6.118   0.248   4.466  0.6231  0.1874  0.1466
17060SOL    HW152343   6.068   0.255   4.385 -0.6461  0.7151  0.9453
17060SOL    HW252344   6.152   0.336   4.481  3.6826 -0.5834 -1.4902
17061SOL     OW52345   7.209   5.765   7.181  0.2269 -0.0514  0.0592
17061SOL    HW152346   7.227   5.716   7.261 -0.4380 -1.0328 -0.3693
17061SOL    HW252347   7.148   5.710   7.132  0.1107  0.8286 -0.8316
17062SOL     OW52348   6.958   6.586   3.427 -0.0574  0.2456 -0.4227
17062SOL    HW152349   6.993   6.572   3.516 -0.1497  1.1857 -0.2266
17062SOL    HW252350   7.016   6.534   3.371 -0.2544 -0.7013  0.2213
17063SOL     OW52351   7.040   0.532   4.994 -0.1190  0.0795  0.0999
17063SOL    HW152352   7.118   0.520   5.048 -0.3892 -1.8057  0.1467
17063SOL    HW252353   6.972   0.480   5.037 -0.9603  0.3506 -0.8458
17064SOL     OW52354   1.085   4.776   0.453 -0.3330  0.5540  0.1366
17064SOL    HW152355   1.128   4.801   0.372 -0.7754 -0.6115 -0.4858
17064SOL    HW252356   1.091   4.681   0.455 -3.3119  0.2476 -0.2771
17065SOL     OW52357   3.226   6.796   1.885 -0.1763 -0.3683  0.1362
17065SOL    HW152358   3.315   6.785   1.917  0.1114  0.9136 -0.1524
17065SOL    HW252359   3.174   6.816   1.962  0.3279  1.6926  0.0010
17066SOL     OW52360   1.767   0.654   1.837 -0.0824  0.1226  0.2625
17066SOL    HW152361   1.737   0.596   1.906  0.4090  0.1191  0.4748
17066SOL    HW252362   1.846   0.695   1.872  0.4600 -0.2583 -0.4854
17067SOL     OW52363   0.228   4.512   5.015  0.1153 -0.5618  0.1632
17067SOL    HW152364   0.300   4.556   4.971 -1.4670  1.1269 -0.8974
17067SOL    HW252365   0.248   4.419   5.007  1.8291 -0.1622 -0.6775
17068SOL     OW52366   0.418   8.186   7.902 -0.1523 -0.0517 -0.3117
17068SOL    HW152367   0.421   8.211   7.810 -0.4814  1.9476  0.1858
17068SOL    HW252368   0.472   8.251   7.947 -1.9295  0.4726  1.1906
17069SOL     OW52369   6.831   0.707   0.342 -0.0232  0.1119 -0.1861
17069SOL    HW152370   6.821   0.638   0.275  0.5191  0.7253 -0.9164
17069SOL    HW252371   6.851   0.786   0.292  1.9260  0.2876  0.7771
17070SOL     OW52372   6.544   1.160   0.662  0.3332 -0.3812  0.1618
17070SOL    HW152373   6.616   1.171   0.599 -0.1053 -0.1166 -0.2963
17070SOL    HW252374   6.578   1.098   0.727  0.4603 -1.3579 -0.8271
17071SOL     OW52375   3.804   5.889   1.312  0.1668 -0.0941  0.0216
17071SOL    HW152376   3.764   5.825   1.253  1.2066 -0.0763 -0.7424
17071SOL    HW252377   3.882   5.845   1.346  0.3534  0.4099  0.2574
17072SOL     OW52378   8.168   0.534   4.405 -0.0959  0.3385 -0.0111
17072SOL    HW152379   8.113   0.507   4.332 -0.4176  1.3695 -0.1659
17072SOL    HW252380   8.109   0.535   4.480  0.2972 -0.9981  0.3389
17073SOL     OW52381   6.464   2.344   5.603  0.4470 -0.1668 -0.5304
17073SOL    HW152382   6.508   2.409   5.656 -1.9997  0.9262  0.3280
17073SOL    HW252383   6.452   2.385   5.517  0.6476 -0.2768 -0.6129
17074SOL     OW52384   6.179   7.222   1.886 -0.1766  0.1708 -0.1143
17074SOL    HW152385   6.145   7.184   1.805 -0.7068 -2.2494  1.1249
17074SOL    HW252386   6.274   7.212   1.879 -0.2480 -0.4539 -0.2560
17075SOL     OW52387   0.746   6.964   1.310  0.9495 -0.1727  0.2142
17075SOL    HW152388   0.796   6.883   1.299  1.2893 -0.0066  0.5261
17075SOL    HW252389   0.796   7.015   1.374 -0.1442 -0.4370  1.3259
17076SOL     OW52390   2.034   0.654   3.873  0.4270 -0.2592 -0.4055
17076SOL    HW152391   2.005   0.564   3.888  1.7608 -0.9072 -1.4492
17076SOL    HW252392   1.959   0.708   3.898 -0.7418 -1.7005 -0.6328
17077SOL     OW52393   3.774   2.505   0.865 -0.4663  0.3184  0.4153
17077SOL    HW152394   3.738   2.531   0.950  0.0530  1.0032  0.4414
17077SOL    HW252395   3.751   2.413   0.856 -1.5432  0.5392  0.7686
17078SOL     OW52396   1.341   6.176   1.605  0.2159  0.0996  0.0217
17078SOL    HW152397   1.403   6.205   1.538 -0.3814  1.1303 -0.0976
17078SOL    HW252398   1.378   6.093   1.636  1.2252  0.2862 -0.6109
17079SOL     OW52399   6.310   3.854   6.208  0.0060  0.6143  0.4257
17079SOL    HW152400   6.372   3.856   6.281  0.5619  1.1022 -0.0480
17079SOL    HW252401   6.227   3.885   6.246  0.2701  0.7922  0.8684
17080SOL     OW52402   4.295   3.428   2.747  0.4021 -0.2721  0.5046
17080SOL    HW152403   4.357   3.491   2.712  1.8977 -2.2526 -0.5917
17080SOL    HW252404   4.251   3.475   2.818  0.2434  2.5096 -1.2818
17081SOL     OW52405   4.068   0.417   6.362  0.4012 -0.0987 -0.4907
17081SOL    HW152406   4.162   0.399   6.354  0.5360  0.1742  0.3322
17081SOL    HW252407   4.036   0.418   6.272  0.8640 -1.8703 -0.7149
17082SOL     OW52408   5.845   4.481   7.570  0.1878 -0.4141  0.2670
17082SOL    HW152409   5.835   4.569   7.607  2.6503 -0.5297  1.4156
17082SOL    HW252410   5.759   4.460   7.535 -0.9219  1.7853  1.4447
17083SOL     OW52411   4.198   4.512   1.320  0.1328 -0.2696  0.3601
17083SOL    HW152412   4.285   4.517   1.280  0.1340 -0.4728  0.3362
17083SOL    HW252413   4.154   4.593   1.292  0.3085 -0.1741  0.3599
17084SOL     OW52414   5.183   1.163   7.899 -0.6199  0.3520  0.2785
17084SOL    HW152415   5.181   1.078   7.943 -0.3865  0.5949  0.7578
17084SOL    HW252416   5.092   1.193   7.900 -0.8930 -0.3743 -0.8477
17085SOL     OW52417   2.126   6.340   1.934  0.1415 -0.0119  0.0447
17085SOL    HW152418   2.200   6.359   1.990 -0.1971 -0.7696  0.7802
17085SOL    HW252419   2.051   6.335   1.994 -0.0307 -2.0780 -0.2468
17086SOL     OW52420   6.837   1.489   3.335  0.4674 -0.0151 -0.1782
17086SOL    HW152421   6.856   1.460   3.246  0.6749  0.4430 -0.2860
17086SOL    HW252422   6.743   1.508   3.335 -0.2199 -2.9188  0.5323
17087SOL     OW52423   0.992   2.953   7.173  0.0224  0.5018 -0.5713
17087SOL    HW152424   1.046   2.972   7.097  0.0237 -1.1271 -1.0265
17087SOL    HW252425   1.054   2.917   7.237 -0.4102 -0.9451 -0.9311
17088SOL     OW52426   4.824   5.618   8.056 -0.0944 -0.0561  0.3438
17088SOL    HW152427   4.784   5.688   8.005 -0.1142 -0.2140  0.1423
17088SOL    HW252428   4.811   5.539   8.003 -0.0337 -0.2038  0.5489
17089SOL     OW52429   0.141   5.396   8.360  0.2211  0.4260  0.2738
17089SOL    HW152430   0.191   5.384   8.442 -0.8147  0.8754  0.9889
17089SOL    HW252431   0.206   5.426   8.297  0.6616  2.2185  1.5117
17090SOL     OW52432   1.442   1.513   6.724  0.1213 -0.3470 -0.1145
17090SOL    HW152433   1.481   1.472   6.801  2.3814 -0.3936 -1.1855
17090SOL    HW252434   1.504   1.495   6.653 -1.3493  0.5841 -1.7349
17091SOL     OW52435   2.379   0.902   1.754  0.3107  0.3578  0.6257
17091SOL    HW152436   2.351   0.994   1.762 -0.4777  0.0815  1.2033
17091SOL    HW252437   2.353   0.862   1.837  1.3204 -0.2215  0.6683
17092SOL     OW52438   6.005   7.282   7.419  0.1460  0.2496 -0.3187
17092SOL    HW152439   5.913   7.289   7.393  0.1733  0.2012 -0.4304
17092SOL    HW252440   6.042   7.220   7.356  0.3405  0.5459 -0.4961
17093SOL     OW52441   6.703   2.835   4.837 -0.0922 -0.2312 -0.0939
17093SOL    HW152442   6.756   2.770   4.791 -1.0069 -0.8172 -0.3406
17093SOL    HW252443   6.763   2.872   4.903  0.6256 -0.8568 -0.3814
17094SOL     OW52444   4.456   0.931   2.327 -0.0175 -0.0484 -0.6942
17094SOL    HW152445   4.436   0.848   2.284  0.1081 -0.9068  0.7999
17094SOL    HW252446   4.471   0.993   2.256 -2.4012 -0.7105 -1.8705
17095SOL     OW52447   4.282   0.696   8.614  0.4608 -0.1975  0.8464
17095SOL    HW152448   4.240   0.666   8.694  0.0539  2.4698  1.7360
17095SOL    HW252449   4.227   0.663   8.543 -0.0376 -1.2876  1.7172
17096SOL     OW52450   1.595   4.268   5.164  0.7718  0.3249 -0.1221
17096SOL    HW152451   1.624   4.272   5.255  0.3486 -0.9714  0.0890
17096SOL    HW252452   1.568   4.358   5.144  1.9481  0.8790  0.6515
17097SOL     OW52453   6.242   3.796   3.342 -0.3514 -0.2977  0.2048
17097SOL    HW152454   6.179   3.731   3.309 -0.6974 -1.3714  2.7256
17097SOL    HW252455   6.327   3.753   3.333 -0.3411 -0.2187 -0.0918
17098SOL     OW52456   5.981   6.253   6.307  0.3732 -0.3743  0.8309
17098SOL    HW152457   6.044   6.242   6.236  0.8467 -0.2583  1.2253
17098SOL    HW252458   5.896   6.261   6.263  0.8606  1.6811  0.1488
17099SOL     OW52459   6.425   7.462   5.785  0.1918  0.5464  0.0382
17099SOL    HW152460   6.404   7.555   5.794  0.8889  0.5500  2.3326
17099SOL    HW252461   6.361   7.428   5.722 -0.8781  2.3192  0.1150
17100SOL     OW52462   4.459   7.342   5.128  0.5748  0.0065 -0.0262
17100SOL    HW152463   4.477   7.322   5.036 -0.4619  1.2689 -0.5400
17100SOL    HW252464   4.403   7.420   5.125 -0.7613 -0.8256  1.6185
17101SOL     OW52465   6.686   3.978   6.245 -0.4548 -0.4500  0.0130
17101SOL    HW152466   6.704   4.038   6.173 -1.5021  0.7242  0.6898
17101SOL    HW252467   6.745   4.004   6.314 -0.5753 -0.5233  0.1442
17102SOL     OW52468   2.876   0.431   3.800 -0.2194 -0.2379  0.3093
17102SOL    HW152469   2.875   0.470   3.887  0.7530  0.5591 -0.0261
17102SOL    HW252470   2.864   0.504   3.740  0.4150 -0.5958 -0.2754
17103SOL     OW52471   4.137   4.559   0.002 -0.3360  0.1021 -0.8733
17103SOL    HW152472   4.183   4.566  -0.081 -1.0330  1.5931 -1.1705
17103SOL    HW252473   4.128   4.649   0.032  0.9457 -0.4663  1.4341
17104SOL     OW52474   2.590   4.015   7.414  0.0823 -0.4368 -0.1192
17104SOL    HW152475   2.521   3.966   7.369 -0.3732  0.1902 -0.1138
17104SOL    HW252476   2.615   3.960   7.488 -0.6709 -0.5065  0.0901
17105SOL     OW52477   1.738   1.640   6.533 -0.3783 -0.1812 -0.1847
17105SOL    HW152478   1.807   1.677   6.479  0.4117 -0.7361  0.4191
17105SOL    HW252479   1.677   1.601   6.471 -0.1035  0.2266 -0.7183
17106SOL     OW52480   7.027   5.117   7.743 -0.7323  0.1855  0.5692
17106SOL    HW152481   7.095   5.052   7.758 -1.9902 -1.2487  0.2483
17106SOL    HW252482   7.066   5.200   7.773  1.1825 -0.5553  0.2407
17107SOL     OW52483   6.515   5.827   2.053  0.0511  0.6794  0.4145
17107SOL    HW152484   6.429   5.860   2.029 -0.2166 -0.1424  0.2368
17107SOL    HW252485   6.529   5.860   2.142  0.5711  2.7802 -0.3879
17108SOL     OW52486   5.466   1.417   5.019 -0.0849  0.3131 -0.2027
17108SOL    HW152487   5.407   1.384   5.087  0.0738  1.7045  0.6441
17108SOL    HW252488   5.465   1.349   4.951 -2.3690  0.1449 -0.0510
17109SOL     OW52489   2.881   1.270   1.113  0.2788 -0.5650  0.1584
17109SOL    HW152490   2.883   1.179   1.142 -0.1111 -1.0790 -1.3615
17109SOL    HW252491   2.908   1.320   1.190  0.9013 -1.9891  0.9004
17110SOL     OW52492   5.119   8.542   3.503 -0.1399  0.1139 -0.5739
17110SOL    HW152493   5.192   8.483   3.486  0.4389  1.1658 -2.0114
17110SOL    HW252494   5.082   8.560   3.417 -1.6165  0.2305  0.0518
17111SOL     OW52495   8.433   7.949   1.755  0.1203  0.0198 -0.0756
17111SOL    HW152496   8.391   8.033   1.735  1.8327  0.8074 -0.5460
17111SOL    HW252497   8.390   7.919   1.835 -2.3700  0.0022 -1.3188
17112SOL     OW52498   7.442   7.700   1.389  0.6953  0.3278 -0.1994
17112SOL    HW152499   7.471   7.679   1.478  1.1131  1.9818  0.0944
17112SOL    HW252500   7.486   7.782   1.368  2.6714 -1.2481 -2.9606
17113SOL     OW52501   6.304   5.905   4.057 -0.2057 -0.2297 -0.7219
17113SOL    HW152502   6.280   5.998   4.058  0.3640 -0.0763 -0.7401
17113SOL    HW252503   6.356   5.893   4.137  0.5331 -0.3061 -1.2065
17114SOL     OW52504   1.949   2.686   3.233 -0.3194  0.2216  0.4537
17114SOL    HW152505   1.873   2.671   3.177 -0.0787 -0.0937  0.2172
17114SOL    HW252506   1.923   2.652   3.318  0.4672 -2.2232 -0.2232
17115SOL     OW52507   4.377   8.545   6.479 -0.0114 -1.1340  0.0815
17115SOL    HW152508   4.330   8.572   6.558  0.0682 -2.0474  0.4525
17115SOL    HW252509   4.458   8.505   6.512  0.5338 -0.5446 -0.5096
17116SOL     OW52510   7.480   2.184   8.440  0.2828  0.5910 -0.0739
17116SOL    HW152511   7.452   2.092   8.446 -0.0933  0.6730 -0.5101
17116SOL    HW252512   7.400   2.232   8.418  0.6376  0.9187 -0.6750
17117SOL     OW52513   5.979   3.049   5.085 -0.3868 -0.2432  0.2764
17117SOL    HW152514   6.064   3.052   5.040 -0.5297  0.0045  0.0267
17117SOL    HW252515   5.919   3.014   5.020 -0.3263 -1.1616  0.6909
17118SOL     OW52516   8.653   7.719   3.199 -0.1582 -0.1121  0.4504
17118SOL    HW152517   8.745   7.701   3.214 -0.3919 -1.2037  0.6693
17118SOL    HW252518   8.607   7.657   3.256 -1.0210  0.4227  0.3505
17119SOL     OW52519   6.783   4.271   3.368  0.8543  0.1536 -0.2507
17119SOL    HW152520   6.800   4.226   3.451  1.1864 -0.4896 -0.6508
17119SOL    HW252521   6.688   4.276   3.362  0.7785  2.7593  1.4836
17120SOL     OW52522   0.794   8.347   4.042 -0.1662 -0.7385  0.0107
17120SOL    HW152523   0.787   8.379   4.132  0.0510  1.3826 -0.6565
17120SOL    HW252524   0.889   8.343   4.025 -0.1554  1.8898 -1.0241
17121SOL     OW52525   4.517   8.080   8.133  0.3016  0.6801 -0.1130
17121SOL    HW152526   4.517   8.151   8.068  0.0351 -1.4357 -2.5988
17121SOL    HW252527   4.609   8.056   8.141  0.2853  0.6297 -0.0812
17122SOL     OW52528   3.160   2.225   8.414 -0.1673  0.2251 -0.0045
17122SOL    HW152529   3.239   2.202   8.366  0.2984  1.3455  0.2087
17122SOL    HW252530   3.191   2.268   8.494 -0.9212 -1.5706  1.3272
17123SOL     OW52531   1.453   8.706   1.704 -0.3248  0.1935 -0.2530
17123SOL    HW152532   1.499   8.730   1.784  0.5896 -1.3651 -0.2696
17123SOL    HW252533   1.363   8.736   1.717 -0.2945 -0.4059  1.5339
17124SOL     OW52534   8.022   0.565   3.732  0.0659 -1.0334 -0.4015
17124SOL    HW152535   7.972   0.608   3.802 -0.1592  2.4302 -2.4521
17124SOL    HW252536   8.092   0.518   3.778  0.4685  1.7755  2.1906
17125SOL     OW52537   8.312   4.801   4.819 -0.4122  0.7879  0.4216
17125SOL    HW152538   8.328   4.894   4.837  0.2782  1.0287 -1.2501
17125SOL    HW252539   8.275   4.800   4.731 -1.0208 -0.4883  0.6807
17126SOL     OW52540   6.483   7.453   5.292 -0.3778 -0.1940 -0.1006
17126SOL    HW152541   6.472   7.388   5.223 -2.4512 -0.2293  0.1861
17126SOL    HW252542   6.493   7.402   5.372 -0.9143 -0.1852 -0.0201
17127SOL     OW52543   6.239   7.160   6.478  0.0706  0.6725 -0.1354
17127SOL    HW152544   6.210   7.251   6.470 -0.6606  0.3289 -1.6418
17127SOL    HW252545   6.158   7.109   6.471  0.4623 -0.0999  0.8258
17128SOL     OW52546   1.325   1.910   1.938 -0.0443  0.5693 -0.2078
17128SOL    HW152547   1.330   1.985   1.997  0.8135 -0.1666  0.6808
17128SOL    HW252548   1.238   1.917   1.899 -2.0700 -0.6509  3.5657
17129SOL     OW52549   6.754   6.205   1.538  0.2081 -0.1307 -0.3924
17129SOL    HW152550   6.679   6.262   1.520  0.6979  0.7564  0.2389
17129SOL    HW252551   6.715   6.124   1.571 -0.4698  0.6079  0.6992
17130SOL     OW52552   1.449   1.364   6.383 -0.8745  0.1273  0.0759
17130SOL    HW152553   1.502   1.437   6.350  0.1335  1.0130  3.2339
17130SOL    HW252554   1.509   1.290   6.387 -1.0534 -0.0379 -0.3242
17131SOL     OW52555   5.533   3.833   5.126  0.1412  0.0321 -0.0437
17131SOL    HW152556   5.538   3.737   5.123 -1.3184 -0.0466 -0.3541
17131SOL    HW252557   5.473   3.852   5.198 -0.7247  0.6610 -0.9074
17132SOL     OW52558   4.153   1.420   0.166  0.4169  0.1179 -0.2141
17132SOL    HW152559   4.197   1.412   0.251  1.2124  0.4293 -0.5851
17132SOL    HW252560   4.096   1.496   0.175  1.8274  1.2689 -0.4997
17133SOL     OW52561   4.831   2.905   6.059  0.6315  0.6747 -0.1857
17133SOL    HW152562   4.904   2.963   6.035  1.4377 -0.1826  0.1532
17133SOL    HW252563   4.789   2.949   6.132  1.4344  0.6947  0.2771
17134SOL     OW52564   0.964   2.226   1.862 -0.6218  0.3413 -0.4952
17134SOL    HW152565   1.045   2.213   1.812 -1.0972 -1.8632 -0.8002
17134SOL    HW252566   0.989   2.211   1.953 -0.4129  1.0836 -0.4271
17135SOL     OW52567   4.412   8.838   6.786  0.1807 -0.4333 -0.5214
17135SOL    HW152568   4.486   8.786   6.818  0.1766 -1.6381 -2.3012
17135SOL    HW252569   4.339   8.776   6.783 -0.5712  0.4143 -0.0370
17136SOL     OW52570   7.796   6.045   5.446  0.1046  0.3297  0.0427
17136SOL    HW152571   7.871   6.019   5.392 -0.5345 -1.9056  0.1494
17136SOL    HW252572   7.720   6.016   5.396 -0.5238 -1.2660  1.8275
17137SOL     OW52573   4.372   4.483   2.622  0.4196 -0.3388  0.1758
17137SOL    HW152574   4.311   4.471   2.549 -1.7239  0.9904  1.6440
17137SOL    HW252575   4.347   4.566   2.662  2.3133 -0.4252  1.7377
17138SOL     OW52576   7.928   2.729   2.519 -0.1817  0.0480 -0.0640
17138SOL    HW152577   8.002   2.789   2.521 -1.8587  2.2147  1.3245
17138SOL    HW252578   7.937   2.677   2.599 -0.6928  1.0378  0.6501
17139SOL     OW52579   0.781   5.845   5.813 -0.0680 -0.0343 -0.0896
17139SOL    HW152580   0.848   5.884   5.870  0.4732  0.8409 -1.2804
17139SOL    HW252581   0.700   5.855   5.862  0.3441  0.9613  0.4286
17140SOL     OW52582   6.413   6.765   8.029 -0.0418 -0.0360 -0.3380
17140SOL    HW152583   6.351   6.724   8.090  3.0919 -1.2454  2.3362
17140SOL    HW252584   6.440   6.845   8.074 -0.4368  1.0692 -2.0033
17141SOL     OW52585   3.200   7.083   1.830 -0.3348  0.1337  0.2636
17141SOL    HW152586   3.208   6.988   1.822  0.2647  0.1396  0.7311
17141SOL    HW252587   3.282   7.117   1.793 -0.5212  0.4699  0.1475
17142SOL     OW52588   8.105   4.064   3.956  0.3581  0.3792  0.2126
17142SOL    HW152589   8.175   4.107   4.005  1.0689 -1.2481  0.7072
17142SOL    HW252590   8.025   4.106   3.987  1.1063  3.0925 -1.1964
17143SOL     OW52591   7.031   6.920   7.742 -0.3391 -0.2051 -0.6858
17143SOL    HW152592   6.956   6.862   7.753 -0.1512 -1.0031 -3.1415
17143SOL    HW252593   7.038   6.966   7.826 -1.9898 -1.9423  0.4833
17144SOL     OW52594   2.795   4.606   3.770 -0.0268 -0.0157  0.1393
17144SOL    HW152595   2.822   4.518   3.743  1.7951  0.9205 -1.3859
17144SOL    HW252596   2.782   4.599   3.864  2.5807 -1.3893  0.5123
17145SOL     OW52597   2.883   7.078   3.816  0.0954 -0.5429 -0.1392
17145SOL    HW152598   2.797   7.037   3.804 -0.2671  0.5528 -1.4768
17145SOL    HW252599   2.922   7.030   3.890 -1.6356 -1.0857  0.4668
17146SOL     OW52600   5.827   4.203   5.574 -0.5018 -0.1359  0.3381
17146SOL    HW152601   5.899   4.231   5.517 -1.0889  0.7372  0.0075
17146SOL    HW252602   5.870   4.170   5.653  0.3957 -2.3157 -0.9567
17147SOL     OW52603   8.466   0.099   5.433 -0.5652 -0.0641  0.2411
17147SOL    HW152604   8.442   0.007   5.421  0.1293 -0.2909  0.5042
17147SOL    HW252605   8.459   0.137   5.346  0.8043 -0.7908 -0.2184
17148SOL     OW52606   7.928   1.749   2.159  0.8076 -0.2995 -0.1965
17148SOL    HW152607   7.839   1.761   2.190  1.0508  1.3433 -0.0440
17148SOL    HW252608   7.930   1.791   2.073  1.3233 -0.7500 -0.4141
17149SOL     OW52609   1.220   2.984   6.565 -0.3972  0.1811  0.7243
17149SOL    HW152610   1.293   2.972   6.625 -0.4597  0.7705  0.9290
17149SOL    HW252611   1.188   2.896   6.547  0.2069 -0.0626  0.8252
17150SOL     OW52612   3.050   6.531   6.057 -0.2775 -0.0219 -0.1883
17150SOL    HW152613   2.974   6.515   6.113  0.7981 -0.9855  1.0295
17150SOL    HW252614   3.079   6.620   6.081  0.2110 -0.4487  0.8502
17151SOL     OW52615   5.534   8.211   7.075  0.1650 -0.7756  0.0346
17151SOL    HW152616   5.567   8.292   7.035 -1.1548 -0.0846  0.3158
17151SOL    HW252617   5.534   8.229   7.169 -1.5669 -0.5405  0.0052
17152SOL     OW52618   4.256   5.946   8.434 -0.8944 -0.2023  0.3964
17152SOL    HW152619   4.258   6.025   8.488 -2.2285 -0.3847  0.7536
17152SOL    HW252620   4.226   5.976   8.349 -0.2628 -0.1531  0.1857
17153SOL     OW52621   5.605   8.039   5.695  0.1329  0.1241  0.5346
17153SOL    HW152622   5.672   7.974   5.714 -0.5346 -0.8699 -0.4055
17153SOL    HW252623   5.556   8.003   5.622 -2.4301  0.0547  2.1437
17154SOL     OW52624   3.681   6.616   8.761 -0.2282  0.6205 -0.1668
17154SOL    HW152625   3.722   6.636   8.845  1.6752  0.3238 -0.9835
17154SOL    HW252626   3.650   6.701   8.729 -1.6972  0.6313  1.1487
17155SOL     OW52627   7.938   0.925   1.478  0.0140  0.2415  0.3737
17155SOL    HW152628   8.000   0.971   1.422  1.4160 -0.5759  1.1844
17155SOL    HW252629   7.867   0.988   1.492 -0.7208  0.2779 -2.7361
17156SOL     OW52630   6.662   3.887   0.666  0.0506  0.4784 -0.6289
17156SOL    HW152631   6.585   3.832   0.681  1.1676 -0.6294  1.6058
17156SOL    HW252632   6.701   3.852   0.585  0.2254 -1.5043  0.2558
17157SOL     OW52633   0.132   7.840   1.280  0.2065  0.5283  0.0400
17157SOL    HW152634   0.198   7.820   1.346  1.1420  2.3480 -0.2596
17157SOL    HW252635   0.179   7.838   1.197  0.1016  2.5085 -0.1182
17158SOL     OW52636   3.372   4.413   0.111 -0.2446  0.5856 -0.4631
17158SOL    HW152637   3.382   4.329   0.067  2.7202  1.0315 -0.7845
17158SOL    HW252638   3.354   4.390   0.202  2.4102 -0.5047 -0.1430
17159SOL     OW52639   2.243   3.481   1.445  0.0605  0.1542 -0.2433
17159SOL    HW152640   2.228   3.391   1.417 -2.4855  0.1365  0.9396
17159SOL    HW252641   2.335   3.496   1.425  0.3754 -2.4223 -1.2141
17160SOL     OW52642   0.073   4.374   3.316 -0.0990 -0.0733  0.1650
17160SOL    HW152643   0.155   4.391   3.362 -0.0772 -0.6222  0.3388
17160SOL    HW252644   0.059   4.280   3.327 -2.1620  0.4201  2.5050
17161SOL     OW52645   3.333   1.349   4.923 -0.1412 -0.6354 -0.2318
17161SOL    HW152646   3.378   1.292   4.985  1.2977  2.0712  1.4142
17161SOL    HW252647   3.403   1.396   4.878 -1.2485 -0.1183 -1.4726
17162SOL     OW52648   5.816   2.957   0.954 -0.1133 -0.3360 -0.0045
17162SOL    HW152649   5.756   2.889   0.922 -0.4865  0.2879 -0.6610
17162SOL    HW252650   5.862   2.916   1.028 -0.1176 -1.4040 -0.5723
17163SOL     OW52651   3.435   3.645   4.897  0.2948  0.0957  0.1284
17163SOL    HW152652   3.470   3.703   4.830 -0.0194  0.0030 -0.1210
17163SOL    HW252653   3.504   3.580   4.911  0.3804  0.1437 -0.0682
17164SOL     OW52654   3.795   5.620   5.602  0.1410  0.2978  0.2723
17164SOL    HW152655   3.889   5.639   5.609 -0.0082  1.1812 -0.0259
17164SOL    HW252656   3.790   5.524   5.600  1.0542  0.2457  0.0758
17165SOL     OW52657   1.449   6.678   4.041 -0.0388  0.5495  0.1397
17165SOL    HW152658   1.401   6.599   4.068 -1.2016  1.0437 -0.4305
17165SOL    HW252659   1.526   6.679   4.097 -0.2608 -0.7292  0.5020
17166SOL     OW52660   5.524   4.653   4.473  0.1018  0.2230  0.3523
17166SOL    HW152661   5.617   4.668   4.492  0.0029  0.3774  0.7252
17166SOL    HW252662   5.524   4.589   4.402  0.5310  1.6517 -0.9982
17167SOL     OW52663   8.200   0.369   5.552  0.3378 -0.0620  0.4604
17167SOL    HW152664   8.227   0.359   5.461 -0.2347  0.9755  0.1658
17167SOL    HW252665   8.208   0.281   5.589 -1.5380 -0.9987 -1.1805
17168SOL     OW52666   6.078   6.395   3.633  0.3242 -0.4470  0.3318
17168SOL    HW152667   6.161   6.427   3.669  0.8434 -0.6882 -0.6088
17168SOL    HW252668   6.030   6.363   3.709  0.4961  0.9881  1.0779
17169SOL     OW52669   2.355   7.725   5.476  0.1073  0.0804  0.5170
17169SOL    HW152670   2.341   7.679   5.559  0.3205  0.3027  0.6775
17169SOL    HW252671   2.385   7.812   5.501 -1.5264  0.7583  0.2358
17170SOL     OW52672   7.526   1.596   7.801 -0.1878  0.1767  0.5601
17170SOL    HW152673   7.472   1.664   7.760 -1.1433 -0.3002  0.9910
17170SOL    HW252674   7.614   1.612   7.767 -1.1271 -1.0453 -2.8180
17171SOL     OW52675   5.555   3.176   4.893  0.4950 -0.3212  0.3757
17171SOL    HW152676   5.648   3.195   4.886  0.8301 -1.7865  0.6345
17171SOL    HW252677   5.550   3.094   4.941 -1.0947  1.3065  3.3113
17172SOL     OW52678   8.153   6.336   5.346 -0.1495 -0.3336 -0.7555
17172SOL    HW152679   8.066   6.321   5.310  0.6220 -2.3112 -1.9918
17172SOL    HW252680   8.181   6.250   5.378  1.7004  0.0250 -1.2594
17173SOL     OW52681   1.778   7.548   1.819  0.0671  0.2932 -0.2327
17173SOL    HW152682   1.698   7.503   1.792  0.7979 -0.5081 -1.1129
17173SOL    HW252683   1.847   7.483   1.810  0.6780  0.6199  1.6316
17174SOL     OW52684   0.320   8.459   6.029 -0.6143 -0.1454 -0.4341
17174SOL    HW152685   0.244   8.412   6.065 -0.7702  0.3314 -0.1286
17174SOL    HW252686   0.382   8.462   6.101 -0.2128 -0.7083 -0.7444
17175SOL     OW52687   7.251   0.997   2.769 -0.6131  0.1350  0.2207
17175SOL    HW152688   7.173   0.946   2.790 -0.7132  1.4520  3.6285
17175SOL    HW252689   7.312   0.979   2.840  1.7579  0.1790 -1.6554
17176SOL     OW52690   8.123   1.765   7.794 -0.2691 -0.5932 -0.3742
17176SOL    HW152691   8.173   1.799   7.869 -0.3558 -3.1547  0.9356
17176SOL    HW252692   8.098   1.844   7.745  0.1172  1.1557  2.0551
17177SOL     OW52693   4.992   0.497   2.179 -0.1537 -0.2246 -0.6715
17177SOL    HW152694   5.067   0.467   2.230  1.3321  0.6466 -2.2546
17177SOL    HW252695   4.923   0.511   2.244  0.7576 -1.8809  0.7154
17178SOL     OW52696   8.470   2.180   8.387 -0.3916 -0.2620 -0.5168
17178SOL    HW152697   8.414   2.214   8.317 -0.2636  0.0475 -0.4742
17178SOL    HW252698   8.558   2.178   8.349 -0.3497 -0.2579 -0.4229
17179SOL     OW52699   5.385   0.051   1.187 -0.1274 -1.3867 -0.0292
17179SOL    HW152700   5.456   0.021   1.245 -0.1809 -0.7316  0.3870
17179SOL    HW252701   5.429   0.086   1.110  0.1986  1.5033  1.3480
17180SOL     OW52702   2.752   8.811   6.209 -0.3782 -0.0296 -0.5695
17180SOL    HW152703   2.807   8.812   6.287  0.6660 -1.5789 -1.2461
17180SOL    HW252704   2.663   8.826   6.243  0.0149 -0.9300  0.9627
17181SOL     OW52705   7.130   4.000   8.237 -0.0215 -0.8614 -0.3726
17181SOL    HW152706   7.069   4.071   8.257 -1.7811 -2.5478  0.6396
17181SOL    HW252707   7.180   4.031   8.161 -0.5166  1.5207  0.1949
17182SOL     OW52708   4.078   2.186   7.252  0.0696  0.4572  0.1153
17182SOL    HW152709   4.034   2.224   7.175 -0.9127 -0.5542  0.1467
17182SOL    HW252710   4.031   2.104   7.267  0.1024  0.7475  1.9428
17183SOL     OW52711   3.326   0.844   1.928  0.2657  0.0597  0.3909
17183SOL    HW152712   3.347   0.840   1.834  0.2634 -0.3648  0.4066
17183SOL    HW252713   3.411   0.849   1.971  0.2476  1.1796  0.3328
17184SOL     OW52714   7.126   1.339   7.331  0.1852  0.8661  0.0240
17184SOL    HW152715   7.173   1.388   7.264  1.2282 -0.3410 -0.1774
17184SOL    HW252716   7.095   1.405   7.393 -1.1008  2.0419 -1.7879
17185SOL     OW52717   6.971   2.081   0.585 -0.4612 -0.3988  0.3066
17185SOL    HW152718   6.966   2.027   0.664 -0.7070  0.6054  1.0135
17185SOL    HW252719   7.059   2.066   0.551 -0.1294 -0.4047  1.1263
17186SOL     OW52720   3.526   8.594   2.538 -0.9034 -0.4552  0.4832
17186SOL    HW152721   3.550   8.531   2.470 -0.7665  0.2626 -0.1504
17186SOL    HW252722   3.431   8.600   2.533 -0.8888 -0.3650  0.3251
17187SOL     OW52723   8.249   6.876   1.842  0.3585  0.6215  0.1706
17187SOL    HW152724   8.186   6.891   1.912  0.7425  2.0956  0.2404
17187SOL    HW252725   8.219   6.796   1.798  0.5254 -0.7696  2.4464
17188SOL     OW52726   1.053   7.979   5.877  0.0098  0.1760 -0.6651
17188SOL    HW152727   0.970   8.022   5.856  0.5877  0.9950 -1.3249
17188SOL    HW252728   1.117   8.021   5.820  1.1237  0.4408  0.7315
17189SOL     OW52729   2.175   2.452   2.800  0.4525 -0.3358  0.2369
17189SOL    HW152730   2.156   2.359   2.786 -2.5337  0.4111 -1.5351
17189SOL    HW252731   2.168   2.463   2.895 -0.8326 -1.6565  0.3478
17190SOL     OW52732   6.560   6.412   7.297  0.0115 -0.0185 -0.0068
17190SOL    HW152733   6.645   6.417   7.340 -0.1934 -0.3561  0.4564
17190SOL    HW252734   6.579   6.419   7.204  0.4555  0.8443  0.1456
17191SOL     OW52735   6.569   2.700   6.932  0.5664 -0.4308 -0.6752
17191SOL    HW152736   6.563   2.654   7.016 -0.2306  1.1899  0.2182
17191SOL    HW252737   6.662   2.720   6.922  0.4080  1.8305  1.3186
17192SOL     OW52738   3.674   1.320   7.019  0.1335 -0.1535 -0.4945
17192SOL    HW152739   3.686   1.386   7.088  2.4977  1.2885 -2.1089
17192SOL    HW252740   3.683   1.236   7.064  3.2266  0.7434  0.8330
17193SOL     OW52741   6.213   4.985   7.066  0.2818  0.1341 -0.0831
17193SOL    HW152742   6.227   5.064   7.014 -1.8009  1.1516  0.7909
17193SOL    HW252743   6.158   4.929   7.011 -0.5467  0.5082  0.3420
17194SOL     OW52744   1.910   3.129   8.391 -0.9255 -0.0566  0.1244
17194SOL    HW152745   1.894   3.083   8.308 -1.8594  2.8627 -1.5019
17194SOL    HW252746   1.992   3.092   8.424 -1.6629 -2.8538 -0.9279
17195SOL     OW52747   1.742   0.060   3.799 -0.2341  0.3245 -0.3247
17195SOL    HW152748   1.704   0.148   3.800  0.5057  0.6828 -1.5492
17195SOL    HW252749   1.791   0.056   3.716  0.9332 -0.7318  0.3854
17196SOL     OW52750   0.884   8.814   1.179  0.1206  0.3372 -0.3917
17196SOL    HW152751   0.972   8.783   1.161  0.1370 -0.3548  0.7452
17196SOL    HW252752   0.892   8.867   1.258 -0.7681 -1.5516  1.0558
17197SOL     OW52753   1.311   0.081   1.358  0.1082  0.0123 -0.1407
17197SOL    HW152754   1.391   0.121   1.392 -0.4607 -0.3653  1.7880
17197SOL    HW252755   1.259   0.062   1.436 -2.1265  0.7500 -1.3630
17198SOL     OW52756   8.552   0.061   3.037  1.2192 -1.0079  0.6361
17198SOL    HW152757   8.503   0.099   3.109  2.6136 -0.3704  1.2888
17198SOL    HW252758   8.511  -0.025   3.022 -0.1594 -0.4367  1.0304
17199SOL     OW52759   2.222   0.516   0.304  0.0671 -0.1455 -0.0728
17199SOL    HW152760   2.150   0.478   0.254 -0.2103  0.0854  0.1493
17199SOL    HW252761   2.182   0.587   0.355  0.5807  0.4592 -0.4943
17200SOL     OW52762   1.317   8.238   6.616 -0.1243  0.3033  0.1340
17200SOL    HW152763   1.405   8.215   6.646  0.2007  0.8109 -0.4192
17200SOL    HW252764   1.317   8.216   6.523 -0.3541  0.9645 -0.0253
17201SOL     OW52765   3.714   5.674   6.590 -0.1928 -0.0180 -0.0522
17201SOL    HW152766   3.645   5.641   6.647  0.7135 -0.7951  0.6432
17201SOL    HW252767   3.774   5.599   6.580  0.8452  0.8055 -0.1489
17202SOL     OW52768   3.401   2.586   4.544  0.1489 -0.1688 -0.5152
17202SOL    HW152769   3.447   2.647   4.602  0.2077  0.9591 -1.7116
17202SOL    HW252770   3.327   2.556   4.596  1.7667 -1.4936  1.2099
17203SOL     OW52771   7.861   7.864   4.738  0.3564 -0.1972  0.0693
17203SOL    HW152772   7.779   7.856   4.787  0.3672  1.4863  0.4206
17203SOL    HW252773   7.840   7.833   4.650  0.0815 -2.3557  0.8346
17204SOL     OW52774   1.418   5.756   2.424  0.0889 -0.4439  0.6930
17204SOL    HW152775   1.446   5.791   2.508  0.8850 -0.2232  0.3499
17204SOL    HW252776   1.340   5.705   2.444  1.7017 -2.5912  2.0278
17205SOL     OW52777   2.454   4.743   4.251 -0.0273 -0.2616  0.3394
17205SOL    HW152778   2.432   4.828   4.290  1.4276  0.6463 -0.6921
17205SOL    HW252779   2.370   4.698   4.243 -0.8643  1.1392  0.7508
17206SOL     OW52780   4.558   6.833   4.735  0.9291  0.2216 -0.1713
17206SOL    HW152781   4.503   6.826   4.656 -0.4857  1.0033  0.7141
17206SOL    HW252782   4.527   6.763   4.792  0.9008  0.6182  0.3042
17207SOL     OW52783   3.954   7.236   2.222 -0.5202  0.5522  0.1670
17207SOL    HW152784   3.984   7.171   2.159 -1.9850 -0.2089  0.2181
17207SOL    HW252785   3.967   7.320   2.177  0.0564  0.1357 -0.4573
17208SOL     OW52786   5.281   3.473   3.155 -0.3544  0.3788 -0.0782
17208SOL    HW152787   5.316   3.405   3.098  1.9687 -0.4670  2.1606
17208SOL    HW252788   5.297   3.555   3.108  0.4990 -0.3658 -1.1238
17209SOL     OW52789   1.191   5.609   2.469 -0.0128  0.1329 -0.2313
17209SOL    HW152790   1.198   5.540   2.403 -0.0713  1.6217 -1.8803
17209SOL    HW252791   1.153   5.567   2.545  0.5588 -1.7828 -0.9578
17210SOL     OW52792   1.066   6.362   1.496  0.0185  0.0227  0.1872
17210SOL    HW152793   1.156   6.352   1.527  0.1638  0.8475  0.0491
17210SOL    HW252794   1.074   6.383   1.404 -0.2299  1.7551  0.5302
17211SOL     OW52795   4.497   3.744   0.307  0.4869  0.0528  0.3300
17211SOL    HW152796   4.470   3.677   0.369 -1.8355 -1.4487 -2.0569
17211SOL    HW252797   4.483   3.827   0.353 -1.4192 -0.9703  1.7547
17212SOL     OW52798   2.640   0.817   8.345  0.5488 -0.2163 -0.8886
17212SOL    HW152799   2.590   0.774   8.276 -3.0719  1.1671  0.6392
17212SOL    HW252800   2.647   0.908   8.316  0.7602 -0.0559 -0.3399
17213SOL     OW52801   2.674   1.538   0.108 -0.1833  0.5308  0.0484
17213SOL    HW152802   2.712   1.584   0.033 -1.7932 -0.7145 -1.6112
17213SOL    HW252803   2.603   1.485   0.071 -0.0202 -1.3744  2.2138
17214SOL     OW52804   3.728   4.659   1.617  0.0399 -0.0465  0.6167
17214SOL    HW152805   3.696   4.658   1.527 -1.3373 -1.3642  1.0869
17214SOL    HW252806   3.770   4.573   1.628 -1.3405 -0.6105  1.7351
17215SOL     OW52807   6.240   0.306   5.793  0.6562 -0.3124  0.2063
17215SOL    HW152808   6.231   0.401   5.808  0.7603 -0.0236 -1.3673
17215SOL    HW252809   6.156   0.270   5.819  0.3117  0.3382  0.0344
17216SOL     OW52810   3.134   7.904   3.377 -0.3035  0.1016 -0.2068
17216SOL    HW152811   3.085   7.919   3.296  1.1819  0.3208 -1.0941
17216SOL    HW252812   3.208   7.850   3.350 -0.2670 -0.5810  1.1816
17217SOL     OW52813   1.993   7.961   7.632  0.0782  0.1192 -0.0221
17217SOL    HW152814   2.007   7.867   7.642  2.1853  0.1803 -1.5433
17217SOL    HW252815   1.907   7.977   7.669 -1.8462 -2.9616 -2.5957
17218SOL     OW52816   6.791   1.379   7.444 -0.3489 -0.4870 -0.4519
17218SOL    HW152817   6.772   1.464   7.403 -2.4974  0.2654  1.8391
17218SOL    HW252818   6.706   1.350   7.479  0.8751 -2.2151  1.2849
17219SOL     OW52819   2.903   5.781   4.201 -0.3651  0.1818 -0.9420
17219SOL    HW152820   2.902   5.820   4.113  0.3152  0.2283 -0.9386
17219SOL    HW252821   2.945   5.848   4.256  2.5603 -1.1966 -1.2768
17220SOL     OW52822   4.156   4.416   0.362  0.1911 -0.2314  0.6505
17220SOL    HW152823   4.151   4.326   0.394 -1.5190 -0.7565 -0.8828
17220SOL    HW252824   4.152   4.470   0.441 -1.3119 -1.4738  1.4802
17221SOL     OW52825   4.525   0.063   6.168 -0.1206 -0.0245 -0.5287
17221SOL    HW152826   4.594   0.062   6.234 -1.0026  0.3535  0.4082
17221SOL    HW252827   4.454   0.013   6.206 -0.2131 -0.8025 -1.6799
17222SOL     OW52828   4.909   0.307   0.342 -0.0159 -0.0842 -1.1556
17222SOL    HW152829   4.846   0.270   0.404 -1.5122  2.7951 -0.7818
17222SOL    HW252830   4.895   0.257   0.261 -2.9078  0.4754 -1.1122
17223SOL     OW52831   7.989   2.631   8.199 -0.6216 -0.1614 -0.0370
17223SOL    HW152832   7.983   2.554   8.254 -0.8427 -0.6327 -0.7115
17223SOL    HW252833   8.037   2.695   8.252 -0.8919 -0.5779  0.7202
17224SOL     OW52834   7.713   7.861   6.034 -0.2365 -0.0651 -0.0530
17224SOL    HW152835   7.720   7.953   6.007 -0.1502 -0.2037 -0.5135
17224SOL    HW252836   7.708   7.864   6.130 -0.8808  0.4599 -0.0963
17225SOL     OW52837   0.437   3.036   8.467 -0.1889  0.0233 -0.5955
17225SOL    HW152838   0.489   3.097   8.414  1.0190 -0.3514  0.1282
17225SOL    HW252839   0.418   3.085   8.547 -2.2700  0.6989 -1.4449
17226SOL     OW52840   5.582   7.951   7.684 -0.0458  0.0777  0.2851
17226SOL    HW152841   5.513   7.958   7.618 -0.4522  0.0460  0.6977
17226SOL    HW252842   5.572   7.863   7.721 -1.3098  0.8477  1.9587
17227SOL     OW52843   6.198   7.769   4.055  0.5623 -0.3586  0.2583
17227SOL    HW152844   6.128   7.833   4.067  0.9692  0.8138 -2.6749
17227SOL    HW252845   6.154   7.684   4.056 -0.6240  0.2357  0.2094
17228SOL     OW52846   3.552   4.487   5.220 -0.0747  0.0315 -0.6616
17228SOL    HW152847   3.647   4.497   5.226 -0.2127  2.2126 -0.9952
17228SOL    HW252848   3.518   4.527   5.300 -0.7171 -0.6322 -0.5943
17229SOL     OW52849   8.128   2.569   1.051 -0.6016  0.2298 -0.2316
17229SOL    HW152850   8.079   2.543   1.130 -0.2123 -0.7927 -0.3132
17229SOL    HW252851   8.061   2.605   0.992 -0.8582  1.2517  0.6491
17230SOL     OW52852   3.419   2.130   3.989 -0.1916  0.3507  0.1015
17230SOL    HW152853   3.332   2.166   4.005  0.2214  1.3142  0.2243
17230SOL    HW252854   3.414   2.040   4.020 -1.9352 -0.5081 -2.3213
17231SOL     OW52855   7.137   0.878   1.887 -0.0958 -0.5179  0.2894
17231SOL    HW152856   7.151   0.784   1.904  3.2767  0.1511  2.0267
17231SOL    HW252857   7.073   0.904   1.953 -2.1059 -1.7239 -1.0392
17232SOL     OW52858   2.345   0.358   6.686 -0.0109 -0.0841  0.5298
17232SOL    HW152859   2.291   0.285   6.719  1.7158 -1.4466  0.4991
17232SOL    HW252860   2.376   0.401   6.765  1.4023 -1.2815  0.6676
17233SOL     OW52861   7.254   2.938   3.861  0.5616  0.6880 -0.2254
17233SOL    HW152862   7.329   2.953   3.919  0.2424 -0.7776  0.6103
17233SOL    HW252863   7.259   2.845   3.840 -1.4658  0.3830  0.4698
17234SOL     OW52864   8.410   2.743   0.864 -0.2117  0.2660  0.4660
17234SOL    HW152865   8.422   2.668   0.923  0.7590  0.8612  1.0544
17234SOL    HW252866   8.486   2.799   0.880  0.9093 -0.2438 -2.4375
17235SOL     OW52867   7.771   5.364   6.165  0.0184 -0.1001 -0.3693
17235SOL    HW152868   7.690   5.319   6.140  0.1424 -1.2393  1.1172
17235SOL    HW252869   7.749   5.409   6.247  1.1357 -1.3503  0.6702
17236SOL     OW52870   3.145   2.371   2.388  0.1905 -0.6222 -0.0583
17236SOL    HW152871   3.145   2.424   2.308 -0.3923 -0.9835 -0.3014
17236SOL    HW252872   3.137   2.435   2.459 -0.5448 -0.3771 -0.3510
17237SOL     OW52873   7.253   8.665   4.665 -0.0259  0.6039 -0.3609
17237SOL    HW152874   7.314   8.702   4.729 -0.0853 -0.2448  0.2026
17237SOL    HW252875   7.300   8.672   4.582 -0.3389  2.6162 -0.4298
17238SOL     OW52876   4.029   5.826   7.837  0.0319 -0.4262  0.3824
17238SOL    HW152877   3.981   5.770   7.898 -0.6869 -0.9491 -0.6258
17238SOL    HW252878   4.106   5.854   7.886 -1.0433  0.0411  1.8848
17239SOL     OW52879   3.597   0.411   1.526  0.4107 -0.0233  0.7537
17239SOL    HW152880   3.644   0.446   1.602  0.2056  0.3401  0.7202
17239SOL    HW252881   3.664   0.372   1.471  1.0131  2.3812 -0.3535
17240SOL     OW52882   7.440   3.775   3.388  0.1174 -0.1649 -0.0764
17240SOL    HW152883   7.384   3.702   3.411  0.3853 -0.3070  0.1306
17240SOL    HW252884   7.522   3.734   3.360 -0.2372 -0.0158 -1.4418
17241SOL     OW52885   8.176   5.642   7.227  0.0749  0.3257 -0.0138
17241SOL    HW152886   8.200   5.690   7.306  0.4466 -0.8483  0.6116
17241SOL    HW252887   8.259   5.630   7.181 -0.0384  0.4187 -0.2426
17242SOL     OW52888   5.511   6.674   5.684  0.8238  0.1161  0.1524
17242SOL    HW152889   5.605   6.686   5.687  0.9308 -0.2179 -1.2512
17242SOL    HW252890   5.492   6.655   5.592 -0.3773 -1.5780  0.6996
17243SOL     OW52891   8.367   8.260   8.680 -0.0694  0.0351  0.0223
17243SOL    HW152892   8.410   8.310   8.750  1.2149 -2.4633  1.1526
17243SOL    HW252893   8.355   8.173   8.717 -2.3785 -0.5137 -1.7887
17244SOL     OW52894   2.989   6.302   5.076 -0.4149 -0.2811  0.7066
17244SOL    HW152895   3.049   6.334   5.143 -0.9765 -0.0706  1.1195
17244SOL    HW252896   3.024   6.217   5.051  0.1666 -0.0687  0.7917
17245SOL     OW52897   1.174   1.819   2.898 -0.4061  0.0231  0.4820
17245SOL    HW152898   1.118   1.835   2.822  0.0449  2.1668  0.5366
17245SOL    HW252899   1.113   1.814   2.972 -0.6443  1.1556  0.3822
17246SOL     OW52900   0.664   2.109   3.304  0.3500 -0.0064 -0.1044
17246SOL    HW152901   0.598   2.108   3.235  0.6155  0.6516 -0.3731
17246SOL    HW252902   0.616   2.086   3.383  0.0299 -0.7063 -0.4906
17247SOL     OW52903   4.861   1.462   3.779 -0.8564 -0.2924  0.1605
17247SOL    HW152904   4.913   1.519   3.835 -0.4186 -0.0642 -0.4611
17247SOL    HW252905   4.816   1.403   3.839 -1.6644  0.9851  0.8536
17248SOL     OW52906   4.338   4.299   2.166 -0.5168 -0.1520  0.1815
17248SOL    HW152907   4.374   4.348   2.091  1.6040 -1.0951  0.5223
17248SOL    HW252908   4.328   4.210   2.134  2.4020 -1.0767  1.4933
17249SOL     OW52909   1.882   2.059   6.682 -0.3804  0.6796  0.0996
17249SOL    HW152910   1.827   2.113   6.739 -0.1443 -1.1255  2.1050
17249SOL    HW252911   1.848   1.971   6.691  0.9035  0.0215 -1.0802
17250SOL     OW52912   0.510   7.984   6.497 -0.1484 -0.2894 -0.5230
17250SOL    HW152913   0.531   8.077   6.493  0.6752 -0.5121 -2.6077
17250SOL    HW252914   0.458   7.968   6.418 -1.3648 -1.3766  0.4440
17251SOL     OW52915   4.523   0.779   0.797 -0.0947  0.6365  0.1835
17251SOL    HW152916   4.494   0.689   0.786 -0.1930  0.7693 -0.7224
17251SOL    HW252917   4.509   0.798   0.889  0.8234 -0.5822  0.5984
17252SOL     OW52918   7.114   6.729   5.094  1.0116 -0.1704 -0.8524
17252SOL    HW152919   7.172   6.741   5.019  1.2390  2.2548 -0.3686
17252SOL    HW252920   7.041   6.788   5.078  0.3346 -0.7090  0.1389
17253SOL     OW52921   1.328   5.919   0.453  0.1168  0.6799 -0.5328
17253SOL    HW152922   1.315   5.985   0.521 -1.3511  0.8690 -0.9568
17253SOL    HW252923   1.322   5.967   0.371  2.5697  0.5717 -0.8559
17254SOL     OW52924   1.112   4.462   3.263  0.5223  0.3621 -0.0792
17254SOL    HW152925   1.084   4.388   3.210 -0.5647  0.4487  0.3423
17254SOL    HW252926   1.190   4.431   3.309  0.1488 -0.4824 -0.0005
17255SOL     OW52927   5.955   8.850   2.985 -0.2200  0.0422  0.0104
17255SOL    HW152928   6.031   8.869   2.930 -1.1293  0.8982 -0.9994
17255SOL    HW252929   5.992   8.839   3.073  0.9316  1.8751 -0.1804
17256SOL     OW52930   5.036   7.964   0.861  0.0685  0.1604  0.1001
17256SOL    HW152931   5.091   7.891   0.834 -0.2164 -0.3179  0.7834
17256SOL    HW252932   5.096   8.037   0.872  0.2981  0.1540 -1.0065
17257SOL     OW52933   4.856   8.698   8.285 -0.0222 -0.4490 -0.0885
17257SOL    HW152934   4.874   8.753   8.209  0.2238 -1.9949 -1.2089
17257SOL    HW252935   4.778   8.736   8.325  0.2148  0.7638 -0.7252
17258SOL     OW52936   4.556   6.371   3.483  0.7615 -0.0242  0.1443
17258SOL    HW152937   4.573   6.284   3.449  2.5552  1.0379 -1.8751
17258SOL    HW252938   4.522   6.356   3.572 -0.2754 -2.7676 -0.6274
17259SOL     OW52939   5.441   4.621   7.508  0.0888 -0.8610 -0.4270
17259SOL    HW152940   5.396   4.700   7.477 -1.6293 -2.3281 -1.9805
17259SOL    HW252941   5.450   4.567   7.429  0.6011 -2.4806  0.6972
17260SOL     OW52942   4.886   0.793   3.666  0.2501 -0.1798 -0.1183
17260SOL    HW152943   4.906   0.883   3.690  1.6030  0.0039 -1.7114
17260SOL    HW252944   4.796   0.796   3.634  1.2666  1.3591 -3.2094
17261SOL     OW52945   7.262   3.606   5.046 -0.3558  0.2206 -0.1987
17261SOL    HW152946   7.250   3.632   4.955  0.4397  1.6910  0.0930
17261SOL    HW252947   7.174   3.588   5.078 -0.5574 -1.5392 -1.5735
17262SOL     OW52948   0.628   5.981   2.128 -0.2934 -0.1713 -0.0264
17262SOL    HW152949   0.606   6.064   2.172 -0.6112 -0.1439 -0.2328
17262SOL    HW252950   0.724   5.981   2.125 -0.2326 -0.5742  1.4217
17263SOL     OW52951   6.499   1.707   6.913  0.0196 -0.0245 -0.0880
17263SOL    HW152952   6.548   1.673   6.839 -0.8818 -1.0440 -0.2442
17263SOL    HW252953   6.543   1.789   6.936  2.3700 -1.3254  0.3822
17264SOL     OW52954   4.464   3.513   7.993 -0.7245 -0.4772  0.0890
17264SOL    HW152955   4.418   3.433   8.020 -0.6711 -0.9553 -1.1710
17264SOL    HW252956   4.485   3.499   7.900  2.3626 -0.4824  0.6689
17265SOL     OW52957   6.299   1.551   1.067 -0.0185 -0.4597  0.1123
17265SOL    HW152958   6.334   1.465   1.043  0.6661 -0.1764  0.0882
17265SOL    HW252959   6.375   1.602   1.093 -0.0408  0.9663 -2.3246
17266SOL     OW52960   7.139   5.107   2.032 -0.1258  0.1089 -0.3012
17266SOL    HW152961   7.220   5.060   2.047 -1.0287 -1.2310  0.6330
17266SOL    HW252962   7.085   5.045   1.982 -1.1854  0.2725  0.5945
17267SOL     OW52963   4.659   6.009   7.252 -0.4848 -0.0469  0.2504
17267SOL    HW152964   4.653   5.948   7.326 -1.6065  0.1755  0.3685
17267SOL    HW252965   4.692   5.956   7.180 -2.2100 -1.0508  0.1299
17268SOL     OW52966   4.439   0.500   1.011  0.4120 -0.1074 -0.0023
17268SOL    HW152967   4.452   0.594   1.027  3.8334 -0.4418  0.0123
17268SOL    HW252968   4.491   0.482   0.932 -2.7077 -1.5255 -1.9211
17269SOL     OW52969   6.994   7.681   5.319 -0.0971  0.2757 -0.0808
17269SOL    HW152970   6.957   7.647   5.400  0.4144 -0.1495 -0.0152
17269SOL    HW252971   6.993   7.606   5.259 -1.4820  0.8636 -0.8384
17270SOL     OW52972   0.496   1.965   6.158 -0.4218  0.9713  0.4274
17270SOL    HW152973   0.476   1.951   6.251 -0.4512  0.6362  0.3699
17270SOL    HW252974   0.586   1.998   6.158  0.2619 -0.7848  0.4575
17271SOL     OW52975   1.825   0.579   0.831  0.1553  0.1246  0.7279
17271SOL    HW152976   1.774   0.657   0.812  1.9809  1.0699 -0.5350
17271SOL    HW252977   1.863   0.595   0.918  0.9342  0.8956  0.2564
17272SOL     OW52978   5.749   1.479   6.514 -0.4013 -0.1349  0.1493
17272SOL    HW152979   5.806   1.548   6.479 -0.3327 -0.2803 -0.0245
17272SOL    HW252980   5.684   1.527   6.567  1.8121 -0.1578  3.1482
17273SOL     OW52981   6.976   0.716   5.265  0.0327 -0.0455  0.0330
17273SOL    HW152982   6.991   0.784   5.199 -0.3173  0.4489  0.4468
17273SOL    HW252983   6.889   0.735   5.299 -0.4853 -1.3098 -0.5306
17274SOL     OW52984   2.095   0.808   2.917 -0.3699  0.2533  0.5955
17274SOL    HW152985   2.057   0.843   2.836 -0.9568 -1.6958 -0.0338
17274SOL    HW252986   2.035   0.739   2.944  0.2898  0.2647  2.2265
17275SOL     OW52987   8.177   7.036   4.031 -0.3175  0.5518  0.2997
17275SOL    HW152988   8.173   7.107   3.966 -3.0970 -0.8437 -1.2337
17275SOL    HW252989   8.184   7.081   4.115  0.4681  2.5314 -0.7508
17276SOL     OW52990   4.220   7.513   2.218 -0.2388 -0.5707  0.4496
17276SOL    HW152991   4.183   7.545   2.301  0.8248 -1.1231  1.1559
17276SOL    HW252992   4.292   7.574   2.199  0.1956 -1.0673  0.4922
17277SOL     OW52993   8.008   0.593   1.880  0.0165  0.4412 -0.7166
17277SOL    HW152994   8.010   0.653   1.805 -1.4416  1.5817  0.1044
17277SOL    HW252995   7.915   0.572   1.892  0.3833 -1.0412 -0.2217
17278SOL     OW52996   0.601   7.909   2.458 -0.1309 -0.3679  0.0027
17278SOL    HW152997   0.660   7.951   2.520  0.5501 -0.2699 -0.7012
17278SOL    HW252998   0.516   7.951   2.474  0.1086 -0.1037  0.6204
17279SOL     OW52999   4.751   5.384   7.942 -0.1281  0.3057 -0.2176
17279SOL    HW153000   4.834   5.352   7.907 -0.1155 -1.1631  1.0384
17279SOL    HW253001   4.710   5.307   7.981 -2.4961  0.8122 -1.5066
17280SOL     OW53002   4.719   6.470   7.623  0.6873  0.1828 -0.2885
17280SOL    HW153003   4.809   6.483   7.652  0.1445 -0.6080  2.0264
17280SOL    HW253004   4.667   6.519   7.687 -0.6494 -2.2446  0.6322
17281SOL     OW53005   6.888   2.460   2.265 -0.4000  0.1750 -0.2440
17281SOL    HW153006   6.866   2.486   2.355 -0.2939 -0.6663  0.0301
17281SOL    HW253007   6.864   2.536   2.212  1.2671  1.4399  0.6977
17282SOL     OW53008   0.191   8.258   3.681  0.0162 -0.3994  0.2660
17282SOL    HW153009   0.229   8.345   3.694 -1.0485  0.4220 -1.7061
17282SOL    HW253010   0.242   8.221   3.609  0.2863 -1.3294  0.9227
17283SOL     OW53011   7.820   8.337   4.053  0.0268  0.2102 -0.6779
17283SOL    HW153012   7.764   8.414   4.048 -1.0264 -0.3108  1.8014
17283SOL    HW253013   7.857   8.338   4.141  0.1116 -2.0284 -0.6134
17284SOL     OW53014   2.295   3.144   5.162  0.7346  0.2884 -0.1706
17284SOL    HW153015   2.376   3.101   5.190  1.0232  0.4348 -0.7715
17284SOL    HW253016   2.234   3.130   5.235  1.9330  1.9989  1.2504
17285SOL     OW53017   0.166   8.341   0.870 -0.2351  0.6024  0.4231
17285SOL    HW153018   0.105   8.410   0.897 -2.6972 -1.0634 -0.5312
17285SOL    HW253019   0.204   8.372   0.788 -2.7596  0.1586 -1.0295
17286SOL     OW53020   7.494   8.027   6.295  0.0557  0.2965 -0.1258
17286SOL    HW153021   7.444   8.088   6.349 -0.5192  0.9253 -1.3063
17286SOL    HW253022   7.560   8.082   6.252 -1.1255  0.3614 -2.0124
17287SOL     OW53023   3.900   5.802   6.387 -0.1974  0.0987 -0.3212
17287SOL    HW153024   3.864   5.713   6.384 -1.6583  0.6248  0.4940
17287SOL    HW253025   3.924   5.821   6.296  1.7011 -1.6946 -0.2621
17288SOL     OW53026   3.177   2.222   4.068  0.2184 -0.2677 -0.5332
17288SOL    HW153027   3.108   2.205   4.131  0.9602  0.9362  0.6475
17288SOL    HW253028   3.138   2.281   4.004 -0.6061 -1.6809 -1.3897
17289SOL     OW53029   6.675   1.086   4.924  0.2231 -0.4932  0.5146
17289SOL    HW153030   6.738   1.015   4.926  0.3966 -0.3175  1.9671
17289SOL    HW253031   6.610   1.064   4.990  0.6385  1.0041  1.4718
17290SOL     OW53032   5.766   3.945   2.791 -0.2435  0.3047 -0.4584
17290SOL    HW153033   5.848   3.933   2.743  0.5033 -0.8022  1.0090
17290SOL    HW253034   5.715   4.005   2.737  0.9532 -0.0920 -2.1131
17291SOL     OW53035   8.657   6.714   0.153  0.1379  0.1903 -0.0127
17291SOL    HW153036   8.675   6.806   0.132  0.2248  0.1415 -0.1510
17291SOL    HW253037   8.744   6.673   0.155  0.0602  0.0047 -0.4462
17292SOL     OW53038   0.158   0.016   5.802 -0.7705 -0.2358 -0.0563
17292SOL    HW153039   0.063   0.008   5.806 -0.6431 -1.7910  1.7960
17292SOL    HW253040   0.184   0.038   5.892  0.6814 -1.2456 -0.1871
17293SOL     OW53041   7.117   3.443   2.584  0.0736 -0.3663 -0.2760
17293SOL    HW153042   7.160   3.497   2.650  0.5410  0.8031 -1.4640
17293SOL    HW253043   7.187   3.391   2.546 -0.2638 -1.3367  0.4048
17294SOL     OW53044   2.944   6.832   1.169  0.2532  0.8252 -0.4517
17294SOL    HW153045   2.906   6.753   1.209 -1.1709  1.5139 -0.3712
17294SOL    HW253046   2.928   6.901   1.233  2.1339  1.0837 -0.2047
17295SOL     OW53047   0.832   8.722   2.035  0.1915 -0.2212  0.0407
17295SOL    HW153048   0.895   8.729   1.963  1.9884 -0.5379  1.5151
17295SOL    HW253049   0.853   8.638   2.077 -0.5184  0.1585  1.1999
17296SOL     OW53050   6.914   2.332   0.007  0.4182 -0.3637 -0.5123
17296SOL    HW153051   6.992   2.299  -0.038 -1.1217 -2.0375 -2.1577
17296SOL    HW253052   6.890   2.411  -0.042  0.2088 -0.7383 -1.0270
17297SOL     OW53053   2.988   7.893   2.476  0.3266 -0.1873 -0.3776
17297SOL    HW153054   3.054   7.864   2.538  2.0278  0.1367 -1.9346
17297SOL    HW253055   2.981   7.820   2.413  1.0427  0.7376 -1.5782
17298SOL     OW53056   0.870   6.986   1.558 -0.6878  0.3616  0.2339
17298SOL    HW153057   0.943   6.928   1.583 -0.3007 -0.2075 -2.0371
17298SOL    HW253058   0.888   7.068   1.605  1.7297  0.4067 -0.6270
17299SOL     OW53059   3.499   8.572   2.181 -0.7885  0.4131  0.3281
17299SOL    HW153060   3.567   8.507   2.164 -1.6925 -1.3733  2.8270
17299SOL    HW253061   3.470   8.600   2.095  1.3037 -0.7239 -0.8106
17300SOL     OW53062   5.500   1.403   5.543  0.2899 -0.1699  0.0060
17300SOL    HW153063   5.585   1.410   5.586  0.7100  1.6063 -1.0044
17300SOL    HW253064   5.499   1.315   5.504  0.8200 -0.9438  1.6662
17301SOL     OW53065   7.522   4.537   5.585 -0.1722  0.3165 -0.6191
17301SOL    HW153066   7.442   4.587   5.569 -0.6293 -0.3246 -0.3629
17301SOL    HW253067   7.509   4.455   5.538 -0.0579 -0.1663  0.1802
17302SOL     OW53068   1.965   4.409   8.063 -1.0653 -0.3003  0.0686
17302SOL    HW153069   1.873   4.422   8.088 -0.8136  0.9633  0.3936
17302SOL    HW253070   2.015   4.448   8.134 -0.2864  0.5173 -0.8993
17303SOL     OW53071   8.253   1.995   0.360 -0.1186 -0.0400  0.0473
17303SOL    HW153072   8.258   1.949   0.444 -0.3823  0.5915  0.4223
17303SOL    HW253073   8.336   1.976   0.317  0.5702  0.6631  1.0153
17304SOL     OW53074   4.357   6.541   1.953  0.5444  0.8950  0.4628
17304SOL    HW153075   4.349   6.485   2.031  1.4088  0.6549  0.3852
17304SOL    HW253076   4.311   6.493   1.885 -1.0541  1.5492  1.0386
17305SOL     OW53077   3.767   7.777   2.176 -0.3352  0.3099  0.0759
17305SOL    HW153078   3.825   7.740   2.110 -1.6726  0.6112 -1.3223
17305SOL    HW253079   3.785   7.726   2.255 -0.1959 -1.5158 -1.0727
17306SOL     OW53080   6.924   4.489   6.423 -0.0705  0.2459  0.0506
17306SOL    HW153081   6.919   4.498   6.518 -2.0893 -1.2130  0.1552
17306SOL    HW253082   6.837   4.514   6.392  0.5221  0.6023 -1.4325
17307SOL     OW53083   4.405   7.905   5.559 -0.4922 -0.0275  0.5259
17307SOL    HW153084   4.431   7.881   5.471 -0.5726  0.1832  0.4443
17307SOL    HW253085   4.412   7.823   5.609 -1.4178 -0.3916  0.0972
17308SOL     OW53086   4.689   8.656   6.374 -0.1871  0.4513  0.2986
17308SOL    HW153087   4.638   8.584   6.337  1.4934 -1.3293  1.2555
17308SOL    HW253088   4.732   8.618   6.451 -0.0543  2.7938  1.4753
17309SOL     OW53089   4.669   0.878   3.484 -0.3315  0.4593 -0.2599
17309SOL    HW153090   4.627   0.925   3.557 -0.1789 -0.4502  0.4265
17309SOL    HW253091   4.600   0.821   3.450 -0.5284  1.1819 -1.1236
17310SOL     OW53092   5.711   0.834   2.607 -0.0573  0.2611 -0.8397
17310SOL    HW153093   5.618   0.832   2.632  0.3840 -1.1204  0.9869
17310SOL    HW253094   5.721   0.761   2.546  0.1474 -0.8588  0.4792
17311SOL     OW53095   6.108   2.331   6.883  0.0221  0.5696 -0.5645
17311SOL    HW153096   6.040   2.267   6.860  0.8932 -0.6851  0.2270
17311SOL    HW253097   6.172   2.326   6.813  0.5345 -0.1034 -0.0625
17312SOL     OW53098   6.440   7.467   1.966 -0.4665  0.3465 -0.2876
17312SOL    HW153099   6.429   7.426   2.052  0.1839  0.8852  0.0622
17312SOL    HW253100   6.428   7.395   1.904  0.9315 -0.4617  0.3258
17313SOL     OW53101   6.713   3.059   4.688  0.2395 -0.6572 -0.7234
17313SOL    HW153102   6.711   2.986   4.750  0.7024 -0.4509 -0.4625
17313SOL    HW253103   6.716   3.017   4.601  0.7489 -0.9453 -0.5666
17314SOL     OW53104   7.280   2.060   7.942 -0.1327 -1.0043 -0.0824
17314SOL    HW153105   7.288   2.063   7.847  0.5769  2.9148 -0.0655
17314SOL    HW253106   7.370   2.064   7.974 -0.4458 -0.0461  0.7112
17315SOL     OW53107   1.926   7.904   2.668 -0.6176 -0.4029  0.2195
17315SOL    HW153108   1.856   7.956   2.708 -0.4399  0.0196 -0.0193
17315SOL    HW253109   1.905   7.903   2.575  0.9995  1.8138 -0.2488
17316SOL     OW53110   4.951   7.964   8.487 -0.1383  0.1400 -0.3186
17316SOL    HW153111   5.027   7.965   8.429  0.8645 -0.6806  0.9062
17316SOL    HW253112   4.984   7.923   8.568 -1.1643  2.2226  1.2442
17317SOL     OW53113   8.745   6.668   8.364  0.5223  0.1439 -0.2314
17317SOL    HW153114   8.658   6.694   8.395  0.9283  0.9011  0.3091
17317SOL    HW253115   8.786   6.750   8.336  0.7031 -0.3314 -1.4407
17318SOL     OW53116   1.840   1.767   1.708 -0.0109  0.1797 -0.1127
17318SOL    HW153117   1.813   1.854   1.739  0.7397  0.7784 -1.0823
17318SOL    HW253118   1.758   1.724   1.683 -0.2861  1.1355 -0.9269
17319SOL     OW53119   6.374   5.975   8.021 -0.0407 -0.3503 -0.2634
17319SOL    HW153120   6.350   6.051   7.969 -1.5973  0.4054  1.4451
17319SOL    HW253121   6.333   5.901   7.976  0.6654 -0.0663 -1.4001
17320SOL     OW53122   2.989   4.617   8.129 -0.0826  0.1719  0.2528
17320SOL    HW153123   2.971   4.703   8.167  1.2999  0.4138  0.4172
17320SOL    HW253124   3.059   4.633   8.066 -1.8480 -0.3452 -1.9490
17321SOL     OW53125   8.691   6.459   7.863 -0.2632 -0.0724 -0.4232
17321SOL    HW153126   8.780   6.494   7.852  0.3561 -1.3564  0.2724
17321SOL    HW253127   8.676   6.463   7.957 -0.7035 -0.4312 -0.4783
17322SOL     OW53128   8.080   5.519   6.448 -0.3372 -0.1573 -0.3068
17322SOL    HW153129   8.052   5.515   6.356 -0.8548  0.4504 -0.1893
17322SOL    HW253130   7.998   5.526   6.497 -0.1295 -1.8006  0.3052
17323SOL     OW53131   2.101   0.017   2.875 -0.5242 -0.2060 -0.2610
17323SOL    HW153132   2.062  -0.040   2.942  1.0743  1.0764  1.8946
17323SOL    HW253133   2.054   0.100   2.884 -0.8254 -0.2452 -1.3219
17324SOL     OW53134   0.787   3.484   3.152  0.4248 -0.2869 -0.0500
17324SOL    HW153135   0.713   3.435   3.115 -0.7946 -0.0412  1.9304
17324SOL    HW253136   0.776   3.573   3.117  0.6129 -0.5665 -0.8544
17325SOL     OW53137   0.456   6.023   2.554  0.1382 -0.4506  0.8025
17325SOL    HW153138   0.387   6.077   2.591  0.5971  0.3642  0.4826
17325SOL    HW253139   0.412   5.941   2.530 -1.0741  0.6299 -0.8554
17326SOL     OW53140   8.420   4.886   0.905 -0.7647 -0.0868 -0.2612
17326SOL    HW153141   8.368   4.931   0.838 -1.2414 -0.6759 -0.3021
17326SOL    HW253142   8.428   4.796   0.872  0.2738 -0.0134 -0.2461
17327SOL     OW53143   8.486   3.277   4.181 -0.1541  0.2263 -0.6795
17327SOL    HW153144   8.492   3.309   4.271  0.3065 -0.8263 -0.3175
17327SOL    HW253145   8.398   3.240   4.175 -1.0234  2.2732 -1.3713
17328SOL     OW53146   3.583   1.270   4.372  0.0255 -0.3092 -0.2330
17328SOL    HW153147   3.605   1.200   4.310 -1.0754 -0.0077 -0.9935
17328SOL    HW253148   3.663   1.322   4.378  0.8666 -1.6281  0.3650
17329SOL     OW53149   3.704   7.165   7.388  0.6696  0.2636  0.2181
17329SOL    HW153150   3.625   7.172   7.335  1.4082 -0.9297 -1.0944
17329SOL    HW253151   3.702   7.243   7.444 -0.0178  1.7616 -1.7517
17330SOL     OW53152   0.496   2.569   6.988  0.2093  0.8823 -0.0088
17330SOL    HW153153   0.579   2.555   6.943  0.3375  0.0850  0.4575
17330SOL    HW253154   0.492   2.663   7.003 -0.7485  1.5496 -3.4237
17331SOL     OW53155   5.605   3.043   6.546 -0.1534  0.1422  0.1097
17331SOL    HW153156   5.524   3.082   6.512 -0.1332  1.5242  1.5222
17331SOL    HW253157   5.637   3.107   6.609  1.2125 -1.1200  0.7423
17332SOL     OW53158   6.164   7.974   6.338  0.1411 -0.1398  0.0290
17332SOL    HW153159   6.187   7.896   6.288 -1.0191  0.1833 -1.0655
17332SOL    HW253160   6.222   7.972   6.414  0.8656 -1.4875 -0.5253
17333SOL     OW53161   7.290   0.280   3.221 -0.0605  0.2163  0.3520
17333SOL    HW153162   7.262   0.317   3.136 -0.3209 -2.0843 -0.6238
17333SOL    HW253163   7.339   0.351   3.262 -2.3217  2.3893 -0.4606
17334SOL     OW53164   2.924   7.205   3.580  0.2559 -0.0906  0.6231
17334SOL    HW153165   2.913   7.179   3.672  0.0211  2.0155  1.2574
17334SOL    HW253166   2.847   7.259   3.561  0.7920  0.3143 -0.4973
17335SOL     OW53167   5.460   5.340   3.424  0.3087 -0.7324 -0.0214
17335SOL    HW153168   5.434   5.252   3.455  1.6336 -1.2918 -0.4462
17335SOL    HW253169   5.523   5.370   3.489  0.2047 -0.2839 -0.1289
17336SOL     OW53170   2.329   2.732   5.956  0.5005  0.0027 -0.1354
17336SOL    HW153171   2.387   2.794   6.001 -0.5077  1.3232 -0.5733
17336SOL    HW253172   2.275   2.788   5.900 -2.2572 -0.9830  1.3638
17337SOL     OW53173   8.832   2.089   8.438 -1.2127 -0.2067 -1.1348
17337SOL    HW153174   8.765   2.076   8.506  1.7970  1.5445  2.5322
17337SOL    HW253175   8.859   2.180   8.449  0.0302 -0.1020 -4.2598
17338SOL     OW53176   8.454   1.910   3.360  0.3390  0.5432  0.1879
17338SOL    HW153177   8.437   1.914   3.454  1.1886  1.1790  0.3243
17338SOL    HW253178   8.537   1.863   3.352  1.3271  2.2622 -0.0958
17339SOL     OW53179   5.595   0.286   1.546 -0.1203  0.0164 -0.2270
17339SOL    HW153180   5.560   0.197   1.547 -1.6746  0.5926 -0.5407
17339SOL    HW253181   5.535   0.335   1.602  1.6526  0.5553  1.2803
17340SOL     OW53182   7.665   1.566   7.128  0.5381  0.0112  0.2407
17340SOL    HW153183   7.604   1.639   7.142 -0.8988 -1.2045  0.6067
17340SOL    HW253184   7.703   1.550   7.215 -0.9683 -1.1851  0.7253
17341SOL     OW53185   8.815   5.392   3.421  0.2138 -0.0168  0.1727
17341SOL    HW153186   8.887   5.383   3.484  0.6022 -0.4185 -0.3215
17341SOL    HW253187   8.760   5.315   3.436 -0.7124  0.8121  1.2741
17342SOL     OW53188   7.070   6.546   4.011 -0.5992 -0.2495 -0.2730
17342SOL    HW153189   7.159   6.523   4.038 -0.6937 -1.6296 -1.0484
17342SOL    HW253190   7.013   6.500   4.074 -0.7998  1.3143  0.7536
17343SOL     OW53191   8.104   8.502   2.725  0.0189  0.0812 -0.6377
17343SOL    HW153192   8.015   8.514   2.757 -0.3517  0.4082 -1.7613
17343SOL    HW253193   8.151   8.465   2.800 -1.2731 -1.0031 -0.3205
17344SOL     OW53194   6.802   7.424   2.847  0.0239  0.0797 -0.3148
17344SOL    HW153195   6.758   7.340   2.834 -0.8000  0.6519 -1.4008
17344SOL    HW253196   6.894   7.400   2.864 -0.1626 -1.0341 -0.7422
17345SOL     OW53197   7.306   2.200   3.204  0.0224 -0.1947 -0.0191
17345SOL    HW153198   7.350   2.117   3.183 -2.1737 -0.5381 -4.3694
17345SOL    HW253199   7.223   2.173   3.244  0.6607  0.1489  1.6119
17346SOL     OW53200   7.856   1.283   7.703  0.2178 -0.0904  0.2050
17346SOL    HW153201   7.919   1.259   7.771  0.9548  0.2951 -0.3296
17346SOL    HW253202   7.900   1.351   7.652 -0.0009 -0.9078 -1.1365
17347SOL     OW53203   3.491   0.495   2.372 -0.6124 -0.5348 -0.0253
17347SOL    HW153204   3.530   0.411   2.396 -0.7642 -0.4193  0.6633
17347SOL    HW253205   3.439   0.519   2.449 -0.8890 -0.0043 -0.3756
17348SOL     OW53206   3.178   7.278   4.916 -0.1820 -0.2081  0.1711
17348SOL    HW153207   3.168   7.369   4.885 -2.8059 -0.5131 -0.0986
17348SOL    HW253208   3.214   7.232   4.841  0.7978  0.5216  0.1725
17349SOL     OW53209   0.334   0.774   7.565  0.7145  0.2350  0.2188
17349SOL    HW153210   0.297   0.687   7.577  0.5633  0.4526  1.4309
17349SOL    HW253211   0.293   0.806   7.484  0.1208 -0.4815  0.2247
17350SOL     OW53212   2.047   6.774   3.702 -0.1646 -0.1479  0.7713
17350SOL    HW153213   2.087   6.716   3.767  0.3692 -0.9240 -0.2095
17350SOL    HW253214   1.974   6.815   3.748 -1.3984 -2.5774  1.1862
17351SOL     OW53215   1.189   2.606   0.524  0.0599 -0.1512 -0.5632
17351SOL    HW153216   1.164   2.566   0.441 -0.3651 -0.9337 -0.0691
17351SOL    HW253217   1.134   2.684   0.530  0.6571  0.3465 -1.3751
17352SOL     OW53218   8.277   5.795   1.699 -0.0116 -0.1545 -0.0226
17352SOL    HW153219   8.317   5.877   1.729  1.2217 -0.7380 -0.0429
17352SOL    HW253220   8.183   5.812   1.705  0.2158  1.1097  0.4018
17353SOL     OW53221   4.771   7.842   2.559  1.1545 -0.0246  0.2931
17353SOL    HW153222   4.763   7.746   2.565  2.1610 -0.3734 -2.4213
17353SOL    HW253223   4.685   7.872   2.531  1.1045 -0.2486  0.2049
17354SOL     OW53224   5.944   5.752   2.608  0.1259  0.4152  1.0651
17354SOL    HW153225   5.926   5.659   2.601  2.2287  0.0308 -0.2504
17354SOL    HW253226   5.891   5.792   2.539  1.5867 -0.2645 -0.5350
17355SOL     OW53227   7.693   0.874   7.192  0.2645 -0.4653  0.0361
17355SOL    HW153228   7.658   0.939   7.131  2.5956  0.7361 -0.1100
17355SOL    HW253229   7.659   0.900   7.278 -1.1440 -0.8039 -0.3873
17356SOL     OW53230   6.807   8.234   0.542  0.1533 -0.3531  0.0541
17356SOL    HW153231   6.820   8.140   0.552 -0.1097 -0.3739  0.1949
17356SOL    HW253232   6.860   8.257   0.465 -0.3688 -0.7440 -0.4313
17357SOL     OW53233   2.743   2.560   5.955  0.3198  0.1222  0.3206
17357SOL    HW153234   2.803   2.613   6.008 -1.2933  0.9492  1.4060
17357SOL    HW253235   2.772   2.470   5.968  1.7697  0.5480  0.2000
17358SOL     OW53236   1.402   1.991   4.638 -0.5432  0.3362 -0.7253
17358SOL    HW153237   1.324   1.991   4.692 -0.6446  1.6025 -0.8551
17358SOL    HW253238   1.379   2.046   4.563 -0.0732 -0.5955 -1.5798
17359SOL     OW53239   6.192   2.276   7.298 -0.2642  0.1823  0.0135
17359SOL    HW153240   6.132   2.270   7.223 -0.9120  1.7867  0.3624
17359SOL    HW253241   6.270   2.320   7.263  0.1387 -0.5975 -0.0951
17360SOL     OW53242   6.848   7.736   7.632  0.0651  0.3797  0.3502
17360SOL    HW153243   6.876   7.805   7.693  0.3628  1.4162 -0.9031
17360SOL    HW253244   6.887   7.762   7.548 -0.8779 -0.6495 -0.4279
17361SOL     OW53245   3.846   0.629   1.843  0.4995  0.1342 -0.3874
17361SOL    HW153246   3.766   0.658   1.799  1.2078  0.6635 -1.3662
17361SOL    HW253247   3.848   0.534   1.830 -1.0906 -0.2314  1.5828
17362SOL     OW53248   8.766   3.278   2.382  0.2562 -1.0381 -0.0120
17362SOL    HW153249   8.724   3.219   2.320  0.9867  0.1561 -1.6926
17362SOL    HW253250   8.694   3.317   2.431 -0.2959 -2.3760  0.2834
17363SOL     OW53251   6.870   5.859   8.860  0.5242  1.0514 -0.5975
17363SOL    HW153252   6.839   5.937   8.814  0.3223  0.1715 -1.9909
17363SOL    HW253253   6.852   5.786   8.801  1.4331  0.0197  0.3374
17364SOL     OW53254   2.046   0.766   8.446  0.0678 -0.5729  0.0958
17364SOL    HW153255   2.078   0.742   8.532  0.0829  0.3419  0.3534
17364SOL    HW253256   2.115   0.738   8.386  0.8298  0.3421  0.5376
17365SOL     OW53257   3.405   8.615   8.597  0.3323 -0.1703 -0.1765
17365SOL    HW153258   3.479   8.637   8.653  0.1543  0.5490 -0.2181
17365SOL    HW253259   3.379   8.526   8.624  0.9251 -0.2478  0.1363
17366SOL     OW53260   3.545   4.210   1.375  0.0242  0.4497 -0.5281
17366SOL    HW153261   3.639   4.194   1.383 -0.2177 -0.5971  0.6106
17366SOL    HW253262   3.519   4.159   1.298  0.4335  1.0391 -1.0689
17367SOL     OW53263   3.235   1.775   1.079 -0.0991  0.0451  0.5136
17367SOL    HW153264   3.223   1.694   1.129 -0.3652  0.3874  1.0170
17367SOL    HW253265   3.228   1.749   0.988 -0.3709 -0.4681  0.6787
17368SOL     OW53266   1.118   8.265   2.223  0.0225 -0.0516  0.3944
17368SOL    HW153267   1.208   8.295   2.236 -0.8364  2.8628  0.2768
17368SOL    HW253268   1.080   8.265   2.310 -0.2675  0.0831  0.2664
17369SOL     OW53269   4.198   7.505   4.981 -0.0564  0.0107  0.0290
17369SOL    HW153270   4.233   7.579   4.931  1.2280 -1.0796 -0.7569
17369SOL    HW253271   4.167   7.444   4.914 -0.5707 -0.4331  0.6567
17370SOL     OW53272   0.225   4.406   5.329  0.2379  0.1269  0.7418
17370SOL    HW153273   0.177   4.379   5.407 -1.5845  0.2324 -0.2788
17370SOL    HW253274   0.157   4.429   5.266  1.6558  0.4882 -0.7309
17371SOL     OW53275   4.077   2.389   2.481  0.4109  0.2203 -1.1259
17371SOL    HW153276   4.131   2.375   2.558 -1.9287 -0.3926  0.5198
17371SOL    HW253277   3.993   2.421   2.516  0.1514  2.6722 -3.6186
17372SOL     OW53278   8.208   8.083   3.259  0.2583 -0.1380 -0.1890
17372SOL    HW153279   8.138   8.133   3.301  0.8619 -0.6184  1.5016
17372SOL    HW253280   8.258   8.047   3.333  1.5699 -0.7846 -1.3595
17373SOL     OW53281   3.154   1.977   2.706  0.1558  0.2502  0.2556
17373SOL    HW153282   3.180   1.887   2.683  0.7386  0.2911  0.7144
17373SOL    HW253283   3.090   1.966   2.776  1.0725  0.1992  1.1178
17374SOL     OW53284   8.775   2.222   0.460 -0.6362 -0.0835 -0.0905
17374SOL    HW153285   8.816   2.298   0.419  0.6911  0.4589  2.0771
17374SOL    HW253286   8.686   2.250   0.480  0.0789  1.2952  1.4437
17375SOL     OW53287   5.543   5.909   3.368  0.2852 -0.3099 -0.1417
17375SOL    HW153288   5.473   5.895   3.433 -0.4152  2.4266 -0.2036
17375SOL    HW253289   5.613   5.849   3.395 -1.2050 -1.5348  1.2307
17376SOL     OW53290   0.394   2.493   5.367  0.0938  0.0179 -0.0546
17376SOL    HW153291   0.417   2.436   5.440 -1.2113  0.8953  1.1009
17376SOL    HW253292   0.304   2.468   5.345 -0.1394  0.9485 -0.1825
17377SOL     OW53293   4.139   4.138   3.667 -0.4905 -0.4718  0.0716
17377SOL    HW153294   4.085   4.147   3.746 -0.7923  0.6135 -0.2513
17377SOL    HW253295   4.223   4.105   3.700 -0.6396 -0.1123  0.8410
17378SOL     OW53296   5.087   7.087   4.747  0.5567 -0.0634  0.6109
17378SOL    HW153297   5.050   7.140   4.817 -1.6270 -0.0085 -0.4938
17378SOL    HW253298   5.179   7.113   4.742  0.0827  1.9512  1.5778
17379SOL     OW53299   6.966   1.731   3.225  0.7261  0.0662  0.1467
17379SOL    HW153300   6.916   1.668   3.277  0.4078  0.6056  0.5063
17379SOL    HW253301   6.903   1.799   3.202  1.3393  0.8988  0.8340
17380SOL     OW53302   4.089   0.253   0.965 -0.5419 -0.0245 -0.1048
17380SOL    HW153303   4.023   0.197   1.006 -3.4277  1.5910 -2.1793
17380SOL    HW253304   4.054   0.271   0.878  2.1981  1.7960 -0.9454
17381SOL     OW53305   0.013   1.274   1.200  0.2050 -0.1974  0.1353
17381SOL    HW153306  -0.077   1.303   1.202  0.3975  0.3724  2.1340
17381SOL    HW253307   0.028   1.232   1.285  2.3346  1.4143  0.6536
17382SOL     OW53308   6.115   6.856   1.773  0.4920  0.2020 -0.1109
17382SOL    HW153309   6.075   6.850   1.859  0.8486  0.1051  0.0498
17382SOL    HW253310   6.183   6.788   1.773  0.9598  0.6616 -0.2127
17383SOL     OW53311   6.000   5.792   3.407  0.3088  0.1251 -0.2090
17383SOL    HW153312   5.972   5.866   3.353 -0.9637  0.0895  0.3875
17383SOL    HW253313   6.092   5.810   3.425  0.5849  0.4937 -1.7952
17384SOL     OW53314   0.435   4.736   3.325  0.2436 -0.6973  0.0174
17384SOL    HW153315   0.399   4.670   3.266 -3.1232 -0.0123  1.0852
17384SOL    HW253316   0.435   4.817   3.275 -1.2648 -0.3957  0.4710
17385SOL     OW53317   5.178   7.078   8.196  0.0264 -0.0471  0.3754
17385SOL    HW153318   5.139   7.125   8.123  0.2625  3.3338  2.2314
17385SOL    HW253319   5.105   7.056   8.254  0.0835 -0.6679  0.2216
17386SOL     OW53320   0.826   5.567   2.935  0.3050  0.0529  0.2962
17386SOL    HW153321   0.915   5.578   2.966 -0.0798  1.6127  0.9218
17386SOL    HW253322   0.778   5.642   2.970 -1.2076 -0.6222 -0.2129
17387SOL     OW53323   0.755   3.852   8.398  0.1341  0.2287 -0.3310
17387SOL    HW153324   0.737   3.882   8.308  2.1069  1.2180 -0.4535
17387SOL    HW253325   0.708   3.914   8.453 -2.3661 -1.2806 -0.6246
17388SOL     OW53326   3.204   1.958   4.677 -0.1423 -0.1958  0.0601
17388SOL    HW153327   3.293   1.955   4.643  0.3719  0.5779  1.2445
17388SOL    HW253328   3.175   1.866   4.678 -0.3247 -0.2325 -2.6374
17389SOL     OW53329   6.527   8.541   6.299  0.4126  0.6233  0.3257
17389SOL    HW153330   6.433   8.560   6.297  0.2566 -0.1322 -0.1181
17389SOL    HW253331   6.561   8.580   6.219 -0.0998 -1.7410 -1.1694
17390SOL     OW53332   3.195   6.422   6.367 -0.4570 -0.5950 -0.3412
17390SOL    HW153333   3.131   6.494   6.369 -1.3235 -1.2674 -2.2901
17390SOL    HW253334   3.276   6.463   6.336 -1.0803 -0.5136 -1.9394
17391SOL     OW53335   6.053   0.848   5.810 -0.0437 -0.1365 -0.0884
17391SOL    HW153336   6.030   0.941   5.814 -1.2702 -0.4416  0.4160
17391SOL    HW253337   6.118   0.836   5.879 -0.7958  0.1109  0.6818
17392SOL     OW53338   6.923   1.984   6.076  0.0257 -0.3970  0.4064
17392SOL    HW153339   6.869   1.955   6.150  0.3108  0.4879  0.9681
17392SOL    HW253340   6.923   2.079   6.082 -1.1866 -0.2005 -1.6253
17393SOL     OW53341   7.965   7.963   5.421 -0.3155  0.3158 -0.0984
17393SOL    HW153342   7.988   7.989   5.332 -1.6608 -0.6679 -0.7824
17393SOL    HW253343   8.027   7.893   5.443  0.3990  0.9680 -0.0207
17394SOL     OW53344   7.514   5.895   2.224 -0.0275  0.2240  0.1844
17394SOL    HW153345   7.558   5.810   2.224  0.3911  0.4354  0.4507
17394SOL    HW253346   7.496   5.913   2.317 -0.2688  0.3454  0.1147
17395SOL     OW53347   7.560   3.049   3.531 -0.9312  0.7547  0.0127
17395SOL    HW153348   7.618   2.974   3.540 -0.3102  1.3403  1.0860
17395SOL    HW253349   7.579   3.082   3.443 -0.7958 -0.0023 -0.2511
17396SOL     OW53350   0.948   4.693   4.549 -0.3333  0.5378 -0.3723
17396SOL    HW153351   0.925   4.600   4.557 -1.1810  0.5580 -2.2242
17396SOL    HW253352   0.985   4.715   4.635  1.1459 -1.8426 -0.2757
17397SOL     OW53353   2.675   4.329   1.646 -0.5429 -0.0850  0.6517
17397SOL    HW153354   2.720   4.362   1.568 -0.3104  0.0699  0.8484
17397SOL    HW253355   2.638   4.245   1.618 -0.7255  0.1142  0.2886
17398SOL     OW53356   0.306   2.394   0.886 -0.0104  0.2696 -0.5775
17398SOL    HW153357   0.257   2.330   0.939 -2.2262  1.1652 -1.4204
17398SOL    HW253358   0.368   2.342   0.836 -0.4049 -1.0016  0.2136
17399SOL     OW53359   7.943   8.058   1.639 -0.0685  0.4155 -0.2185
17399SOL    HW153360   7.963   8.075   1.731  0.1265  1.3544 -0.4266
17399SOL    HW253361   7.854   8.091   1.627  0.5040  1.8497 -0.7511
17400SOL     OW53362   4.854   3.017   5.269  0.3505 -0.3956 -0.7467
17400SOL    HW153363   4.931   2.999   5.214  1.9621  0.0865  1.2350
17400SOL    HW253364   4.821   2.931   5.293 -0.5655 -0.6297 -2.6027
17401SOL     OW53365   2.808   8.364   5.979 -0.1996 -0.3822  0.1915
17401SOL    HW153366   2.792   8.409   6.062  2.5693  1.0047  0.0995
17401SOL    HW253367   2.862   8.425   5.929  0.9353 -2.5043 -1.3001
17402SOL     OW53368   4.629   8.420   5.713  0.2598  0.1634 -0.4834
17402SOL    HW153369   4.667   8.493   5.663  0.2310  1.0700  0.7647
17402SOL    HW253370   4.686   8.412   5.790 -1.2764  0.6880  0.7609
17403SOL     OW53371   5.093   1.250   3.468  0.1914  0.2934 -0.1252
17403SOL    HW153372   5.168   1.221   3.416 -0.2247  0.5956 -0.9119
17403SOL    HW253373   5.044   1.170   3.485  0.5222  0.1403  0.1252
17404SOL     OW53374   7.617   7.440   5.276 -0.4310  0.0279  0.0379
17404SOL    HW153375   7.523   7.432   5.293 -0.3809  0.3894  0.5156
17404SOL    HW253376   7.629   7.532   5.252 -0.1319  0.0930  0.4303
17405SOL     OW53377   4.876   3.166   1.003  0.3728  0.2920 -0.1821
17405SOL    HW153378   4.870   3.258   1.026 -3.6062 -0.0099  0.7701
17405SOL    HW253379   4.841   3.161   0.914  1.9961 -0.2038 -0.8348
17406SOL     OW53380   8.722   6.070   1.554  0.4763 -0.1444 -0.2796
17406SOL    HW153381   8.778   6.074   1.632  0.2098 -0.8810 -0.0452
17406SOL    HW253382   8.737   5.984   1.517 -0.2707 -0.2361 -0.3842
17407SOL     OW53383   4.153   0.842   0.951  0.5214 -0.1355  0.4219
17407SOL    HW153384   4.229   0.900   0.955  1.0011 -0.7597  0.3736
17407SOL    HW253385   4.137   0.829   0.858  0.3168  0.0376  0.4310
17408SOL     OW53386   7.322   5.474   0.959  0.2647  0.3516  0.5595
17408SOL    HW153387   7.303   5.561   0.993 -0.2688 -0.3194  2.0733
17408SOL    HW253388   7.365   5.490   0.875  3.5339  2.1953  2.3618
17409SOL     OW53389   3.134   7.161   2.536  0.3516 -0.2254 -0.4823
17409SOL    HW153390   3.109   7.230   2.598 -0.6734 -0.6509 -0.3989
17409SOL    HW253391   3.202   7.112   2.582  0.0339 -0.1670  0.0617
17410SOL     OW53392   4.438   4.161   4.443  0.2620 -0.1443  0.4249
17410SOL    HW153393   4.458   4.103   4.370 -0.7588  0.0430 -0.0188
17410SOL    HW253394   4.520   4.207   4.461  0.6676 -0.6063 -0.2256
17411SOL     OW53395   5.997   7.254   5.169  0.2855  1.1865  0.2078
17411SOL    HW153396   5.924   7.265   5.108 -1.1469 -0.6414  1.4794
17411SOL    HW253397   6.058   7.197   5.123 -0.5190  0.2810  0.2328
17412SOL     OW53398   8.621   3.665   5.939  0.0989  0.0612 -0.5630
17412SOL    HW153399   8.646   3.693   5.851 -0.8151  0.8758 -0.5815
17412SOL    HW253400   8.704   3.660   5.987  0.5570  0.0696 -1.3345
17413SOL     OW53401   2.062   6.010   2.341  0.0981 -0.1219 -0.6087
17413SOL    HW153402   2.069   6.078   2.408 -0.3426 -1.4932  0.8955
17413SOL    HW253403   2.104   5.934   2.379  2.2328 -0.2650 -2.9859
17414SOL     OW53404   1.506   0.028   0.382 -0.4986 -0.2851  0.5230
17414SOL    HW153405   1.414   0.047   0.403 -0.2526  1.4725  0.1395
17414SOL    HW253406   1.555   0.062   0.457 -0.2515 -3.6806  2.0768
17415SOL     OW53407   0.910   2.633   4.114  0.1331  0.1912  0.5862
17415SOL    HW153408   0.984   2.573   4.100  1.1599  1.6368 -0.5998
17415SOL    HW253409   0.952   2.718   4.131 -1.1854  1.3737 -1.6078
17416SOL     OW53410   7.028   5.945   6.141 -0.1457  0.0829  0.2078
17416SOL    HW153411   7.023   5.998   6.061 -0.7544  1.0013  0.8381
17416SOL    HW253412   6.956   5.882   6.132 -1.4477  1.3979  0.8492
17417SOL     OW53413   8.468   8.714   2.530  0.4001  0.5392  0.0112
17417SOL    HW153414   8.550   8.680   2.493  0.4229 -0.9556  1.2924
17417SOL    HW253415   8.492   8.798   2.568  0.9945  0.7999 -0.9142
17418SOL     OW53416   2.494   8.797   6.331  0.0308 -0.6878 -0.5121
17418SOL    HW153417   2.469   8.869   6.388  1.1444 -0.4978 -0.2366
17418SOL    HW253418   2.465   8.718   6.377 -1.1821 -0.4306 -0.8092
17419SOL     OW53419   1.548   5.406   3.675 -0.2802 -0.1775  0.5608
17419SOL    HW153420   1.500   5.367   3.602 -1.3336  3.8409 -1.1836
17419SOL    HW253421   1.481   5.447   3.729  0.7554 -0.3865  2.0851
17420SOL     OW53422   2.857   4.213   7.891  0.7417  0.1516 -0.0758
17420SOL    HW153423   2.880   4.121   7.906 -3.7349 -0.7991  3.2270
17420SOL    HW253424   2.916   4.262   7.947  0.7825 -1.1419  1.0705
17421SOL     OW53425   3.265   3.099   1.819  0.0458  0.3536 -0.2751
17421SOL    HW153426   3.183   3.091   1.771  0.6485 -0.7416 -1.1721
17421SOL    HW253427   3.297   3.187   1.797 -0.3308  0.3554 -0.8447
17422SOL     OW53428   6.185   7.487   6.351 -0.1929  0.3871  0.6718
17422SOL    HW153429   6.140   7.460   6.431  0.7890  1.2219  1.5256
17422SOL    HW253430   6.237   7.563   6.377 -1.1100  1.7089 -1.1403
17423SOL     OW53431   8.791   0.500   7.525  0.3347  0.8914 -0.4001
17423SOL    HW153432   8.707   0.505   7.570  0.3824  0.4326 -0.2526
17423SOL    HW253433   8.774   0.538   7.439 -0.2478  0.0562 -0.6784
17424SOL     OW53434   0.984   4.913   5.234 -0.4718  0.7361 -0.2045
17424SOL    HW153435   1.010   4.963   5.311 -2.5786  0.8531  0.4939
17424SOL    HW253436   0.996   4.973   5.160  0.8460  0.8685  0.0967
17425SOL     OW53437   0.783   5.881   7.945  0.0568  0.4338  0.3240
17425SOL    HW153438   0.738   5.837   8.016  1.4928  0.9230  1.5864
17425SOL    HW253439   0.790   5.972   7.974 -0.9927  1.0788 -1.2971
17426SOL     OW53440   3.766   6.532   0.615 -0.2873 -0.1262 -0.2468
17426SOL    HW153441   3.818   6.452   0.626 -0.5919 -0.2931 -0.0261
17426SOL    HW253442   3.818   6.586   0.555  0.9047  0.3563  1.1413
17427SOL     OW53443   8.347   8.730   2.970  0.4248  0.1878  0.7711
17427SOL    HW153444   8.299   8.646   2.966 -1.3556  1.1768  0.1408
17427SOL    HW253445   8.279   8.795   2.989  1.6860  1.5671  0.6987
17428SOL     OW53446   4.236   8.659   7.028 -0.5920 -0.2624 -0.0938
17428SOL    HW153447   4.185   8.601   6.971 -1.9556 -1.1081  1.8874
17428SOL    HW253448   4.325   8.624   7.023 -0.8651 -0.8707 -0.9853
17429SOL     OW53449   4.966   0.775   2.112  0.6917  0.8967  0.0153
17429SOL    HW153450   4.991   0.793   2.202  0.3576  0.2218  0.2502
17429SOL    HW253451   5.016   0.696   2.088 -0.7469 -0.1361  0.3055
17430SOL     OW53452   6.191   3.696   6.898 -0.3497 -0.7189  0.4457
17430SOL    HW153453   6.154   3.736   6.976  1.6752 -1.5320  1.9113
17430SOL    HW253454   6.226   3.612   6.928  0.6921 -0.9555 -1.2809
17431SOL     OW53455   3.934   0.056   1.071  0.0438  0.2110 -0.2645
17431SOL    HW153456   3.905   0.001   0.998  0.3808 -0.1925 -0.1011
17431SOL    HW253457   3.929  -0.001   1.147 -0.3115  0.6359  0.0326
17432SOL     OW53458   5.072   3.334   1.490 -0.1385 -0.2389  0.3414
17432SOL    HW153459   4.988   3.287   1.495  0.2654 -0.8549  1.8484
17432SOL    HW253460   5.135   3.267   1.465 -0.2673  0.5030 -2.1680
17433SOL     OW53461   1.646   4.844   6.146 -0.6637 -0.4206 -0.2072
17433SOL    HW153462   1.588   4.792   6.201 -0.9007  0.4596  0.4028
17433SOL    HW253463   1.670   4.786   6.074 -3.9816 -0.2334 -1.6811
17434SOL     OW53464   4.716   5.500   2.533  0.1738 -0.8328 -0.6521
17434SOL    HW153465   4.736   5.507   2.626 -1.2762  1.8360 -0.4367
17434SOL    HW253466   4.752   5.580   2.494 -0.6774 -1.0996 -2.0879
17435SOL     OW53467   7.430   2.246   0.321 -0.3223 -0.4416  0.5820
17435SOL    HW153468   7.468   2.292   0.246  2.9081 -1.1954  1.5882
17435SOL    HW253469   7.452   2.301   0.396 -2.1829 -0.4540  1.1734
17436SOL     OW53470   7.351   4.503   7.690  0.5912 -0.0246  0.4381
17436SOL    HW153471   7.364   4.474   7.780 -0.3286  2.2937  1.4057
17436SOL    HW253472   7.257   4.499   7.676  0.5663  1.1203  0.1529
17437SOL     OW53473   6.284   7.268   8.058 -0.2619 -0.0330  0.0985
17437SOL    HW153474   6.199   7.310   8.045 -0.5218 -0.1136  1.4253
17437SOL    HW253475   6.279   7.188   8.006 -0.0879  1.1088 -1.7496
17438SOL     OW53476   4.671   4.110   5.284  0.5727  0.1808  0.0882
17438SOL    HW153477   4.606   4.040   5.288  1.3015 -0.4362  2.2536
17438SOL    HW253478   4.747   4.076   5.330  1.0728  2.2506  0.9279
17439SOL     OW53479   4.551   7.376   3.737 -0.3642 -0.7445 -0.1224
17439SOL    HW153480   4.516   7.287   3.733 -2.6138  0.0043  0.8890
17439SOL    HW253481   4.511   7.414   3.815  2.2138  0.5292  0.6962
17440SOL     OW53482   2.448   2.513   5.699  0.5062 -0.2690  0.1604
17440SOL    HW153483   2.409   2.462   5.628  0.2577  1.6931 -1.1740
17440SOL    HW253484   2.396   2.489   5.776  1.1477 -2.8639 -0.1196
17441SOL     OW53485   8.178   4.449   7.630  0.2815  0.2294 -0.2327
17441SOL    HW153486   8.263   4.422   7.596  1.6176  1.0748  2.2553
17441SOL    HW253487   8.150   4.519   7.571  2.4307  1.5346  0.2170
17442SOL     OW53488   3.796   0.080   6.237  0.3624  0.3617  0.3270
17442SOL    HW153489   3.809  -0.015   6.246  0.1972  0.1309 -1.5193
17442SOL    HW253490   3.705   0.094   6.260  0.3941  0.0748  0.6411
17443SOL     OW53491   7.604   2.073   2.499  0.0483 -0.0278  0.5051
17443SOL    HW153492   7.666   2.145   2.486 -1.5982  1.2799 -0.6140
17443SOL    HW253493   7.590   2.037   2.411 -1.9918  0.8276  0.4176
17444SOL     OW53494   8.124   3.273   0.428 -0.0528 -0.1815  0.5903
17444SOL    HW153495   8.201   3.320   0.461 -0.3883 -0.2035  1.4255
17444SOL    HW253496   8.050   3.328   0.453 -0.4564 -1.2013  1.6993
17445SOL     OW53497   4.195   0.880   7.427 -0.6732 -0.2864 -0.3680
17445SOL    HW153498   4.269   0.856   7.371 -1.5378 -2.8381 -0.5692
17445SOL    HW253499   4.234   0.891   7.514  0.3376  1.4073 -0.9933
17446SOL     OW53500   6.938   5.222   3.953 -0.5832 -0.2284 -0.2798
17446SOL    HW153501   6.976   5.207   4.040 -1.2481  0.0487  0.0594
17446SOL    HW253502   6.896   5.308   3.960  1.7550  1.1642 -1.7050
17447SOL     OW53503   0.535   5.607   4.083  0.5442 -0.7570  0.6727
17447SOL    HW153504   0.528   5.677   4.018  1.1377 -0.6105  0.7638
17447SOL    HW253505   0.512   5.527   4.035  2.7712 -0.9294 -0.2472
17448SOL     OW53506   1.101   7.342   4.554 -0.1542 -0.2039  0.4623
17448SOL    HW153507   1.115   7.391   4.473 -0.6335  0.7711  0.9471
17448SOL    HW253508   1.011   7.363   4.579  0.6215  1.2153  2.3319
17449SOL     OW53509   5.535   7.700   2.711 -0.0090  0.6653 -0.1828
17449SOL    HW153510   5.448   7.702   2.671 -0.1375  0.0232  0.0584
17449SOL    HW253511   5.535   7.622   2.766  1.5131 -0.7437 -2.0172
17450SOL     OW53512   7.973   2.672   0.821  0.2125  0.4082  0.6661
17450SOL    HW153513   7.950   2.641   0.734  0.5273  0.0649  0.7006
17450SOL    HW253514   8.032   2.746   0.806 -0.7157  1.1510  0.5819
17451SOL     OW53515   6.100   8.018   0.192  0.8495  0.7774  0.5713
17451SOL    HW153516   6.163   8.066   0.138  1.5771 -0.2588  0.4819
17451SOL    HW253517   6.097   7.930   0.153  0.4480  0.3893  1.4595
17452SOL     OW53518   4.648   1.376   2.392 -0.5299  0.0912  1.0289
17452SOL    HW153519   4.587   1.329   2.448  0.3787 -1.4356  0.7714
17452SOL    HW253520   4.713   1.311   2.366 -1.2562  0.4966 -2.3506
17453SOL     OW53521   6.846   4.121   5.605  0.1189  0.1146 -0.6103
17453SOL    HW153522   6.783   4.061   5.566  0.2474  0.0466 -0.7117
17453SOL    HW253523   6.810   4.208   5.587  0.5612  0.1146 -1.5405
17454SOL     OW53524   0.998   5.850   2.686  0.3928  0.3373  0.0193
17454SOL    HW153525   0.927   5.792   2.713  1.0753 -1.3385 -1.5420
17454SOL    HW253526   1.017   5.902   2.764 -1.8386  0.1433  0.7780
17455SOL     OW53527   7.410   0.231   3.708 -0.3292  0.2819  0.2127
17455SOL    HW153528   7.464   0.310   3.711  0.1367 -0.0591  3.0650
17455SOL    HW253529   7.467   0.162   3.741 -1.3183 -0.9064 -0.4842
17456SOL     OW53530   2.551   6.185   2.566 -0.7869 -0.1267  0.0133
17456SOL    HW153531   2.521   6.097   2.588 -1.3634 -0.1836 -0.9476
17456SOL    HW253532   2.563   6.183   2.471 -0.1288  0.6329  0.0681
17457SOL     OW53533   2.155   1.488   7.796  0.5394 -0.1928 -0.2085
17457SOL    HW153534   2.183   1.519   7.709 -0.2939  1.9958  0.2487
17457SOL    HW253535   2.073   1.442   7.780  0.6599 -0.2582 -0.6506
17458SOL     OW53536   1.652   3.351   7.315  0.2569 -0.7136  0.7041
17458SOL    HW153537   1.712   3.388   7.250  0.0409  0.9989  1.4309
17458SOL    HW253538   1.599   3.289   7.264 -0.3714  1.0690 -0.9720
17459SOL     OW53539   7.576   4.029   1.358  0.1948  0.1576  0.1588
17459SOL    HW153540   7.485   4.012   1.335 -0.6843  1.0829  2.5418
17459SOL    HW253541   7.597   4.112   1.315 -0.4389  0.4494  0.4034
17460SOL     OW53542   0.083   2.401   6.908  0.1195 -0.0437  0.2043
17460SOL    HW153543   0.031   2.434   6.835  0.7549  0.3888 -0.0556
17460SOL    HW253544   0.040   2.437   6.986 -0.5583 -0.5033  0.0599
17461SOL     OW53545   8.833   0.327   6.033 -0.2580 -0.3200 -0.6626
17461SOL    HW153546   8.884   0.248   6.051  1.6750  1.2427  1.2006
17461SOL    HW253547   8.838   0.337   5.938  1.5521 -1.1445 -0.7097
17462SOL     OW53548   8.048   1.179   4.612 -0.1155  0.2137  0.2970
17462SOL    HW153549   8.084   1.265   4.633 -1.1740  0.3368  1.7249
17462SOL    HW253550   8.097   1.118   4.667 -1.2410  0.2528  1.3917
17463SOL     OW53551   7.427   0.105   1.086 -0.2168  0.9407 -0.0470
17463SOL    HW153552   7.410   0.011   1.079 -0.6688  1.0187 -0.0307
17463SOL    HW253553   7.508   0.119   1.036 -0.4391  0.6309 -0.4964
17464SOL     OW53554   0.332   3.752   6.716 -0.4733  0.3518 -0.1511
17464SOL    HW153555   0.283   3.747   6.634  0.8604 -0.6512 -0.9314
17464SOL    HW253556   0.424   3.750   6.689  0.0024  1.1248  1.3208
17465SOL     OW53557   6.985   1.381   5.873  0.1789  0.0524 -0.7214
17465SOL    HW153558   6.897   1.418   5.870  0.5388  0.9308 -0.8048
17465SOL    HW253559   6.983   1.308   5.812 -0.5752 -0.1223 -0.4976
17466SOL     OW53560   4.580   3.814   0.788 -0.8744  0.0805 -0.3698
17466SOL    HW153561   4.651   3.844   0.731 -0.2008  0.7006  0.7801
17466SOL    HW253562   4.606   3.725   0.813  0.1792  0.7603  1.0798
17467SOL     OW53563   1.624   2.622   3.862  0.8065  0.2692  0.0623
17467SOL    HW153564   1.576   2.703   3.881 -1.7171 -1.6947  3.1690
17467SOL    HW253565   1.586   2.589   3.781 -0.8481  0.3996  0.7522
17468SOL     OW53566   1.764   4.348   4.597  0.3637 -0.2079  0.1977
17468SOL    HW153567   1.747   4.284   4.666 -0.3757 -1.0707 -0.7494
17468SOL    HW253568   1.816   4.416   4.639  1.0015 -1.3338  1.2922
17469SOL     OW53569   8.599   1.913   8.083 -0.5601 -0.5060  0.4985
17469SOL    HW153570   8.641   1.829   8.069  0.3292 -0.1749  1.1059
17469SOL    HW253571   8.534   1.896   8.152 -1.9590 -1.1718 -0.9251
17470SOL     OW53572   0.138   0.862   6.514 -0.0678 -0.0015  0.2062
17470SOL    HW153573   0.198   0.817   6.454  0.2907 -0.2652  0.7525
17470SOL    HW253574   0.128   0.949   6.476  2.3645  0.7863  1.2031
17471SOL     OW53575   4.902   1.936   1.427 -0.1073 -0.0242 -0.6014
17471SOL    HW153576   4.942   1.968   1.347  0.4045 -1.1046 -0.7982
17471SOL    HW253577   4.824   1.888   1.398  1.0871 -2.0347 -0.6600
17472SOL     OW53578   2.784   4.258   8.612  0.3198  0.7564  0.4795
17472SOL    HW153579   2.841   4.266   8.688 -0.5803  0.3042  1.2183
17472SOL    HW253580   2.722   4.188   8.634 -0.3586  1.0486 -0.3991
17473SOL     OW53581   7.870   0.355   6.723  0.0198  0.1824  0.1057
17473SOL    HW153582   7.867   0.438   6.771  1.0599 -0.0895  0.6671
17473SOL    HW253583   7.806   0.367   6.652 -1.6666  0.5475  1.5934
17474SOL     OW53584   2.571   1.931   6.018 -0.4167  0.1800 -0.1707
17474SOL    HW153585   2.596   2.010   6.066 -1.1685  0.7282 -0.6550
17474SOL    HW253586   2.612   1.942   5.932  1.4744 -1.1078  0.5285
17475SOL     OW53587   0.663   2.316   2.070  0.4170  0.4971 -0.1373
17475SOL    HW153588   0.747   2.357   2.089  0.6548  0.4486 -1.0156
17475SOL    HW253589   0.650   2.331   1.976  0.1675 -0.8053 -0.3306
17476SOL     OW53590   1.941   6.016   1.665 -0.2311  0.5776  0.4056
17476SOL    HW153591   1.876   6.039   1.599  1.0488  1.6056 -0.5436
17476SOL    HW253592   1.969   6.099   1.702  1.5021  0.2818 -0.1614
17477SOL     OW53593   4.042   2.011   8.625 -0.3204  0.0397 -0.1570
17477SOL    HW153594   4.132   2.029   8.598 -0.6415 -0.0667 -1.3719
17477SOL    HW253595   4.041   2.028   8.720  0.8642  0.4500 -0.2014
17478SOL     OW53596   7.220   1.511   5.788  0.3207  0.1415  0.1204
17478SOL    HW153597   7.265   1.449   5.730  0.4441  0.0847  0.2777
17478SOL    HW253598   7.156   1.457   5.835 -1.0571  0.4914 -1.2773
17479SOL     OW53599   3.433   4.412   8.152 -0.9485 -0.0873 -0.2201
17479SOL    HW153600   3.463   4.414   8.243 -1.0134  1.7551 -0.2136
17479SOL    HW253601   3.400   4.323   8.140 -0.1245 -0.6365  1.2781
17480SOL     OW53602   8.568   8.828   6.004 -0.5544  0.2210 -0.1451
17480SOL    HW153603   8.556   8.811   6.097  3.7253  2.6759  1.0882
17480SOL    HW253604   8.506   8.898   5.984 -0.8499  0.3186  1.0602
17481SOL     OW53605   6.676   0.064   8.209  0.4932  0.0851  0.1936
17481SOL    HW153606   6.654  -0.026   8.184 -0.4178  0.2873  0.2464
17481SOL    HW253607   6.691   0.059   8.303  0.6778 -0.0539  0.1581
17482SOL     OW53608   3.689   1.320   8.512  0.0698 -0.2126 -0.4392
17482SOL    HW153609   3.780   1.337   8.537  0.2865 -1.4702 -0.3211
17482SOL    HW253610   3.650   1.279   8.588 -0.4213 -0.2956 -0.7307
17483SOL     OW53611   8.541   4.860   0.194  0.0231  0.2107  0.2484
17483SOL    HW153612   8.566   4.940   0.240  1.1061  0.3009 -0.4704
17483SOL    HW253613   8.612   4.845   0.132 -0.3970 -1.0530  0.0524
17484SOL     OW53614   0.729   5.959   2.538 -0.1524 -0.3930  0.1362
17484SOL    HW153615   0.776   5.974   2.620  0.0834  0.2341 -0.1108
17484SOL    HW253616   0.636   5.964   2.562 -0.0818  0.1813  0.2926
17485SOL     OW53617   1.337   6.647   1.059 -0.3797  1.2306 -0.1619
17485SOL    HW153618   1.246   6.618   1.052 -0.4110  0.4042  2.7101
17485SOL    HW253619   1.335   6.738   1.029 -2.1406  1.2448 -0.1139
17486SOL     OW53620   1.252   8.397   7.488 -0.3820  0.5827 -0.4921
17486SOL    HW153621   1.236   8.449   7.409 -1.5849 -1.0568 -1.4012
17486SOL    HW253622   1.235   8.456   7.560  1.2659  2.3000 -1.4066
17487SOL     OW53623   1.043   5.965   5.851  0.3232 -0.4747 -0.4825
17487SOL    HW153624   1.130   5.984   5.815  0.8305  2.0623  1.8102
17487SOL    HW253625   0.984   6.023   5.803  0.4649  0.3850  0.3685
17488SOL     OW53626   8.295   6.592   7.478 -0.2872 -0.1425  0.2749
17488SOL    HW153627   8.323   6.530   7.411  0.0743 -0.0434  0.3310
17488SOL    HW253628   8.224   6.547   7.524  0.3290 -0.7356  0.6603
17489SOL     OW53629   8.395   3.665   6.083 -0.2509 -0.3346  0.2959
17489SOL    HW153630   8.474   3.673   6.030 -1.4233 -1.5659 -1.7747
17489SOL    HW253631   8.326   3.644   6.020 -2.2134  0.4994  2.0442
17490SOL     OW53632   7.351   6.881   7.302  0.2639 -0.4334  0.6271
17490SOL    HW153633   7.315   6.819   7.366 -0.4193 -2.1666 -1.3078
17490SOL    HW253634   7.391   6.825   7.235 -0.4715  1.2118 -1.2788
17491SOL     OW53635   8.526   8.587   7.332  0.2860 -0.7313  0.4463
17491SOL    HW153636   8.494   8.667   7.292  4.0313  1.4687  1.3358
17491SOL    HW253637   8.549   8.530   7.258 -0.1144  0.0162 -0.2679
17492SOL     OW53638   7.554   1.964   5.640  0.0716  0.0347 -0.2820
17492SOL    HW153639   7.549   1.879   5.596  1.5734  0.1117 -0.6767
17492SOL    HW253640   7.647   1.988   5.634 -0.3147  1.6833 -0.1358
17493SOL     OW53641   5.349   3.578   2.255 -0.1005  0.0439  0.3612
17493SOL    HW153642   5.325   3.544   2.342  1.2969  1.2666  1.2654
17493SOL    HW253643   5.441   3.554   2.245  0.0149  0.7742 -0.3596
17494SOL     OW53644   0.846   4.565   1.609 -0.5260  0.3541 -0.4566
17494SOL    HW153645   0.768   4.595   1.562 -0.6304  0.3931 -0.2569
17494SOL    HW253646   0.919   4.601   1.559 -0.6003 -0.5431 -1.2544
17495SOL     OW53647   1.551   5.359   8.528  0.4289  0.6234 -0.3240
17495SOL    HW153648   1.493   5.371   8.453  0.8706  0.8545 -0.6355
17495SOL    HW253649   1.625   5.417   8.511  1.1162 -0.2209 -0.3083
17496SOL     OW53650   5.666   1.368   7.516 -0.1947 -0.0401 -0.1619
17496SOL    HW153651   5.742   1.423   7.538 -0.1921 -0.5337  1.1151
17496SOL    HW253652   5.597   1.398   7.575 -0.6039 -0.5056 -0.3970
17497SOL     OW53653   1.107   4.266   0.165 -0.2802 -0.4151  0.0746
17497SOL    HW153654   1.118   4.197   0.230  0.1708  0.4555  0.9360
17497SOL    HW253655   1.029   4.240   0.116 -0.5282 -1.1673  0.8369
17498SOL     OW53656   5.773   6.892   6.881  0.1950  0.2899  0.3328
17498SOL    HW153657   5.706   6.825   6.894 -0.0205  0.8535  2.5372
17498SOL    HW253658   5.836   6.876   6.951  2.5342 -0.3529 -1.8043
17499SOL     OW53659   3.275   0.134   0.597  0.4396 -0.5930  0.2137
17499SOL    HW153660   3.240   0.045   0.603  1.0179 -0.7708  1.1454
17499SOL    HW253661   3.364   0.127   0.632  0.5311  0.3262  0.1791
17500SOL     OW53662   8.012   3.613   7.679  0.0007  0.5343  0.1328
17500SOL    HW153663   7.985   3.629   7.589 -1.2602  1.0695  0.5860
17500SOL    HW253664   8.059   3.693   7.704 -0.3431  0.7143  0.2046
17501SOL     OW53665   5.285   7.840   1.137  0.0309 -0.0808 -0.1747
17501SOL    HW153666   5.248   7.764   1.181 -0.7853  0.1398 -0.4602
17501SOL    HW253667   5.370   7.853   1.179  0.8390 -1.9949 -1.0655
17502SOL     OW53668   1.557   2.616   4.223 -0.3127 -0.3006 -0.7110
17502SOL    HW153669   1.542   2.575   4.308 -1.4014  0.4695 -0.5066
17502SOL    HW253670   1.612   2.554   4.176 -0.8470 -1.3813  0.0461
17503SOL     OW53671   6.815   4.244   3.079  0.2754 -0.3783 -0.2969
17503SOL    HW153672   6.790   4.333   3.052  1.6463  0.8821  2.2887
17503SOL    HW253673   6.808   4.245   3.174  2.3970 -2.3758 -0.0486
17504SOL     OW53674   8.564   5.125   6.854 -0.1056 -0.1227 -0.3989
17504SOL    HW153675   8.629   5.119   6.924  0.4048 -1.3791 -0.9594
17504SOL    HW253676   8.548   5.034   6.827 -1.5649  0.2105 -0.7610
17505SOL     OW53677   6.064   6.062   7.659 -0.1903 -0.5456  1.0161
17505SOL    HW153678   5.973   6.033   7.649 -0.8337  1.6265  0.0139
17505SOL    HW253679   6.065   6.151   7.623  2.2603 -0.3680  1.3661
17506SOL     OW53680   2.514   0.958   4.799 -0.1829 -0.2667 -0.0390
17506SOL    HW153681   2.439   0.899   4.792 -0.3800  0.1139 -1.4695
17506SOL    HW253682   2.506   1.015   4.722 -0.4228  2.1384  1.6605
17507SOL     OW53683   8.077   0.239   8.183 -0.3988  0.2200  0.0865
17507SOL    HW153684   8.139   0.310   8.173 -0.6833  0.5511  0.6266
17507SOL    HW253685   8.026   0.240   8.101 -1.5726  1.7869  0.7882
17508SOL     OW53686   2.290   3.438   7.405 -0.6103 -0.1464  0.2817
17508SOL    HW153687   2.253   3.520   7.440  2.5125  1.1602  0.8762
17508SOL    HW253688   2.319   3.390   7.483  0.9166 -0.0524 -0.1975
17509SOL     OW53689   1.202   8.851   7.460  0.0974  0.0806  0.0257
17509SOL    HW153690   1.167   8.926   7.509 -0.3534 -0.6408  0.8294
17509SOL    HW253691   1.195   8.878   7.368 -1.2760  0.5344  0.2281
17510SOL     OW53692   0.648   8.170   2.114 -0.0588 -0.3772  0.1971
17510SOL    HW153693   0.639   8.230   2.188 -1.1195 -1.8142  1.2972
17510SOL    HW253694   0.725   8.118   2.135  0.6182  0.2864 -0.5575
17511SOL     OW53695   2.374   6.534   5.385  0.2963 -0.1780 -0.2638
17511SOL    HW153696   2.343   6.450   5.418 -0.4471 -0.3194 -1.2744
17511SOL    HW253697   2.444   6.512   5.323  0.9465  0.0254  0.3833
17512SOL     OW53698   0.133   3.597   0.356 -0.5367  0.2473  0.0132
17512SOL    HW153699   0.049   3.606   0.401 -0.8155  1.6545 -0.7410
17512SOL    HW253700   0.185   3.671   0.386  0.0916 -0.0645 -0.2721
17513SOL     OW53701   1.099   6.890   2.194  0.5834 -0.6012 -0.2662
17513SOL    HW153702   1.190   6.904   2.220  0.7563  0.5169 -1.3406
17513SOL    HW253703   1.105   6.829   2.121  0.5258 -0.1768 -0.6306
17514SOL     OW53704   8.776   5.602   2.367 -0.1809  0.4239 -0.2694
17514SOL    HW153705   8.687   5.638   2.366 -0.2039  0.6280 -3.5719
17514SOL    HW253706   8.832   5.677   2.345  0.5044 -0.2064 -0.7343
17515SOL     OW53707   3.670   1.288   3.376 -0.0789  0.6123 -0.1410
17515SOL    HW153708   3.666   1.217   3.441  0.4519  0.6811 -0.0293
17515SOL    HW253709   3.713   1.360   3.422  1.3244  0.3003 -0.8796
17516SOL     OW53710   3.162   1.523   6.419 -0.4466  0.0560 -0.4746
17516SOL    HW153711   3.136   1.509   6.328  0.7970  2.1266 -1.2348
17516SOL    HW253712   3.166   1.618   6.428 -1.0645 -0.0957  1.9345
17517SOL     OW53713   5.682   0.278   6.262  0.3674  0.3591 -0.2821
17517SOL    HW153714   5.731   0.313   6.336 -0.6888  0.4576  0.4010
17517SOL    HW253715   5.604   0.333   6.257 -0.3425 -0.6371 -0.4608
17518SOL     OW53716   8.550   6.593   8.702  0.7918 -0.7370  0.2791
17518SOL    HW153717   8.567   6.687   8.697 -1.1747 -0.3786 -0.3296
17518SOL    HW253718   8.619   6.560   8.760  3.4160  0.5458 -1.9023
17519SOL     OW53719   4.735   3.184   6.792 -0.0482  0.9402  0.5687
17519SOL    HW153720   4.719   3.173   6.698 -0.5337  1.4371  0.5904
17519SOL    HW253721   4.701   3.271   6.813 -0.4729  0.6140  1.3157
17520SOL     OW53722   7.012   2.566   5.740 -0.1352  0.3244 -0.5323
17520SOL    HW153723   7.014   2.481   5.698 -2.7240  0.0106 -0.2147
17520SOL    HW253724   7.101   2.580   5.773  0.5004 -1.9345 -1.1665
17521SOL     OW53725   8.011   0.497   5.678 -0.0424  0.0828  0.5468
17521SOL    HW153726   8.009   0.461   5.767 -0.2672  0.7939  0.8318
17521SOL    HW253727   8.062   0.433   5.628  0.3934 -0.1448  1.2669
17522SOL     OW53728   2.489   4.738   4.632 -0.2610  0.3257  0.4062
17522SOL    HW153729   2.563   4.688   4.597 -0.1432  0.5289  0.3680
17522SOL    HW253730   2.412   4.697   4.592 -0.1186  0.6473 -0.2016
17523SOL     OW53731   4.869   4.349   8.004 -0.2987  0.2944 -1.0207
17523SOL    HW153732   4.812   4.367   8.079  1.4409 -1.2351  0.8182
17523SOL    HW253733   4.908   4.433   7.983  0.0154  0.5989  0.5930
17524SOL     OW53734   1.072   0.438   6.996  0.0231 -0.5237 -0.4003
17524SOL    HW153735   1.037   0.350   7.007  0.6159 -0.5713  1.3332
17524SOL    HW253736   0.994   0.493   6.983 -0.7699 -0.7358  2.6337
17525SOL     OW53737   7.230   4.757   8.039 -0.0319 -0.0695  0.0525
17525SOL    HW153738   7.282   4.679   8.060  1.9741  1.0928 -0.3196
17525SOL    HW253739   7.277   4.829   8.081 -0.4159  1.2618 -1.6773
17526SOL     OW53740   0.513   3.953   1.952 -0.1199 -0.2815  0.1139
17526SOL    HW153741   0.464   3.978   2.030 -0.0522 -0.0445  0.0808
17526SOL    HW253742   0.448   3.947   1.882 -0.0979  0.0605  0.0638
17527SOL     OW53743   4.919   2.726   3.576  0.1538  0.7617  0.5090
17527SOL    HW153744   4.828   2.735   3.548  0.4691  2.6811 -0.0783
17527SOL    HW253745   4.913   2.695   3.667 -0.9787 -1.6106 -0.3155
17528SOL     OW53746   2.373   1.462   6.616  0.3185 -0.3326 -0.3012
17528SOL    HW153747   2.368   1.406   6.538 -0.8457 -0.1547 -0.3774
17528SOL    HW253748   2.282   1.480   6.638  0.6286 -0.2754  1.0378
17529SOL     OW53749   1.351   8.127   0.745  0.0792 -0.2640 -0.0362
17529SOL    HW153750   1.389   8.069   0.812  1.5837 -0.0385 -0.6437
17529SOL    HW253751   1.423   8.142   0.683 -1.1389 -0.1108 -1.4759
17530SOL     OW53752   0.707   8.257   7.022  0.2561 -0.0127 -0.2226
17530SOL    HW153753   0.775   8.322   7.040 -0.3727  0.3620  0.8997
17530SOL    HW253754   0.655   8.254   7.102 -1.5102  0.2575 -1.3142
17531SOL     OW53755   5.340   5.021   1.775 -0.1344  0.2466  0.9227
17531SOL    HW153756   5.349   5.093   1.712 -1.7748 -0.9872 -0.8258
17531SOL    HW253757   5.399   5.045   1.847  1.0059  2.2530 -0.5680
17532SOL     OW53758   0.539   4.910   0.986  0.1241  0.1708  0.3634
17532SOL    HW153759   0.531   4.922   0.892  0.0728  0.4436  0.3995
17532SOL    HW253760   0.626   4.945   1.007  0.0262  0.3644  0.4537
17533SOL     OW53761   3.513   3.411   4.389  0.0766 -0.0690  0.1084
17533SOL    HW153762   3.576   3.475   4.421  1.6370 -2.3290  1.9677
17533SOL    HW253763   3.446   3.406   4.457  0.4954 -1.0402  0.4782
17534SOL     OW53764   7.172   3.283   2.280 -0.0513 -0.9089  0.4844
17534SOL    HW153765   7.083   3.248   2.286 -0.4325  0.0411  0.5673
17534SOL    HW253766   7.192   3.282   2.186 -1.5307  2.0831  0.0069
17535SOL     OW53767   2.114   6.217   6.286  0.4995  0.4136  0.1762
17535SOL    HW153768   2.121   6.227   6.381 -0.3400  1.0693  0.1862
17535SOL    HW253769   2.204   6.201   6.257  0.7481  0.0812  1.0869
17536SOL     OW53770   4.734   6.512   1.560 -0.4098  0.0162  0.6405
17536SOL    HW153771   4.702   6.474   1.641 -0.1536 -1.0019  0.2735
17536SOL    HW253772   4.656   6.549   1.518 -0.6109  0.1548  1.1351
17537SOL     OW53773   0.262   1.331   6.247 -0.7240  0.5027 -0.0446
17537SOL    HW153774   0.234   1.255   6.297  1.2328  0.0100  0.3773
17537SOL    HW253775   0.259   1.302   6.156 -0.1473 -0.0410  0.1028
17538SOL     OW53776   4.701   2.964   0.141 -0.2925  0.2081 -0.2585
17538SOL    HW153777   4.767   2.999   0.081 -0.3976  0.4246 -0.2487
17538SOL    HW253778   4.696   2.871   0.120 -1.5317  0.5736 -1.7361
17539SOL     OW53779   7.124   5.825   1.298 -0.2610 -0.0887 -0.4528
17539SOL    HW153780   7.065   5.842   1.371 -1.0538  1.4797 -1.3917
17539SOL    HW253781   7.147   5.913   1.265  2.6962 -0.5950 -0.0883
17540SOL     OW53782   1.664   2.787   6.038  0.4716 -0.2712 -0.5944
17540SOL    HW153783   1.679   2.734   5.959  0.9780  0.3974 -0.9529
17540SOL    HW253784   1.748   2.828   6.055 -0.1742  1.2299 -0.9137
17541SOL     OW53785   3.956   8.010   6.449  0.5292 -0.4524  0.1999
17541SOL    HW153786   3.930   8.062   6.373 -1.8637 -1.3706  0.3103
17541SOL    HW253787   4.050   7.998   6.438  0.9671  2.7272 -0.5114
17542SOL     OW53788   7.303   3.394   4.467  0.3042  0.0121  0.1834
17542SOL    HW153789   7.384   3.442   4.485  1.0041 -0.8389 -0.6389
17542SOL    HW253790   7.331   3.314   4.424 -1.0158 -0.0734 -0.5633
17543SOL     OW53791   5.010   6.172   1.103  0.1566  0.3215 -0.0973
17543SOL    HW153792   5.057   6.145   1.024  1.1257 -1.0362  0.8869
17543SOL    HW253793   5.027   6.101   1.166 -1.8213  0.6187  0.8594
17544SOL     OW53794   8.612   5.892   8.746  0.1761 -0.3698  0.5491
17544SOL    HW153795   8.635   5.812   8.698  0.0702 -0.6035  0.8818
17544SOL    HW253796   8.689   5.913   8.798  2.7213  3.2213 -3.9713
17545SOL     OW53797   0.222   7.174   8.385 -0.6549  0.0808 -0.3019
17545SOL    HW153798   0.223   7.268   8.402  1.2112  0.0746 -0.1559
17545SOL    HW253799   0.181   7.165   8.299 -0.3019  1.0725 -0.5774
17546SOL     OW53800   0.315   1.554   3.508  1.1725  0.1480 -0.3857
17546SOL    HW153801   0.227   1.527   3.536  1.1984 -1.2682 -1.5137
17546SOL    HW253802   0.301   1.597   3.424  1.4195  1.4357  0.2071
17547SOL     OW53803   3.400   3.961   5.071  0.3723  0.0323  0.6986
17547SOL    HW153804   3.417   4.041   5.120  0.9936 -0.5023  1.3737
17547SOL    HW253805   3.407   3.890   5.135 -1.5291 -0.4782  0.4038
17548SOL     OW53806   0.330   8.202   3.314 -0.5620  0.1445  0.0707
17548SOL    HW153807   0.419   8.220   3.284  0.1207 -2.2844  0.4319
17548SOL    HW253808   0.279   8.276   3.281  1.4769  1.3711 -0.5577
17549SOL     OW53809   2.854   3.465   5.361  0.5873  0.3568 -0.4751
17549SOL    HW153810   2.865   3.536   5.297  0.6465  1.7634  1.0418
17549SOL    HW253811   2.916   3.398   5.331 -0.2406  0.4344 -2.5622
17550SOL     OW53812   8.598   7.748   5.509 -0.2353  0.7696 -0.2963
17550SOL    HW153813   8.632   7.661   5.489 -0.8109  0.8509 -1.7600
17550SOL    HW253814   8.563   7.741   5.598  2.3458  0.3304  0.7621
17551SOL     OW53815   3.829   6.595   7.637  0.1136  0.5624  0.6720
17551SOL    HW153816   3.754   6.536   7.649  1.0924 -0.5232  1.7581
17551SOL    HW253817   3.865   6.571   7.552 -0.0691  0.2574  0.6770
17552SOL     OW53818   3.236   3.583   3.825  0.0223 -0.8241 -0.2236
17552SOL    HW153819   3.325   3.602   3.797 -0.9812 -0.1372 -3.3823
17552SOL    HW253820   3.209   3.662   3.873  0.7739 -0.6337 -0.0961
17553SOL     OW53821   5.691   1.032   1.010  0.1429  0.3379 -0.1127
17553SOL    HW153822   5.773   1.077   1.031 -0.4435  0.6829  1.6025
17553SOL    HW253823   5.717   0.941   0.995  1.0736  0.8178 -1.5778
17554SOL     OW53824   5.614   6.818   7.821  0.3185  0.7242 -0.0578
17554SOL    HW153825   5.546   6.885   7.830  0.0994  0.3620  1.2631
17554SOL    HW253826   5.581   6.744   7.873 -1.0924 -1.8122 -4.0535
17555SOL     OW53827   0.554   3.941   5.052  0.1305  0.1973 -0.2889
17555SOL    HW153828   0.629   3.908   5.002  1.0519 -2.8174  2.7174
17555SOL    HW253829   0.479   3.895   5.014  0.7065 -1.4796  0.5359
17556SOL     OW53830   7.621   7.278   5.691  0.5751 -0.6074  0.3522
17556SOL    HW153831   7.532   7.245   5.692  0.5635 -0.6303  1.8360
17556SOL    HW253832   7.613   7.368   5.722  0.7587  0.4300 -2.3628
17557SOL     OW53833   3.302   2.635   2.518 -0.5235 -0.0058  0.2502
17557SOL    HW153834   3.256   2.719   2.515 -2.0563 -0.8397 -2.3280
17557SOL    HW253835   3.237   2.573   2.552  0.0585 -0.4675  0.5513
17558SOL     OW53836   4.070   1.113   6.701 -0.8213 -0.5372 -0.5529
17558SOL    HW153837   4.008   1.068   6.759  0.4867 -0.5664  0.9143
17558SOL    HW253838   4.016   1.171   6.647 -2.1596 -0.9106  0.3449
17559SOL     OW53839   6.459   8.182   5.116 -0.2127 -0.0847  0.1335
17559SOL    HW153840   6.443   8.131   5.037 -0.2836 -0.1627  0.1978
17559SOL    HW253841   6.378   8.230   5.130 -0.1340  0.0734  0.0535
17560SOL     OW53842   8.396   8.667   6.991  0.1798 -0.0636  0.1109
17560SOL    HW153843   8.343   8.747   6.988  1.0911  0.5746  0.6351
17560SOL    HW253844   8.460   8.677   6.920  0.5321 -0.1595  0.4116
17561SOL     OW53845   6.431   2.033   2.833 -0.0410  0.1425 -0.0285
17561SOL    HW153846   6.359   2.085   2.800  0.1419 -0.5114 -1.5324
17561SOL    HW253847   6.390   1.956   2.873 -0.2672  0.9918  1.4413
17562SOL     OW53848   6.806   5.861   3.838 -0.0402  0.1639 -0.1266
17562SOL    HW153849   6.863   5.937   3.854 -1.6441  1.4452 -0.2121
17562SOL    HW253850   6.801   5.818   3.923  0.5150  0.4225  0.0452
17563SOL     OW53851   4.609   7.676   1.109 -0.3795 -0.2753  0.4154
17563SOL    HW153852   4.567   7.749   1.063  1.1953  1.2571  1.3158
17563SOL    HW253853   4.556   7.664   1.188  0.6636  1.5259  1.4555
17564SOL     OW53854   6.209   4.570   0.532 -0.0986  0.1246  0.8276
17564SOL    HW153855   6.184   4.512   0.604  0.7870 -0.7222  0.4601
17564SOL    HW253856   6.222   4.513   0.457  2.7652  0.4834  0.9400
17565SOL     OW53857   4.985   7.080   7.110  0.0227  0.5665  0.1728
17565SOL    HW153858   4.959   6.988   7.098 -1.9350  0.8491  1.6766
17565SOL    HW253859   5.022   7.083   7.198  1.7898  0.9339 -0.5415
17566SOL     OW53860   0.240   4.190   2.856 -0.1992  0.6317  0.2801
17566SOL    HW153861   0.260   4.134   2.931  0.1203 -0.7356 -0.7670
17566SOL    HW253862   0.209   4.272   2.894  2.9520  1.1843  1.9448
17567SOL     OW53863   6.028   8.084   2.637 -0.5852  0.5946  0.1081
17567SOL    HW153864   6.066   8.042   2.714  1.4195  0.7259 -0.7485
17567SOL    HW253865   5.967   8.019   2.601 -0.0398 -0.2461  0.6809
17568SOL     OW53866   0.220   2.515   5.068 -0.5846 -0.0129  0.5304
17568SOL    HW153867   0.148   2.518   5.004 -0.6053 -0.1628  0.5461
17568SOL    HW253868   0.179   2.488   5.150 -0.3558 -1.1272  0.3059
17569SOL     OW53869   8.321   6.546   6.961  0.6106 -0.0128  0.2459
17569SOL    HW153870   8.279   6.622   6.921  3.2391  0.6791 -1.4735
17569SOL    HW253871   8.255   6.477   6.957 -1.9252  2.1020  1.9948
17570SOL     OW53872   4.117   2.373   4.786 -0.2270  0.4928 -0.2113
17570SOL    HW153873   4.159   2.386   4.871 -1.0871 -1.4976  0.5900
17570SOL    HW253874   4.145   2.285   4.759 -2.3819 -0.1768 -0.4907
17571SOL     OW53875   7.565   4.815   3.859 -0.0367 -0.1711 -0.8713
17571SOL    HW153876   7.517   4.738   3.828 -0.1996 -1.8218  2.8276
17571SOL    HW253877   7.507   4.889   3.839 -1.4780 -1.4263 -1.5513
17572SOL     OW53878   2.905   2.220   3.392 -0.0635  0.7522  0.2981
17572SOL    HW153879   2.919   2.213   3.486 -0.1294 -0.7632  0.2088
17572SOL    HW253880   2.811   2.207   3.381  0.0730  0.0231 -0.0471
17573SOL     OW53881   7.121   1.203   3.206 -0.0651  0.6767  0.1082
17573SOL    HW153882   7.214   1.196   3.183 -0.0225 -2.0388  0.7363
17573SOL    HW253883   7.075   1.191   3.124  0.1696 -1.9732  0.2763
17574SOL     OW53884   1.582   7.083   0.218  0.5895 -0.3055  0.0037
17574SOL    HW153885   1.494   7.109   0.192  0.2268 -1.6624 -0.1461
17574SOL    HW253886   1.613   7.157   0.272 -0.4159  0.4209 -0.3849
17575SOL     OW53887   7.982   8.862   3.921  0.6016  0.4178  0.5357
17575SOL    HW153888   7.974   8.842   3.828 -0.9134  0.9288  0.5373
17575SOL    HW253889   7.932   8.943   3.933 -0.0648 -0.1774  1.9759
17576SOL     OW53890   1.606   2.736   1.656  0.1215 -0.0020 -0.4199
17576SOL    HW153891   1.700   2.730   1.643  0.2566  0.6549  0.2119
17576SOL    HW253892   1.572   2.772   1.575  0.2506 -1.4176 -1.1423
17577SOL     OW53893   4.943   1.891   1.159  0.0754 -0.3531 -0.6026
17577SOL    HW153894   4.991   1.831   1.103 -1.1763 -0.9135 -1.1187
17577SOL    HW253895   4.871   1.923   1.104 -2.3378 -2.3494  1.1444
17578SOL     OW53896   4.550   8.830   3.095 -0.1511  0.0166  0.0401
17578SOL    HW153897   4.630   8.798   3.052 -0.8008 -0.0380 -1.1756
17578SOL    HW253898   4.560   8.925   3.095  0.6091 -0.0452  1.3144
17579SOL     OW53899   6.830   4.005   4.595 -0.2532  0.1847 -0.5668
17579SOL    HW153900   6.744   4.019   4.555  0.0827 -2.2409 -2.3268
17579SOL    HW253901   6.886   4.072   4.555 -0.9851  0.8700 -0.4712
17580SOL     OW53902   4.803   6.281   5.120  0.1464 -0.4427  0.0281
17580SOL    HW153903   4.763   6.321   5.042  2.1752  0.6770 -0.5023
17580SOL    HW253904   4.830   6.194   5.090 -2.8735 -1.7859  0.7556
17581SOL     OW53905   3.940   8.704   8.023  0.0416 -0.1846 -0.0065
17581SOL    HW153906   3.975   8.679   8.109 -1.2299  1.2997  0.9936
17581SOL    HW253907   4.018   8.726   7.971  0.7508  1.9949  1.8049
17582SOL     OW53908   1.840   1.448   4.407 -0.2162  0.3043  0.6554
17582SOL    HW153909   1.910   1.507   4.435 -0.9081  1.5813 -0.1989
17582SOL    HW253910   1.864   1.421   4.319  0.3911 -1.1977  1.2576
17583SOL     OW53911   1.492   5.563   6.579  0.2013  0.2044  0.7578
17583SOL    HW153912   1.555   5.634   6.569  0.6262  0.0544  2.2316
17583SOL    HW253913   1.415   5.593   6.531  2.3028 -0.9401 -3.9348
17584SOL     OW53914   7.076   0.226   6.675  0.0947  0.2129  0.4534
17584SOL    HW153915   7.007   0.161   6.688  1.1321 -0.8550  0.7851
17584SOL    HW253916   7.057   0.294   6.740 -0.8314  0.1115  0.3028
17585SOL     OW53917   0.164   5.039   4.743  0.1951  0.3854  0.1050
17585SOL    HW153918   0.161   4.959   4.796  2.9419  0.5719  0.6634
17585SOL    HW253919   0.102   5.098   4.786 -0.5991 -0.8368  0.7036
17586SOL     OW53920   4.264   7.241   7.786  0.0199  0.3143 -0.4468
17586SOL    HW153921   4.212   7.191   7.723  0.9999 -1.5129  0.1219
17586SOL    HW253922   4.204   7.258   7.858 -1.1390  2.4862 -1.8064
17587SOL     OW53923   3.338   7.028   1.535  0.3548 -0.1963 -0.0991
17587SOL    HW153924   3.375   7.106   1.575  0.9984  0.3579 -1.6839
17587SOL    HW253925   3.248   7.054   1.511  0.1418 -0.3608  0.5231
17588SOL     OW53926   6.323   1.468   2.576 -0.0336 -0.2256 -0.2864
17588SOL    HW153927   6.306   1.551   2.621  1.0766  0.7367 -1.5838
17588SOL    HW253928   6.377   1.418   2.638  0.7803  0.7460 -0.1945
17589SOL     OW53929   0.577   4.158   6.324  0.0266 -0.3562 -0.1161
17589SOL    HW153930   0.624   4.241   6.332 -0.6518  0.0263 -0.0677
17589SOL    HW253931   0.542   4.159   6.235 -0.0694 -0.5476 -0.0805
17590SOL     OW53932   4.558   0.773   1.521  0.5014 -0.1836  0.4802
17590SOL    HW153933   4.644   0.768   1.564  0.8528 -0.2843 -0.2271
17590SOL    HW253934   4.576   0.755   1.429 -0.1610  0.6121  0.1812
17591SOL     OW53935   7.466   6.533   1.511  0.3134 -0.2185 -0.0926
17591SOL    HW153936   7.476   6.562   1.601  1.3254 -1.7440  0.3304
17591SOL    HW253937   7.391   6.474   1.513  0.5259 -0.4914 -0.1891
17592SOL     OW53938   1.199   2.644   2.208 -0.1334 -0.5845 -0.0253
17592SOL    HW153939   1.212   2.611   2.297  0.0020 -0.1262  0.1288
17592SOL    HW253940   1.105   2.662   2.203 -0.0162  0.1617  0.3049
17593SOL     OW53941   1.980   3.168   0.826 -0.1926  0.2915  0.2945
17593SOL    HW153942   1.926   3.103   0.870  0.3511 -0.6693 -0.4006
17593SOL    HW253943   2.047   3.192   0.890  0.6964 -1.2244 -0.0160
17594SOL     OW53944   7.811   5.422   6.723 -0.4785  0.4029 -0.2328
17594SOL    HW153945   7.801   5.479   6.647 -0.6791  1.7767  0.7910
17594SOL    HW253946   7.722   5.396   6.746 -0.6067  1.6468  0.7406
17595SOL     OW53947   8.204   8.778   4.663 -0.1171  0.3381 -0.0194
17595SOL    HW153948   8.276   8.816   4.713 -0.4669  0.2631  0.5472
17595SOL    HW253949   8.125   8.811   4.705 -0.4192 -0.1168 -0.2142
17596SOL     OW53950   1.638   4.991   3.616 -0.0627 -0.3783  0.0442
17596SOL    HW153951   1.699   4.983   3.689  0.3844  0.5091 -0.2206
17596SOL    HW253952   1.551   4.984   3.656  0.1887 -1.9192  0.3874
17597SOL     OW53953   6.768   4.199   0.454  0.0775  0.0249  0.0045
17597SOL    HW153954   6.753   4.220   0.547  0.7033 -0.5452  0.2429
17597SOL    HW253955   6.811   4.113   0.456 -1.2365 -0.6796 -0.8833
17598SOL     OW53956   4.175   2.872   1.356 -0.4526  0.7316 -0.9414
17598SOL    HW153957   4.214   2.850   1.271 -0.5262 -2.5791 -0.2753
17598SOL    HW253958   4.084   2.843   1.350 -0.0733 -1.0675  0.6549
17599SOL     OW53959   4.646   8.228   6.294 -0.1928  0.0281  0.2148
17599SOL    HW153960   4.586   8.155   6.281 -0.3072 -0.2736  2.1796
17599SOL    HW253961   4.600   8.304   6.259 -0.9941 -0.4803  0.1455
17600SOL     OW53962   4.484   2.821   7.032  0.1514 -0.2504  0.0463
17600SOL    HW153963   4.525   2.781   6.955 -1.2472 -0.4080 -0.6481
17600SOL    HW253964   4.526   2.907   7.038  1.6251 -0.9510  0.2555
17601SOL     OW53965   6.633   8.021   6.894  0.2629 -0.1577 -0.2627
17601SOL    HW153966   6.613   8.009   6.802  1.9580  0.5010 -0.7513
17601SOL    HW253967   6.566   8.082   6.926 -0.2825 -0.3340 -1.0521
17602SOL     OW53968   7.186   3.218   4.118 -0.5491 -0.2437 -0.1269
17602SOL    HW153969   7.258   3.235   4.058 -1.2765 -0.5098 -1.1155
17602SOL    HW253970   7.126   3.163   4.067  0.3308 -3.3713  1.8878
17603SOL     OW53971   3.144   0.598   8.835  0.2978 -0.3115 -0.2263
17603SOL    HW153972   3.201   0.576   8.762 -0.5826  0.7424 -1.2742
17603SOL    HW253973   3.084   0.524   8.843  1.3612 -1.1338  0.4708
17604SOL     OW53974   0.484   2.899   7.977  0.5220 -0.5440  0.0327
17604SOL    HW153975   0.559   2.957   7.962 -0.8567  0.9193 -1.5439
17604SOL    HW253976   0.448   2.926   8.061 -0.5303  1.4575 -1.0011
17605SOL     OW53977   3.717   6.626   6.503  0.5209 -0.5288  0.6785
17605SOL    HW153978   3.646   6.620   6.568  0.9794  0.3407  1.2843
17605SOL    HW253979   3.742   6.535   6.488  0.1375 -0.7760  1.4301
17606SOL     OW53980   0.600   4.335   2.701  0.4395 -0.5331 -0.2907
17606SOL    HW153981   0.652   4.403   2.657 -0.3303 -0.7608 -1.5970
17606SOL    HW253982   0.629   4.253   2.661 -0.0383 -0.7826 -0.1256
17607SOL     OW53983   2.225   4.518   8.797 -0.1368 -0.4573  0.7986
17607SOL    HW153984   2.303   4.463   8.787  0.3799  0.5702 -1.6282
17607SOL    HW253985   2.235   4.561   8.881  2.9324  1.0696 -0.2214
17608SOL     OW53986   3.823   4.722   7.059 -0.6016  0.2596 -0.0469
17608SOL    HW153987   3.758   4.652   7.063  1.3132 -1.5691  0.9996
17608SOL    HW253988   3.876   4.701   6.982  0.2997  0.2284  0.5648
17609SOL     OW53989   7.212   5.753   6.085 -0.4297 -0.3361  0.3509
17609SOL    HW153990   7.178   5.835   6.121  0.7244  0.1097  0.4700
17609SOL    HW253991   7.137   5.714   6.040 -0.4561  1.9618 -1.8303
17610SOL     OW53992   7.916   7.885   0.130 -0.2554  0.6419  0.5948
17610SOL    HW153993   7.940   7.855   0.042  1.1065  0.3268  1.0583
17610SOL    HW253994   7.915   7.980   0.123  1.0372  0.6626  0.5178
17611SOL     OW53995   2.385   0.768   6.513 -0.1934  0.6083  0.0191
17611SOL    HW153996   2.421   0.807   6.433 -2.0437 -1.1680 -1.7730
17611SOL    HW253997   2.408   0.675   6.507  0.0045  0.5011  1.8203
17612SOL     OW53998   0.239   5.898   1.458 -0.3301  0.8766  0.4449
17612SOL    HW153999   0.322   5.852   1.468 -0.4015  0.8103  0.7328
17612SOL    HW254000   0.249   5.978   1.509  0.0723  1.5570 -0.6729
17613SOL     OW54001   1.131   7.041   0.558 -0.0091  0.0258 -0.2935
17613SOL    HW154002   1.053   7.051   0.502 -0.8446  0.8925  0.9553
17613SOL    HW254003   1.200   7.089   0.512 -0.2885 -0.4931 -1.2705
17614SOL     OW54004   5.178   1.595   5.088 -0.2977  0.3840 -0.2741
17614SOL    HW154005   5.247   1.662   5.079  0.5760 -0.7582 -3.6993
17614SOL    HW254006   5.207   1.541   5.161  1.8979  0.6286 -0.8692
17615SOL     OW54007   0.992   7.477   3.248  0.0412 -0.6772 -0.3836
17615SOL    HW154008   1.079   7.458   3.285  1.5181  0.4069 -3.0353
17615SOL    HW254009   0.962   7.392   3.215  0.5334 -0.8932 -0.3006
17616SOL     OW54010   7.224   4.031   5.000  0.2687 -0.5218 -0.1211
17616SOL    HW154011   7.213   4.108   5.057 -1.2703 -1.0887  0.3915
17616SOL    HW254012   7.260   3.964   5.058  0.4848 -0.5463 -0.2825
17617SOL     OW54013   2.503   7.214   7.088 -0.2938  0.2975 -0.6065
17617SOL    HW154014   2.488   7.170   7.004  0.2717 -1.3074  0.0854
17617SOL    HW254015   2.586   7.260   7.076  1.0216 -1.8457 -0.2565
17618SOL     OW54016   7.780   0.544   8.653  0.0844 -0.1320 -0.2455
17618SOL    HW154017   7.850   0.486   8.626  0.7503  1.0763 -1.2386
17618SOL    HW254018   7.744   0.579   8.571 -0.5142  0.5964  0.3036
17619SOL     OW54019   2.076   2.972   0.644  0.4599  0.3367 -0.5417
17619SOL    HW154020   2.030   3.025   0.709 -0.0845  0.7238 -1.2346
17619SOL    HW254021   2.129   3.036   0.595  3.6952 -0.3333  1.7666
17620SOL     OW54022   6.844   8.360   1.112  0.2612  0.2068 -0.0168
17620SOL    HW154023   6.893   8.349   1.030 -1.5446 -2.4802 -0.8556
17620SOL    HW254024   6.757   8.327   1.093  0.1999 -2.1480  3.3784
17621SOL     OW54025   5.360   7.115   7.618 -0.1005 -0.2874 -0.2902
17621SOL    HW154026   5.352   7.043   7.681  1.2016 -0.8029 -0.6838
17621SOL    HW254027   5.323   7.190   7.663  0.6018 -0.6960  1.0331
17622SOL     OW54028   5.671   0.884   2.057  0.4780 -0.0757  0.0870
17622SOL    HW154029   5.761   0.865   2.084  0.2361  0.0177  0.9902
17622SOL    HW254030   5.642   0.953   2.117 -0.3933 -0.5197  0.1891
17623SOL     OW54031   1.419   0.974   1.772 -0.1970  0.0944 -0.6695
17623SOL    HW154032   1.464   1.027   1.838  2.1097 -1.1842 -1.1195
17623SOL    HW254033   1.327   0.999   1.780  0.4967  2.6069  0.5388
17624SOL     OW54034   2.486   8.137   6.835 -0.0017  0.5322 -0.0007
17624SOL    HW154035   2.511   8.156   6.926 -1.4245 -1.6675  0.9277
17624SOL    HW254036   2.526   8.052   6.817  0.4187  1.0378 -1.5330
17625SOL     OW54037   2.957   3.461   1.658  0.1453 -0.3658 -0.3012
17625SOL    HW154038   2.873   3.442   1.616 -0.0871 -0.9087  0.4049
17625SOL    HW254039   2.938   3.459   1.752  0.6710  0.7955 -0.1485
17626SOL     OW54040   1.273   1.741   4.299 -0.0106 -0.0112 -0.1349
17626SOL    HW154041   1.253   1.823   4.253 -0.0465 -0.3807 -0.7779
17626SOL    HW254042   1.325   1.690   4.237  1.0058 -0.0041  0.6893
17627SOL     OW54043   7.530   4.050   3.519 -0.1585 -0.5159 -0.1891
17627SOL    HW154044   7.455   4.033   3.462 -0.8673 -0.2612  0.6322
17627SOL    HW254045   7.512   3.998   3.598  1.3449 -1.7376 -0.6078
17628SOL     OW54046   7.554   4.909   4.152  0.4218  0.0783  0.0417
17628SOL    HW154047   7.569   4.845   4.083 -2.3541  0.7597 -1.3190
17628SOL    HW254048   7.605   4.877   4.226  0.6223 -2.6486 -1.1720
17629SOL     OW54049   4.272   7.225   6.270  0.4616  0.4843 -0.1494
17629SOL    HW154050   4.210   7.298   6.270 -0.0153  0.1090  0.8311
17629SOL    HW254051   4.273   7.193   6.180 -1.9826 -0.4847  0.0913
17630SOL     OW54052   6.554   4.084   7.817 -0.0333  0.1217 -0.6246
17630SOL    HW154053   6.476   4.139   7.815  0.4428  0.8965  0.5518
17630SOL    HW254054   6.573   4.065   7.725 -0.7044  1.2317 -1.0084
17631SOL     OW54055   1.991   4.479   6.528 -0.0226  0.6881  0.2696
17631SOL    HW154056   2.054   4.460   6.598  0.2103 -0.4806 -0.2395
17631SOL    HW254057   1.907   4.446   6.562  0.1651 -0.2479 -0.1445
17632SOL     OW54058   7.493   7.581   6.312  0.0836  0.3977  0.0449
17632SOL    HW154059   7.533   7.536   6.386  1.8691  1.0686 -0.4588
17632SOL    HW254060   7.556   7.649   6.288 -1.8243  2.2305 -0.1546
17633SOL     OW54061   6.108   7.750   6.193  0.2697  0.0738  0.5722
17633SOL    HW154062   6.114   7.677   6.254  2.0591 -0.3241 -0.0220
17633SOL    HW254063   6.022   7.740   6.152 -0.3685 -0.4709  1.9825
17634SOL     OW54064   8.375   8.750   8.153  0.2963 -0.5407 -0.2802
17634SOL    HW154065   8.370   8.690   8.078  2.7025 -1.6029  0.2985
17634SOL    HW254066   8.404   8.695   8.225  0.1295  0.8900  0.9213
17635SOL     OW54067   6.122   4.813   1.435 -0.6588  0.1705  0.1999
17635SOL    HW154068   6.200   4.758   1.424 -0.6844 -0.0449  1.0706
17635SOL    HW254069   6.150   4.900   1.406 -0.3068 -0.0632 -0.1733
17636SOL     OW54070   3.657   5.137   0.098  0.0940 -0.2137  0.2892
17636SOL    HW154071   3.603   5.085   0.038  0.7454 -0.5971  0.0269
17636SOL    HW254072   3.746   5.126   0.066  0.2069  1.4162 -0.0215
17637SOL     OW54073   4.772   1.845   7.882 -0.4377 -0.3643  0.0213
17637SOL    HW154074   4.800   1.786   7.952  3.2662 -0.7343 -1.5513
17637SOL    HW254075   4.842   1.909   7.875 -1.9235  1.2036 -1.7311
17638SOL     OW54076   6.689   4.816   7.372 -0.4562  0.2147 -0.2283
17638SOL    HW154077   6.772   4.821   7.419  0.2829  0.3498 -1.5005
17638SOL    HW254078   6.695   4.735   7.320  0.3786  1.8799 -2.9606
17639SOL     OW54079   8.527   2.373   2.125  0.2874 -0.0483 -0.0610
17639SOL    HW154080   8.605   2.319   2.109  1.0456  1.3264 -1.1547
17639SOL    HW254081   8.553   2.434   2.194 -0.3318 -0.5383  0.6329
17640SOL     OW54082   5.189   8.385   0.995 -0.0829  0.1937  0.1470
17640SOL    HW154083   5.254   8.326   1.033  1.0000  1.1798 -0.1147
17640SOL    HW254084   5.237   8.433   0.926 -1.0593  0.9968 -0.0044
17641SOL     OW54085   0.991   5.185   4.272 -0.0891  0.1449 -0.0628
17641SOL    HW154086   1.021   5.264   4.228 -1.0914 -0.4527 -1.9071
17641SOL    HW254087   0.902   5.206   4.300 -1.1020 -0.8767 -2.2613
17642SOL     OW54088   7.124   8.341   7.549 -0.3825  0.0354 -0.0993
17642SOL    HW154089   7.114   8.246   7.557 -0.5680  0.1776  2.1326
17642SOL    HW254090   7.037   8.373   7.528 -0.1536 -0.3106 -1.7200
17643SOL     OW54091   7.301   3.983   3.285 -0.2688  0.6082  0.6392
17643SOL    HW154092   7.279   3.979   3.192 -0.6668  2.6911  0.5964
17643SOL    HW254093   7.351   3.903   3.301  0.2957  0.4675 -1.4921
17644SOL     OW54094   4.997   0.475   4.997 -0.4432  0.2612  0.8665
17644SOL    HW154095   4.916   0.524   5.006 -0.6107 -0.0001  0.7878
17644SOL    HW254096   4.974   0.386   5.022 -0.0546  0.2977  1.3831
17645SOL     OW54097   6.186   7.403   3.908  0.0490 -0.7431  0.0645
17645SOL    HW154098   6.213   7.314   3.887 -0.0501 -0.9325  0.7224
17645SOL    HW254099   6.186   7.449   3.824 -0.3100 -1.4692 -0.3411
17646SOL     OW54100   5.600   7.308   0.695 -0.0469 -0.3832 -0.2386
17646SOL    HW154101   5.674   7.291   0.754 -0.1865  0.7433  0.2739
17646SOL    HW254102   5.618   7.394   0.657  0.7672 -1.6398 -2.9671
17647SOL     OW54103   4.658   8.086   3.575 -0.3351  0.2022 -0.0018
17647SOL    HW154104   4.605   8.006   3.576 -0.5471  0.3425  0.1764
17647SOL    HW254105   4.734   8.064   3.629 -0.0207 -0.1247 -0.5771
17648SOL     OW54106   1.595   8.828   8.292  0.6400  0.3986  0.4743
17648SOL    HW154107   1.532   8.898   8.279  1.4138  1.0226 -0.0126
17648SOL    HW254108   1.667   8.849   8.233  0.9642 -0.7181  0.4365
17649SOL     OW54109   5.474   4.938   7.277  0.6353  0.7126 -0.2211
17649SOL    HW154110   5.472   4.851   7.238  0.5058  0.6332 -0.0334
17649SOL    HW254111   5.441   4.996   7.208  0.4852  0.5825 -0.2581
17650SOL     OW54112   5.360   8.067   2.749  0.1429 -0.0507  0.1332
17650SOL    HW154113   5.395   7.978   2.749  2.2865  0.7465  0.1234
17650SOL    HW254114   5.352   8.090   2.842  1.7595  0.5167  0.1585
17651SOL     OW54115   1.410   8.339   6.271 -0.3854 -0.4005  0.4814
17651SOL    HW154116   1.462   8.304   6.199 -2.6301  0.0746 -1.5075
17651SOL    HW254117   1.472   8.385   6.327  1.4559 -0.8412 -1.1130
17652SOL     OW54118   0.318   7.824   0.063 -0.1627 -0.5464  0.0018
17652SOL    HW154119   0.403   7.864   0.081 -1.0514  1.9061 -0.8320
17652SOL    HW254120   0.337   7.731   0.055  2.2898 -0.1933  0.6924
17653SOL     OW54121   1.016   2.320   0.548  0.2874 -0.0095  0.2576
17653SOL    HW154122   1.012   2.416   0.557  1.0933 -0.1294  2.2580
17653SOL    HW254123   1.107   2.298   0.568 -0.0313 -1.2519  0.4201
17654SOL     OW54124   7.874   7.937   2.919 -0.3400  0.4567  0.1928
17654SOL    HW154125   7.968   7.950   2.911 -0.2912  0.3366  0.5637
17654SOL    HW254126   7.836   8.006   2.864 -0.0560  1.2570  0.9777
17655SOL     OW54127   6.027   7.774   2.254  0.4171 -0.1520  0.5798
17655SOL    HW154128   5.973   7.737   2.184  0.0937  1.3708 -0.0390
17655SOL    HW254129   6.082   7.702   2.284 -0.7014 -1.2822 -0.0278
17656SOL     OW54130   0.543   0.871   0.561  0.7471 -0.0570  0.0913
17656SOL    HW154131   0.491   0.909   0.632  0.1198 -0.8492  0.0674
17656SOL    HW254132   0.529   0.929   0.487  1.1822  0.6210  0.5301
17657SOL     OW54133   4.251   8.626   6.706 -0.2114  0.3811  0.2338
17657SOL    HW154134   4.158   8.651   6.709 -0.4920 -0.6448  2.6380
17657SOL    HW254135   4.250   8.530   6.713  1.0156  0.1501 -1.9428
17658SOL     OW54136   1.220   2.041   6.286  0.0541 -0.8746  0.3209
17658SOL    HW154137   1.267   1.959   6.301  1.7370  0.0881  0.5053
17658SOL    HW254138   1.253   2.101   6.353 -0.7815  0.1201 -0.1197
17659SOL     OW54139   1.457   2.547   4.723  0.5114  0.2602  0.5230
17659SOL    HW154140   1.400   2.547   4.800  0.5614 -1.0531  0.5750
17659SOL    HW254141   1.533   2.599   4.749 -0.0711  0.9357  0.8982
17660SOL     OW54142   3.742   7.290   6.450  0.7831  0.2508  0.2909
17660SOL    HW154143   3.785   7.231   6.388  0.4496  0.1927  0.1114
17660SOL    HW254144   3.730   7.371   6.401  2.3890  0.9087  0.9348
17661SOL     OW54145   2.882   6.339   8.072 -0.1043 -0.7191 -0.0914
17661SOL    HW154146   2.920   6.327   7.985  2.3111  0.4138  0.7162
17661SOL    HW254147   2.934   6.283   8.129 -0.2627  0.1480  0.9271
17662SOL     OW54148   5.851   7.496   5.050  0.0757 -0.3239 -0.0144
17662SOL    HW154149   5.860   7.473   5.142  1.6264 -0.1000 -0.0693
17662SOL    HW254150   5.780   7.560   5.047 -0.6199 -1.0294  0.8782
17663SOL     OW54151   1.067   1.082   7.814 -0.7123  0.3256 -0.3209
17663SOL    HW154152   1.086   1.123   7.730 -0.4181 -0.3724 -0.5990
17663SOL    HW254153   1.151   1.046   7.843 -0.5677  1.4852  0.7899
17664SOL     OW54154   6.710   5.148   7.829  0.3173  0.1062  0.5170
17664SOL    HW154155   6.766   5.168   7.754 -0.5264 -1.1690 -0.4890
17664SOL    HW254156   6.766   5.101   7.890  0.1012 -2.3696 -1.0604
17665SOL     OW54157   6.438   5.458   0.170  0.0202 -0.5738 -0.2572
17665SOL    HW154158   6.480   5.383   0.128  0.7040 -0.2125 -0.2220
17665SOL    HW254159   6.359   5.473   0.117  0.7136 -0.3117 -1.2479
17666SOL     OW54160   5.607   7.221   5.291  0.5735 -0.3661  0.0788
17666SOL    HW154161   5.512   7.213   5.292  0.6895 -1.8815  0.1632
17666SOL    HW254162   5.624   7.308   5.327 -0.7819  0.0377 -0.2129
17667SOL     OW54163   1.386   7.990   3.174  0.1094  0.2309 -0.0595
17667SOL    HW154164   1.298   7.971   3.143  0.4005 -1.3802  0.0373
17667SOL    HW254165   1.439   7.915   3.146  1.1558  0.4969  1.0876
17668SOL     OW54166   0.429   7.376   4.732  0.1916 -0.2560 -0.5646
17668SOL    HW154167   0.381   7.368   4.815  0.9005 -0.4948 -0.1697
17668SOL    HW254168   0.473   7.461   4.739  1.6264 -1.0220  0.0550
17669SOL     OW54169   5.466   2.257   5.868  0.1641 -0.2161  0.1169
17669SOL    HW154170   5.503   2.174   5.899  0.5507 -0.9192 -2.1092
17669SOL    HW254171   5.509   2.324   5.922 -0.4260 -1.4135  2.2088
17670SOL     OW54172   1.859   5.197   5.465  0.4194 -0.0050 -0.1883
17670SOL    HW154173   1.766   5.180   5.475  0.5690  0.3829  2.4927
17670SOL    HW254174   1.865   5.251   5.385 -1.5433 -0.5425 -0.7432
17671SOL     OW54175   2.846   0.154   6.983 -0.2084 -0.2864 -0.2098
17671SOL    HW154176   2.770   0.209   7.001 -0.2877 -0.0690 -1.1313
17671SOL    HW254177   2.832   0.074   7.034 -0.3062  0.3663  0.8017
17672SOL     OW54178   5.988   1.687   1.823  0.0436 -0.1342 -0.1674
17672SOL    HW154179   6.041   1.680   1.743  1.0940 -0.4058  0.5386
17672SOL    HW254180   5.929   1.761   1.806  1.0655  0.5739 -0.7394
17673SOL     OW54181   8.021   2.365   8.694  0.6965 -0.1901 -0.0071
17673SOL    HW154182   7.982   2.293   8.644  1.3693  1.5578 -3.3295
17673SOL    HW254183   7.953   2.433   8.695  0.6817 -0.1957  1.6180
17674SOL     OW54184   0.237   7.126   1.805 -0.1563  0.2507  0.6929
17674SOL    HW154185   0.254   7.044   1.850 -0.3251  0.6830  1.5677
17674SOL    HW254186   0.141   7.135   1.806 -0.2769 -0.4816 -1.1371
17675SOL     OW54187   7.088   8.534   2.438 -0.1740  0.1980 -0.3717
17675SOL    HW154188   7.068   8.627   2.447  2.4798  0.8300 -0.3141
17675SOL    HW254189   7.022   8.501   2.377 -1.5656  1.9379  0.0977
17676SOL     OW54190   2.137   1.467   5.558 -0.2762  0.2530 -0.2666
17676SOL    HW154191   2.048   1.496   5.536  0.1971  2.5057  0.5347
17676SOL    HW254192   2.194   1.525   5.507  0.7300  1.0920  1.6984
17677SOL     OW54193   2.436   1.404   6.872 -0.1636  0.2283  0.2077
17677SOL    HW154194   2.425   1.402   6.777  2.2617 -0.2934 -0.1187
17677SOL    HW254195   2.371   1.342   6.905 -2.1138  1.5499 -0.9252
17678SOL     OW54196   1.528   3.205   6.509 -0.6368 -0.3988 -0.2271
17678SOL    HW154197   1.609   3.214   6.458 -0.2767 -1.5418  0.1130
17678SOL    HW254198   1.486   3.126   6.474 -1.3386 -0.1137 -0.0421
17679SOL     OW54199   1.696   6.631   4.172 -0.1858  0.3215 -0.9009
17679SOL    HW154200   1.642   6.635   4.250  1.0137  2.4598 -0.0853
17679SOL    HW254201   1.756   6.705   4.181  2.9349 -1.9102 -1.6827
17680SOL     OW54202   3.565   6.354   3.283  0.5204  0.1232  0.3469
17680SOL    HW154203   3.585   6.271   3.327 -0.2795 -0.5452 -0.5226
17680SOL    HW254204   3.494   6.393   3.334 -1.5417 -1.4272 -1.2078
17681SOL     OW54205   4.638   5.979   4.328  0.1905 -0.2746 -0.4798
17681SOL    HW154206   4.655   5.891   4.360  0.4206 -0.9508 -2.3438
17681SOL    HW254207   4.723   6.009   4.296 -0.5756 -0.9189 -3.3720
17682SOL     OW54208   2.396   0.109   4.596  0.5501  0.4299  0.1460
17682SOL    HW154209   2.345   0.182   4.561  0.6588  0.0453 -0.8620
17682SOL    HW254210   2.350   0.031   4.565  1.7318  0.0764 -0.7850
17683SOL     OW54211   2.439   0.641   1.717 -0.0638 -0.7090  0.5099
17683SOL    HW154212   2.364   0.582   1.708 -1.1506  0.5232  1.1998
17683SOL    HW254213   2.401   0.728   1.721  1.4070 -0.0546  1.0199
17684SOL     OW54214   3.050   4.519   6.522  0.5474  0.2759  0.2688
17684SOL    HW154215   3.088   4.443   6.567 -0.8267 -0.6542 -0.0924
17684SOL    HW254216   2.966   4.488   6.490  0.6925  1.4700 -1.3626
17685SOL     OW54217   5.470   2.255   7.951  0.3344 -0.2566 -0.1132
17685SOL    HW154218   5.552   2.242   7.998 -0.6966  0.5138  2.0481
17685SOL    HW254219   5.444   2.345   7.971 -0.3573  0.0010 -1.9407
17686SOL     OW54220   0.999   3.894   3.009  0.3970  0.2049  0.4659
17686SOL    HW154221   0.999   3.949   2.931  0.8069 -1.8999 -1.1121
17686SOL    HW254222   1.072   3.927   3.061 -0.4217  2.2025  0.4104
17687SOL     OW54223   3.100   6.925   4.244 -0.2396 -0.6693 -0.0744
17687SOL    HW154224   3.074   6.888   4.329  0.9302 -1.4040 -0.0168
17687SOL    HW254225   3.123   7.015   4.264  0.3800 -0.9364  0.4674
17688SOL     OW54226   6.539   5.018   7.020  0.5065  0.5075  0.0174
17688SOL    HW154227   6.455   5.062   7.033  0.5660  0.7398 -0.3581
17688SOL    HW254228   6.556   5.027   6.926 -0.1390 -1.5255 -0.3370
17689SOL     OW54229   4.877   3.721   4.925 -0.2065 -0.2606  0.1190
17689SOL    HW154230   4.836   3.635   4.933 -0.6150  0.0367  1.3411
17689SOL    HW254231   4.809   3.776   4.887  0.4278 -0.7092 -1.8258
17690SOL     OW54232   4.652   2.244   0.719 -0.2259 -0.0282 -0.3705
17690SOL    HW154233   4.585   2.193   0.765  1.5518 -1.6113  0.5771
17690SOL    HW254234   4.681   2.187   0.648 -0.9539  1.2974 -1.8102
17691SOL     OW54235   1.250   8.371   7.811  0.5134  0.4620 -0.0838
17691SOL    HW154236   1.302   8.446   7.784  0.3863  1.3600  1.9953
17691SOL    HW254237   1.164   8.387   7.771  0.3987  1.6064  0.5622
17692SOL     OW54238   3.632   4.766   0.363 -0.4804 -0.1754 -0.1085
17692SOL    HW154239   3.621   4.786   0.270 -0.0075  1.2885  0.1352
17692SOL    HW254240   3.653   4.672   0.365 -3.1574 -0.9138 -1.2671
17693SOL     OW54241   6.169   6.732   4.033 -0.1121  0.6072 -0.0205
17693SOL    HW154242   6.169   6.788   4.111 -0.9521 -0.5212  0.8387
17693SOL    HW254243   6.243   6.673   4.046  0.1146  0.8091 -0.3870
17694SOL     OW54244   4.955   7.973   5.597 -0.0486 -0.1412 -0.1561
17694SOL    HW154245   4.969   7.880   5.615 -2.4851 -0.2329  1.9575
17694SOL    HW254246   4.860   7.984   5.602  0.2058  2.5691  0.2534
17695SOL     OW54247   5.408   8.610   7.685  0.5837 -0.5190  0.0230
17695SOL    HW154248   5.466   8.559   7.628  0.8792 -0.7704  0.5359
17695SOL    HW254249   5.372   8.678   7.629  1.2499 -0.4616 -0.3449
17696SOL     OW54250   8.257   0.816   6.539  0.4775  0.5520 -0.5259
17696SOL    HW154251   8.192   0.885   6.552  2.3123  1.7931  3.9975
17696SOL    HW254252   8.248   0.759   6.615  1.5655 -2.0573 -2.2255
17697SOL     OW54253   8.711   0.126   3.467 -0.1246  0.6954 -0.7439
17697SOL    HW154254   8.672   0.199   3.419 -0.9005  1.5905  1.1664
17697SOL    HW254255   8.637   0.079   3.503  0.4399 -0.1168 -0.6291
17698SOL     OW54256   5.117   4.053   2.215 -0.1080 -0.5558 -0.0662
17698SOL    HW154257   5.055   4.126   2.221  0.1811 -0.3572  0.6742
17698SOL    HW254258   5.064   3.976   2.235 -0.6140 -0.6762 -1.7447
17699SOL     OW54259   8.135   0.841   8.211  0.0280  0.0148 -0.3466
17699SOL    HW154260   8.058   0.872   8.258 -0.1717 -1.5755  0.4522
17699SOL    HW254261   8.196   0.914   8.212 -0.5516  0.4946  1.1271
17700SOL     OW54262   2.421   2.208   7.389 -0.2333  0.0996 -0.3824
17700SOL    HW154263   2.466   2.239   7.468  1.7611 -3.0306 -0.1052
17700SOL    HW254264   2.447   2.271   7.321  2.4334 -0.0493  0.3759
17701SOL     OW54265   4.484   4.861   3.140 -0.0516  0.1811  0.6153
17701SOL    HW154266   4.532   4.891   3.218  0.2120 -0.4588  0.7005
17701SOL    HW254267   4.394   4.850   3.170 -0.5417  2.4751  0.1925
17702SOL     OW54268   0.262   7.932   3.160  0.1478  0.3988 -0.5015
17702SOL    HW154269   0.264   8.021   3.194 -2.0738  1.1002 -1.9571
17702SOL    HW254270   0.270   7.942   3.065  0.9802 -1.0652 -0.6214
17703SOL     OW54271   1.439   4.713   5.370 -0.0378  0.5345 -0.2059
17703SOL    HW154272   1.533   4.730   5.362  0.4909 -1.0865  1.7861
17703SOL    HW254273   1.417   4.743   5.458 -0.5395 -2.3192  0.7475
17704SOL     OW54274   7.523   5.658   6.775 -0.0779  0.5015 -0.4024
17704SOL    HW154275   7.579   5.583   6.793 -1.7044 -0.9563 -1.1953
17704SOL    HW254276   7.493   5.686   6.862 -1.1733 -1.1489 -0.2161
17705SOL     OW54277   5.087   1.405   4.664  0.2055 -0.4918 -0.1139
17705SOL    HW154278   5.083   1.353   4.744  0.2870  0.2050  0.3550
17705SOL    HW254279   4.996   1.411   4.635 -0.6027  3.0404  2.4637
17706SOL     OW54280   1.193   8.258   3.706  0.0071  0.7487  0.0643
17706SOL    HW154281   1.276   8.210   3.705 -0.7259 -0.5563  0.0788
17706SOL    HW254282   1.204   8.325   3.638  1.0751  0.6079  0.0820
17707SOL     OW54283   1.778   5.414   7.776  0.3297 -0.2294 -0.3519
17707SOL    HW154284   1.703   5.457   7.737  0.6216  1.4038  0.8077
17707SOL    HW254285   1.853   5.470   7.754  0.9096 -0.7739  0.1676
17708SOL     OW54286   0.375   0.047   4.383 -0.0175 -0.4704  0.0751
17708SOL    HW154287   0.320   0.022   4.457 -0.5031 -1.0164 -0.4552
17708SOL    HW254288   0.318   0.040   4.307  0.4764  0.0718 -0.3561
17709SOL     OW54289   2.060   7.771   0.330  0.3450  0.0682 -0.1488
17709SOL    HW154290   1.996   7.787   0.260  1.0960  0.8294 -0.6758
17709SOL    HW254291   2.014   7.793   0.411 -0.6787 -1.2243 -0.3381
17710SOL     OW54292   6.941   3.562   2.325 -0.2879  0.3562 -0.1630
17710SOL    HW154293   6.940   3.466   2.317  0.5584  0.2584  0.7330
17710SOL    HW254294   6.932   3.578   2.419 -0.3375  1.1613 -0.2997
17711SOL     OW54295   3.086   1.300   4.805  0.3141  0.7929  0.2358
17711SOL    HW154296   3.032   1.365   4.849  1.2350  1.3132  0.6138
17711SOL    HW254297   3.169   1.301   4.852 -0.1978 -1.9392  1.4258
17712SOL     OW54298   0.329   8.400   1.198 -0.1084  0.4722 -0.5113
17712SOL    HW154299   0.323   8.493   1.176  1.0744  0.7209  0.1682
17712SOL    HW254300   0.386   8.397   1.275 -0.6100 -0.7679 -0.1650
17713SOL     OW54301   3.579   8.474   7.467 -0.6122 -0.2256 -0.1235
17713SOL    HW154302   3.569   8.564   7.436  0.0730  0.0280  0.3559
17713SOL    HW254303   3.664   8.474   7.512 -0.9683 -0.9050  0.5751
17714SOL     OW54304   5.354   8.491   1.356 -0.1379  0.0561  0.2660
17714SOL    HW154305   5.360   8.412   1.301 -0.6481  0.4456 -0.3628
17714SOL    HW254306   5.314   8.557   1.300 -1.0433  0.3561  1.2154
17715SOL     OW54307   8.595   3.118   3.543  0.0354 -0.3852 -0.4008
17715SOL    HW154308   8.625   3.152   3.627 -0.7937 -0.9887  0.1542
17715SOL    HW254309   8.591   3.023   3.555  0.3647 -0.5160 -1.2748
17716SOL     OW54310   5.992   4.714   2.890 -0.2850 -0.1435  0.7076
17716SOL    HW154311   5.946   4.797   2.898 -1.4639 -0.4266 -2.0530
17716SOL    HW254312   5.922   4.648   2.889  0.1627 -0.6973 -2.1197
17717SOL     OW54313   6.842   4.148   1.816 -0.1217  0.2229 -0.4238
17717SOL    HW154314   6.782   4.153   1.741 -1.2653  2.2105  0.5339
17717SOL    HW254315   6.838   4.235   1.855 -0.2850 -0.9797  2.4869
17718SOL     OW54316   4.611   1.516   6.584  0.7552  0.0167 -0.2742
17718SOL    HW154317   4.548   1.460   6.630 -0.9380  0.3235 -2.0754
17718SOL    HW254318   4.661   1.455   6.530 -0.0828  0.0472 -1.1144
17719SOL     OW54319   2.470   3.502   0.138  0.3215 -0.9998 -0.8215
17719SOL    HW154320   2.534   3.566   0.167 -0.0449 -0.9418 -0.1227
17719SOL    HW254321   2.495   3.421   0.183 -0.7897 -0.6881  0.4317
17720SOL     OW54322   6.066   2.856   4.377  0.5353  0.3318 -0.3475
17720SOL    HW154323   6.064   2.951   4.383 -1.9625  0.3521 -0.4764
17720SOL    HW254324   6.096   2.838   4.288 -0.7815  1.0833 -0.9743
17721SOL     OW54325   6.466   4.142   8.783 -0.3012 -0.5640 -0.1079
17721SOL    HW154326   6.466   4.124   8.877 -0.1053  1.3920  0.3078
17721SOL    HW254327   6.495   4.060   8.743 -1.2276 -1.7236  1.4569
17722SOL     OW54328   5.415   3.427   7.532  0.3857 -0.0098 -0.4134
17722SOL    HW154329   5.374   3.441   7.447 -0.0709 -0.0303 -0.2027
17722SOL    HW254330   5.342   3.407   7.591  0.9795 -3.5184 -0.6929
17723SOL     OW54331   7.989   2.961   5.511  0.3875 -0.3687  0.3572
17723SOL    HW154332   8.066   2.993   5.558  0.7753  1.9581 -1.6408
17723SOL    HW254333   8.025   2.904   5.442  0.1588 -0.6983  0.5091
17724SOL     OW54334   4.610   4.123   8.203 -0.3786 -0.1713  0.1968
17724SOL    HW154335   4.632   4.034   8.231 -0.3384 -0.0943  0.4178
17724SOL    HW254336   4.632   4.125   8.110 -0.4318 -0.4091  0.1773
17725SOL     OW54337   4.239   4.823   6.666 -0.2547 -0.2419 -0.9068
17725SOL    HW154338   4.332   4.837   6.652  0.3430 -2.4840  0.4252
17725SOL    HW254339   4.233   4.739   6.711 -2.9667 -0.4853 -1.5294
17726SOL     OW54340   0.460   2.063   7.757  0.4360 -0.0434 -0.2750
17726SOL    HW154341   0.404   2.114   7.815  0.9059  1.0054 -0.7142
17726SOL    HW254342   0.436   2.092   7.669 -0.1931 -1.5334 -0.6306
17727SOL     OW54343   2.573   2.280   7.617  0.8256 -0.0391  0.1877
17727SOL    HW154344   2.590   2.374   7.609 -1.0477  0.5328  1.8548
17727SOL    HW254345   2.658   2.242   7.641  1.4993  1.3013  0.0298
17728SOL     OW54346   8.144   7.046   6.009  0.2626 -0.6918  0.1104
17728SOL    HW154347   8.108   6.957   6.004 -0.4289 -0.3863 -0.8371
17728SOL    HW254348   8.180   7.061   5.921  2.1988 -0.7552  0.8627
17729SOL     OW54349   8.041   3.308   1.493  0.0288  0.1963  0.9214
17729SOL    HW154350   8.023   3.338   1.404 -0.1820  0.1164  0.9369
17729SOL    HW254351   7.955   3.302   1.534 -0.1598 -2.4295  0.3030
17730SOL     OW54352   2.967   1.933   2.912 -0.5474  0.2036  0.2291
17730SOL    HW154353   3.028   1.967   2.977 -1.4612  0.9258  0.7375
17730SOL    HW254354   2.892   1.993   2.915  0.1928  1.5202 -2.9339
17731SOL     OW54355   1.272   6.060   7.551 -0.5908  0.3385  0.4708
17731SOL    HW154356   1.178   6.043   7.550 -0.4144 -0.7065 -0.1491
17731SOL    HW254357   1.310   5.977   7.581  0.1562  0.6329  0.3420
17732SOL     OW54358   2.598   1.025   3.007  0.1466  0.5560 -0.6359
17732SOL    HW154359   2.585   0.974   3.087 -0.7499 -0.0052 -1.1176
17732SOL    HW254360   2.652   1.099   3.034 -1.3442  1.1800  0.8248
17733SOL     OW54361   6.617   5.936   2.862 -0.0870  0.1741 -0.0997
17733SOL    HW154362   6.634   5.905   2.951 -1.0118 -0.0162  0.0204
17733SOL    HW254363   6.690   5.902   2.811 -0.0832 -0.5924  0.3943
17734SOL     OW54364   2.280   5.506   4.303  0.0724  0.0928 -0.2599
17734SOL    HW154365   2.237   5.590   4.284  2.0334  1.0281 -0.7988
17734SOL    HW254366   2.224   5.440   4.263 -0.2504  1.3574 -1.9893
17735SOL     OW54367   2.942   2.464   4.787 -0.6066 -0.2393  0.6210
17735SOL    HW154368   2.982   2.431   4.867  0.4310  0.8979  0.5932
17735SOL    HW254369   2.967   2.401   4.720  0.0868 -0.2075  0.8458
17736SOL     OW54370   7.250   4.954   4.490  1.0336  0.5128  0.0045
17736SOL    HW154371   7.194   5.000   4.553  1.6057  1.2227  0.0202
17736SOL    HW254372   7.197   4.948   4.411  0.6541  0.4835  0.2565
17737SOL     OW54373   6.911   0.796   6.054 -0.8772 -0.1012  0.4430
17737SOL    HW154374   6.844   0.815   6.120  1.1133 -1.7148  3.1710
17737SOL    HW254375   6.958   0.720   6.089  0.2986 -1.1193 -2.9612
17738SOL     OW54376   2.850   2.115   2.275 -0.8492  0.0291 -0.4351
17738SOL    HW154377   2.886   2.125   2.363 -1.4960  0.5219 -0.2188
17738SOL    HW254378   2.919   2.147   2.217 -1.1954  1.6812  0.0166
17739SOL     OW54379   4.677   7.898   1.704 -0.0690  0.1256  0.1814
17739SOL    HW154380   4.751   7.928   1.756 -0.4789  1.7427 -0.1363
17739SOL    HW254381   4.662   7.967   1.640 -2.0686  0.0081  0.4462
17740SOL     OW54382   5.996   0.085   6.352 -0.1908 -0.0970  0.0667
17740SOL    HW154383   6.091   0.085   6.359  0.0299 -2.1401 -1.7846
17740SOL    HW254384   5.978   0.147   6.281 -0.1677 -0.3959 -0.2001
17741SOL     OW54385   6.303   3.132   2.945  0.1152 -0.0773  0.1032
17741SOL    HW154386   6.284   3.098   2.858 -0.1141  1.5381 -0.5176
17741SOL    HW254387   6.366   3.071   2.982 -0.9437 -1.6437 -0.5723
17742SOL     OW54388   8.825   0.897   0.543 -0.0346 -0.0824 -0.4788
17742SOL    HW154389   8.902   0.944   0.576  0.7694 -1.6550  0.0266
17742SOL    HW254390   8.830   0.906   0.448  1.3278 -0.9065 -0.5211
17743SOL     OW54391   5.632   4.564   3.966  0.6974  0.0197  1.2551
17743SOL    HW154392   5.706   4.504   3.978 -0.7147 -1.6250  2.4543
17743SOL    HW254393   5.632   4.585   3.873  2.0584 -0.7725  1.0560
17744SOL     OW54394   7.549   5.996   4.203 -0.4602 -0.0066 -0.0870
17744SOL    HW154395   7.579   6.050   4.276  0.7243  3.4392 -2.7977
17744SOL    HW254396   7.508   5.920   4.243  2.9304  0.0095  4.0946
17745SOL     OW54397   5.134   2.889   5.970 -0.4916  0.4758 -0.0535
17745SOL    HW154398   5.164   2.799   5.982  1.2814  1.0726  0.2290
17745SOL    HW254399   5.099   2.890   5.880 -1.5064 -0.7216  0.2989
17746SOL     OW54400   0.249   6.138   2.173 -0.0508 -0.2615 -0.1915
17746SOL    HW154401   0.249   6.043   2.160 -1.6340 -0.2399 -0.4925
17746SOL    HW254402   0.207   6.173   2.095 -0.3804  0.6111  0.3625
17747SOL     OW54403   2.302   1.154   4.296  0.2945  0.3725  0.1671
17747SOL    HW154404   2.278   1.245   4.312 -0.6729  0.1209  0.1610
17747SOL    HW254405   2.291   1.141   4.202  0.8164  0.3493  0.1016
17748SOL     OW54406   7.971   4.275   5.789 -0.1320 -0.2884  0.6870
17748SOL    HW154407   8.065   4.277   5.772 -0.0483 -0.1643  1.1577
17748SOL    HW254408   7.951   4.360   5.829 -0.2406 -0.7319  1.6165
17749SOL     OW54409   1.023   8.826   5.440  0.3722  0.0314 -0.0227
17749SOL    HW154410   0.980   8.907   5.414  0.9217  0.0244 -1.0175
17749SOL    HW254411   1.028   8.775   5.359 -0.8173 -1.4065  0.7611
17750SOL     OW54412   1.026   3.004   4.698  0.0942  0.5993 -0.2818
17750SOL    HW154413   1.037   2.993   4.604 -0.4674 -0.4458 -0.2389
17750SOL    HW254414   0.968   2.933   4.724  1.1802  0.1612  1.0496
17751SOL     OW54415   3.731   0.820   4.326 -0.0787  0.4761  0.0214
17751SOL    HW154416   3.818   0.832   4.364 -0.0246 -2.0588  0.8714
17751SOL    HW254417   3.738   0.739   4.276 -2.0028  0.1180  0.2675
17752SOL     OW54418   7.116   6.232   3.514 -0.5286 -0.2417 -0.4085
17752SOL    HW154419   7.032   6.188   3.506 -0.3966 -0.3602 -1.1745
17752SOL    HW254420   7.136   6.264   3.426  0.7718 -1.2195 -0.5013
17753SOL     OW54421   3.294   7.778   3.015  0.0736 -0.1600 -0.0469
17753SOL    HW154422   3.350   7.704   2.994  1.5399  0.8542  0.1827
17753SOL    HW254423   3.331   7.814   3.096 -2.6103 -1.1514  1.8012
17754SOL     OW54424   7.383   8.699   2.068 -0.1078  0.5010 -0.0540
17754SOL    HW154425   7.337   8.709   2.151  0.3326 -0.2899  0.2967
17754SOL    HW254426   7.464   8.750   2.078 -0.0344  0.3698  0.0218
17755SOL     OW54427   6.923   7.183   1.392  0.3262  0.3208  0.4744
17755SOL    HW154428   6.864   7.138   1.452 -1.0450  2.0624  0.5174
17755SOL    HW254429   6.925   7.127   1.314 -0.4694 -0.3475  0.9208
17756SOL     OW54430   2.393   2.127   1.158 -0.6747 -0.1483  0.4809
17756SOL    HW154431   2.307   2.110   1.119 -0.0416 -0.5790 -0.7609
17756SOL    HW254432   2.373   2.159   1.246 -2.0475 -2.1363  0.9432
17757SOL     OW54433   4.791   1.626   3.327 -0.1557  0.5452  0.0896
17757SOL    HW154434   4.842   1.698   3.291  0.2322 -0.2894 -1.0685
17757SOL    HW254435   4.841   1.596   3.403  1.1794 -0.3462 -1.1034
17758SOL     OW54436   3.903   5.065   2.123 -0.1858  0.4033 -0.1860
17758SOL    HW154437   3.906   4.978   2.083 -0.4429  1.1190 -1.8728
17758SOL    HW254438   3.917   5.125   2.049 -0.1996  1.7988  0.9084
17759SOL     OW54439   2.087   2.172   3.685 -0.7120 -0.3635  0.0762
17759SOL    HW154440   2.043   2.088   3.701  0.4920 -1.0487 -0.1394
17759SOL    HW254441   2.171   2.149   3.645 -1.0417  1.0305 -1.5309
17760SOL     OW54442   3.548   8.333   0.182  0.1084  0.1643 -0.7101
17760SOL    HW154443   3.494   8.398   0.228  0.1973  0.3050 -0.8036
17760SOL    HW254444   3.549   8.257   0.241 -0.6620 -0.0514 -0.9648
17761SOL     OW54445   7.860   8.186   8.200  0.2488  0.6418 -0.8757
17761SOL    HW154446   7.822   8.130   8.133 -0.6807  0.1257  0.0670
17761SOL    HW254447   7.955   8.180   8.186  0.1235 -0.5389 -1.2793
17762SOL     OW54448   5.759   2.097   2.818  0.3758 -0.5702 -0.0353
17762SOL    HW154449   5.700   2.078   2.745  0.5430  1.7938 -0.9045
17762SOL    HW254450   5.708   2.156   2.874  0.9260 -0.8355  0.7507
17763SOL     OW54451   5.986   5.077   8.181  0.1959 -0.4991  0.3350
17763SOL    HW154452   5.972   5.006   8.244  0.1003 -2.5211 -1.8358
17763SOL    HW254453   6.077   5.104   8.197 -0.1862 -0.1130  2.1073
17764SOL     OW54454   5.198   2.034   3.966  0.2979  0.1181  0.4062
17764SOL    HW154455   5.238   1.947   3.972 -0.4965 -0.1947  1.8234
17764SOL    HW254456   5.114   2.019   3.923  1.1484  0.5959 -1.5251
17765SOL     OW54457   6.455   5.241   5.762  0.4162 -0.1060 -0.0156
17765SOL    HW154458   6.489   5.305   5.824 -0.8848  1.3125 -0.6876
17765SOL    HW254459   6.388   5.193   5.811  1.5383 -1.1562  0.5517
17766SOL     OW54460   4.747   4.856   8.539 -0.1778  0.2171  0.0330
17766SOL    HW154461   4.805   4.909   8.595  0.3582 -1.9780  1.6755
17766SOL    HW254462   4.666   4.907   8.534  0.4298  1.3669  1.2346
17767SOL     OW54463   5.688   1.516   6.088  0.3239  0.4483  0.4430
17767SOL    HW154464   5.627   1.586   6.107 -0.8843 -0.6970  0.9428
17767SOL    HW254465   5.654   1.476   6.008  0.7351  0.1471  0.4153
17768SOL     OW54466   4.211   0.774   2.942  0.0027  0.1774  1.0210
17768SOL    HW154467   4.254   0.699   2.900 -1.1657  0.4402 -0.7511
17768SOL    HW254468   4.182   0.741   3.026 -1.2735 -1.6927 -0.0734
17769SOL     OW54469   7.497   6.588   4.706  0.2296  0.2943 -0.0984
17769SOL    HW154470   7.405   6.609   4.719  0.4638  0.0024  2.4934
17769SOL    HW254471   7.521   6.634   4.626 -2.1893  0.2182 -0.9503
17770SOL     OW54472   4.617   0.043   1.583  0.5071 -0.1450  0.2402
17770SOL    HW154473   4.605   0.127   1.629 -1.6004 -0.5623  0.5527
17770SOL    HW254474   4.672  -0.009   1.642  2.7865  1.3234 -0.4474
17771SOL     OW54475   3.029   3.478   4.768 -0.2482 -0.1462 -0.2127
17771SOL    HW154476   2.992   3.411   4.710 -0.2611  0.6754 -1.1669
17771SOL    HW254477   3.083   3.532   4.711  1.3081 -0.4560  0.9068
17772SOL     OW54478   5.221   4.827   6.374 -0.0016  0.0730 -0.0392
17772SOL    HW154479   5.316   4.834   6.375  0.0002  0.9540 -1.9427
17772SOL    HW254480   5.192   4.903   6.324 -1.7331 -0.1074  0.6168
17773SOL     OW54481   2.694   2.031   3.652 -0.6299  0.0906  0.1129
17773SOL    HW154482   2.779   2.063   3.682 -1.0059 -0.4107  1.8547
17773SOL    HW254483   2.631   2.068   3.714 -1.1847 -3.1169  1.6617
17774SOL     OW54484   7.235   5.900   6.440  0.3431  0.1061 -0.4564
17774SOL    HW154485   7.302   5.862   6.496 -0.6308 -0.1683  0.5722
17774SOL    HW254486   7.185   5.824   6.407 -1.5908  0.3994  1.5833
17775SOL     OW54487   3.549   0.618   4.800  1.0112  0.3293  0.5456
17775SOL    HW154488   3.486   0.597   4.730  0.1953  0.6054  1.1825
17775SOL    HW254489   3.612   0.546   4.797  1.0922  0.4315 -0.5914
17776SOL     OW54490   4.334   2.552   7.547  0.3844 -0.4960 -0.1180
17776SOL    HW154491   4.302   2.541   7.457  1.0874 -0.9762 -0.3134
17776SOL    HW254492   4.256   2.577   7.597  0.1757  0.8386 -1.0427
17777SOL     OW54493   4.775   8.065   8.810 -0.2479 -0.2133  0.2053
17777SOL    HW154494   4.812   7.977   8.815 -0.7490 -0.4762 -0.6775
17777SOL    HW254495   4.699   8.057   8.753  0.4453  1.0371 -0.9643
17778SOL     OW54496   1.988   0.435   7.679  0.1027 -0.3504 -0.1347
17778SOL    HW154497   2.039   0.360   7.710 -0.7190 -1.0182 -0.3242
17778SOL    HW254498   2.010   0.443   7.586 -0.2046 -0.7102 -0.2438
17779SOL     OW54499   7.948   3.887   6.710  0.4599 -0.2898 -0.7490
17779SOL    HW154500   7.953   3.944   6.787 -1.6664 -0.2494 -0.5586
17779SOL    HW254501   8.018   3.824   6.722  1.8405  1.2731 -0.1193
17780SOL     OW54502   8.742   0.706   7.296  0.4798 -0.1365 -0.6051
17780SOL    HW154503   8.736   0.731   7.204  1.7339 -0.6546 -0.8535
17780SOL    HW254504   8.789   0.779   7.337  0.9282 -0.4171 -0.6118
17781SOL     OW54505   2.216   7.165   5.570 -0.2395 -0.4150 -0.1786
17781SOL    HW154506   2.190   7.198   5.657 -0.6113  0.1153 -0.4847
17781SOL    HW254507   2.223   7.071   5.582 -0.4223 -0.3616  0.4033
17782SOL     OW54508   0.649   5.663   7.674 -0.1985 -0.1402  0.8878
17782SOL    HW154509   0.588   5.627   7.609  2.2823 -1.8172 -0.7110
17782SOL    HW254510   0.659   5.755   7.649  0.9541 -0.8123 -1.4739
17783SOL     OW54511   4.836   8.767   0.307  0.1498  0.1420 -0.5888
17783SOL    HW154512   4.870   8.796   0.392  0.6777  0.5752 -0.9392
17783SOL    HW254513   4.837   8.672   0.312 -2.0173  0.1331  0.7486
17784SOL     OW54514   7.363   7.118   6.653 -0.7799 -0.2545 -0.2391
17784SOL    HW154515   7.343   7.212   6.649  0.0345 -0.0286  0.6346
17784SOL    HW254516   7.353   7.087   6.563 -1.4501  0.5889 -0.4647
17785SOL     OW54517   8.676   4.359   8.762  0.3152  0.1851 -0.4577
17785SOL    HW154518   8.654   4.347   8.669  0.1655 -0.9689 -0.2922
17785SOL    HW254519   8.667   4.272   8.800  1.2022  0.4844  0.4774
17786SOL     OW54520   1.334   2.231   1.063  0.2329 -0.0183 -0.2725
17786SOL    HW154521   1.369   2.216   1.151  0.3279 -1.4482 -0.5316
17786SOL    HW254522   1.406   2.209   1.004 -0.9682 -2.8537 -0.8074
17787SOL     OW54523   2.769   3.917   1.455 -0.6659  0.2005  0.6030
17787SOL    HW154524   2.734   3.998   1.417 -1.5667  0.5996  2.2069
17787SOL    HW254525   2.698   3.883   1.509  0.2756 -0.8007  1.2504
17788SOL     OW54526   8.735   4.847   3.818  0.5765  0.6414  0.1007
17788SOL    HW154527   8.795   4.881   3.752  1.2831  0.6180  0.7185
17788SOL    HW254528   8.651   4.841   3.773  0.1805  3.9216  0.1415
17789SOL     OW54529   1.267   6.874   3.184  0.4295 -0.4125 -0.0374
17789SOL    HW154530   1.172   6.872   3.181  0.4366 -0.9178 -2.7870
17789SOL    HW254531   1.293   6.782   3.172  1.2456 -0.1255 -0.5436
17790SOL     OW54532   2.448   6.606   6.917  0.1074 -0.4651  0.4994
17790SOL    HW154533   2.541   6.628   6.914 -0.5121  3.1743  2.3221
17790SOL    HW254534   2.443   6.529   6.975  1.9498 -0.9720  0.0508
17791SOL     OW54535   1.993   8.086   7.114  0.3723 -0.0435  0.4219
17791SOL    HW154536   1.994   8.130   7.199  0.2853 -1.4162  1.1628
17791SOL    HW254537   1.978   7.993   7.135  0.1713 -0.3813 -1.1025
17792SOL     OW54538   1.085   6.610   6.577  0.3359  0.8597  0.3963
17792SOL    HW154539   1.149   6.670   6.615 -1.1416  1.5726  1.8804
17792SOL    HW254540   1.083   6.536   6.638  0.5117  0.3315 -0.2274
17793SOL     OW54541   7.724   0.081   0.652 -0.2366 -0.0455  0.1627
17793SOL    HW154542   7.701   0.015   0.718  0.4998 -0.4369  0.0391
17793SOL    HW254543   7.818   0.069   0.639  0.0219  1.4109  0.5427
17794SOL     OW54544   0.449   5.179   6.100  0.1737 -0.2112 -0.1217
17794SOL    HW154545   0.385   5.233   6.146  0.0141 -1.5913  1.3710
17794SOL    HW254546   0.513   5.155   6.168  2.0729  0.7475 -1.4611
17795SOL     OW54547   4.175   0.796   3.537 -0.6297  0.1749  0.3702
17795SOL    HW154548   4.162   0.879   3.490 -0.5235  0.5635  1.0130
17795SOL    HW254549   4.090   0.753   3.533 -0.1912 -0.6133 -1.6785
17796SOL     OW54550   8.467   5.570   3.298  0.3463 -0.9204 -0.0403
17796SOL    HW154551   8.489   5.479   3.318  1.9299 -0.8771 -1.3841
17796SOL    HW254552   8.473   5.575   3.202  0.0222  0.5320 -0.0022
17797SOL     OW54553   6.563   3.055   5.387 -0.2300 -0.6038 -0.0704
17797SOL    HW154554   6.512   3.076   5.466 -1.1197 -0.6652 -0.6106
17797SOL    HW254555   6.639   3.007   5.419 -0.3639 -0.2492  0.7912
17798SOL     OW54556   4.499   8.624   2.423  0.1870 -0.0144 -0.1867
17798SOL    HW154557   4.563   8.559   2.395  1.0243  0.8864 -0.3962
17798SOL    HW254558   4.415   8.588   2.394  0.2396 -2.4061  2.2175
17799SOL     OW54559   6.611   8.436   4.111 -1.1186 -0.2285 -0.5739
17799SOL    HW154560   6.576   8.440   4.022  0.0002 -0.2247 -1.0304
17799SOL    HW254561   6.686   8.495   4.109 -1.6365  0.5143  0.6457
17800SOL     OW54562   0.100   7.130   7.783 -0.3281 -0.7513  0.3235
17800SOL    HW154563   0.170   7.077   7.822 -0.4998 -1.7997 -0.7117
17800SOL    HW254564   0.141   7.170   7.706 -0.4912 -0.2443  0.5024
17801SOL     OW54565   7.879   0.651   0.395  0.7410 -0.1723  0.0279
17801SOL    HW154566   7.889   0.607   0.479  0.7063 -2.0713 -0.8980
17801SOL    HW254567   7.828   0.730   0.415 -1.9120 -2.0681  1.3885
17802SOL     OW54568   8.122   2.767   3.041 -0.3391  0.0401  0.2918
17802SOL    HW154569   8.181   2.741   3.112  0.2526 -1.7773 -0.7956
17802SOL    HW254570   8.044   2.713   3.053 -0.1012 -0.5220 -0.5994
17803SOL     OW54571   5.480   6.670   5.406 -0.7094 -0.2954 -0.4405
17803SOL    HW154572   5.560   6.683   5.356 -0.4829 -0.6736 -0.1769
17803SOL    HW254573   5.411   6.707   5.350 -0.3925 -0.2301 -0.7917
17804SOL     OW54574   7.441   6.312   6.760  0.2919 -0.2156  0.6907
17804SOL    HW154575   7.398   6.228   6.743  0.7613 -0.5944  1.3300
17804SOL    HW254576   7.475   6.339   6.675 -1.3128  0.1681  0.1277
17805SOL     OW54577   8.739   2.760   0.333  0.0096  1.1627 -0.0655
17805SOL    HW154578   8.832   2.738   0.332 -0.0529  0.8872 -1.1018
17805SOL    HW254579   8.707   2.725   0.416  0.4140 -0.5907 -0.5955
17806SOL     OW54580   1.601   6.610   3.668  0.1673  0.6134  0.3148
17806SOL    HW154581   1.659   6.535   3.681 -0.5812 -0.2233 -0.8725
17806SOL    HW254582   1.515   6.571   3.652 -0.0277  1.6467 -1.4556
17807SOL     OW54583   6.861   2.428   8.505 -0.2222  0.5039  0.1266
17807SOL    HW154584   6.848   2.334   8.512  0.1515  0.5132  1.1870
17807SOL    HW254585   6.956   2.439   8.505 -0.2519  0.8381 -0.8087
17808SOL     OW54586   4.221   3.908   2.500 -0.0812 -0.1499  0.1698
17808SOL    HW154587   4.289   3.905   2.433  3.6849  1.5227  3.5142
17808SOL    HW254588   4.234   3.828   2.551  0.5846  0.8983  1.7443
17809SOL     OW54589   0.336   2.122   8.321 -0.5402 -0.0552  0.2553
17809SOL    HW154590   0.410   2.128   8.261 -0.7434 -1.1211 -0.1260
17809SOL    HW254591   0.284   2.049   8.288 -0.8885 -0.3902  1.4702
17810SOL     OW54592   2.955   2.815   2.807 -0.0871 -0.7913 -0.0053
17810SOL    HW154593   2.908   2.733   2.795  0.3447 -0.9189 -0.8748
17810SOL    HW254594   3.016   2.820   2.733  0.3414  0.0036  0.3813
17811SOL     OW54595   4.706   1.143   8.010  0.2264  0.2121  0.2183
17811SOL    HW154596   4.633   1.187   7.967  0.1847  0.3555  0.4323
17811SOL    HW254597   4.712   1.186   8.095  0.7293  0.3796  0.1000
17812SOL     OW54598   6.741   1.112   4.069 -0.0558  0.5831  0.3347
17812SOL    HW154599   6.755   1.137   3.978 -1.9394  1.3845  0.2186
17812SOL    HW254600   6.797   1.170   4.120 -0.1263  1.1536 -0.2412
17813SOL     OW54601   5.822   4.363   3.875  0.3074  0.7008 -0.1681
17813SOL    HW154602   5.893   4.419   3.842  1.1462 -0.7698 -0.9420
17813SOL    HW254603   5.849   4.274   3.852 -2.0477  0.1290 -0.9690
17814SOL     OW54604   5.447   0.381   1.728 -0.5679  0.0705 -0.3556
17814SOL    HW154605   5.476   0.469   1.702 -0.7483 -0.2188 -1.6139
17814SOL    HW254606   5.352   0.387   1.731 -0.5294  0.3347  1.2142
17815SOL     OW54607   7.291   1.785   1.454 -0.1790 -0.8282 -0.3551
17815SOL    HW154608   7.303   1.803   1.361 -0.1809 -0.5803 -0.3090
17815SOL    HW254609   7.277   1.690   1.459  3.2413 -1.4263 -0.2637
17816SOL     OW54610   0.028   5.073   5.352 -0.2662 -0.7830 -0.3321
17816SOL    HW154611   0.120   5.050   5.336  0.2528  0.0422  1.2452
17816SOL    HW254612   0.022   5.166   5.328 -0.9686 -1.0931 -1.4218
17817SOL     OW54613   3.596   0.545   3.004 -0.6969 -0.2473 -0.0653
17817SOL    HW154614   3.545   0.523   3.081 -1.0193  3.5960  1.0558
17817SOL    HW254615   3.531   0.559   2.935 -0.4806 -2.6825 -0.8339
17818SOL     OW54616   6.031   7.995   4.201  0.6312  0.3746 -0.1022
17818SOL    HW154617   5.954   7.941   4.183  1.5603 -0.6832 -1.0471
17818SOL    HW254618   5.997   8.071   4.247 -0.9557 -0.1409 -0.3793
17819SOL     OW54619   6.502   8.153   4.433  0.2232 -0.2009  0.4571
17819SOL    HW154620   6.575   8.214   4.424  0.0720 -0.0532  0.2291
17819SOL    HW254621   6.489   8.145   4.527  2.4542 -2.5087  0.7125
17820SOL     OW54622   6.237   3.412   4.029 -0.4468  0.1675 -0.1329
17820SOL    HW154623   6.291   3.371   4.096 -2.2906 -0.5152  0.9977
17820SOL    HW254624   6.150   3.419   4.068 -1.0091  2.0955 -1.5285
17821SOL     OW54625   6.423   3.502   8.588  0.0750 -0.3358  0.2948
17821SOL    HW154626   6.510   3.502   8.628  0.5294  2.0153 -0.5490
17821SOL    HW254627   6.436   3.466   8.501  0.2445  0.1697  0.1094
17822SOL     OW54628   5.624   3.944   6.218 -0.0872  0.2135 -0.1132
17822SOL    HW154629   5.561   3.983   6.278  1.4782  1.1086  1.0300
17822SOL    HW254630   5.678   4.017   6.190  0.7032 -0.5920 -0.7245
17823SOL     OW54631   4.084   7.071   3.660  0.2172 -0.3899  0.0000
17823SOL    HW154632   4.160   7.013   3.661 -0.9026 -1.9303  0.3209
17823SOL    HW254633   4.108   7.144   3.716  1.3612 -0.9745  0.3061
17824SOL     OW54634   1.300   1.210   6.986 -0.4030  0.6943  0.2774
17824SOL    HW154635   1.309   1.301   7.015 -0.2047  0.2200  1.7526
17824SOL    HW254636   1.267   1.217   6.896 -0.3609  2.2186  0.3587
17825SOL     OW54637   3.974   0.293   0.417  0.1037  0.1537 -0.1722
17825SOL    HW154638   4.016   0.258   0.496  0.0669 -1.0734 -0.6659
17825SOL    HW254639   3.884   0.311   0.444  0.3481  0.6712  0.3122
17826SOL     OW54640   0.250   3.446   4.477  0.5734 -0.0069 -0.3092
17826SOL    HW154641   0.252   3.521   4.537  0.6235  0.6373 -1.1021
17826SOL    HW254642   0.224   3.372   4.532  0.7598  0.5442  0.5366
17827SOL     OW54643   4.614   4.188   2.810 -0.8431  0.2385 -0.3548
17827SOL    HW154644   4.635   4.237   2.730  0.1403 -0.2070 -0.3810
17827SOL    HW254645   4.641   4.098   2.790  0.8139  0.3940  0.9808
17828SOL     OW54646   7.568   5.686   4.747  0.6045 -0.1486  0.6970
17828SOL    HW154647   7.487   5.719   4.787  0.2961 -1.3514  1.1283
17828SOL    HW254648   7.636   5.746   4.776  0.0658  0.1196  1.4419
17829SOL     OW54649   5.361   8.159   2.484 -0.2874  0.3645  0.1590
17829SOL    HW154650   5.284   8.214   2.500  0.0771  0.7859  0.4955
17829SOL    HW254651   5.373   8.109   2.564 -0.0349  0.5186  0.2182
17830SOL     OW54652   1.154   4.451   1.372 -0.2946 -0.4344  0.0319
17830SOL    HW154653   1.195   4.517   1.316 -1.2735  1.5902  1.5683
17830SOL    HW254654   1.067   4.439   1.335 -0.4529 -0.1353  0.3036
17831SOL     OW54655   1.185   5.377   7.278 -0.0375 -0.2715  0.4615
17831SOL    HW154656   1.158   5.407   7.365  0.2913 -1.3998  0.9853
17831SOL    HW254657   1.113   5.402   7.220  0.3871  1.7774  0.7737
17832SOL     OW54658   6.437   6.091   6.687  0.6664  0.0132 -0.0739
17832SOL    HW154659   6.530   6.112   6.692  0.5691  0.2127  1.4310
17832SOL    HW254660   6.433   6.012   6.633  1.5787  0.6833 -1.1554
17833SOL     OW54661   6.528   2.470   1.043  0.6497 -0.2413 -0.4615
17833SOL    HW154662   6.530   2.537   1.112  1.5355  1.3627 -1.9899
17833SOL    HW254663   6.449   2.489   0.993  0.3480 -1.0130 -0.3047
17834SOL     OW54664   5.988   6.259   4.596 -0.2489 -0.5502 -0.0969
17834SOL    HW154665   6.072   6.296   4.569 -0.3751 -0.4452 -0.3524
17834SOL    HW254666   5.970   6.299   4.681 -0.3637 -0.0468 -0.3513
17835SOL     OW54667   1.611   3.465   4.974  0.0212 -0.5241 -0.3533
17835SOL    HW154668   1.620   3.378   5.011  0.6987 -0.8005 -1.1393
17835SOL    HW254669   1.606   3.523   5.050 -1.2302 -1.2998  0.1913
17836SOL     OW54670   4.794   2.219   5.814  0.9526  0.1480  0.0134
17836SOL    HW154671   4.803   2.240   5.907  2.0111  0.8210 -0.2276
17836SOL    HW254672   4.853   2.279   5.769  0.8346 -0.5017 -1.0633
17837SOL     OW54673   8.165   1.742   0.090  0.2544  0.3564  0.3418
17837SOL    HW154674   8.249   1.711   0.055 -0.1260  1.5589 -1.8273
17837SOL    HW254675   8.131   1.667   0.139  1.9989 -0.5971  0.1972
17838SOL     OW54676   4.056   8.847   4.089  0.0599  0.0462 -0.0128
17838SOL    HW154677   4.010   8.817   4.167 -0.0109 -1.0350 -0.4512
17838SOL    HW254678   4.129   8.787   4.079 -0.4129 -0.3663 -1.2309
17839SOL     OW54679   6.153   0.625   1.549  0.7204 -0.1461 -0.3796
17839SOL    HW154680   6.180   0.626   1.457 -1.4390  0.8951 -1.0540
17839SOL    HW254681   6.062   0.595   1.547  1.1488 -1.8408  1.6311
17840SOL     OW54682   3.283   8.420   1.585  0.2558 -0.3610 -0.1400
17840SOL    HW154683   3.313   8.499   1.542 -0.3729 -0.5325 -0.9111
17840SOL    HW254684   3.197   8.444   1.622 -0.1307 -0.7943 -0.7414
17841SOL     OW54685   1.315   6.956   2.419  0.5816  0.6056 -0.0649
17841SOL    HW154686   1.245   6.917   2.471  1.2627  0.7748  0.9940
17841SOL    HW254687   1.394   6.909   2.445  0.8390  0.1730 -1.5112
17842SOL     OW54688   0.790   5.316   7.433 -0.4404  0.1928  0.0370
17842SOL    HW154689   0.700   5.284   7.446 -0.4557 -0.2283 -1.0306
17842SOL    HW254690   0.780   5.392   7.376  0.0231 -1.1141 -1.8777
17843SOL     OW54691   7.346   2.917   2.787  0.3926  0.0704 -0.2367
17843SOL    HW154692   7.330   2.926   2.693 -0.8770  1.9304  0.1041
17843SOL    HW254693   7.390   2.998   2.812 -0.8341  0.3929  1.0395
17844SOL     OW54694   2.353   7.576   0.650 -0.3795  0.6101  0.1700
17844SOL    HW154695   2.373   7.536   0.735 -0.6066  0.9239  0.3719
17844SOL    HW254696   2.301   7.653   0.671 -1.1984  0.2027 -0.3159
17845SOL     OW54697   1.626   0.558   7.527 -0.1555  0.3057 -0.4395
17845SOL    HW154698   1.673   0.488   7.482 -0.3863 -1.1798  1.4928
17845SOL    HW254699   1.538   0.523   7.541 -0.8641  1.7505 -1.0825
17846SOL     OW54700   2.741   3.429   7.643  0.1278  0.0064 -0.4046
17846SOL    HW154701   2.810   3.432   7.576  0.2288  0.5665 -0.2796
17846SOL    HW254702   2.682   3.359   7.614 -1.7454  2.4285 -2.9375
17847SOL     OW54703   6.726   5.076   1.956  0.3038 -0.3558  0.2722
17847SOL    HW154704   6.657   5.140   1.968  1.4995  1.3216 -1.2884
17847SOL    HW254705   6.685   5.004   1.909 -0.6914 -0.0310  0.6316
17848SOL     OW54706   2.575   0.528   4.456 -0.4592 -0.0622 -0.4168
17848SOL    HW154707   2.564   0.533   4.550 -0.7596 -0.1723 -0.4462
17848SOL    HW254708   2.589   0.434   4.439 -1.7886 -0.2441 -0.6299
17849SOL     OW54709   7.565   0.553   2.258  0.5137  0.2167  0.3171
17849SOL    HW154710   7.635   0.612   2.232 -0.0996  0.4671 -0.8509
17849SOL    HW254711   7.607   0.468   2.266  1.0434  0.4491  0.0612
17850SOL     OW54712   3.166   7.492   4.089  0.0767 -0.2139  0.2091
17850SOL    HW154713   3.124   7.454   4.012 -0.9299  0.0379  0.6136
17850SOL    HW254714   3.133   7.583   4.091  0.6992  0.0078  0.5018
17851SOL     OW54715   4.811   7.730   3.829  0.4411 -0.4384  0.0593
17851SOL    HW154716   4.808   7.810   3.776  0.9492  0.1801  0.9259
17851SOL    HW254717   4.849   7.758   3.913  1.2585 -1.7214  0.1546
17852SOL     OW54718   8.689   3.193   3.826  0.6067 -0.0158  0.6325
17852SOL    HW154719   8.674   3.144   3.907  1.1380 -2.2329 -0.5161
17852SOL    HW254720   8.784   3.190   3.814  0.5568  0.5044  0.0657
17853SOL     OW54721   3.738   7.357   1.486 -0.7579 -0.3330  0.3745
17853SOL    HW154722   3.666   7.307   1.448 -1.3298 -0.2872  1.3661
17853SOL    HW254723   3.704   7.446   1.496 -0.8026 -0.4582  1.4499
17854SOL     OW54724   6.230   4.269   2.027  0.1301 -0.7051 -0.1337
17854SOL    HW154725   6.223   4.183   1.986  2.4847 -1.0540  0.0866
17854SOL    HW254726   6.171   4.264   2.102 -1.7872 -1.1566 -1.5979
17855SOL     OW54727   7.078   0.791   2.731  0.5671  0.1959 -0.0874
17855SOL    HW154728   7.117   0.706   2.748  0.3846  0.0771 -0.2641
17855SOL    HW254729   6.985   0.780   2.752  0.4856  0.2653 -0.4032
17856SOL     OW54730   5.906   2.457   4.459  0.0492 -0.5329 -0.5103
17856SOL    HW154731   5.844   2.393   4.424 -0.9215 -0.2165  0.5706
17856SOL    HW254732   5.876   2.541   4.424  1.1635 -0.5970 -1.7098
17857SOL     OW54733   1.308   6.217   5.899 -0.2332 -0.2626 -0.0407
17857SOL    HW154734   1.360   6.141   5.926  0.8256  0.4962  0.1359
17857SOL    HW254735   1.320   6.221   5.804 -0.0945 -0.1849 -0.0206
17858SOL     OW54736   3.296   5.207   6.622  0.0254 -0.3473 -0.4435
17858SOL    HW154737   3.281   5.269   6.694  2.2699 -0.6222  0.3328
17858SOL    HW254738   3.224   5.144   6.629 -0.6066  0.4562  0.6165
17859SOL     OW54739   6.860   2.915   5.095  0.0275 -0.0727  0.4589
17859SOL    HW154740   6.889   3.006   5.090 -1.7693  0.5089 -0.2166
17859SOL    HW254741   6.766   2.920   5.113 -0.2563 -1.7691 -0.2826
17860SOL     OW54742   1.093   0.887   1.912  0.0683  0.4311  0.3256
17860SOL    HW154743   1.057   0.891   1.823 -1.8279 -1.0667  0.9562
17860SOL    HW254744   1.017   0.894   1.969  1.0603 -0.2926  1.8082
17861SOL     OW54745   8.452   1.704   5.585  0.2678 -0.2816  0.4534
17861SOL    HW154746   8.367   1.712   5.542  0.0447 -1.0875  0.7386
17861SOL    HW254747   8.492   1.790   5.574  0.0007 -0.3066 -0.9104
17862SOL     OW54748   2.166   7.213   3.314 -0.1426  0.6502  0.2470
17862SOL    HW154749   2.094   7.251   3.363  0.8681  3.6494 -0.3837
17862SOL    HW254750   2.235   7.279   3.317  2.5611 -1.9335  0.5995
17863SOL     OW54751   2.264   8.419   8.404 -0.3958 -0.0593  0.6498
17863SOL    HW154752   2.336   8.363   8.375 -0.6052  1.2737 -2.9387
17863SOL    HW254753   2.191   8.359   8.416  0.2288 -0.9619  0.0680
17864SOL     OW54754   4.228   3.013   6.182 -0.7327  0.2016  0.2894
17864SOL    HW154755   4.164   2.957   6.225 -2.9780  2.5644  0.3227
17864SOL    HW254756   4.211   3.002   6.088  0.0505 -0.4947  0.2261
17865SOL     OW54757   7.528   7.355   6.906 -0.3812  0.6863  0.5169
17865SOL    HW154758   7.507   7.299   6.831  1.1233  2.0154 -1.0164
17865SOL    HW254759   7.516   7.300   6.983 -0.9296 -1.0770 -0.7768
17866SOL     OW54760   8.695   3.348   4.428 -0.5276  0.1777 -0.4910
17866SOL    HW154761   8.677   3.272   4.483  0.0071  0.4512  0.0675
17866SOL    HW254762   8.764   3.319   4.369  0.2178  0.4573  0.2299
17867SOL     OW54763   4.259   7.187   4.928  0.0854 -0.4694  0.2553
17867SOL    HW154764   4.200   7.122   4.890 -0.1207 -0.9072  1.2955
17867SOL    HW254765   4.209   7.225   5.001 -0.1214  1.4520 -0.8149
17868SOL     OW54766   6.276   3.371   2.045  0.4130  0.1619  0.5133
17868SOL    HW154767   6.278   3.466   2.036  3.8400  0.1590 -0.1451
17868SOL    HW254768   6.231   3.340   1.967  1.5938  1.2138 -0.6245
17869SOL     OW54769   1.891   7.336   4.119 -0.9895  0.0806 -0.1684
17869SOL    HW154770   1.965   7.389   4.090 -1.3360 -0.5895 -2.4810
17869SOL    HW254771   1.911   7.248   4.088 -1.4723 -0.7210  1.6625
17870SOL     OW54772   5.610   7.552   6.769  0.6126  0.2411 -0.3803
17870SOL    HW154773   5.547   7.624   6.768  1.1222  0.7825  1.6214
17870SOL    HW254774   5.557   7.473   6.760 -0.4410  0.6671  1.5534
17871SOL     OW54775   4.824   7.313   8.407  0.2582 -0.0898  0.3339
17871SOL    HW154776   4.918   7.327   8.393  0.2055  0.3405  0.3868
17871SOL    HW254777   4.782   7.374   8.346  0.0152 -0.0731  0.5173
17872SOL     OW54778   1.889   6.559   3.860 -0.1458 -0.9812  0.0597
17872SOL    HW154779   1.967   6.536   3.912  0.0591 -1.6691 -0.5300
17872SOL    HW254780   1.854   6.637   3.903  1.9596  0.5079 -0.7670
17873SOL     OW54781   7.230   7.549   3.502 -0.2611  0.1448  0.5988
17873SOL    HW154782   7.256   7.516   3.588 -1.6820  0.1645  1.0653
17873SOL    HW254783   7.163   7.615   3.521  1.1947  2.0310 -0.3972
17874SOL     OW54784   7.810   3.396   4.083 -0.2638 -0.5138  0.3349
17874SOL    HW154785   7.844   3.475   4.040  3.0714 -1.0374  1.6926
17874SOL    HW254786   7.869   3.326   4.054 -0.9068 -1.7879  1.9695
17875SOL     OW54787   5.494   3.317   0.196 -0.0442 -0.3402  0.2251
17875SOL    HW154788   5.519   3.344   0.284  2.4402  1.9632 -1.0380
17875SOL    HW254789   5.403   3.345   0.188  0.3241  1.3524  1.4112
17876SOL     OW54790   5.298   7.100   8.832  0.0889  0.9361  0.5905
17876SOL    HW154791   5.233   7.145   8.885 -0.1786  1.7783 -0.4168
17876SOL    HW254792   5.304   7.012   8.870 -0.6311  1.2818  1.5302
17877SOL     OW54793   3.959   4.543   6.250 -0.2311 -0.9139 -0.1632
17877SOL    HW154794   3.994   4.556   6.162 -0.7883 -0.3707 -0.3084
17877SOL    HW254795   3.944   4.448   6.256  1.4932 -1.2160  0.0038
17878SOL     OW54796   3.554   3.938   6.425  0.5007  0.3222 -0.0262
17878SOL    HW154797   3.482   3.885   6.391 -0.8158  1.0111  1.5758
17878SOL    HW254798   3.576   3.997   6.353 -1.5658  1.1082 -0.0577
17879SOL     OW54799   7.796   0.640   8.284 -0.5795 -0.0559  0.1773
17879SOL    HW154800   7.791   0.615   8.192 -2.8345 -2.4393  0.8383
17879SOL    HW254801   7.710   0.619   8.319  0.5309 -0.2052  3.0801
17880SOL     OW54802   0.846   0.337   4.942 -0.2294  0.2078 -0.1470
17880SOL    HW154803   0.904   0.266   4.914 -0.1119  0.3672 -0.3079
17880SOL    HW254804   0.900   0.415   4.938 -0.3593  0.3081  0.0330
17881SOL     OW54805   5.222   2.311   0.284  0.0255 -0.3705  0.1021
17881SOL    HW154806   5.215   2.225   0.241  1.6377 -0.6131  0.2700
17881SOL    HW254807   5.314   2.317   0.310 -0.3079  0.9654  1.0482
17882SOL     OW54808   7.563   6.553   2.615 -0.3200  0.3764 -0.0526
17882SOL    HW154809   7.510   6.610   2.670 -0.3120  0.3193  0.0141
17882SOL    HW254810   7.653   6.571   2.644 -0.3636 -0.1607  0.4322
17883SOL     OW54811   3.125   4.708   3.136 -0.5585  0.2671 -0.3770
17883SOL    HW154812   3.214   4.681   3.113 -0.4787  1.2745 -1.3057
17883SOL    HW254813   3.113   4.676   3.225  1.3295  1.4685  0.3741
17884SOL     OW54814   8.228   0.640   7.818 -0.2269 -0.1452  0.4239
17884SOL    HW154815   8.195   0.603   7.900 -1.2102  0.0037  0.0995
17884SOL    HW254816   8.271   0.722   7.844  0.3751 -0.6034  0.9130
17885SOL     OW54817   6.557   5.019   4.999 -0.1570 -0.1133  0.4033
17885SOL    HW154818   6.467   5.032   4.969  0.1027 -0.3293 -0.4865
17885SOL    HW254819   6.570   4.925   4.996  0.1801 -0.0629  0.3043
17886SOL     OW54820   2.784   2.961   2.505  0.2577 -0.1347 -0.3478
17886SOL    HW154821   2.811   3.027   2.569 -0.0235  0.8661 -1.2338
17886SOL    HW254822   2.862   2.906   2.494  1.0120  0.9702 -0.7217
17887SOL     OW54823   0.488   2.770   4.839 -0.1041  0.7872 -0.5077
17887SOL    HW154824   0.396   2.774   4.863  0.1760  0.8379  0.5869
17887SOL    HW254825   0.490   2.802   4.749 -1.0780  1.3305 -0.3485
17888SOL     OW54826   5.310   3.054   4.302  0.1712  0.1529  0.3385
17888SOL    HW154827   5.254   2.993   4.253 -2.5950  2.4545  0.3722
17888SOL    HW254828   5.350   3.108   4.234 -0.7629  0.9973  0.4483
17889SOL     OW54829   1.649   7.882   0.297 -0.2691 -0.0065  0.3423
17889SOL    HW154830   1.608   7.878   0.384  0.1036 -0.2879  0.5110
17889SOL    HW254831   1.579   7.858   0.236 -0.3942 -0.3520  0.6158
17890SOL     OW54832   8.251   2.988   5.994 -0.1919  0.0132 -0.2583
17890SOL    HW154833   8.273   3.082   5.998 -2.6890  0.6079  1.7825
17890SOL    HW254834   8.171   2.985   5.942 -0.3093 -0.9304 -0.0292
17891SOL     OW54835   1.159   4.742   1.524  0.0646 -0.0046  0.1419
17891SOL    HW154836   1.185   4.719   1.435  0.2494  0.6630  0.0154
17891SOL    HW254837   1.141   4.836   1.520 -1.9364 -0.3271  0.3338
17892SOL     OW54838   2.406   5.550   2.162 -0.0741 -0.2155  0.2726
17892SOL    HW154839   2.396   5.469   2.213 -1.0393 -0.5647 -0.4399
17892SOL    HW254840   2.342   5.610   2.200  0.7526  0.2843  0.9045
17893SOL     OW54841   6.732   0.306   1.073  0.4057  0.5983  0.7407
17893SOL    HW154842   6.801   0.370   1.056  0.3352  0.7150  0.8929
17893SOL    HW254843   6.687   0.297   0.989  1.4466 -0.4879  0.2585
17894SOL     OW54844   4.851   2.511   6.966  0.0136 -0.0903 -0.3539
17894SOL    HW154845   4.788   2.462   7.019  1.9054 -1.1263  1.0780
17894SOL    HW254846   4.863   2.457   6.888  0.0535 -0.5256 -0.0504
17895SOL     OW54847   7.529   4.370   4.516 -0.3867 -0.0059  0.5193
17895SOL    HW154848   7.518   4.460   4.548 -0.5979 -0.2479  1.1445
17895SOL    HW254849   7.531   4.378   4.421  0.3935  0.7553  0.5856
17896SOL     OW54850   5.012   3.249   7.852  0.4403 -0.3089  0.1535
17896SOL    HW154851   5.074   3.177   7.863  0.6226  0.1433  2.8414
17896SOL    HW254852   4.941   3.228   7.914 -0.7973  0.5318 -0.9282
17897SOL     OW54853   0.314   6.149   7.157  0.5596 -0.2648  0.4839
17897SOL    HW154854   0.243   6.213   7.160  2.5816  2.2016 -0.5562
17897SOL    HW254855   0.271   6.065   7.148 -2.2258  1.0518  0.6472
17898SOL     OW54856   2.966   4.109   4.946  0.3634 -0.3235  0.1802
17898SOL    HW154857   3.047   4.073   4.910 -0.4768 -2.5252  0.3550
17898SOL    HW254858   2.897   4.071   4.891 -0.5694  2.5612 -0.8472
17899SOL     OW54859   3.695   3.549   4.870  0.1247 -0.1508 -0.0562
17899SOL    HW154860   3.760   3.614   4.842 -0.9232  1.9690  2.0971
17899SOL    HW254861   3.742   3.495   4.933  0.1446  0.6907  0.6779
17900SOL     OW54862   4.536   1.540   6.965 -0.7250  0.1617  0.0916
17900SOL    HW154863   4.463   1.599   6.982 -2.9394 -2.6646  1.0976
17900SOL    HW254864   4.510   1.492   6.886  0.9844  0.3736 -0.6559
17901SOL     OW54865   2.807   6.097   6.528 -0.1630  0.1875 -0.4435
17901SOL    HW154866   2.886   6.067   6.482  0.0637 -0.8293  0.5428
17901SOL    HW254867   2.836   6.172   6.580 -0.0304  0.2963 -0.6744
17902SOL     OW54868   0.006   6.662   0.647 -0.1108  0.4459  0.8383
17902SOL    HW154869   0.100   6.681   0.647  0.0615 -0.2064 -0.7942
17902SOL    HW254870  -0.011   6.622   0.732  0.7574  2.0303  1.8054
17903SOL     OW54871   7.142   8.116   4.172 -0.2381 -0.2276 -0.0490
17903SOL    HW154872   7.194   8.042   4.201 -2.3731 -0.9319  2.3794
17903SOL    HW254873   7.090   8.082   4.099  0.6212 -0.3342 -0.6228
17904SOL     OW54874   0.154   8.639   3.910  0.2312  0.6336 -0.1157
17904SOL    HW154875   0.070   8.685   3.909  0.3230  0.9410  1.7657
17904SOL    HW254876   0.207   8.687   3.973  1.0519 -0.8075  0.3558
17905SOL     OW54877   5.924   5.321   8.685  0.0983  0.4328  0.0375
17905SOL    HW154878   6.014   5.296   8.663  0.0066  0.8456 -0.8498
17905SOL    HW254879   5.893   5.251   8.743 -0.3865 -1.9291 -2.8552
17906SOL     OW54880   7.033   5.971   1.567 -0.0603 -0.4649 -0.5410
17906SOL    HW154881   6.995   6.024   1.637  3.1484 -1.8066  2.5474
17906SOL    HW254882   7.124   6.001   1.561  0.6924 -2.7124 -1.6968
17907SOL     OW54883   5.111   4.190   4.127  0.3060 -0.5736  1.1021
17907SOL    HW154884   5.081   4.236   4.048  0.8863 -0.1196  1.1370
17907SOL    HW254885   5.034   4.143   4.158 -0.5597  1.0161  1.5164
17908SOL     OW54886   1.307   0.767   2.061 -0.2830 -0.0086 -0.0009
17908SOL    HW154887   1.253   0.788   2.136 -1.8310 -0.5823 -0.9181
17908SOL    HW254888   1.263   0.808   1.987  0.2531 -0.9061 -0.8450
17909SOL     OW54889   0.069   6.639   6.409 -0.2044  0.0338 -0.2984
17909SOL    HW154890   0.018   6.558   6.401  0.6281 -0.7252  1.4856
17909SOL    HW254891   0.156   6.615   6.376  0.3178 -0.1251  1.1254
17910SOL     OW54892   1.991   8.333   7.584  0.5271  0.0733 -0.3277
17910SOL    HW154893   1.906   8.292   7.597  0.6263  0.0500  0.2523
17910SOL    HW254894   2.054   8.261   7.592  0.7114  0.3325  0.7957
17911SOL     OW54895   6.284   6.219   7.942 -0.3522 -0.3950  0.2506
17911SOL    HW154896   6.190   6.216   7.923 -0.0394 -1.1324 -1.3558
17911SOL    HW254897   6.323   6.264   7.866  0.6844 -0.9884  0.4075
17912SOL     OW54898   0.019   0.529   1.695 -0.3539  0.0777  0.2130
17912SOL    HW154899   0.096   0.565   1.740  0.9682 -1.8758 -0.3323
17912SOL    HW254900   0.012   0.579   1.614  0.3378  0.2959  0.2849
17913SOL     OW54901   0.717   4.914   5.749  0.4388  0.0997 -0.0364
17913SOL    HW154902   0.655   4.977   5.786  0.0650 -0.7775  0.9175
17913SOL    HW254903   0.695   4.909   5.656  0.0805  0.9182  0.0006
17914SOL     OW54904   7.813   4.018   3.632  0.1832  0.5372 -0.1721
17914SOL    HW154905   7.848   3.980   3.551 -0.4409 -0.6650  0.0867
17914SOL    HW254906   7.719   4.024   3.617 -0.1148 -0.9098  0.8989
17915SOL     OW54907   6.091   7.095   8.320 -0.2793  0.5522  0.0988
17915SOL    HW154908   6.149   7.171   8.319 -0.0298  0.3831 -1.2190
17915SOL    HW254909   6.008   7.129   8.287 -0.6946  0.6098  1.1699
17916SOL     OW54910   7.465   4.906   7.345  0.0056  0.6874  0.1507
17916SOL    HW154911   7.390   4.856   7.315  0.3839  0.2171 -0.0267
17916SOL    HW254912   7.488   4.865   7.429 -0.7035  1.6347  0.8280
17917SOL     OW54913   1.296   8.565   5.343  0.4546 -0.4060  0.6099
17917SOL    HW154914   1.225   8.623   5.319  1.3265  0.4188 -0.0521
17917SOL    HW254915   1.261   8.512   5.415 -1.2463 -0.9144 -0.5267
17918SOL     OW54916   4.823   4.619   0.472  0.0725 -0.5775  0.4611
17918SOL    HW154917   4.762   4.598   0.401  1.2609  0.3686 -0.8829
17918SOL    HW254918   4.852   4.533   0.504 -1.4776 -1.0306  0.7312
17919SOL     OW54919   4.225   7.865   2.947  0.0133  0.1794 -0.6399
17919SOL    HW154920   4.316   7.866   2.919 -0.1752 -0.4608 -1.2855
17919SOL    HW254921   4.199   7.773   2.943 -0.2980  0.1819  0.7474
17920SOL     OW54922   5.839   2.654   6.087 -0.3420 -0.1837  0.3647
17920SOL    HW154923   5.904   2.584   6.081  0.5216  0.6527 -0.3735
17920SOL    HW254924   5.785   2.631   6.163  1.0024 -0.7636  1.1757
17921SOL     OW54925   1.761   5.215   3.519 -0.2524 -0.4366 -0.0078
17921SOL    HW154926   1.705   5.141   3.540  3.0225 -3.3633 -0.7117
17921SOL    HW254927   1.821   5.222   3.593  1.5596 -0.7296 -1.3803
17922SOL     OW54928   5.075   3.526   3.421  0.4742  0.4403  0.0859
17922SOL    HW154929   5.036   3.465   3.359 -0.9685  2.2381 -0.8730
17922SOL    HW254930   5.170   3.510   3.415  0.1650 -1.3433 -0.4528
17923SOL     OW54931   7.861   5.018   4.422 -0.3964  0.3909  0.0799
17923SOL    HW154932   7.953   5.042   4.437  0.0998 -1.5059  0.2912
17923SOL    HW254933   7.836   5.068   4.344  1.8709 -1.4818 -2.0494
17924SOL     OW54934   3.944   1.211   4.088 -0.2121  0.4154 -0.3781
17924SOL    HW154935   3.879   1.249   4.028  0.2560  0.1490 -1.0754
17924SOL    HW254936   3.918   1.119   4.096 -1.3256  0.8424  1.2816
17925SOL     OW54937   8.107   2.282   7.145  0.3117  0.2408  0.4008
17925SOL    HW154938   8.095   2.222   7.219 -1.0283 -0.0250 -0.0057
17925SOL    HW254939   8.035   2.262   7.086 -0.6471  2.7469  0.5759
17926SOL     OW54940   3.726   2.072   5.357 -0.0518  0.4559  0.0475
17926SOL    HW154941   3.773   2.149   5.325  0.5469  1.1799  2.4645
17926SOL    HW254942   3.770   2.049   5.438  0.4244 -3.1042 -1.0682
17927SOL     OW54943   8.750   1.706   5.813  0.2899 -0.3044  0.0429
17927SOL    HW154944   8.684   1.716   5.744 -0.1570  0.9796  0.6316
17927SOL    HW254945   8.698   1.693   5.893  0.8021 -2.7741  0.0488
17928SOL     OW54946   1.367   4.950   4.553  0.7901 -0.3078  0.0819
17928SOL    HW154947   1.385   4.868   4.507  0.3113 -0.0655 -0.5649
17928SOL    HW254948   1.274   4.946   4.574  0.4470  0.6105 -1.1201
17929SOL     OW54949   2.960   3.256   5.851  0.1903 -0.4507 -0.2032
17929SOL    HW154950   2.894   3.313   5.891  1.9495  1.4430  0.1615
17929SOL    HW254951   2.961   3.178   5.906  0.2861  0.7472  1.5905
17930SOL     OW54952   3.471   6.003   8.419 -0.2931  0.0928 -0.3011
17930SOL    HW154953   3.455   6.047   8.336  1.7200  0.6812 -0.4234
17930SOL    HW254954   3.560   6.029   8.444 -0.1047 -1.6174  1.0631
17931SOL     OW54955   4.741   1.176   5.275 -0.1018  0.6437 -0.0363
17931SOL    HW154956   4.775   1.189   5.363 -0.1667  0.3151  0.0369
17931SOL    HW254957   4.686   1.253   5.259 -1.4124 -0.0665  0.8425
17932SOL     OW54958   2.568   2.598   4.360 -0.4185  0.2522  0.4914
17932SOL    HW154959   2.531   2.531   4.302  1.2795  1.3461 -2.0376
17932SOL    HW254960   2.621   2.548   4.423 -2.7205 -1.0037  1.5648
17933SOL     OW54961   7.514   0.230   7.225 -0.0606 -0.0144  0.2727
17933SOL    HW154962   7.583   0.208   7.163 -0.2061  1.7553 -0.5895
17933SOL    HW254963   7.559   0.242   7.308  0.9179  2.2465 -0.5092
17934SOL     OW54964   2.778   3.968   7.074 -0.8777  0.1028  0.3961
17934SOL    HW154965   2.872   3.974   7.055 -1.2111  0.6075 -1.2890
17934SOL    HW254966   2.757   4.052   7.115 -0.0950 -1.1016  3.5553
17935SOL     OW54967   1.011   5.861   1.869 -0.4287 -0.1661 -0.1613
17935SOL    HW154968   1.047   5.777   1.839 -0.2870 -0.5727  1.1176
17935SOL    HW254969   0.919   5.843   1.888 -1.3153  0.7679 -2.9911
17936SOL     OW54970   5.402   1.507   0.113 -0.5546 -0.2049 -0.1591
17936SOL    HW154971   5.457   1.571   0.068 -0.2994 -0.2588  0.0723
17936SOL    HW254972   5.381   1.442   0.046 -1.2631  0.3980 -0.5344
17937SOL     OW54973   0.988   2.020   4.734 -0.0246 -0.1037 -0.3134
17937SOL    HW154974   1.019   1.999   4.646  1.0012  1.0037 -0.2476
17937SOL    HW254975   1.048   2.088   4.765  0.4098 -1.3366  1.7450
17938SOL     OW54976   4.042   6.196   3.536  0.0401 -0.4804 -0.0484
17938SOL    HW154977   3.961   6.194   3.587 -0.2592 -4.1508 -0.3949
17938SOL    HW254978   4.018   6.236   3.453 -1.8017 -2.4558 -0.5536
17939SOL     OW54979   7.066   3.174   7.107 -0.0698  0.1569  0.7435
17939SOL    HW154980   7.084   3.199   7.198  1.2960  2.1774 -0.0159
17939SOL    HW254981   6.989   3.225   7.084  0.1239  0.3508  0.5169
17940SOL     OW54982   7.634   7.516   6.572 -0.4167 -0.3617  0.3856
17940SOL    HW154983   7.717   7.564   6.572 -0.6115  0.0424 -1.7199
17940SOL    HW254984   7.579   7.565   6.634 -0.2121  1.4811 -0.7937
17941SOL     OW54985   5.775   3.357   8.222  0.6780 -0.4266 -0.7759
17941SOL    HW154986   5.714   3.296   8.180  0.2879  0.0733 -0.9541
17941SOL    HW254987   5.796   3.421   8.154 -0.9078  1.0995  0.0879
17942SOL     OW54988   3.642   6.075   7.840 -0.1145  0.5305  0.5606
17942SOL    HW154989   3.561   6.058   7.792  1.6240 -0.7586 -2.1971
17942SOL    HW254990   3.629   6.161   7.879 -2.3351  0.9291 -0.8565
17943SOL     OW54991   2.915   3.534   4.217 -0.1760 -0.5007 -0.1245
17943SOL    HW154992   2.995   3.573   4.252  0.0956 -0.8444 -0.3495
17943SOL    HW254993   2.857   3.608   4.200 -0.5567 -0.3651  1.6065
17944SOL     OW54994   4.828   2.464   0.106 -0.1261  0.3239 -0.3603
17944SOL    HW154995   4.912   2.479   0.150 -0.7000 -0.8668  1.2325
17944SOL    HW254996   4.852   2.447   0.014  1.3598  0.1590  0.0254
17945SOL     OW54997   4.643   4.952   3.367  0.5160 -0.2004  0.2547
17945SOL    HW154998   4.715   4.992   3.417  0.5670 -1.6419  1.4147
17945SOL    HW254999   4.576   4.933   3.433 -1.2457  1.6577 -0.8923
17946SOL     OW55000   4.449   3.347   6.428  0.2589  0.4910  0.0300
17946SOL    HW155001   4.457   3.441   6.409  1.0851  0.5259  0.5002
17946SOL    HW255002   4.377   3.342   6.490 -0.1142  0.7569 -0.3710
17947SOL     OW55003   7.334   4.279   4.244  0.5517 -0.2249  0.2010
17947SOL    HW155004   7.407   4.251   4.189 -0.5903 -2.4657 -0.2882
17947SOL    HW255005   7.289   4.346   4.192  2.0410  1.0077  0.4078
17948SOL     OW55006   2.978   4.255   1.530 -0.0382 -0.1725 -0.6228
17948SOL    HW155007   2.926   4.310   1.472  1.4463  0.9487 -0.9445
17948SOL    HW255008   3.025   4.195   1.472  1.1921  0.7305 -0.6091
17949SOL     OW55009   2.990   5.477   0.683  0.2586 -0.2821  0.2745
17949SOL    HW155010   2.908   5.465   0.731 -0.6656  0.2093 -1.1080
17949SOL    HW255011   3.044   5.403   0.708 -1.0545 -1.2564  0.3379
17950SOL     OW55012   1.210   7.871   8.086 -0.3330  0.1808 -0.0945
17950SOL    HW155013   1.216   7.785   8.127 -1.1116 -0.3778 -1.1022
17950SOL    HW255014   1.246   7.932   8.151  0.7320 -0.9614  0.4190
17951SOL     OW55015   6.695   8.335   0.826  0.1766 -0.1382 -0.6920
17951SOL    HW155016   6.682   8.241   0.838 -0.2966 -0.0359 -0.3733
17951SOL    HW255017   6.735   8.343   0.740 -0.0592 -0.6093 -0.8489
17952SOL     OW55018   2.688   1.825   0.516 -0.0654 -0.4609  0.4194
17952SOL    HW155019   2.772   1.834   0.471 -0.4144  0.3193 -0.0982
17952SOL    HW255020   2.637   1.767   0.460 -0.7827  1.1393 -0.6526
17953SOL     OW55021   5.801   2.453   0.063 -0.4574  0.7627  0.3136
17953SOL    HW155022   5.895   2.475   0.063 -0.3040  0.1829  1.3209
17953SOL    HW255023   5.759   2.532   0.098 -0.4487  1.3425 -0.9340
17954SOL     OW55024   3.572   7.690   0.149  0.0227 -0.5092 -0.1249
17954SOL    HW155025   3.539   7.715   0.236  0.8099  0.4381 -0.0876
17954SOL    HW255026   3.497   7.648   0.107 -1.0174  0.8628  0.2649
17955SOL     OW55027   8.519   4.026   3.894  0.0209 -0.3384 -0.0283
17955SOL    HW155028   8.460   3.995   3.963 -0.2349  1.0176  0.3871
17955SOL    HW255029   8.461   4.055   3.824  0.2323 -0.1063 -0.1071
17956SOL     OW55030   8.018   2.139   5.439 -0.3812  0.3207 -0.4138
17956SOL    HW155031   8.081   2.106   5.504 -1.6392 -0.0010  0.6776
17956SOL    HW255032   8.032   2.234   5.439  0.6848  0.1764 -0.8204
17957SOL     OW55033   5.054   3.796   8.010  0.1550 -0.3662 -0.5214
17957SOL    HW155034   5.023   3.719   7.963 -2.5026  0.0734  0.3700
17957SOL    HW255035   5.092   3.851   7.941 -1.0246 -0.9877 -1.7253
17958SOL     OW55036   2.445   5.248   6.756  0.3716  0.0611  0.4841
17958SOL    HW155037   2.417   5.221   6.843  2.7051 -0.6955  1.0834
17958SOL    HW255038   2.458   5.165   6.709 -2.0445  0.4722 -1.0554
17959SOL     OW55039   5.402   8.348   4.607 -0.1675 -0.0404  0.1212
17959SOL    HW155040   5.310   8.371   4.599 -0.8128 -2.1137  0.9724
17959SOL    HW255041   5.449   8.424   4.571 -2.1820  0.9424 -0.5771
17960SOL     OW55042   6.554   5.838   6.844  0.2071 -0.3730  0.5719
17960SOL    HW155043   6.520   5.928   6.837  0.4459 -0.2547  0.9136
17960SOL    HW255044   6.601   5.824   6.762 -2.7485 -1.4440 -1.0760
17961SOL     OW55045   5.051   0.993   3.996  0.1826  0.4503 -0.5064
17961SOL    HW155046   5.116   0.948   3.942  0.2975 -0.2467  0.1976
17961SOL    HW255047   5.068   1.086   3.981  1.8491  0.3069  0.2105
17962SOL     OW55048   8.553   2.575   5.446 -0.2661 -0.2544 -0.9349
17962SOL    HW155049   8.460   2.559   5.432 -0.5079 -0.3250  0.5821
17962SOL    HW255050   8.563   2.577   5.542  0.9180  1.9220 -1.0335
17963SOL     OW55051   0.907   8.798   3.383 -0.0777 -0.5151 -0.0478
17963SOL    HW155052   0.923   8.841   3.467  0.7082 -1.4828  0.3283
17963SOL    HW255053   0.982   8.822   3.328 -0.2972 -0.3508 -0.2790
17964SOL     OW55054   8.079   8.466   3.261  0.0587 -0.0451 -0.0543
17964SOL    HW155055   7.987   8.493   3.252  0.0742 -0.4375 -1.6285
17964SOL    HW255056   8.079   8.410   3.339 -1.0277 -0.0156 -0.0103
17965SOL     OW55057   4.057   4.504   5.184 -0.7591 -0.8542  0.7092
17965SOL    HW155058   4.093   4.507   5.273 -0.6804 -0.9638  0.6817
17965SOL    HW255059   3.999   4.428   5.184 -0.6093 -0.9707  0.6121
17966SOL     OW55060   0.217   1.014   0.013  0.2215 -0.4292  0.0007
17966SOL    HW155061   0.252   1.090  -0.034 -0.8723 -0.8141 -1.5043
17966SOL    HW255062   0.272   0.941  -0.016  0.0981 -0.5218 -0.0001
17967SOL     OW55063   1.902   7.745   6.812  0.0721  0.4133  0.2290
17967SOL    HW155064   1.819   7.789   6.828 -0.0031  0.5323 -0.4855
17967SOL    HW255065   1.967   7.816   6.810  0.2790  0.2813  1.2658
17968SOL     OW55066   7.302   4.768   6.364 -0.0511 -0.2953 -0.0404
17968SOL    HW155067   7.288   4.839   6.427  1.8932 -1.3403  1.6895
17968SOL    HW255068   7.270   4.689   6.409 -3.8062 -0.4794 -2.5767
17969SOL     OW55069   5.184   7.568   1.949  0.3875  0.0820 -0.6934
17969SOL    HW155070   5.231   7.627   1.891 -0.0166  0.6896 -0.4107
17969SOL    HW255071   5.199   7.604   2.037 -1.2384  0.7478 -0.6608
17970SOL     OW55072   1.400   1.195   8.693  0.1654 -0.1435  0.0411
17970SOL    HW155073   1.332   1.183   8.758 -0.9036 -1.6032 -1.2571
17970SOL    HW255074   1.461   1.123   8.709  1.4561  1.1458  1.1882
17971SOL     OW55075   7.086   8.449   3.626 -0.0337 -0.1291  0.0473
17971SOL    HW155076   7.138   8.527   3.643 -1.2865  0.5734  0.8144
17971SOL    HW255077   7.067   8.452   3.532  1.1827 -0.3455 -0.2236
17972SOL     OW55078   2.849   8.659   0.629  0.5482 -0.1323 -0.4444
17972SOL    HW155079   2.802   8.732   0.589  2.2235 -0.2680 -2.8770
17972SOL    HW255080   2.796   8.582   0.609 -0.1688  0.1397  0.3345
17973SOL     OW55081   0.625   5.423   6.632  0.7789 -0.0192  0.2933
17973SOL    HW155082   0.578   5.339   6.631 -0.3185  0.4766 -3.1115
17973SOL    HW255083   0.707   5.404   6.587  1.2588  0.3957  0.9912
17974SOL     OW55084   6.835   8.154   7.279  0.6448 -0.0699 -0.1146
17974SOL    HW155085   6.899   8.147   7.208 -1.5404 -0.6275 -2.2044
17974SOL    HW255086   6.873   8.216   7.340  2.5686  0.6514 -1.9122
17975SOL     OW55087   7.761   3.282   5.201 -0.7594  0.2120 -0.1507
17975SOL    HW155088   7.767   3.196   5.243  1.9333  0.6533  0.5826
17975SOL    HW255089   7.760   3.264   5.107  2.0310 -0.6886 -0.1132
17976SOL     OW55090   2.369   6.455   3.268 -0.3457 -0.1633 -0.7157
17976SOL    HW155091   2.314   6.381   3.292 -1.4355  0.6151 -0.7787
17976SOL    HW255092   2.418   6.425   3.191 -0.8635 -0.7619 -0.8153
17977SOL     OW55093   0.653   6.328   3.427 -0.0993 -0.1414 -0.4788
17977SOL    HW155094   0.667   6.409   3.475  0.4759 -0.3856 -0.2130
17977SOL    HW255095   0.701   6.262   3.477 -1.1088 -0.7763 -0.3256
17978SOL     OW55096   5.331   2.625   5.388 -0.1472 -0.3221  0.5223
17978SOL    HW155097   5.409   2.653   5.436  0.4229  2.1942 -1.6458
17978SOL    HW255098   5.268   2.696   5.400 -0.8357 -0.7230 -0.5313
17979SOL     OW55099   2.230   6.306   1.196  0.0166 -0.7564  0.3838
17979SOL    HW155100   2.177   6.303   1.275  1.0238  1.3996  1.2129
17979SOL    HW255101   2.181   6.363   1.137  0.2119 -0.7748  0.2029
17980SOL     OW55102   1.855   8.276   3.740  0.4876  0.1262  0.0456
17980SOL    HW155103   1.849   8.198   3.796 -0.4453 -0.6824 -1.1168
17980SOL    HW255104   1.789   8.336   3.775  1.6586  0.6981  1.3479
17981SOL     OW55105   4.260   8.164   7.748 -0.6609 -0.2271 -0.6367
17981SOL    HW155106   4.228   8.240   7.798 -0.4735  0.4717 -1.5527
17981SOL    HW255107   4.182   8.128   7.706 -0.4049  1.0268 -2.2676
17982SOL     OW55108   4.804   1.598   0.342 -0.3858 -0.0386  0.0074
17982SOL    HW155109   4.801   1.677   0.396 -0.4277  0.2397 -0.3985
17982SOL    HW255110   4.829   1.629   0.255  0.2938 -0.5572  0.0079
17983SOL     OW55111   2.973   6.347   0.167  0.7317 -0.2372  0.8407
17983SOL    HW155112   3.034   6.277   0.189  1.2113  0.6593  2.5465
17983SOL    HW255113   2.986   6.413   0.235 -1.0669  0.6670  0.3866
17984SOL     OW55114   2.246   5.245   4.530  0.0578 -0.5634 -0.2819
17984SOL    HW155115   2.177   5.207   4.475 -0.2102 -0.4555 -0.0276
17984SOL    HW255116   2.324   5.246   4.474  0.1350 -1.7074 -0.2170
17985SOL     OW55117   8.215   2.837   1.141 -0.5838 -0.0173 -0.0133
17985SOL    HW155118   8.206   2.894   1.065 -1.4554  3.4193  2.4203
17985SOL    HW255119   8.205   2.748   1.106  0.5557  1.2137 -4.0366
17986SOL     OW55120   5.557   6.017   0.328  0.3509 -0.1715  0.5990
17986SOL    HW155121   5.585   6.081   0.393 -1.2555  0.4563  0.7119
17986SOL    HW255122   5.573   5.932   0.370 -0.3309  0.2147  1.6984
17987SOL     OW55123   6.588   8.059   6.616  0.1237  0.2108 -0.9054
17987SOL    HW155124   6.557   8.142   6.582  1.5845  1.6338  0.9804
17987SOL    HW255125   6.682   8.061   6.602  0.3804 -0.4046  0.5481
17988SOL     OW55126   3.499   2.932   3.453 -0.2425  0.1400  0.1422
17988SOL    HW155127   3.436   2.876   3.409  0.5874 -0.5604 -0.1767
17988SOL    HW255128   3.581   2.919   3.405  0.4138  0.1848  1.2140
17989SOL     OW55129   5.293   0.756   5.468 -0.0766 -0.0946  0.2222
17989SOL    HW155130   5.308   0.661   5.460 -1.4617 -0.4586  1.3091
17989SOL    HW255131   5.200   0.762   5.490  0.3358  1.4252  1.7258
17990SOL     OW55132   3.540   0.212   5.995 -0.3340 -0.0377 -0.3902
17990SOL    HW155133   3.575   0.245   6.078 -0.5465 -0.3377 -0.1797
17990SOL    HW255134   3.445   0.207   6.010 -0.4715  0.7307 -0.9413
17991SOL     OW55135   2.974   4.515   0.234  0.0050 -0.1972 -0.6376
17991SOL    HW155136   3.038   4.464   0.283 -0.3885 -1.2788 -1.1950
17991SOL    HW255137   2.898   4.520   0.291 -0.1321 -0.6810 -0.7716
17992SOL     OW55138   7.735   7.179   7.952  0.4234 -0.1694  0.4509
17992SOL    HW155139   7.649   7.135   7.950  0.8371 -1.1886  2.4462
17992SOL    HW255140   7.726   7.250   7.889 -0.7879 -2.1912 -1.8567
17993SOL     OW55141   0.772   3.631   6.523  0.8160 -0.4438 -0.2887
17993SOL    HW155142   0.863   3.643   6.495  0.5742 -1.0583 -1.4252
17993SOL    HW255143   0.777   3.569   6.596  1.5498  1.9592  1.8533
17994SOL     OW55144   7.019   8.842   3.957  0.2715  0.1827 -0.2862
17994SOL    HW155145   7.081   8.911   3.934 -0.2560  0.6365 -0.3564
17994SOL    HW255146   7.049   8.812   4.043  1.4853 -0.6510 -0.9601
17995SOL     OW55147   6.085   7.953   5.409 -0.1315  0.7560 -0.1890
17995SOL    HW155148   6.171   7.939   5.449 -0.1864  0.2132 -0.2464
17995SOL    HW255149   6.087   8.043   5.377  1.5715 -0.1291 -2.9521
17996SOL     OW55150   6.631   6.607   2.184  0.3554  0.2764  0.3665
17996SOL    HW155151   6.609   6.551   2.110  1.4625  0.7088 -0.3192
17996SOL    HW255152   6.547   6.638   2.216 -0.1568 -0.0351 -0.6229
17997SOL     OW55153   5.821   8.003   7.788  0.3540  0.0884  0.4450
17997SOL    HW155154   5.749   7.976   7.731  0.7824 -0.8871  0.3421
17997SOL    HW255155   5.892   7.942   7.767  0.4410 -0.4778  2.2246
17998SOL     OW55156   3.944   2.855   6.091 -0.6696  0.4739  0.1351
17998SOL    HW155157   3.916   2.795   6.021 -1.3515  0.0294  0.7720
17998SOL    HW255158   3.962   2.797   6.165  2.4185  0.6564 -0.3277
17999SOL     OW55159   3.715   0.695   7.699  0.4887  0.5011  0.0960
17999SOL    HW155160   3.678   0.763   7.754  1.3952 -0.8500  2.5260
17999SOL    HW255161   3.807   0.718   7.689  0.4914  0.3494 -0.2622
18000SOL     OW55162   0.669   6.264   6.815  0.2003  0.1739  0.1204
18000SOL    HW155163   0.751   6.259   6.765 -0.3779 -0.5404 -0.8062
18000SOL    HW255164   0.600   6.264   6.748 -0.5787  0.3886  0.8941
18001SOL     OW55165   3.410   2.930   6.640  0.0193  0.0249  0.0975
18001SOL    HW155166   3.506   2.938   6.640  0.0053  0.3901  0.9417
18001SOL    HW255167   3.394   2.839   6.663  0.1689  0.0019  0.1138
18002SOL     OW55168   0.843   0.223   6.908 -0.5224  0.0675 -0.3342
18002SOL    HW155169   0.803   0.167   6.841 -1.4261  0.8262 -0.4398
18002SOL    HW255170   0.791   0.207   6.987 -0.7407  0.7096 -0.3477
18003SOL     OW55171   4.735   5.725   5.342 -0.4746 -0.0890 -0.0730
18003SOL    HW155172   4.771   5.678   5.267 -0.0729 -0.3977  0.3077
18003SOL    HW255173   4.784   5.807   5.345  1.0689 -0.9816  1.1272
18004SOL     OW55174   2.990   2.445   3.076  0.1709 -0.4344 -0.0466
18004SOL    HW155175   3.076   2.465   3.039 -0.3195  2.6138  0.2255
18004SOL    HW255176   2.999   2.356   3.111  2.1067 -1.6085 -3.0854
18005SOL     OW55177   0.875   6.059   1.586 -0.1223  0.1322 -0.2238
18005SOL    HW155178   0.848   6.092   1.672 -0.3070  0.9053 -0.5700
18005SOL    HW255179   0.941   6.122   1.556 -0.4036  0.1312 -0.8587
18006SOL     OW55180   0.120   2.954   8.145  0.2773 -0.0487  0.3994
18006SOL    HW155181   0.208   2.991   8.156  1.0805 -1.4980 -0.8250
18006SOL    HW255182   0.086   2.944   8.234  1.3841  0.4233  0.8902
18007SOL     OW55183   5.598   6.779   3.805 -0.5287 -0.9338  0.3219
18007SOL    HW155184   5.599   6.774   3.901  0.7014  0.7713  0.4359
18007SOL    HW255185   5.649   6.857   3.785 -2.7250  0.1104 -1.6304
18008SOL     OW55186   1.887   3.953   5.574  0.0110 -0.4345  0.0978
18008SOL    HW155187   1.947   4.006   5.626  0.4447 -0.6965 -0.1316
18008SOL    HW255188   1.831   4.017   5.529  0.8312 -0.1483 -0.5354
18009SOL     OW55189   4.278   1.743   3.655  0.2287  0.3253 -0.3073
18009SOL    HW155190   4.205   1.688   3.625 -0.0441  0.5034  0.0290
18009SOL    HW255191   4.298   1.710   3.743 -0.5155  1.3307  0.2549
18010SOL     OW55192   3.484   6.379   8.369  0.1008 -0.1517 -0.0667
18010SOL    HW155193   3.464   6.311   8.304  0.8064 -0.1332 -0.3135
18010SOL    HW255194   3.516   6.331   8.445  0.1824 -0.1237 -0.0827
18011SOL     OW55195   5.018   2.345   5.653  0.2065 -0.0520 -0.6957
18011SOL    HW155196   5.104   2.311   5.679  0.2065  0.3922 -0.1208
18011SOL    HW255197   5.021   2.345   5.557  0.0659 -2.0485 -0.7403
18012SOL     OW55198   0.528   5.179   7.031  0.1374  0.5085  0.0317
18012SOL    HW155199   0.608   5.192   7.082  0.3917  1.1902 -0.5263
18012SOL    HW255200   0.458   5.210   7.088  0.4613  1.6555 -0.1730
18013SOL     OW55201   4.424   1.832   5.522  0.8808 -0.3759 -0.3795
18013SOL    HW155202   4.437   1.927   5.529  1.2057 -0.3878 -0.7967
18013SOL    HW255203   4.329   1.822   5.515  0.8597 -0.0627 -0.5770
18014SOL     OW55204   1.507   2.113   5.979  0.3122 -0.4031  0.9217
18014SOL    HW155205   1.482   2.142   5.891 -2.0995 -1.8840  1.0383
18014SOL    HW255206   1.550   2.189   6.018 -1.4357  1.3715 -0.4366
18015SOL     OW55207   6.234   3.745   3.977 -0.3956 -0.6176 -0.1736
18015SOL    HW155208   6.171   3.785   4.037 -0.0189  0.4726 -0.4862
18015SOL    HW255209   6.195   3.661   3.955 -0.6645 -0.9502  1.4063
18016SOL     OW55210   5.261   5.985   0.316 -0.0823 -0.8727 -0.2646
18016SOL    HW155211   5.356   5.993   0.320 -0.1159  1.1487 -1.5745
18016SOL    HW255212   5.241   5.994   0.222 -1.7046  1.9472  0.2447
18017SOL     OW55213   7.516   4.076   7.995  0.6830  0.1784  0.3635
18017SOL    HW155214   7.464   4.101   8.071  0.3257  0.3735  0.0599
18017SOL    HW255215   7.465   4.005   7.954  1.3911 -0.6482  0.8888
18018SOL     OW55216   3.662   2.898   5.619  0.3995 -0.3635 -0.0521
18018SOL    HW155217   3.672   2.910   5.524 -0.3158 -0.4300 -0.1400
18018SOL    HW255218   3.667   2.804   5.632 -0.0922 -0.3980 -0.0981
18019SOL     OW55219   1.812   7.013   5.249 -0.6749  0.2195  0.2069
18019SOL    HW155220   1.815   7.038   5.157  2.2687  0.0182  0.1550
18019SOL    HW255221   1.787   6.921   5.248 -0.9440  0.2922 -0.3680
18020SOL     OW55222   1.049   7.240   0.753  0.2169 -0.0405 -0.6372
18020SOL    HW155223   1.136   7.281   0.757  1.3273 -2.2796  0.2396
18020SOL    HW255224   1.056   7.177   0.681 -0.4714 -0.6437 -0.1924
18021SOL     OW55225   6.832   8.781   1.028 -0.1690  0.5250 -0.5943
18021SOL    HW155226   6.739   8.759   1.027  0.2395 -1.5034  0.3576
18021SOL    HW255227   6.847   8.827   0.946 -1.5338 -1.3676 -2.0033
18022SOL     OW55228   6.787   6.516   3.078 -0.6879  0.1075  0.4763
18022SOL    HW155229   6.859   6.560   3.034  0.3857 -0.1516  1.9193
18022SOL    HW255230   6.829   6.454   3.137 -2.0972 -0.1223  1.2762
18023SOL     OW55231   4.567   4.721   4.557  0.1640 -0.2456 -0.2610
18023SOL    HW155232   4.495   4.768   4.516  1.1053  1.3909 -0.1216
18023SOL    HW255233   4.612   4.678   4.484 -0.2246 -0.2601 -0.4946
18024SOL     OW55234   0.886   8.052   2.168 -0.1743 -0.3896  0.8575
18024SOL    HW155235   0.902   7.960   2.188  1.3082 -0.5862 -0.9025
18024SOL    HW255236   0.968   8.096   2.190 -0.0821  0.0989 -0.3690
18025SOL     OW55237   1.036   0.191   4.794 -0.3528  0.2452 -0.3124
18025SOL    HW155238   1.098   0.228   4.732 -0.0257 -0.3363 -0.3372
18025SOL    HW255239   1.090   0.161   4.867 -0.5928 -0.3721 -0.3865
18026SOL     OW55240   2.483   2.044   6.404 -0.1241 -0.9848 -0.0713
18026SOL    HW155241   2.460   1.956   6.375 -1.1845 -0.6680 -0.2367
18026SOL    HW255242   2.537   2.079   6.333 -0.3305 -1.2320 -0.3555
18027SOL     OW55243   8.428   4.161   4.418  0.3246 -1.0337  0.6938
18027SOL    HW155244   8.459   4.093   4.477  2.2670 -0.0869  0.8424
18027SOL    HW255245   8.500   4.174   4.356 -0.5644 -0.0780 -0.1774
18028SOL     OW55246   2.877   2.758   3.057 -0.0078 -0.2387 -0.4123
18028SOL    HW155247   2.926   2.680   3.083 -0.9643 -1.0597 -1.0456
18028SOL    HW255248   2.904   2.775   2.967 -0.1554 -0.1158 -0.4344
18029SOL     OW55249   0.206   4.567   8.065  0.0245 -0.0756  0.7266
18029SOL    HW155250   0.274   4.576   7.998 -1.0532 -0.8981 -0.5161
18029SOL    HW255251   0.236   4.495   8.121 -1.2667 -2.6962 -1.7318
18030SOL     OW55252   5.295   3.717   3.069 -0.4562  0.3850 -0.5252
18030SOL    HW155253   5.362   3.715   3.137 -1.8590  0.3201  0.9048
18030SOL    HW255254   5.343   3.739   2.989  1.3838 -0.4719  0.2775
18031SOL     OW55255   7.869   6.794   4.679 -0.6021  0.4794 -0.5627
18031SOL    HW155256   7.963   6.809   4.674 -0.8220  1.9436 -0.5200
18031SOL    HW255257   7.835   6.866   4.731 -1.3607 -1.9013  2.5555
18032SOL     OW55258   6.118   7.936   2.862 -0.1980  0.0812 -0.0986
18032SOL    HW155259   6.073   7.929   2.947  1.5193  0.7598  0.9089
18032SOL    HW255260   6.176   7.860   2.860  1.4419  1.2767  0.3992
18033SOL     OW55261   8.440   6.735   4.347 -0.2426 -0.6988 -0.2943
18033SOL    HW155262   8.374   6.670   4.371 -0.2197  0.1571  2.3643
18033SOL    HW255263   8.480   6.761   4.429 -1.0722  3.5585 -0.9762
18034SOL     OW55264   2.054   6.123   0.446  0.2705  0.0043 -0.3147
18034SOL    HW155265   2.069   6.140   0.353 -1.8727  1.8251 -0.4136
18034SOL    HW255266   1.959   6.119   0.455  0.3776  0.9078  1.9310
18035SOL     OW55267   4.043   0.650   7.670 -0.1183  0.4375 -0.4225
18035SOL    HW155268   4.084   0.586   7.729  2.4729 -0.6097 -3.0751
18035SOL    HW255269   4.029   0.601   7.588 -0.7400  2.5450 -1.6376
18036SOL     OW55270   3.525   0.999   0.538 -0.1978  0.5446 -0.3682
18036SOL    HW155271   3.555   1.089   0.557 -1.3229  0.8432  0.0453
18036SOL    HW255272   3.576   0.974   0.461  1.7033  0.7239  0.7424
18037SOL     OW55273   2.926   6.749   4.452 -0.4223  0.0096  0.0521
18037SOL    HW155274   3.020   6.749   4.470 -0.5526 -0.9877  0.8583
18037SOL    HW255275   2.892   6.677   4.505 -1.2353 -1.4735 -2.3054
18038SOL     OW55276   1.071   7.897   0.580 -0.0298 -0.0031 -0.8634
18038SOL    HW155277   1.013   7.825   0.604  0.7467 -0.1463  0.7123
18038SOL    HW255278   1.101   7.876   0.492  0.4234 -1.7770 -0.3241
18039SOL     OW55279   4.848   5.474   7.209 -0.0807 -0.5884  0.0760
18039SOL    HW155280   4.793   5.411   7.161  0.4507 -1.1758  0.2220
18039SOL    HW255281   4.923   5.422   7.238  0.4203  0.1480  0.1088
18040SOL     OW55282   8.544   1.420   2.336 -0.3232  0.3460 -0.0371
18040SOL    HW155283   8.633   1.399   2.307 -1.1625 -1.0047 -1.8649
18040SOL    HW255284   8.554   1.498   2.391  2.0850 -0.3514  0.6357
18041SOL     OW55285   5.072   4.358   4.758 -0.1056  0.2615  1.0370
18041SOL    HW155286   5.001   4.377   4.697  2.1442  1.9457 -1.2372
18041SOL    HW255287   5.071   4.262   4.767 -0.8287  0.0037 -1.2504
18042SOL     OW55288   3.799   8.085   7.612  0.1389 -0.4115 -0.7201
18042SOL    HW155289   3.835   8.168   7.582  4.0121 -0.5704  2.6745
18042SOL    HW255290   3.819   8.082   7.706 -1.9264 -4.1971 -0.1870
18043SOL     OW55291   3.716   1.333   1.267  0.1848 -0.2394 -0.2348
18043SOL    HW155292   3.720   1.280   1.347  0.1444  0.9032  0.5531
18043SOL    HW255293   3.768   1.411   1.287 -2.3736  1.5783 -0.0973
18044SOL     OW55294   0.066   4.076   1.814 -0.3086  0.2992 -0.0758
18044SOL    HW155295   0.124   4.145   1.847 -1.9580  1.8552 -0.2581
18044SOL    HW255296   0.026   4.038   1.892  1.3979 -1.2416  0.0930
18045SOL     OW55297   4.113   4.955   6.878  0.8652  0.2188 -0.5905
18045SOL    HW155298   4.156   5.035   6.847 -0.2062  0.6202 -1.0935
18045SOL    HW255299   4.057   4.928   6.805 -1.2105  0.8004  0.6928
18046SOL     OW55300   5.094   5.194   6.102  0.5850 -0.2723  0.3927
18046SOL    HW155301   5.184   5.223   6.089  0.9971 -1.8700 -0.5129
18046SOL    HW255302   5.050   5.210   6.019  0.6292 -1.4780  0.1139
18047SOL     OW55303   8.456   5.327   2.284 -0.0627 -0.4345  0.3110
18047SOL    HW155304   8.550   5.346   2.274  0.2903 -1.3063  1.6150
18047SOL    HW255305   8.437   5.261   2.218 -0.0667  0.6539 -0.7938
18048SOL     OW55306   1.569   5.868   5.060 -0.2960 -0.0341  0.0601
18048SOL    HW155307   1.566   5.875   4.965 -2.0923  0.9704  0.1402
18048SOL    HW255308   1.618   5.788   5.077 -1.2379 -1.0659 -1.7483
18049SOL     OW55309   6.535   5.133   4.402 -0.2447 -0.4408 -0.0499
18049SOL    HW155310   6.530   5.040   4.383 -0.1874 -0.7587  1.3927
18049SOL    HW255311   6.617   5.162   4.362 -0.4535 -0.9266 -0.8258
18050SOL     OW55312   0.807   6.993   5.557  0.1533  0.0953  0.1547
18050SOL    HW155313   0.805   6.926   5.489  0.6802 -1.6050  1.7450
18050SOL    HW255314   0.729   6.975   5.610  0.7292  0.2325  1.0621
18051SOL     OW55315   3.253   4.540   3.872 -0.1138 -0.0031 -0.0656
18051SOL    HW155316   3.209   4.586   3.944 -0.7312  0.3090 -0.6245
18051SOL    HW255317   3.216   4.580   3.793 -1.1452 -1.8835 -0.5901
18052SOL     OW55318   6.220   0.262   2.284  0.4449  0.0939  0.1745
18052SOL    HW155319   6.208   0.318   2.207 -1.0281  1.0607  1.0529
18052SOL    HW255320   6.224   0.173   2.249 -1.0750  0.4356 -0.9756
18053SOL     OW55321   8.849   3.740   5.217  0.1544  0.5353 -0.4219
18053SOL    HW155322   8.912   3.671   5.235 -1.1594 -0.7738 -0.6641
18053SOL    HW255323   8.777   3.696   5.172 -1.8009  1.5706  1.4914
18054SOL     OW55324   3.705   8.484   4.708 -0.0822  0.1101 -0.3364
18054SOL    HW155325   3.699   8.398   4.751 -2.9781 -0.4636 -1.6110
18054SOL    HW255326   3.731   8.544   4.778 -1.6363 -1.2608  1.5445
18055SOL     OW55327   0.823   6.348   5.160 -0.0432  0.0578 -0.7176
18055SOL    HW155328   0.873   6.395   5.227 -0.3529 -0.9529  0.2339
18055SOL    HW255329   0.808   6.414   5.092 -0.3985  1.3359  0.5361
18056SOL     OW55330   0.388   8.376   2.125  0.3671  0.5393 -0.0164
18056SOL    HW155331   0.379   8.378   2.030  0.2845 -0.0171 -0.0237
18056SOL    HW255332   0.407   8.467   2.150  0.2469  0.7099 -0.5467
18057SOL     OW55333   5.376   4.983   3.170 -0.0807 -0.4895  0.5039
18057SOL    HW155334   5.445   5.037   3.209  0.0870  0.2009 -0.7015
18057SOL    HW255335   5.318   4.962   3.244  0.0720  0.9889  1.0886
18058SOL     OW55336   5.837   1.129   7.190  0.6948  0.1297 -0.2064
18058SOL    HW155337   5.791   1.128   7.106 -2.5397  1.4779  1.3663
18058SOL    HW255338   5.817   1.045   7.230  1.2803 -0.0531 -0.2805
18059SOL     OW55339   3.393   1.256   1.977  0.5353 -0.3031  0.6069
18059SOL    HW155340   3.396   1.340   2.022  0.8208  0.1301 -0.2210
18059SOL    HW255341   3.476   1.250   1.931 -0.4830  0.1082 -1.3839
18060SOL     OW55342   8.310   3.894   6.475 -0.3012  0.2188 -0.2474
18060SOL    HW155343   8.318   3.885   6.570 -1.5610 -1.3707 -0.2506
18060SOL    HW255344   8.375   3.960   6.452  0.9397 -0.2822  1.5587
18061SOL     OW55345   4.227   1.043   1.896 -0.1522 -0.0414 -0.0249
18061SOL    HW155346   4.269   0.968   1.854 -0.8258 -0.7979  0.6236
18061SOL    HW255347   4.195   1.010   1.980 -0.7651  0.8836  0.1330
18062SOL     OW55348   1.531   5.550   2.726 -0.4705  0.2403  0.1109
18062SOL    HW155349   1.592   5.542   2.799  0.4168 -0.7388 -0.7196
18062SOL    HW255350   1.539   5.642   2.699  0.8962  0.0537 -0.1935
18063SOL     OW55351   2.335   2.110   3.617 -0.2140  0.2230 -0.0503
18063SOL    HW155352   2.311   2.021   3.645  1.3645 -0.7123 -1.4392
18063SOL    HW255353   2.381   2.147   3.691  1.7664 -1.2973 -0.4376
18064SOL     OW55354   1.938   2.717   0.894  0.5480 -0.2338  0.0738
18064SOL    HW155355   1.875   2.652   0.925  1.2376 -1.2378 -0.5528
18064SOL    HW255356   1.920   2.725   0.800  1.4227 -0.6234 -0.1326
18065SOL     OW55357   5.804   6.808   4.959 -0.5263  0.0719 -0.3636
18065SOL    HW155358   5.713   6.778   4.970 -0.8817  0.7776 -1.2039
18065SOL    HW255359   5.833   6.829   5.048 -0.2326 -2.7512  0.2810
18066SOL     OW55360   2.150   7.510   0.235 -0.1712  0.5429 -0.0941
18066SOL    HW155361   2.105   7.545   0.158 -3.5528  0.3407  1.6027
18066SOL    HW255362   2.109   7.555   0.309  1.3743 -0.8651  1.7077
18067SOL     OW55363   3.089   1.213   8.548 -0.0374  0.0242  0.8344
18067SOL    HW155364   3.021   1.280   8.554 -0.1283  0.0820 -0.5601
18067SOL    HW255365   3.162   1.256   8.502 -0.3766 -1.0049 -0.7436
18068SOL     OW55366   5.570   1.735   1.392 -0.4917  0.6632 -0.4301
18068SOL    HW155367   5.642   1.770   1.445  1.3981  0.0301 -2.4351
18068SOL    HW255368   5.565   1.643   1.418  0.7696  0.2275 -1.6057
18069SOL     OW55369   2.472   5.774   7.097 -0.3293  0.2464  0.5427
18069SOL    HW155370   2.496   5.777   7.190  1.5989 -2.4657  0.2695
18069SOL    HW255371   2.430   5.689   7.086 -0.4045  0.4613 -1.0965
18070SOL     OW55372   4.151   3.878   1.570  0.3869 -0.0011 -0.0583
18070SOL    HW155373   4.210   3.932   1.517  0.0388 -0.9485 -1.4620
18070SOL    HW255374   4.209   3.829   1.628  0.9886 -0.7579 -1.2683
18071SOL     OW55375   4.667   7.334   8.181 -0.4223 -0.8732  0.1084
18071SOL    HW155376   4.588   7.388   8.187  0.0233 -0.2566  0.5100
18071SOL    HW255377   4.635   7.244   8.192 -1.0275 -0.6018  0.6277
18072SOL     OW55378   7.207   8.136   8.656  0.1255 -0.1410 -0.3635
18072SOL    HW155379   7.176   8.193   8.586 -0.5251  0.0086  0.0394
18072SOL    HW255380   7.287   8.097   8.621 -0.4638 -0.4711 -1.3823
18073SOL     OW55381   5.520   7.501   8.051 -0.0697  0.0566 -0.4315
18073SOL    HW155382   5.481   7.420   8.016 -0.9280 -0.1536  0.9343
18073SOL    HW255383   5.447   7.547   8.093  1.0520 -0.2933  2.1288
18074SOL     OW55384   2.838   6.962   4.800  0.4131  0.0711  0.1630
18074SOL    HW155385   2.907   7.004   4.748 -0.2948  0.4242 -0.5214
18074SOL    HW255386   2.764   6.957   4.740 -0.1983 -0.1816  0.9289
18075SOL     OW55387   2.857   2.419   5.302 -0.6606  0.0462 -0.3025
18075SOL    HW155388   2.810   2.337   5.320 -0.7052  0.1952  0.2765
18075SOL    HW255389   2.800   2.466   5.242 -0.9334 -0.0804 -0.1471
18076SOL     OW55390   7.682   2.126   3.147  0.6491  0.3251  0.0353
18076SOL    HW155391   7.662   2.157   3.235  0.8253  0.4844  0.0213
18076SOL    HW255392   7.648   2.194   3.089 -0.3749 -0.2649 -0.0674
18077SOL     OW55393   1.214   4.667   7.530  0.0275  0.2835 -0.1149
18077SOL    HW155394   1.240   4.702   7.615 -0.0612 -1.0569  0.4861
18077SOL    HW255395   1.249   4.578   7.528 -1.8874 -0.5270 -0.5036
18078SOL     OW55396   4.117   8.275   8.662  0.4908 -0.3115  0.2952
18078SOL    HW155397   4.076   8.204   8.613  0.4553  0.6964 -1.2316
18078SOL    HW255398   4.088   8.355   8.617  2.0847  0.5701  0.7351
18079SOL     OW55399   5.100   0.659   4.592 -0.4518 -0.5501  0.2049
18079SOL    HW155400   5.027   0.601   4.617 -0.9715  0.4085  0.9534
18079SOL    HW255401   5.061   0.746   4.587  0.0289 -0.3957 -2.1879
18080SOL     OW55402   5.103   8.737   0.845 -0.1978  0.0914  0.3988
18080SOL    HW155403   5.140   8.657   0.807  0.5357  0.9248 -0.7317
18080SOL    HW255404   5.055   8.778   0.773  2.3653  2.4042 -0.1952
18081SOL     OW55405   8.026   7.680   3.166 -0.0183 -0.2239  0.2649
18081SOL    HW155406   7.969   7.609   3.136 -2.8333  1.1628  1.9097
18081SOL    HW255407   8.045   7.658   3.257 -1.3338  1.2911  0.9451
18082SOL     OW55408   7.424   8.745   4.888 -0.4713  0.5959  0.0145
18082SOL    HW155409   7.345   8.755   4.940 -0.5636  0.1377 -0.0301
18082SOL    HW255410   7.483   8.813   4.920 -0.2942 -0.0648  1.1587
18083SOL     OW55411   8.176   6.784   8.635 -0.9504 -0.3029 -0.0816
18083SOL    HW155412   8.242   6.851   8.620  1.7363 -3.0647 -1.8564
18083SOL    HW255413   8.099   6.814   8.586 -0.7128  2.4124  1.0135
18084SOL     OW55414   3.393   7.957   7.869  0.1635 -0.0827 -0.0983
18084SOL    HW155415   3.461   8.020   7.846 -0.7854  0.4153 -1.6304
18084SOL    HW255416   3.332   8.007   7.923 -0.1706  0.0822 -0.6328
18085SOL     OW55417   6.393   6.812   6.898 -0.0810 -0.3905  0.2508
18085SOL    HW155418   6.457   6.793   6.967  0.0731 -0.6439  0.0392
18085SOL    HW255419   6.397   6.736   6.840  0.9330  0.5102 -0.9065
18086SOL     OW55420   6.166   2.579   0.705  0.5682  0.4162  0.3206
18086SOL    HW155421   6.114   2.649   0.743  0.4228  0.5057 -0.0419
18086SOL    HW255422   6.151   2.504   0.763 -0.4368  0.2713 -0.1143
18087SOL     OW55423   4.718   0.692   3.182 -0.3700  0.0730  0.1839
18087SOL    HW155424   4.763   0.640   3.116 -2.3321 -1.5062  0.0028
18087SOL    HW255425   4.783   0.755   3.212  1.2970 -0.7808 -1.4870
18088SOL     OW55426   2.963   8.833   5.747  0.4083 -0.0611  0.0568
18088SOL    HW155427   3.016   8.898   5.701 -0.8573  0.3921 -0.8409
18088SOL    HW255428   2.873   8.857   5.724 -0.1524 -1.0945  1.1303
18089SOL     OW55429   6.542   4.125   3.324  0.7121  0.2810  0.5817
18089SOL    HW155430   6.560   4.031   3.322  0.0137  0.0930  2.0509
18089SOL    HW255431   6.485   4.140   3.248 -0.0219 -0.6688  0.9348
18090SOL     OW55432   2.008   2.945   3.188  0.5082 -0.8181  0.0306
18090SOL    HW155433   1.928   2.998   3.180  1.4994  0.6037 -0.8919
18090SOL    HW255434   1.978   2.862   3.223 -1.3175 -0.1422  0.1767
18091SOL     OW55435   6.247   1.254   5.002  0.2881 -0.3281  0.8654
18091SOL    HW155436   6.221   1.334   4.957 -0.1395 -0.6113  0.5938
18091SOL    HW255437   6.179   1.190   4.978  0.3116 -0.6165  1.5265
18092SOL     OW55438   7.404   2.019   7.329 -0.2207  0.4917 -0.0936
18092SOL    HW155439   7.338   1.949   7.322 -1.6279  1.7547  0.1203
18092SOL    HW255440   7.395   2.050   7.419  0.5967  0.7736 -0.1055
18093SOL     OW55441   4.099   8.440   0.031  0.3017  0.0039  0.4993
18093SOL    HW155442   4.020   8.395   0.063 -0.0316  0.5977  0.5300
18093SOL    HW255443   4.116   8.402  -0.055 -0.4000  0.3168  0.2126
18094SOL     OW55444   7.794   4.305   6.445  0.4128 -0.4609  0.0974
18094SOL    HW155445   7.821   4.289   6.536 -0.8881  1.7795  0.9631
18094SOL    HW255446   7.865   4.358   6.408  0.6428 -0.8247  0.0192
18095SOL     OW55447   2.643   0.314   5.839  0.6748  0.1222 -0.0115
18095SOL    HW155448   2.667   0.226   5.811 -0.2837 -0.1302 -0.0921
18095SOL    HW255449   2.549   0.308   5.858  0.4599  1.2648 -0.6126
18096SOL     OW55450   0.746   0.113   2.138 -0.7745  0.5399  0.3310
18096SOL    HW155451   0.756   0.029   2.092 -1.3355  0.2504  0.7196
18096SOL    HW255452   0.752   0.179   2.069  0.5462  0.2354  0.1352
18097SOL     OW55453   3.023   2.091   4.829 -0.0562  0.4605 -0.1242
18097SOL    HW155454   3.000   2.047   4.910  0.9132  2.1360  1.1504
18097SOL    HW255455   3.093   2.038   4.792 -1.5252 -1.1504 -0.7129
18098SOL     OW55456   2.077   6.281   8.624 -0.3368 -0.3645 -0.3613
18098SOL    HW155457   2.018   6.216   8.585 -1.1087 -0.3802  0.7954
18098SOL    HW255458   2.076   6.261   8.717  0.4910  0.4640 -0.1673
18099SOL     OW55459   0.706   0.479   6.249 -0.2078  0.1554  0.4831
18099SOL    HW155460   0.620   0.462   6.210 -0.2227  1.9132 -0.3918
18099SOL    HW255461   0.692   0.468   6.343 -0.7271 -2.0542  0.1935
18100SOL     OW55462   2.190   8.723   0.465  0.0499 -0.3325  0.4779
18100SOL    HW155463   2.130   8.671   0.412  0.4579  0.0366 -0.3682
18100SOL    HW255464   2.136   8.756   0.537 -0.9350  0.5329 -0.6151
18101SOL     OW55465   3.848   7.064   6.311  0.0052 -0.3623 -0.0908
18101SOL    HW155466   3.802   6.991   6.355  0.1591 -0.6930 -0.4766
18101SOL    HW255467   3.938   7.034   6.304  0.0201 -0.2260 -0.4644
18102SOL     OW55468   6.366   8.642   2.262  0.0632  0.2724  0.5536
18102SOL    HW155469   6.391   8.610   2.175  2.1295 -0.8075  1.4543
18102SOL    HW255470   6.291   8.588   2.287 -0.2557  0.2777 -0.3582
18103SOL     OW55471   3.448   7.549   5.365 -0.2527 -0.3194  0.0600
18103SOL    HW155472   3.402   7.506   5.437  2.1541  1.1998  2.7201
18103SOL    HW255473   3.383   7.607   5.325 -1.9651 -2.0865  0.1000
18104SOL     OW55474   8.113   0.391   6.447  0.2485 -0.0599 -0.2444
18104SOL    HW155475   8.039   0.381   6.388  1.4102 -2.3727 -1.4446
18104SOL    HW255476   8.170   0.455   6.404 -0.5592  0.9613  0.1840
18105SOL     OW55477   0.485   6.037   2.943  0.6747 -0.0459 -0.2815
18105SOL    HW155478   0.485   6.124   2.901  0.5578 -0.5424 -1.3395
18105SOL    HW255479   0.547   6.046   3.015  0.8472  0.8566 -0.5208
18106SOL     OW55480   8.200   0.242   4.330 -0.2046  0.2879  0.9092
18106SOL    HW155481   8.178   0.255   4.422 -1.3277  0.9815  0.5617
18106SOL    HW255482   8.120   0.264   4.283  0.1203 -0.7994 -0.1967
18107SOL     OW55483   1.986   5.459   0.876  0.2533 -0.7036 -0.6846
18107SOL    HW155484   1.905   5.409   0.862  1.0263 -1.7503 -1.6144
18107SOL    HW255485   1.964   5.549   0.852 -0.6988 -0.9192 -0.6614
18108SOL     OW55486   7.274   1.433   6.269  0.5676 -0.7114  0.0668
18108SOL    HW155487   7.291   1.512   6.320  1.7343 -0.9751  0.1156
18108SOL    HW255488   7.197   1.455   6.216 -0.4160 -0.2962  1.6143
18109SOL     OW55489   2.716   2.213   6.829  0.2767  0.2259  0.0139
18109SOL    HW155490   2.647   2.162   6.788  1.7517 -1.8265 -0.0732
18109SOL    HW255491   2.682   2.233   6.917 -0.4610 -0.6794 -0.0496
18110SOL     OW55492   6.454   8.165   0.570 -0.7901  0.0524 -0.0933
18110SOL    HW155493   6.490   8.243   0.529 -0.9320 -0.0132 -0.3439
18110SOL    HW255494   6.462   8.096   0.503 -1.8046  0.1443 -0.3255
18111SOL     OW55495   1.936   5.182   6.395 -0.2156  0.1759 -0.2522
18111SOL    HW155496   2.008   5.119   6.406 -0.4147 -0.1174 -0.5681
18111SOL    HW255497   1.885   5.147   6.321 -0.6781  0.3819 -0.0385
18112SOL     OW55498   3.921   8.078   0.112 -0.2540  0.2934 -0.3670
18112SOL    HW155499   3.891   8.166   0.090  1.0851  0.9918  0.4344
18112SOL    HW255500   3.900   8.025   0.035 -1.4260  1.2202 -0.7069
18113SOL     OW55501   2.734   7.734   2.304 -0.2199 -0.8697  0.4359
18113SOL    HW155502   2.820   7.742   2.263 -0.6663 -0.4542 -0.4521
18113SOL    HW255503   2.672   7.738   2.231 -1.0569  0.2471  1.1753
18114SOL     OW55504   3.214   2.328   8.673 -0.3863  0.3760  0.2481
18114SOL    HW155505   3.276   2.386   8.716  0.0702 -0.3981  0.6525
18114SOL    HW255506   3.203   2.255   8.733 -0.3777 -0.3264 -0.5728
18115SOL     OW55507   1.836   3.294   0.593 -0.0790 -0.5976 -0.1311
18115SOL    HW155508   1.799   3.206   0.605  0.9087 -1.4169 -2.4659
18115SOL    HW255509   1.917   3.293   0.643 -0.2414 -0.9065  0.1288
18116SOL     OW55510   8.572   4.533   0.076 -0.3517  0.7375  0.0956
18116SOL    HW155511   8.606   4.483   0.001  0.4602  0.2219  0.7981
18116SOL    HW255512   8.570   4.623   0.045  0.9332  0.6761 -0.2293
18117SOL     OW55513   7.182   5.217   5.450 -0.4526  0.0861 -0.2243
18117SOL    HW155514   7.121   5.145   5.465  1.5233 -1.8521 -1.0293
18117SOL    HW255515   7.220   5.200   5.364  0.5873  1.6997 -0.1352
18118SOL     OW55516   1.455   4.456   0.591 -0.1538  0.0422 -0.4678
18118SOL    HW155517   1.469   4.459   0.685  0.0771 -1.7763 -0.4055
18118SOL    HW255518   1.407   4.536   0.571  2.4928  2.0613  0.6960
18119SOL     OW55519   8.610   5.049   7.399  0.4726 -0.3878 -0.2645
18119SOL    HW155520   8.540   4.985   7.388  2.0606 -2.7755  2.1356
18119SOL    HW255521   8.663   5.041   7.320  0.2083 -1.4862 -0.3399
18120SOL     OW55522   4.324   0.285   7.638 -0.2411  0.0673  0.4141
18120SOL    HW155523   4.240   0.306   7.596  0.0010 -0.3675 -0.2968
18120SOL    HW255524   4.377   0.248   7.568  0.6162  0.5079  0.8227
18121SOL     OW55525   8.483   2.899   6.173 -0.2419  0.6381 -0.0800
18121SOL    HW155526   8.569   2.863   6.154  0.2517  1.1064  1.1701
18121SOL    HW255527   8.440   2.907   6.088  1.0840  0.7452 -0.7496
18122SOL     OW55528   3.559   7.042   2.957 -0.1613  0.7245 -0.6023
18122SOL    HW155529   3.592   6.968   3.009 -1.4938 -1.1282 -2.2439
18122SOL    HW255530   3.549   7.113   3.020  2.3947 -0.0545  0.8116
18123SOL     OW55531   2.848   2.355   7.292  0.7208  0.1460 -0.2169
18123SOL    HW155532   2.894   2.437   7.275 -0.0834  0.9088  1.0739
18123SOL    HW255533   2.894   2.316   7.366  0.0978  0.2881  0.2607
18124SOL     OW55534   4.679   1.931   7.282  0.0024 -0.5779  0.2605
18124SOL    HW155535   4.712   2.004   7.334  1.1478 -1.4347  0.7844
18124SOL    HW255536   4.619   1.884   7.340 -1.0716  0.1698 -0.2192
18125SOL     OW55537   1.635   0.460   8.213 -0.3355  0.5300  0.8072
18125SOL    HW155538   1.693   0.397   8.256 -1.2368 -0.0862  1.1504
18125SOL    HW255539   1.575   0.489   8.283 -1.5323 -0.1472  0.0930
18126SOL     OW55540   3.225   2.086   3.667 -0.0728 -0.1319  0.0549
18126SOL    HW155541   3.201   2.178   3.675 -0.7260 -0.2864 -0.0588
18126SOL    HW255542   3.230   2.071   3.572 -0.4043 -0.3223  0.0674
18127SOL     OW55543   6.129   3.802   1.737  0.2425  0.0366  0.0047
18127SOL    HW155544   6.065   3.801   1.666 -0.0578  0.7465  0.2613
18127SOL    HW255545   6.085   3.755   1.808  1.2033 -2.2367 -0.8173
18128SOL     OW55546   4.147   3.191   4.280 -0.6794  0.2177 -0.6027
18128SOL    HW155547   4.053   3.182   4.260 -1.0157 -0.0977  0.9751
18128SOL    HW255548   4.150   3.250   4.355  0.3910  0.2331 -0.6452
18129SOL     OW55549   6.833   2.261   2.552  0.0776 -0.3211  0.5892
18129SOL    HW155550   6.742   2.247   2.526  0.0087 -2.1307  1.6366
18129SOL    HW255551   6.855   2.348   2.519 -1.7778 -0.1848 -0.3677
18130SOL     OW55552   7.224   4.463   4.003  0.3002  0.5273 -0.3408
18130SOL    HW155553   7.175   4.475   3.922  1.0283  0.9048 -0.7274
18130SOL    HW255554   7.300   4.410   3.978 -0.9769 -1.9398  0.6505
18131SOL     OW55555   4.519   6.385   1.295  0.1563 -0.2594  0.0998
18131SOL    HW155556   4.478   6.304   1.265 -1.6300  0.4605  0.4967
18131SOL    HW255557   4.528   6.438   1.216  0.2849 -0.3899  0.0252
18132SOL     OW55558   4.801   2.460   0.787 -0.5060 -0.2156  0.1169
18132SOL    HW155559   4.737   2.391   0.772  0.7886 -1.3627 -0.2611
18132SOL    HW255560   4.873   2.440   0.727 -0.3075  1.7562 -0.3868
18133SOL     OW55561   1.465   1.794   0.321 -0.1058 -0.1039 -0.2309
18133SOL    HW155562   1.499   1.720   0.369  0.6361  1.0282  1.0535
18133SOL    HW255563   1.506   1.871   0.361 -2.8975  1.2343  0.3451
18134SOL     OW55564   4.398   0.975   1.571  0.5083 -0.2013  0.6302
18134SOL    HW155565   4.483   0.935   1.592  0.4000  0.5553  2.8122
18134SOL    HW255566   4.419   1.043   1.507  1.3541 -0.8101  0.2315
18135SOL     OW55567   8.532   2.089   7.151  0.5531 -0.4315  0.0655
18135SOL    HW155568   8.476   2.146   7.203  0.9296  0.4107 -0.4450
18135SOL    HW255569   8.548   2.137   7.070  2.1713 -0.5745  0.2650
18136SOL     OW55570   5.867   7.616   2.052  0.7297  0.4797 -0.1040
18136SOL    HW155571   5.909   7.531   2.063  0.0639  0.3665  2.0768
18136SOL    HW255572   5.775   7.596   2.034  0.5215  0.7160  0.6589
18137SOL     OW55573   4.083   0.303   4.845 -0.3640  0.3686 -0.0365
18137SOL    HW155574   4.164   0.274   4.803 -0.4614 -0.1705  0.1470
18137SOL    HW255575   4.077   0.396   4.823  1.4131  0.9659  1.7325
18138SOL     OW55576   4.999   1.644   8.637  0.8866  0.2843  0.1409
18138SOL    HW155577   4.925   1.705   8.642 -0.3241 -0.8827 -1.8516
18138SOL    HW255578   5.064   1.690   8.584  0.5236  0.3663 -0.2453
18139SOL     OW55579   5.988   3.317   3.329  0.4016  0.1513  0.1992
18139SOL    HW155580   5.944   3.309   3.245  1.0744  0.1383 -0.1563
18139SOL    HW255581   6.062   3.375   3.313 -0.1771  1.1770  1.0734
18140SOL     OW55582   1.099   6.494   8.484  0.3280  0.6193  0.3173
18140SOL    HW155583   1.031   6.526   8.425  0.7015  1.6532  0.4167
18140SOL    HW255584   1.152   6.435   8.431  0.4440  1.2531 -0.2760
18141SOL     OW55585   4.366   0.351   8.577 -0.0465 -0.4899 -0.0971
18141SOL    HW155586   4.271   0.361   8.571  0.1432  1.2417 -0.7827
18141SOL    HW255587   4.383   0.343   8.670 -0.7498  0.7455  0.1559
18142SOL     OW55588   7.813   7.876   6.612 -0.2280  0.1747  0.3213
18142SOL    HW155589   7.772   7.880   6.698 -2.1052 -0.1563 -0.4937
18142SOL    HW255590   7.873   7.950   6.610 -0.0889  0.1332  1.9281
18143SOL     OW55591   5.977   1.902   2.862  0.2775  0.0592  0.2989
18143SOL    HW155592   5.960   1.950   2.943  1.3607 -0.5883  0.9341
18143SOL    HW255593   5.908   1.930   2.802 -0.5231  0.5764  1.4364
18144SOL     OW55594   6.742   1.137   1.130 -0.1521  0.0455  0.0046
18144SOL    HW155595   6.806   1.190   1.082 -0.9503  0.9358 -0.0989
18144SOL    HW255596   6.755   1.160   1.222  0.6951 -0.9151  0.1454
18145SOL     OW55597   3.135   3.626   1.881  0.4258 -0.0317 -0.4453
18145SOL    HW155598   3.160   3.628   1.789  3.7608  0.5229  0.3270
18145SOL    HW255599   3.189   3.693   1.922 -2.6246  1.3521  1.6396
18146SOL     OW55600   8.393   8.819   6.470  0.7635  0.0092  0.2858
18146SOL    HW155601   8.369   8.729   6.489 -3.3848  0.3984 -1.9527
18146SOL    HW255602   8.343   8.871   6.532 -0.3466  0.8071 -1.2151
18147SOL     OW55603   6.962   6.646   8.218  0.2374 -0.0423  0.6113
18147SOL    HW155604   7.013   6.605   8.288 -1.3648 -0.4142  1.6174
18147SOL    HW255605   6.963   6.582   8.147  2.4573  0.6265 -0.0350
18148SOL     OW55606   7.602   2.178   7.937  0.5148  0.5034 -0.4727
18148SOL    HW155607   7.686   2.138   7.914  0.4399  0.7639 -1.2044
18148SOL    HW255608   7.590   2.154   8.029  1.2867  0.2846 -0.4148
18149SOL     OW55609   1.570   6.607   5.477  0.0402 -0.2233 -0.1563
18149SOL    HW155610   1.505   6.670   5.445  1.2022  0.7533 -0.6909
18149SOL    HW255611   1.583   6.631   5.569 -0.1891 -0.2912 -0.1036
18150SOL     OW55612   8.169   8.455   1.700  0.9408  0.3359  0.5928
18150SOL    HW155613   8.214   8.458   1.785 -1.1605  0.3636  1.7912
18150SOL    HW255614   8.137   8.544   1.686 -0.8249 -0.1708  1.0544
18151SOL     OW55615   8.062   1.451   8.699 -0.2251 -1.1462 -0.2326
18151SOL    HW155616   8.063   1.375   8.757 -0.4701 -0.3057  0.9168
18151SOL    HW255617   8.007   1.515   8.745  1.4040  0.3759 -0.2773
18152SOL     OW55618   8.285   2.368   1.984 -0.2853  0.1312 -0.1607
18152SOL    HW155619   8.364   2.352   2.036  0.4835 -0.2648 -1.3914
18152SOL    HW255620   8.297   2.458   1.951  1.0118 -0.8003 -2.4925
18153SOL     OW55621   4.159   1.517   7.508  0.1692 -0.6615 -0.2901
18153SOL    HW155622   4.131   1.572   7.435  0.9409  0.7601  0.4530
18153SOL    HW255623   4.087   1.521   7.570 -0.2472 -1.4201 -0.7038
18154SOL     OW55624   0.938   2.647   0.277  0.3378 -0.8081 -0.0132
18154SOL    HW155625   0.869   2.604   0.227 -0.6044 -1.3981  1.7005
18154SOL    HW255626   1.005   2.580   0.288  0.2676 -0.8698  0.0386
18155SOL     OW55627   7.814   5.435   1.552 -0.5216  0.1923 -0.4471
18155SOL    HW155628   7.871   5.413   1.478  0.5483  1.0915  0.0834
18155SOL    HW255629   7.725   5.416   1.521  0.0233 -0.8488 -1.4339
18156SOL     OW55630   6.024   4.122   1.002  0.4740  0.1661  0.3427
18156SOL    HW155631   6.039   4.199   1.056 -2.6623  1.2030 -0.0714
18156SOL    HW255632   6.085   4.131   0.929  0.9756  1.6245  0.9223
18157SOL     OW55633   2.511   3.568   1.349 -0.1256 -0.3856 -0.4792
18157SOL    HW155634   2.535   3.641   1.406  0.5968 -0.9884  0.0052
18157SOL    HW255635   2.447   3.605   1.289 -0.3490  0.4530  0.2529
18158SOL     OW55636   4.900   4.611   1.125  0.7521  0.3298 -0.4614
18158SOL    HW155637   4.959   4.605   1.050  1.2553  2.6609 -0.3361
18158SOL    HW255638   4.868   4.522   1.138  1.3525 -0.3049 -2.8588
18159SOL     OW55639   0.216   4.764   0.563  0.0131  0.0653  0.2032
18159SOL    HW155640   0.202   4.726   0.650 -0.2046 -1.9460 -0.6604
18159SOL    HW255641   0.146   4.828   0.554 -0.2084  0.0114  1.3592
18160SOL     OW55642   4.033   3.448   4.673  0.8870  0.4981 -0.0307
18160SOL    HW155643   4.023   3.543   4.664  0.2802  0.4667  0.3196
18160SOL    HW255644   4.032   3.432   4.768  1.2123  0.1658 -0.0806
18161SOL     OW55645   4.323   0.277   3.316  0.3294 -0.0633 -0.0965
18161SOL    HW155646   4.328   0.359   3.267 -0.5334  1.8756  2.8183
18161SOL    HW255647   4.407   0.271   3.361 -0.1223 -0.0628  0.7543
18162SOL     OW55648   2.430   5.318   5.332  0.1059  0.1186  0.1697
18162SOL    HW155649   2.466   5.246   5.280  0.0750  0.4388 -0.2946
18162SOL    HW255650   2.347   5.340   5.289  0.1269  0.4497  0.2955
18163SOL     OW55651   6.108   2.659   5.584  0.4716  0.3018  0.1435
18163SOL    HW155652   6.044   2.658   5.656  0.2369  0.4637 -0.0598
18163SOL    HW255653   6.121   2.752   5.565 -2.2720  0.3214 -2.4708
18164SOL     OW55654   2.223   7.975   0.250  0.0099 -0.4054  0.0357
18164SOL    HW155655   2.169   7.896   0.261  1.3811 -1.5279 -0.8444
18164SOL    HW255656   2.176   8.028   0.187 -1.2077 -0.2478  1.0462
18165SOL     OW55657   4.929   8.425   0.943  0.3038  0.4446  0.3996
18165SOL    HW155658   5.025   8.423   0.944  0.3994 -3.2942 -0.6983
18165SOL    HW255659   4.906   8.451   0.854  0.2988  0.7753  0.4964
18166SOL     OW55660   6.462   0.983   3.752 -0.1078  0.0383 -0.4053
18166SOL    HW155661   6.487   0.973   3.661  2.7249  0.6187  0.2019
18166SOL    HW255662   6.422   1.070   3.757  1.1993  0.6909 -0.8680
18167SOL     OW55663   0.271   5.487   3.804  0.2401  0.3779 -0.1383
18167SOL    HW155664   0.294   5.536   3.725  0.2026 -1.2602 -1.1997
18167SOL    HW255665   0.233   5.553   3.862  0.1811  1.6161 -1.5157
18168SOL     OW55666   2.093   2.482   4.813 -0.2877 -0.5786 -0.6544
18168SOL    HW155667   2.013   2.447   4.851 -0.7696 -0.6228 -1.6895
18168SOL    HW255668   2.090   2.456   4.721  1.2374 -1.1394 -0.5714
18169SOL     OW55669   1.697   2.333   2.499  0.1290  0.2475 -0.4776
18169SOL    HW155670   1.644   2.282   2.439  1.7210 -2.1327  0.0009
18169SOL    HW255671   1.707   2.277   2.576  0.3869  2.0981  0.9194
18170SOL     OW55672   6.880   7.472   4.480  0.0132  0.2948 -0.2671
18170SOL    HW155673   6.925   7.417   4.415  0.8975 -0.1758  0.6988
18170SOL    HW255674   6.787   7.462   4.460  0.2949  1.4018 -2.4131
18171SOL     OW55675   8.710   1.856   0.987  0.5448  0.5612  0.2817
18171SOL    HW155676   8.769   1.789   0.954  1.0176  1.0897  0.0306
18171SOL    HW255677   8.640   1.808   1.031 -0.8586 -0.3024 -2.6150
18172SOL     OW55678   0.024   6.205   8.225  0.4319  0.2816 -0.4647
18172SOL    HW155679  -0.004   6.285   8.270  0.9213 -0.1281  0.5831
18172SOL    HW255680  -0.055   6.174   8.180  0.0707  0.9924 -0.3378
18173SOL     OW55681   0.897   0.183   5.336 -0.7111  0.4933  0.5944
18173SOL    HW155682   0.954   0.210   5.264 -1.3511  0.6082  0.1237
18173SOL    HW255683   0.896   0.259   5.394  0.3895  0.1355  1.1063
18174SOL     OW55684   5.574   4.388   3.741  0.1266  0.3696 -0.1267
18174SOL    HW155685   5.591   4.376   3.648 -0.1964  2.1613 -0.4417
18174SOL    HW255686   5.659   4.378   3.783  0.3500  0.0236 -0.6545
18175SOL     OW55687   7.989   0.645   2.757 -0.0284 -0.2123 -0.1163
18175SOL    HW155688   8.021   0.600   2.679 -1.2021 -2.1127  0.4365
18175SOL    HW255689   7.945   0.723   2.724 -1.1762 -1.3701 -1.4495
18176SOL     OW55690   3.784   8.296   5.273  0.3808  0.2722 -0.0694
18176SOL    HW155691   3.765   8.203   5.261 -1.5558  0.7969 -1.8171
18176SOL    HW255692   3.876   8.299   5.299  0.4093 -2.1232  0.3463
18177SOL     OW55693   3.449   0.865   4.820 -0.3936  0.3124 -0.4296
18177SOL    HW155694   3.482   0.775   4.816  0.4980  0.3284  3.0933
18177SOL    HW255695   3.420   0.884   4.731 -0.7708 -3.4952 -1.2968
18178SOL     OW55696   4.608   2.114   5.599 -0.4441  0.2438 -0.1926
18178SOL    HW155697   4.662   2.053   5.549  0.7740 -0.0392  1.3937
18178SOL    HW255698   4.665   2.145   5.669 -1.8209  1.2913  0.5115
18179SOL     OW55699   0.988   6.522   0.010  0.4117  0.1756 -0.1153
18179SOL    HW155700   0.950   6.610   0.008  0.7481  0.3386  0.5718
18179SOL    HW255701   0.913   6.463   0.004  0.0059  0.4943  1.4992
18180SOL     OW55702   2.079   0.386   7.200  0.4497  0.0064 -0.4874
18180SOL    HW155703   2.100   0.308   7.148  0.3853  1.5099 -2.9146
18180SOL    HW255704   2.161   0.409   7.243  0.4963 -1.3030  0.1868
18181SOL     OW55705   4.692   2.230   1.085  0.3485  0.2023 -0.3506
18181SOL    HW155706   4.602   2.248   1.060  0.6940  0.7054 -1.2819
18181SOL    HW255707   4.722   2.164   1.023  0.6685  0.1347 -0.1288
18182SOL     OW55708   0.873   5.093   6.941 -0.5035 -0.4680 -0.5745
18182SOL    HW155709   0.843   5.179   6.970 -0.1793 -0.8540  1.0137
18182SOL    HW255710   0.850   5.089   6.848 -0.8415  1.1809 -0.5856
18183SOL     OW55711   7.439   3.477   1.968 -0.0097  0.4809 -1.2678
18183SOL    HW155712   7.490   3.554   1.943  0.1202  0.6389 -0.5519
18183SOL    HW255713   7.451   3.471   2.063  1.3602 -1.3977 -1.5047
18184SOL     OW55714   2.375   3.827   3.113 -0.1154 -0.1593  0.6691
18184SOL    HW155715   2.412   3.914   3.126  0.2674 -0.5247  2.3296
18184SOL    HW255716   2.296   3.842   3.061  0.3754  1.0678  0.2412
18185SOL     OW55717   8.230   6.127   0.437  0.0903 -0.8528 -0.1521
18185SOL    HW155718   8.235   6.162   0.526 -0.0857 -3.5308  1.0289
18185SOL    HW255719   8.320   6.104   0.415  0.4221  1.4247 -1.4770
18186SOL     OW55720   2.470   5.831   7.895 -0.3075 -0.3777  0.0030
18186SOL    HW155721   2.392   5.875   7.859  0.5259  1.0276 -0.1566
18186SOL    HW255722   2.541   5.894   7.883  1.0936 -2.0109 -0.7869
18187SOL     OW55723   4.942   5.722   6.440 -0.0380  0.1759 -0.5637
18187SOL    HW155724   4.962   5.805   6.398  1.5102 -1.1639 -2.6410
18187SOL    HW255725   5.027   5.679   6.450 -1.0210 -2.2795 -2.0762
18188SOL     OW55726   8.813   7.363   3.839  0.6565 -0.1455 -0.1515
18188SOL    HW155727   8.757   7.286   3.832 -0.6873  0.9350 -2.9590
18188SOL    HW255728   8.817   7.382   3.933 -3.7743 -0.2675  0.2567
18189SOL     OW55729   5.362   1.193   7.209  0.0478  0.1266 -0.0916
18189SOL    HW155730   5.376   1.099   7.206 -1.8208 -0.2512  1.2757
18189SOL    HW255731   5.449   1.231   7.218  0.7865 -1.4881 -0.2264
18190SOL     OW55732   6.172   1.626   5.718 -0.1665  0.1397 -0.0534
18190SOL    HW155733   6.139   1.539   5.697 -0.9739 -0.0287  1.7296
18190SOL    HW255734   6.115   1.686   5.669  0.4551 -0.3122 -1.3629
18191SOL     OW55735   5.852   2.246   6.800  0.0421 -0.3249  0.0750
18191SOL    HW155736   5.825   2.170   6.852 -1.6769 -0.1434 -0.4838
18191SOL    HW255737   5.833   2.221   6.710  0.3518  0.4243 -0.2036
18192SOL     OW55738   5.957   4.956   6.355 -0.1626 -0.2915  0.0755
18192SOL    HW155739   5.930   5.017   6.423 -0.7970  0.7097 -1.0418
18192SOL    HW255740   5.930   4.997   6.273  1.1961 -1.1345 -0.8442
18193SOL     OW55741   1.917   5.193   0.422 -0.3857  0.0718 -0.1158
18193SOL    HW155742   1.986   5.245   0.464  0.6356 -0.4807 -1.0493
18193SOL    HW255743   1.898   5.124   0.485  0.2065 -0.0005 -0.0075
18194SOL     OW55744   4.452   2.512   0.902  0.1673  0.2639  0.7999
18194SOL    HW155745   4.524   2.564   0.866  0.8398  0.4476  2.3335
18194SOL    HW255746   4.375   2.567   0.893 -0.0700 -0.3955 -1.9602
18195SOL     OW55747   6.015   7.077   0.328 -0.0297 -0.2620  0.0098
18195SOL    HW155748   5.986   7.008   0.387 -0.0473  0.9961  1.5549
18195SOL    HW255749   6.005   7.158   0.379 -0.5506  0.9670 -1.9090
18196SOL     OW55750   5.686   5.779   0.765  0.1757  0.5209 -0.2096
18196SOL    HW155751   5.699   5.811   0.854  1.2793 -0.0595 -0.1393
18196SOL    HW255752   5.602   5.816   0.737 -0.9722 -0.5672  1.6308
18197SOL     OW55753   2.535   4.087   6.796  0.1451  0.4353  0.4292
18197SOL    HW155754   2.551   3.997   6.825 -0.1554  0.5299  0.9053
18197SOL    HW255755   2.440   4.095   6.793  0.1080 -0.1054 -2.3062
18198SOL     OW55756   8.133   8.531   0.018 -0.1859  0.1946 -0.0657
18198SOL    HW155757   8.107   8.579   0.096  0.4258 -2.0153  1.6061
18198SOL    HW255758   8.054   8.486  -0.011  0.1368 -1.0899  0.9347
18199SOL     OW55759   2.904   3.449   2.542  0.3230 -0.7031 -0.3380
18199SOL    HW155760   2.881   3.531   2.585  1.3093  0.0343 -1.1741
18199SOL    HW255761   2.976   3.414   2.593  0.0607 -0.9314 -0.1226
18200SOL     OW55762   1.009   1.185   2.599  0.2517  0.1374 -0.3831
18200SOL    HW155763   1.013   1.137   2.682 -0.3732 -0.2322 -0.5651
18200SOL    HW255764   1.000   1.118   2.532  1.3892  0.3887 -0.8253
18201SOL     OW55765   1.308   4.606   4.454 -0.1622  0.0990 -0.4621
18201SOL    HW155766   1.225   4.621   4.499 -0.3893 -2.1245 -0.0336
18201SOL    HW255767   1.332   4.516   4.475  0.9111 -0.2900 -2.9001
18202SOL     OW55768   5.742   8.584   4.506 -0.3884 -0.0695 -0.0396
18202SOL    HW155769   5.809   8.569   4.439 -2.4035 -0.4244 -2.1350
18202SOL    HW255770   5.765   8.668   4.545  3.2156 -1.7677  1.9117
18203SOL     OW55771   6.759   7.530   5.185 -0.0997 -0.3714  0.2651
18203SOL    HW155772   6.690   7.465   5.199  0.5068 -1.1458 -0.2335
18203SOL    HW255773   6.785   7.518   5.094  0.5165  0.0859  0.3727
18204SOL     OW55774   4.406   6.070   5.694 -0.2159  0.4055  0.7411
18204SOL    HW155775   4.492   6.035   5.670 -0.5661 -1.1965  1.6536
18204SOL    HW255776   4.423   6.158   5.726  0.9970  0.3433  0.3036
18205SOL     OW55777   3.645   4.674   1.369 -0.2181  0.2896 -0.3705
18205SOL    HW155778   3.652   4.598   1.311  1.4676  0.9564 -1.0894
18205SOL    HW255779   3.574   4.726   1.331 -1.9667 -1.2569  0.6030
18206SOL     OW55780   7.493   1.383   6.807  0.0444  0.1819  0.1068
18206SOL    HW155781   7.529   1.350   6.724  0.7801 -0.9278  0.8431
18206SOL    HW255782   7.402   1.404   6.785  0.5791  1.1970 -1.3032
18207SOL     OW55783   1.485   8.489   1.556  0.6299  0.7100  0.2748
18207SOL    HW155784   1.466   8.564   1.612  2.5337  0.6530  1.0785
18207SOL    HW255785   1.559   8.446   1.598 -0.6217 -1.8696  0.0208
18208SOL     OW55786   1.028   0.490   7.952  0.4665  0.3479 -0.4564
18208SOL    HW155787   1.097   0.554   7.969  0.5783  0.0359  0.3106
18208SOL    HW255788   1.072   0.418   7.909  0.2607  0.9615 -1.7325
18209SOL     OW55789   6.964   5.765   0.905  0.0391  0.0099 -0.7696
18209SOL    HW155790   6.965   5.817   0.824  4.8444  3.1909  0.8697
18209SOL    HW255791   6.941   5.828   0.973  2.0294 -0.9164  0.8750
18210SOL     OW55792   0.099   8.582   8.627 -0.0833  0.2763  0.2922
18210SOL    HW155793   0.077   8.670   8.659 -1.8266 -0.2482  0.6273
18210SOL    HW255794   0.014   8.542   8.606  0.7882 -0.6748 -1.6320
18211SOL     OW55795   8.338   1.867   5.963 -0.0338 -0.4393  0.2211
18211SOL    HW155796   8.324   1.780   5.926 -0.0479 -0.1398 -0.4963
18211SOL    HW255797   8.339   1.853   6.058 -2.0978 -0.9231  0.2087
18212SOL     OW55798   8.271   6.665   6.061 -0.3728  0.3877 -0.9204
18212SOL    HW155799   8.284   6.712   6.143 -0.2506  0.1374 -0.7967
18212SOL    HW255800   8.322   6.715   5.997  0.3612  0.0062 -0.6449
18213SOL     OW55801   2.757   8.119   8.557 -0.2037 -0.4302 -0.5050
18213SOL    HW155802   2.806   8.163   8.488  1.2209  0.0135  0.7268
18213SOL    HW255803   2.722   8.190   8.610 -1.3792 -0.7632 -0.8018
18214SOL     OW55804   5.249   6.232   8.481  0.0606  0.1276 -0.1730
18214SOL    HW155805   5.333   6.214   8.523 -0.8537 -0.4391  1.5050
18214SOL    HW255806   5.271   6.249   8.389  2.2270  2.0867  0.6197
18215SOL     OW55807   4.338   7.852   4.863  0.3183 -0.0864  0.0278
18215SOL    HW155808   4.297   7.834   4.778 -0.1272 -1.4724  0.5210
18215SOL    HW255809   4.398   7.779   4.877  0.6027  0.2784  0.7939
18216SOL     OW55810   5.569   3.689   3.141 -0.3641 -0.1300 -0.0493
18216SOL    HW155811   5.637   3.694   3.209  1.0660 -0.5481 -1.3931
18216SOL    HW255812   5.618   3.687   3.059 -2.0726  0.7848 -1.1326
18217SOL     OW55813   1.988   4.157   4.960  0.2734  0.8730 -0.2665
18217SOL    HW155814   1.990   4.105   4.879  1.5621  1.1333 -0.4244
18217SOL    HW255815   1.932   4.231   4.939 -0.3808  0.3173 -0.5201
18218SOL     OW55816   3.657   1.895   4.513  0.0578 -0.2522 -0.0975
18218SOL    HW155817   3.671   1.988   4.530 -0.4873 -0.4972  2.0197
18218SOL    HW255818   3.744   1.861   4.491  0.5276  0.5051  0.5311
18219SOL     OW55819   2.607   8.198   2.487  0.2153  0.3508 -0.3166
18219SOL    HW155820   2.658   8.118   2.501  2.3277  1.8902  1.8954
18219SOL    HW255821   2.522   8.180   2.527  0.3659 -1.0046 -0.5517
18220SOL     OW55822   3.480   7.758   6.381  0.6751 -0.1495 -0.2963
18220SOL    HW155823   3.407   7.712   6.424  0.8625 -1.7942 -1.6370
18220SOL    HW255824   3.446   7.783   6.295  1.5121 -0.4292 -0.7204
18221SOL     OW55825   2.666   6.086   8.204  0.8252 -0.2359 -0.3788
18221SOL    HW155826   2.682   6.175   8.170  1.0359  0.1389  0.6766
18221SOL    HW255827   2.654   6.098   8.298  0.6647 -1.3144 -0.2514
18222SOL     OW55828   6.070   5.778   8.029 -0.3528  0.1415 -0.0823
18222SOL    HW155829   6.068   5.700   8.084 -0.5193 -0.3874 -0.8088
18222SOL    HW255830   6.056   5.744   7.940  0.1014  0.9475 -0.4694
18223SOL     OW55831   2.697   7.327   6.934  0.4001 -0.2014  0.3895
18223SOL    HW155832   2.770   7.267   6.921 -0.1987 -0.7897 -0.3265
18223SOL    HW255833   2.699   7.384   6.858  0.5243  0.2276  0.7094
18224SOL     OW55834   4.834   8.072   0.720 -0.6634 -0.1153 -0.0325
18224SOL    HW155835   4.781   7.993   0.710 -0.8860 -0.7409  4.1716
18224SOL    HW255836   4.912   8.043   0.768  0.2776  1.9201 -0.2022
18225SOL     OW55837   6.604   0.178   0.161 -0.1318 -0.4780  0.3692
18225SOL    HW155838   6.643   0.146   0.079 -1.7457 -0.3932 -0.4814
18225SOL    HW255839   6.512   0.193   0.139 -0.5537 -0.2303  2.1585
18226SOL     OW55840   3.898   7.985   3.615  0.3614  0.1577 -0.5649
18226SOL    HW155841   3.827   7.930   3.583  0.6219 -0.7091  0.2909
18226SOL    HW255842   3.903   7.965   3.709 -0.0071  2.1774 -0.0669
18227SOL     OW55843   5.048   7.205   0.505  0.3857 -0.2315 -0.4190
18227SOL    HW155844   5.074   7.269   0.572 -0.2644  0.5989 -0.9411
18227SOL    HW255845   4.973   7.245   0.462 -0.1068 -1.4078 -0.6919
18228SOL     OW55846   3.261   7.832   5.120 -0.0877  0.0959 -0.6247
18228SOL    HW155847   3.237   7.750   5.076 -0.4620  0.1997 -0.6194
18228SOL    HW255848   3.185   7.888   5.108  0.6124  0.8804 -1.6841
18229SOL     OW55849   2.002   6.417   8.162  0.1049 -0.0378 -0.2670
18229SOL    HW155850   1.954   6.334   8.164  0.7351 -0.3971 -0.0516
18229SOL    HW255851   2.025   6.430   8.070  2.5216 -1.5629  0.0590
18230SOL     OW55852   5.524   3.116   0.604  0.1620 -0.3640 -0.1609
18230SOL    HW155853   5.464   3.079   0.669  1.6455 -1.8614  0.4135
18230SOL    HW255854   5.518   3.056   0.530 -1.4893  1.3108 -1.4856
18231SOL     OW55855   2.632   3.926   0.821 -0.7887  0.4122 -0.2436
18231SOL    HW155856   2.684   4.001   0.847  0.6871 -0.5133 -0.4452
18231SOL    HW255857   2.541   3.958   0.823 -0.2554  1.9641  0.3871
18232SOL     OW55858   6.730   7.057   8.359  0.2557  0.1368  0.1762
18232SOL    HW155859   6.789   7.027   8.290  0.3406  0.7569 -0.0241
18232SOL    HW255860   6.696   7.140   8.328 -1.9173 -0.8908 -0.4095
18233SOL     OW55861   7.868   7.810   7.552  0.1381  0.0677  0.5490
18233SOL    HW155862   7.876   7.717   7.573 -0.5986 -0.7144 -2.2846
18233SOL    HW255863   7.774   7.827   7.554  0.1301  0.2646 -0.6939
18234SOL     OW55864   5.062   3.783   5.381  0.6038  0.5021  0.2160
18234SOL    HW155865   5.053   3.837   5.459 -0.7636 -0.2149  0.5933
18234SOL    HW255866   4.984   3.803   5.329 -0.5835 -1.8951  0.9138
18235SOL     OW55867   8.327   4.557   4.946 -0.5131  0.4650 -0.5682
18235SOL    HW155868   8.325   4.633   4.887  0.1784  0.8104 -0.1646
18235SOL    HW255869   8.421   4.544   4.964 -0.6192 -0.5396 -0.6995
18236SOL     OW55870   5.988   7.837   4.707  1.1304 -0.0986 -0.1394
18236SOL    HW155871   6.039   7.838   4.626  0.2376 -0.8827 -0.7290
18236SOL    HW255872   6.032   7.900   4.764  1.1667  1.2831 -1.6114
18237SOL     OW55873   0.282   8.462   4.720  0.0731  0.0918  0.3343
18237SOL    HW155874   0.232   8.503   4.790  1.0606  2.3521 -0.2257
18237SOL    HW255875   0.215   8.435   4.657 -0.5878  1.3496  0.4649
18238SOL     OW55876   0.734   7.034   2.560  0.3588 -0.4813  0.0263
18238SOL    HW155877   0.661   7.094   2.542 -0.3793 -1.3907 -0.0662
18238SOL    HW255878   0.807   7.069   2.508  0.3095  1.0229  0.9010
18239SOL     OW55879   4.972   3.629   0.709  0.0582  0.2748 -0.0257
18239SOL    HW155880   4.886   3.632   0.667  1.0072  1.4986 -2.0071
18239SOL    HW255881   4.953   3.641   0.802 -1.9637 -0.3285 -0.3103
18240SOL     OW55882   1.378   5.601   4.112  0.3106 -0.0938 -0.4351
18240SOL    HW155883   1.432   5.569   4.185  1.4974  0.9106 -0.8334
18240SOL    HW255884   1.307   5.649   4.153  0.5864 -0.1220  0.0803
18241SOL     OW55885   6.064   3.286   5.439 -0.1120  0.8782 -0.4208
18241SOL    HW155886   6.150   3.269   5.401  0.5480  1.5167  0.7262
18241SOL    HW255887   6.078   3.284   5.533 -1.0640  2.3193 -0.2104
18242SOL     OW55888   1.730   7.054   5.653 -0.1346 -0.0044  0.0057
18242SOL    HW155889   1.755   6.976   5.602  0.4011  0.0068  0.2382
18242SOL    HW255890   1.757   7.128   5.598 -1.8669  0.0570 -0.8241
18243SOL     OW55891   2.426   3.754   8.856  0.2566  0.3107  0.1556
18243SOL    HW155892   2.433   3.689   8.926  0.8509  0.6923  0.4677
18243SOL    HW255893   2.334   3.777   8.853 -0.3375 -1.9908 -1.3054
18244SOL     OW55894   7.047   3.469   7.000 -0.0483 -0.1316  0.7169
18244SOL    HW155895   6.971   3.421   7.032 -0.0506  0.6392  1.9025
18244SOL    HW255896   7.016   3.559   6.988 -0.5405 -0.6355 -3.1721
18245SOL     OW55897   7.591   0.242   1.394  0.0239  0.2770  0.2663
18245SOL    HW155898   7.601   0.161   1.344  0.7926  0.5345 -0.0178
18245SOL    HW255899   7.678   0.283   1.391 -0.5974  1.6312 -0.4956
18246SOL     OW55900   8.632   6.304   6.470  0.5256  0.1688 -0.2502
18246SOL    HW155901   8.702   6.257   6.423  1.0353  0.8974 -0.2447
18246SOL    HW255902   8.556   6.246   6.463  0.5686  0.2728 -2.0276
18247SOL     OW55903   1.012   6.015   4.064 -0.3623  0.3166 -0.1069
18247SOL    HW155904   1.043   5.929   4.036  0.1864  0.7755 -0.9320
18247SOL    HW255905   0.967   6.051   3.987  0.3602  1.2108 -0.1317
18248SOL     OW55906   5.803   0.398   5.980  0.0708  0.2308 -0.0407
18248SOL    HW155907   5.733   0.336   5.956 -0.1113  0.0977  0.8121
18248SOL    HW255908   5.778   0.480   5.937  0.9483 -0.5651 -2.2179
18249SOL     OW55909   3.526   7.867   5.212 -0.1419  0.6777  0.3908
18249SOL    HW155910   3.550   7.775   5.206 -0.7352  0.3870  2.1072
18249SOL    HW255911   3.433   7.869   5.188  0.4725  1.2376 -2.2329
18250SOL     OW55912   3.388   7.229   1.715  1.0587 -0.4831 -0.1529
18250SOL    HW155913   3.367   7.322   1.720  1.1714 -0.4445 -0.4100
18250SOL    HW255914   3.474   7.222   1.758  0.1708 -0.7686  1.7047
18251SOL     OW55915   5.085   8.709   6.727  0.0298  0.5408 -0.2383
18251SOL    HW155916   5.118   8.623   6.755 -2.2761  0.2941  2.1880
18251SOL    HW255917   5.104   8.713   6.634  0.8736 -2.3103 -0.2798
18252SOL     OW55918   6.190   8.177   0.678  0.1765  0.9331 -0.0196
18252SOL    HW155919   6.210   8.254   0.624 -1.1748  1.3910  0.0906
18252SOL    HW255920   6.268   8.164   0.732  0.9256  1.4402 -0.9481
18253SOL     OW55921   2.290   2.870   4.191  0.1678 -0.0204  0.1502
18253SOL    HW155922   2.375   2.914   4.187  1.6252 -2.6919 -0.4140
18253SOL    HW255923   2.286   2.833   4.279  0.1146 -0.8401 -0.1877
18254SOL     OW55924   7.955   6.109   4.162  0.6345  0.4064  0.2941
18254SOL    HW155925   7.896   6.182   4.176  2.0943  1.7038 -0.0291
18254SOL    HW255926   7.959   6.064   4.247 -0.3001  0.6638  0.4821
18255SOL     OW55927   8.386   2.100   3.782  0.0200  0.2229 -0.4449
18255SOL    HW155928   8.402   2.027   3.722 -0.7600  1.0137 -1.6450
18255SOL    HW255929   8.291   2.112   3.781 -0.2026 -0.7755  2.2285
18256SOL     OW55930   6.000   5.675   2.180 -0.4182 -0.1338 -0.3768
18256SOL    HW155931   5.917   5.628   2.174  0.1633 -1.0331 -2.0601
18256SOL    HW255932   6.050   5.646   2.103  0.8332  1.5984 -0.2827
18257SOL     OW55933   5.928   1.022   1.355 -0.4821  0.4555  0.2658
18257SOL    HW155934   5.977   0.949   1.318 -0.4670  1.1728 -1.1962
18257SOL    HW255935   5.965   1.033   1.443 -1.2516 -1.9798  0.9988
18258SOL     OW55936   6.992   5.672   2.591 -0.0886  0.5116  0.3397
18258SOL    HW155937   7.038   5.605   2.643 -0.9784 -1.2982 -1.0888
18258SOL    HW255938   6.911   5.629   2.563 -0.6664  2.1906 -0.6873
18259SOL     OW55939   0.191   4.706   8.622  0.0266 -0.1487  1.1043
18259SOL    HW155940   0.149   4.761   8.556  0.2067  1.3921  2.2172
18259SOL    HW255941   0.126   4.638   8.641 -0.8130  0.5399  0.7555
18260SOL     OW55942   2.545   8.549   6.870  0.4081  0.0118 -0.7128
18260SOL    HW155943   2.584   8.465   6.891 -0.5346 -0.0388  0.9946
18260SOL    HW255944   2.601   8.585   6.801  2.0535 -1.0732  0.0060
18261SOL     OW55945   7.414   1.801   5.117  0.3252 -0.4212  0.2407
18261SOL    HW155946   7.339   1.792   5.177  0.5089 -0.7984  0.4184
18261SOL    HW255947   7.447   1.712   5.107 -1.4550 -0.8732 -2.7298
18262SOL     OW55948   6.898   1.546   5.449  0.2806  0.1354 -0.1001
18262SOL    HW155949   6.863   1.571   5.363  0.7353  0.9330 -0.0558
18262SOL    HW255950   6.825   1.500   5.491  0.3648 -1.1503 -1.2888
18263SOL     OW55951   5.085   7.791   4.770  0.0972  0.4801  0.3711
18263SOL    HW155952   5.169   7.746   4.762  0.2170  0.8793 -0.8656
18263SOL    HW255953   5.022   7.730   4.733  0.2188  1.1658 -1.0351
18264SOL     OW55954   8.643   8.332   1.402  0.0054 -0.2221  0.3426
18264SOL    HW155955   8.637   8.323   1.497  0.7868 -0.6297  0.3587
18264SOL    HW255956   8.728   8.293   1.380  0.6080  1.3764 -0.3245
18265SOL     OW55957   4.573   7.673   5.176 -0.2061  0.1491  0.6721
18265SOL    HW155958   4.607   7.739   5.116  0.3696 -2.0828 -1.6463
18265SOL    HW255959   4.650   7.641   5.223 -0.0482 -0.6097 -0.0794
18266SOL     OW55960   1.068   4.230   6.851  0.4896  0.3008  0.1322
18266SOL    HW155961   1.070   4.293   6.923 -0.0420  0.9640 -0.4168
18266SOL    HW255962   1.151   4.244   6.805  0.5137  0.3799  0.1990
18267SOL     OW55963   8.381   4.877   3.277 -0.2945  0.6048  0.0053
18267SOL    HW155964   8.433   4.952   3.249 -0.6084  0.3240 -1.3784
18267SOL    HW255965   8.290   4.902   3.257 -0.3746 -0.2659 -0.7920
18268SOL     OW55966   7.179   8.840   0.930 -0.3757 -0.4046 -0.3636
18268SOL    HW155967   7.119   8.815   1.000 -1.4555 -2.0992 -1.8150
18268SOL    HW255968   7.255   8.783   0.943  0.0000  0.1891  0.1485
18269SOL     OW55969   6.120   0.791   7.997 -0.6260  0.1805 -0.2517
18269SOL    HW155970   6.187   0.808   8.063 -0.7684 -2.0906  0.5601
18269SOL    HW255971   6.038   0.810   8.041 -0.6750 -0.4080 -0.0866
18270SOL     OW55972   3.553   2.704   8.137 -0.0582  0.4194 -0.4584
18270SOL    HW155973   3.488   2.658   8.191 -1.2687  1.9607 -0.5248
18270SOL    HW255974   3.586   2.637   8.077 -0.5170 -0.7439  0.5274
18271SOL     OW55975   6.842   2.766   6.897  0.5044 -0.2333  0.1359
18271SOL    HW155976   6.902   2.820   6.949  0.1995 -0.6538  0.9379
18271SOL    HW255977   6.880   2.766   6.809  0.8448  0.7760  0.2624
18272SOL     OW55978   8.278   7.517   2.089 -0.1170  0.0972 -0.2579
18272SOL    HW155979   8.295   7.526   2.182  1.4038  0.0707 -0.5039
18272SOL    HW255980   8.194   7.560   2.075 -0.7909 -0.6800  1.2559
18273SOL     OW55981   5.928   4.472   4.188  1.0378  0.0208 -0.4054
18273SOL    HW155982   5.903   4.561   4.211 -0.0051  0.1132 -1.7184
18273SOL    HW255983   6.007   4.454   4.238  0.4289  1.1388  1.0235
18274SOL     OW55984   2.307   7.872   7.528  0.2004 -0.2303 -0.5487
18274SOL    HW155985   2.214   7.868   7.550  1.0228 -0.6753  3.9091
18274SOL    HW255986   2.337   7.781   7.532  1.1875  0.1155  0.3710
18275SOL     OW55987   2.963   5.069   3.381  0.0334  0.3780 -0.2267
18275SOL    HW155988   2.970   5.128   3.456  1.6742 -0.5529  0.3905
18275SOL    HW255989   2.926   5.123   3.311 -0.1224  1.6551  0.8143
18276SOL     OW55990   2.795   4.911   1.925 -0.1104  0.2399 -0.2292
18276SOL    HW155991   2.862   4.855   1.886  0.0215  0.4688 -0.3315
18276SOL    HW255992   2.789   4.881   2.016  0.4153  0.4832 -0.1092
18277SOL     OW55993   3.216   1.274   4.551  0.0676  0.0648 -0.4693
18277SOL    HW155994   3.148   1.293   4.616  1.2634 -2.2186  1.6393
18277SOL    HW255995   3.270   1.353   4.548 -1.6247  1.2461 -0.8609
18278SOL     OW55996   8.687   0.623   6.832 -0.3488 -0.4237 -0.3273
18278SOL    HW155997   8.718   0.675   6.758  0.1228 -1.1510 -0.6622
18278SOL    HW255998   8.606   0.582   6.801 -1.7793  1.5738  0.5901
18279SOL     OW55999   3.784   7.526   6.901  0.4606 -0.5651 -0.5215
18279SOL    HW156000   3.878   7.544   6.902  0.2762  0.6214 -1.6725
18279SOL    HW256001   3.758   7.528   6.993  1.4702 -0.4164 -0.2289
18280SOL     OW56002   2.193   2.833   0.291  0.3299  0.0268 -0.0319
18280SOL    HW156003   2.242   2.771   0.344  1.2674 -1.0000 -1.9777
18280SOL    HW256004   2.112   2.850   0.341  0.9697 -1.1678  1.4740
18281SOL     OW56005   0.457   2.783   3.462  0.2853 -0.2820  0.8595
18281SOL    HW156006   0.423   2.731   3.389  0.1542  1.6002 -0.5099
18281SOL    HW256007   0.386   2.782   3.527 -2.2243  2.6779 -1.4877
18282SOL     OW56008   5.398   0.284   0.502  0.0192 -0.1312 -0.2308
18282SOL    HW156009   5.411   0.367   0.457 -0.5956 -0.6768 -1.4716
18282SOL    HW256010   5.317   0.296   0.552  0.6936  0.4716  0.7359
18283SOL     OW56011   8.414   8.459   6.247  0.0355  0.0351 -0.2500
18283SOL    HW156012   8.379   8.546   6.231 -1.5798 -0.4758  0.2962
18283SOL    HW256013   8.337   8.405   6.263  0.9147 -1.7165 -1.5263
18284SOL     OW56014   6.209   4.409   1.408  0.2748 -0.3267  0.5563
18284SOL    HW156015   6.264   4.330   1.407  0.9020  0.0936  1.1896
18284SOL    HW256016   6.266   4.477   1.442  0.2413  0.7897 -1.4904
18285SOL     OW56017   4.834   8.496   2.426  0.3573 -0.2329 -0.4021
18285SOL    HW156018   4.833   8.578   2.477 -2.7968  1.8120 -3.3090
18285SOL    HW256019   4.813   8.428   2.490  2.5916  1.2127  2.0528
18286SOL     OW56020   8.841   1.648   0.867 -0.2309  0.1280 -0.0512
18286SOL    HW156021   8.827   1.645   0.772 -0.2423  2.9345 -0.2211
18286SOL    HW256022   8.923   1.600   0.880 -0.8257 -1.3370 -1.2792
18287SOL     OW56023   1.055   0.229   3.651 -0.3026 -0.1394  0.1102
18287SOL    HW156024   1.089   0.170   3.584 -0.6329  0.0963 -0.2750
18287SOL    HW256025   1.048   0.176   3.730 -0.9815 -0.7216 -0.3341
18288SOL     OW56026   8.517   3.918   7.673  0.3782  0.4139  0.1969
18288SOL    HW156027   8.581   3.926   7.602 -0.8182 -0.9770 -1.0861
18288SOL    HW256028   8.485   3.828   7.667 -1.1982  0.8616  1.2706
18289SOL     OW56029   2.898   0.436   6.582  0.1390  0.2248 -0.5045
18289SOL    HW156030   2.911   0.385   6.502 -1.0566  1.0512 -1.2411
18289SOL    HW256031   2.843   0.380   6.637 -1.3132  0.7333 -1.3809
18290SOL     OW56032   4.522   7.591   2.854  0.4267  0.2571  0.6503
18290SOL    HW156033   4.561   7.516   2.808  1.9190 -0.3021  2.6539
18290SOL    HW256034   4.432   7.565   2.870 -0.0519  0.3454 -1.5800
18291SOL     OW56035   4.536   5.872   1.774 -0.1125  0.0329 -0.1800
18291SOL    HW156036   4.624   5.907   1.783 -0.2604  0.1128  1.0383
18291SOL    HW256037   4.478   5.947   1.790 -0.4172 -0.4694  1.1890
18292SOL     OW56038   3.110   5.059   5.567 -0.2629 -0.2709  0.2673
18292SOL    HW156039   3.101   4.970   5.532 -0.8063 -0.9150  1.9188
18292SOL    HW256040   3.021   5.093   5.571 -0.3747 -0.6569  2.0023
18293SOL     OW56041   8.497   2.253   5.559 -0.0674 -0.2050 -0.0529
18293SOL    HW156042   8.448   2.332   5.538 -2.6320 -2.3857 -3.1740
18293SOL    HW256043   8.582   2.265   5.518 -0.7159  0.6382 -1.1977
18294SOL     OW56044   8.076   5.334   1.035  0.0019 -0.4334  0.6637
18294SOL    HW156045   8.126   5.404   1.076 -0.7966  0.8708 -0.4873
18294SOL    HW256046   8.138   5.261   1.027  1.0686  0.4000  1.1991
18295SOL     OW56047   1.565   1.910   6.380  1.0281 -0.2537  0.2101
18295SOL    HW156048   1.626   1.984   6.377  0.7376  0.0562  1.3382
18295SOL    HW256049   1.499   1.936   6.444 -0.6674 -0.3191 -1.4196
18296SOL     OW56050   4.707   1.343   5.922  0.8633 -1.2010  0.2446
18296SOL    HW156051   4.800   1.332   5.905  0.6469  0.2542 -2.2068
18296SOL    HW256052   4.669   1.257   5.903  1.4145 -1.1749 -1.0396
18297SOL     OW56053   6.215   6.508   0.552  0.0213 -0.2044  1.1111
18297SOL    HW156054   6.184   6.588   0.593  1.9639  1.2240 -0.0704
18297SOL    HW256055   6.272   6.537   0.482 -1.3516 -2.5925 -1.1757
18298SOL     OW56056   2.798   5.594   2.236  0.2923  0.0286 -0.0700
18298SOL    HW156057   2.763   5.680   2.213  0.3537 -0.2245 -1.1990
18298SOL    HW256058   2.883   5.591   2.192  1.0607  0.0314  1.3522
18299SOL     OW56059   2.553   4.011   8.461  0.1179 -0.3308  0.2173
18299SOL    HW156060   2.605   4.034   8.383 -1.8072  1.0322 -0.7324
18299SOL    HW256061   2.614   3.960   8.515  2.4912  1.2973 -0.7455
18300SOL     OW56062   7.477   1.338   5.731  1.0859 -0.2639 -0.1994
18300SOL    HW156063   7.458   1.245   5.744  1.4431 -0.1978  0.8270
18300SOL    HW256064   7.558   1.354   5.779  0.0821  0.9753  1.1957
18301SOL     OW56065   8.483   1.275   7.116 -0.0872  0.0594  0.5650
18301SOL    HW156066   8.462   1.361   7.079  0.6637  0.4174  0.9420
18301SOL    HW256067   8.505   1.221   7.040 -0.4673  0.2261  0.3350
18302SOL     OW56068   5.488   2.835   6.196 -0.1513  0.5810 -0.2131
18302SOL    HW156069   5.396   2.825   6.220  0.1940 -3.6168  0.0013
18302SOL    HW256070   5.535   2.835   6.280  0.2224 -1.2914 -0.3812
18303SOL     OW56071   8.773   7.778   2.831  0.3723 -0.1914 -0.7915
18303SOL    HW156072   8.842   7.720   2.864 -0.5423 -1.2387 -0.6708
18303SOL    HW256073   8.699   7.762   2.889  0.1244  1.1864 -0.7020
18304SOL     OW56074   7.316   4.935   5.801  0.0613 -0.4625 -0.4926
18304SOL    HW156075   7.405   4.923   5.768  0.4212  0.1451  0.2179
18304SOL    HW256076   7.298   5.028   5.787  1.6583  0.8399  4.2754
18305SOL     OW56077   3.858   0.673   1.361  0.3092 -0.1329  0.2054
18305SOL    HW156078   3.923   0.720   1.310 -0.4584  1.3609  0.5524
18305SOL    HW256079   3.825   0.737   1.424 -2.1016 -0.5603 -0.5011
18306SOL     OW56080   8.058   8.578   3.890  0.2763  0.8862 -0.1685
18306SOL    HW156081   8.128   8.526   3.928  0.2394 -0.3939 -1.7591
18306SOL    HW256082   8.066   8.664   3.932  2.3091  0.5460  0.2220
18307SOL     OW56083   4.403   1.106   3.990 -0.2251  0.0372 -0.2231
18307SOL    HW156084   4.458   1.064   4.057  0.2432 -2.1912 -1.8887
18307SOL    HW256085   4.428   1.198   3.994  2.5299 -0.6182  0.1861
18308SOL     OW56086   0.324   7.475   0.272  0.2469  0.0605  0.0769
18308SOL    HW156087   0.297   7.400   0.327  0.9141 -0.0740  0.2278
18308SOL    HW256088   0.267   7.546   0.301 -1.7455 -0.8389 -1.3915
18309SOL     OW56089   5.502   7.357   1.326 -0.5267 -0.1423  0.1203
18309SOL    HW156090   5.529   7.449   1.322  0.2257 -0.3630  0.0597
18309SOL    HW256091   5.406   7.360   1.318 -0.5645  0.6781  0.7537
18310SOL     OW56092   8.391   8.066   3.498  0.3718  0.1572 -0.0667
18310SOL    HW156093   8.333   8.054   3.573 -0.6896  1.5430 -0.5964
18310SOL    HW256094   8.454   7.994   3.503 -0.6844 -0.7224  1.2012
18311SOL     OW56095   2.452   4.761   8.097  0.8993  0.0686  0.2462
18311SOL    HW156096   2.372   4.804   8.067  0.9970  1.4318  1.8038
18311SOL    HW256097   2.475   4.806   8.178  1.9787 -1.8291  1.0730
18312SOL     OW56098   6.319   6.580   6.725 -0.0174 -0.2029  0.2039
18312SOL    HW156099   6.409   6.570   6.695  0.6210 -1.1727  2.3092
18312SOL    HW256100   6.275   6.499   6.698  0.3215 -0.6794  1.0560
18313SOL     OW56101   5.221   0.725   5.803 -0.1451 -0.0027 -0.4634
18313SOL    HW156102   5.205   0.818   5.789  0.6464  0.3072  0.5583
18313SOL    HW256103   5.203   0.684   5.718 -2.2459  0.8205 -0.4568
18314SOL     OW56104   0.578   7.961   3.406  0.3562  0.5896  0.0654
18314SOL    HW156105   0.567   8.047   3.364 -0.4642  0.4196 -0.1019
18314SOL    HW256106   0.583   7.899   3.333  0.1205  0.4143  0.1943
18315SOL     OW56107   4.759   0.016   4.056 -0.6186  0.5469  0.3441
18315SOL    HW156108   4.821  -0.054   4.035  0.0792  1.2321  0.1091
18315SOL    HW256109   4.729  -0.005   4.144  2.0625  1.6810  1.6579
18316SOL     OW56110   1.369   7.241   8.253 -0.6891 -0.2918  0.2999
18316SOL    HW156111   1.435   7.309   8.252  0.9393 -1.7889 -1.7430
18316SOL    HW256112   1.396   7.181   8.323 -1.0203  0.0914  0.7673
18317SOL     OW56113   3.781   5.472   7.013  0.6608 -0.4909  0.0666
18317SOL    HW156114   3.832   5.549   6.989  0.5474 -0.4905 -0.1722
18317SOL    HW256115   3.844   5.400   7.010  0.6057 -0.5236 -0.4305
18318SOL     OW56116   6.475   1.183   2.609 -0.2357  0.8413 -0.3652
18318SOL    HW156117   6.404   1.119   2.602 -1.2564  1.7824  0.8235
18318SOL    HW256118   6.534   1.145   2.674  1.2907 -0.7256 -2.5379
18319SOL     OW56119   7.382   4.397   5.002  0.0590  0.1235 -0.2457
18319SOL    HW156120   7.433   4.463   5.050  0.0064  0.4434 -0.6177
18319SOL    HW256121   7.436   4.376   4.926 -0.2939  0.3529 -0.5636
18320SOL     OW56122   6.772   2.483   5.824 -0.1214 -0.2048  0.3611
18320SOL    HW156123   6.766   2.403   5.772  2.7734 -0.4591  0.2342
18320SOL    HW256124   6.855   2.522   5.798  0.6748  0.5413  3.5493
18321SOL     OW56125   5.957   0.604   0.534  0.0485 -0.3042  0.0003
18321SOL    HW156126   6.017   0.656   0.480  0.0682  0.8979  1.1105
18321SOL    HW256127   5.892   0.571   0.473  0.7221  0.0430 -0.9285
18322SOL     OW56128   6.752   8.037   8.067  0.1154  0.0799 -0.0647
18322SOL    HW156129   6.666   8.079   8.056 -0.7107 -1.9746 -2.8623
18322SOL    HW256130   6.780   8.062   8.154 -1.6389  3.8173 -0.3649
18323SOL     OW56131   0.651   2.912   2.490 -0.1464  0.1142 -0.2282
18323SOL    HW156132   0.688   2.858   2.560 -1.3644  1.4925  1.5698
18323SOL    HW256133   0.625   2.994   2.534 -3.4490  0.0143 -1.7207
18324SOL     OW56134   4.651   2.204   8.499 -0.1816 -0.4878 -0.7676
18324SOL    HW156135   4.595   2.127   8.510  0.4846 -0.8219  0.4339
18324SOL    HW256136   4.646   2.224   8.405 -0.0569 -2.2276 -1.1783
18325SOL     OW56137   4.090   0.292   8.551 -0.2096  0.1525  0.5092
18325SOL    HW156138   4.037   0.355   8.600 -0.4830 -0.5211  1.0911
18325SOL    HW256139   4.052   0.291   8.463 -0.6041  0.3188  0.6782
18326SOL     OW56140   3.194   1.056   8.173 -0.0021  0.5919 -0.2271
18326SOL    HW156141   3.274   1.108   8.161 -0.4723  2.1016  2.3744
18326SOL    HW256142   3.124   1.111   8.137 -0.4003  1.5191  1.8190
18327SOL     OW56143   0.333   0.806   6.337  0.5924 -0.2834  0.0617
18327SOL    HW156144   0.412   0.856   6.356  0.8433 -0.5128 -0.3667
18327SOL    HW256145   0.302   0.841   6.253  0.8995 -1.0040 -0.3574
18328SOL     OW56146   5.759   4.545   2.622  0.2506  0.7247  0.2504
18328SOL    HW156147   5.820   4.619   2.622  0.7947  0.2774  0.4720
18328SOL    HW256148   5.680   4.581   2.662  0.9928  0.8169  1.7049
18329SOL     OW56149   6.112   8.268   2.130  0.4184  0.4840  0.1107
18329SOL    HW156150   6.188   8.234   2.083  0.6662  0.2156  0.7011
18329SOL    HW256151   6.068   8.190   2.163 -0.9707  0.5287 -1.4999
18330SOL     OW56152   5.645   0.167   5.388 -0.4382 -0.0175 -0.0269
18330SOL    HW156153   5.694   0.183   5.307 -0.4158  1.1909  0.2075
18330SOL    HW256154   5.556   0.147   5.360 -0.6201  1.1819 -0.3277
18331SOL     OW56155   2.145   1.706   0.795 -0.0120 -0.1690 -0.0172
18331SOL    HW156156   2.103   1.762   0.860 -1.4583 -0.5817 -0.5502
18331SOL    HW256157   2.218   1.666   0.842 -1.1294 -0.6124  1.4193
18332SOL     OW56158   7.944   6.555   6.839  0.2455 -0.0672  0.4621
18332SOL    HW156159   7.999   6.478   6.854  0.1335 -0.0087  1.2310
18332SOL    HW256160   8.005   6.621   6.805  0.4937 -0.2677  0.5087
18333SOL     OW56161   4.914   3.897   5.156  0.5862 -0.5004  0.1965
18333SOL    HW156162   4.928   3.967   5.092 -0.7128 -0.5005 -0.1261
18333SOL    HW256163   4.896   3.820   5.102 -0.4045 -0.5263  0.5459
18334SOL     OW56164   5.473   7.761   4.994  0.8090  0.2594 -0.4384
18334SOL    HW156165   5.493   7.745   4.902  0.4178  1.6315 -0.7911
18334SOL    HW256166   5.397   7.819   4.991  2.6996  2.9731  0.6527
18335SOL     OW56167   0.870   1.317   3.638  0.0384  0.2647  0.0468
18335SOL    HW156168   0.891   1.238   3.587  0.3882  0.0538  0.5106
18335SOL    HW256169   0.899   1.296   3.727  1.2441  1.3555 -0.0609
18336SOL     OW56170   5.051   6.777   3.650 -0.2566 -0.8379 -0.1067
18336SOL    HW156171   5.058   6.698   3.703  1.2437 -0.4971  0.2646
18336SOL    HW256172   4.970   6.767   3.601 -1.7696 -1.1215  2.3316
18337SOL     OW56173   7.969   2.274   2.621 -0.4970 -0.4437  0.9968
18337SOL    HW156174   7.890   2.266   2.568 -0.6661 -0.6401  1.2774
18337SOL    HW256175   7.945   2.237   2.706  0.0741 -1.0256  0.9044
18338SOL     OW56176   7.438   0.371   0.316 -0.3749 -0.1898  0.2009
18338SOL    HW156177   7.445   0.311   0.391  1.6348 -0.3191 -0.0386
18338SOL    HW256178   7.359   0.421   0.333 -0.5743 -0.9954  1.8437
18339SOL     OW56179   2.325   8.181   2.000  0.6210  0.2641 -0.1754
18339SOL    HW156180   2.389   8.208   2.066  1.3714  0.6909 -1.0407
18339SOL    HW256181   2.366   8.206   1.917 -1.8735  3.2117 -0.7117
18340SOL     OW56182   2.945   2.800   0.196 -0.1432 -0.2649  0.3080
18340SOL    HW156183   2.985   2.884   0.219 -0.1243 -0.7712  2.3368
18340SOL    HW256184   2.888   2.820   0.122 -0.3263  1.5958  0.8955
18341SOL     OW56185   1.499   6.127   1.001 -0.0942 -0.5828 -0.1480
18341SOL    HW156186   1.404   6.127   0.988  0.0299 -1.6143 -1.1957
18341SOL    HW256187   1.528   6.042   0.970  1.2112 -0.1972 -0.0600
18342SOL     OW56188   0.543   2.478   5.815 -0.3698  0.3930 -0.3820
18342SOL    HW156189   0.573   2.559   5.773  0.3313  0.2753 -0.1283
18342SOL    HW256190   0.554   2.494   5.908 -0.4288  0.0805 -0.3203
18343SOL     OW56191   3.157   5.484   3.741 -0.3776  0.0159  0.0140
18343SOL    HW156192   3.184   5.491   3.650 -2.2142 -0.3139 -0.6015
18343SOL    HW256193   3.233   5.515   3.791  1.4676 -1.7914 -1.5047
18344SOL     OW56194   2.387   1.716   3.737 -0.5457  0.2841 -0.0809
18344SOL    HW156195   2.465   1.757   3.772 -0.9436  1.3606 -0.4276
18344SOL    HW256196   2.414   1.626   3.717  0.4808  0.5253  0.1889
18345SOL     OW56197   7.131   1.154   0.300  0.2248 -0.1757  0.2220
18345SOL    HW156198   7.184   1.162   0.220  0.4936  0.5384  0.4573
18345SOL    HW256199   7.094   1.242   0.313  0.2282 -0.2677  0.9119
18346SOL     OW56200   2.342   8.765   5.090 -0.4633  0.1014  0.3050
18346SOL    HW156201   2.386   8.814   5.020  1.1196  0.3943  1.4685
18346SOL    HW256202   2.396   8.687   5.102 -0.7205  0.0540  1.1917
18347SOL     OW56203   0.913   4.400   8.246 -0.0954 -0.0395 -0.3241
18347SOL    HW156204   0.937   4.347   8.321 -0.9425 -1.4852 -1.0361
18347SOL    HW256205   0.978   4.378   8.179 -0.3958 -0.1007 -0.5967
18348SOL     OW56206   1.042   3.339   4.981 -0.0676 -0.6823 -0.1591
18348SOL    HW156207   1.011   3.272   5.042  2.4677 -2.5839 -0.8084
18348SOL    HW256208   1.112   3.384   5.028 -1.1250  0.9857 -0.0778
18349SOL     OW56209   8.360   4.379   0.186  0.3275  0.7216  0.0443
18349SOL    HW156210   8.358   4.446   0.254  0.7235  1.7355 -0.9136
18349SOL    HW256211   8.424   4.412   0.123  0.8672 -0.7832 -0.2321
18350SOL     OW56212   4.269   8.697   1.907 -0.5853 -0.4612  0.4395
18350SOL    HW156213   4.291   8.767   1.968 -1.4941  0.0520  0.1926
18350SOL    HW256214   4.354   8.657   1.886 -0.0059  0.7741  0.3249
18351SOL     OW56215   1.984   0.486   6.217  0.2445  0.6149  0.3620
18351SOL    HW156216   1.964   0.395   6.196  0.3050  0.6203  0.2785
18351SOL    HW256217   1.900   0.524   6.243  0.5435  0.0308  2.3365
18352SOL     OW56218   6.436   3.073   8.341  0.8347 -0.0915 -0.2991
18352SOL    HW156219   6.459   2.983   8.319  2.5261  0.7335 -2.3089
18352SOL    HW256220   6.357   3.066   8.393 -0.4471 -2.6302 -2.3668
18353SOL     OW56221   6.612   3.201   3.163  0.1640 -0.7977  0.7186
18353SOL    HW156222   6.661   3.154   3.096  1.0863 -0.0233  0.8188
18353SOL    HW256223   6.616   3.144   3.240 -0.3223 -1.3844  0.3123
18354SOL     OW56224   6.378   2.348   6.123  0.4460 -0.2485  0.0801
18354SOL    HW156225   6.419   2.329   6.208 -1.0322 -0.2636  0.8252
18354SOL    HW256226   6.306   2.408   6.144 -0.2390 -0.6273 -1.0970
18355SOL     OW56227   6.852   0.246   7.009 -0.0371 -0.3829  0.2327
18355SOL    HW156228   6.923   0.257   6.945 -1.5791  0.5531 -1.4097
18355SOL    HW256229   6.836   0.152   7.010 -0.7017 -0.3432 -1.6664
18356SOL     OW56230   5.322   4.206   0.607  0.0070 -0.1671  0.5293
18356SOL    HW156231   5.366   4.259   0.674  1.4851 -1.0262  0.2843
18356SOL    HW256232   5.279   4.136   0.655 -0.3029  0.1306  0.6934
18357SOL     OW56233   8.833   1.835   0.435 -0.5674  0.7869  0.0666
18357SOL    HW156234   8.739   1.843   0.416 -0.5685  2.3842  0.5424
18357SOL    HW256235   8.876   1.855   0.352 -0.6528  1.8103  0.2485
18358SOL     OW56236   8.132   1.548   1.961 -0.4523  0.3410 -0.3120
18358SOL    HW156237   8.204   1.610   1.973 -0.3696 -0.0477  1.7065
18358SOL    HW256238   8.053   1.601   1.967 -0.3724  0.3481  0.9377
18359SOL     OW56239   1.271   0.552   4.979 -0.0901 -0.3709  0.8676
18359SOL    HW156240   1.333   0.615   4.942  0.2868 -1.6776 -0.8240
18359SOL    HW256241   1.311   0.526   5.063  1.8472 -1.3858 -0.2964
18360SOL     OW56242   8.753   4.369   0.253  0.1054 -0.7713 -0.1457
18360SOL    HW156243   8.829   4.345   0.199  0.0290 -0.3156 -0.4616
18360SOL    HW256244   8.713   4.442   0.206  0.3694  0.0194  0.8251
18361SOL     OW56245   4.219   2.912   0.392  0.6267  0.4964  0.0226
18361SOL    HW156246   4.139   2.899   0.340  0.0138 -0.1245  1.0810
18361SOL    HW256247   4.284   2.944   0.329  0.1525 -1.0298 -1.3021
18362SOL     OW56248   2.234   4.061   6.820 -0.1166 -0.4524  0.2372
18362SOL    HW156249   2.276   3.981   6.853  1.2671 -0.4658 -1.4257
18362SOL    HW256250   2.154   4.029   6.777 -0.3599 -0.7452  0.8811
18363SOL     OW56251   4.527   5.659   5.069 -0.4108 -0.0112  0.4015
18363SOL    HW156252   4.526   5.726   5.138 -0.8789  0.9459 -0.5004
18363SOL    HW256253   4.619   5.632   5.063 -0.0510  1.1758  0.2295
18364SOL     OW56254   5.400   6.060   4.986  0.0581 -0.4767 -0.1298
18364SOL    HW156255   5.427   6.070   5.077  2.1850 -0.5270 -0.6989
18364SOL    HW256256   5.385   5.966   4.975 -0.7813 -0.4007  0.2999
18365SOL     OW56257   7.129   7.090   4.019  0.5456  0.1961 -0.1765
18365SOL    HW156258   7.092   7.040   4.092 -0.1158 -0.0952 -0.7059
18365SOL    HW256259   7.081   7.173   4.021 -0.9127 -0.5588 -1.4835
18366SOL     OW56260   2.806   2.441   2.338 -0.0258 -0.1627 -0.4590
18366SOL    HW156261   2.856   2.512   2.378  0.1569  0.0783 -1.1081
18366SOL    HW256262   2.857   2.362   2.356 -1.0217 -0.3984  1.6763
18367SOL     OW56263   4.300   5.158   6.344  0.1215 -0.6231  0.0927
18367SOL    HW156264   4.218   5.109   6.342 -1.1465  1.4041  0.6382
18367SOL    HW256265   4.315   5.184   6.253 -1.0676  0.9128  0.3054
18368SOL     OW56266   2.336   2.312   4.749  0.3041  0.3093 -0.8230
18368SOL    HW156267   2.263   2.365   4.779  1.4359  1.7859 -0.5594
18368SOL    HW256268   2.410   2.373   4.743  2.0808 -1.4637  1.0071
18369SOL     OW56269   6.335   0.627   7.875 -0.2718 -0.3552  0.8233
18369SOL    HW156270   6.255   0.676   7.892  0.4334  1.0798  0.1920
18369SOL    HW256271   6.305   0.543   7.839 -1.4944 -0.3149  1.6954
18370SOL     OW56272   4.949   7.042   6.638  0.1053  0.3469  0.3124
18370SOL    HW156273   4.987   6.954   6.646 -0.6738  0.1044  1.6387
18370SOL    HW256274   4.988   7.091   6.711  2.1251  1.7631 -1.5769
18371SOL     OW56275   3.810   8.862   5.413  0.0709 -0.0423  0.2323
18371SOL    HW156276   3.749   8.808   5.462 -0.8701 -0.5240 -1.3978
18371SOL    HW256277   3.760   8.939   5.388 -0.0920 -0.6572 -1.5271
18372SOL     OW56278   6.957   6.131   5.328 -0.7655 -0.2633  0.7457
18372SOL    HW156279   7.000   6.183   5.396 -0.4210 -1.0157  1.1070
18372SOL    HW256280   6.935   6.195   5.260  0.9881  0.1437  0.5073
18373SOL     OW56281   1.579   1.300   3.813 -0.0310  0.4133  0.3749
18373SOL    HW156282   1.591   1.390   3.785  3.3032 -0.2322 -0.6917
18373SOL    HW256283   1.623   1.295   3.898 -0.4122 -0.1693  0.5444
18374SOL     OW56284   2.616   6.776   8.170  0.1413 -0.1073  0.2967
18374SOL    HW156285   2.681   6.706   8.176 -0.6778 -1.2058 -2.3200
18374SOL    HW256286   2.536   6.738   8.206  0.0818  0.0330  0.3152
18375SOL     OW56287   8.364   6.847   6.697 -0.8275  0.7819  0.2549
18375SOL    HW156288   8.420   6.771   6.712 -1.1220  0.8817  2.1555
18375SOL    HW256289   8.275   6.815   6.711 -0.9011  1.6240  2.0660
18376SOL     OW56290   0.400   7.774   7.345 -0.1570  0.3475  0.5809
18376SOL    HW156291   0.376   7.796   7.435 -1.1073  1.2604  0.1249
18376SOL    HW256292   0.474   7.832   7.325 -0.8020  1.1059  0.3444
18377SOL     OW56293   0.707   0.051   2.390 -0.0641 -0.0211 -0.5760
18377SOL    HW156294   0.701   0.053   2.294 -0.8883  1.1489 -0.5290
18377SOL    HW256295   0.682  -0.038   2.414 -0.2341 -0.2125 -1.4246
18378SOL     OW56296   5.691   4.719   5.087  0.2039 -0.4542  0.1098
18378SOL    HW156297   5.700   4.810   5.113  0.7084 -1.0107  1.9898
18378SOL    HW256298   5.781   4.687   5.078  0.0358 -0.6800 -0.9121
18379SOL     OW56299   6.459   2.239   0.276  0.2616 -0.0481 -0.3124
18379SOL    HW156300   6.440   2.212   0.366  2.6705 -0.7651  0.0638
18379SOL    HW256301   6.533   2.299   0.284  1.6240 -1.4123 -1.8639
18380SOL     OW56302   3.895   5.258   3.882  0.0984 -0.1930  0.1806
18380SOL    HW156303   3.820   5.265   3.941  0.3020 -0.4720  0.4738
18380SOL    HW256304   3.866   5.303   3.802 -0.5257 -0.6448  0.1424
18381SOL     OW56305   2.648   1.832   8.394 -0.3836 -0.1698 -0.2826
18381SOL    HW156306   2.724   1.821   8.450  0.1172 -0.9906 -1.1010
18381SOL    HW256307   2.599   1.750   8.403  0.4945 -0.9533 -2.1869
18382SOL     OW56308   8.860   7.680   6.586 -0.0215  0.1750 -0.0242
18382SOL    HW156309   8.946   7.721   6.591  0.6124 -1.2419  1.6231
18382SOL    HW256310   8.798   7.753   6.591  1.0787  1.1176  0.0440
18383SOL     OW56311   0.515   4.646   7.069 -0.3324 -0.4641 -0.2187
18383SOL    HW156312   0.479   4.732   7.048 -1.0732 -0.8917 -0.7230
18383SOL    HW256313   0.490   4.630   7.160 -0.5728 -0.3333 -0.2629
18384SOL     OW56314   3.063   6.761   8.767 -0.0456  0.5490  0.2707
18384SOL    HW156315   2.992   6.698   8.770  1.3689 -1.0794  1.0651
18384SOL    HW256316   3.120   6.737   8.840  0.1465  3.2897  1.1518
18385SOL     OW56317   7.253   1.289   7.695 -0.3311 -0.2507  0.2173
18385SOL    HW156318   7.165   1.282   7.660 -0.3714 -0.1272  0.2936
18385SOL    HW256319   7.290   1.201   7.687 -1.2543 -0.9000  2.3257
18386SOL     OW56320   8.111   7.302   6.686 -0.1406  0.1478 -0.5421
18386SOL    HW156321   8.044   7.370   6.695  0.2178  0.3866  0.4987
18386SOL    HW256322   8.147   7.316   6.599 -0.8766  0.5456 -0.7952
18387SOL     OW56323   1.352   2.975   8.180 -0.1702  0.1561  0.1745
18387SOL    HW156324   1.388   3.023   8.255 -0.0431 -0.0058  0.2192
18387SOL    HW256325   1.273   3.023   8.156 -0.7396 -0.3301  1.0215
18388SOL     OW56326   4.256   5.019   1.844 -0.6919 -0.2032  0.2194
18388SOL    HW156327   4.321   5.035   1.775 -0.4968 -1.4628  0.0904
18388SOL    HW256328   4.174   5.004   1.797 -0.6853 -0.4707  0.2937
18389SOL     OW56329   7.794   2.182   1.954 -0.7501 -0.0714 -0.0598
18389SOL    HW156330   7.777   2.126   2.029 -0.9290 -0.2835 -0.2576
18389SOL    HW256331   7.710   2.225   1.936 -0.3019  1.2951  0.9237
18390SOL     OW56332   1.301   6.829   0.336  0.0105 -0.2323  1.0847
18390SOL    HW156333   1.378   6.773   0.334 -0.2917 -0.6804  1.6932
18390SOL    HW256334   1.243   6.789   0.400 -0.7706  0.0513  0.5771
18391SOL     OW56335   3.955   1.769   8.529 -0.1298 -0.0353 -0.1800
18391SOL    HW156336   3.973   1.863   8.535  1.1880 -0.3307  1.3452
18391SOL    HW256337   3.861   1.763   8.515 -0.5767  1.4999  1.7157
18392SOL     OW56338   6.935   0.258   3.545 -0.1113 -0.0400 -0.0288
18392SOL    HW156339   6.900   0.240   3.458 -0.9615 -1.5779  0.6022
18392SOL    HW256340   6.858   0.260   3.602  0.1817  2.9723  0.4495
18393SOL     OW56341   2.073   8.190   0.961  0.1423 -0.4357 -0.5298
18393SOL    HW156342   2.018   8.189   0.883  0.5490 -1.1915 -0.8283
18393SOL    HW256343   2.163   8.188   0.927  0.3493  0.4273 -0.0519
18394SOL     OW56344   6.590   0.078   1.999 -0.2015 -0.1928  0.0592
18394SOL    HW156345   6.546   0.162   1.989  1.3702  0.7044  0.2387
18394SOL    HW256346   6.541   0.018   1.944 -1.1390  0.9279 -0.3691
18395SOL     OW56347   5.736   2.802   2.490 -0.3947  0.4551 -0.1457
18395SOL    HW156348   5.700   2.888   2.466 -1.1764  0.9850  2.5631
18395SOL    HW256349   5.659   2.745   2.498  0.1342 -0.5819 -2.0655
18396SOL     OW56350   3.481   3.562   2.003 -0.2762 -0.1922 -0.7234
18396SOL    HW156351   3.574   3.583   1.992  0.8689 -0.4114  5.1013
18396SOL    HW256352   3.437   3.646   2.006  0.1540  0.0466 -1.0353
18397SOL     OW56353   3.600   7.984   0.794  0.7184 -0.1905  0.0470
18397SOL    HW156354   3.586   7.891   0.774  1.5812 -0.4089  0.4105
18397SOL    HW256355   3.686   7.987   0.835  0.8121  0.8103 -0.1967
18398SOL     OW56356   3.274   8.142   8.048  0.6793 -0.5972 -0.2735
18398SOL    HW156357   3.228   8.159   8.130 -1.1359 -0.1950 -1.3156
18398SOL    HW256358   3.366   8.154   8.069  0.5214 -3.0248  2.3024
18399SOL     OW56359   6.831   2.037   2.970 -0.1744 -0.0082 -0.1189
18399SOL    HW156360   6.866   2.122   2.998  0.0381  0.4102 -1.5589
18399SOL    HW256361   6.782   2.057   2.890 -3.7515 -0.5551  1.7124
18400SOL     OW56362   0.282   2.193   0.545 -0.0355 -0.1385  0.6239
18400SOL    HW156363   0.202   2.161   0.586 -0.5071 -0.8307 -0.7801
18400SOL    HW256364   0.275   2.167   0.454  0.2873  2.5909 -0.2926
18401SOL     OW56365   7.035   2.608   4.920 -0.1208  0.2650  0.8866
18401SOL    HW156366   6.987   2.574   4.845  2.7330 -0.5851 -0.6944
18401SOL    HW256367   7.124   2.621   4.888  1.4497 -0.8643  4.2710
18402SOL     OW56368   1.184   8.406   5.517 -0.4130 -0.5948  0.3660
18402SOL    HW156369   1.212   8.322   5.554 -1.5194 -1.0287  0.2455
18402SOL    HW256370   1.176   8.464   5.593 -1.8574 -1.2492  0.7476
18403SOL     OW56371   2.408   5.612   6.720 -0.2528  0.7597  0.3378
18403SOL    HW156372   2.384   5.691   6.671  0.0685  1.5990  1.5027
18403SOL    HW256373   2.325   5.571   6.743 -0.4183  0.6752 -0.3797
18404SOL     OW56374   8.823   3.697   1.441 -0.3186 -0.2063  0.7014
18404SOL    HW156375   8.808   3.602   1.441  1.1883 -0.4728 -0.0072
18404SOL    HW256376   8.830   3.720   1.534 -0.4417 -0.8469  0.8743
18405SOL     OW56377   2.055   1.840   2.806  0.2856 -0.3674  0.0729
18405SOL    HW156378   2.126   1.776   2.796  0.0940 -0.7601  1.0949
18405SOL    HW256379   2.086   1.900   2.873 -0.1857 -0.3188  0.2523
18406SOL     OW56380   2.724   8.125   4.102 -0.3673 -0.7387  0.3503
18406SOL    HW156381   2.659   8.174   4.153 -0.5772 -1.0602  0.3941
18406SOL    HW256382   2.695   8.133   4.012  0.7394  0.9680  0.1022
18407SOL     OW56383   5.063   8.285   5.887 -0.0882  0.0216 -0.2660
18407SOL    HW156384   5.150   8.326   5.879  0.1691 -0.5149 -0.2828
18407SOL    HW256385   5.064   8.216   5.821 -0.6057  0.1320 -0.3932
18408SOL     OW56386   5.345   5.859   6.387 -0.4300  0.5445  0.3205
18408SOL    HW156387   5.262   5.824   6.356 -0.8250  0.3360  1.5395
18408SOL    HW256388   5.377   5.913   6.315 -1.5545  0.5236 -0.2192
18409SOL     OW56389   0.589   2.974   0.823 -0.0395 -0.6844 -0.1166
18409SOL    HW156390   0.548   2.962   0.738 -0.7471 -0.0800  0.1214
18409SOL    HW256391   0.681   2.993   0.804 -0.3522  0.2073 -0.7880
18410SOL     OW56392   5.651   1.353   2.681 -0.6508  0.1456  0.2023
18410SOL    HW156393   5.609   1.425   2.729  0.7810  1.5324 -0.5286
18410SOL    HW256394   5.718   1.320   2.741 -1.0815 -0.3819  0.4051
18411SOL     OW56395   6.874   1.323   5.094 -0.0445  0.0814  0.0682
18411SOL    HW156396   6.892   1.358   5.007  1.3143  1.7169  0.9400
18411SOL    HW256397   6.793   1.366   5.121 -0.1735 -0.0106 -0.1684
18412SOL     OW56398   7.208   6.031   8.531  0.2284 -0.8939  0.2079
18412SOL    HW156399   7.280   5.987   8.576 -0.2973  0.3243  2.4034
18412SOL    HW256400   7.250   6.091   8.470  1.0240 -1.3838  0.2686
18413SOL     OW56401   4.487   4.451   0.751 -0.1164 -0.3290 -0.1048
18413SOL    HW156402   4.415   4.390   0.733 -1.4567  1.1981 -0.0642
18413SOL    HW256403   4.491   4.507   0.673 -0.0272  0.6053  0.5562
18414SOL     OW56404   0.689   1.497   1.046 -0.0471  0.1562  0.3436
18414SOL    HW156405   0.607   1.506   1.095 -0.1240  0.4086  0.1720
18414SOL    HW256406   0.662   1.471   0.958 -0.2034  3.2793 -0.6444
18415SOL     OW56407   6.608   8.657   0.488 -0.4108  0.0927 -0.3334
18415SOL    HW156408   6.613   8.562   0.477  0.3570  0.1686 -0.7211
18415SOL    HW256409   6.688   8.690   0.447 -1.2416  1.0119 -1.2565
18416SOL     OW56410   7.070   2.048   8.435 -0.3052  0.4617  0.1311
18416SOL    HW156411   7.055   2.087   8.349 -0.8262  0.4576  0.2141
18416SOL    HW256412   7.022   1.966   8.433 -1.4133  1.0543  0.8643
18417SOL     OW56413   0.490   0.493   4.434 -0.4590  0.0475 -0.0895
18417SOL    HW156414   0.565   0.433   4.433  0.8808  1.6763 -0.3524
18417SOL    HW256415   0.461   0.496   4.342  0.7569  1.3022 -0.4687
18418SOL     OW56416   8.556   1.063   5.715  0.0560 -1.0299 -0.0503
18418SOL    HW156417   8.545   0.980   5.667  0.6116 -0.7780 -0.6141
18418SOL    HW256418   8.552   1.037   5.808 -1.5578 -1.4549 -0.1967
18419SOL     OW56419   6.296   2.380   5.194  0.5112  0.5278  0.6849
18419SOL    HW156420   6.279   2.298   5.147  0.5978  1.9072 -1.9152
18419SOL    HW256421   6.226   2.385   5.260 -0.6208 -0.7063 -0.3679
18420SOL     OW56422   6.380   0.878   3.022  0.3878  0.2905  0.7569
18420SOL    HW156423   6.303   0.934   3.025 -1.0282 -1.2501 -2.6085
18420SOL    HW256424   6.379   0.839   2.935  2.5424 -3.2235  2.0733
18421SOL     OW56425   3.013   4.885   0.140 -0.0870 -0.4030 -0.0118
18421SOL    HW156426   2.939   4.856   0.194  0.2538 -1.7346 -0.2228
18421SOL    HW256427   3.075   4.812   0.144  1.5649  1.0002  0.7807
18422SOL     OW56428   3.346   6.323   4.314  0.1286  0.1147  0.3999
18422SOL    HW156429   3.381   6.282   4.235 -1.7566 -1.1373  0.1499
18422SOL    HW256430   3.376   6.414   4.310  1.4589 -0.3571 -0.8728
18423SOL     OW56431   4.749   8.805   4.789  0.5509  0.0617 -0.4163
18423SOL    HW156432   4.832   8.834   4.827 -0.5212  2.1079  0.5100
18423SOL    HW256433   4.766   8.714   4.762  3.2534  0.6095 -0.8740
18424SOL     OW56434   6.415   4.974   0.346 -1.1030 -0.2833 -0.1819
18424SOL    HW156435   6.371   4.989   0.263 -0.7814 -0.6139 -0.4135
18424SOL    HW256436   6.351   4.929   0.400 -0.7292 -1.6714 -0.8573
18425SOL     OW56437   7.246   3.291   4.751 -0.2841  0.2571 -0.0340
18425SOL    HW156438   7.336   3.266   4.773 -0.2924  0.0531 -0.2220
18425SOL    HW256439   7.255   3.356   4.682 -0.2918 -0.2502 -0.5241
18426SOL     OW56440   0.910   4.653   2.207 -0.1593  0.5168 -0.6285
18426SOL    HW156441   0.943   4.733   2.165 -0.5613  1.1807  0.2804
18426SOL    HW256442   0.839   4.683   2.263  0.9659 -0.1727  1.2811
18427SOL     OW56443   0.873   7.991   8.303 -0.4975 -0.4370 -0.0389
18427SOL    HW156444   0.914   8.071   8.272 -0.6766 -0.9634 -1.7591
18427SOL    HW256445   0.942   7.946   8.353  0.3343 -0.2544 -0.9846
18428SOL     OW56446   8.597   0.618   5.072  0.0731 -0.3468 -0.2274
18428SOL    HW156447   8.591   0.690   5.134 -0.6763 -1.0948  0.6075
18428SOL    HW256448   8.690   0.611   5.051  0.1870  0.6366 -0.0610
18429SOL     OW56449   8.468   4.045   3.395  0.7289  0.7972  0.3781
18429SOL    HW156450   8.410   4.118   3.417  0.1552  0.5715 -0.3344
18429SOL    HW256451   8.487   4.003   3.479 -2.2843 -0.7316  0.4161
18430SOL     OW56452   4.005   3.344   5.950 -0.0638 -0.1131  0.7545
18430SOL    HW156453   4.034   3.253   5.955 -0.8026 -0.4776 -1.0034
18430SOL    HW256454   3.921   3.341   5.904  0.6769  1.5788 -0.8830
18431SOL     OW56455   2.955   5.890   0.725 -0.0715 -0.2176  0.3003
18431SOL    HW156456   2.882   5.949   0.703 -2.0266 -2.1563  1.1864
18431SOL    HW256457   3.012   5.893   0.648  0.4337  3.4131  0.6261
18432SOL     OW56458   4.892   8.026   3.702  0.5456 -0.1680 -0.4924
18432SOL    HW156459   4.986   8.041   3.716  0.0724  2.0935  0.8162
18432SOL    HW256460   4.851   8.059   3.782 -1.5167  1.2475 -2.0245
18433SOL     OW56461   4.634   6.134   5.281 -0.0143  0.7872 -0.2206
18433SOL    HW156462   4.587   6.175   5.354  3.2889  1.3333  1.7982
18433SOL    HW256463   4.665   6.207   5.228  1.9144  0.7498  0.7736
18434SOL     OW56464   8.541   4.748   1.994 -0.0391 -0.2375  0.0085
18434SOL    HW156465   8.625   4.729   2.034  0.6563  0.3048 -1.1310
18434SOL    HW256466   8.535   4.688   1.920  0.5136  1.3562 -1.4105
18435SOL     OW56467   5.626   0.050   7.430  0.1844  0.0912 -0.2052
18435SOL    HW156468   5.534   0.072   7.417  0.4479  0.2647 -2.2215
18435SOL    HW256469   5.657   0.114   7.494 -1.1555 -0.1801  0.7531
18436SOL     OW56470   6.589   2.678   5.184  0.1942 -0.1378  0.0758
18436SOL    HW156471   6.580   2.759   5.134 -1.4023  1.3257  2.5020
18436SOL    HW256472   6.680   2.651   5.169 -0.1682  0.1948 -3.4250
18437SOL     OW56473   5.430   3.797   2.859  0.1858  0.1650  0.5933
18437SOL    HW156474   5.402   3.815   2.770 -0.9328 -0.4070  0.8146
18437SOL    HW256475   5.503   3.736   2.850 -0.4372 -0.5149  0.0917
18438SOL     OW56476   6.119   1.248   1.790  0.0963 -0.6489  0.2171
18438SOL    HW156477   6.105   1.328   1.740  0.5904  0.1941  1.3780
18438SOL    HW256478   6.197   1.208   1.752  1.0737  0.5195  0.9336
18439SOL     OW56479   4.256   7.596   6.097 -0.3518 -0.5262 -0.3449
18439SOL    HW156480   4.232   7.668   6.039 -1.9754 -1.5215 -0.9751
18439SOL    HW256481   4.268   7.521   6.038  1.9852 -0.6813  0.2154
18440SOL     OW56482   6.806   8.097   4.179 -0.1687 -0.3407  0.1209
18440SOL    HW156483   6.872   8.143   4.230 -0.0414  0.7616 -0.9894
18440SOL    HW256484   6.771   8.031   4.239  1.2355 -0.2980  1.0325
18441SOL     OW56485   7.131   3.313   6.060 -0.1496 -0.1817  0.2465
18441SOL    HW156486   7.125   3.380   6.127 -0.9988  1.5400 -1.4420
18441SOL    HW256487   7.045   3.271   6.061 -0.6495  0.7734 -0.6249
18442SOL     OW56488   4.774   8.248   4.963  0.2512 -0.2538 -0.9335
18442SOL    HW156489   4.793   8.204   5.046  1.3199  2.1496  0.2016
18442SOL    HW256490   4.681   8.232   4.949 -0.2833  0.3261  1.4308
18443SOL     OW56491   4.369   6.934   3.556 -0.4125 -0.3151  0.6594
18443SOL    HW156492   4.413   6.850   3.570 -0.2523 -0.4752 -0.6808
18443SOL    HW256493   4.422   6.997   3.605  2.2749 -0.2597 -2.0104
18444SOL     OW56494   1.917   6.613   1.612 -0.2400  0.2767 -0.1242
18444SOL    HW156495   1.917   6.686   1.550  2.2280  0.0935 -0.4268
18444SOL    HW256496   1.963   6.647   1.689  0.3723 -0.7626 -0.0167
18445SOL     OW56497   1.977   3.653   6.096 -0.4900 -0.0548 -0.0532
18445SOL    HW156498   1.907   3.701   6.140 -0.5932  0.6699 -0.9892
18445SOL    HW256499   1.979   3.568   6.141  0.5162  1.1894  2.4428
18446SOL     OW56500   5.417   2.790   2.126 -0.6521 -1.1312  0.3760
18446SOL    HW156501   5.435   2.859   2.062 -2.2576 -1.1601 -0.1227
18446SOL    HW256502   5.367   2.834   2.195 -0.0099 -1.3812  1.0186
18447SOL     OW56503   3.395   4.130   0.888 -0.1923 -0.0414 -0.4095
18447SOL    HW156504   3.340   4.208   0.886  0.2493  0.2564 -1.7261
18447SOL    HW256505   3.484   4.162   0.873  0.5233 -0.4249  2.4140
18448SOL     OW56506   5.725   2.131   0.563  0.4849 -0.1057  0.1730
18448SOL    HW156507   5.813   2.094   0.576  1.1648  1.0940 -0.7502
18448SOL    HW256508   5.734   2.187   0.486 -1.2562 -0.4025 -0.2959
18449SOL     OW56509   8.704   3.907   7.033 -0.4378 -0.3696 -0.3808
18449SOL    HW156510   8.749   3.851   6.970  0.0642 -2.3232  1.5938
18449SOL    HW256511   8.775   3.952   7.079 -0.7233 -0.3388  0.0283
18450SOL     OW56512   8.632   3.038   7.803 -0.9088  0.1412  0.2262
18450SOL    HW156513   8.571   3.101   7.842 -0.1507 -0.2108  2.0592
18450SOL    HW256514   8.718   3.066   7.833 -0.3509 -0.5591 -0.6628
18451SOL     OW56515   6.024   3.016   2.686  0.2496 -0.5461 -0.3654
18451SOL    HW156516   6.100   3.061   2.648  0.9733 -0.1880  1.3594
18451SOL    HW256517   6.019   2.933   2.640  1.0891 -0.1575 -1.1909
18452SOL     OW56518   1.357   2.852   0.969 -0.0747  0.2293 -0.0879
18452SOL    HW156519   1.340   2.776   0.914 -0.0440  0.0062  0.2057
18452SOL    HW256520   1.452   2.853   0.981  0.1384  1.4049 -1.6273
18453SOL     OW56521   1.409   1.844   5.277 -0.1630 -0.2745  0.1998
18453SOL    HW156522   1.352   1.840   5.201 -0.1659 -1.2378  0.2468
18453SOL    HW256523   1.355   1.885   5.345 -0.3362  0.0934 -0.1550
18454SOL     OW56524   4.649   6.293   7.053 -0.0236 -0.4331  0.1232
18454SOL    HW156525   4.605   6.375   7.074  2.8392  0.9665  1.1183
18454SOL    HW256526   4.579   6.235   7.023 -2.5747  1.3927  2.1650
18455SOL     OW56527   6.762   5.264   4.347  0.3701 -0.1966  0.0860
18455SOL    HW156528   6.747   5.338   4.406 -0.5724 -0.0826 -0.2813
18455SOL    HW256529   6.837   5.290   4.294  0.2984  0.3211  0.2376
18456SOL     OW56530   2.228   6.840   7.305  0.3972 -0.2092  0.5207
18456SOL    HW156531   2.192   6.811   7.221 -0.6462 -2.7176  1.7552
18456SOL    HW256532   2.321   6.854   7.287  0.1465 -0.4138 -1.1030
18457SOL     OW56533   2.468   3.414   5.695  0.1554 -0.3313  0.3845
18457SOL    HW156534   2.562   3.401   5.684  0.3033  0.6783  0.3830
18457SOL    HW256535   2.450   3.387   5.785 -0.1303 -3.5072 -0.5089
18458SOL     OW56536   4.489   7.942   8.800 -0.2183 -0.2952 -0.5194
18458SOL    HW156537   4.471   8.012   8.738  1.1632  1.3872  0.8512
18458SOL    HW256538   4.471   7.981   8.886 -2.0459 -2.5345  0.1928
18459SOL     OW56539   5.676   2.187   5.669 -0.0651  0.3373 -0.5105
18459SOL    HW156540   5.590   2.225   5.689 -0.5546 -1.3778  0.8902
18459SOL    HW256541   5.689   2.121   5.736  2.1834  0.2356 -0.9671
18460SOL     OW56542   4.919   2.985   2.341 -0.3840  0.3763 -0.0266
18460SOL    HW156543   4.969   2.976   2.261 -1.2528  0.2298 -0.5720
18460SOL    HW256544   4.936   2.905   2.390  1.6900  1.2836  0.8724
18461SOL     OW56545   4.539   1.603   7.897  0.2301  0.2200 -0.1298
18461SOL    HW156546   4.549   1.660   7.820 -1.1828  0.4949 -0.1214
18461SOL    HW256547   4.464   1.548   7.876 -1.0723  1.2374  1.6174
18462SOL     OW56548   7.759   0.711   4.342 -0.2508  0.2002  1.0235
18462SOL    HW156549   7.665   0.718   4.359 -0.6040  2.0375 -1.1984
18462SOL    HW256550   7.765   0.648   4.270  0.3571 -0.8147  1.9427
18463SOL     OW56551   1.244   2.263   7.374  0.0047 -0.3386  0.5395
18463SOL    HW156552   1.303   2.330   7.410 -0.8709  0.0305  1.3346
18463SOL    HW256553   1.187   2.311   7.314  0.6941 -0.7531 -0.4732
18464SOL     OW56554   7.149   2.293   0.996  1.0715  0.2306 -0.4971
18464SOL    HW156555   7.177   2.378   1.032 -0.6808  1.0526 -0.9843
18464SOL    HW256556   7.182   2.293   0.907  0.6422  0.6335 -0.6593
18465SOL     OW56557   6.874   4.112   2.832  0.2863  0.9157  0.6608
18465SOL    HW156558   6.861   4.132   2.925  3.6046  1.0518  1.2080
18465SOL    HW256559   6.874   4.197   2.788  1.9087  1.1507  1.0691
18466SOL     OW56560   8.452   4.378   7.549  0.0016 -0.0737 -0.5272
18466SOL    HW156561   8.494   4.305   7.594  0.6316 -0.3413 -1.5133
18466SOL    HW256562   8.518   4.447   7.548  0.0325 -0.1077 -1.1281
18467SOL     OW56563   6.510   1.972   5.797  0.5205  0.2509 -0.1858
18467SOL    HW156564   6.511   2.048   5.740  3.9864  0.5602  0.1224
18467SOL    HW256565   6.498   2.008   5.885  0.1383  0.2289 -0.2265
18468SOL     OW56566   1.068   4.908   1.086  0.1146 -0.9599 -0.0769
18468SOL    HW156567   1.007   4.839   1.110 -1.4999  0.4611  0.1048
18468SOL    HW256568   1.082   4.896   0.992 -1.5426 -0.5272 -0.4058
18469SOL     OW56569   2.705   3.149   1.917  0.3530  0.0362 -0.1209
18469SOL    HW156570   2.753   3.119   1.995 -0.2341 -1.2540 -0.2337
18469SOL    HW256571   2.670   3.069   1.878  0.5701  0.6656 -1.6875
18470SOL     OW56572   8.346   6.049   2.049  0.1370 -0.1395  0.2165
18470SOL    HW156573   8.423   6.021   2.001 -1.0758 -1.2783 -1.1706
18470SOL    HW256574   8.321   6.132   2.008  0.9473  0.5525  1.0826
18471SOL     OW56575   2.477   0.447   2.946 -0.0938  0.0065 -0.1464
18471SOL    HW156576   2.492   0.538   2.972 -1.1996 -0.0877  0.9055
18471SOL    HW256577   2.399   0.450   2.891 -2.1002 -0.6010  2.4425
18472SOL     OW56578   2.735   2.975   1.356  0.1246  0.2199  0.0762
18472SOL    HW156579   2.733   2.956   1.449  0.6836 -0.1208  0.0233
18472SOL    HW256580   2.694   2.900   1.314  1.8733 -0.6869 -0.0959
18473SOL     OW56581   5.765   3.561   6.546 -0.3720 -0.0616  0.7292
18473SOL    HW156582   5.763   3.613   6.626 -2.3795  0.9683  0.0828
18473SOL    HW256583   5.735   3.475   6.572 -1.5878  0.4295  1.0115
18474SOL     OW56584   5.340   6.097   3.027 -0.0282  0.3158  0.3539
18474SOL    HW156585   5.382   6.023   2.982  0.1015  0.0586  0.8937
18474SOL    HW256586   5.304   6.150   2.956 -0.5183 -0.4991 -0.0264
18475SOL     OW56587   3.372   7.073   7.892  0.1731  0.4898  0.4555
18475SOL    HW156588   3.419   6.999   7.931  1.5292 -0.1288 -2.1100
18475SOL    HW256589   3.280   7.048   7.895  0.5605 -1.0665  0.1595
18476SOL     OW56590   1.408   0.753   0.336 -0.3327 -0.3353 -0.4716
18476SOL    HW156591   1.354   0.787   0.407 -0.1619 -1.4349  0.2036
18476SOL    HW256592   1.481   0.709   0.379  0.1941 -0.3525 -1.3405
18477SOL     OW56593   5.149   7.962   1.953 -0.1095 -0.1825  0.3507
18477SOL    HW156594   5.147   8.051   1.987  3.5117 -0.1609  0.9066
18477SOL    HW256595   5.209   7.965   1.879 -4.2178 -1.2084 -3.4656
18478SOL     OW56596   6.630   8.824   7.428 -0.0957  0.5233  0.0743
18478SOL    HW156597   6.689   8.894   7.458 -0.1037  0.0130  1.3552
18478SOL    HW256598   6.645   8.753   7.490 -1.9668  0.3327  0.3575
18479SOL     OW56599   8.238   6.989   6.472  0.0896  0.2065  0.0185
18479SOL    HW156600   8.168   7.031   6.521 -2.6227 -2.8215 -0.9116
18479SOL    HW256601   8.292   6.946   6.538 -1.3463 -0.7846  0.5665
18480SOL     OW56602   6.457   6.328   2.193  0.4002 -0.3207  0.5869
18480SOL    HW156603   6.463   6.390   2.120  2.0904 -0.1435  0.8364
18480SOL    HW256604   6.534   6.272   2.184 -0.1123 -1.2037  1.4456
18481SOL     OW56605   3.320   2.214   2.745  0.5138 -0.3392  0.2629
18481SOL    HW156606   3.306   2.274   2.672 -0.7741  0.9372  1.4993
18481SOL    HW256607   3.254   2.145   2.732  1.1532 -0.8330 -0.4604
18482SOL     OW56608   4.668   3.260   6.088  0.6935 -0.7457 -0.1940
18482SOL    HW156609   4.596   3.200   6.109  0.0244  0.1978  0.3123
18482SOL    HW256610   4.635   3.312   6.014  1.2566 -0.9723 -0.6151
18483SOL     OW56611   4.871   6.307   0.393 -0.0009  0.6018  0.3509
18483SOL    HW156612   4.893   6.398   0.411  1.0957  0.0081  2.2610
18483SOL    HW256613   4.889   6.261   0.475 -3.4778 -0.8654  0.4823
18484SOL     OW56614   8.351   3.109   6.402  0.4618  1.1804 -0.1056
18484SOL    HW156615   8.433   3.145   6.437  0.8257  0.4631 -0.2060
18484SOL    HW256616   8.377   3.066   6.320 -0.0145  0.9411 -0.1346
18485SOL     OW56617   6.379   2.510   7.596  0.0203 -0.1434  0.1925
18485SOL    HW156618   6.373   2.448   7.669  1.4312 -3.4023 -2.1909
18485SOL    HW256619   6.473   2.514   7.576 -0.1769  1.8621 -0.5544
18486SOL     OW56620   1.815   5.715   5.069  0.1428 -0.0751 -0.2279
18486SOL    HW156621   1.797   5.673   4.985 -0.4616 -1.7468  0.6895
18486SOL    HW256622   1.910   5.705   5.081  0.8033  2.8307 -2.0071
18487SOL     OW56623   4.094   1.664   2.131  0.5165  0.3587 -0.1044
18487SOL    HW156624   4.123   1.581   2.094 -0.7624 -0.0816 -0.1564
18487SOL    HW256625   4.109   1.655   2.225 -0.2263 -0.1904 -0.0336
18488SOL     OW56626   0.129   0.961   2.485  0.0255  0.0588  0.2077
18488SOL    HW156627   0.067   1.034   2.488  1.0491  0.9806 -0.1023
18488SOL    HW256628   0.163   0.963   2.395  1.8711  0.7832  0.8849
18489SOL     OW56629   3.209   1.697   4.756 -0.1242  0.3858  0.4238
18489SOL    HW156630   3.257   1.639   4.815 -0.3305 -1.1668 -0.8305
18489SOL    HW256631   3.141   1.737   4.810  0.1901 -0.3761  1.4062
18490SOL     OW56632   5.547   4.771   5.812  0.2650  0.2247  0.1253
18490SOL    HW156633   5.523   4.793   5.901 -1.2517 -0.5103 -0.0752
18490SOL    HW256634   5.488   4.700   5.787 -0.7089  1.6985 -2.1303
18491SOL     OW56635   4.105   7.981   0.296 -0.1817  0.5063  0.2454
18491SOL    HW156636   4.069   7.895   0.318  0.4463 -0.0779 -0.9569
18491SOL    HW256637   4.048   8.013   0.226  1.8468 -0.6612 -2.0662
18492SOL     OW56638   1.738   6.269   4.608  0.0558 -0.3700  0.1185
18492SOL    HW156639   1.645   6.289   4.616  0.4430  1.3263  0.9154
18492SOL    HW256640   1.775   6.294   4.693  1.7585  2.4224 -1.2586
18493SOL     OW56641   4.430   5.254   4.972 -0.2449  1.4070 -0.4457
18493SOL    HW156642   4.391   5.288   5.053 -1.3555  0.1862 -0.4372
18493SOL    HW256643   4.517   5.224   4.999 -0.7857  0.5673  0.4249
18494SOL     OW56644   8.128   0.135   7.513 -0.0625 -0.2956  0.3368
18494SOL    HW156645   8.221   0.125   7.492  0.0761  1.2068  0.1355
18494SOL    HW256646   8.089   0.051   7.489  1.1548 -0.7779 -0.0426
18495SOL     OW56647   7.762   5.639   4.266  0.0471  0.0023 -0.7159
18495SOL    HW156648   7.822   5.579   4.311 -1.0889 -1.4374 -1.0467
18495SOL    HW256649   7.694   5.659   4.331 -0.6000 -0.6008 -1.1977
18496SOL     OW56650   6.713   1.366   7.771 -0.4049  0.7257  0.7102
18496SOL    HW156651   6.684   1.367   7.680 -1.3387 -0.5022  0.9698
18496SOL    HW256652   6.661   1.435   7.813 -1.2371  0.1498  0.6577
18497SOL     OW56653   1.859   6.228   1.819 -0.4804  1.0912  0.2430
18497SOL    HW156654   1.904   6.259   1.898 -2.0925  0.7512  1.3430
18497SOL    HW256655   1.827   6.141   1.842  0.6976  0.1317 -1.5025
18498SOL     OW56656   8.689   5.370   0.765 -0.1253 -0.1959  0.0981
18498SOL    HW156657   8.716   5.422   0.689 -0.1302 -0.0283  0.2101
18498SOL    HW256658   8.735   5.287   0.755  0.8110  0.2598  0.5454
18499SOL     OW56659   0.694   7.970   6.042 -0.3885 -0.3479  0.2394
18499SOL    HW156660   0.740   7.913   6.104  0.5518 -0.2470 -0.3325
18499SOL    HW256661   0.703   8.058   6.078  2.0208  0.0147 -1.0305
18500SOL     OW56662   0.167   8.144   4.424  0.2635 -0.1024  0.9155
18500SOL    HW156663   0.104   8.214   4.406  0.2138  0.7053  3.6892
18500SOL    HW256664   0.169   8.138   4.520  4.3560 -0.1124  0.9957
18501SOL     OW56665   7.768   0.717   7.625  0.7911  0.3652  0.3030
18501SOL    HW156666   7.837   0.770   7.583  1.9867 -0.3185  1.3304
18501SOL    HW256667   7.816   0.648   7.671 -0.6563 -0.6745  0.3034
18502SOL     OW56668   5.357   4.802   0.137  0.3263  0.2734 -0.7504
18502SOL    HW156669   5.426   4.867   0.148 -0.1574  0.5841  0.6987
18502SOL    HW256670   5.319   4.793   0.225  0.3278 -1.8887 -0.9164
18503SOL     OW56671   3.037   6.910   2.992  0.3289 -0.0120 -0.3617
18503SOL    HW156672   3.110   6.964   2.964 -1.1529  1.7811 -0.9516
18503SOL    HW256673   2.996   6.880   2.911 -0.7757  0.6982 -0.0889
18504SOL     OW56674   4.346   5.154   4.295 -0.6847  0.5142 -0.1469
18504SOL    HW156675   4.269   5.208   4.279 -0.6125  0.6056 -0.1847
18504SOL    HW256676   4.344   5.137   4.390 -1.3688 -0.4151 -0.3027
18505SOL     OW56677   5.438   1.082   2.166  0.7361 -0.6369 -0.3482
18505SOL    HW156678   5.385   1.020   2.217  3.2592 -0.7036  2.4441
18505SOL    HW256679   5.403   1.168   2.190 -0.4210 -0.7728 -1.4243
18506SOL     OW56680   4.270   0.039   8.476 -0.0429  0.4272 -0.5118
18506SOL    HW156681   4.335   0.006   8.537 -1.9918 -2.1790  0.3387
18506SOL    HW256682   4.243   0.123   8.514  0.8390  0.2251  0.6177
18507SOL     OW56683   6.976   5.481   4.777 -0.2718  0.2391  0.1501
18507SOL    HW156684   7.064   5.446   4.761  0.3087  1.5846  0.2480
18507SOL    HW256685   6.919   5.404   4.778  1.0466 -0.7711  1.1234
18508SOL     OW56686   3.271   5.460   6.773 -0.3080 -0.2791  0.0884
18508SOL    HW156687   3.354   5.497   6.743 -0.7151  0.0855 -0.6260
18508SOL    HW256688   3.204   5.510   6.726 -1.0106  0.6276  1.9676
18509SOL     OW56689   3.548   3.740   8.714 -0.5088  0.3339  0.5715
18509SOL    HW156690   3.558   3.835   8.722 -2.3397  0.7064 -0.8981
18509SOL    HW256691   3.572   3.721   8.624 -2.8774 -0.1165 -0.0372
18510SOL     OW56692   5.740   0.515   0.879  0.4006  0.2440 -0.1402
18510SOL    HW156693   5.672   0.448   0.867  0.1400  0.7798 -2.1485
18510SOL    HW256694   5.705   0.591   0.834  2.0656  0.7382 -0.6515
18511SOL     OW56695   5.326   3.965   3.254 -0.2799 -0.0198  0.3136
18511SOL    HW156696   5.410   3.954   3.298  0.0134 -0.3200 -0.3003
18511SOL    HW256697   5.265   3.908   3.300  0.0465 -0.4094  0.2644
18512SOL     OW56698   1.573   1.395   7.339 -0.0984  0.0775  0.3955
18512SOL    HW156699   1.504   1.430   7.282 -0.2389  0.9545  1.0822
18512SOL    HW256700   1.625   1.338   7.282  0.3550  1.6773 -0.8669
18513SOL     OW56701   5.464   3.492   5.121  0.2552  0.6514  0.0267
18513SOL    HW156702   5.378   3.505   5.160  0.9905  1.2486  1.5716
18513SOL    HW256703   5.525   3.508   5.193  1.6465 -0.1696 -0.9138
18514SOL     OW56704   7.432   7.041   5.699 -0.6075  0.2315 -0.2883
18514SOL    HW156705   7.470   7.030   5.786 -0.2724  2.4416 -0.1073
18514SOL    HW256706   7.496   7.001   5.640 -0.1625 -0.0449  0.3677
18515SOL     OW56707   5.598   8.656   7.855  0.8012 -0.2784 -0.5947
18515SOL    HW156708   5.587   8.564   7.880 -1.4385  0.3179  0.9456
18515SOL    HW256709   5.522   8.674   7.800  1.8107  0.4024 -1.8070
18516SOL     OW56710   0.110   2.319   3.860  0.2670 -0.2509  0.3169
18516SOL    HW156711   0.176   2.252   3.878 -0.0525 -1.1048 -1.4541
18516SOL    HW256712   0.045   2.274   3.805 -1.3391  0.8097  1.2655
18517SOL     OW56713   1.741   3.552   0.455  0.3600 -0.5520  0.4073
18517SOL    HW156714   1.659   3.524   0.415  0.0228  0.8239  0.0916
18517SOL    HW256715   1.782   3.471   0.486 -0.7099 -1.3382 -0.1919
18518SOL     OW56716   6.294   1.276   0.581 -0.4801 -0.7058 -0.4163
18518SOL    HW156717   6.330   1.231   0.504  2.7743  1.4324 -0.3495
18518SOL    HW256718   6.343   1.241   0.655  0.1016  0.8359 -0.0268
18519SOL     OW56719   6.429   8.641   8.466 -0.0004 -0.2488  0.4876
18519SOL    HW156720   6.465   8.730   8.468  1.2154 -0.6726 -0.5129
18519SOL    HW256721   6.362   8.644   8.398  0.5538 -0.2425 -0.0784
18520SOL     OW56722   8.448   3.822   7.079  0.2698  0.4351 -0.3312
18520SOL    HW156723   8.402   3.906   7.084  0.4691  0.4929  1.4048
18520SOL    HW256724   8.539   3.844   7.064  0.0223  0.4017 -2.0364
18521SOL     OW56725   0.198   4.736   4.333  0.1095 -0.6619  0.0632
18521SOL    HW156726   0.279   4.767   4.375  0.0740  0.8283 -0.8725
18521SOL    HW256727   0.221   4.651   4.297  1.0497 -0.5787  0.4307
18522SOL     OW56728   1.840   6.838   3.096 -0.4251  0.0707 -0.2126
18522SOL    HW156729   1.762   6.893   3.086 -0.9206 -0.7793 -1.2114
18522SOL    HW256730   1.912   6.900   3.108 -1.4117  0.8598  2.3204
18523SOL     OW56731   3.413   2.892   7.671  0.3412 -0.1474  0.2971
18523SOL    HW156732   3.478   2.958   7.651 -0.6363  0.7096 -0.1245
18523SOL    HW256733   3.359   2.931   7.740 -0.1355 -0.5777  0.1772
18524SOL     OW56734   2.061   2.203   3.296 -0.2069  0.0369  0.8377
18524SOL    HW156735   2.019   2.253   3.366 -1.4885  0.7210 -0.3705
18524SOL    HW256736   2.022   2.115   3.303  0.3955 -0.1923  1.5550
18525SOL     OW56737   5.821   6.782   3.362  0.1329  0.0054  0.2841
18525SOL    HW156738   5.916   6.796   3.366 -0.0864  1.4389  2.5569
18525SOL    HW256739   5.801   6.732   3.441 -1.1783  1.1942  0.7517
18526SOL     OW56740   7.579   2.277   6.773  0.6062  0.3477 -0.4608
18526SOL    HW156741   7.548   2.263   6.863 -0.1245 -0.4930 -0.8325
18526SOL    HW256742   7.505   2.319   6.729  0.9980  0.8442 -0.6622
18527SOL     OW56743   0.552   2.313   8.305 -0.8995  0.4948  0.1284
18527SOL    HW156744   0.567   2.251   8.376  0.1976  1.1711  0.5297
18527SOL    HW256745   0.531   2.395   8.350  1.4570  1.3647 -0.2008
18528SOL     OW56746   8.636   1.118   3.378  0.0375  0.0790 -0.0909
18528SOL    HW156747   8.613   1.123   3.470 -1.8242  0.0721 -0.5140
18528SOL    HW256748   8.650   1.209   3.351  0.2765  0.1033  0.1058
18529SOL     OW56749   4.305   2.535   7.256 -0.2345  0.4583 -0.0164
18529SOL    HW156750   4.342   2.623   7.264 -1.2891  1.0378 -1.0601
18529SOL    HW256751   4.372   2.485   7.210 -0.5792  1.4331 -1.6940
18530SOL     OW56752   0.397   0.029   0.765  0.1645  0.1238  0.4609
18530SOL    HW156753   0.305   0.009   0.751  0.2780 -0.9867  1.1553
18530SOL    HW256754   0.438   0.017   0.679 -0.0519 -1.1539  0.5156
18531SOL     OW56755   0.587   6.911   1.556  0.1737 -0.2402  0.1892
18531SOL    HW156756   0.682   6.912   1.550  0.2058 -1.4902  0.2321
18531SOL    HW256757   0.557   6.882   1.470 -0.0853 -1.4437  0.6638
18532SOL     OW56758   6.155   8.028   6.782 -0.5004  0.1557 -0.2925
18532SOL    HW156759   6.108   8.111   6.783  0.9566  1.0116  0.1860
18532SOL    HW256760   6.160   8.002   6.875  1.1611  0.8146 -0.1627
18533SOL     OW56761   5.640   2.618   6.698 -0.3758 -0.6829 -0.0636
18533SOL    HW156762   5.695   2.611   6.776 -0.8978 -0.2883  0.3426
18533SOL    HW256763   5.622   2.527   6.674 -0.2850 -0.8064  0.3273
18534SOL     OW56764   4.514   8.799   2.692  0.0623  0.0891 -0.0777
18534SOL    HW156765   4.552   8.718   2.725 -0.3278 -0.1758 -0.2780
18534SOL    HW256766   4.514   8.789   2.597  0.2563  0.4323 -0.1163
18535SOL     OW56767   2.792   1.209   5.983  0.5746  0.0904  0.1432
18535SOL    HW156768   2.811   1.118   5.960  0.2627  0.8608 -3.8893
18535SOL    HW256769   2.854   1.261   5.932 -0.8495  2.2088  0.4037
18536SOL     OW56770   0.575   5.624   2.672  0.2693  0.0103 -0.3371
18536SOL    HW156771   0.492   5.625   2.625 -0.2326  1.7662  0.5018
18536SOL    HW256772   0.552   5.643   2.763  1.5525  0.2504 -0.0320
18537SOL     OW56773   1.537   4.283   6.832 -0.3110 -0.2295 -0.5146
18537SOL    HW156774   1.606   4.229   6.871  0.7170 -0.2507 -2.2890
18537SOL    HW256775   1.563   4.373   6.851 -0.6382 -0.2585  0.1361
18538SOL     OW56776   0.161   3.424   1.425  0.4389  0.2519 -0.0158
18538SOL    HW156777   0.117   3.411   1.509 -0.6661  1.1062 -0.4271
18538SOL    HW256778   0.115   3.364   1.365  0.2663  0.6632 -0.3028
18539SOL     OW56779   4.977   0.949   0.412  0.4949  0.0740 -0.2829
18539SOL    HW156780   4.910   0.881   0.422 -0.1096  0.7211  0.0741
18539SOL    HW256781   4.989   0.957   0.317  0.5818 -0.5311 -0.3306
18540SOL     OW56782   1.302   6.140   4.015 -0.1421 -0.2031  0.2408
18540SOL    HW156783   1.216   6.098   4.009 -0.5480  0.7072 -0.5536
18540SOL    HW256784   1.333   6.118   4.103 -0.3098 -2.1699 -0.1339
18541SOL     OW56785   7.749   6.882   7.977  0.1277  0.3254  0.2275
18541SOL    HW156786   7.731   6.858   8.068 -0.2839  0.7472  0.2662
18541SOL    HW256787   7.678   6.943   7.955 -0.0172 -0.1007 -0.5123
18542SOL     OW56788   3.550   3.393   1.150  0.0471  0.2028  0.2545
18542SOL    HW156789   3.470   3.344   1.170 -0.0300  0.5458  0.7917
18542SOL    HW256790   3.520   3.480   1.125  0.3168  0.7477  1.7720
18543SOL     OW56791   7.671   1.010   2.787  0.3472  0.0219 -1.0089
18543SOL    HW156792   7.660   1.098   2.751 -1.2139  0.5218  0.5440
18543SOL    HW256793   7.674   1.023   2.882  2.0599 -1.4427 -0.8089
18544SOL     OW56794   2.215   1.908   3.795  0.5971  0.2228 -0.8500
18544SOL    HW156795   2.274   1.834   3.811  0.5047  0.4496  0.6606
18544SOL    HW256796   2.204   1.950   3.880 -0.5700  1.0847 -1.3839
18545SOL     OW56797   6.526   4.236   0.894  0.1787 -0.6879  0.4148
18545SOL    HW156798   6.514   4.155   0.945 -0.1806 -0.2952  0.9739
18545SOL    HW256799   6.593   4.215   0.829 -0.3088 -1.5990  0.1970
18546SOL     OW56800   1.698   4.131   5.872  0.5122  0.4725 -0.3966
18546SOL    HW156801   1.629   4.073   5.906 -0.0229  0.6097 -1.2262
18546SOL    HW256802   1.779   4.083   5.886  0.1408 -0.1753 -0.4317
18547SOL     OW56803   1.073   8.323   3.962  0.3104  0.0262  0.1445
18547SOL    HW156804   1.116   8.398   3.923 -0.2655  0.5751  0.5444
18547SOL    HW256805   1.087   8.252   3.899  0.2096  0.6541 -0.6078
18548SOL     OW56806   7.261   6.447   2.035  0.2838  0.1531  0.6079
18548SOL    HW156807   7.261   6.428   1.941 -0.9127 -0.8936  0.7883
18548SOL    HW256808   7.342   6.408   2.068  0.7322  0.5723  0.0146
18549SOL     OW56809   3.688   2.204   4.453 -0.1698  0.1699 -0.3773
18549SOL    HW156810   3.636   2.196   4.373 -0.2619  2.9655 -0.6983
18549SOL    HW256811   3.723   2.293   4.449 -1.9498  1.2764  3.7318
18550SOL     OW56812   4.174   1.996   6.815  0.1902  0.3516  0.1055
18550SOL    HW156813   4.173   1.904   6.844  0.2006  0.5338  0.7116
18550SOL    HW256814   4.223   1.995   6.733  0.0798 -0.2027  0.0407
18551SOL     OW56815   8.350   0.916   7.828 -0.3070 -0.5066  0.2407
18551SOL    HW156816   8.419   0.875   7.776 -0.7058 -0.6321 -0.1948
18551SOL    HW256817   8.395   0.951   7.904  0.1370 -1.1718  0.2871
18552SOL     OW56818   0.638   0.798   6.888 -0.3028 -0.0705  0.0263
18552SOL    HW156819   0.545   0.791   6.869 -0.4402  1.4841 -0.0495
18552SOL    HW256820   0.660   0.717   6.935 -1.3664 -1.0866 -1.1637
18553SOL     OW56821   4.332   6.941   7.117 -0.0588  0.4936  0.0852
18553SOL    HW156822   4.423   6.946   7.088 -0.3967 -0.2988 -1.1750
18553SOL    HW256823   4.336   6.964   7.210  1.0882  3.0240 -0.4953
18554SOL     OW56824   0.851   4.073   0.804 -0.7847 -0.9265 -0.0181
18554SOL    HW156825   0.817   4.139   0.743  0.6558 -0.8982 -0.8274
18554SOL    HW256826   0.857   3.993   0.751 -0.4386 -1.1492  0.3567
18555SOL     OW56827   5.104   5.563   5.569  0.7810 -0.2572  0.0643
18555SOL    HW156828   5.089   5.504   5.495  0.6247 -0.2631  0.0992
18555SOL    HW256829   5.017   5.579   5.605  1.0251 -2.2145  1.7587
18556SOL     OW56830   7.992   3.694   5.154  0.0676  0.1391 -0.0202
18556SOL    HW156831   7.922   3.683   5.090  0.1352 -1.1752  0.0928
18556SOL    HW256832   8.072   3.671   5.107  0.2349  0.1087  0.2720
18557SOL     OW56833   2.568   6.525   5.677 -0.2314 -0.8233 -0.0865
18557SOL    HW156834   2.547   6.540   5.584 -1.3269  0.6349  0.3540
18557SOL    HW256835   2.509   6.583   5.724  2.1506  0.5113  1.4420
18558SOL     OW56836   0.361   3.618   7.976 -0.6229 -0.2624  0.1860
18558SOL    HW156837   0.309   3.672   8.034  0.0608 -1.5435  2.0846
18558SOL    HW256838   0.299   3.588   7.909 -1.4326  1.2119  0.2488
18559SOL     OW56839   2.719   0.653   1.666  0.2741  0.5506  0.4856
18559SOL    HW156840   2.724   0.731   1.722 -0.1608  0.5426  0.5364
18559SOL    HW256841   2.626   0.639   1.653  0.3580  0.1516  0.3138
18560SOL     OW56842   6.324   8.782   5.927 -0.0394  0.3688 -0.1523
18560SOL    HW156843   6.231   8.804   5.921 -0.5825 -1.6932 -0.2169
18560SOL    HW256844   6.368   8.853   5.882 -1.6645  0.9599 -0.9094
18561SOL     OW56845   6.371   1.843   5.010 -0.2401 -0.1393 -0.1202
18561SOL    HW156846   6.465   1.833   5.022 -0.1554  0.6353 -0.0770
18561SOL    HW256847   6.361   1.870   4.918 -0.3273  0.7778  0.1455
18562SOL     OW56848   2.031   7.814   5.502  0.4492  0.1407  0.6491
18562SOL    HW156849   1.976   7.759   5.446 -0.8490  1.7690  0.2533
18562SOL    HW256850   2.044   7.762   5.581 -1.4339 -0.4248  0.6269
18563SOL     OW56851   2.334   1.643   8.819  0.3425  0.0570 -0.1262
18563SOL    HW156852   2.271   1.652   8.747 -0.2423  2.5980  0.5965
18563SOL    HW256853   2.401   1.583   8.785 -1.9280 -2.0129 -1.2447
18564SOL     OW56854   4.376   2.424   3.116 -0.0537  0.0298  0.5285
18564SOL    HW156855   4.354   2.464   3.200 -1.7863  2.2973 -0.8693
18564SOL    HW256856   4.297   2.437   3.062  1.1510 -0.9168 -1.5842
18565SOL     OW56857   1.584   6.251   4.928 -0.2546  0.0225 -0.5071
18565SOL    HW156858   1.669   6.215   4.950 -0.5619 -1.0345 -0.9493
18565SOL    HW256859   1.548   6.282   5.011  0.3688  0.0658 -0.2512
18566SOL     OW56860   5.594   1.685   3.306 -0.3766  0.4859  0.0206
18566SOL    HW156861   5.585   1.695   3.400 -0.8765 -0.5134  0.0860
18566SOL    HW256862   5.504   1.670   3.275 -0.0085 -0.9946 -0.3817
18567SOL     OW56863   5.004   0.758   0.898 -0.3721 -0.2254  0.2172
18567SOL    HW156864   5.081   0.809   0.924 -0.9071  0.2345  0.9270
18567SOL    HW256865   4.930   0.808   0.932 -0.9950 -0.6063 -0.5616
18568SOL     OW56866   7.488   8.137   1.268 -0.2729 -0.0689 -0.0880
18568SOL    HW156867   7.440   8.132   1.351  0.1110 -2.1919  0.0741
18568SOL    HW256868   7.443   8.073   1.211 -0.0382  0.7754 -1.2537
18569SOL     OW56869   1.063   4.178   3.641 -0.0144 -0.3824  0.0927
18569SOL    HW156870   0.995   4.236   3.610  0.4524 -0.3125 -0.8298
18569SOL    HW256871   1.031   4.146   3.726 -0.7722  0.3358  0.0846
18570SOL     OW56872   4.974   1.377   7.491  0.2515  0.3548 -0.4761
18570SOL    HW156873   4.899   1.328   7.454 -1.0564  0.7449  1.5255
18570SOL    HW256874   5.023   1.406   7.414 -1.1144 -0.7461 -1.8394
18571SOL     OW56875   3.109   3.441   5.247  0.3709  0.1784 -0.5167
18571SOL    HW156876   3.097   3.520   5.195 -1.9117  0.5019  0.3992
18571SOL    HW256877   3.140   3.472   5.332  0.0193  0.0526 -0.3390
18572SOL     OW56878   8.166   6.119   7.203 -0.5545  0.1740  0.2869
18572SOL    HW156879   8.092   6.170   7.171  0.0737  0.2567 -1.1097
18572SOL    HW256880   8.140   6.028   7.190  0.3885  0.1858 -2.3359
18573SOL     OW56881   0.044   4.950   8.092 -0.3019  0.0341  0.3172
18573SOL    HW156882  -0.009   5.029   8.089  2.6430  2.1368 -1.4068
18573SOL    HW256883   0.031   4.910   8.006 -0.6437 -0.5632  0.6414
18574SOL     OW56884   7.840   3.132   6.054  0.3745  0.0216  0.7905
18574SOL    HW156885   7.892   3.211   6.041 -1.5170  1.2244  0.1368
18574SOL    HW256886   7.765   3.142   5.995 -1.0813 -1.1884  2.3118
18575SOL     OW56887   2.013   2.362   8.838 -0.6244  0.1629  0.9442
18575SOL    HW156888   1.956   2.417   8.784  0.4247 -1.6773 -2.3231
18575SOL    HW256889   2.064   2.424   8.890 -0.0587  2.3348 -1.9287
18576SOL     OW56890   5.362   6.360   8.783 -0.1725  0.0084 -0.1559
18576SOL    HW156891   5.409   6.297   8.728  0.3784  1.9710 -2.0516
18576SOL    HW256892   5.270   6.332   8.779  0.1463 -1.0290 -0.4342
18577SOL     OW56893   0.068   2.159   5.299  0.1022  0.3172 -0.5198
18577SOL    HW156894   0.032   2.104   5.229 -0.8889  1.3098 -0.8081
18577SOL    HW256895   0.155   2.123   5.314 -0.2769 -0.9342 -1.1396
18578SOL     OW56896   1.638   6.356   1.003  1.0809  0.1730  0.2146
18578SOL    HW156897   1.584   6.279   1.016  0.9300  0.4870  1.5512
18578SOL    HW256898   1.722   6.321   0.972 -0.0055 -0.2805 -2.5707
18579SOL     OW56899   4.303   2.377   7.914  0.0829 -0.3397  0.6105
18579SOL    HW156900   4.238   2.339   7.974 -0.7822  1.5305  0.9208
18579SOL    HW256901   4.251   2.417   7.845  0.9381  0.4375  0.4019
18580SOL     OW56902   7.324   8.818   8.184  0.1942  0.3756 -0.1041
18580SOL    HW156903   7.337   8.727   8.156  0.3325  0.1635  0.6156
18580SOL    HW256904   7.304   8.811   8.278  0.0859  1.0802 -0.0716
18581SOL     OW56905   5.464   8.222   8.383  0.0608 -0.5031 -0.1228
18581SOL    HW156906   5.447   8.229   8.477 -1.0094 -1.2201 -0.2407
18581SOL    HW256907   5.410   8.291   8.344 -1.5233 -1.8241 -0.3839
18582SOL     OW56908   2.752   0.602   3.338  0.2414  0.2255  0.6441
18582SOL    HW156909   2.661   0.613   3.365 -0.0213 -1.6603  0.6429
18582SOL    HW256910   2.747   0.553   3.256  1.2500 -0.1058  0.7655
18583SOL     OW56911   3.847   6.299   0.717  0.1856  0.5124 -0.1984
18583SOL    HW156912   3.767   6.246   0.721  0.4863  0.1207  0.9970
18583SOL    HW256913   3.861   6.327   0.807  0.6877  1.6729 -0.6232
18584SOL     OW56914   7.095   5.368   7.137  0.3703  0.2448 -0.5123
18584SOL    HW156915   7.098   5.285   7.090 -0.3249 -0.2131  0.2213
18584SOL    HW256916   7.094   5.435   7.068 -0.5664 -0.3988 -1.1433
18585SOL     OW56917   5.068   4.269   7.564  0.1132 -0.2641  0.1073
18585SOL    HW156918   5.125   4.245   7.490 -1.1734 -2.3492 -0.2752
18585SOL    HW256919   5.031   4.186   7.594  0.7355  0.4656  3.2873
18586SOL     OW56920   0.548   1.137   2.054 -0.8419 -0.1250 -0.0694
18586SOL    HW156921   0.618   1.146   2.119 -1.8100  1.0272  0.8501
18586SOL    HW256922   0.591   1.153   1.970  0.1865 -0.4156  0.3820
18587SOL     OW56923   1.529   7.554   0.923 -0.1144  0.5185  0.4290
18587SOL    HW156924   1.474   7.485   0.885 -0.9595 -1.1369  4.1863
18587SOL    HW256925   1.467   7.620   0.953  0.5430  1.8427 -0.9593
18588SOL     OW56926   5.813   0.289   3.494 -0.5294 -0.1254  0.7337
18588SOL    HW156927   5.762   0.229   3.547 -0.6963  0.6628  1.4898
18588SOL    HW256928   5.846   0.355   3.556 -0.8896  0.9247 -0.1480
18589SOL     OW56929   8.456   7.839   5.285 -0.2047  0.3546 -0.1557
18589SOL    HW156930   8.525   7.817   5.349  0.9249  0.9900 -1.1087
18589SOL    HW256931   8.434   7.930   5.305  0.9188  0.9042 -1.3166
18590SOL     OW56932   7.663   1.335   0.645 -0.6734  0.2656  0.1408
18590SOL    HW156933   7.741   1.389   0.634 -0.0468 -0.8494 -1.1317
18590SOL    HW256934   7.611   1.382   0.711  1.2082  0.8576  1.2932
18591SOL     OW56935   1.973   7.487   3.221 -0.2557  0.1003 -0.3306
18591SOL    HW156936   1.978   7.568   3.171 -1.6881 -0.3486 -1.2699
18591SOL    HW256937   2.053   7.440   3.197 -0.5302  0.2454 -1.6125
18592SOL     OW56938   2.690   1.388   2.181  0.2711  0.0300  0.3884
18592SOL    HW156939   2.628   1.336   2.129  3.4576 -1.6651 -2.0736
18592SOL    HW256940   2.720   1.329   2.250 -1.1943  1.0633  1.9917
18593SOL     OW56941   4.893   4.383   0.594 -0.1520 -0.0537 -0.1439
18593SOL    HW156942   4.847   4.318   0.647 -0.1277 -0.5427 -0.7156
18593SOL    HW256943   4.911   4.339   0.511 -0.8629  0.9367 -0.8536
18594SOL     OW56944   5.108   3.481   5.969  0.9369  0.0594  0.0232
18594SOL    HW156945   5.077   3.567   5.942  0.1283 -0.1323  0.2939
18594SOL    HW256946   5.131   3.436   5.888  0.1831  0.0985 -0.2209
18595SOL     OW56947   1.285   1.182   2.119 -0.5776 -0.2624  0.3768
18595SOL    HW156948   1.286   1.276   2.104 -4.0260 -0.0545  0.5608
18595SOL    HW256949   1.340   1.146   2.050  0.3927  1.8347 -0.0204
18596SOL     OW56950   8.809   7.675   8.314  0.1015  0.3835 -0.6177
18596SOL    HW156951   8.861   7.637   8.385  2.2557  1.4927 -1.5150
18596SOL    HW256952   8.841   7.632   8.235 -1.1742  0.2780 -1.0872
18597SOL     OW56953   2.906   6.151   1.666 -0.1844 -0.5516 -0.5268
18597SOL    HW156954   2.988   6.109   1.639  0.0339  0.2909 -1.2483
18597SOL    HW256955   2.923   6.245   1.655 -0.5748 -0.2316  1.2548
18598SOL     OW56956   4.663   2.780   6.599  1.0453  0.4241  0.2849
18598SOL    HW156957   4.717   2.777   6.520  1.7203 -0.2160  0.7677
18598SOL    HW256958   4.588   2.834   6.573  0.9797 -0.2196 -0.9690
18599SOL     OW56959   4.178   5.733   2.441 -0.3671  0.0970  0.8205
18599SOL    HW156960   4.169   5.715   2.347 -1.1414 -1.7919  1.2018
18599SOL    HW256961   4.272   5.728   2.457 -0.3488 -1.6125  0.4482
18600SOL     OW56962   8.423   1.697   7.449 -0.0861  0.1676 -0.0930
18600SOL    HW156963   8.507   1.732   7.420 -0.1904 -1.0500 -2.0029
18600SOL    HW256964   8.446   1.635   7.518  0.4105  1.0482  0.5644
18601SOL     OW56965   7.655   6.296   4.143 -0.6013  0.5355 -0.3522
18601SOL    HW156966   7.625   6.298   4.234  0.5781 -2.4894  0.2200
18601SOL    HW256967   7.584   6.253   4.095 -0.4502  0.4417 -0.4940
18602SOL     OW56968   0.141   3.878   4.090  0.3268 -0.3959 -0.4403
18602SOL    HW156969   0.200   3.812   4.126 -1.0074 -2.3849 -1.6474
18602SOL    HW256970   0.183   3.906   4.009  1.2400  0.8186  0.4282
18603SOL     OW56971   5.570   1.079   5.802  0.7085 -0.2620  0.2450
18603SOL    HW156972   5.643   1.054   5.744  0.1522  0.0622 -0.6079
18603SOL    HW256973   5.541   0.996   5.840  1.0084 -0.4955 -0.0219
18604SOL     OW56974   3.607   2.927   8.302  0.4089  0.1637  0.5603
18604SOL    HW156975   3.517   2.936   8.333 -0.2171  1.0728 -1.3926
18604SOL    HW256976   3.604   2.855   8.238  1.1511 -0.0388  0.7345
18605SOL     OW56977   7.924   5.513   2.206  0.3244  0.5771  0.2750
18605SOL    HW156978   8.011   5.476   2.222  0.4355 -0.9304 -3.0042
18605SOL    HW256979   7.941   5.594   2.158 -0.0904  1.1891  1.1361
18606SOL     OW56980   8.749   5.626   4.825  0.0793  0.0473  0.1119
18606SOL    HW156981   8.819   5.570   4.857 -0.7492 -0.4200  1.1602
18606SOL    HW256982   8.697   5.570   4.767  0.4844  0.3560 -0.5633
18607SOL     OW56983   2.489   8.277   1.796  0.2660 -0.2932  0.2821
18607SOL    HW156984   2.510   8.230   1.715  1.2545  0.5504  0.0180
18607SOL    HW256985   2.448   8.358   1.767  0.2762 -0.1596  0.6352
18608SOL     OW56986   5.905   4.995   7.752 -0.6498 -0.5151 -0.4231
18608SOL    HW156987   5.896   4.902   7.729 -0.4510  0.3716 -5.0705
18608SOL    HW256988   5.989   5.021   7.713 -1.0679  1.7727  0.0646
18609SOL     OW56989   2.980   2.338   5.684  0.0991  0.2865 -0.6158
18609SOL    HW156990   2.898   2.293   5.704 -0.6113  1.4494 -0.8234
18609SOL    HW256991   2.955   2.408   5.624  0.9177  1.8996  0.8341
18610SOL     OW56992   4.470   2.764   7.315 -0.3470 -0.3559  0.4891
18610SOL    HW156993   4.446   2.847   7.357  3.2065  0.5534  1.0188
18610SOL    HW256994   4.474   2.786   7.222 -2.9013 -0.9870  0.1375
18611SOL     OW56995   4.061   0.573   0.321  0.1900  0.2826  0.2928
18611SOL    HW156996   3.985   0.621   0.288  1.9551  1.3626 -2.5878
18611SOL    HW256997   4.057   0.488   0.277  0.7567  0.4320 -0.0614
18612SOL     OW56998   7.193   3.837   1.491 -0.1038 -0.2170  0.5484
18612SOL    HW156999   7.241   3.822   1.572 -1.8726 -0.8409  1.5399
18612SOL    HW257000   7.167   3.750   1.462 -0.8642  0.1195  0.2001
18613SOL     OW57001   6.491   3.773   8.832  0.0794  0.1743 -0.3272
18613SOL    HW157002   6.416   3.722   8.801  0.5917  0.5305 -2.2593
18613SOL    HW257003   6.523   3.819   8.755  0.8708  1.8799  0.9452
18614SOL     OW57004   3.178   7.273   3.495 -0.2736  0.3642 -0.1718
18614SOL    HW157005   3.230   7.233   3.565 -1.0888 -0.1371  0.1663
18614SOL    HW257006   3.087   7.262   3.524 -0.5797  0.9856 -0.8728
18615SOL     OW57007   1.786   5.581   2.060 -0.2022 -0.2511 -0.0802
18615SOL    HW157008   1.784   5.630   1.978 -0.3715 -0.5786 -0.2710
18615SOL    HW257009   1.727   5.631   2.118 -0.1501 -0.0689 -0.1813
18616SOL     OW57010   8.707   6.532   0.861  0.3424 -0.3593 -0.1210
18616SOL    HW157011   8.679   6.616   0.897  0.0493 -0.7794  0.6534
18616SOL    HW257012   8.643   6.469   0.894  1.2605 -1.0813  0.3392
18617SOL     OW57013   5.333   0.552   4.412  0.2186  0.4552 -0.4187
18617SOL    HW157014   5.356   0.462   4.437 -1.4122 -0.2825 -1.3804
18617SOL    HW257015   5.262   0.575   4.471  0.3800  0.9869 -0.4291
18618SOL     OW57016   7.344   2.342   1.301 -0.8627  0.2785  0.2623
18618SOL    HW157017   7.439   2.353   1.288 -0.6006 -0.6055  1.2500
18618SOL    HW257018   7.334   2.251   1.326 -1.8749  0.5885  1.0560
18619SOL     OW57019   3.073   7.298   3.862 -0.3695 -0.6000 -0.2089
18619SOL    HW157020   3.000   7.236   3.861 -0.7200 -0.2535 -2.7259
18619SOL    HW257021   3.052   7.362   3.794  0.5339  1.6896  1.5405
18620SOL     OW57022   8.396   7.801   0.318  0.2242  0.2761 -0.0401
18620SOL    HW157023   8.444   7.882   0.299  0.5493  0.2269  0.5375
18620SOL    HW257024   8.324   7.828   0.375 -1.3337  0.5763 -2.0520
18621SOL     OW57025   6.089   2.283   4.520 -0.2319 -0.0773 -0.7672
18621SOL    HW157026   6.165   2.328   4.558 -1.7143  0.1052  2.2905
18621SOL    HW257027   6.021   2.351   4.517 -0.6815 -0.5379 -2.3739
18622SOL     OW57028   7.204   6.886   3.848  0.7627  0.5598  0.3648
18622SOL    HW157029   7.145   6.813   3.867 -0.2708  1.1660 -0.4153
18622SOL    HW257030   7.164   6.961   3.892  1.0365  0.9380 -0.0194
18623SOL     OW57031   0.363   8.200   2.760 -0.2549 -0.1158 -0.1382
18623SOL    HW157032   0.283   8.252   2.768 -0.4297 -0.6547  2.7060
18623SOL    HW257033   0.431   8.264   2.740 -1.1215  0.5679 -1.0146
18624SOL     OW57034   2.965   5.601   6.439  0.0388  0.2576  0.1485
18624SOL    HW157035   3.019   5.625   6.515  1.1107 -1.3194 -0.0531
18624SOL    HW257036   2.909   5.530   6.472 -1.3616  1.3261  0.1313
18625SOL     OW57037   5.778   5.422   8.469 -0.3216  0.1484  0.6553
18625SOL    HW157038   5.795   5.345   8.415  1.9779  0.9508  0.1604
18625SOL    HW257039   5.829   5.407   8.549  0.4679  1.3223  0.3879
18626SOL     OW57040   7.996   4.701   2.056  0.5495  0.2171  0.1706
18626SOL    HW157041   8.085   4.734   2.043  0.6938 -0.1419  0.2614
18626SOL    HW257042   7.948   4.731   1.978  0.7759  0.3141  0.0686
18627SOL     OW57043   8.782   5.321   2.974  0.3768  0.5759  0.2335
18627SOL    HW157044   8.865   5.278   2.993 -0.0677 -0.7290 -0.6730
18627SOL    HW257045   8.806   5.414   2.963  1.4867  0.4468  1.2977
18628SOL     OW57046   6.341   5.585   8.673 -0.0965  0.2849 -0.0202
18628SOL    HW157047   6.327   5.676   8.700 -0.5763 -0.0718  0.9665
18628SOL    HW257048   6.254   5.553   8.650  0.1246  0.1856 -0.7418
18629SOL     OW57049   5.239   5.250   4.653  0.2853  0.0887 -0.1333
18629SOL    HW157050   5.256   5.191   4.581  1.8187 -0.2051  0.4409
18629SOL    HW257051   5.311   5.313   4.651 -0.3433  0.8502  0.3660
18630SOL     OW57052   7.080   3.322   1.542  0.1807  0.2604 -0.0751
18630SOL    HW157053   7.087   3.339   1.635  0.7818  0.0986 -0.0896
18630SOL    HW257054   6.986   3.323   1.524  0.0566  0.0398  0.5740
18631SOL     OW57055   1.434   5.453   4.698 -0.3606  0.5755  0.6731
18631SOL    HW157056   1.361   5.500   4.656 -0.0010 -0.6470 -1.4151
18631SOL    HW257057   1.395   5.370   4.727  0.0171  0.2627  0.2849
18632SOL     OW57058   8.193   3.785   3.647  0.0314  0.2312  0.3510
18632SOL    HW157059   8.226   3.695   3.648 -0.9811 -0.1917 -1.5580
18632SOL    HW257060   8.113   3.781   3.700  1.1857  0.5745  2.2483
18633SOL     OW57061   0.505   4.876   8.246 -0.0340  0.1652  0.6262
18633SOL    HW157062   0.545   4.961   8.264 -0.1428  0.0359  1.5031
18633SOL    HW257063   0.423   4.897   8.201 -0.1995  0.5336  1.1002
18634SOL     OW57064   4.277   0.928   4.449 -0.0571  0.0524  0.3143
18634SOL    HW157065   4.328   0.944   4.529 -0.3717  0.6721  0.3976
18634SOL    HW257066   4.334   0.873   4.395 -0.3315 -1.4191  1.4673
18635SOL     OW57067   2.367   7.145   2.896 -0.8368  0.2414  0.3172
18635SOL    HW157068   2.374   7.107   2.984  1.6198 -0.3882 -0.0858
18635SOL    HW257069   2.437   7.210   2.892 -1.1828  0.5601 -1.0461
18636SOL     OW57070   2.288   6.880   6.316  0.3380 -0.2181 -0.6397
18636SOL    HW157071   2.374   6.897   6.280  0.4636 -0.9988 -0.7182
18636SOL    HW257072   2.262   6.796   6.278  0.2462 -0.7949  0.6502
18637SOL     OW57073   3.323   7.414   1.983  0.0615 -0.4310  0.1104
18637SOL    HW157074   3.345   7.500   2.019  0.8923  0.2486 -1.8762
18637SOL    HW257075   3.249   7.432   1.925  0.5750 -0.9526 -0.7149
18638SOL     OW57076   4.278   7.328   1.369 -0.2759 -0.2324  0.2974
18638SOL    HW157077   4.282   7.363   1.458  0.6337  2.0968 -0.5868
18638SOL    HW257078   4.301   7.236   1.379 -0.3864 -0.0949  2.4716
18639SOL     OW57079   3.507   7.971   7.035  0.3750  0.1330 -0.1511
18639SOL    HW157080   3.474   8.046   6.985 -1.4574 -0.6391 -0.1736
18639SOL    HW257081   3.589   8.002   7.074 -0.9860  2.6008  0.9506
18640SOL     OW57082   4.107   6.314   2.964  0.4165 -0.3054  0.5521
18640SOL    HW157083   4.137   6.367   3.038 -0.4256  0.9725  0.0132
18640SOL    HW257084   4.120   6.370   2.888 -1.9068 -0.2317  0.1306
18641SOL     OW57085   3.384   7.269   3.687 -0.1376 -0.1858  0.5097
18641SOL    HW157086   3.467   7.278   3.734  0.3035 -2.2184  0.2154
18641SOL    HW257087   3.339   7.351   3.702  2.1259  1.1881  0.2715
18642SOL     OW57088   8.667   2.608   0.561 -0.1234  0.3370 -0.8315
18642SOL    HW157089   8.644   2.520   0.530  0.8857 -1.1051  2.0435
18642SOL    HW257090   8.587   2.640   0.603 -0.1003  0.1779 -0.6629
18643SOL     OW57091   1.801   4.709   3.873  0.4487  0.3646  0.1153
18643SOL    HW157092   1.827   4.800   3.859  0.1894  0.7266  1.8176
18643SOL    HW257093   1.782   4.703   3.967 -0.1187 -1.2995 -0.0695
18644SOL     OW57094   4.700   2.464   6.380  0.6355 -0.0807  0.6864
18644SOL    HW157095   4.731   2.380   6.347 -1.8649 -0.3894 -1.1549
18644SOL    HW257096   4.633   2.442   6.445  0.1833  0.4579  0.4142
18645SOL     OW57097   5.365   4.160   4.725  0.4189  0.6858 -0.0235
18645SOL    HW157098   5.293   4.116   4.770 -0.5537  0.4270 -1.7499
18645SOL    HW257099   5.444   4.130   4.770 -0.1928 -2.7113 -0.9682
18646SOL     OW57100   3.588   0.290   7.424  0.1828  0.1251  0.1710
18646SOL    HW157101   3.630   0.328   7.501 -0.7961 -2.3580  2.0701
18646SOL    HW257102   3.651   0.226   7.391 -0.4500 -0.7100  0.5509
18647SOL     OW57103   4.367   8.288   1.344  0.0524 -0.2357  0.1505
18647SOL    HW157104   4.362   8.378   1.311 -0.0206 -0.1389  0.4288
18647SOL    HW257105   4.450   8.285   1.392 -0.7941  0.1986  1.6836
18648SOL     OW57106   0.997   5.749   7.838 -0.2997 -0.1929  0.3485
18648SOL    HW157107   0.912   5.784   7.864 -0.3384 -1.0052  1.3994
18648SOL    HW257108   1.061   5.810   7.874 -0.4351  0.9983 -1.3503
18649SOL     OW57109   3.340   8.186   4.626  0.2314 -0.6316  0.0570
18649SOL    HW157110   3.431   8.156   4.613  1.1032  1.6835  0.4252
18649SOL    HW257111   3.302   8.185   4.539  1.4380  0.7742 -0.5291
18650SOL     OW57112   6.598   1.135   0.239  0.1231 -0.0632  0.5966
18650SOL    HW157113   6.630   1.140   0.329 -1.6229 -0.2329  1.2761
18650SOL    HW257114   6.547   1.215   0.227 -0.4487 -0.4881  0.1039
18651SOL     OW57115   1.882   4.915   1.764 -0.2645 -0.0977  0.5175
18651SOL    HW157116   1.888   4.841   1.826 -1.4687 -0.3832  0.3356
18651SOL    HW257117   1.901   4.876   1.679 -0.9388 -0.2320  0.4163
18652SOL     OW57118   8.350   2.921   4.370 -0.2147 -0.0049 -0.4410
18652SOL    HW157119   8.279   2.860   4.387  0.6391 -1.0986 -0.6796
18652SOL    HW257120   8.419   2.895   4.431  1.0862 -0.9210 -2.2005
18653SOL     OW57121   5.017   5.282   7.943 -0.5020  0.4833  0.3408
18653SOL    HW157122   4.970   5.206   7.909  0.6009  0.7858 -2.0870
18653SOL    HW257123   5.087   5.244   7.997 -0.2681 -0.2156 -0.4375
18654SOL     OW57124   2.660   8.719   4.207 -0.5939 -0.3692  0.5951
18654SOL    HW157125   2.652   8.814   4.199 -0.5808 -0.4708 -0.9167
18654SOL    HW257126   2.700   8.706   4.293  0.7799  1.0881  0.2338
18655SOL     OW57127   7.282   6.487   8.721  0.2364 -0.3010  0.5352
18655SOL    HW157128   7.293   6.580   8.702 -0.5630 -0.5316 -1.2474
18655SOL    HW257129   7.358   6.445   8.682 -0.7226 -0.6397 -1.0400
18656SOL     OW57130   4.719   0.025   3.789 -0.0951  0.4958  0.2085
18656SOL    HW157131   4.725   0.018   3.885  1.7947  2.8497  0.3561
18656SOL    HW257132   4.762   0.108   3.769 -1.5668  0.6678 -2.6153
18657SOL     OW57133   4.890   3.197   1.968  0.0014  0.2523 -0.2256
18657SOL    HW157134   4.966   3.245   1.936  0.2488  0.7718  1.0983
18657SOL    HW257135   4.817   3.258   1.956 -0.3284 -0.4245 -1.9547
18658SOL     OW57136   8.120   3.057   1.616 -0.0453  0.1408 -0.0394
18658SOL    HW157137   8.113   3.112   1.538  0.4448  1.4839  0.8172
18658SOL    HW257138   8.118   3.119   1.689 -1.3293 -1.1395  1.0737
18659SOL     OW57139   8.308   1.311   6.781 -0.0157 -0.2678  1.1894
18659SOL    HW157140   8.401   1.333   6.771 -0.1882  0.1065  0.3739
18659SOL    HW257141   8.288   1.256   6.706 -0.2382 -1.1185  1.8504
18660SOL     OW57142   8.815   0.979   7.682 -0.1488  0.3511 -0.1092
18660SOL    HW157143   8.788   1.021   7.764  1.2173  3.1096 -0.9566
18660SOL    HW257144   8.898   1.021   7.660 -1.1525  0.7725 -3.6100
18661SOL     OW57145   4.238   0.510   2.138  0.3456 -0.0792 -0.3154
18661SOL    HW157146   4.171   0.496   2.071 -0.4085 -0.5829  0.5197
18661SOL    HW257147   4.201   0.471   2.217  0.5735  1.8338  0.7754
18662SOL     OW57148   0.786   7.336   1.518  0.4449  0.2868 -0.6781
18662SOL    HW157149   0.753   7.421   1.547 -0.2103  0.4119 -1.7408
18662SOL    HW257150   0.708   7.287   1.491  0.8407 -0.5511 -0.3409
18663SOL     OW57151   3.140   6.315   5.932  0.1301 -0.2951  0.0071
18663SOL    HW157152   3.097   6.390   5.974  0.2811 -0.5868  0.7002
18663SOL    HW257153   3.214   6.353   5.885  0.0423  0.0244  0.1274
18664SOL     OW57154   3.581   1.608   6.869 -0.1830  0.2662  0.0853
18664SOL    HW157155   3.651   1.556   6.909  0.4960 -0.2063 -1.6017
18664SOL    HW257156   3.560   1.674   6.934  1.5892  0.1834  0.8044
18665SOL     OW57157   5.736   1.052   0.679  0.5558 -0.2037 -0.2958
18665SOL    HW157158   5.721   1.061   0.773 -3.1792  0.8595 -0.8507
18665SOL    HW257159   5.794   1.124   0.657  1.7030 -0.6303  1.1746
18666SOL     OW57160   8.640   8.141   6.917  0.1001 -0.2318 -0.1755
18666SOL    HW157161   8.605   8.222   6.881 -1.3181 -0.3470  0.8394
18666SOL    HW257162   8.678   8.095   6.842  0.0682  0.9218 -0.9226
18667SOL     OW57163   3.992   0.307   0.736 -0.3006 -0.4929  0.1797
18667SOL    HW157164   3.897   0.320   0.738 -0.4192 -0.7203 -1.8916
18667SOL    HW257165   4.028   0.395   0.723 -0.4491 -0.7076 -2.0910
18668SOL     OW57166   4.185   4.512   5.450  0.6562 -0.2803  0.1151
18668SOL    HW157167   4.280   4.504   5.436  0.7628 -1.6274  1.3691
18668SOL    HW257168   4.162   4.434   5.500 -1.0128  0.3596  0.3909
18669SOL     OW57169   4.032   0.344   6.935  0.2430  0.3334  0.2270
18669SOL    HW157170   4.090   0.311   6.867 -0.0101 -1.9454  1.0540
18669SOL    HW257171   4.073   0.426   6.964  0.6731  1.0483 -2.1917
18670SOL     OW57172   2.421   4.135   0.839 -0.8924  0.4938 -0.4361
18670SOL    HW157173   2.440   4.222   0.804  1.1826 -0.0410 -0.8077
18670SOL    HW257174   2.372   4.092   0.770  0.0782  0.6384 -1.2458
18671SOL     OW57175   8.491   6.404   1.906 -0.5758  0.3730 -0.2158
18671SOL    HW157176   8.533   6.365   1.829  0.6347  0.1674  0.5175
18671SOL    HW257177   8.522   6.494   1.907  0.5585  0.0081  0.7712
18672SOL     OW57178   2.865   8.763   0.147 -0.0702 -0.0033  0.1678
18672SOL    HW157179   2.895   8.673   0.135  1.7072  0.6540 -0.5435
18672SOL    HW257180   2.845   8.769   0.241  0.1904 -1.0053  0.3001
18673SOL     OW57181   7.487   5.379   0.048  0.2666 -0.5402 -0.0420
18673SOL    HW157182   7.393   5.386   0.031  0.3903 -0.4277 -0.6980
18673SOL    HW257183   7.529   5.408  -0.033  0.8820  0.6940  0.6914
18674SOL     OW57184   1.726   0.345   5.695  0.2169 -0.1805  0.2071
18674SOL    HW157185   1.730   0.440   5.707  0.7961 -0.4808  3.2217
18674SOL    HW257186   1.817   0.317   5.697  0.0696 -0.8208 -0.9661
18675SOL     OW57187   2.366   1.506   1.200  0.1028  0.2628 -0.5617
18675SOL    HW157188   2.458   1.519   1.179  0.1051  2.5824  0.6695
18675SOL    HW257189   2.358   1.411   1.214  1.9304 -0.1964 -2.1546
18676SOL     OW57190   8.184   0.215   0.069 -0.1193 -0.4003 -0.1208
18676SOL    HW157191   8.187   0.242  -0.023  0.1424 -0.1659 -0.0444
18676SOL    HW257192   8.262   0.255   0.108 -0.0325 -0.7986  0.1200
18677SOL     OW57193   3.101   4.675   3.688 -0.2070 -0.1690 -0.0926
18677SOL    HW157194   3.006   4.671   3.696 -0.4363 -1.5659 -2.5697
18677SOL    HW257195   3.126   4.757   3.731 -2.1679 -1.0544  3.0382
18678SOL     OW57196   4.202   4.861   2.435 -0.3393 -0.1404  0.3166
18678SOL    HW157197   4.210   4.834   2.527 -1.6534  0.3089  0.5857
18678SOL    HW257198   4.292   4.859   2.402  0.4282  1.4094  2.1175
18679SOL     OW57199   5.903   5.059   6.119 -0.1460  0.8015  0.0153
18679SOL    HW157200   5.832   5.087   6.061  1.0997 -0.0509 -2.0627
18679SOL    HW257201   5.956   5.000   6.064 -0.4171 -2.4008  2.8721
18680SOL     OW57202   4.790   8.437   6.149  0.2478 -0.0318 -0.3793
18680SOL    HW157203   4.722   8.491   6.189  1.0214  0.9046 -0.3051
18680SOL    HW257204   4.779   8.351   6.189 -0.6911  0.1924 -0.1417
18681SOL     OW57205   6.999   2.883   2.429 -0.4671  0.1852  0.8843
18681SOL    HW157206   7.042   2.798   2.440 -0.4578  0.0796  0.0999
18681SOL    HW257207   6.981   2.889   2.335 -2.5842  0.0188  1.2151
18682SOL     OW57208   4.250   8.522   2.312  0.2502 -0.7068 -0.1625
18682SOL    HW157209   4.206   8.574   2.245 -0.1400  0.5678  1.0355
18682SOL    HW257210   4.191   8.450   2.330  0.6316 -1.4125 -1.5894
18683SOL     OW57211   7.615   6.104   3.820 -0.1574  0.3755  0.3527
18683SOL    HW157212   7.549   6.173   3.815 -2.2059 -1.5054 -0.3018
18683SOL    HW257213   7.614   6.064   3.733  1.7673  0.1561  0.3754
18684SOL     OW57214   0.519   0.482   2.476  0.5097  0.8540  0.3733
18684SOL    HW157215   0.610   0.490   2.448  1.0859  0.3357  2.0063
18684SOL    HW257216   0.490   0.397   2.442  1.0994  0.3697  1.0578
18685SOL     OW57217   4.787   7.263   3.490  0.6674  0.1925  0.1244
18685SOL    HW157218   4.697   7.282   3.465  0.6740 -0.3009 -0.2738
18685SOL    HW257219   4.840   7.298   3.418  0.8154  0.6536  0.4445
18686SOL     OW57220   7.438   8.000   3.535  0.3945 -0.3050 -0.3291
18686SOL    HW157221   7.502   7.930   3.525  1.5110  0.7261 -0.6609
18686SOL    HW257222   7.424   8.006   3.630  0.9322 -0.4088 -0.2421
18687SOL     OW57223   3.745   0.639   6.342 -0.7059 -0.0215 -0.4171
18687SOL    HW157224   3.815   0.689   6.300  0.9525 -0.5449  1.6058
18687SOL    HW257225   3.764   0.548   6.320 -0.0753 -0.2600  1.0727
18688SOL     OW57226   4.550   5.204   0.779  0.1435  0.7374 -0.2452
18688SOL    HW157227   4.570   5.111   0.793  4.2335  1.1380 -2.0011
18688SOL    HW257228   4.477   5.203   0.716  0.1503 -1.2490 -0.2930
18689SOL     OW57229   2.352   0.815   2.011 -0.5674  1.2724 -0.3178
18689SOL    HW157230   2.424   0.792   2.070 -1.3611  2.3452  1.1376
18689SOL    HW257231   2.278   0.763   2.042 -0.3802 -0.1672 -2.0843
18690SOL     OW57232   1.322   0.156   5.192  0.0780  0.7437 -0.2984
18690SOL    HW157233   1.268   0.234   5.175 -0.1288  0.7084  0.1822
18690SOL    HW257234   1.345   0.162   5.284 -2.5373 -1.3304  0.6381
18691SOL     OW57235   8.576   6.953   1.132 -0.0104  0.4165 -0.7738
18691SOL    HW157236   8.567   6.884   1.197 -0.3656  1.0031 -0.1879
18691SOL    HW257237   8.569   7.035   1.182  0.0774  0.8797 -1.4965
18692SOL     OW57238   0.419   4.189   8.376 -0.1288 -0.6244  0.1880
18692SOL    HW157239   0.484   4.154   8.437  0.6706  0.5096  0.0320
18692SOL    HW257240   0.381   4.264   8.421  1.1190  0.7921 -0.9873
18693SOL     OW57241   6.659   4.641   1.396 -0.0626  0.3301 -0.0762
18693SOL    HW157242   6.694   4.653   1.308 -1.7296  2.6522 -0.5238
18693SOL    HW257243   6.734   4.614   1.449  1.5320  1.3302 -1.7230
18694SOL     OW57244   3.869   3.834   1.597  0.1117  0.4717 -0.2927
18694SOL    HW157245   3.965   3.828   1.588  0.2856  0.8035  1.2127
18694SOL    HW257246   3.841   3.743   1.609  0.3909  0.5046  0.6400
18695SOL     OW57247   7.310   4.944   6.585  0.1328  0.3763 -0.4819
18695SOL    HW157248   7.339   4.941   6.676  0.3034  0.6721 -0.5260
18695SOL    HW257249   7.390   4.935   6.534 -0.0233 -0.3821 -0.6079
18696SOL     OW57250   1.304   5.155   7.138  0.0858  0.1729 -0.0985
18696SOL    HW157251   1.278   5.070   7.173 -1.4331 -0.0503 -1.6578
18696SOL    HW257252   1.301   5.213   7.214 -2.1714 -0.4849  0.3842
18697SOL     OW57253   1.041   0.704   0.719  0.1519 -0.0149 -0.3150
18697SOL    HW157254   0.965   0.647   0.727 -0.2219  0.7318  2.0481
18697SOL    HW257255   1.012   0.788   0.755  1.8742  0.4958 -0.0404
18698SOL     OW57256   0.424   2.776   6.154  0.2526  0.3940 -0.6548
18698SOL    HW157257   0.466   2.692   6.134 -0.5061  0.2216 -1.5843
18698SOL    HW257258   0.362   2.756   6.224 -0.3113  0.0648 -1.2444
18699SOL     OW57259   7.822   7.887   2.610  0.0865 -0.1893 -0.3074
18699SOL    HW157260   7.740   7.872   2.658  0.6598 -0.1649  0.7162
18699SOL    HW257261   7.873   7.944   2.667  1.0809 -0.7224 -0.6318
18700SOL     OW57262   1.151   0.375   4.026 -0.2281  0.0517  0.1358
18700SOL    HW157263   1.200   0.377   4.108 -1.0724 -0.1965  0.6687
18700SOL    HW257264   1.153   0.465   3.995  0.1513  0.1376  0.4040
18701SOL     OW57265   4.131   0.430   7.815  0.3735 -0.2829 -0.4411
18701SOL    HW157266   4.190   0.356   7.804 -0.7203 -1.0604 -1.3029
18701SOL    HW257267   4.049   0.391   7.844 -0.3484  0.5421 -1.3388
18702SOL     OW57268   5.284   5.224   7.533  0.6297  0.2099  0.0761
18702SOL    HW157269   5.369   5.211   7.492  0.5038  1.1305 -0.5075
18702SOL    HW257270   5.258   5.313   7.507 -0.9212 -0.3881 -0.5258
18703SOL     OW57271   7.078   3.162   5.575 -0.0210 -0.7183  0.3270
18703SOL    HW157272   7.147   3.212   5.620 -0.7214  2.8550 -2.2047
18703SOL    HW257273   7.126   3.097   5.524  1.1228 -0.9766  1.6472
18704SOL     OW57274   7.216   4.343   8.043 -0.2257 -0.5088  0.0321
18704SOL    HW157275   7.179   4.376   8.125  1.0308  0.8383  0.0868
18704SOL    HW257276   7.212   4.248   8.052 -0.5686 -0.3881  1.4326
18705SOL     OW57277   5.370   3.844   0.246 -0.4543 -0.0859  0.3425
18705SOL    HW157278   5.379   3.937   0.265  0.6060 -0.3831  1.3884
18705SOL    HW257279   5.457   3.808   0.261 -0.8417 -1.2390 -0.1105
18706SOL     OW57280   0.057   2.307   6.282 -0.1705  0.3023  0.6892
18706SOL    HW157281   0.152   2.313   6.287 -0.1078  0.8979 -0.7610
18706SOL    HW257282   0.027   2.398   6.284 -0.7856  0.0943  1.9904
18707SOL     OW57283   8.028   5.846   5.815 -0.2177 -0.3004  0.3246
18707SOL    HW157284   7.953   5.799   5.777 -0.6150  1.1091 -0.7395
18707SOL    HW257285   8.008   5.852   5.908 -0.5804 -1.4212  0.3394
18708SOL     OW57286   2.177   5.950   5.517  0.2104 -0.0229 -0.4204
18708SOL    HW157287   2.181   6.017   5.585  0.1441 -0.5752  0.1393
18708SOL    HW257288   2.087   5.953   5.485 -0.7071 -1.8768  1.7275
18709SOL     OW57289   8.246   1.649   1.395 -0.1548 -0.0369 -0.6725
18709SOL    HW157290   8.264   1.610   1.309  0.5075 -0.6828 -0.2493
18709SOL    HW257291   8.210   1.735   1.375 -0.2095 -0.2626 -1.6022
18710SOL     OW57292   4.236   6.437   2.756  0.4085 -0.0256 -0.8229
18710SOL    HW157293   4.249   6.526   2.723  0.6479 -0.0592 -0.8196
18710SOL    HW257294   4.319   6.414   2.796  0.8094 -0.7645 -2.0225
18711SOL     OW57295   1.209   4.489   3.599  0.3223 -0.8427  0.0103
18711SOL    HW157296   1.296   4.515   3.628  0.8529 -0.9813 -1.3866
18711SOL    HW257297   1.150   4.532   3.661  1.3509 -0.1648  0.5574
18712SOL     OW57298   1.960   6.655   2.907  0.1003  0.2344 -0.0159
18712SOL    HW157299   2.034   6.715   2.916  0.1701  0.0720  0.5032
18712SOL    HW257300   1.895   6.686   2.969 -0.0552  0.0606 -0.0897
18713SOL     OW57301   7.003   0.947   5.564  0.5143 -0.3854  0.4392
18713SOL    HW157302   6.955   0.927   5.484  0.9611  1.4613 -0.3478
18713SOL    HW257303   6.973   0.882   5.628 -2.5199  0.2400 -0.1915
18714SOL     OW57304   8.739   3.927   7.447 -0.3074 -0.5594 -0.1662
18714SOL    HW157305   8.731   4.013   7.405  1.3182 -1.1153 -1.7116
18714SOL    HW257306   8.833   3.907   7.444 -0.4638 -1.7956  1.4569
18715SOL     OW57307   1.189   8.135   4.846 -0.2227  0.5560  0.2992
18715SOL    HW157308   1.111   8.124   4.900  1.0240  0.7731  2.2420
18715SOL    HW257309   1.228   8.217   4.875  0.2863  0.9085 -1.2638
18716SOL     OW57310   4.131   0.982   3.363 -0.0232  0.4061 -0.3910
18716SOL    HW157311   4.041   0.972   3.333 -0.8046  0.0804  1.8295
18716SOL    HW257312   4.157   1.070   3.335 -2.5537  2.2315  2.3068
18717SOL     OW57313   3.247   0.539   7.402 -0.7924 -0.4356 -0.3207
18717SOL    HW157314   3.234   0.615   7.345  0.3460 -1.0746 -1.4878
18717SOL    HW257315   3.327   0.559   7.451 -1.8088  0.1516  1.2009
18718SOL     OW57316   7.998   1.933   4.621 -0.2163  0.3446 -0.6573
18718SOL    HW157317   8.068   1.871   4.640  0.5573  1.9687  2.4404
18718SOL    HW257318   7.927   1.910   4.681 -0.6353  1.3208 -0.7529
18719SOL     OW57319   5.508   6.734   5.030  0.4659  0.0577 -0.0778
18719SOL    HW157320   5.440   6.730   4.963  1.4156 -0.1831 -1.0634
18719SOL    HW257321   5.464   6.769   5.108 -0.6996  0.1877 -0.7774
18720SOL     OW57322   0.943   5.399   8.548 -0.0791 -0.3793 -0.2657
18720SOL    HW157323   0.907   5.480   8.511  3.0535  1.4995  0.4106
18720SOL    HW257324   0.990   5.359   8.475 -0.3235 -0.7909 -0.1999
18721SOL     OW57325   4.707   0.645   8.390 -0.2310  0.4265 -0.6064
18721SOL    HW157326   4.646   0.572   8.380  0.8086 -0.4442 -0.7522
18721SOL    HW257327   4.734   0.643   8.482  1.5379 -0.8410 -1.0950
18722SOL     OW57328   7.864   1.470   2.206  0.1524 -0.7148  0.3216
18722SOL    HW157329   7.795   1.472   2.273  0.0066 -1.6683  0.2233
18722SOL    HW257330   7.867   1.559   2.172 -0.7387 -0.5509  0.6314
18723SOL     OW57331   3.606   5.821   5.560  0.7266  0.1286  0.2199
18723SOL    HW157332   3.665   5.895   5.541  1.0463 -0.3185 -0.5538
18723SOL    HW257333   3.665   5.748   5.577  0.4073 -0.2848 -0.4101
18724SOL     OW57334   8.148   4.980   3.401 -0.1921 -0.7730 -0.0188
18724SOL    HW157335   8.120   4.959   3.312  0.0763 -0.7941 -0.1010
18724SOL    HW257336   8.087   5.047   3.431 -0.8282 -1.3933  0.1025
18725SOL     OW57337   3.798   3.449   3.738  0.2901 -0.5178 -0.5535
18725SOL    HW157338   3.850   3.424   3.814  1.4143 -0.4078 -1.2610
18725SOL    HW257339   3.723   3.391   3.740  0.1934 -0.3774  0.7543
18726SOL     OW57340   5.576   2.403   2.405 -0.0700  0.3593  0.1430
18726SOL    HW157341   5.600   2.482   2.453 -0.4002  0.6618 -0.1804
18726SOL    HW257342   5.539   2.435   2.323 -0.8274 -0.1115  0.2881
18727SOL     OW57343   7.418   3.193   5.562 -0.1042  0.1414 -0.4640
18727SOL    HW157344   7.383   3.274   5.525  0.5044  1.0452  0.8380
18727SOL    HW257345   7.469   3.154   5.491  1.8507  2.3162 -0.3605
18728SOL     OW57346   7.194   0.094   4.341 -0.2949 -0.0115 -0.1018
18728SOL    HW157347   7.176   0.176   4.296 -1.7091 -0.0749  0.3215
18728SOL    HW257348   7.188   0.115   4.434  1.4751 -0.1383  0.0819
18729SOL     OW57349   2.146   3.866   0.013 -0.7638  0.0545  0.0695
18729SOL    HW157350   2.055   3.895   0.009 -1.1523 -1.0179  0.6069
18729SOL    HW257351   2.163   3.852   0.107 -0.8062 -1.9609 -0.1670
18730SOL     OW57352   7.884   3.976   8.791 -0.0494  0.1235 -0.0605
18730SOL    HW157353   7.804   3.995   8.840 -0.1358  0.9041 -0.4919
18730SOL    HW257354   7.911   4.060   8.755  0.3460 -0.3255 -0.8505
18731SOL     OW57355   8.227   7.675   3.380  0.4776 -0.3236  0.4346
18731SOL    HW157356   8.239   7.580   3.385  0.8978 -0.2177  1.7196
18731SOL    HW257357   8.294   7.704   3.318  2.3645 -0.5503  2.2509
18732SOL     OW57358   0.697   7.904   7.780 -0.2517  0.5927 -0.2745
18732SOL    HW157359   0.755   7.980   7.768 -1.9229  2.0780  0.6956
18732SOL    HW257360   0.626   7.918   7.717  0.5454 -1.4192 -1.7384
18733SOL     OW57361   0.972   8.604   1.496 -0.1377 -0.5232 -0.0307
18733SOL    HW157362   0.907   8.577   1.432 -0.9014  3.2774 -1.1030
18733SOL    HW257363   0.933   8.582   1.581 -1.7983 -0.3751 -0.7172
18734SOL     OW57364   5.244   8.698   1.186 -0.6901 -0.3209 -0.2385
18734SOL    HW157365   5.309   8.766   1.164 -1.4194  0.3699 -0.3018
18734SOL    HW257366   5.198   8.681   1.105 -1.1592 -0.1870 -0.0016
18735SOL     OW57367   6.132   2.918   0.279  0.8885 -0.3471  0.4898
18735SOL    HW157368   6.139   2.973   0.201  1.8834 -1.5513 -0.3263
18735SOL    HW257369   6.092   2.974   0.345  0.1449  0.7509 -0.8427
18736SOL     OW57370   2.255   1.266   0.424 -0.4141  0.1409 -0.1747
18736SOL    HW157371   2.171   1.238   0.388 -0.4912  1.3724 -1.0270
18736SOL    HW257372   2.232   1.324   0.496 -0.2827 -0.0771  0.0437
18737SOL     OW57373   5.753   7.268   1.430  0.3254 -0.2141  0.3662
18737SOL    HW157374   5.660   7.280   1.411  0.3086  1.0411  1.1260
18737SOL    HW257375   5.796   7.279   1.345 -0.0471  1.5246  0.3555
18738SOL     OW57376   6.693   1.961   7.843  0.3735  0.3953  0.3029
18738SOL    HW157377   6.717   2.043   7.886  2.6970 -0.1867  0.2362
18738SOL    HW257378   6.618   1.929   7.893  1.2475  1.1319  2.1636
18739SOL     OW57379   5.291   5.918   1.785  0.2527 -0.5570  0.0060
18739SOL    HW157380   5.379   5.935   1.817  0.5344 -3.0962  0.7704
18739SOL    HW257381   5.289   5.824   1.768 -1.4031 -0.1321 -2.8661
18740SOL     OW57382   6.847   6.309   3.782  0.4460  0.3176 -0.3404
18740SOL    HW157383   6.897   6.386   3.753  0.1875  1.0066  0.9682
18740SOL    HW257384   6.756   6.334   3.768  0.3979 -0.1829 -0.9225
18741SOL     OW57385   0.939   4.484   2.949  0.1675  0.2018 -0.2048
18741SOL    HW157386   0.943   4.506   2.855  0.0339  0.0955 -0.2362
18741SOL    HW257387   0.847   4.497   2.972  0.2794  0.6220  0.0081
18742SOL     OW57388   3.883   4.798   2.032  0.4476  0.0679 -0.0918
18742SOL    HW157389   3.870   4.807   1.937  0.9992  1.7503 -0.0378
18742SOL    HW257390   3.961   4.745   2.040 -0.3972 -1.2952 -0.5397
18743SOL     OW57391   4.952   0.060   7.084  0.0770  0.0851 -0.5280
18743SOL    HW157392   4.902   0.123   7.033  0.6459  1.1153  0.1368
18743SOL    HW257393   5.042   0.070   7.053  0.2908  0.1312  0.0851
18744SOL     OW57394   0.250   6.623   7.400  0.2860 -0.3165  0.1752
18744SOL    HW157395   0.263   6.535   7.363  0.5569 -1.2692  2.4106
18744SOL    HW257396   0.339   6.658   7.411  0.1692  0.4583 -1.0970
18745SOL     OW57397   5.042   4.033   6.344 -0.6517 -0.3302 -1.3601
18745SOL    HW157398   5.056   4.095   6.416 -1.2116 -1.3797 -0.3162
18745SOL    HW257399   5.023   4.088   6.268  2.3612  0.9541 -1.3478
18746SOL     OW57400   2.974   7.924   5.402  0.6624 -0.0439 -0.5989
18746SOL    HW157401   3.007   7.835   5.406  0.4441 -0.1049  0.0565
18746SOL    HW257402   3.052   7.979   5.410  0.8858 -0.1604 -1.8233
18747SOL     OW57403   6.512   1.085   1.951  0.5052 -0.6014  0.3076
18747SOL    HW157404   6.540   1.062   1.863 -1.0207 -0.2112 -0.3208
18747SOL    HW257405   6.513   1.181   1.953  1.6795 -0.6154  1.1266
18748SOL     OW57406   2.871   8.792   6.429  0.2688 -0.0035  0.2995
18748SOL    HW157407   2.818   8.776   6.508  2.0358 -0.0716  1.5227
18748SOL    HW257408   2.958   8.758   6.451  0.8760  0.2112 -1.6080
18749SOL     OW57409   3.493   0.480   7.844  0.1756 -0.4297  0.4497
18749SOL    HW157410   3.528   0.405   7.892 -0.5568 -0.6043  0.7251
18749SOL    HW257411   3.511   0.555   7.900  1.1179 -0.3574  0.0679
18750SOL     OW57412   8.189   6.107   6.784  0.3268 -0.0367  0.0284
18750SOL    HW157413   8.165   6.015   6.770  0.5631 -0.2337  0.8550
18750SOL    HW257414   8.280   6.104   6.814  0.7083  0.5588 -1.0340
18751SOL     OW57415   6.507   1.532   6.586 -0.2640  0.1932 -0.4796
18751SOL    HW157416   6.539   1.487   6.507  0.6266 -0.5824  0.2920
18751SOL    HW257417   6.576   1.595   6.607 -0.0953 -0.1943  0.1501
18752SOL     OW57418   0.648   4.215   2.083  0.2053  0.2067 -0.0009
18752SOL    HW157419   0.609   4.261   2.009  1.1795 -0.1139 -0.7490
18752SOL    HW257420   0.625   4.123   2.069 -1.6653  0.4024  1.4429
18753SOL     OW57421   7.956   6.378   8.139 -0.6928  0.4431 -0.2258
18753SOL    HW157422   7.875   6.374   8.190 -0.3875 -1.1877  0.1680
18753SOL    HW257423   7.962   6.470   8.112 -3.4921  0.3173 -1.6294
18754SOL     OW57424   3.251   0.298   3.593  0.0797  0.2285  0.5564
18754SOL    HW157425   3.315   0.288   3.523 -0.8445 -1.5638 -0.1026
18754SOL    HW257426   3.176   0.340   3.552 -0.6237 -1.1986  0.3260
18755SOL     OW57427   7.196   5.787   1.804 -0.3019  0.0331  0.3574
18755SOL    HW157428   7.223   5.875   1.829  0.6132 -0.0387 -0.3650
18755SOL    HW257429   7.246   5.767   1.725 -0.8030 -0.9773  0.2775
18756SOL     OW57430   1.973   8.146   7.371 -0.2710  0.2859  0.4468
18756SOL    HW157431   1.881   8.127   7.393 -1.0514  1.0567 -1.8406
18756SOL    HW257432   2.000   8.212   7.435 -1.1272 -0.3738  1.5115
18757SOL     OW57433   0.792   2.555   7.533 -0.4381  0.4522  0.5908
18757SOL    HW157434   0.697   2.552   7.540 -0.5133 -2.5063 -0.1886
18757SOL    HW257435   0.811   2.527   7.443  1.1478 -3.2383  1.8847
18758SOL     OW57436   0.833   5.571   4.866  0.1826 -0.0381 -0.1235
18758SOL    HW157437   0.885   5.523   4.801 -0.7754 -0.1211 -0.8425
18758SOL    HW257438   0.776   5.506   4.905 -1.2825  0.4979 -1.2601
18759SOL     OW57439   7.117   6.111   0.986 -0.1726  0.4649 -0.0542
18759SOL    HW157440   7.055   6.052   1.028  1.3289 -0.6230  0.7075
18759SOL    HW257441   7.070   6.146   0.910 -1.7823 -0.1212  0.6398
18760SOL     OW57442   6.487   2.049   4.359 -0.5071 -0.0989 -0.3587
18760SOL    HW157443   6.410   2.091   4.320  0.4014  0.0486 -2.0855
18760SOL    HW257444   6.478   2.065   4.453 -1.9431  0.9814 -0.6435
18761SOL     OW57445   3.994   6.410   0.369 -0.1903  0.2165 -0.1892
18761SOL    HW157446   4.049   6.489   0.363 -0.7071  0.5772 -0.2302
18761SOL    HW257447   3.924   6.425   0.306  0.0547 -0.5612 -0.6585
18762SOL     OW57448   0.732   3.131   7.939 -0.2148  0.5903 -0.3648
18762SOL    HW157449   0.686   3.203   7.897  0.0029 -0.0035 -1.6806
18762SOL    HW257450   0.751   3.162   8.027 -1.7474  1.4276 -0.3048
18763SOL     OW57451   0.796   5.393   3.736 -0.3251  0.2312  0.0686
18763SOL    HW157452   0.882   5.398   3.695 -1.0128  1.3166 -1.3380
18763SOL    HW257453   0.761   5.482   3.730 -1.3919 -0.0960  0.9818
18764SOL     OW57454   1.891   0.198   2.696 -0.3489 -0.1075 -0.3751
18764SOL    HW157455   1.955   0.209   2.626 -1.3293 -0.4690 -1.3541
18764SOL    HW257456   1.812   0.168   2.652 -0.9312 -0.5559  0.9154
18765SOL     OW57457   3.013   8.599   2.036 -0.3569 -0.1623 -0.0891
18765SOL    HW157458   3.022   8.509   2.003  0.8029 -0.2965  0.5478
18765SOL    HW257459   2.920   8.606   2.060 -0.3575 -1.3712  0.3520
18766SOL     OW57460   0.536   7.842   3.172  1.0455 -0.0464 -0.4334
18766SOL    HW157461   0.441   7.839   3.163  1.0437  0.4649 -0.6264
18766SOL    HW257462   0.568   7.853   3.082  1.3881 -2.0169 -0.6034
18767SOL     OW57463   6.588   1.712   8.415 -0.1783 -0.1217 -0.3531
18767SOL    HW157464   6.609   1.728   8.507 -1.5284 -1.1122  0.1472
18767SOL    HW257465   6.664   1.747   8.368  0.1292  1.2603  1.0563
18768SOL     OW57466   2.512   1.485   2.447  0.4673  0.2319  0.6900
18768SOL    HW157467   2.431   1.437   2.429  0.5653  0.9359 -2.1138
18768SOL    HW257468   2.581   1.421   2.432  0.5172  0.5806 -0.6741
18769SOL     OW57469   4.316   7.257   2.959 -0.2010  0.1735 -0.4593
18769SOL    HW157470   4.270   7.203   2.895  1.3071  0.0423 -1.4869
18769SOL    HW257471   4.409   7.237   2.945  0.1772 -0.3153  2.1841
18770SOL     OW57472   2.712   6.599   1.199 -0.2086 -0.4008  0.2249
18770SOL    HW157473   2.747   6.624   1.114  0.6384 -1.5717  0.2090
18770SOL    HW257474   2.653   6.671   1.223  0.3595  0.4505 -0.8511
18771SOL     OW57475   2.465   0.503   4.006  0.5842 -0.4886  0.5091
18771SOL    HW157476   2.378   0.533   4.034  0.6752  0.0207  0.2398
18771SOL    HW257477   2.447   0.437   3.940  0.4122  0.2144 -0.1553
18772SOL     OW57478   0.362   8.461   3.744  0.2317 -1.1595  0.1508
18772SOL    HW157479   0.338   8.540   3.792  1.6514  0.2339 -1.2835
18772SOL    HW257480   0.407   8.406   3.808  1.8524  0.5362  0.5481
18773SOL     OW57481   6.829   7.951   0.532  0.3630 -0.2759 -0.1836
18773SOL    HW157482   6.783   7.919   0.454 -0.8364 -1.3252  0.9089
18773SOL    HW257483   6.833   7.875   0.590 -0.6030  0.9825  1.6001
18774SOL     OW57484   6.852   7.080   4.830  0.0283  0.3236 -0.0489
18774SOL    HW157485   6.823   7.036   4.909 -0.6353  0.5077 -0.1871
18774SOL    HW257486   6.877   7.009   4.770  0.5684  0.1867  0.3356
18775SOL     OW57487   4.981   7.718   0.146  0.2188 -0.4954  0.0756
18775SOL    HW157488   5.038   7.750   0.076  2.0321  0.0328  1.6797
18775SOL    HW257489   4.893   7.741   0.119  0.9186  0.1639 -1.7630
18776SOL     OW57490   6.468   0.093   2.964  0.0081  0.4380  0.1518
18776SOL    HW157491   6.554   0.091   3.006  0.3775  0.1368 -0.5997
18776SOL    HW257492   6.435   0.003   2.972  0.3499  0.2236 -0.7278
18777SOL     OW57493   1.810   6.896   7.092  0.2007  0.6411 -0.0901
18777SOL    HW157494   1.865   6.829   7.133  0.4042  0.2108 -1.0388
18777SOL    HW257495   1.831   6.977   7.139 -0.4580 -0.0498  1.4432
18778SOL     OW57496   7.699   1.974   7.375 -0.0479  0.1209 -0.1165
18778SOL    HW157497   7.609   1.995   7.351  0.1652  1.2050 -0.0305
18778SOL    HW257498   7.704   1.992   7.469  0.4663  0.8547 -0.2793
18779SOL     OW57499   3.721   5.293   0.324 -0.2597 -0.5882  0.0537
18779SOL    HW157500   3.694   5.244   0.246 -1.7877 -0.1075  0.2534
18779SOL    HW257501   3.650   5.280   0.387  0.3517  0.0711  0.9121
18780SOL     OW57502   5.051   4.963   1.315 -0.4030 -0.0521 -0.2581
18780SOL    HW157503   4.991   5.020   1.362 -0.5731 -0.1807 -0.3190
18780SOL    HW257504   5.126   5.019   1.295 -1.1948  0.5731 -1.6309
18781SOL     OW57505   0.540   7.753   6.131 -0.2171 -0.3287 -0.5034
18781SOL    HW157506   0.629   7.780   6.153  0.0794 -1.4274 -0.2572
18781SOL    HW257507   0.484   7.815   6.177  0.4101  0.8845 -1.3225
18782SOL     OW57508   2.965   5.176   7.917 -0.1690  0.5317 -0.0013
18782SOL    HW157509   3.009   5.243   7.969 -0.9842  1.8374 -0.9624
18782SOL    HW257510   3.028   5.103   7.915  0.7688  1.2824  0.9865
18783SOL     OW57511   1.930   6.907   6.117 -0.4294 -0.0731 -0.8702
18783SOL    HW157512   1.878   6.827   6.128  0.0844 -0.2710  0.2195
18783SOL    HW257513   1.866   6.978   6.125 -0.6509 -0.3319 -0.2621
18784SOL     OW57514   6.246   7.692   4.746  0.1100 -0.0203 -0.0235
18784SOL    HW157515   6.173   7.664   4.801 -0.8599  2.8120  0.3194
18784SOL    HW257516   6.308   7.732   4.808  0.4053  0.5185 -0.6498
18785SOL     OW57517   5.061   8.233   2.979 -0.1608 -0.2161 -0.5138
18785SOL    HW157518   4.969   8.210   2.967  0.0891 -1.4969 -0.1474
18785SOL    HW257519   5.059   8.314   3.030 -1.0811  0.5480 -1.7210
18786SOL     OW57520   0.026   2.629   0.738 -0.0338  0.0326 -0.1047
18786SOL    HW157521   0.054   2.720   0.745  0.7589 -0.2155  0.0667
18786SOL    HW257522  -0.037   2.628   0.666  2.5707  0.1205 -2.5305
18787SOL     OW57523   8.710   7.949   4.295 -0.3449 -0.3657  0.7416
18787SOL    HW157524   8.695   7.955   4.389 -2.3392 -2.7127  0.7013
18787SOL    HW257525   8.791   7.899   4.287  0.8129  1.3647  1.1343
18788SOL     OW57526   1.328   6.957   7.303 -0.1326 -0.0618  0.0493
18788SOL    HW157527   1.350   6.994   7.388  0.7345  0.6936 -0.4780
18788SOL    HW257528   1.409   6.966   7.252 -0.1814 -1.8514 -0.4059
18789SOL     OW57529   7.100   5.195   3.493  0.2090  0.0768 -0.5382
18789SOL    HW157530   7.119   5.213   3.585 -0.3605 -1.6678 -0.0281
18789SOL    HW257531   7.184   5.168   3.456  0.4642  0.9000 -0.5606
18790SOL     OW57532   3.761   5.503   2.989  0.1194 -0.3933 -0.0214
18790SOL    HW157533   3.824   5.560   2.946 -1.1904  0.4146 -0.9388
18790SOL    HW257534   3.772   5.521   3.083  1.4715 -0.5389 -0.1393
18791SOL     OW57535   8.150   3.303   8.335 -0.2469 -0.4413  0.1777
18791SOL    HW157536   8.092   3.322   8.408 -0.3646 -1.2871  0.3173
18791SOL    HW257537   8.143   3.208   8.323  0.5606 -0.4553 -0.2622
18792SOL     OW57538   5.536   5.741   8.713 -0.7069 -0.5254 -0.1311
18792SOL    HW157539   5.584   5.707   8.638 -1.3331  1.7630 -1.6925
18792SOL    HW257540   5.444   5.735   8.687 -0.8707  1.6746 -0.2621
18793SOL     OW57541   5.147   3.424   7.623 -0.2796  0.1903 -0.2929
18793SOL    HW157542   5.160   3.468   7.539 -1.0027  1.4771  0.2352
18793SOL    HW257543   5.062   3.381   7.614  0.1934 -0.6880 -0.6307
18794SOL     OW57544   4.970   7.508   0.589 -0.0730  0.1858 -0.4938
18794SOL    HW157545   5.032   7.579   0.605  0.2112 -0.1458 -0.1048
18794SOL    HW257546   4.977   7.491   0.495 -0.8910  1.3529 -0.8021
18795SOL     OW57547   1.155   7.177   2.418  0.1834 -0.4875 -0.2287
18795SOL    HW157548   1.168   7.212   2.330  0.7754  0.2569  0.1410
18795SOL    HW257549   1.202   7.093   2.417 -0.3291 -0.7730 -0.7976
18796SOL     OW57550   0.059   8.040   1.729  0.4916  0.4510  0.5421
18796SOL    HW157551   0.036   8.081   1.645 -0.6940  0.7476  0.9825
18796SOL    HW257552   0.124   7.973   1.706 -0.6221 -0.2410 -0.7836
18797SOL     OW57553   2.591   2.545   3.257 -0.4893  0.4091 -0.2793
18797SOL    HW157554   2.634   2.501   3.330 -1.5455 -0.4445 -0.1491
18797SOL    HW257555   2.619   2.496   3.179 -1.3280 -0.2554 -0.1773
18798SOL     OW57556   5.375   5.502   0.259  0.0892 -0.2181  0.1261
18798SOL    HW157557   5.450   5.549   0.221 -0.0450  1.4532  1.7933
18798SOL    HW257558   5.300   5.530   0.207  0.0118  1.5136  1.0930
18799SOL     OW57559   2.003   5.098   6.760 -0.0744 -0.1681  0.0687
18799SOL    HW157560   2.005   5.019   6.705 -0.5335  1.8557 -3.1060
18799SOL    HW257561   1.920   5.091   6.808 -0.0585 -1.6641 -0.0797
18800SOL     OW57562   4.048   5.545   4.640  0.1016  0.3080  0.5581
18800SOL    HW157563   4.059   5.638   4.621 -0.5071  0.4902  1.0466
18800SOL    HW257564   4.089   5.533   4.726 -1.0538  0.4398  1.1525
18801SOL     OW57565   6.878   0.287   0.530 -0.8550 -0.5001 -0.4289
18801SOL    HW157566   6.856   0.380   0.531  0.7922 -0.0530 -1.0444
18801SOL    HW257567   6.968   0.284   0.564 -0.5177 -1.7296 -1.3694
18802SOL     OW57568   6.836   0.957   8.534  0.1954  0.4165 -0.0557
18802SOL    HW157569   6.841   1.016   8.609 -0.7497  0.6319 -0.1476
18802SOL    HW257570   6.923   0.962   8.494  0.6500  0.4550  0.8978
18803SOL     OW57571   7.469   8.246   0.260 -0.0436 -0.4352 -0.2567
18803SOL    HW157572   7.512   8.276   0.340 -1.0378  0.0546  0.1083
18803SOL    HW257573   7.454   8.152   0.276 -0.1584 -0.3589  0.0900
18804SOL     OW57574   5.143   7.623   8.101 -0.1032 -0.7545  0.2562
18804SOL    HW157575   5.224   7.631   8.151  1.0011 -0.0958 -1.5476
18804SOL    HW257576   5.111   7.713   8.093  0.4586 -0.6653 -1.3081
18805SOL     OW57577   8.451   0.343   2.766  0.3783  0.3223 -0.1469
18805SOL    HW157578   8.438   0.257   2.807  0.8976 -1.1390 -2.8334
18805SOL    HW257579   8.536   0.372   2.800 -0.9623  1.1249  2.8481
18806SOL     OW57580   8.190   4.951   6.740  0.3988  0.5347  0.9334
18806SOL    HW157581   8.109   4.980   6.699 -0.0578  0.3808  1.7119
18806SOL    HW257582   8.179   4.856   6.749  1.0187  0.3947  0.2820
18807SOL     OW57583   0.447   0.399   1.617 -0.5580 -0.0503  0.6543
18807SOL    HW157584   0.418   0.490   1.605  0.4196  0.1173 -0.7016
18807SOL    HW257585   0.531   0.407   1.663 -0.5616 -0.2691  0.6969
18808SOL     OW57586   7.970   2.885   6.957 -0.4806 -0.5526  0.0808
18808SOL    HW157587   7.932   2.807   6.997 -1.7592 -0.8632 -1.6305
18808SOL    HW257588   7.944   2.957   7.014 -0.2600 -1.2281  1.0597
18809SOL     OW57589   7.801   3.679   8.720  0.0034  0.3671  0.3697
18809SOL    HW157590   7.794   3.695   8.814 -3.6249 -0.1785  0.3171
18809SOL    HW257591   7.803   3.766   8.681  0.1386  0.5972  0.8820
18810SOL     OW57592   0.928   3.573   5.610  0.7194  0.5700 -0.2144
18810SOL    HW157593   0.886   3.506   5.557 -0.4632 -0.1591  1.5598
18810SOL    HW257594   1.021   3.551   5.608  0.7536  0.7143 -2.1233
18811SOL     OW57595   1.744   1.857   5.934 -0.0290 -0.5669 -0.3631
18811SOL    HW157596   1.778   1.790   5.994  0.3917  0.9674  1.1837
18811SOL    HW257597   1.670   1.815   5.891  0.9341 -2.4156 -0.3223
18812SOL     OW57598   8.818   4.639   7.142 -0.4763  0.0712  0.2369
18812SOL    HW157599   8.791   4.584   7.069 -0.9807 -1.0830  1.2437
18812SOL    HW257600   8.739   4.645   7.197  0.2523 -0.2020  1.3345
18813SOL     OW57601   2.615   2.817   6.659  0.2631 -0.5094 -0.1959
18813SOL    HW157602   2.660   2.734   6.675  0.0999 -0.5718 -0.0578
18813SOL    HW257603   2.673   2.865   6.600  0.2256 -0.8353 -0.5024
18814SOL     OW57604   2.997   0.763   3.150 -0.3680  0.4101  0.6551
18814SOL    HW157605   2.966   0.837   3.099 -1.4142 -0.2869  0.2400
18814SOL    HW257606   2.941   0.690   3.124  2.0284 -1.1250 -0.6451
18815SOL     OW57607   8.144   4.680   6.768 -0.0230  0.1443 -0.0786
18815SOL    HW157608   8.065   4.638   6.800  1.7387 -0.7101  3.6449
18815SOL    HW257609   8.166   4.633   6.687 -2.3169 -0.7228 -0.2475
18816SOL     OW57610   1.414   2.718   8.149  0.5449  0.7246  0.1588
18816SOL    HW157611   1.380   2.800   8.186  0.6989  1.2774 -0.8750
18816SOL    HW257612   1.346   2.689   8.088  0.5766  0.1835  0.3812
18817SOL     OW57613   3.902   7.328   8.808  0.6219  0.1825  0.0639
18817SOL    HW157614   3.855   7.274   8.873  0.9959 -1.4032 -0.9310
18817SOL    HW257615   3.873   7.294   8.724 -1.4059  3.5306 -0.7555
18818SOL     OW57616   5.673   3.479   3.421  0.4797 -0.4973  0.2308
18818SOL    HW157617   5.750   3.522   3.458  1.9515 -1.4504 -1.5900
18818SOL    HW257618   5.630   3.547   3.370  2.8089 -0.9975 -2.6590
18819SOL     OW57619   3.116   0.879   4.716 -0.0577  0.2931 -0.4094
18819SOL    HW157620   3.054   0.814   4.683 -0.2746  0.0669  0.4227
18819SOL    HW257621   3.067   0.926   4.784  0.6616  0.1475  0.2196
18820SOL     OW57622   2.665   1.076   0.318  0.5346 -0.1971 -0.0757
18820SOL    HW157623   2.623   1.114   0.240 -0.7492 -0.3433  0.5143
18820SOL    HW257624   2.748   1.121   0.325  0.0945  0.7678 -0.7817
18821SOL     OW57625   1.550   1.023   4.640  0.1568 -0.2166  0.3645
18821SOL    HW157626   1.477   0.973   4.675 -0.8233  1.0624  0.2319
18821SOL    HW257627   1.558   0.995   4.549  0.8852 -1.5047  0.7985
18822SOL     OW57628   1.153   2.665   5.299  0.6205  0.0219 -0.0827
18822SOL    HW157629   1.121   2.593   5.353  0.1268  0.2067 -0.1159
18822SOL    HW257630   1.094   2.664   5.223  0.8873  0.1834 -0.2903
18823SOL     OW57631   7.114   8.181   6.557  0.5187 -0.4511  0.0536
18823SOL    HW157632   7.057   8.256   6.539  0.0610 -0.8649 -0.2578
18823SOL    HW257633   7.155   8.202   6.640 -0.4098 -0.3147  0.4979
18824SOL     OW57634   6.566   2.674   0.205  0.0998  0.7458  0.7522
18824SOL    HW157635   6.564   2.578   0.198 -0.2793  0.7938  0.0707
18824SOL    HW257636   6.576   2.691   0.299  0.1951  0.0383  0.8791
18825SOL     OW57637   3.316   8.542   5.632 -0.4297  0.1183  0.1381
18825SOL    HW157638   3.338   8.456   5.667 -0.1975 -0.6533 -1.7825
18825SOL    HW257639   3.395   8.572   5.588 -0.5511  1.2712  0.6625
18826SOL     OW57640   6.666   8.076   5.750 -0.0424  0.4357 -0.6470
18826SOL    HW157641   6.668   8.126   5.668  1.5458  0.5498 -0.5579
18826SOL    HW257642   6.642   7.987   5.722  1.0887  0.3265 -1.3396
18827SOL     OW57643   5.399   8.433   0.520  0.6344 -0.1420  0.0893
18827SOL    HW157644   5.364   8.349   0.493  0.0164 -0.0925  0.7155
18827SOL    HW257645   5.493   8.427   0.502  0.3260 -0.2546 -1.6778
18828SOL     OW57646   0.024   5.362   2.462  0.3100 -0.5546 -0.2769
18828SOL    HW157647   0.038   5.361   2.557  0.7584  1.2352 -0.2875
18828SOL    HW257648  -0.031   5.438   2.447  3.4972  1.6468 -1.7925
18829SOL     OW57649   2.663   7.755   7.813 -0.0939  0.4544  0.0971
18829SOL    HW157650   2.678   7.705   7.893  1.8090 -1.3272 -1.2690
18829SOL    HW257651   2.751   7.773   7.779 -0.8441  0.6483 -1.8851
18830SOL     OW57652   0.163   3.292   6.258 -0.8009 -0.3034 -0.3628
18830SOL    HW157653   0.237   3.348   6.234  0.0395 -0.7605  1.0007
18830SOL    HW257654   0.178   3.210   6.211 -1.0298 -0.0182 -0.9313
18831SOL     OW57655   0.701   1.860   1.113  0.1173  0.4161 -0.5201
18831SOL    HW157656   0.641   1.932   1.093  0.0471  0.4096 -0.3346
18831SOL    HW257657   0.721   1.821   1.027 -1.0688 -0.3200 -0.4844
18832SOL     OW57658   1.109   4.146   4.870 -0.5197  0.0838 -0.0004
18832SOL    HW157659   1.028   4.151   4.921 -1.1858  0.8466 -1.0906
18832SOL    HW257660   1.091   4.199   4.792  0.7427 -0.4280 -0.6568
18833SOL     OW57661   4.670   4.922   4.872 -0.3213 -0.2115 -0.6458
18833SOL    HW157662   4.669   5.016   4.892  0.5213  0.2776 -2.7187
18833SOL    HW257663   4.741   4.911   4.809 -1.6624 -1.9173 -1.9530
18834SOL     OW57664   7.144   4.256   2.388  0.0537  0.4087 -0.1421
18834SOL    HW157665   7.163   4.215   2.473 -0.6372  1.1233  0.3791
18834SOL    HW257666   7.131   4.183   2.328 -1.1405 -0.1521  0.7609
18835SOL     OW57667   0.050   1.464   3.162  0.2099  0.6774  0.2218
18835SOL    HW157668   0.096   1.539   3.200  1.3312  0.0379  0.1572
18835SOL    HW257669  -0.003   1.502   3.091 -0.1222  1.5555  0.9187
18836SOL     OW57670   1.219   6.410   8.763 -0.1426  0.0768 -0.3573
18836SOL    HW157671   1.221   6.443   8.673  1.0525  0.3712 -0.2317
18836SOL    HW257672   1.145   6.456   8.804  0.4211  1.3144 -0.6818
18837SOL     OW57673   4.368   4.475   1.631  0.2766  0.0160  0.3977
18837SOL    HW157674   4.416   4.409   1.582 -1.1710  0.2537 -1.4541
18837SOL    HW257675   4.427   4.550   1.635  0.1861  0.2391 -1.6687
18838SOL     OW57676   2.534   3.538   2.779 -0.0469  0.2202 -0.0057
18838SOL    HW157677   2.535   3.443   2.787  0.5785  0.2511  0.3586
18838SOL    HW257678   2.558   3.570   2.866  2.5580  0.6569 -0.7855
18839SOL     OW57679   1.935   6.667   8.733 -0.6188  0.5142  0.0574
18839SOL    HW157680   1.971   6.754   8.751 -1.2991  0.9463 -0.6290
18839SOL    HW257681   1.874   6.681   8.660 -0.7691 -0.5291 -0.0234
18840SOL     OW57682   7.655   7.402   7.796 -0.1263  0.0679 -0.1836
18840SOL    HW157683   7.578   7.459   7.784 -1.2164 -1.5224 -1.1757
18840SOL    HW257684   7.726   7.448   7.752 -1.0874  0.4866 -1.3550
18841SOL     OW57685   0.913   6.164   5.718  0.1484  0.4713 -0.3770
18841SOL    HW157686   0.908   6.139   5.626  1.0239  0.6159 -0.4717
18841SOL    HW257687   0.959   6.248   5.717  1.3130 -0.1412  0.2864
18842SOL     OW57688   5.036   4.544   8.138 -0.7130 -0.6219  0.3497
18842SOL    HW157689   5.120   4.535   8.183 -0.0973 -1.0538 -0.8479
18842SOL    HW257690   5.045   4.623   8.084 -1.4513 -0.0943  0.9709
18843SOL     OW57691   3.880   5.124   0.754 -0.2811  0.5060 -0.1485
18843SOL    HW157692   3.872   5.097   0.662 -0.2464 -0.2011  0.0515
18843SOL    HW257693   3.820   5.065   0.801  0.0112  0.5918  0.3314
18844SOL     OW57694   1.564   1.430   4.565 -0.1422  1.0193  0.3880
18844SOL    HW157695   1.647   1.450   4.523 -0.3777  2.4595  0.5543
18844SOL    HW257696   1.500   1.432   4.494  0.0808 -1.2952  0.0417
18845SOL     OW57697   5.527   1.385   1.075  0.6672 -0.6081  0.1202
18845SOL    HW157698   5.508   1.298   1.111 -1.7515 -0.3239 -0.2710
18845SOL    HW257699   5.480   1.446   1.133  1.1022  0.3008 -0.4510
18846SOL     OW57700   0.876   8.507   1.757  0.3738  0.3580 -0.1784
18846SOL    HW157701   0.937   8.560   1.808 -0.3618 -0.8701  2.1168
18846SOL    HW257702   0.896   8.417   1.781 -0.5103 -0.2402 -1.5362
18847SOL     OW57703   3.109   2.417   0.113  0.4431 -0.2302 -0.2269
18847SOL    HW157704   3.155   2.345   0.070  0.4351 -0.0418 -0.5522
18847SOL    HW257705   3.094   2.481   0.044  0.5619  0.1411  0.0872
18848SOL     OW57706   0.302   5.698   5.454 -0.9431  0.4827  0.1583
18848SOL    HW157707   0.316   5.692   5.548 -0.7001 -1.9358  0.0408
18848SOL    HW257708   0.336   5.784   5.430  1.6879  0.0353  1.8568
18849SOL     OW57709   2.346   8.421   5.781  0.3410 -0.5706 -0.1593
18849SOL    HW157710   2.327   8.508   5.744 -0.1472 -0.6630 -0.1337
18849SOL    HW257711   2.356   8.437   5.874  1.2035 -0.3941 -0.2727
18850SOL     OW57712   5.465   4.522   2.068  0.1828 -0.9520 -0.6091
18850SOL    HW157713   5.544   4.479   2.099  0.2255 -0.1367  0.4837
18850SOL    HW257714   5.449   4.485   1.981  1.5645 -1.3686 -0.6993
18851SOL     OW57715   4.763   5.109   7.997  0.3816  0.1064  0.8818
18851SOL    HW157716   4.835   5.052   7.970  0.6849  0.5158  0.8120
18851SOL    HW257717   4.689   5.050   8.010  0.5749 -0.2475  0.3958
18852SOL     OW57718   6.171   6.790   7.216  0.3073  0.4444  0.2122
18852SOL    HW157719   6.213   6.733   7.152  0.5933  0.5709  0.2892
18852SOL    HW257720   6.209   6.876   7.201 -0.3022  0.6703 -0.0666
18853SOL     OW57721   2.398   5.633   5.093 -0.3029 -0.5588  0.3060
18853SOL    HW157722   2.411   5.708   5.035 -0.3953  0.8231  1.9942
18853SOL    HW257723   2.371   5.671   5.176 -0.0000 -2.4554  1.3324
18854SOL     OW57724   4.080   0.267   7.506  0.0292  0.3652 -0.2408
18854SOL    HW157725   4.113   0.269   7.416  1.5010  0.1058  0.2520
18854SOL    HW257726   3.994   0.308   7.501 -1.0792 -1.9003 -2.1977
18855SOL     OW57727   1.079   1.418   0.560  0.2877  0.1899 -0.1681
18855SOL    HW157728   1.160   1.368   0.550 -0.5597 -1.1066 -0.9024
18855SOL    HW257729   1.044   1.389   0.645 -0.3353 -0.7189 -0.7116
18856SOL     OW57730   2.957   7.585   0.577  0.1504 -0.1815  0.3855
18856SOL    HW157731   2.961   7.628   0.663  1.0746 -0.1127  0.3170
18856SOL    HW257732   2.890   7.634   0.529  1.3462  1.3772  0.2229
18857SOL     OW57733   7.293   1.757   2.405 -0.1466 -0.0276 -0.8530
18857SOL    HW157734   7.282   1.714   2.490  1.3307  0.2449 -0.5079
18857SOL    HW257735   7.299   1.685   2.342  0.2811 -0.2661 -0.5400
18858SOL     OW57736   7.143   4.248   0.631 -0.3810 -0.1322  0.3614
18858SOL    HW157737   7.232   4.240   0.665 -0.0140 -1.8214 -0.8635
18858SOL    HW257738   7.087   4.244   0.709  0.5859  0.7782  1.1296
18859SOL     OW57739   6.648   4.259   2.394  0.3291  0.0848  0.2854
18859SOL    HW157740   6.601   4.238   2.474 -0.5320 -1.3077 -0.5547
18859SOL    HW257741   6.658   4.175   2.349 -1.4866  1.1250 -2.2878
18860SOL     OW57742   7.366   0.200   4.711  0.4631  0.8083 -0.2699
18860SOL    HW157743   7.325   0.236   4.790 -1.8055 -0.0486 -0.9725
18860SOL    HW257744   7.293   0.163   4.661  1.8418  1.1966 -2.7285
18861SOL     OW57745   3.370   6.240   4.713  0.8505  0.0124  0.0509
18861SOL    HW157746   3.336   6.200   4.793  1.0969 -1.0265 -0.3357
18861SOL    HW257747   3.387   6.331   4.736 -1.8461  0.5053  0.3586
18862SOL     OW57748   3.746   2.651   7.464 -0.6404  0.2755  0.6627
18862SOL    HW157749   3.763   2.562   7.494  0.8828  0.3143 -0.0159
18862SOL    HW257750   3.753   2.705   7.543 -2.9362 -0.3124  1.3430
18863SOL     OW57751   0.549   6.105   5.767  0.0349 -0.7451 -0.0550
18863SOL    HW157752   0.573   6.013   5.776  2.6654 -0.0370  1.0955
18863SOL    HW257753   0.610   6.140   5.702  2.1334  1.0553  2.6543
18864SOL     OW57754   5.942   5.587   5.401 -0.0229  0.1554 -0.1591
18864SOL    HW157755   5.861   5.559   5.444  0.1756 -0.0849  0.0613
18864SOL    HW257756   6.006   5.520   5.424 -0.1608 -0.5534 -1.6742
18865SOL     OW57757   1.922   6.069   2.098 -0.1764 -0.0089 -0.0613
18865SOL    HW157758   1.959   6.042   2.182 -0.3680  2.1785  0.7753
18865SOL    HW257759   1.935   6.164   2.095 -0.5121  0.0127 -2.3496
18866SOL     OW57760   8.125   6.578   0.605  0.7955 -0.3466  0.1007
18866SOL    HW157761   8.172   6.540   0.529  1.0009  0.5777 -0.2428
18866SOL    HW257762   8.184   6.646   0.638 -0.8489  1.8347 -1.1995
18867SOL     OW57763   8.563   6.597   3.170  0.3142 -0.2653  0.5847
18867SOL    HW157764   8.546   6.689   3.152 -0.5237 -0.2309  1.5055
18867SOL    HW257765   8.618   6.568   3.096 -0.2337  0.7072 -0.2274
18868SOL     OW57766   5.536   7.849   2.019 -0.0684  0.3849 -0.2006
18868SOL    HW157767   5.528   7.873   1.926  1.2334 -1.2802 -0.7823
18868SOL    HW257768   5.460   7.793   2.035 -0.8044  1.4124  0.0254
18869SOL     OW57769   2.784   1.326   7.771  0.3923  0.6065 -0.4075
18869SOL    HW157770   2.789   1.392   7.702  1.1221  0.3623 -0.5929
18869SOL    HW257771   2.704   1.348   7.819 -0.1158  0.7990 -1.3123
18870SOL     OW57772   6.637   0.429   6.965  0.0428  0.0701  0.6795
18870SOL    HW157773   6.716   0.375   6.975  1.3803  1.2535 -2.2588
18870SOL    HW257774   6.641   0.491   7.037  1.4018 -0.3728  1.0114
18871SOL     OW57775   5.546   8.425   2.848 -0.0211  0.0983  0.6367
18871SOL    HW157776   5.528   8.510   2.809 -0.7319 -0.1933  0.3063
18871SOL    HW257777   5.549   8.365   2.773 -2.1571 -0.6010  1.0611
18872SOL     OW57778   8.585   1.296   0.373  0.4907 -0.3615 -0.0608
18872SOL    HW157779   8.510   1.336   0.329 -0.6380 -2.5620 -0.2684
18872SOL    HW257780   8.631   1.248   0.303  1.4320 -0.0002  0.2920
18873SOL     OW57781   7.954   2.634   2.792  0.4463  0.3455 -1.0206
18873SOL    HW157782   7.871   2.601   2.825  0.6225  2.6071  2.1469
18873SOL    HW257783   8.014   2.560   2.797 -0.5166 -0.3856  0.2987
18874SOL     OW57784   0.881   8.244   8.626  0.1052  0.3035 -0.1625
18874SOL    HW157785   0.888   8.309   8.557 -1.1218  0.6684  0.0377
18874SOL    HW257786   0.857   8.294   8.704 -3.1900 -0.5726 -0.4876
18875SOL     OW57787   3.695   6.091   2.201 -0.1153  0.2782  0.2227
18875SOL    HW157788   3.744   6.172   2.187  0.0050  0.0677 -0.6578
18875SOL    HW257789   3.605   6.114   2.179 -0.0023  0.0614 -0.4931
18876SOL     OW57790   5.166   7.199   4.034 -0.3596  0.1273  0.0803
18876SOL    HW157791   5.115   7.272   4.067 -1.6111 -1.2738  1.4225
18876SOL    HW257792   5.135   7.187   3.944 -0.8804  0.6164  0.1893
18877SOL     OW57793   2.374   7.394   1.402 -0.0374  0.1616  0.1912
18877SOL    HW157794   2.465   7.398   1.430 -0.2457 -1.2451  1.2301
18877SOL    HW257795   2.355   7.481   1.368  1.4286  0.7567  0.8095
18878SOL     OW57796   5.166   2.908   6.917 -0.2621 -0.0340  0.2280
18878SOL    HW157797   5.154   2.932   6.825  1.5592 -1.6496 -0.4927
18878SOL    HW257798   5.127   2.981   6.965  0.6740  1.9567 -1.7972
18879SOL     OW57799   0.386   5.219   4.626  0.1185  0.1591  0.3448
18879SOL    HW157800   0.341   5.167   4.692 -1.9291  0.4945 -0.6969
18879SOL    HW257801   0.472   5.177   4.617 -1.0530 -2.4795  0.2620
18880SOL     OW57802   5.965   0.595   7.875  0.1840 -0.2340  0.0155
18880SOL    HW157803   6.026   0.666   7.893  1.2242 -0.9622 -0.5606
18880SOL    HW257804   5.927   0.573   7.960 -1.1785  1.8828  0.0271
18881SOL     OW57805   1.644   6.207   5.636 -0.0500  0.2783 -0.0284
18881SOL    HW157806   1.620   6.291   5.676 -1.8697 -0.4592  0.4935
18881SOL    HW257807   1.596   6.206   5.553  0.2031 -0.1234 -0.1691
18882SOL     OW57808   2.000   7.981   1.794 -0.3845 -0.5929 -0.1991
18882SOL    HW157809   2.012   7.897   1.838 -1.0538 -0.7153 -0.2500
18882SOL    HW257810   2.009   7.959   1.701 -2.7873 -1.0293 -0.3782
18883SOL     OW57811   5.081   6.740   8.811  0.1682  0.0153  0.0517
18883SOL    HW157812   5.080   6.754   8.717 -0.3205  1.2885  0.2199
18883SOL    HW257813   5.136   6.811   8.845 -0.4888  0.1913  0.7867
18884SOL     OW57814   2.546   4.742   4.897  0.1221  0.1769 -0.7111
18884SOL    HW157815   2.468   4.790   4.923  0.4235  0.3617 -0.1214
18884SOL    HW257816   2.539   4.733   4.802  0.4492  2.0775 -0.9538
18885SOL     OW57817   2.197   3.528   4.137  0.0688  0.8482 -0.5653
18885SOL    HW157818   2.186   3.573   4.221  2.5129  2.8270 -1.1963
18885SOL    HW257819   2.107   3.519   4.104 -0.9693  0.0982  2.1428
18886SOL     OW57820   6.714   5.707   7.703  0.1081  0.0859 -0.4549
18886SOL    HW157821   6.621   5.709   7.680  0.1621 -1.7749 -0.9525
18886SOL    HW257822   6.721   5.640   7.771  0.6732  2.3239  1.8696
18887SOL     OW57823   1.055   7.354   1.987  0.1051  0.0440 -0.4649
18887SOL    HW157824   0.963   7.339   1.965 -0.3281  2.9903 -1.0546
18887SOL    HW257825   1.103   7.339   1.905 -0.4836  2.7708 -1.4207
18888SOL     OW57826   5.756   2.086   6.606  0.1421  0.0765 -0.6074
18888SOL    HW157827   5.793   2.064   6.521 -0.0753 -1.8735 -0.2537
18888SOL    HW257828   5.742   2.001   6.648  0.2314  0.9965  1.3749
18889SOL     OW57829   8.456   2.878   8.009  0.0260 -0.1136  0.3394
18889SOL    HW157830   8.427   2.797   7.969 -0.2769  1.0144 -1.8668
18889SOL    HW257831   8.389   2.942   7.986  0.7124  0.9789  1.2307
18890SOL     OW57832   4.085   3.932   8.531 -0.2789  0.6875  0.0770
18890SOL    HW157833   4.142   3.911   8.456 -0.9461 -0.8579 -0.0234
18890SOL    HW257834   4.146   3.956   8.601  0.5859 -1.4746  0.1351
18891SOL     OW57835   7.278   3.269   1.302  0.1247  0.2724 -0.8610
18891SOL    HW157836   7.216   3.283   1.373 -1.7046 -2.6037 -1.6960
18891SOL    HW257837   7.223   3.256   1.224  1.9452  0.9656 -2.3345
18892SOL     OW57838   4.196   6.097   7.525  0.3547 -0.5414 -0.0141
18892SOL    HW157839   4.129   6.136   7.581  2.9525 -0.2539  3.1955
18892SOL    HW257840   4.243   6.171   7.488  1.4184 -0.5892  1.1391
18893SOL     OW57841   0.744   8.491   3.229  0.6012  0.1571 -0.0271
18893SOL    HW157842   0.745   8.586   3.234  1.1067  0.1220  0.6225
18893SOL    HW257843   0.784   8.462   3.311 -0.0149 -0.6229  0.0075
18894SOL     OW57844   8.441   0.379   4.815  0.5280 -0.2658 -0.7570
18894SOL    HW157845   8.404   0.458   4.776 -0.8575 -0.2244  0.5302
18894SOL    HW257846   8.517   0.410   4.864 -0.4444  0.4638  0.3785
18895SOL     OW57847   3.032   7.087   5.974  0.0008 -0.0126 -0.2177
18895SOL    HW157848   2.970   7.158   5.961  0.3870  0.1565 -1.2644
18895SOL    HW257849   2.983   7.021   6.024  0.4804  2.0717  3.3135
18896SOL     OW57850   4.257   2.104   3.140 -0.1004 -0.0711 -0.3502
18896SOL    HW157851   4.247   2.199   3.144 -0.6299 -0.1366  3.0205
18896SOL    HW257852   4.329   2.090   3.078  2.6142  2.8383  1.8212
18897SOL     OW57853   5.016   7.031   7.795 -0.2328  0.1188  0.6796
18897SOL    HW157854   5.030   7.094   7.723 -0.4691 -0.1858  0.3662
18897SOL    HW257855   5.086   6.966   7.783  0.0052  0.3112  0.9982
18898SOL     OW57856   8.263   6.364   6.571 -0.1980  0.2898 -0.1166
18898SOL    HW157857   8.299   6.329   6.489  2.3442 -1.1856  1.4824
18898SOL    HW257858   8.218   6.290   6.610 -0.1573  0.5718  0.4711
18899SOL     OW57859   0.383   3.502   7.301 -0.3033 -0.0151  0.1463
18899SOL    HW157860   0.357   3.412   7.322 -1.0434  0.2807  0.5290
18899SOL    HW257861   0.415   3.538   7.384 -0.5100  0.2394  0.1171
18900SOL     OW57862   5.885   8.030   3.805  0.3442 -0.2356 -0.9730
18900SOL    HW157863   5.949   8.095   3.777 -0.1648  0.4908 -0.4910
18900SOL    HW257864   5.831   8.076   3.869 -1.0961 -0.6252 -1.8665
18901SOL     OW57865   3.609   4.315   3.133  0.7560 -1.4342 -0.2071
18901SOL    HW157866   3.606   4.352   3.222 -1.4885  0.0805 -0.8123
18901SOL    HW257867   3.701   4.296   3.118  1.1463 -2.4706  2.7005
18902SOL     OW57868   1.612   3.834   1.078  0.2078 -0.1289  0.3451
18902SOL    HW157869   1.681   3.783   1.036 -0.2640  0.4587 -1.2367
18902SOL    HW257870   1.634   3.925   1.057 -0.6264  0.1047  0.4592
18903SOL     OW57871   2.089   1.733   7.898 -0.2150 -0.7337  0.2408
18903SOL    HW157872   2.097   1.638   7.894 -0.4401 -0.7211 -0.8023
18903SOL    HW257873   2.099   1.754   7.991 -1.2727 -1.8754  0.6462
18904SOL     OW57874   7.290   2.355   1.656  0.0352  0.3961  0.6931
18904SOL    HW157875   7.305   2.267   1.621  3.0026  0.9920  0.1657
18904SOL    HW257876   7.254   2.341   1.743 -3.0535 -1.1935 -0.6846
18905SOL     OW57877   3.408   0.693   7.217 -0.1478  0.0733  0.5800
18905SOL    HW157878   3.456   0.726   7.141  0.4997  0.2980  1.0753
18905SOL    HW257879   3.415   0.598   7.210  0.2712  0.1028  0.5832
18906SOL     OW57880   6.890   1.708   7.155 -0.3530 -0.0556  0.3589
18906SOL    HW157881   6.824   1.659   7.104 -0.8285  1.4330 -0.5163
18906SOL    HW257882   6.858   1.705   7.245 -1.0935 -0.1993  0.1001
18907SOL     OW57883   1.229   7.864   5.594 -0.8382  0.0912 -0.1027
18907SOL    HW157884   1.230   7.816   5.677 -2.1023  2.4992  1.4157
18907SOL    HW257885   1.137   7.864   5.567 -1.2363  3.0716  0.9184
18908SOL     OW57886   4.566   3.574   2.665 -0.7034 -0.3245  0.1091
18908SOL    HW157887   4.552   3.616   2.750 -0.0399  0.2917 -0.0798
18908SOL    HW257888   4.656   3.542   2.670 -1.0310 -1.2821  0.0543
18909SOL     OW57889   5.316   3.665   4.361  0.2802  0.6757  0.0180
18909SOL    HW157890   5.332   3.743   4.414  0.7001 -0.3701  1.4758
18909SOL    HW257891   5.347   3.593   4.414  0.6517 -0.4414 -1.6489
18910SOL     OW57892   6.818   3.445   4.330  0.2453  0.0091  0.1832
18910SOL    HW157893   6.903   3.485   4.348  0.3175 -0.6645  1.4473
18910SOL    HW257894   6.778   3.435   4.416 -0.3877 -1.2438 -0.2372
18911SOL     OW57895   7.651   1.140   2.532 -0.1485  0.1658  0.2142
18911SOL    HW157896   7.574   1.085   2.541  0.4186 -0.3762  2.2019
18911SOL    HW257897   7.713   1.086   2.481 -0.3331 -0.2299  0.4037
18912SOL     OW57898   6.121   7.200   5.425  0.1498  0.0435  0.6812
18912SOL    HW157899   6.207   7.158   5.423  0.8042  1.2449  1.6130
18912SOL    HW257900   6.100   7.218   5.334  0.7899 -0.4791  0.4291
18913SOL     OW57901   2.261   7.131   1.340 -0.1638  0.5417  0.1475
18913SOL    HW157902   2.348   7.095   1.324 -0.9370 -1.1101 -0.6627
18913SOL    HW257903   2.275   7.224   1.354  1.7691  0.2407  0.4468
18914SOL     OW57904   0.669   1.041   8.336 -0.1014 -0.4371  0.1242
18914SOL    HW157905   0.585   0.996   8.345 -0.1677 -0.0511  1.6983
18914SOL    HW257906   0.664   1.113   8.399  0.8385  0.4842 -0.8258
18915SOL     OW57907   3.292   0.989   2.746 -0.1414 -0.2479  0.0745
18915SOL    HW157908   3.361   1.005   2.681 -0.7894 -0.4810 -0.6817
18915SOL    HW257909   3.254   1.075   2.762 -0.4117 -0.2903 -0.3430
18916SOL     OW57910   2.961   5.211   7.207  0.1377 -0.3942 -0.3859
18916SOL    HW157911   2.883   5.177   7.251 -0.9847  2.9117  0.5278
18916SOL    HW257912   2.940   5.205   7.114  0.2225 -2.4627 -0.3144
18917SOL     OW57913   3.363   7.742   6.909 -0.2682 -0.0389  0.0895
18917SOL    HW157914   3.303   7.702   6.973 -1.1065 -0.5412 -0.9669
18917SOL    HW257915   3.401   7.816   6.955 -0.9472 -0.3127  1.1329
18918SOL     OW57916   7.186   3.985   3.038 -0.2820  0.4108 -0.4355
18918SOL    HW157917   7.244   4.057   3.014 -0.5274  0.4857 -0.8133
18918SOL    HW257918   7.175   3.935   2.957  0.0677 -0.1815 -0.1265
18919SOL     OW57919   6.407   3.720   7.244 -0.2092 -0.2023 -0.2801
18919SOL    HW157920   6.455   3.801   7.258  0.5321 -0.7034  0.1887
18919SOL    HW257921   6.323   3.747   7.207  0.4150  0.7020 -1.0887
18920SOL     OW57922   8.604   5.760   1.247 -0.3176  0.0474  0.0486
18920SOL    HW157923   8.696   5.783   1.254 -0.1671 -0.8484  1.7983
18920SOL    HW257924   8.560   5.840   1.219  0.8692  0.7623  0.1821
18921SOL     OW57925   4.149   8.329   4.718 -0.3247  0.0264 -0.1861
18921SOL    HW157926   4.232   8.371   4.697 -0.8993  1.8824  1.0167
18921SOL    HW257927   4.163   8.289   4.803 -0.9817  1.3982  0.5945
18922SOL     OW57928   4.223   4.450   6.435 -0.3480  0.2128  0.0001
18922SOL    HW157929   4.315   4.449   6.410  0.1500 -1.1872  1.6820
18922SOL    HW257930   4.179   4.394   6.371  0.1132  0.2022 -0.3067
18923SOL     OW57931   0.081   7.927   8.057  0.0902  0.0861  0.2168
18923SOL    HW157932   0.068   7.852   7.999 -0.3516  0.4055 -0.1122
18923SOL    HW257933   0.052   8.002   8.005  0.0087  0.4188  0.7341
18924SOL     OW57934   5.861   6.643   6.230 -0.2357  0.0525 -0.4105
18924SOL    HW157935   5.782   6.659   6.282 -0.1022 -0.0649 -0.1702
18924SOL    HW257936   5.868   6.719   6.172  0.2873  0.7724  0.5767
18925SOL     OW57937   6.028   0.911   2.865  0.2494  0.1899 -0.4283
18925SOL    HW157938   5.969   0.841   2.837  0.8968 -0.5977  0.1242
18925SOL    HW257939   6.105   0.900   2.809  0.8551 -0.3253  0.4959
18926SOL     OW57940   7.829   8.005   7.075 -0.9381  0.5242 -0.3304
18926SOL    HW157941   7.868   8.044   7.153 -0.8945  0.0275 -0.1008
18926SOL    HW257942   7.836   8.073   7.008  0.5773  0.3551 -0.3809
18927SOL     OW57943   6.392   0.442   3.807  0.1371  0.4394 -0.1564
18927SOL    HW157944   6.410   0.349   3.814 -0.7739  0.1009 -1.7408
18927SOL    HW257945   6.451   0.483   3.870  0.2869 -1.2192  0.8371
18928SOL     OW57946   6.619   8.425   8.570  0.0064 -0.3611 -0.2033
18928SOL    HW157947   6.633   8.507   8.522  1.1255 -0.1961  0.3709
18928SOL    HW257948   6.526   8.426   8.593  0.4169  1.8921  1.7543
18929SOL     OW57949   4.442   1.223   2.853 -0.6713  0.2134  0.6977
18929SOL    HW157950   4.349   1.234   2.872 -0.6422  1.5767  0.0992
18929SOL    HW257951   4.458   1.129   2.869 -2.3320 -0.2358 -0.0540
18930SOL     OW57952   6.705   5.102   3.910  0.2887 -0.3835 -0.1336
18930SOL    HW157953   6.793   5.114   3.945  0.9515 -1.2424 -1.4327
18930SOL    HW257954   6.689   5.182   3.859 -1.0748  1.3421  2.7343
18931SOL     OW57955   7.921   3.779   4.262  0.0464  0.1283  0.0493
18931SOL    HW157956   8.013   3.757   4.276 -0.3710 -1.0776  1.0583
18931SOL    HW257957   7.920   3.875   4.257  1.1910  0.2438  1.3527
18932SOL     OW57958   1.821   8.839   7.606 -0.1166 -0.0670  0.0210
18932SOL    HW157959   1.781   8.857   7.522  0.6605 -0.3501 -0.4237
18932SOL    HW257960   1.888   8.773   7.587  1.4764  1.3463  0.4855
18933SOL     OW57961   7.148   4.492   5.849 -0.5032  0.3919 -0.3520
18933SOL    HW157962   7.140   4.585   5.832 -0.8690  0.3560 -0.3881
18933SOL    HW257963   7.236   4.481   5.884 -0.8196  0.9102  0.6586
18934SOL     OW57964   7.730   0.838   1.306 -0.3845  0.2838  0.9453
18934SOL    HW157965   7.817   0.855   1.342  0.3447 -0.7588 -0.2289
18934SOL    HW257966   7.745   0.774   1.237 -1.9005  1.0840 -0.2001
18935SOL     OW57967   6.160   0.733   6.586  0.5858 -0.3126 -0.2369
18935SOL    HW157968   6.112   0.801   6.634  0.5133 -0.6666  0.1982
18935SOL    HW257969   6.106   0.655   6.595  1.9587 -1.1399  1.6266
18936SOL     OW57970   5.945   0.422   5.396  0.2612 -0.3790  0.0283
18936SOL    HW157971   6.020   0.368   5.418  0.3248 -0.3583 -0.1337
18936SOL    HW257972   5.965   0.457   5.309  0.9542  1.1736  0.7600
18937SOL     OW57973   5.298   6.063   5.605 -1.2270 -0.4709  0.0008
18937SOL    HW157974   5.312   5.997   5.537 -0.2599 -1.1762  0.8590
18937SOL    HW257975   5.335   6.143   5.568 -1.7631 -0.5683 -0.7636
18938SOL     OW57976   7.174   0.743   0.225  0.0386  0.6111  0.3491
18938SOL    HW157977   7.205   0.693   0.300 -1.5950  0.7132  1.1258
18938SOL    HW257978   7.169   0.679   0.154 -2.9829 -0.6742  1.5685
18939SOL     OW57979   4.690   0.300   8.355  0.1082  0.1132 -0.0316
18939SOL    HW157980   4.747   0.348   8.416  0.9172  0.0334 -0.7129
18939SOL    HW257981   4.617   0.360   8.339 -0.1444  0.1169  1.0463
18940SOL     OW57982   2.888   5.207   5.331  0.4837  0.0659  0.2503
18940SOL    HW157983   2.900   5.128   5.278 -0.6547  0.1619 -0.1691
18940SOL    HW257984   2.812   5.188   5.385  1.2771  0.1959  1.4674
18941SOL     OW57985   3.427   0.876   3.908  0.2007  0.2455  0.4162
18941SOL    HW157986   3.347   0.861   3.959  0.3201  0.3344  0.6281
18941SOL    HW257987   3.474   0.793   3.914  1.0553  0.8037  1.9292
18942SOL     OW57988   5.683   8.336   1.392 -0.0754 -0.5004  0.4984
18942SOL    HW157989   5.643   8.345   1.305  0.3099  1.0172  0.4684
18942SOL    HW257990   5.609   8.337   1.452 -0.2061  1.1677  0.3577
18943SOL     OW57991   2.648   6.386   3.126  0.0449  0.6749 -0.1652
18943SOL    HW157992   2.662   6.480   3.119 -1.8819  1.2197  2.2110
18943SOL    HW257993   2.658   6.354   3.036  0.0213  3.2246 -1.1573
18944SOL     OW57994   8.395   4.660   0.783 -1.2277  0.0569  0.3248
18944SOL    HW157995   8.324   4.648   0.721 -1.8321 -1.8196  1.2924
18944SOL    HW257996   8.442   4.576   0.783  0.5721  1.0115  0.2308
18945SOL     OW57997   1.894   6.328   2.109  0.0802 -0.0277  0.0617
18945SOL    HW157998   1.815   6.315   2.161 -0.2193 -2.3701 -0.8682
18945SOL    HW257999   1.946   6.391   2.159 -1.4859  0.0362  1.6842
18946SOL     OW58000   3.834   3.304   6.665 -0.3238 -0.2001  0.9619
18946SOL    HW158001   3.755   3.307   6.720 -0.4508 -0.7457  0.8125
18946SOL    HW258002   3.863   3.213   6.669  1.5547  0.4093  2.7355
18947SOL     OW58003   5.540   7.125   7.175  0.3350  0.0291 -0.5273
18947SOL    HW158004   5.558   7.055   7.237 -0.7691  0.4344  0.2712
18947SOL    HW258005   5.455   7.160   7.201  1.7268  3.0708  0.4263
18948SOL     OW58006   0.431   0.017   6.522  0.3907  0.4759 -0.2138
18948SOL    HW158007   0.415   0.045   6.613  0.9701  1.7697 -0.4802
18948SOL    HW258008   0.400  -0.073   6.519  0.1226  0.4897  1.2075
18949SOL     OW58009   1.081   5.910   3.325  0.2271  0.0983 -0.0351
18949SOL    HW158010   1.131   5.897   3.244 -0.5587  0.0467 -0.5291
18949SOL    HW258011   0.998   5.946   3.295 -0.3947 -0.7033  0.6723
18950SOL     OW58012   5.716   7.040   4.104 -0.8120  0.4633 -0.8479
18950SOL    HW158013   5.750   6.953   4.086 -0.0857  0.5879 -0.1438
18950SOL    HW258014   5.628   7.040   4.066 -1.2380 -0.9254  0.0711
18951SOL     OW58015   8.826   7.085   1.917 -0.4191  0.4476  0.1361
18951SOL    HW158016   8.801   7.178   1.920 -1.0730  0.3022 -0.4822
18951SOL    HW258017   8.773   7.048   1.846 -0.6062 -0.5310  0.7697
18952SOL     OW58018   5.469   6.299   1.891 -0.0814 -0.3310  0.1329
18952SOL    HW158019   5.559   6.271   1.877  0.3487  1.2903 -0.5605
18952SOL    HW258020   5.450   6.274   1.982  1.1877 -0.3609  0.4009
18953SOL     OW58021   1.646   5.949   3.196 -0.5494  0.3576  0.5496
18953SOL    HW158022   1.694   5.951   3.279 -0.5558 -0.3306  0.5779
18953SOL    HW258023   1.555   5.933   3.222 -0.4904 -0.2588  0.3959
18954SOL     OW58024   8.302   2.474   5.489  0.2964  0.5723 -0.1307
18954SOL    HW158025   8.315   2.501   5.580 -3.0128 -0.6200  0.8398
18954SOL    HW258026   8.208   2.477   5.476  0.5934 -0.0822 -3.3257
18955SOL     OW58027   5.712   0.812   8.335  0.1397 -0.4306  0.0199
18955SOL    HW158028   5.675   0.730   8.368  2.3934 -1.9772 -1.0859
18955SOL    HW258029   5.689   0.814   8.242 -0.0816  0.3332  0.0770
18956SOL     OW58030   4.340   3.404   0.008 -0.1822 -0.1269  0.3812
18956SOL    HW158031   4.409   3.467  -0.013 -1.4425  0.9266 -0.7280
18956SOL    HW258032   4.366   3.368   0.093  1.4712  0.5976  0.2189
18957SOL     OW58033   5.086   3.188   6.246 -0.2992  0.1784  0.3830
18957SOL    HW158034   5.110   3.278   6.268  2.0297  0.0006 -1.0628
18957SOL    HW258035   5.021   3.197   6.177 -0.6029  0.7232  0.7265
18958SOL     OW58036   8.734   6.233   7.271 -0.5356 -0.0864 -0.2077
18958SOL    HW158037   8.761   6.141   7.278 -1.7906 -0.5722 -1.4575
18958SOL    HW258038   8.724   6.261   7.362  0.3922 -1.0095  0.2060
18959SOL     OW58039   2.440   0.276   7.377  0.2465  0.1927 -0.1471
18959SOL    HW158040   2.378   0.206   7.355 -0.2392  0.5139  0.1851
18959SOL    HW258041   2.390   0.357   7.365  0.4789  0.4398  0.5221
18960SOL     OW58042   3.086   6.474   1.103  0.3081  0.5574  0.2275
18960SOL    HW158043   3.164   6.508   1.147  0.8159 -2.4698  1.9998
18960SOL    HW258044   3.013   6.500   1.160  0.5542 -0.2854  0.9412
18961SOL     OW58045   1.418   1.786   7.320 -0.0902  0.5592 -0.3618
18961SOL    HW158046   1.364   1.865   7.318 -2.7713 -1.0113  2.2088
18961SOL    HW258047   1.371   1.723   7.266 -0.5047 -0.5849  1.2441
18962SOL     OW58048   6.870   1.232   7.224  0.1434  0.2684 -0.1987
18962SOL    HW158049   6.855   1.271   7.311 -0.5178  1.2328 -0.7195
18962SOL    HW258050   6.961   1.204   7.226 -0.2129 -0.9508  1.2638
18963SOL     OW58051   2.561   7.778   6.521  0.2206 -0.2197  0.1386
18963SOL    HW158052   2.539   7.760   6.613  0.8562  1.0439  0.5619
18963SOL    HW258053   2.477   7.802   6.481  0.1763  0.8223  0.8036
18964SOL     OW58054   3.710   1.697   8.374  0.4158  0.6312  0.1482
18964SOL    HW158055   3.681   1.616   8.333  0.6230  0.5383  0.1843
18964SOL    HW258056   3.633   1.730   8.419  0.0331  1.0183 -0.7711
18965SOL     OW58057   0.599   6.643   6.025 -0.0277 -0.8361 -0.0329
18965SOL    HW158058   0.606   6.676   6.115  0.6262 -0.6371 -0.1572
18965SOL    HW258059   0.507   6.617   6.017 -0.4013  0.3357  0.2750
18966SOL     OW58060   1.439   4.420   1.261  0.6064  0.0078  0.1289
18966SOL    HW158061   1.481   4.414   1.174 -1.5678  1.1037 -1.0823
18966SOL    HW258062   1.417   4.330   1.283  0.1781 -0.1790 -1.0020
18967SOL     OW58063   0.633   8.591   2.498 -0.2163  0.1398  0.2626
18967SOL    HW158064   0.596   8.631   2.419  0.5491  0.0543 -0.1450
18967SOL    HW258065   0.727   8.603   2.489 -0.0649 -0.6112  0.7628
18968SOL     OW58066   4.014   5.331   6.774  0.1917 -0.2439  0.4607
18968SOL    HW158067   3.982   5.258   6.828  0.3252  0.5869  1.6857
18968SOL    HW258068   4.019   5.405   6.834  1.0687  0.5228 -0.5332
18969SOL     OW58069   6.137   7.590   5.468 -0.0371  0.3407  0.5402
18969SOL    HW158070   6.164   7.544   5.548  0.7923 -0.0812  0.0257
18969SOL    HW258071   6.191   7.669   5.467 -0.6995  0.8054  0.8640
18970SOL     OW58072   6.870   0.451   3.840  0.6741  0.1128  0.1947
18970SOL    HW158073   6.824   0.375   3.805 -0.5675  0.1464  1.6757
18970SOL    HW258074   6.862   0.517   3.771 -1.0226 -0.0743  0.1614
18971SOL     OW58075   0.119   0.072   3.489  0.0788  0.1554 -0.3509
18971SOL    HW158076   0.156  -0.014   3.510  0.3426  0.0850 -1.0813
18971SOL    HW258077   0.025   0.062   3.500  0.1799  0.0357  0.4705
18972SOL     OW58078   2.347   1.273   5.542 -0.2673  0.5809 -0.1951
18972SOL    HW158079   2.264   1.320   5.543 -0.3272  0.4714  1.2765
18972SOL    HW258080   2.413   1.340   5.558 -0.2960  0.2969  1.1908
18973SOL     OW58081   2.644   2.295   5.568  0.4886 -0.3662  0.3678
18973SOL    HW158082   2.637   2.383   5.605 -1.8314  0.5987 -2.0846
18973SOL    HW258083   2.563   2.251   5.594  1.0572 -1.3898  0.4943
18974SOL     OW58084   7.930   5.757   5.063  0.2010 -0.1367 -0.5667
18974SOL    HW158085   7.862   5.696   5.090 -0.7530  1.7163  1.5198
18974SOL    HW258086   7.948   5.810   5.141  2.4268  0.9403 -1.6920
18975SOL     OW58087   1.171   7.730   5.807 -0.0695 -0.8298 -0.0238
18975SOL    HW158088   1.216   7.646   5.821  1.0797 -0.0720  1.0855
18975SOL    HW258089   1.170   7.771   5.893  1.8456  1.4569 -0.9803
18976SOL     OW58090   3.234   1.005   3.605  0.7656 -0.0051 -0.9326
18976SOL    HW158091   3.289   0.948   3.657  0.4165 -0.4855 -1.0840
18976SOL    HW258092   3.158   0.951   3.582 -0.8346  1.2358  1.0626
18977SOL     OW58093   0.208   7.047   1.516  0.2255  0.1375  0.4251
18977SOL    HW158094   0.262   7.125   1.525 -0.5935  0.8705 -0.6977
18977SOL    HW258095   0.201   7.011   1.604  0.5130  1.3974  0.9762
18978SOL     OW58096   2.043   5.545   8.227  0.1660 -0.0716  0.0568
18978SOL    HW158097   2.087   5.618   8.272 -0.5590  0.7110 -0.4938
18978SOL    HW258098   1.977   5.586   8.172 -0.3790 -1.1629 -0.1314
18979SOL     OW58099   5.861   8.401   0.578 -0.1702 -0.1346  0.0091
18979SOL    HW158100   5.852   8.325   0.637  0.5522 -0.0551  0.2284
18979SOL    HW258101   5.914   8.464   0.627  0.8412 -0.2494 -0.8875
18980SOL     OW58102   7.669   4.167   2.081  0.4860  0.4110 -0.6869
18980SOL    HW158103   7.647   4.260   2.071 -1.4729 -0.0125 -0.6611
18980SOL    HW258104   7.667   4.152   2.175 -0.4958  0.0854 -0.7439
18981SOL     OW58105   6.833   0.207   4.907  0.1522  0.2754  0.4690
18981SOL    HW158106   6.870   0.123   4.936  1.1272  0.7697  0.6882
18981SOL    HW258107   6.751   0.183   4.863  1.4891 -1.0383 -1.4552
18982SOL     OW58108   7.252   5.765   3.294 -0.6379  0.0650 -0.2900
18982SOL    HW158109   7.345   5.761   3.270 -0.6222  0.7327 -0.3502
18982SOL    HW258110   7.243   5.702   3.365 -0.5775 -1.5788 -1.6647
18983SOL     OW58111   4.200   2.596   1.064  1.0792 -0.0200 -0.4896
18983SOL    HW158112   4.152   2.596   0.982 -0.6367  1.1792  0.4393
18983SOL    HW258113   4.179   2.511   1.104  0.7665 -0.0336 -0.6757
18984SOL     OW58114   2.228   4.884   8.525 -0.5083  0.0876  0.2150
18984SOL    HW158115   2.231   4.970   8.483 -0.4730  0.0065  0.0505
18984SOL    HW258116   2.139   4.877   8.559 -1.5569 -1.1203 -2.5447
18985SOL     OW58117   7.951   0.875   7.529 -0.8851 -0.0083 -0.1067
18985SOL    HW158118   8.003   0.905   7.604 -0.5233  1.1349 -0.7896
18985SOL    HW258119   7.933   0.955   7.479 -0.3718 -0.8582 -1.6971
18986SOL     OW58120   8.436   0.835   4.300  0.1952 -0.2609  0.0771
18986SOL    HW158121   8.440   0.901   4.369  1.4347 -0.1088 -0.1251
18986SOL    HW258122   8.409   0.884   4.222  0.3421 -0.1395  0.1021
18987SOL     OW58123   6.288   4.777   2.937 -0.3259 -0.3689  0.4142
18987SOL    HW158124   6.196   4.775   2.963  0.1434  0.7591  2.3453
18987SOL    HW258125   6.298   4.860   2.891 -0.2431 -0.4519  0.2803
18988SOL     OW58126   7.863   8.771   8.510  0.2181  0.4941 -0.3200
18988SOL    HW158127   7.847   8.865   8.496  1.6687  0.6911 -0.7978
18988SOL    HW258128   7.886   8.764   8.603  1.8887  0.9199 -0.6602
18989SOL     OW58129   4.607   8.688   6.886 -0.4345  0.4847 -0.5408
18989SOL    HW158130   4.697   8.657   6.901 -0.5968  0.5027  0.5601
18989SOL    HW258131   4.552   8.611   6.901 -0.6682  0.6995 -0.2925
18990SOL     OW58132   5.577   3.400   8.443 -0.4785 -0.0610  0.1132
18990SOL    HW158133   5.563   3.308   8.466  2.0989 -0.1849  1.5768
18990SOL    HW258134   5.632   3.397   8.365 -0.2484  0.2087  0.2634
18991SOL     OW58135   5.806   7.015   1.780 -0.3603  0.1021 -0.1586
18991SOL    HW158136   5.834   6.929   1.750 -0.7122  0.3027 -1.0775
18991SOL    HW258137   5.779   7.001   1.871  1.0405 -0.4437  0.1956
18992SOL     OW58138   3.346   2.563   0.309 -0.4327 -0.2091 -0.3719
18992SOL    HW158139   3.386   2.617   0.240 -0.1541  0.5375  0.3604
18992SOL    HW258140   3.267   2.610   0.334  0.1892  0.2748  0.7830
18993SOL     OW58141   0.136   5.669   3.943 -0.0594 -0.0559 -0.8164
18993SOL    HW158142   0.061   5.621   3.977  0.5961 -1.0951 -0.7731
18993SOL    HW258143   0.136   5.752   3.990  0.9541 -1.5067  1.9745
18994SOL     OW58144   4.617   3.640   1.262  0.0046  0.0974 -0.4251
18994SOL    HW158145   4.552   3.570   1.270 -1.3455  1.1157 -1.9860
18994SOL    HW258146   4.696   3.595   1.232 -0.3756 -0.9664  0.1223
18995SOL     OW58147   8.349   2.971   2.377  0.6976 -0.6057  0.1836
18995SOL    HW158148   8.396   2.897   2.415 -0.6450 -0.8671  1.4284
18995SOL    HW258149   8.290   3.001   2.447 -1.9703 -1.1595 -1.6508
18996SOL     OW58150   8.077   5.111   2.050  0.7728  0.4856 -0.1786
18996SOL    HW158151   8.118   5.177   1.995 -0.9502  0.5552 -1.4681
18996SOL    HW258152   8.007   5.158   2.096 -1.5583 -0.6335 -2.3351
18997SOL     OW58153   5.062   8.796   3.162  0.4002 -0.2387  0.1074
18997SOL    HW158154   5.071   8.842   3.079 -1.9228  0.5755  0.2187
18997SOL    HW258155   5.150   8.764   3.182  1.1743  0.2261 -2.2443
18998SOL     OW58156   3.215   5.956   5.844 -0.1275 -0.5196 -0.2329
18998SOL    HW158157   3.285   5.968   5.908  0.4852 -1.7099 -0.6316
18998SOL    HW258158   3.207   6.040   5.799  0.3226 -0.0666  0.5285
18999SOL     OW58159   8.484   4.824   8.622  0.5260 -0.7715 -0.1233
18999SOL    HW158160   8.428   4.875   8.680  1.3937 -0.2381  0.2773
18999SOL    HW258161   8.573   4.855   8.642  0.8522 -0.6799 -1.6335
19000SOL     OW58162   0.476   1.473   7.272  0.1395  0.4535 -0.0468
19000SOL    HW158163   0.385   1.470   7.301 -0.2531 -1.6346 -1.2685
19000SOL    HW258164   0.483   1.555   7.224 -0.6375  1.3818  1.3780
19001SOL     OW58165   1.555   6.132   8.294 -0.2185 -0.0041  0.1973
19001SOL    HW158166   1.603   6.050   8.283 -1.1746 -0.3822 -1.7355
19001SOL    HW258167   1.467   6.104   8.320 -0.7596  0.3218 -1.2039
19002SOL     OW58168   7.291   3.651   3.726  0.2722 -0.1729  0.4715
19002SOL    HW158169   7.330   3.608   3.649 -0.2850 -0.9525  0.6074
19002SOL    HW258170   7.196   3.646   3.711  0.1559 -0.3937  1.2362
19003SOL     OW58171   5.528   3.302   6.222  0.0283 -0.4573 -0.0630
19003SOL    HW158172   5.482   3.330   6.143  1.3180 -0.7406 -0.9512
19003SOL    HW258173   5.578   3.380   6.248  0.7430 -0.8018 -0.3883
19004SOL     OW58174   5.248   4.065   2.990 -0.3471  0.1310  0.0729
19004SOL    HW158175   5.283   4.011   2.919  0.6516 -0.1639  0.7683
19004SOL    HW258176   5.273   4.019   3.070 -0.3118  1.1239  0.6517
19005SOL     OW58177   4.292   1.363   0.436  0.4389 -0.0901  0.7254
19005SOL    HW158178   4.253   1.397   0.516  1.7906  1.2648  0.8532
19005SOL    HW258179   4.369   1.315   0.465 -0.5687 -2.0261  0.4083
19006SOL     OW58180   7.036   7.073   0.648 -0.2764  0.5002  0.7108
19006SOL    HW158181   7.085   7.082   0.566 -1.5751  3.0385  0.1118
19006SOL    HW258182   7.102   7.075   0.716  0.9417 -2.7070 -0.1778
19007SOL     OW58183   3.792   3.010   3.059 -0.3420 -0.2165 -0.1165
19007SOL    HW158184   3.713   3.064   3.055 -1.6341 -2.0821 -1.4799
19007SOL    HW258185   3.819   3.001   2.967  0.0952 -1.5159  0.1230
19008SOL     OW58186   0.881   2.966   8.479  0.2507  0.1831 -0.0018
19008SOL    HW158187   0.821   2.912   8.427  0.9731 -1.4175  0.7765
19008SOL    HW258188   0.830   3.045   8.498 -1.3508 -0.8035  0.0020
19009SOL     OW58189   3.106   1.157   2.868 -0.3309  0.1537 -0.0630
19009SOL    HW158190   3.185   1.198   2.904 -0.8953  0.7502  0.5103
19009SOL    HW258191   3.052   1.230   2.840 -0.9294 -0.2358  0.0664
19010SOL     OW58192   8.786   2.736   5.642 -0.6893 -0.2477  0.2880
19010SOL    HW158193   8.835   2.676   5.587 -0.2364  1.6355 -1.4602
19010SOL    HW258194   8.851   2.774   5.701 -0.4129  0.5790 -0.5199
19011SOL     OW58195   6.347   8.606   1.548 -0.2192  0.0127  0.1669
19011SOL    HW158196   6.419   8.564   1.596  0.6876  0.9480 -0.3217
19011SOL    HW258197   6.293   8.646   1.616 -1.3410 -2.2531  0.6731
19012SOL     OW58198   8.372   8.462   2.591 -0.2408 -0.1663 -0.1997
19012SOL    HW158199   8.363   8.553   2.562 -0.9577 -0.1159  0.1562
19012SOL    HW258200   8.467   8.445   2.589 -0.1394  0.4331 -0.7204
19013SOL     OW58201   2.717   3.369   5.577 -0.2149  0.8396  0.2351
19013SOL    HW158202   2.756   3.439   5.630  1.1008  2.3623 -2.5308
19013SOL    HW258203   2.734   3.395   5.486 -0.0259 -2.8642 -0.9740
19014SOL     OW58204   8.426   7.008   2.485  0.0471  0.4483 -0.4949
19014SOL    HW158205   8.374   6.954   2.426 -0.8040  0.2865  0.3806
19014SOL    HW258206   8.367   7.080   2.509  0.5558  0.7857 -0.2404
19015SOL     OW58207   0.667   1.911   7.878  0.7605  0.8610  0.4277
19015SOL    HW158208   0.677   1.980   7.943 -0.8555 -0.9858  2.7939
19015SOL    HW258209   0.589   1.937   7.828  0.3841  0.9446  1.0470
19016SOL     OW58210   8.089   6.301   5.723 -0.1527  0.8275 -0.0218
19016SOL    HW158211   8.022   6.277   5.659  0.9513  0.2989 -1.0140
19016SOL    HW258212   8.102   6.223   5.776  1.1800  0.1944 -1.2179
19017SOL     OW58213   7.169   7.774   7.261 -0.0624  0.0063 -0.1036
19017SOL    HW158214   7.112   7.739   7.192  2.9019 -2.3002 -1.6202
19017SOL    HW258215   7.251   7.726   7.250  1.2897  1.1306  3.7113
19018SOL     OW58216   8.785   7.417   1.138  0.3993  0.4780 -0.4998
19018SOL    HW158217   8.706   7.465   1.162 -0.4520 -1.3303  0.4694
19018SOL    HW258218   8.838   7.416   1.217  1.3168  1.4610 -1.0737
19019SOL     OW58219   7.849   2.174   3.478 -0.1699 -0.5144  0.4420
19019SOL    HW158220   7.909   2.247   3.466  0.7245 -1.3291 -0.1618
19019SOL    HW258221   7.762   2.214   3.479  0.3710  0.7233  1.6477
19020SOL     OW58222   4.274   8.056   3.164 -0.2997 -0.2549 -0.0108
19020SOL    HW158223   4.267   8.027   3.073 -0.4735  0.5744 -0.2758
19020SOL    HW258224   4.311   7.981   3.211  0.0772 -0.5856 -0.8201
19021SOL     OW58225   4.061   4.266   0.084 -0.4819 -0.6716 -0.6518
19021SOL    HW158226   4.079   4.359   0.071 -0.5187 -0.3747  1.1639
19021SOL    HW258227   4.144   4.223   0.063 -0.0052 -0.0776 -0.0333
19022SOL     OW58228   5.869   6.443   3.112 -0.1038 -0.1155 -0.2680
19022SOL    HW158229   5.950   6.493   3.127 -1.3934  1.9856  0.1624
19022SOL    HW258230   5.864   6.435   3.017  0.1017  0.6908 -0.3606
19023SOL     OW58231   7.119   7.650   5.762  0.3374  0.4078  0.2998
19023SOL    HW158232   7.179   7.612   5.698 -2.8121 -1.3713 -1.9107
19023SOL    HW258233   7.108   7.583   5.829 -1.4079 -0.6314 -0.9490
19024SOL     OW58234   5.698   2.422   4.012  0.0419  0.4578 -0.4838
19024SOL    HW158235   5.762   2.430   4.083  1.1307 -0.7423 -1.2825
19024SOL    HW258236   5.666   2.511   3.999 -0.6995  0.6380  1.9290
19025SOL     OW58237   2.232   1.549   7.525  0.1753 -0.2844 -0.0668
19025SOL    HW158238   2.167   1.613   7.497 -0.1722 -0.9257 -0.7518
19025SOL    HW258239   2.314   1.598   7.529 -0.0678  0.1848 -0.6848
19026SOL     OW58240   5.815   6.874   2.715  0.4252 -0.3073  0.3897
19026SOL    HW158241   5.768   6.956   2.730  0.0643 -0.8161  2.4413
19026SOL    HW258242   5.764   6.829   2.649 -0.4412  0.3293  0.6034
19027SOL     OW58243   7.390   1.446   7.174 -0.1900 -0.0563 -0.3059
19027SOL    HW158244   7.466   1.485   7.130  0.0732  1.8055  1.6126
19027SOL    HW258245   7.315   1.482   7.127  0.0994 -0.1968 -0.8869
19028SOL     OW58246   2.628   2.701   7.690 -0.8754  0.9262 -0.0344
19028SOL    HW158247   2.634   2.638   7.618 -3.2150  2.7294 -1.9475
19028SOL    HW258248   2.580   2.775   7.654  1.2339  3.6527  2.2680
19029SOL     OW58249   1.254   0.809   5.218  0.0359 -0.1683  0.0552
19029SOL    HW158250   1.240   0.823   5.125  1.9349 -1.5726 -0.5188
19029SOL    HW258251   1.299   0.888   5.248  1.0700 -0.4634 -0.6704
19030SOL     OW58252   8.525   1.730   3.985  0.1210 -0.0210  0.2235
19030SOL    HW158253   8.517   1.716   3.890 -1.8670 -0.4856  0.4204
19030SOL    HW258254   8.437   1.751   4.014  0.0737 -2.6240  2.3862
19031SOL     OW58255   1.583   0.449   6.748  0.0675 -0.0867  0.4539
19031SOL    HW158256   1.627   0.466   6.831 -0.6059  2.0324  0.4348
19031SOL    HW258257   1.655   0.444   6.684  0.5045 -0.4846  0.9656
19032SOL     OW58258   6.904   6.553   1.256  0.4178  0.1117  0.3273
19032SOL    HW158259   6.935   6.629   1.306  1.5800  0.3214 -0.6732
19032SOL    HW258260   6.907   6.581   1.165  0.4336 -0.9924 -0.0291
19033SOL     OW58261   6.089   5.618   6.044  0.2129  0.1630  0.0784
19033SOL    HW158262   6.023   5.576   6.099  1.0291 -1.6780 -0.2850
19033SOL    HW258263   6.143   5.546   6.011  0.2304  1.2765 -2.5431
19034SOL     OW58264   3.327   8.027   7.400 -0.6245 -0.3761 -0.3629
19034SOL    HW158265   3.267   8.062   7.334 -1.2268 -0.7712 -0.0262
19034SOL    HW258266   3.398   8.092   7.404 -1.8970  1.0234  0.5282
19035SOL     OW58267   5.893   7.921   1.354  0.6796  0.4618 -0.6128
19035SOL    HW158268   5.989   7.921   1.361  0.5970  0.0286  0.7973
19035SOL    HW258269   5.873   7.841   1.306  1.0191  0.4097 -0.6705
19036SOL     OW58270   5.836   0.523   8.116 -0.1330  0.2471 -0.1960
19036SOL    HW158271   5.893   0.500   8.188 -0.4435 -0.6357 -0.2130
19036SOL    HW258272   5.747   0.505   8.149 -0.2328 -0.9967 -1.0575
19037SOL     OW58273   2.673   8.292   7.568 -0.0452 -0.7514  0.3238
19037SOL    HW158274   2.743   8.228   7.559 -1.0772 -1.8786  0.0954
19037SOL    HW258275   2.668   8.309   7.662 -0.1161 -1.4254  0.4456
19038SOL     OW58276   2.174   8.824   3.213 -0.3343  0.7400  0.2094
19038SOL    HW158277   2.137   8.912   3.223 -1.4319  0.4631 -1.1392
19038SOL    HW258278   2.226   8.829   3.133 -0.5596  0.1169  0.0198
19039SOL     OW58279   5.359   4.064   5.952 -0.7799 -0.2998 -0.3057
19039SOL    HW158280   5.406   3.980   5.955  0.6789  0.4747 -0.2570
19039SOL    HW258281   5.410   4.117   5.890 -0.5217  1.1966  1.1230
19040SOL     OW58282   8.275   6.835   2.301 -0.2518  0.1216  0.1660
19040SOL    HW158283   8.194   6.882   2.279 -0.6455 -0.0977  1.1339
19040SOL    HW258284   8.317   6.819   2.216 -0.3938  1.7058 -0.2349
19041SOL     OW58285   1.592   8.627   4.009  0.3208  0.2557 -0.4837
19041SOL    HW158286   1.516   8.570   4.022  3.3377 -4.2097  0.3043
19041SOL    HW258287   1.593   8.684   4.086 -2.3886  0.7577 -0.7451
19042SOL     OW58288   3.277   1.580   1.508 -0.3616  0.1212 -0.3312
19042SOL    HW158289   3.258   1.530   1.587 -1.7034  0.5327 -0.3611
19042SOL    HW258290   3.366   1.556   1.485  0.3247  0.5568  1.7113
19043SOL     OW58291   1.464   5.625   8.329  0.3046 -0.2726 -0.8416
19043SOL    HW158292   1.460   5.609   8.234  0.1619  1.0555 -1.0877
19043SOL    HW258293   1.508   5.710   8.336  0.0170 -0.2098  0.2699
19044SOL     OW58294   0.782   8.453   4.307  0.6789 -0.3146 -0.4724
19044SOL    HW158295   0.824   8.504   4.376 -0.4602 -0.6888  0.5263
19044SOL    HW258296   0.700   8.423   4.346  0.7948 -1.9640 -1.4075
19045SOL     OW58297   4.250   2.000   6.558 -0.1047 -0.1177  0.4759
19045SOL    HW158298   4.327   1.988   6.501 -1.0096 -2.0183 -0.4317
19045SOL    HW258299   4.245   2.095   6.571  1.7559  0.1445 -0.3184
19046SOL     OW58300   5.367   3.737   3.939 -0.0681  0.0598  0.4341
19046SOL    HW158301   5.445   3.754   3.887  0.1431  1.0488  1.0438
19046SOL    HW258302   5.318   3.820   3.938 -0.4936 -0.1695  1.0719
19047SOL     OW58303   6.108   6.828   2.546  0.2099 -0.0945  0.6695
19047SOL    HW158304   6.030   6.858   2.499  1.9015 -0.7031 -2.8165
19047SOL    HW258305   6.094   6.734   2.558  0.7815 -0.4030 -0.8871
19048SOL     OW58306   7.224   3.016   6.009 -0.4395  0.8305  0.3761
19048SOL    HW158307   7.216   3.110   6.025 -0.0847  1.0429 -0.6140
19048SOL    HW258308   7.237   2.978   6.096  0.1588  1.7835  0.7235
19049SOL     OW58309   7.992   5.990   1.925 -0.2554  0.3552 -0.1767
19049SOL    HW158310   8.054   6.053   1.889 -0.0274  0.4069  0.3060
19049SOL    HW258311   7.934   6.042   1.980 -2.0448  0.6784 -2.2085
19050SOL     OW58312   8.193   7.812   0.064  0.2260 -0.3059  0.1829
19050SOL    HW158313   8.186   7.716   0.062  1.6185 -0.4278 -0.0649
19050SOL    HW258314   8.217   7.832   0.154 -2.0069  0.0062  0.7574
19051SOL     OW58315   2.433   7.781   4.812 -0.1443  0.0702 -0.4248
19051SOL    HW158316   2.494   7.851   4.789  0.3155  0.2908  1.3271
19051SOL    HW258317   2.389   7.813   4.891 -0.8147 -1.0993 -0.3111
19052SOL     OW58318   4.684   4.670   2.128 -0.0093  0.3850  0.7160
19052SOL    HW158319   4.657   4.630   2.211  0.3487  0.3219  0.8066
19052SOL    HW258320   4.705   4.595   2.072  0.0010  0.4316  0.6580
19053SOL     OW58321   6.009   7.548   3.481  0.6626 -0.1178 -0.0987
19053SOL    HW158322   5.964   7.523   3.562 -2.4272  0.7088 -1.4205
19053SOL    HW258323   6.003   7.644   3.478  1.9273 -0.0299 -0.7045
19054SOL     OW58324   2.746   5.309   0.093  0.5684  0.1122  0.5595
19054SOL    HW158325   2.719   5.400   0.095 -1.8320 -0.5223  0.8867
19054SOL    HW258326   2.668   5.260   0.121  1.9023 -2.0092  0.8494
19055SOL     OW58327   2.682   4.744   2.822 -0.3528  0.0278  0.0152
19055SOL    HW158328   2.772   4.711   2.817 -1.0633 -2.1059  0.2975
19055SOL    HW258329   2.648   4.708   2.904 -1.8594 -0.3155 -0.7325
19056SOL     OW58330   2.150   3.076   8.538 -0.1972 -0.8991 -0.3998
19056SOL    HW158331   2.237   3.117   8.539 -0.3628 -0.4754 -1.6891
19056SOL    HW258332   2.164   2.988   8.574  0.8491 -0.9821 -0.9817
19057SOL     OW58333   4.212   8.791   5.547  0.0692  0.4854 -0.1473
19057SOL    HW158334   4.168   8.711   5.521 -1.1572  0.7397  1.0657
19057SOL    HW258335   4.150   8.861   5.527  0.5736  1.0146  0.0790
19058SOL     OW58336   2.178   8.486   4.195  0.2031  0.1250 -1.0512
19058SOL    HW158337   2.233   8.442   4.131  0.0395  1.2108 -1.9624
19058SOL    HW258338   2.237   8.546   4.241  0.1023  0.1498 -0.9525
19059SOL     OW58339   0.697   7.877   2.806 -0.2952  0.2759  0.7288
19059SOL    HW158340   0.739   7.939   2.747 -0.2344  0.7213  1.2389
19059SOL    HW258341   0.640   7.931   2.861  0.1511 -0.0424  1.5256
19060SOL     OW58342   4.283   2.982   2.828  0.3873 -0.1647  0.5784
19060SOL    HW158343   4.369   2.942   2.830  1.1722  1.4806  1.5892
19060SOL    HW258344   4.287   3.044   2.755 -0.6996 -1.5384 -0.7393
19061SOL     OW58345   1.921   8.582   7.474 -0.6055 -0.4876 -0.2037
19061SOL    HW158346   1.965   8.527   7.538 -1.1638 -0.5603  0.1201
19061SOL    HW258347   1.909   8.525   7.398 -0.9557 -0.7417  0.0388
19062SOL     OW58348   8.297   4.088   7.796  0.1359 -0.3800 -0.8806
19062SOL    HW158349   8.264   4.132   7.718 -0.7505  0.7178  0.0745
19062SOL    HW258350   8.390   4.109   7.799  0.2620 -0.7507 -1.8315
19063SOL     OW58351   6.610   6.975   6.143  0.1010  0.7400  0.0784
19063SOL    HW158352   6.588   7.065   6.167  1.1033  0.6146  1.6083
19063SOL    HW258353   6.640   6.935   6.224  0.3939 -0.7675 -0.7289
19064SOL     OW58354   4.062   6.704   1.434  0.5342 -0.0111  0.4195
19064SOL    HW158355   4.012   6.733   1.510 -0.8673  0.0340 -0.4819
19064SOL    HW258356   4.041   6.768   1.366  1.7726 -0.0373 -0.0291
19065SOL     OW58357   2.827   0.864   6.617  0.6014 -0.3880 -0.3959
19065SOL    HW158358   2.891   0.795   6.602  1.5009  0.6587 -1.6108
19065SOL    HW258359   2.878   0.945   6.614 -0.4010  0.3465  1.1255
19066SOL     OW58360   5.131   7.866   4.334 -0.7719 -0.5675 -0.3332
19066SOL    HW158361   5.072   7.913   4.394 -0.0318  0.5735 -0.4639
19066SOL    HW258362   5.106   7.774   4.343 -0.4002 -0.5021  2.0959
19067SOL     OW58363   7.817   4.815   0.569 -0.1453 -0.4019 -0.2381
19067SOL    HW158364   7.728   4.805   0.603 -0.4960  1.4236 -0.5608
19067SOL    HW258365   7.873   4.794   0.644 -0.8013 -1.8627 -0.1068
19068SOL     OW58366   1.014   0.030   2.355  0.1162 -0.3628 -0.1871
19068SOL    HW158367   0.925   0.036   2.388  0.0042 -0.6583 -0.4317
19068SOL    HW258368   1.005   0.033   2.260  0.3793 -0.2489 -0.2095
19069SOL     OW58369   1.559   1.766   4.101 -0.3205  0.5921 -0.2650
19069SOL    HW158370   1.505   1.820   4.043  0.3386 -0.6575 -2.1206
19069SOL    HW258371   1.640   1.815   4.111 -0.0577  0.3733 -1.2365
19070SOL     OW58372   3.875   2.583   3.255  0.1485  0.2920  0.2339
19070SOL    HW158373   3.946   2.606   3.315 -0.6230 -0.1972  1.3503
19070SOL    HW258374   3.827   2.513   3.299 -0.5075  0.0083 -0.9006
19071SOL     OW58375   3.611   3.447   8.711  0.1712  0.0795 -0.4822
19071SOL    HW158376   3.569   3.533   8.704  1.1020  0.9845  3.0246
19071SOL    HW258377   3.696   3.459   8.670  0.8966  1.4103  1.2536
19072SOL     OW58378   3.663   1.484   5.243  0.6034  0.8362 -0.1949
19072SOL    HW158379   3.569   1.500   5.241  0.8636  2.5261  0.1207
19072SOL    HW258380   3.671   1.393   5.271 -0.9221  0.7673  0.0957
19073SOL     OW58381   3.841   4.578   8.383  0.9979  0.5612 -0.0636
19073SOL    HW158382   3.810   4.549   8.468  1.9957 -0.0604  0.0961
19073SOL    HW258383   3.799   4.518   8.320 -0.6143  1.6905 -0.1447
19074SOL     OW58384   7.594   8.197   5.245  0.2570  0.0952  0.2020
19074SOL    HW158385   7.546   8.198   5.162 -1.7504 -1.0771  1.2646
19074SOL    HW258386   7.650   8.120   5.240  0.6249  0.3896 -0.2997
19075SOL     OW58387   1.428   2.816   3.918 -0.0933 -0.0265 -0.1906
19075SOL    HW158388   1.437   2.906   3.950 -0.0460  0.2001 -0.8331
19075SOL    HW258389   1.394   2.768   3.993 -0.7734  0.6621 -0.0403
19076SOL     OW58390   5.338   2.434   7.561 -0.0036 -0.0528 -0.0244
19076SOL    HW158391   5.269   2.461   7.500  0.8369 -0.7723 -1.3459
19076SOL    HW258392   5.308   2.465   7.646 -1.7440  0.0402 -0.6251
19077SOL     OW58393   5.360   4.531   3.158  0.1313  0.0501 -0.1278
19077SOL    HW158394   5.382   4.438   3.150 -0.3294 -0.2057  1.2342
19077SOL    HW258395   5.426   4.566   3.218 -0.4499  0.3007  0.3773
19078SOL     OW58396   1.296   3.378   6.438 -0.1771  0.2016  0.3827
19078SOL    HW158397   1.236   3.311   6.404  1.3682 -0.8497 -0.4284
19078SOL    HW258398   1.334   3.338   6.516  0.6679  0.1488 -0.0422
19079SOL     OW58399   1.105   1.633   2.609 -0.0325  0.3895 -0.1235
19079SOL    HW158400   1.188   1.641   2.562  0.4869  1.3084  0.8757
19079SOL    HW258401   1.103   1.543   2.640  0.5057  0.2992 -0.3414
19080SOL     OW58402   6.851   5.565   1.074 -0.7100  0.1175 -0.1303
19080SOL    HW158403   6.893   5.615   1.004  0.5088  2.3550  2.0383
19080SOL    HW258404   6.918   5.503   1.102 -0.1641  1.0953  0.8068
19081SOL     OW58405   1.868   2.705   1.662 -0.3206 -0.5242  0.7142
19081SOL    HW158406   1.888   2.630   1.718 -3.0299 -1.6917  0.2961
19081SOL    HW258407   1.909   2.684   1.578  0.2333 -0.7762  1.0423
19082SOL     OW58408   7.107   1.946   4.085 -0.1811  0.4031  0.1464
19082SOL    HW158409   7.119   2.028   4.037 -0.7951 -0.2818 -1.2078
19082SOL    HW258410   7.128   1.877   4.022 -1.2006 -0.5216  0.7703
19083SOL     OW58411   5.762   8.697   1.661 -0.0107  0.3171 -0.1388
19083SOL    HW158412   5.760   8.729   1.751 -0.3280  0.4555 -0.1923
19083SOL    HW258413   5.770   8.776   1.607 -0.2905  0.2702 -0.2499
19084SOL     OW58414   4.527   2.351   5.800 -0.3526 -0.5992 -0.7984
19084SOL    HW158415   4.609   2.303   5.808 -0.4829 -0.7039 -0.0190
19084SOL    HW258416   4.464   2.302   5.853 -1.0699 -0.8266 -1.8144
19085SOL     OW58417   6.975   8.789   2.747 -0.0300 -0.4746  0.3387
19085SOL    HW158418   6.963   8.699   2.778 -0.1887 -0.4379  0.3833
19085SOL    HW258419   7.046   8.823   2.802 -0.0789 -0.5203  0.4317
19086SOL     OW58420   5.352   6.818   0.052 -0.3922  0.5786  0.1973
19086SOL    HW158421   5.354   6.743   0.112 -2.3975  0.9262  0.7542
19086SOL    HW258422   5.431   6.807  -0.001  0.7720 -0.4696  2.0002
19087SOL     OW58423   4.548   8.755   0.470 -0.0906 -0.2667  0.1965
19087SOL    HW158424   4.507   8.799   0.395 -0.9392  0.5332  1.1090
19087SOL    HW258425   4.550   8.662   0.444  2.0623  0.2652 -1.8963
19088SOL     OW58426   7.551   7.780   7.880  0.4958  0.1345 -0.3992
19088SOL    HW158427   7.582   7.853   7.933  0.8281 -1.1400  1.2399
19088SOL    HW258428   7.461   7.802   7.859 -0.1381  0.0825  1.9519
19089SOL     OW58429   0.190   1.894   2.215  0.5501 -0.0392  0.0080
19089SOL    HW158430   0.169   1.836   2.141 -0.2091 -2.5673  2.0614
19089SOL    HW258431   0.113   1.889   2.271  1.6492  0.7203  1.6419
19090SOL     OW58432   3.648   8.213   2.898 -0.4191 -0.5200 -0.4477
19090SOL    HW158433   3.694   8.295   2.919 -2.0950  1.2772 -3.1441
19090SOL    HW258434   3.718   8.153   2.871  0.8993 -0.2352  2.0171
19091SOL     OW58435   5.584   5.649   0.145 -0.4060 -0.4615  0.3785
19091SOL    HW158436   5.557   5.735   0.112  2.0115  0.4770  0.6425
19091SOL    HW258437   5.609   5.600   0.067  2.5110  0.7343  0.4432
19092SOL     OW58438   5.172   4.793   3.791 -0.1853 -0.2257 -0.1585
19092SOL    HW158439   5.154   4.809   3.883 -0.0274  2.6478 -0.5503
19092SOL    HW258440   5.244   4.729   3.792 -0.4348 -0.5342  1.6699
19093SOL     OW58441   6.095   1.328   0.798 -0.1771 -0.0303  0.0525
19093SOL    HW158442   6.017   1.329   0.742  0.4275  0.5625 -0.8114
19093SOL    HW258443   6.168   1.340   0.737  0.4700  1.1812  1.0195
19094SOL     OW58444   5.446   1.139   5.429 -0.8577  0.7610  0.1427
19094SOL    HW158445   5.489   1.055   5.413  1.0363  1.0251  3.0573
19094SOL    HW258446   5.354   1.117   5.439 -0.5861 -0.7654 -0.4295
19095SOL     OW58447   1.154   5.236   3.319  0.0678  0.2262 -0.1846
19095SOL    HW158448   1.123   5.203   3.235  0.1449 -1.8126  0.5219
19095SOL    HW258449   1.078   5.232   3.376  0.2167  0.7964  0.0589
19096SOL     OW58450   1.629   7.494   1.179 -0.4858 -0.4086 -0.1659
19096SOL    HW158451   1.625   7.502   1.084  0.7890  0.3163 -0.1789
19096SOL    HW258452   1.723   7.495   1.199 -0.6016 -3.0940  0.8959
19097SOL     OW58453   6.273   6.319   6.686 -0.5124  0.0893  0.5400
19097SOL    HW158454   6.321   6.239   6.707 -0.4959  0.3067  1.3520
19097SOL    HW258455   6.274   6.323   6.590  1.1204  0.0878  0.5182
19098SOL     OW58456   2.495   1.666   7.520 -0.4153  0.7766  0.7817
19098SOL    HW158457   2.491   1.744   7.465  2.1302 -0.1289 -0.8123
19098SOL    HW258458   2.577   1.673   7.567 -0.5636 -0.5216  1.2920
19099SOL     OW58459   4.554   3.996   7.678 -0.0073 -0.1138  0.6267
19099SOL    HW158460   4.577   4.058   7.610 -0.5763  0.8821  1.3248
19099SOL    HW258461   4.565   3.910   7.637  1.4674  0.4067 -0.1306
19100SOL     OW58462   1.188   7.492   0.521 -0.1295  0.4410  0.2376
19100SOL    HW158463   1.142   7.559   0.470 -0.0267 -0.4144 -1.0062
19100SOL    HW258464   1.200   7.419   0.460  0.7362 -0.2895  1.2503
19101SOL     OW58465   1.172   3.597   2.695  0.0489  0.3810  0.4069
19101SOL    HW158466   1.137   3.508   2.684  1.3107 -0.0974  0.0052
19101SOL    HW258467   1.109   3.641   2.751 -0.3832 -0.9201  0.9897
19102SOL     OW58468   1.933   7.711   8.639  0.5331  0.2315  0.7380
19102SOL    HW158469   1.959   7.802   8.651  1.2331 -0.1057  1.8662
19102SOL    HW258470   2.007   7.671   8.593 -0.9591  0.8551 -2.4761
19103SOL     OW58471   7.887   8.311   4.333 -0.4111 -0.8135  0.2675
19103SOL    HW158472   7.847   8.288   4.417  0.4944  0.5793  1.1117
19103SOL    HW258473   7.864   8.403   4.319 -0.1483 -0.8911 -0.7904
19104SOL     OW58474   3.130   4.961   4.176 -0.0099  0.6167  0.1037
19104SOL    HW158475   3.133   4.923   4.264  0.6739  0.9057  0.2101
19104SOL    HW258476   3.055   4.919   4.134 -0.2036  0.3123  0.7498
19105SOL     OW58477   4.158   7.798   4.105 -0.0552 -0.2201  0.0891
19105SOL    HW158478   4.132   7.889   4.117  0.2347  0.0641 -1.2783
19105SOL    HW258479   4.207   7.797   4.022  0.0787 -1.5858  0.1543
19106SOL     OW58480   1.239   1.232   3.894  0.2140 -0.0456  1.0506
19106SOL    HW158481   1.317   1.284   3.910  0.7642 -0.0757 -1.1595
19106SOL    HW258482   1.271   1.151   3.854 -0.7918 -1.2079  2.4688
19107SOL     OW58483   0.660   6.609   0.830  0.1627  0.3672 -0.1621
19107SOL    HW158484   0.707   6.583   0.909  0.8899 -0.5680 -0.8901
19107SOL    HW258485   0.569   6.581   0.846  0.1785  0.7024  0.5646
19108SOL     OW58486   8.639   4.441   3.993  0.1376  0.2188 -0.1399
19108SOL    HW158487   8.710   4.489   3.949 -0.2244 -0.3098 -1.3526
19108SOL    HW258488   8.680   4.359   4.022 -0.1553 -0.5115 -1.6833
19109SOL     OW58489   6.581   0.520   2.467 -0.3408  0.0920 -0.1430
19109SOL    HW158490   6.539   0.499   2.550 -1.9418 -0.5981 -1.0772
19109SOL    HW258491   6.656   0.575   2.491 -2.2898  2.2367  1.5724
19110SOL     OW58492   2.963   2.118   0.530  0.0059 -0.3866  0.1684
19110SOL    HW158493   2.916   2.122   0.447  0.8004 -2.5573 -0.4542
19110SOL    HW258494   3.049   2.155   0.511 -0.7911  2.0875  0.9086
19111SOL     OW58495   6.586   8.841   3.984  0.0601  0.1824  0.2235
19111SOL    HW158496   6.668   8.840   3.935  0.6517 -2.0850  1.1376
19111SOL    HW258497   6.611   8.873   4.071 -0.2939  0.6898  0.1443
19112SOL     OW58498   2.298   6.335   2.143 -0.1291  0.0210  0.5654
19112SOL    HW158499   2.315   6.284   2.221 -2.7297 -2.2293 -0.1793
19112SOL    HW258500   2.265   6.419   2.176 -1.0509 -0.8343  1.9182
19113SOL     OW58501   5.165   8.628   0.492 -0.3843  0.3770 -0.1710
19113SOL    HW158502   5.162   8.719   0.464 -0.2303  0.9656  1.6132
19113SOL    HW258503   5.237   8.590   0.443  0.1796  1.4855 -0.2203
19114SOL     OW58504   3.991   0.257   4.387 -0.2905 -0.5858 -0.0407
19114SOL    HW158505   4.062   0.320   4.385  0.8829 -1.8580 -0.0171
19114SOL    HW258506   3.972   0.244   4.480  0.0368 -0.8736 -0.0124
19115SOL     OW58507   6.989   8.139   7.811  0.4848 -0.2220  0.1955
19115SOL    HW158508   7.008   8.115   7.721 -0.9549  0.9135 -0.4460
19115SOL    HW258509   6.954   8.058   7.851  0.1688 -0.4645 -0.5577
19116SOL     OW58510   3.981   1.174   4.770 -0.2482 -0.3251 -0.5492
19116SOL    HW158511   3.928   1.104   4.808 -0.1238  0.3153  0.8480
19116SOL    HW258512   3.947   1.254   4.808  0.7536  0.2324 -0.7785
19117SOL     OW58513   1.291   1.393   2.878 -0.4349  0.6222  0.1789
19117SOL    HW158514   1.266   1.384   2.786 -1.0919 -1.4622  0.5175
19117SOL    HW258515   1.300   1.303   2.910  2.4703  1.2577  1.4682
19118SOL     OW58516   4.692   1.257   1.466 -0.2687  0.1212 -0.0391
19118SOL    HW158517   4.779   1.294   1.456 -0.5246  0.9212  0.5504
19118SOL    HW258518   4.700   1.167   1.435  0.5937  0.3915 -0.6290
19119SOL     OW58519   3.726   1.231   8.090  0.1333 -0.0656 -0.1819
19119SOL    HW158520   3.747   1.220   7.997  1.1918  0.2285  0.0037
19119SOL    HW258521   3.760   1.151   8.131  1.1801  0.5444  0.1674
19120SOL     OW58522   2.088   7.618   3.785  0.1375  0.3339  0.2767
19120SOL    HW158523   1.993   7.610   3.790  0.2170 -0.2807  1.2147
19120SOL    HW258524   2.107   7.622   3.692 -0.4999 -4.4527 -0.3385
19121SOL     OW58525   8.666   7.363   3.168  0.0108  0.6219 -0.4578
19121SOL    HW158526   8.587   7.402   3.131  0.7959  1.4505 -1.3011
19121SOL    HW258527   8.700   7.429   3.228 -0.1478  0.0974  0.2265
19122SOL     OW58528   2.302   7.646   0.950  0.1510 -0.2303  0.2226
19122SOL    HW158529   2.228   7.685   0.904  0.1229 -0.3718  0.1458
19122SOL    HW258530   2.275   7.643   1.041  0.0440 -0.3189  0.1890
19123SOL     OW58531   1.417   2.798   6.194  0.1453  0.2826  0.2023
19123SOL    HW158532   1.480   2.825   6.126  2.0673 -0.3991  1.6426
19123SOL    HW258533   1.341   2.769   6.144  0.7172  1.6540 -1.6114
19124SOL     OW58534   4.375   2.501   4.823  0.0729  0.5158  0.0710
19124SOL    HW158535   4.412   2.459   4.745  0.2078  0.8886 -0.0715
19124SOL    HW258536   4.442   2.490   4.890 -1.1771 -2.2825  0.9806
19125SOL     OW58537   6.247   8.780   1.335  0.0468  0.5366  0.1801
19125SOL    HW158538   6.178   8.824   1.385 -0.9562 -0.0710 -0.6356
19125SOL    HW258539   6.282   8.714   1.395 -0.7401  0.2085  0.2803
19126SOL     OW58540   4.120   6.977   4.888  0.6701 -0.1189 -0.5902
19126SOL    HW158541   4.035   6.933   4.888  1.7431 -2.3679  0.4732
19126SOL    HW258542   4.163   6.946   4.968  2.7333  0.4070 -1.4362
19127SOL     OW58543   7.493   4.033   6.203 -0.2613  0.1721  0.3704
19127SOL    HW158544   7.501   4.123   6.234  0.0264  1.0942 -2.1306
19127SOL    HW258545   7.581   3.997   6.213 -0.0269  0.6501  0.0791
19128SOL     OW58546   3.146   0.073   6.826  0.7229 -0.0047  0.1658
19128SOL    HW158547   3.222   0.034   6.869 -0.7537 -1.2345  1.7888
19128SOL    HW258548   3.134   0.157   6.869  2.1246  1.0009 -1.2835
19129SOL     OW58549   4.047   8.842   2.506 -0.1353 -0.1801  0.2301
19129SOL    HW158550   3.961   8.800   2.510 -1.2826  2.0987  1.9023
19129SOL    HW258551   4.050   8.881   2.419 -1.5887  1.1326  0.7148
19130SOL     OW58552   5.684   7.630   5.407 -0.3038 -0.4185 -0.6589
19130SOL    HW158553   5.726   7.552   5.373 -0.0588 -0.6777  0.2198
19130SOL    HW258554   5.755   7.681   5.445 -0.4805  0.1794 -1.0989
19131SOL     OW58555   1.603   1.716   5.726 -0.0322  0.0576  0.0354
19131SOL    HW158556   1.552   1.791   5.696  0.5786  0.0187 -1.1366
19131SOL    HW258557   1.676   1.710   5.665  0.8289 -0.5121  1.0775
19132SOL     OW58558   5.595   4.674   3.267  0.2417 -0.0064  0.1057
19132SOL    HW158559   5.656   4.748   3.270  0.9274 -0.3668 -2.3327
19132SOL    HW258560   5.651   4.597   3.258 -0.5052 -0.7126  1.2185
19133SOL     OW58561   6.164   1.796   1.168  0.8333  0.5047 -0.1482
19133SOL    HW158562   6.122   1.833   1.090  1.4325  0.1850 -0.6302
19133SOL    HW258563   6.249   1.764   1.137  0.3197 -1.3570  0.2021
19134SOL     OW58564   4.214   0.750   6.684  0.5934  0.5085 -0.7233
19134SOL    HW158565   4.261   0.716   6.609 -0.3825  0.1042 -1.1717
19134SOL    HW258566   4.137   0.794   6.647  0.6445  1.2224 -0.0198
19135SOL     OW58567   0.862   8.329   5.206 -0.1356 -0.3338  0.3672
19135SOL    HW158568   0.800   8.391   5.245 -0.3958 -0.9996  1.0355
19135SOL    HW258569   0.829   8.315   5.117 -0.7134 -0.3618  0.5812
19136SOL     OW58570   7.630   4.245   6.830  0.7929  0.3356  0.2386
19136SOL    HW158571   7.598   4.156   6.814  0.6293  0.0331  2.0426
19136SOL    HW258572   7.554   4.301   6.816  0.8832  0.2108 -0.8519
19137SOL     OW58573   4.011   4.099   8.015 -0.1791  0.2320 -0.0696
19137SOL    HW158574   4.020   4.049   7.934 -1.7917 -0.3288  0.0694
19137SOL    HW258575   3.928   4.070   8.052 -0.2643  1.6844  0.9515
19138SOL     OW58576   5.276   0.881   6.706  0.4917 -0.1163 -0.2032
19138SOL    HW158577   5.339   0.816   6.738 -0.3962 -0.7196  0.3545
19138SOL    HW258578   5.288   0.956   6.764  0.4098 -0.3881  0.1702
19139SOL     OW58579   0.368   7.433   2.205  0.2633  0.3556  0.5185
19139SOL    HW158580   0.368   7.421   2.110  1.4084  0.6766  0.4694
19139SOL    HW258581   0.346   7.525   2.218  0.5695  0.4273  0.5403
19140SOL     OW58582   2.432   6.295   0.353  0.2884 -0.4914 -0.5640
19140SOL    HW158583   2.379   6.363   0.395  1.1250  0.1681 -0.5585
19140SOL    HW258584   2.522   6.327   0.358  0.6359 -1.3437 -1.0582
19141SOL     OW58585   4.984   5.836   5.974 -0.7665  0.2962 -0.1071
19141SOL    HW158586   5.073   5.816   6.005 -0.8102 -1.0137 -0.7326
19141SOL    HW258587   4.926   5.794   6.038 -1.1626  4.3316  2.5379
19142SOL     OW58588   1.609   8.161   8.658 -0.4407 -1.1150 -0.3516
19142SOL    HW158589   1.658   8.224   8.606 -0.5905  0.0350  0.8546
19142SOL    HW258590   1.532   8.142   8.605  0.0043 -0.9103 -1.0909
19143SOL     OW58591   1.275   6.193   8.004  0.1903 -0.2596 -0.3244
19143SOL    HW158592   1.260   6.179   8.097  0.5982 -1.8185 -0.4646
19143SOL    HW258593   1.366   6.223   7.998 -0.6092  2.4755 -0.0449
19144SOL     OW58594   1.551   0.251   7.762  0.3853 -0.3494 -0.1388
19144SOL    HW158595   1.569   0.266   7.669  1.4166 -0.2331  0.0644
19144SOL    HW258596   1.564   0.336   7.803 -0.1407 -0.3832  0.1037
19145SOL     OW58597   6.985   5.090   1.404 -0.0568  0.0574 -0.5857
19145SOL    HW158598   6.913   5.070   1.465  1.2279  0.4854  1.1518
19145SOL    HW258599   6.959   5.048   1.322 -1.2556 -1.6795  0.6118
19146SOL     OW58600   2.836   2.366   7.733  0.3225  0.2137 -0.6445
19146SOL    HW158601   2.927   2.380   7.759  0.5036 -1.5322 -0.2043
19146SOL    HW258602   2.836   2.380   7.638  1.3053 -0.7717 -0.8233
19147SOL     OW58603   5.222   8.341   8.089 -0.3569  0.0279 -0.7004
19147SOL    HW158604   5.233   8.408   8.022  3.5092 -1.1780 -1.5117
19147SOL    HW258605   5.251   8.382   8.170  2.5335 -0.6390 -1.2898
19148SOL     OW58606   7.030   7.838   1.055 -0.2426  0.7846  0.1383
19148SOL    HW158607   7.045   7.919   1.104  0.6262  0.3202  0.6661
19148SOL    HW258608   7.116   7.798   1.048 -0.5773  0.1685 -0.5961
19149SOL     OW58609   2.435   4.988   5.635 -0.1268  0.4032 -0.0690
19149SOL    HW158610   2.464   4.937   5.560 -0.9182 -0.9808  0.5211
19149SOL    HW258611   2.348   4.952   5.656  0.9291 -0.7527  2.7925
19150SOL     OW58612   5.613   1.112   6.163 -0.6764  0.2968 -0.1012
19150SOL    HW158613   5.611   1.057   6.242 -2.1312 -0.6989 -0.7845
19150SOL    HW258614   5.569   1.192   6.190  0.0207  0.5001  0.4599
19151SOL     OW58615   5.487   8.548   7.163 -0.0652  0.3090 -0.5164
19151SOL    HW158616   5.577   8.526   7.141  0.0724 -0.2540  0.5827
19151SOL    HW258617   5.465   8.621   7.104  1.4761  1.2256  0.0038
19152SOL     OW58618   8.509   6.820   2.683 -0.2181 -0.2504  0.3362
19152SOL    HW158619   8.602   6.831   2.702 -0.0169 -1.0580 -0.1525
19152SOL    HW258620   8.490   6.886   2.617  0.2391 -0.7322 -0.2817
19153SOL     OW58621   3.059   7.308   1.861 -0.0158  0.1569  0.2397
19153SOL    HW158622   3.109   7.229   1.839 -1.2288 -1.3296  2.4238
19153SOL    HW258623   3.011   7.329   1.781  2.9699  0.8740 -1.5227
19154SOL     OW58624   3.647   3.176   4.034  0.3448  0.2413  0.2086
19154SOL    HW158625   3.650   3.102   4.095  0.9055 -0.1885 -0.3247
19154SOL    HW258626   3.643   3.254   4.090  0.5449 -0.1600  0.7886
19155SOL     OW58627   8.029   0.985   1.027  0.4675  0.0962  0.2411
19155SOL    HW158628   8.071   0.985   0.942  0.1332  0.1370  0.0739
19155SOL    HW258629   8.056   0.903   1.068 -0.7404 -0.7470 -0.5893
19156SOL     OW58630   1.704   8.450   0.477 -0.2385 -0.4975  0.2790
19156SOL    HW158631   1.614   8.467   0.448 -1.0524 -0.0208  2.8369
19156SOL    HW258632   1.742   8.537   0.488  1.6399 -0.6156 -3.4802
19157SOL     OW58633   2.073   0.493   3.378 -0.0725 -0.9019 -0.6260
19157SOL    HW158634   2.108   0.527   3.295  0.0707 -0.6201 -0.4535
19157SOL    HW258635   2.150   0.475   3.431 -0.1419  1.7519  0.5674
19158SOL     OW58636   0.493   3.652   0.189 -0.0459  0.1569 -0.1029
19158SOL    HW158637   0.559   3.699   0.240  0.3689 -0.9057  0.3640
19158SOL    HW258638   0.537   3.628   0.108  0.0785 -0.3608  0.1154
19159SOL     OW58639   6.201   6.237   0.170  0.3250  0.6085  0.1078
19159SOL    HW158640   6.164   6.325   0.178  1.1100  0.9977 -0.4260
19159SOL    HW258641   6.136   6.188   0.120  0.4781  1.2630 -0.7604
19160SOL     OW58642   2.387   1.988   0.601 -0.6487  0.1616  0.2646
19160SOL    HW158643   2.375   1.997   0.506  0.6595  0.1248  0.0836
19160SOL    HW258644   2.306   1.946   0.630 -0.5921 -0.9471 -1.0255
19161SOL     OW58645   1.420   7.347   0.129 -0.4501  0.2662  0.0194
19161SOL    HW158646   1.456   7.430   0.159  1.0130 -0.4261  0.2592
19161SOL    HW258647   1.464   7.330   0.046  0.8606 -1.2570  0.9727
19162SOL     OW58648   6.497   6.071   5.704  0.2183  0.6700  0.2636
19162SOL    HW158649   6.570   6.043   5.759 -0.4953 -2.0199  0.0108
19162SOL    HW258650   6.466   6.152   5.745  1.2854  0.1177  2.3146
19163SOL     OW58651   8.724   6.202   2.123  0.7092  0.2373 -0.2094
19163SOL    HW158652   8.799   6.215   2.064  0.4331 -1.4896 -1.0112
19163SOL    HW258653   8.687   6.289   2.135  1.3272  0.7595 -1.8668
19164SOL     OW58654   1.297   4.214   1.387 -0.4954  0.7538  0.1061
19164SOL    HW158655   1.335   4.178   1.467 -0.3794  0.4836 -0.0688
19164SOL    HW258656   1.242   4.287   1.417 -1.9574 -0.4944  0.6453
19165SOL     OW58657   3.097   2.494   2.665 -0.0467 -0.5744 -0.3511
19165SOL    HW158658   3.005   2.503   2.687 -0.5528 -0.5565 -2.2934
19165SOL    HW258659   3.143   2.502   2.748 -1.8256 -1.2144  0.7344
19166SOL     OW58660   5.602   4.369   6.922 -0.8122 -0.2956 -0.0673
19166SOL    HW158661   5.615   4.444   6.863 -1.1650  0.8427  1.2608
19166SOL    HW258662   5.599   4.293   6.863  0.7881  0.5733 -1.3537
19167SOL     OW58663   6.948   4.215   3.797  0.5078  0.5722  0.6520
19167SOL    HW158664   6.879   4.220   3.863  0.9720 -0.1323  1.2071
19167SOL    HW258665   7.021   4.173   3.842  0.4233 -1.0398 -0.6534
19168SOL     OW58666   2.943   0.664   4.326 -0.1006  0.5210 -0.1746
19168SOL    HW158667   2.992   0.717   4.263  0.9936  0.1226  0.3132
19168SOL    HW258668   2.853   0.664   4.293  0.3970  0.5378 -1.5864
19169SOL     OW58669   1.279   7.718   8.545  0.3579  0.1145  0.1005
19169SOL    HW158670   1.274   7.673   8.629 -0.2457  0.9742  0.5383
19169SOL    HW258671   1.363   7.763   8.546  1.0537 -1.1325 -0.4221
19170SOL     OW58672   7.317   2.617   4.157  0.5122  0.2689  0.1748
19170SOL    HW158673   7.339   2.609   4.250  1.2090  1.5836  0.1445
19170SOL    HW258674   7.309   2.526   4.126 -3.0423 -0.2995  2.2281
19171SOL     OW58675   1.203   2.479   6.538  0.7402  0.1950 -0.2285
19171SOL    HW158676   1.271   2.430   6.492  1.2165 -2.4632  2.8902
19171SOL    HW258677   1.189   2.430   6.619 -2.1499  2.8137  1.0816
19172SOL     OW58678   7.873   7.935   7.802  0.7855  0.4594 -0.3275
19172SOL    HW158679   7.933   7.878   7.851 -1.6677 -2.2925 -0.2593
19172SOL    HW258680   7.894   7.919   7.710  0.7583  0.2004 -0.2888
19173SOL     OW58681   4.263   5.989   8.014 -0.2361 -0.3756 -0.0059
19173SOL    HW158682   4.304   5.916   8.060  0.9649  0.4147  0.1917
19173SOL    HW258683   4.297   5.984   7.925 -1.1711 -0.8206 -0.3580
19174SOL     OW58684   5.974   4.389   8.833  0.2082 -0.0798 -0.1067
19174SOL    HW158685   5.894   4.401   8.783  0.8463  1.5913 -0.8089
19174SOL    HW258686   6.020   4.318   8.789 -0.4681 -0.4438 -0.2338
19175SOL     OW58687   6.144   4.440   4.369 -0.6328 -0.2362 -0.2700
19175SOL    HW158688   6.208   4.387   4.416  0.7902  1.2465 -0.4592
19175SOL    HW258689   6.111   4.501   4.434 -1.2206 -0.4030 -0.3987
19176SOL     OW58690   7.911   4.242   4.038  0.2673  0.4319  0.6939
19176SOL    HW158691   7.941   4.267   4.126  0.6462 -0.9199  0.9728
19176SOL    HW258692   7.915   4.323   3.988  1.9550  0.8340  1.3986
19177SOL     OW58693   2.194   4.655   2.678 -0.2422  0.0130 -0.0682
19177SOL    HW158694   2.239   4.594   2.619 -0.6847  0.2048 -0.6142
19177SOL    HW258695   2.207   4.741   2.638 -0.8160  0.1055 -0.0614
19178SOL     OW58696   3.102   7.320   5.780 -0.2683  0.4758 -0.4492
19178SOL    HW158697   3.105   7.226   5.798 -1.2126  0.6386  0.6063
19178SOL    HW258698   3.015   7.335   5.744  0.9272  0.4588 -3.7093
19179SOL     OW58699   6.538   2.498   2.575 -0.2097 -0.4169  0.5198
19179SOL    HW158700   6.536   2.473   2.668 -1.1080  0.3339  0.7181
19179SOL    HW258701   6.477   2.571   2.569  0.6628  0.2531 -0.4697
19180SOL     OW58702   1.889   7.523   7.626 -0.4827  0.0152  0.3604
19180SOL    HW158703   1.811   7.576   7.644 -0.2219 -0.3796  2.9561
19180SOL    HW258704   1.869   7.437   7.665  1.5567  0.1816  1.9020
19181SOL     OW58705   2.047   3.387   0.215 -0.3106 -0.1488 -0.1740
19181SOL    HW158706   2.133   3.361   0.247 -1.0022 -1.8790  0.4139
19181SOL    HW258707   2.044   3.482   0.230  0.7411 -0.3411  1.6849
19182SOL     OW58708   1.617   6.397   0.386 -0.3230 -0.2051  0.1331
19182SOL    HW158709   1.697   6.382   0.437 -0.9278 -1.5344  0.7398
19182SOL    HW258710   1.640   6.370   0.297 -0.1413 -0.7297  0.3364
19183SOL     OW58711   1.664   5.581   3.476 -0.1028  0.3525  0.1728
19183SOL    HW158712   1.640   5.509   3.534 -0.4477 -0.4948 -0.9747
19183SOL    HW258713   1.582   5.605   3.432  0.2868  0.4403 -0.5227
19184SOL     OW58714   4.342   8.211   8.799  0.2956 -0.1587  0.1286
19184SOL    HW158715   4.267   8.247   8.752 -0.0454 -2.3543 -1.1478
19184SOL    HW258716   4.330   8.239   8.889 -1.3656  0.6103 -0.2937
19185SOL     OW58717   4.000   4.641   2.620 -0.0273  0.0005  0.2696
19185SOL    HW158718   3.990   4.641   2.525  1.0225 -0.7745  0.1472
19185SOL    HW258719   4.090   4.671   2.635 -0.0085 -0.3881  0.9924
19186SOL     OW58720   7.469   5.240   6.107  0.1301  0.2305  0.0679
19186SOL    HW158721   7.521   5.160   6.107  0.1893  0.2482 -0.9839
19186SOL    HW258722   7.421   5.238   6.023 -1.2023  0.4427  0.7937
19187SOL     OW58723   1.343   2.400   1.501  0.2183  0.0851  0.5873
19187SOL    HW158724   1.272   2.348   1.463  0.5611  0.1183 -0.1038
19187SOL    HW258725   1.322   2.404   1.595  0.3999 -1.6641  0.7404
19188SOL     OW58726   2.302   1.992   2.497 -1.0428 -0.2923 -0.1332
19188SOL    HW158727   2.226   1.978   2.552  0.5138 -0.8093  2.0095
19188SOL    HW258728   2.304   1.917   2.438 -1.8287 -0.5950  0.2199
19189SOL     OW58729   1.374   0.475   5.222 -0.0473  0.3181  0.5730
19189SOL    HW158730   1.432   0.547   5.199  0.5823 -0.0210  1.0709
19189SOL    HW258731   1.430   0.412   5.268 -0.5536 -0.5615  0.0113
19190SOL     OW58732   5.940   7.239   8.124 -0.3562  0.5849 -0.5483
19190SOL    HW158733   5.880   7.209   8.056 -0.3734  0.6161 -0.5468
19190SOL    HW258734   5.986   7.313   8.084  0.0122  0.2702 -0.7106
19191SOL     OW58735   2.179   6.739   0.668  0.3733  0.0332  0.0869
19191SOL    HW158736   2.167   6.690   0.749  1.8587 -2.4104 -1.0328
19191SOL    HW258737   2.273   6.733   0.650  0.2809  1.5973 -1.1987
19192SOL     OW58738   2.160   3.654   3.655  0.2061  0.6953  0.3307
19192SOL    HW158739   2.208   3.669   3.736 -0.9904  0.2556  1.1334
19192SOL    HW258740   2.069   3.644   3.681 -0.0971 -0.2929 -0.9745
19193SOL     OW58741   6.062   3.633   5.560 -0.4442  0.2033  0.1627
19193SOL    HW158742   6.150   3.654   5.592  0.5033 -0.5199 -1.8206
19193SOL    HW258743   6.043   3.702   5.496 -0.5884 -0.5974 -0.6731
19194SOL     OW58744   4.973   2.455   3.055  0.2961 -0.7212 -0.0822
19194SOL    HW158745   4.954   2.379   3.000  0.0079  0.3455 -1.5238
19194SOL    HW258746   4.888   2.495   3.072  0.4080 -0.8986  0.9637
19195SOL     OW58747   1.075   0.933   8.117 -0.3929 -0.2570  0.2112
19195SOL    HW158748   1.066   1.020   8.078 -0.1439 -0.9520 -1.4811
19195SOL    HW258749   1.041   0.943   8.206  1.9387  2.1965  0.9662
19196SOL     OW58750   5.700   4.926   0.398 -0.6492 -0.6582  0.4901
19196SOL    HW158751   5.710   5.022   0.404 -0.0668 -0.8028  4.2247
19196SOL    HW258752   5.749   4.902   0.320  0.4880  1.9772  0.2872
19197SOL     OW58753   2.428   6.912   7.517  0.1085 -0.1332 -0.3203
19197SOL    HW158754   2.485   6.836   7.525  0.7906  0.1369 -2.0622
19197SOL    HW258755   2.469   6.966   7.449  0.0205  2.1658  1.3355
19198SOL     OW58756   6.505   2.976   2.560  0.4697  0.0086 -0.3253
19198SOL    HW158757   6.451   2.903   2.588 -0.0193 -0.1346 -1.5953
19198SOL    HW258758   6.503   3.038   2.634 -0.1890 -0.6559  0.2217
19199SOL     OW58759   0.326   2.862   2.453  0.1889  0.3619  0.0207
19199SOL    HW158760   0.414   2.842   2.486 -0.0202  2.2769  1.9541
19199SOL    HW258761   0.269   2.800   2.499  0.3977 -0.2378 -0.5100
19200SOL     OW58762   0.733   7.022   8.704 -0.0473  0.2140  0.0060
19200SOL    HW158763   0.818   7.054   8.734 -0.1874  0.0507  0.5839
19200SOL    HW258764   0.672   7.094   8.720 -0.3315 -0.2586  1.1576
19201SOL     OW58765   6.469   5.813   5.590  0.0550 -0.0433 -0.2848
19201SOL    HW158766   6.501   5.901   5.612  0.8791 -0.7415  1.5044
19201SOL    HW258767   6.376   5.825   5.574 -0.4237  0.8180  2.5524
19202SOL     OW58768   6.126   1.354   3.564  0.7572  0.0982  0.2620
19202SOL    HW158769   6.060   1.285   3.555  1.0133 -0.2087  0.6912
19202SOL    HW258770   6.078   1.429   3.600  0.9220 -0.6114  2.0733
19203SOL     OW58771   7.338   5.642   2.776 -0.2881 -0.2438 -0.6441
19203SOL    HW158772   7.295   5.653   2.861 -0.7349 -2.0534 -0.6091
19203SOL    HW258773   7.409   5.707   2.777 -0.6860  0.2030  0.8387
19204SOL     OW58774   0.774   3.577   3.923 -0.0166  0.5035 -0.0363
19204SOL    HW158775   0.756   3.484   3.907 -0.0912  0.2359  1.5081
19204SOL    HW258776   0.777   3.616   3.835 -1.4765 -0.6643 -0.6410
19205SOL     OW58777   4.351   1.548   1.006  0.0246 -0.0747 -0.1743
19205SOL    HW158778   4.256   1.540   1.014 -0.0545  1.3665  0.8540
19205SOL    HW258779   4.373   1.627   1.056  1.7482 -0.2661 -0.5384
19206SOL     OW58780   4.966   4.779   8.780 -0.2437 -0.1402 -0.1864
19206SOL    HW158781   5.049   4.803   8.739 -0.8975 -1.5451 -2.4836
19206SOL    HW258782   4.925   4.863   8.801  0.7511  0.6043 -1.0934
19207SOL     OW58783   4.456   6.185   2.110  0.1091  0.8181 -0.6580
19207SOL    HW158784   4.550   6.200   2.117  0.4073 -1.0195 -0.2783
19207SOL    HW258785   4.416   6.267   2.140  1.5805  1.5139 -0.5471
19208SOL     OW58786   6.697   4.866   0.163  0.1965 -0.1849 -0.3326
19208SOL    HW158787   6.745   4.794   0.122 -1.0749 -1.2490 -0.0263
19208SOL    HW258788   6.619   4.825   0.200 -0.1395  1.2251  0.6080
19209SOL     OW58789   5.792   0.823   8.696  0.7078  0.3116  0.9268
19209SOL    HW158790   5.803   0.751   8.634 -0.5566  0.2282  0.7557
19209SOL    HW258791   5.734   0.788   8.764  1.1652  0.7539  1.5577
19210SOL     OW58792   2.905   1.440   3.154  0.5637 -0.5776 -0.6269
19210SOL    HW158793   2.999   1.422   3.153  0.9087  1.0406  0.1439
19210SOL    HW258794   2.893   1.510   3.090 -0.1663 -0.9600 -0.9159
19211SOL     OW58795   5.854   4.534   3.576  0.1905  0.0292 -0.1060
19211SOL    HW158796   5.922   4.475   3.610 -0.7116 -0.5279  0.7550
19211SOL    HW258797   5.900   4.617   3.562  1.2700 -0.5985 -0.4564
19212SOL     OW58798   0.332   5.297   4.378  0.4979  0.4519 -0.2620
19212SOL    HW158799   0.373   5.271   4.460  1.0948  0.2440 -0.6188
19212SOL    HW258800   0.356   5.389   4.367 -0.5214  0.8097  0.3462
19213SOL     OW58801   1.145   2.698   3.163 -0.1328  0.4866  0.4098
19213SOL    HW158802   1.080   2.742   3.107 -0.0519  1.1751  0.8473
19213SOL    HW258803   1.208   2.661   3.101 -1.7757 -1.5942 -0.1090
19214SOL     OW58804   5.198   5.923   3.423  0.6949  0.4845 -1.1235
19214SOL    HW158805   5.173   5.953   3.335 -2.3460 -2.1427 -1.3539
19214SOL    HW258806   5.200   6.003   3.476 -2.2677  1.7383 -2.6243
19215SOL     OW58807   1.399   1.960   3.984  0.4164  0.0226  0.1981
19215SOL    HW158808   1.317   1.971   4.032  0.5333  2.7716 -0.0900
19215SOL    HW258809   1.374   1.966   3.892  0.6711 -1.4932  0.0133
19216SOL     OW58810   1.444   4.616   3.351  0.3988  0.1788  0.2869
19216SOL    HW158811   1.521   4.666   3.324  1.1630 -0.4757  1.2321
19216SOL    HW258812   1.429   4.555   3.279  0.6667  0.4005  0.0405
19217SOL     OW58813   8.118   3.669   6.793 -0.1529  0.2438 -0.4885
19217SOL    HW158814   8.052   3.601   6.780  0.4352 -0.2967 -0.7191
19217SOL    HW258815   8.191   3.623   6.835  0.5534  0.5750 -1.3432
19218SOL     OW58816   1.065   3.692   6.906  0.3495  0.1036  0.0179
19218SOL    HW158817   1.035   3.779   6.880  0.8698  0.4530  0.5589
19218SOL    HW258818   1.139   3.708   6.963  0.9130 -0.7223 -0.4590
19219SOL     OW58819   1.548   0.751   6.559 -0.1819  0.0200 -0.8500
19219SOL    HW158820   1.622   0.716   6.511  0.5171 -0.3079  0.4129
19219SOL    HW258821   1.587   0.807   6.627 -1.0889  0.0544 -0.3367
19220SOL     OW58822   5.347   3.447   3.488  0.6174 -0.3789 -0.3384
19220SOL    HW158823   5.394   3.527   3.512  2.2800 -1.1645 -0.8017
19220SOL    HW258824   5.406   3.376   3.514  0.3219 -1.3778 -2.2335
19221SOL     OW58825   3.792   7.967   5.821  0.1541 -0.3049  0.1917
19221SOL    HW158826   3.804   7.939   5.730  0.7366  0.0821  0.1475
19221SOL    HW258827   3.767   8.059   5.814  1.8582  0.2107  0.4774
19222SOL     OW58828   7.366   3.604   1.286 -0.7464  0.3879 -0.1702
19222SOL    HW158829   7.385   3.563   1.201 -0.4279  0.3617 -0.0869
19222SOL    HW258830   7.286   3.562   1.316 -0.2970 -0.3400  0.0253
19223SOL     OW58831   0.569   3.179   2.330  0.2703 -0.3382  0.3770
19223SOL    HW158832   0.549   3.167   2.423  0.9885 -0.4581  0.5232
19223SOL    HW258833   0.647   3.234   2.329 -0.2828  0.4562 -0.1910
19224SOL     OW58834   1.945   6.672   7.174 -0.3500 -0.1478 -0.2380
19224SOL    HW158835   2.041   6.675   7.174 -0.3530  0.5062 -1.4495
19224SOL    HW258836   1.923   6.624   7.095 -1.0238 -1.5785  0.7765
19225SOL     OW58837   4.378   2.098   1.326  0.0094 -0.0992 -0.3791
19225SOL    HW158838   4.466   2.134   1.317  0.2970 -0.5444  0.5012
19225SOL    HW258839   4.391   2.010   1.360 -0.7561 -0.4451 -0.9529
19226SOL     OW58840   6.894   8.041   6.925  0.2039 -0.2651  0.2837
19226SOL    HW158841   6.799   8.049   6.919  0.2678  0.2622 -0.0808
19226SOL    HW258842   6.916   7.967   6.868  0.0063 -0.4331  0.4248
19227SOL     OW58843   6.042   2.391   7.989 -0.6879  0.1820 -0.2191
19227SOL    HW158844   6.088   2.469   7.957  0.6885 -1.1925 -1.7923
19227SOL    HW258845   6.011   2.348   7.910  0.0888 -1.7382  0.4672
19228SOL     OW58846   0.663   6.019   1.410  0.0930  0.1456 -0.4178
19228SOL    HW158847   0.607   6.086   1.451  0.1460  0.5226 -0.9463
19228SOL    HW258848   0.752   6.049   1.427  0.1178  0.1749 -0.5960
19229SOL     OW58849   1.664   4.706   4.639  0.2250 -0.3044  0.0669
19229SOL    HW158850   1.632   4.630   4.688  1.1412 -0.2861  0.7093
19229SOL    HW258851   1.632   4.691   4.549 -1.1774 -0.4963  0.5753
19230SOL     OW58852   3.090   5.450   5.584  0.0189  0.4470 -0.3706
19230SOL    HW158853   3.092   5.422   5.676  0.0071 -0.6299 -0.6859
19230SOL    HW258854   3.115   5.542   5.587 -0.7042  0.6331  0.7896
19231SOL     OW58855   2.200   4.564   0.401  0.0175  0.1096 -0.7368
19231SOL    HW158856   2.224   4.607   0.319  0.9628  1.4950  0.2157
19231SOL    HW258857   2.271   4.502   0.417 -0.2860 -0.3321 -1.0571
19232SOL     OW58858   7.844   5.422   5.450 -0.2940 -0.1029  0.0730
19232SOL    HW158859   7.821   5.438   5.542  1.2390 -1.1275  0.6827
19232SOL    HW258860   7.940   5.421   5.450 -0.2846 -1.1982 -1.3383
19233SOL     OW58861   4.707   8.318   0.713 -0.1772 -0.5250  0.1042
19233SOL    HW158862   4.691   8.287   0.624 -1.6123 -0.7553  0.4109
19233SOL    HW258863   4.779   8.264   0.746  1.2901  0.4544 -1.3373
19234SOL     OW58864   7.708   5.857   8.566 -0.0571 -0.1503  0.1357
19234SOL    HW158865   7.709   5.948   8.593 -1.9394 -0.3728  1.0714
19234SOL    HW258866   7.714   5.860   8.470  0.5221  0.8979  0.1931
19235SOL     OW58867   4.680   3.450   2.345 -0.2010 -0.4861 -0.3216
19235SOL    HW158868   4.695   3.356   2.355  0.2602 -0.3479  0.3865
19235SOL    HW258869   4.600   3.456   2.293  0.2409 -1.2668 -1.1294
19236SOL     OW58870   6.308   7.935   4.263 -0.1236 -0.1497  0.1605
19236SOL    HW158871   6.329   7.868   4.198 -1.0753 -0.6880  0.3864
19236SOL    HW258872   6.216   7.957   4.246 -1.1651 -2.0007  2.7389
19237SOL     OW58873   8.140   0.732   1.079 -0.5404  0.7299  0.0775
19237SOL    HW158874   8.151   0.677   1.001  0.3346  1.2032 -0.1389
19237SOL    HW258875   8.224   0.726   1.125 -0.7371  1.1914  0.5029
19238SOL     OW58876   2.789   5.501   0.907 -0.0823  0.4520  0.0648
19238SOL    HW158877   2.857   5.567   0.920 -0.6221  0.6207  2.3219
19238SOL    HW258878   2.834   5.417   0.920  0.1265  0.4598 -0.5738
19239SOL     OW58879   0.633   7.945   8.064  0.6970 -0.0120  0.0763
19239SOL    HW158880   0.639   7.948   7.968  0.3604  1.5911  0.0645
19239SOL    HW258881   0.547   7.983   8.083  0.9591  0.1313  1.0195
19240SOL     OW58882   6.638   2.867   1.390 -0.1019 -0.1388  0.0681
19240SOL    HW158883   6.734   2.863   1.392  0.0016  1.6590  1.7621
19240SOL    HW258884   6.618   2.934   1.324 -0.2298 -0.8609 -0.6373
19241SOL     OW58885   8.152   8.790   4.371 -0.3559 -0.2384 -0.3721
19241SOL    HW158886   8.132   8.749   4.456 -1.1863 -1.1470 -0.9801
19241SOL    HW258887   8.201   8.869   4.393 -1.6412  0.2146  1.0319
19242SOL     OW58888   5.692   3.950   3.901 -0.1449 -0.1087 -0.0852
19242SOL    HW158889   5.772   4.001   3.890 -1.0432  1.2069 -0.9340
19242SOL    HW258890   5.624   4.016   3.914 -1.0818 -1.1946  0.7547
19243SOL     OW58891   4.202   3.139   1.405  0.2813  0.4501 -0.3138
19243SOL    HW158892   4.257   3.154   1.328  0.3872 -0.0285 -0.3311
19243SOL    HW258893   4.191   3.044   1.409  0.2974  0.4693  0.2770
19244SOL     OW58894   1.954   7.112   0.835 -0.3069 -0.0713  0.9905
19244SOL    HW158895   1.922   7.088   0.748  1.3771  0.2292  0.2471
19244SOL    HW258896   2.038   7.067   0.842  0.8783  2.1056  1.3178
19245SOL     OW58897   6.881   7.134   5.864  0.1184  0.0040 -0.5333
19245SOL    HW158898   6.911   7.044   5.871 -0.2700 -0.1516 -0.8486
19245SOL    HW258899   6.936   7.183   5.926  0.9728 -0.2876 -1.0476
19246SOL     OW58900   3.949   5.833   4.613 -0.0335  0.2058  0.0102
19246SOL    HW158901   3.857   5.861   4.609 -0.0572 -0.0078 -1.2739
19246SOL    HW258902   3.985   5.880   4.689 -0.8062  1.4590 -0.3682
19247SOL     OW58903   0.232   3.664   6.954 -0.3006 -0.5566 -0.4756
19247SOL    HW158904   0.254   3.708   6.872  0.8642  0.1128  0.1588
19247SOL    HW258905   0.313   3.667   7.005 -1.2985  0.0418  1.1449
19248SOL     OW58906   1.160   1.978   0.246 -0.2597 -0.2849 -0.2441
19248SOL    HW158907   1.087   2.030   0.211 -1.5552 -1.2598  0.9294
19248SOL    HW258908   1.182   2.021   0.328  0.0773 -0.3789 -0.2847
19249SOL     OW58909   7.566   8.330   0.964 -0.2430 -0.0505  0.0897
19249SOL    HW158910   7.539   8.340   1.055 -0.9893  0.6808 -0.2089
19249SOL    HW258911   7.643   8.387   0.955 -1.1063  1.1015 -0.1346
19250SOL     OW58912   0.549   8.259   5.853  0.0467 -0.2173  0.1347
19250SOL    HW158913   0.466   8.305   5.838 -0.2093 -1.0276 -1.0148
19250SOL    HW258914   0.607   8.291   5.784  0.7146  0.3349  0.9253
19251SOL     OW58915   0.694   0.106   6.692  0.1937  0.4687 -0.0181
19251SOL    HW158916   0.682   0.196   6.662 -0.0029  0.5147  0.1923
19251SOL    HW258917   0.616   0.060   6.662  0.1768  0.4269  0.0893
19252SOL     OW58918   7.420   4.076   4.066 -0.1308  0.3338  0.1234
19252SOL    HW158919   7.406   3.981   4.063  1.3039  0.1108 -0.6659
19252SOL    HW258920   7.515   4.086   4.076 -0.2235  1.6824 -0.1240
19253SOL     OW58921   1.851   0.145   7.826 -0.2037  0.1723 -0.2191
19253SOL    HW158922   1.838   0.092   7.748  1.6249 -0.0207 -0.4425
19253SOL    HW258923   1.836   0.235   7.797  0.8220  0.1345 -0.9018
19254SOL     OW58924   6.292   1.544   5.010  1.1534 -0.3776  0.8305
19254SOL    HW158925   6.265   1.633   4.986 -0.5908 -1.4841 -1.8971
19254SOL    HW258926   6.364   1.524   4.951  0.1230 -1.4419 -0.1309
19255SOL     OW58927   1.917   4.893   5.380 -0.0930 -0.2026  0.1469
19255SOL    HW158928   1.888   4.981   5.358 -1.1471 -0.2928  1.0175
19255SOL    HW258929   1.956   4.901   5.467 -0.6628 -0.6619  0.4581
19256SOL     OW58930   3.956   6.341   3.328  0.4576 -0.3008  0.3419
19256SOL    HW158931   4.035   6.391   3.308  0.0050  0.1461 -0.3869
19256SOL    HW258932   3.906   6.342   3.246  0.0942 -1.3161  0.5389
19257SOL     OW58933   4.116   7.120   5.598 -0.4266 -0.4847 -0.2245
19257SOL    HW158934   4.079   7.206   5.619  0.2449 -0.5701  1.4094
19257SOL    HW258935   4.042   7.060   5.603 -0.4001 -0.4113  1.4558
19258SOL     OW58936   1.146   5.172   2.439  0.4817 -0.3859  0.1543
19258SOL    HW158937   1.225   5.156   2.492  1.0215 -0.9149 -0.7854
19258SOL    HW258938   1.163   5.256   2.396  0.6301 -0.6052 -0.2172
19259SOL     OW58939   6.507   1.002   8.008  0.5653 -0.3682  0.0298
19259SOL    HW158940   6.543   0.989   8.096  0.2901 -0.5848  0.1074
19259SOL    HW258941   6.413   1.014   8.021  0.7310  1.3298 -0.0566
19260SOL     OW58942   2.986   1.453   0.726 -0.0786 -0.6192  0.7605
19260SOL    HW158943   2.955   1.460   0.636 -0.6218  1.1591  1.0384
19260SOL    HW258944   2.996   1.359   0.741 -1.1893 -1.0233 -0.7494
19261SOL     OW58945   5.836   0.430   2.912  0.2670 -0.0249 -0.0992
19261SOL    HW158946   5.931   0.426   2.908  0.2049 -1.6330 -0.5790
19261SOL    HW258947   5.807   0.343   2.885 -1.3674  0.7076 -0.8504
19262SOL     OW58948   4.425   5.830   5.876 -0.0031 -0.2940 -0.2804
19262SOL    HW158949   4.504   5.779   5.893  0.7480  1.3327  1.4468
19262SOL    HW258950   4.444   5.879   5.796  1.7827  1.8739  1.3537
19263SOL     OW58951   5.717   1.844   7.188  0.2202 -0.5205  0.0397
19263SOL    HW158952   5.808   1.870   7.200  0.7468 -1.8517 -0.8843
19263SOL    HW258953   5.707   1.837   7.093 -0.1400 -2.7342  0.2057
19264SOL     OW58954   5.882   5.891   6.399 -0.3862 -0.2381  0.3132
19264SOL    HW158955   5.848   5.975   6.429 -1.4493  0.2646 -2.0557
19264SOL    HW258956   5.807   5.848   6.358  0.6505 -1.3897 -0.4580
19265SOL     OW58957   0.025   5.419   4.464 -0.0890  0.4081 -0.0593
19265SOL    HW158958   0.044   5.328   4.485 -1.6559  0.0308 -0.1524
19265SOL    HW258959   0.107   5.465   4.478  0.8081 -1.0653 -0.3077
19266SOL     OW58960   0.945   5.903   1.022  0.2436  0.5419 -0.1347
19266SOL    HW158961   0.883   5.833   1.001  1.9670 -0.8147 -0.9832
19266SOL    HW258962   0.901   5.955   1.089 -2.0033 -0.0207 -1.0843
19267SOL     OW58963   4.032   7.725   3.178  0.1880 -0.0913 -0.4630
19267SOL    HW158964   4.125   7.712   3.159  0.2335  1.8092 -1.7483
19267SOL    HW258965   4.030   7.800   3.237 -0.5282 -0.5632  0.1421
19268SOL     OW58966   3.523   4.438   8.406  0.5824 -0.2005 -0.0424
19268SOL    HW158967   3.575   4.437   8.486  1.2581  0.0886 -0.4665
19268SOL    HW258968   3.492   4.528   8.399  0.6903 -0.1761 -0.2083
19269SOL     OW58969   6.396   1.160   3.518 -0.6067 -0.2865 -0.6894
19269SOL    HW158970   6.320   1.172   3.461  0.3321 -1.2754 -2.2448
19269SOL    HW258971   6.432   1.075   3.491  0.5176 -0.2704  0.6572
19270SOL     OW58972   0.749   6.106   0.868 -0.0445  0.3200 -0.2471
19270SOL    HW158973   0.817   6.065   0.921 -0.5182  0.0786  0.1928
19270SOL    HW258974   0.787   6.188   0.839  0.5999 -0.0227 -0.3943
19271SOL     OW58975   6.747   4.562   0.487  0.1975  0.1730 -0.6615
19271SOL    HW158976   6.839   4.535   0.490  0.3152  0.5323 -1.0107
19271SOL    HW258977   6.706   4.498   0.429  0.4236  0.5866 -1.2827
19272SOL     OW58978   7.954   0.324   4.199 -0.0494  0.1132  0.0910
19272SOL    HW158979   7.914   0.276   4.127 -0.3278  2.6300 -1.5673
19272SOL    HW258980   7.904   0.406   4.205  0.3809  0.2882  2.7429
19273SOL     OW58981   6.557   3.219   4.311  0.7442  0.0759  0.8375
19273SOL    HW158982   6.479   3.213   4.257  0.7580  1.0619  0.6918
19273SOL    HW258983   6.614   3.281   4.265  0.5048  1.4191  2.2715
19274SOL     OW58984   8.530   7.283   6.197 -0.0092  0.0804  0.1690
19274SOL    HW158985   8.472   7.208   6.205  0.3014 -0.2336 -0.4586
19274SOL    HW258986   8.584   7.281   6.276 -1.6538  1.0907  1.3679
19275SOL     OW58987   6.644   2.275   4.391  0.7825  0.1587  0.4589
19275SOL    HW158988   6.609   2.212   4.328  0.3424  1.0647 -0.2200
19275SOL    HW258989   6.584   2.271   4.465  1.1977 -0.7741  0.7654
19276SOL     OW58990   1.117   6.770   1.403  0.4002  0.0390  0.0216
19276SOL    HW158991   1.128   6.863   1.421  0.6563  0.0540 -0.2177
19276SOL    HW258992   1.206   6.735   1.403  0.2864 -0.2517  0.3637
19277SOL     OW58993   4.153   2.393   7.056  0.2476  0.1839  0.2232
19277SOL    HW158994   4.201   2.459   7.107 -0.8759  0.9380  0.3365
19277SOL    HW258995   4.207   2.314   7.062  1.3435  0.9316  0.5526
19278SOL     OW58996   4.076   8.843   6.359  0.0593  1.0537  0.1067
19278SOL    HW158997   4.022   8.902   6.411 -0.7552  0.1739  0.2827
19278SOL    HW258998   4.075   8.760   6.408 -1.6178 -0.1343 -1.7799
19279SOL     OW58999   5.391   5.849   5.487  0.1624 -0.0837  0.4448
19279SOL    HW159000   5.434   5.835   5.571 -1.4019 -2.1500  0.9749
19279SOL    HW259001   5.458   5.828   5.421  1.1804  0.8636  1.1308
19280SOL     OW59002   7.429   2.142   6.019 -0.7143 -0.0921  0.0117
19280SOL    HW159003   7.500   2.078   6.023  0.0911  0.8335  1.7377
19280SOL    HW259004   7.398   2.138   5.929  1.1826 -0.9126 -0.6602
19281SOL     OW59005   4.476   8.752   5.651  0.0657  0.0421 -0.2994
19281SOL    HW159006   4.472   8.800   5.734  0.5732 -0.0318 -0.2305
19281SOL    HW259007   4.389   8.763   5.613 -0.0856  0.3041  0.1161
19282SOL     OW59008   2.143   5.178   8.463  0.1403  0.0757 -0.0194
19282SOL    HW159009   2.077   5.232   8.506 -0.2031 -0.8798  0.6904
19282SOL    HW259010   2.226   5.205   8.504 -0.2349 -1.1717  1.6754
19283SOL     OW59011   1.193   5.548   8.427 -0.2948 -0.2843  1.1058
19283SOL    HW159012   1.192   5.516   8.517 -0.7044  0.0130  1.2128
19283SOL    HW259013   1.282   5.578   8.412 -0.1687 -0.5463  1.3346
19284SOL     OW59014   3.062   3.562   7.979  0.0362 -0.2385 -0.2715
19284SOL    HW159015   3.004   3.595   7.911 -2.0857 -2.0443  0.5376
19284SOL    HW259016   3.021   3.588   8.061  0.4120 -1.4360  0.3251
19285SOL     OW59017   3.636   7.982   6.316  0.5155 -0.2566  0.0807
19285SOL    HW159018   3.553   7.934   6.315  0.5285 -0.3145 -1.5093
19285SOL    HW259019   3.689   7.940   6.248  0.6924  1.6737 -1.0609
19286SOL     OW59020   2.788   8.759   8.426 -0.4719 -0.5518  0.5686
19286SOL    HW159021   2.785   8.794   8.515  0.1814  1.6553 -0.1970
19286SOL    HW259022   2.752   8.829   8.372  1.3107 -0.8622 -1.1406
19287SOL     OW59023   4.598   5.429   0.427 -0.1381  0.0994  0.3902
19287SOL    HW159024   4.560   5.382   0.353  1.5305  0.7903 -0.9474
19287SOL    HW259025   4.590   5.521   0.404  0.9421  0.3032  0.7910
19288SOL     OW59026   6.257   5.241   0.970 -0.5472 -0.1799 -0.4615
19288SOL    HW159027   6.275   5.162   0.918 -0.2504  0.7330 -1.8250
19288SOL    HW259028   6.185   5.217   1.027 -0.8870 -1.2544 -1.3035
19289SOL     OW59029   7.068   2.478   4.295  0.1101 -0.2400 -0.4724
19289SOL    HW159030   7.059   2.486   4.200 -0.7233 -1.6360 -0.5340
19289SOL    HW259031   6.978   2.477   4.327  0.3609 -0.9823  0.2226
19290SOL     OW59032   4.242   7.500   8.148  0.3330  0.2641 -0.2444
19290SOL    HW159033   4.273   7.533   8.064 -1.7758  1.2709 -0.7041
19290SOL    HW259034   4.190   7.572   8.185  1.0677 -0.2165  1.8659
19291SOL     OW59035   3.653   3.787   6.204  0.0418  0.1192 -0.9868
19291SOL    HW159036   3.617   3.701   6.180  0.8476 -0.5451  0.0896
19291SOL    HW259037   3.636   3.795   6.298 -3.0082  2.6360 -1.5762
19292SOL     OW59038   2.092   5.869   6.439 -0.0794  0.3564  0.3761
19292SOL    HW159039   2.004   5.888   6.472 -0.5076  0.3142 -0.7091
19292SOL    HW259040   2.113   5.944   6.384  1.7893  1.8280  2.8751
19293SOL     OW59041   6.196   4.884   3.750  0.2635 -0.3333  0.1963
19293SOL    HW159042   6.273   4.893   3.694  0.1952 -1.7025 -0.1513
19293SOL    HW259043   6.230   4.864   3.837  0.3563 -3.6224 -0.4608
19294SOL     OW59044   6.545   7.877   2.107 -0.0163  0.3651  0.5169
19294SOL    HW159045   6.640   7.881   2.119  0.1579  2.4123 -1.0325
19294SOL    HW259046   6.514   7.826   2.182  2.3926 -1.5776  0.3488
19295SOL     OW59047   1.729   4.191   3.977 -0.4949  0.0691  0.2303
19295SOL    HW159048   1.688   4.276   3.993 -0.5096  0.1173 -0.0569
19295SOL    HW259049   1.668   4.145   3.920 -0.6225 -0.2492  0.6149
19296SOL     OW59050   3.609   1.347   2.785 -0.0169  0.0438  0.0673
19296SOL    HW159051   3.621   1.252   2.782 -0.8091 -0.0373 -1.3076
19296SOL    HW259052   3.699   1.382   2.782  0.4417 -0.6245  2.9907
19297SOL     OW59053   0.038   0.580   5.347 -0.4248 -0.6646 -0.9639
19297SOL    HW159054   0.100   0.507   5.350 -0.5214 -0.7316 -0.3630
19297SOL    HW259055   0.043   0.613   5.258  0.1115 -0.9869 -1.0553
19298SOL     OW59056   0.676   5.648   3.713  0.0925  0.0886 -0.2432
19298SOL    HW159057   0.663   5.700   3.792  1.1159 -0.2612  0.1751
19298SOL    HW259058   0.664   5.710   3.641  1.3228  0.9438  0.2491
19299SOL     OW59059   5.861   5.374   4.612 -0.2499 -0.3948  0.4813
19299SOL    HW159060   5.798   5.335   4.551 -0.6189 -0.5045  0.9193
19299SOL    HW259061   5.849   5.468   4.603 -0.5234 -0.4168  0.6057
19300SOL     OW59062   4.700   3.289   1.711  0.6845  0.1985 -0.1213
19300SOL    HW159063   4.771   3.230   1.739  0.0215 -0.9149 -0.6982
19300SOL    HW259064   4.620   3.240   1.729  0.1040  0.9581 -0.5677
19301SOL     OW59065   8.292   2.258   5.080  0.0886 -0.0229  0.2392
19301SOL    HW159066   8.366   2.199   5.066  0.4842  0.3855  0.5955
19301SOL    HW259067   8.327   2.345   5.064 -0.2492  0.1980  0.6655
19302SOL     OW59068   4.287   7.569   7.859  0.1256 -0.5669  0.1152
19302SOL    HW159069   4.321   7.644   7.810  1.5405 -0.7666  0.7366
19302SOL    HW259070   4.211   7.541   7.810  0.7149  0.0700 -1.2200
19303SOL     OW59071   2.546   6.483   5.191 -0.0160 -0.3377 -0.1042
19303SOL    HW159072   2.604   6.445   5.125  0.8157 -0.3132  0.5878
19303SOL    HW259073   2.529   6.572   5.159  0.2058 -0.3958 -0.3953
19304SOL     OW59074   5.617   5.278   0.864  0.2376 -0.4798  0.0432
19304SOL    HW159075   5.646   5.365   0.837  1.1355 -0.9909 -0.6917
19304SOL    HW259076   5.577   5.241   0.785 -1.9873 -0.0131  0.8733
19305SOL     OW59077   8.049   7.529   7.099  0.0408  0.0836 -0.0813
19305SOL    HW159078   8.076   7.452   7.050 -1.6173 -0.3103 -0.4415
19305SOL    HW259079   7.972   7.562   7.051 -0.8136  0.4593  1.4887
19306SOL     OW59080   5.077   7.842   7.845  0.1725  0.2067  0.4557
19306SOL    HW159081   5.040   7.887   7.769  0.3732  1.1853  0.9118
19306SOL    HW259082   5.141   7.782   7.810 -2.1745 -1.9522 -0.4255
19307SOL     OW59083   2.220   8.538   3.214 -0.1784  0.3010 -0.0699
19307SOL    HW159084   2.201   8.632   3.225 -0.4379  0.4510 -1.5850
19307SOL    HW259085   2.307   8.527   3.250 -1.1279  0.5912  2.5058
19308SOL     OW59086   2.142   5.088   5.826 -0.3225 -0.3287  0.2485
19308SOL    HW159087   2.116   5.121   5.912 -1.3143  0.3048 -0.2697
19308SOL    HW259088   2.219   5.141   5.802 -0.9284  0.5267  0.1268
19309SOL     OW59089   0.445   6.318   3.115  0.2241 -0.0820 -0.6246
19309SOL    HW159090   0.386   6.280   3.181 -1.0354  0.3023 -1.4882
19309SOL    HW259091   0.513   6.362   3.166  0.9224 -2.2365  0.3939
19310SOL     OW59092   2.520   6.115   3.821  0.7275 -0.0293  0.3340
19310SOL    HW159093   2.492   6.189   3.767 -0.3590 -0.5627  0.1378
19310SOL    HW259094   2.554   6.051   3.758  0.1288 -0.3535  0.3211
19311SOL     OW59095   6.148   0.817   2.315 -0.8541 -0.0605 -0.3740
19311SOL    HW159096   6.209   0.789   2.247 -0.1905 -0.0801  0.2078
19311SOL    HW259097   6.175   0.906   2.337 -0.6523 -0.2804  0.3011
19312SOL     OW59098   7.571   7.839   7.537  0.3085  0.1081 -0.2894
19312SOL    HW159099   7.560   7.773   7.605 -1.2970 -0.1148 -0.7323
19312SOL    HW259100   7.532   7.918   7.575 -2.3658 -0.4841 -1.5913
19313SOL     OW59101   5.619   3.329   6.629 -0.1456  0.4652  0.3400
19313SOL    HW159102   5.527   3.350   6.613 -0.2612 -0.7742 -0.7734
19313SOL    HW259103   5.643   3.384   6.703 -1.6262  1.2200  0.3042
19314SOL     OW59104   7.055   2.307   6.096 -0.0492  0.4207  0.0908
19314SOL    HW159105   7.053   2.384   6.152  1.9543  2.0174 -1.8374
19314SOL    HW259106   7.134   2.260   6.123  0.9499  1.2217 -1.3235
19315SOL     OW59107   5.754   4.396   5.193 -0.2392 -0.3042  0.2169
19315SOL    HW159108   5.792   4.431   5.113 -0.4368  0.4045  0.4203
19315SOL    HW259109   5.829   4.380   5.251 -0.1700  0.2082  0.2779
19316SOL     OW59110   1.045   0.791   8.430  0.3817  0.2720 -0.2013
19316SOL    HW159111   1.102   0.866   8.418  0.9184 -0.2528 -0.9686
19316SOL    HW259112   1.056   0.767   8.522  2.2609 -0.4996 -0.5895
19317SOL     OW59113   8.250   5.102   1.113  0.2330  0.1875 -0.2926
19317SOL    HW159114   8.316   5.060   1.058  0.7057  0.1603  0.2796
19317SOL    HW259115   8.214   5.030   1.165 -1.1355 -0.0094 -1.4644
19318SOL     OW59116   7.093   2.259   5.827 -0.1564  0.5838 -0.1534
19318SOL    HW159117   7.170   2.208   5.801 -0.8699 -0.6347  0.0295
19318SOL    HW259118   7.110   2.283   5.918  1.1946  2.6509 -0.8966
19319SOL     OW59119   5.616   4.577   0.072 -0.0606 -0.0627  0.0213
19319SOL    HW159120   5.521   4.587   0.065 -0.0216 -0.7650 -2.9799
19319SOL    HW259121   5.629   4.493   0.116 -0.8155 -0.0741  0.2325
19320SOL     OW59122   3.494   8.595   5.313 -0.2109 -0.0578 -0.7455
19320SOL    HW159123   3.399   8.604   5.298 -0.9246 -0.3647  2.7802
19320SOL    HW259124   3.524   8.543   5.238 -3.0763 -1.0470 -1.3778
19321SOL     OW59125   1.910   4.480   0.106 -0.7234  0.1523 -0.0056
19321SOL    HW159126   1.925   4.469   0.012  1.7141  1.3844  0.1602
19321SOL    HW259127   1.887   4.572   0.116  1.2854  0.6274  0.7531
19322SOL     OW59128   0.348   2.553   0.635  0.3756 -0.1173 -0.0934
19322SOL    HW159129   0.296   2.511   0.703 -0.1399 -0.1408 -0.5031
19322SOL    HW259130   0.428   2.581   0.680  0.5965 -1.2580  0.2553
19323SOL     OW59131   3.337   0.548   4.592 -0.8870  0.1875  0.7496
19323SOL    HW159132   3.266   0.491   4.562  0.2812 -1.3610  0.7718
19323SOL    HW259133   3.346   0.613   4.523 -0.1811 -1.5880 -0.9366
19324SOL     OW59134   2.697   4.525   6.839  0.6680 -0.4189  0.9103
19324SOL    HW159135   2.668   4.577   6.764 -1.0450  0.3726  2.0604
19324SOL    HW259136   2.644   4.557   6.912  0.3171 -3.0618  1.9139
19325SOL     OW59137   8.601   5.676   0.174  0.7259  0.0934  0.1032
19325SOL    HW159138   8.575   5.754   0.125 -3.4494 -0.8928  0.3408
19325SOL    HW259139   8.638   5.709   0.255  1.9210  1.7472 -1.0535
19326SOL     OW59140   0.970   6.082   2.338  0.1368 -0.5677 -0.2708
19326SOL    HW159141   0.938   6.109   2.424  0.6662 -1.5039  0.2473
19326SOL    HW259142   1.020   6.002   2.356  1.9678  0.3279 -1.1709
19327SOL     OW59143   8.362   3.895   7.965  0.2001  0.1476 -0.0119
19327SOL    HW159144   8.355   3.946   7.884  0.6845 -0.9148 -0.7491
19327SOL    HW259145   8.456   3.888   7.982  0.0997  0.4924  0.7415
19328SOL     OW59146   6.948   5.558   5.028  0.2448 -0.4259 -0.2410
19328SOL    HW159147   6.946   5.532   4.936 -2.0512 -0.0272 -0.3622
19328SOL    HW259148   7.039   5.545   5.055  0.8128 -1.2129 -2.3629
19329SOL     OW59149   8.220   4.490   4.251  0.5161  0.0004  0.3137
19329SOL    HW159150   8.246   4.510   4.341 -1.6607  0.6563  0.8498
19329SOL    HW259151   8.272   4.549   4.197  1.5682 -0.1288  1.1480
19330SOL     OW59152   1.314   0.454   6.736  0.1426  0.5454  0.3869
19330SOL    HW159153   1.294   0.383   6.797  0.6609  0.7673  0.8249
19330SOL    HW259154   1.410   0.457   6.733  0.1529  2.0546  1.3717
19331SOL     OW59155   3.997   5.916   6.137  0.6756 -0.5010 -0.1535
19331SOL    HW159156   3.957   5.848   6.084  0.5999 -0.2530 -0.4206
19331SOL    HW259157   4.084   5.929   6.098  0.3968  0.0960 -0.5945
19332SOL     OW59158   1.335   6.679   1.983  0.0292 -0.0028 -0.3529
19332SOL    HW159159   1.369   6.590   1.995 -0.0428  0.0438  0.2632
19332SOL    HW259160   1.297   6.679   1.896 -0.7508 -0.8417 -0.0337
19333SOL     OW59161   7.731   8.159   1.501 -0.0790 -0.1928  0.6484
19333SOL    HW159162   7.665   8.095   1.476 -0.9496  0.8919  0.0947
19333SOL    HW259163   7.781   8.175   1.421 -1.5684  1.7640  0.0338
19334SOL     OW59164   8.503   7.691   4.035 -0.0274  0.1842  0.1478
19334SOL    HW159165   8.417   7.649   4.033  0.2178 -0.3069 -0.6577
19334SOL    HW259166   8.538   7.679   3.947  1.1405 -0.1994  0.6358
19335SOL     OW59167   1.008   3.364   3.067 -0.1093 -0.1899  0.2622
19335SOL    HW159168   0.944   3.309   3.021 -0.5420  0.7837 -0.3240
19335SOL    HW259169   0.956   3.431   3.111  0.5013  0.8156 -0.4911
19336SOL     OW59170   8.220   7.448   8.491  0.0207  0.3508 -0.3129
19336SOL    HW159171   8.195   7.456   8.400 -2.4098  1.2953  0.3811
19336SOL    HW259172   8.205   7.355   8.512  0.6600  0.1154 -0.8545
19337SOL     OW59173   8.837   7.864   7.283  0.0895 -0.3596 -0.1390
19337SOL    HW159174   8.849   7.881   7.377  0.0565 -1.7483  0.1434
19337SOL    HW259175   8.915   7.901   7.242  1.6008 -2.3112  0.7877
19338SOL     OW59176   2.701   4.153   8.260  0.2847 -0.4273  0.3100
19338SOL    HW159177   2.650   4.178   8.183 -2.8606  1.5616  2.7710
19338SOL    HW259178   2.751   4.232   8.282 -0.3608 -0.2951  1.3557
19339SOL     OW59179   8.543   8.658   6.748 -0.4364  0.5488 -0.2507
19339SOL    HW159180   8.603   8.709   6.694 -0.0031  1.4798  1.0572
19339SOL    HW259181   8.475   8.629   6.687  0.0309  1.5592 -1.2941
19340SOL     OW59182   7.259   1.985   4.986  0.0402  0.5280 -0.0717
19340SOL    HW159183   7.176   1.939   4.977  1.0119 -0.9220 -2.4955
19340SOL    HW259184   7.319   1.921   5.024  0.5020  0.9633 -0.0515
19341SOL     OW59185   6.097   5.232   2.174  0.9177  0.5884 -0.2308
19341SOL    HW159186   6.160   5.279   2.119 -0.2544  0.6890 -1.5630
19341SOL    HW259187   6.150   5.172   2.226  2.1504  1.0643 -0.8956
19342SOL     OW59188   3.031   5.721   5.811 -0.0652 -0.2372  0.3676
19342SOL    HW159189   3.058   5.714   5.720 -3.5014 -0.4877 -0.7483
19342SOL    HW259190   3.083   5.793   5.846  1.0879  0.0830 -1.8525
19343SOL     OW59191   5.757   3.051   1.275 -0.4195  0.0063 -0.3858
19343SOL    HW159192   5.834   3.070   1.222  1.0614  1.7097  2.1925
19343SOL    HW259193   5.779   2.970   1.321  0.9164  1.6742  2.0768
19344SOL     OW59194   1.871   3.200   0.317 -0.3969 -0.0073 -0.3104
19344SOL    HW159195   1.934   3.246   0.262 -1.9139  0.5679 -1.6735
19344SOL    HW259196   1.869   3.250   0.399  0.3933  0.3475 -0.5002
19345SOL     OW59197   0.387   5.510   5.671 -0.2611 -0.1904  0.3068
19345SOL    HW159198   0.340   5.442   5.622 -1.6655  0.1744  1.0747
19345SOL    HW259199   0.442   5.552   5.606  1.1298 -2.4271 -0.0715
19346SOL     OW59200   6.779   7.675   4.700  0.0928 -0.3063  0.1433
19346SOL    HW159201   6.813   7.620   4.630  0.2357 -1.0135  0.7633
19346SOL    HW259202   6.770   7.617   4.775 -0.3178  0.3813  0.6427
19347SOL     OW59203   1.222   7.236   3.810  0.4323 -0.2792 -0.2513
19347SOL    HW159204   1.183   7.192   3.735  1.5806  0.3289 -1.2341
19347SOL    HW259205   1.168   7.313   3.825 -0.6940 -1.1791  0.5316
19348SOL     OW59206   3.559   6.329   7.932  0.3385 -0.1551 -0.3859
19348SOL    HW159207   3.536   6.403   7.988  0.4958 -0.4014  0.0166
19348SOL    HW259208   3.575   6.367   7.846 -2.2186 -0.0425 -0.8782
19349SOL     OW59209   5.845   6.680   1.264 -0.2871 -0.9679  0.4104
19349SOL    HW159210   5.774   6.630   1.224 -1.3271 -0.3629  1.4305
19349SOL    HW259211   5.801   6.737   1.327  0.9602  0.5225 -0.0079
19350SOL     OW59212   3.542   4.494   3.935 -0.5012 -0.1587  0.2909
19350SOL    HW159213   3.493   4.515   3.856  0.1173  2.6877  0.5348
19350SOL    HW259214   3.477   4.494   4.005 -0.5948  0.5725  0.2065
19351SOL     OW59215   4.526   0.672   1.867  0.4492  0.3144  0.3408
19351SOL    HW159216   4.540   0.610   1.795  0.5516  0.4940  0.2025
19351SOL    HW259217   4.553   0.624   1.945  1.0175  0.3548  0.1770
19352SOL     OW59218   3.484   0.570   4.005 -0.3869  0.1797  0.2071
19352SOL    HW159219   3.478   0.542   3.913  0.3389  0.4925  0.0520
19352SOL    HW259220   3.409   0.529   4.048 -0.4031 -0.4569 -0.4068
19353SOL     OW59221   3.782   1.816   1.155 -0.4086 -0.0822 -0.6664
19353SOL    HW159222   3.736   1.741   1.117 -0.7640  0.4404 -1.2803
19353SOL    HW259223   3.812   1.785   1.241 -0.1357 -1.0797 -1.1038
19354SOL     OW59224   7.018   7.980   3.473 -0.2261  0.1940 -0.3489
19354SOL    HW159225   6.982   8.018   3.553 -0.0119 -0.8186  0.2476
19354SOL    HW259226   7.002   7.886   3.482 -0.2277  0.0688 -1.5152
19355SOL     OW59227   3.336   5.588   7.208  0.3061 -0.2988 -0.3584
19355SOL    HW159228   3.394   5.519   7.179  0.8768  0.3620 -0.8340
19355SOL    HW259229   3.269   5.594   7.139  0.0206 -0.6451 -0.1152
19356SOL     OW59230   3.082   5.934   7.318 -0.3221  0.3908  0.1802
19356SOL    HW159231   3.098   6.027   7.302 -1.9587  0.5442 -0.7102
19356SOL    HW259232   3.076   5.895   7.231  3.2084 -1.1669  0.4485
19357SOL     OW59233   1.229   8.583   7.278  0.1359 -0.4720 -0.2196
19357SOL    HW159234   1.320   8.562   7.257  0.4604  0.9293 -0.2727
19357SOL    HW259235   1.191   8.612   7.195  0.3688  1.4209  0.3035
19358SOL     OW59236   7.654   6.628   5.370  0.6507  0.5672 -0.1182
19358SOL    HW159237   7.610   6.637   5.455  0.6413 -0.6442  0.0151
19358SOL    HW259238   7.713   6.553   5.381 -1.5497 -1.6025 -2.0902
19359SOL     OW59239   1.815   8.101   2.352  0.1784  0.3106  0.0382
19359SOL    HW159240   1.759   8.109   2.430  0.4999 -1.1817  0.4588
19359SOL    HW259241   1.904   8.111   2.385  0.3659 -1.0709  0.0237
19360SOL     OW59242   5.364   1.811   5.200  0.3422 -0.4655 -0.0576
19360SOL    HW159243   5.423   1.872   5.244 -0.2025 -0.1884  0.2960
19360SOL    HW259244   5.306   1.866   5.149  0.2827 -0.7277 -0.2722
19361SOL     OW59245   3.352   4.875   5.486  1.1105 -0.4660 -0.0170
19361SOL    HW159246   3.282   4.822   5.448 -0.2698  1.6453 -0.6191
19361SOL    HW259247   3.337   4.871   5.580  0.0964 -0.0024 -0.1399
19362SOL     OW59248   0.784   5.787   2.317 -0.2334 -0.3519 -0.2288
19362SOL    HW159249   0.760   5.853   2.382  0.4132 -1.4769  1.2099
19362SOL    HW259250   0.880   5.782   2.322 -0.3280 -2.2246  0.5875
19363SOL     OW59251   2.957   0.973   4.167  0.3449 -0.2467  0.0093
19363SOL    HW159252   2.953   0.980   4.262 -2.1047 -1.8234  0.1149
19363SOL    HW259253   2.878   1.015   4.136  0.6049 -0.6280 -1.2620
19364SOL     OW59254   0.163   2.235   1.306  0.2484 -0.3861  0.3910
19364SOL    HW159255   0.150   2.208   1.397 -0.4904  0.5158  0.5799
19364SOL    HW259256   0.128   2.163   1.255 -2.2945  0.3770  0.8867
19365SOL     OW59257   1.116   5.884   1.525  0.1075  0.2015  0.0866
19365SOL    HW159258   1.045   5.920   1.578  0.5394  3.1629 -1.1829
19365SOL    HW259259   1.071   5.841   1.452 -0.4090  0.0983  0.4630
19366SOL     OW59260   3.116   3.351   3.144 -0.2489  0.5014  0.2417
19366SOL    HW159261   3.056   3.378   3.075 -1.6392  0.8878  1.5549
19366SOL    HW259262   3.089   3.261   3.165  0.4680  0.2194 -0.0325
19367SOL     OW59263   0.780   8.169   3.807  0.3234 -0.0400  0.1519
19367SOL    HW159264   0.705   8.174   3.748  1.0909 -0.4352 -0.9010
19367SOL    HW259265   0.756   8.223   3.882 -1.4165 -0.9683  0.3153
19368SOL     OW59266   1.397   7.391   2.396  0.5330 -0.3808  0.4025
19368SOL    HW159267   1.320   7.392   2.339  0.5319  0.1201  0.4127
19368SOL    HW259268   1.427   7.300   2.393 -0.4771 -0.7494  0.9631
19369SOL     OW59269   2.132   4.896   4.504 -0.1910  0.7880 -0.2772
19369SOL    HW159270   2.100   4.811   4.472  0.9587 -0.3170  1.3035
19369SOL    HW259271   2.107   4.896   4.597  2.5074  0.7496  0.5151
19370SOL     OW59272   4.443   0.027   5.094 -0.1416  0.0493  0.4905
19370SOL    HW159273   4.420  -0.036   5.162 -1.1913 -0.6723 -0.5008
19370SOL    HW259274   4.362   0.074   5.076 -0.6102 -1.5285 -2.0304
19371SOL     OW59275   1.560   4.856   4.133  0.2201 -0.2691 -0.1286
19371SOL    HW159276   1.484   4.861   4.191  0.3567  0.5559 -0.0152
19371SOL    HW259277   1.527   4.883   4.047  0.8406  2.3602  0.3763
19372SOL     OW59278   8.018   5.931   7.504  0.7636 -0.0212 -0.3903
19372SOL    HW159279   8.098   5.925   7.453 -0.2516  0.8255 -2.1938
19372SOL    HW259280   7.968   5.852   7.481  1.7281 -1.4465  2.0462
19373SOL     OW59281   4.338   6.903   0.007  0.4928  0.2179 -0.0109
19373SOL    HW159282   4.378   6.819  -0.013  2.0888  0.9342  0.0236
19373SOL    HW259283   4.278   6.919  -0.066 -1.2593 -1.7724  0.9087
19374SOL     OW59284   2.007   8.721   3.398 -0.7520 -0.0477 -0.6100
19374SOL    HW159285   2.074   8.766   3.346 -1.7375  1.7270 -0.4170
19374SOL    HW259286   2.054   8.649   3.440  0.9733  0.9603 -0.7102
19375SOL     OW59287   0.507   2.990   6.876 -0.1431 -0.0854 -0.3540
19375SOL    HW159288   0.462   3.067   6.841 -2.0241 -0.2147  1.6330
19375SOL    HW259289   0.449   2.917   6.855  0.8922 -0.7785 -0.8682
19376SOL     OW59290   3.092   7.757   4.097 -0.2694  0.3194  0.1450
19376SOL    HW159291   3.112   7.776   4.005 -1.3390  0.9464  0.0291
19376SOL    HW259292   3.018   7.814   4.117  0.5777  0.9229  1.6989
19377SOL     OW59293   0.038   6.884   8.186  0.1179 -0.1397 -0.1348
19377SOL    HW159294  -0.034   6.860   8.127 -0.7316 -0.9290  1.1652
19377SOL    HW259295   0.040   6.979   8.185 -1.3661 -0.0832  0.2553
19378SOL     OW59296   4.353   1.997   3.568  0.6099  0.1608 -0.1560
19378SOL    HW159297   4.286   2.014   3.502  1.3526  1.2751 -0.6536
19378SOL    HW259298   4.324   1.917   3.611  0.2900 -0.8385 -2.1031
19379SOL     OW59299   2.816   0.233   1.291 -0.5988  0.5698 -0.3485
19379SOL    HW159300   2.870   0.154   1.295 -0.4709  0.5585 -1.6391
19379SOL    HW259301   2.726   0.200   1.283 -0.7049  0.5789  0.7350
19380SOL     OW59302   6.920   5.507   8.706 -0.0784  0.2148 -0.0947
19380SOL    HW159303   6.981   5.433   8.703  1.2468  1.2534  0.2178
19380SOL    HW259304   6.930   5.551   8.622 -0.2175  0.5138  0.0416
19381SOL     OW59305   1.926   6.174   5.524  0.2626  0.0650 -0.5854
19381SOL    HW159306   1.878   6.222   5.592  0.3828  0.1341 -0.5489
19381SOL    HW259307   1.880   6.090   5.517  0.9963 -0.4624  0.4852
19382SOL     OW59308   4.495   7.027   6.241 -0.2037  0.3825  0.0769
19382SOL    HW159309   4.470   7.119   6.251  1.6791  0.9835 -0.4351
19382SOL    HW259310   4.483   7.009   6.148 -0.1226  0.2360  0.0956
19383SOL     OW59311   2.627   2.072   0.436  0.3416  0.1838 -0.1641
19383SOL    HW159312   2.706   2.097   0.389  0.9377 -0.9520  0.2243
19383SOL    HW259313   2.650   1.993   0.485 -1.4085 -1.0247 -1.1566
19384SOL     OW59314   3.482   5.801   7.681 -0.1960 -0.2082  0.5684
19384SOL    HW159315   3.448   5.784   7.594 -0.3667  2.3917  0.0510
19384SOL    HW259316   3.577   5.805   7.669 -0.0895 -1.5170  0.8569
19385SOL     OW59317   7.607   8.700   5.521  0.0082 -0.5880  0.8373
19385SOL    HW159318   7.595   8.795   5.533 -0.0072 -0.7035  1.8150
19385SOL    HW259319   7.545   8.677   5.451  1.1433  0.3844 -0.5481
19386SOL     OW59320   5.228   4.506   7.667  0.3176 -0.9433  0.0192
19386SOL    HW159321   5.288   4.538   7.600  2.0836 -0.2079  1.8607
19386SOL    HW259322   5.188   4.428   7.629 -0.1595  0.4644 -2.5815
19387SOL     OW59323   5.701   6.466   2.521 -0.4585 -0.7918  0.2690
19387SOL    HW159324   5.793   6.491   2.519  0.0661 -2.6124  0.4643
19387SOL    HW259325   5.686   6.420   2.439 -1.4240  0.1690 -0.1192
19388SOL     OW59326   1.612   8.827   8.588 -0.0499  0.7996 -0.2481
19388SOL    HW159327   1.643   8.740   8.614  0.7633  0.9003 -0.8182
19388SOL    HW259328   1.602   8.821   8.493 -0.8872  1.0631 -0.1794
19389SOL     OW59329   7.007   6.697   0.279 -0.6525 -0.0625 -0.0447
19389SOL    HW159330   7.051   6.634   0.336 -0.6754  0.1356  0.1932
19389SOL    HW259331   7.057   6.695   0.197 -1.1015 -0.9445 -0.3120
19390SOL     OW59332   8.050   4.638   2.316  0.5360  0.1683 -0.1124
19390SOL    HW159333   8.023   4.651   2.225  0.1028 -0.1572 -0.0315
19390SOL    HW259334   8.079   4.547   2.319 -0.6826 -0.2306  0.3695
19391SOL     OW59335   7.570   0.525   8.415 -0.1273  0.1995 -0.1237
19391SOL    HW159336   7.584   0.445   8.364 -1.9675 -0.4486  0.3208
19391SOL    HW259337   7.476   0.526   8.435 -0.0591  2.1871  0.3752
19392SOL     OW59338   7.530   1.698   4.825 -0.3576  0.0097 -0.1865
19392SOL    HW159339   7.574   1.706   4.910 -0.1727 -0.6096 -0.2177
19392SOL    HW259340   7.438   1.683   4.846 -1.1366  3.9881 -0.1183
19393SOL     OW59341   3.445   3.258   5.650  0.0822 -0.0130 -0.4453
19393SOL    HW159342   3.401   3.174   5.635  1.5495 -0.7340 -0.9975
19393SOL    HW259343   3.436   3.274   5.744 -1.3350 -0.1171 -0.5446
19394SOL     OW59344   4.963   4.750   2.360  0.0128  0.0889 -0.1423
19394SOL    HW159345   4.997   4.669   2.399 -0.3664 -0.0033 -0.0011
19394SOL    HW259346   4.910   4.721   2.286  2.5834  0.3374 -2.2383
19395SOL     OW59347   0.176   7.992   1.997 -0.1480  0.0042  0.1530
19395SOL    HW159348   0.249   7.950   1.953 -1.3098 -0.9958 -0.8805
19395SOL    HW259349   0.098   7.956   1.955 -1.2565  0.7541  1.4758
19396SOL     OW59350   0.153   0.234   6.620  0.4157 -1.1619  0.2405
19396SOL    HW159351   0.184   0.262   6.706 -0.7649  2.6631 -0.3869
19396SOL    HW259352   0.058   0.223   6.631  0.4097 -1.7363 -0.3301
19397SOL     OW59353   0.482   0.636   5.684  0.1032 -0.0544 -0.1300
19397SOL    HW159354   0.474   0.663   5.592  1.0980  0.0707 -0.1828
19397SOL    HW259355   0.393   0.610   5.708 -0.4226  1.0711 -0.7615
19398SOL     OW59356   5.582   1.826   5.461  0.3864  0.4143  0.7947
19398SOL    HW159357   5.641   1.751   5.473  1.2683  1.0209  0.3540
19398SOL    HW259358   5.607   1.864   5.377  0.0699  1.3061  1.0890
19399SOL     OW59359   7.363   8.721   4.411  0.1755  0.5345 -0.1453
19399SOL    HW159360   7.323   8.800   4.374  0.9179  0.8724 -0.2534
19399SOL    HW259361   7.374   8.662   4.336  2.3680  1.5078 -0.6737
19400SOL     OW59362   6.418   3.398   3.411  0.1621  0.2637 -0.1565
19400SOL    HW159363   6.379   3.311   3.419  1.3939 -0.2744  0.4699
19400SOL    HW259364   6.461   3.412   3.496 -0.3819  1.6719 -0.0980
19401SOL     OW59365   0.808   1.345   7.857  0.1080 -0.4843  0.5343
19401SOL    HW159366   0.819   1.398   7.778  0.1662 -0.3088  0.6598
19401SOL    HW259367   0.745   1.277   7.832  1.3977 -1.4711 -0.1735
19402SOL     OW59368   5.844   0.122   2.534  0.0133  0.3751 -0.6508
19402SOL    HW159369   5.827   0.118   2.628 -1.2239  0.4953 -0.8571
19402SOL    HW259370   5.927   0.076   2.523  1.0756  1.8566  0.7049
19403SOL     OW59371   2.006   1.932   2.338  0.0472 -0.0546  0.0223
19403SOL    HW159372   2.005   1.903   2.247 -1.0340  1.5027 -0.5080
19403SOL    HW259373   2.058   2.013   2.336 -2.0776  1.3861  0.2626
19404SOL     OW59374   5.960   6.351   3.869  0.0896 -0.2190  0.1035
19404SOL    HW159375   5.948   6.445   3.884 -0.0150 -0.0647 -0.8922
19404SOL    HW259376   5.879   6.311   3.899  0.1489  0.0085  0.5665
19405SOL     OW59377   6.545   3.181   7.099  0.2191  0.6492  0.3785
19405SOL    HW159378   6.506   3.229   7.172  0.3915  0.2989  0.7003
19405SOL    HW259379   6.482   3.193   7.027 -0.2927  0.4213  0.7791
19406SOL     OW59380   6.256   2.871   4.978 -0.1409  0.0232  0.2245
19406SOL    HW159381   6.317   2.867   4.904  0.4470 -0.5828  0.7298
19406SOL    HW259382   6.238   2.780   4.999  0.1428  0.1710  1.1818
19407SOL     OW59383   3.209   0.593   0.977  0.2042  0.6139  0.5459
19407SOL    HW159384   3.203   0.603   0.882  0.5207  0.8791  0.5531
19407SOL    HW259385   3.228   0.680   1.010 -2.1533  1.0019  1.0684
19408SOL     OW59386   7.815   6.685   0.403  0.4849  0.0370  0.7081
19408SOL    HW159387   7.826   6.591   0.416  0.9278  0.0513  0.4538
19408SOL    HW259388   7.839   6.699   0.311 -1.2027  0.1435  0.2484
19409SOL     OW59389   2.388   6.775   4.110 -0.1886 -0.1983 -0.0711
19409SOL    HW159390   2.317   6.726   4.153  0.1851  0.3889  1.2632
19409SOL    HW259391   2.444   6.707   4.072 -0.7138 -0.7315  0.0834
19410SOL     OW59392   8.423   6.354   3.036  0.1911 -0.0893  0.2154
19410SOL    HW159393   8.434   6.441   3.075  1.1872  0.3365 -0.9636
19410SOL    HW259394   8.483   6.353   2.962  1.8054 -2.5587  1.4323
19411SOL     OW59395   8.774   7.564   8.032 -0.1966  0.1910  0.0238
19411SOL    HW159396   8.869   7.574   8.025 -0.1155 -0.6122 -0.1460
19411SOL    HW259397   8.759   7.471   8.018 -1.0056  0.2969  0.1480
19412SOL     OW59398   6.777   3.686   7.960  0.6396 -0.8451 -0.6433
19412SOL    HW159399   6.823   3.724   7.885 -0.1689 -1.6875 -1.6117
19412SOL    HW259400   6.727   3.758   7.997  3.4663  0.3487  1.0889
19413SOL     OW59401   3.209   3.832   3.981  0.4726  0.3188  0.5534
19413SOL    HW159402   3.303   3.840   3.997  0.8533 -0.2976 -1.1304
19413SOL    HW259403   3.168   3.860   4.063  2.1057  0.8890  1.2194
19414SOL     OW59404   8.528   7.646   3.760  0.3459 -0.1369  0.0096
19414SOL    HW159405   8.526   7.741   3.750 -0.2598 -0.0844  0.5379
19414SOL    HW259406   8.587   7.616   3.692 -1.9748  0.3353 -2.3706
19415SOL     OW59407   8.816   8.608   2.750 -0.3435 -0.3354  0.0303
19415SOL    HW159408   8.864   8.677   2.705  0.5290 -0.3318  0.9151
19415SOL    HW259409   8.726   8.639   2.755 -0.3537 -0.1297 -1.2603
19416SOL     OW59410   2.191   8.396   2.271 -0.3725  0.0072 -0.4476
19416SOL    HW159411   2.263   8.362   2.219  0.5353  0.2628  0.6089
19416SOL    HW259412   2.168   8.479   2.230  1.3280  0.9436  0.3670
19417SOL     OW59413   5.731   2.268   7.584  0.2503 -0.0886 -0.2813
19417SOL    HW159414   5.651   2.232   7.623  0.8780 -1.6301 -0.3371
19417SOL    HW259415   5.700   2.335   7.523 -0.9301  0.0086  0.3773
19418SOL     OW59416   6.378   0.032   2.490  0.6622  0.2396  0.1432
19418SOL    HW159417   6.400   0.115   2.449 -1.9629  0.8529 -0.2401
19418SOL    HW259418   6.380   0.049   2.584 -0.3160  0.9197  0.0571
19419SOL     OW59419   8.673   3.914   3.560 -0.0892 -0.0284  0.1461
19419SOL    HW159420   8.701   3.939   3.648 -2.5821  3.6286  0.1322
19419SOL    HW259421   8.710   3.981   3.503  0.6086 -1.7437 -1.4991
19420SOL     OW59422   5.029   0.864   1.742 -0.3251  0.0045 -0.3538
19420SOL    HW159423   5.019   0.914   1.823 -0.5496 -0.1942 -0.2600
19420SOL    HW259424   5.116   0.824   1.749 -0.0318  0.5906 -0.5457
19421SOL     OW59425   4.597   7.175   1.962 -0.6654 -0.3039 -0.6989
19421SOL    HW159426   4.602   7.139   2.051 -0.0440  2.7124  0.6301
19421SOL    HW259427   4.655   7.119   1.910  0.5981 -0.9329  1.2691
19422SOL     OW59428   8.264   6.638   8.064  0.0467 -0.3419 -0.0168
19422SOL    HW159429   8.332   6.642   7.997  0.0871 -1.1544 -0.0342
19422SOL    HW259430   8.274   6.720   8.113  2.3364 -1.2744  1.2256
19423SOL     OW59431   7.976   5.896   2.970  0.0519  0.5208  0.5174
19423SOL    HW159432   7.940   5.936   2.891 -0.2571  0.5727  0.6819
19423SOL    HW259433   7.959   5.960   3.039  0.6767  0.6487  0.5558
19424SOL     OW59434   4.998   2.108   3.748 -0.3086 -0.8627 -0.2792
19424SOL    HW159435   5.020   2.016   3.728 -0.6723 -0.9492 -0.2794
19424SOL    HW259436   4.904   2.108   3.762 -0.2223 -0.5990  0.3496
19425SOL     OW59437   1.065   2.353   6.275 -0.1477  0.4513  0.5372
19425SOL    HW159438   1.028   2.427   6.227 -2.0507 -0.3887  0.5911
19425SOL    HW259439   1.051   2.374   6.367 -1.0242 -0.0936  0.5445
19426SOL     OW59440   8.188   0.889   3.233  0.0977 -0.3669 -0.5094
19426SOL    HW159441   8.215   0.953   3.167  0.3165  0.1990  0.1160
19426SOL    HW259442   8.268   0.870   3.281 -0.2058 -0.2297  0.0541
19427SOL     OW59443   5.892   0.964   0.035  0.1336 -0.4729 -0.1323
19427SOL    HW159444   5.865   0.898  -0.029 -1.4065  0.7107 -0.7656
19427SOL    HW259445   5.895   0.917   0.119 -1.4142 -1.2603 -0.4803
19428SOL     OW59446   8.321   7.933   1.301  0.2242 -0.2702 -0.4772
19428SOL    HW159447   8.348   8.022   1.280 -1.3264  1.3892  3.6190
19428SOL    HW259448   8.384   7.904   1.367 -0.9592 -1.0345  0.3458
19429SOL     OW59449   1.288   1.445   8.072  0.4714 -0.0753  0.4426
19429SOL    HW159450   1.342   1.424   7.996 -0.1688  0.5572 -0.2043
19429SOL    HW259451   1.200   1.456   8.036  0.1422  0.1356  1.2931
19430SOL     OW59452   6.088   0.210   3.551  0.5604  0.1739  0.3565
19430SOL    HW159453   6.103   0.296   3.590  0.2093  0.3812  0.0465
19430SOL    HW259454   6.082   0.228   3.457  1.4579 -0.3206  0.1872
19431SOL     OW59455   3.827   7.384   1.754 -0.3324  0.0893 -0.0985
19431SOL    HW159456   3.889   7.313   1.769 -1.7643 -1.2041 -0.0268
19431SOL    HW259457   3.788   7.364   1.669  1.1499  2.3217 -1.4016
19432SOL     OW59458   2.303   8.450   0.843 -0.0683  0.0164  0.0158
19432SOL    HW159459   2.330   8.359   0.841  1.0953  0.3568 -1.3330
19432SOL    HW259460   2.343   8.489   0.765  0.4891  1.9726  1.2049
19433SOL     OW59461   0.969   0.627   7.594  0.7676 -0.4877  0.3124
19433SOL    HW159462   1.039   0.685   7.624 -0.1793  0.5574  0.5604
19433SOL    HW259463   0.899   0.640   7.658 -0.7573  0.6905 -1.5115
19434SOL     OW59464   0.331   7.962   6.942  0.2088  0.0405 -0.2897
19434SOL    HW159465   0.286   8.042   6.914  0.0087  0.0788  0.1364
19434SOL    HW259466   0.398   7.948   6.875 -0.5450 -0.1154 -1.0317
19435SOL     OW59467   1.939   8.408   0.106 -0.0120  0.1665 -0.5616
19435SOL    HW159468   1.951   8.313   0.096  0.4346  0.3454 -2.0107
19435SOL    HW259469   1.989   8.446   0.034 -0.5738  1.4885 -0.2835
19436SOL     OW59470   7.852   5.915   6.586  0.4873  0.1895  0.0534
19436SOL    HW159471   7.916   5.890   6.653 -1.2642 -2.2528  0.9364
19436SOL    HW259472   7.811   5.994   6.620  0.6038 -0.2203  1.1948
19437SOL     OW59473   7.120   1.221   1.121 -0.5255 -0.1795  0.3490
19437SOL    HW159474   7.035   1.262   1.103  0.2823  1.1741 -0.6297
19437SOL    HW259475   7.137   1.167   1.044  0.3262  1.0662 -0.3822
19438SOL     OW59476   6.825   6.846   8.511 -0.1894 -0.0359 -0.5344
19438SOL    HW159477   6.797   6.827   8.601 -1.9283 -2.1649 -1.4517
19438SOL    HW259478   6.777   6.925   8.488  0.5405  0.7408  0.4769
19439SOL     OW59479   6.187   4.313   8.036  0.4976  0.2006 -0.3516
19439SOL    HW159480   6.152   4.224   8.034  0.4570  0.2237 -2.2158
19439SOL    HW259481   6.282   4.301   8.040  0.4412  0.1110  1.1496
19440SOL     OW59482   2.416   6.781   3.058 -0.4065 -0.0739  0.0340
19440SOL    HW159483   2.379   6.737   2.981 -0.7151  0.9806 -0.4372
19440SOL    HW259484   2.359   6.856   3.073 -1.4441 -1.2231  2.4216
19441SOL     OW59485   2.864   3.007   3.844 -0.1499  0.3352 -0.4518
19441SOL    HW159486   2.896   2.952   3.772 -0.2035 -0.7911  0.3592
19441SOL    HW259487   2.913   2.977   3.920 -0.3366  1.2936  0.0566
19442SOL     OW59488   1.770   6.282   0.201 -0.0857  0.1177 -0.7664
19442SOL    HW159489   1.865   6.274   0.194 -0.0641 -0.9608  0.4293
19442SOL    HW259490   1.740   6.292   0.111  1.1172 -0.0396 -1.1992
19443SOL     OW59491   1.588   6.018   3.617 -0.2566 -0.0507  0.0670
19443SOL    HW159492   1.619   5.927   3.617 -1.9386 -0.6676 -1.0654
19443SOL    HW259493   1.650   6.064   3.560 -1.3427 -1.2546 -2.1854
19444SOL     OW59494   2.951   8.035   3.567  0.9512 -0.1984  0.3065
19444SOL    HW159495   3.007   8.077   3.632  1.4797 -0.3053 -0.0701
19444SOL    HW259496   2.997   8.047   3.484  0.1303  0.2166 -0.1069
19445SOL     OW59497   4.390   2.550   5.988  0.2603 -0.3024 -0.4692
19445SOL    HW159498   4.342   2.534   6.069  0.7559 -1.9605 -0.4589
19445SOL    HW259499   4.322   2.561   5.922 -0.2004  2.7253  0.3684
19446SOL     OW59500   0.677   7.577   7.535  0.7141 -0.0572  0.1884
19446SOL    HW159501   0.633   7.572   7.450 -1.8058  0.1457  1.3966
19446SOL    HW259502   0.740   7.649   7.525 -1.5867  1.9888 -0.6985
19447SOL     OW59503   3.047   8.522   7.669 -0.6249 -0.2306 -0.5803
19447SOL    HW159504   3.116   8.479   7.619 -0.1094  1.1937 -1.1476
19447SOL    HW259505   3.005   8.582   7.607 -0.2436  1.2819  0.5537
19448SOL     OW59506   4.112   5.503   1.876 -0.2315  0.3313  0.2322
19448SOL    HW159507   4.036   5.461   1.837  2.1093 -1.0099 -3.4197
19448SOL    HW259508   4.139   5.568   1.812 -0.1101  3.2407  2.9639
19449SOL     OW59509   8.024   0.102   0.864 -0.1208 -0.1873 -0.0803
19449SOL    HW159510   8.008   0.177   0.806 -0.7760 -0.4311 -0.2241
19449SOL    HW259511   8.103   0.126   0.912  0.1136  0.2665 -0.6690
19450SOL     OW59512   4.494   4.414   7.469  0.1296 -0.7288  0.5092
19450SOL    HW159513   4.508   4.431   7.376  1.1385  0.6705  0.8953
19450SOL    HW259514   4.402   4.388   7.475 -0.6047  1.4057 -0.6045
19451SOL     OW59515   5.846   3.952   4.640  0.3268  0.3599  0.7163
19451SOL    HW159516   5.776   3.887   4.637  0.9748 -0.3222 -0.7303
19451SOL    HW259517   5.857   3.980   4.549  2.8078 -0.5332  0.6790
19452SOL     OW59518   7.440   7.240   8.220  0.0948  0.4049  0.3997
19452SOL    HW159519   7.467   7.331   8.210 -2.0653  0.9083 -1.8170
19452SOL    HW259520   7.437   7.205   8.131 -2.1960 -0.8344  0.8762
19453SOL     OW59521   0.377   5.064   5.866  0.0223  0.5663 -0.3698
19453SOL    HW159522   0.405   5.092   5.953  1.2855 -0.0701 -0.5549
19453SOL    HW259523   0.282   5.056   5.873  0.2207 -0.7263  1.3370
19454SOL     OW59524   8.771   4.875   2.885 -0.5046  0.1588  0.3110
19454SOL    HW159525   8.852   4.867   2.835 -0.4705  0.1950  0.3612
19454SOL    HW259526   8.799   4.891   2.975 -0.5567 -0.3531  0.4248
19455SOL     OW59527   6.756   5.738   0.224 -0.3541 -0.4992 -0.5683
19455SOL    HW159528   6.787   5.792   0.151  0.4800 -0.7801 -0.4339
19455SOL    HW259529   6.816   5.759   0.296 -0.4491 -1.0965 -0.3092
19456SOL     OW59530   5.459   6.008   7.279 -0.3761  0.7992  0.2926
19456SOL    HW159531   5.532   5.952   7.305 -0.5371  0.3496 -0.1936
19456SOL    HW259532   5.429   5.971   7.196 -1.9733  0.1641  1.1035
19457SOL     OW59533   0.978   3.499   3.384 -0.3085 -0.6305 -0.7009
19457SOL    HW159534   0.897   3.512   3.336 -0.7430  0.1515  0.2191
19457SOL    HW259535   1.030   3.577   3.365 -0.2671 -0.5652 -0.3183
19458SOL     OW59536   6.842   2.496   1.008  0.0855  0.2419 -0.3034
19458SOL    HW159537   6.749   2.474   1.021 -0.2662 -0.1329 -2.8948
19458SOL    HW259538   6.889   2.420   1.043 -0.6793 -0.2241 -0.2482
19459SOL     OW59539   1.622   6.989   0.943  0.1031 -0.3930 -0.2983
19459SOL    HW159540   1.683   6.923   0.909 -0.8742 -0.4977 -2.0112
19459SOL    HW259541   1.663   7.021   1.023  1.2388 -2.1499 -0.1035
19460SOL     OW59542   4.386   3.562   4.528 -0.0276  0.2982  0.5123
19460SOL    HW159543   4.454   3.607   4.479  0.5074 -0.3888  0.6076
19460SOL    HW259544   4.387   3.603   4.615  0.0667  0.4880  0.4210
19461SOL     OW59545   2.223   0.618   7.099  0.1417 -0.0265 -0.3261
19461SOL    HW159546   2.226   0.699   7.150 -1.0662 -0.9219  1.2800
19461SOL    HW259547   2.301   0.622   7.044 -0.1345  2.4225 -0.6603
19462SOL     OW59548   1.431   1.926   3.277 -0.6053  0.5129 -0.1924
19462SOL    HW159549   1.434   2.018   3.304 -3.7623  0.1924  1.7569
19462SOL    HW259550   1.422   1.930   3.181  1.9758  2.0328 -0.4733
19463SOL     OW59551   8.523   5.411   1.769 -0.0564 -0.8979 -0.3802
19463SOL    HW159552   8.501   5.376   1.682 -2.4479 -1.4209  0.3498
19463SOL    HW259553   8.534   5.333   1.824  2.7364 -0.6218 -0.3899
19464SOL     OW59554   1.135   6.133   3.452  0.1828  0.2261 -0.0533
19464SOL    HW159555   1.127   6.053   3.400  0.8519  1.4751 -2.1632
19464SOL    HW259556   1.189   6.107   3.527 -1.3570 -1.7746  0.4640
19465SOL     OW59557   3.950   7.841   2.556  0.3786 -0.0386 -0.0908
19465SOL    HW159558   3.917   7.753   2.537  1.2355 -0.5867  0.8694
19465SOL    HW259559   4.045   7.830   2.563  0.3347  0.5892  1.8982
19466SOL     OW59560   0.278   5.573   8.198 -0.1182  0.0089 -0.1896
19466SOL    HW159561   0.227   5.592   8.119  2.0804 -1.0920 -1.9924
19466SOL    HW259562   0.365   5.607   8.178  0.4130 -0.0184  1.9280
19467SOL     OW59563   2.112   2.811   1.699  0.4218  0.2425  0.0633
19467SOL    HW159564   2.020   2.785   1.694  0.4992 -0.0466  0.1046
19467SOL    HW259565   2.128   2.860   1.619 -0.3094  2.0716  0.9797
19468SOL     OW59566   5.652   6.071   3.170  0.0086  0.3732  0.3218
19468SOL    HW159567   5.659   6.018   3.090  0.2327 -1.0446  1.2627
19468SOL    HW259568   5.594   6.022   3.227 -0.3372  1.4964  0.9644
19469SOL     OW59569   3.084   3.303   7.900  0.7689 -0.5786 -0.9036
19469SOL    HW159570   3.072   3.340   7.812  1.5994 -0.6082 -1.0342
19469SOL    HW259571   3.108   3.378   7.955 -0.5831 -0.4109 -0.5089
19470SOL     OW59572   3.171   4.374   0.364  0.8960  0.8611 -0.0267
19470SOL    HW159573   3.224   4.372   0.444 -0.1685 -0.3068  0.6808
19470SOL    HW259574   3.201   4.299   0.313  0.0777  0.2910  0.3034
19471SOL     OW59575   7.523   0.085   1.980  0.3227  0.4838  0.5048
19471SOL    HW159576   7.444   0.069   1.928  0.8218  1.4341 -0.5856
19471SOL    HW259577   7.510   0.172   2.017  0.5804  0.3747  0.8530
19472SOL     OW59578   8.000   6.824   6.012 -0.0694  0.2422 -0.4047
19472SOL    HW159579   8.006   6.749   5.953  1.5097 -0.2664  0.3260
19472SOL    HW259580   7.918   6.811   6.059  0.8418 -1.9476  0.7926
19473SOL     OW59581   2.737   3.007   7.581  0.3615 -0.0954 -0.2068
19473SOL    HW159582   2.786   2.927   7.561 -0.3153 -0.8953  1.1853
19473SOL    HW259583   2.651   2.975   7.610  0.7870  0.9775  2.5162
19474SOL     OW59584   3.207   0.822   8.008 -0.0240 -0.4399  0.0153
19474SOL    HW159585   3.243   0.780   8.087 -0.6232 -0.5395  0.2466
19474SOL    HW259586   3.208   0.915   8.028  1.3813 -0.3071 -0.5289
19475SOL     OW59587   0.840   6.151   4.961 -0.4043  0.0231  0.0882
19475SOL    HW159588   0.793   6.077   5.001 -0.8154  0.6955  0.8708
19475SOL    HW259589   0.832   6.222   5.025  0.3253  0.6294 -0.4829
19476SOL     OW59590   6.645   1.909   4.688  0.2386 -0.3490  0.2018
19476SOL    HW159591   6.700   1.956   4.751  0.4648 -0.2395 -0.0746
19476SOL    HW259592   6.703   1.890   4.614 -0.7321  2.3995 -1.4470
19477SOL     OW59593   6.139   6.029   3.179  0.3587  0.2128  0.7241
19477SOL    HW159594   6.079   6.070   3.242 -1.1746  0.1050 -0.5931
19477SOL    HW259595   6.210   6.092   3.169 -1.4386  2.1982 -0.4992
19478SOL     OW59596   3.879   0.782   2.432  0.0162  0.4655  0.0373
19478SOL    HW159597   3.848   0.872   2.443 -1.1810 -0.0162  0.8220
19478SOL    HW259598   3.973   0.787   2.447  0.1766  1.7746 -1.1629
19479SOL     OW59599   6.312   1.871   0.394 -0.1719  0.1341 -0.6821
19479SOL    HW159600   6.231   1.916   0.419  0.3999  0.4228  0.6867
19479SOL    HW259601   6.284   1.808   0.327 -1.6811 -0.3931  0.4071
19480SOL     OW59602   1.405   4.476   3.120  0.0229  0.3082  0.0328
19480SOL    HW159603   1.338   4.539   3.093  1.7196  2.9125  1.4458
19480SOL    HW259604   1.458   4.463   3.042 -0.9386 -0.2140 -0.5509
19481SOL     OW59605   5.694   2.956   7.925  0.5094 -0.0555  0.0829
19481SOL    HW159606   5.686   3.000   8.009 -1.3541 -1.0314  0.4906
19481SOL    HW259607   5.731   2.870   7.946 -1.7169 -1.0493  0.2692
19482SOL     OW59608   0.705   4.649   2.880 -0.3756  0.0352 -0.0611
19482SOL    HW159609   0.696   4.744   2.873 -2.5014 -0.0575  0.5348
19482SOL    HW259610   0.715   4.619   2.789  0.0828  0.8033 -0.2685
19483SOL     OW59611   2.016   4.147   6.507 -0.3089 -0.2610 -0.5719
19483SOL    HW159612   1.941   4.095   6.479 -0.2122 -0.3224 -0.7206
19483SOL    HW259613   1.990   4.184   6.591 -0.2422 -0.8348 -0.2958
19484SOL     OW59614   5.102   0.615   7.253  0.5838  0.7347 -0.1800
19484SOL    HW159615   5.098   0.541   7.313  0.7315  0.9034  0.0407
19484SOL    HW259616   5.010   0.637   7.236  0.5398  0.9503  0.3183
19485SOL     OW59617   3.437   6.481   2.758  0.1999 -0.2296  0.2046
19485SOL    HW159618   3.478   6.567   2.749  0.6803 -0.4473  0.2785
19485SOL    HW259619   3.374   6.477   2.686  0.4457  0.0300 -0.0263
19486SOL     OW59620   2.694   6.551   6.293  0.1187 -0.2209 -0.0131
19486SOL    HW159621   2.610   6.516   6.263  0.2506 -0.5801  0.0248
19486SOL    HW259622   2.756   6.479   6.277  0.3745 -0.0424  0.1738
19487SOL     OW59623   1.883   0.073   1.658 -0.2929  0.3228 -0.6157
19487SOL    HW159624   1.825  -0.002   1.653 -0.8399  0.5744  1.1436
19487SOL    HW259625   1.891   0.091   1.752  1.4802  1.1892 -0.8820
19488SOL     OW59626   8.628   1.809   4.668 -0.4795 -0.0498  0.0647
19488SOL    HW159627   8.723   1.801   4.678 -0.6411 -0.3473  1.6388
19488SOL    HW259628   8.613   1.903   4.659 -0.1203  0.0880  0.8664
19489SOL     OW59629   5.745   6.034   3.949  0.3356 -0.7425 -0.8418
19489SOL    HW159630   5.809   6.022   4.019 -0.4766  1.0585  0.3134
19489SOL    HW259631   5.791   6.009   3.869  2.3399  0.0355 -0.0059
19490SOL     OW59632   2.255   4.550   4.213  0.4954  0.5764  0.1152
19490SOL    HW159633   2.179   4.604   4.193 -0.1918  0.5959  2.4820
19490SOL    HW259634   2.220   4.461   4.219  1.1734  0.1843 -1.3361
19491SOL     OW59635   6.568   5.224   6.195 -0.2202  0.2733  0.5201
19491SOL    HW159636   6.538   5.190   6.279  0.1456 -0.3758  0.3952
19491SOL    HW259637   6.659   5.195   6.188 -0.5181 -0.4582 -0.4965
19492SOL     OW59638   5.903   1.393   2.788 -1.2218 -0.4158 -0.8311
19492SOL    HW159639   5.946   1.312   2.761 -1.2712 -0.4727 -0.7384
19492SOL    HW259640   5.975   1.456   2.797 -1.2275 -0.3336 -1.3174
19493SOL     OW59641   8.251   3.405   4.868 -0.0422 -0.0115  0.3724
19493SOL    HW159642   8.291   3.399   4.955  2.7989 -2.0758 -0.9215
19493SOL    HW259643   8.255   3.316   4.834 -1.1978  0.7137 -1.8358
19494SOL     OW59644   1.202   2.386   4.414 -0.3329  0.7368 -0.1263
19494SOL    HW159645   1.157   2.372   4.497  0.9748  0.6741  0.6014
19494SOL    HW259646   1.158   2.463   4.376 -1.9453 -0.1379 -0.1399
19495SOL     OW59647   2.898   0.261   6.377  0.7185  0.8810 -0.8079
19495SOL    HW159648   2.911   0.226   6.289 -0.6126 -1.1535 -0.2717
19495SOL    HW259649   2.944   0.200   6.434 -0.8791  0.4691  0.1067
19496SOL     OW59650   7.956   7.488   0.357 -0.4122 -0.2567  0.8144
19496SOL    HW159651   7.920   7.400   0.368  1.0918 -1.3137 -1.8431
19496SOL    HW259652   8.051   7.476   0.361 -0.1520  1.0973 -0.3198
19497SOL     OW59653   7.959   1.122   8.709  0.1469  0.0980 -0.2490
19497SOL    HW159654   7.985   1.140   8.799 -0.4925 -0.8815  0.1461
19497SOL    HW259655   7.883   1.178   8.694  0.0744  0.0406 -0.0879
19498SOL     OW59656   5.124   5.495   3.024 -0.0199  0.4590 -0.4164
19498SOL    HW159657   5.192   5.535   3.079  1.4471 -1.9284 -0.3494
19498SOL    HW259658   5.155   5.406   3.009  0.0310  1.0437 -5.6360
19499SOL     OW59659   1.668   2.162   6.449 -0.2327  0.2398  0.3081
19499SOL    HW159660   1.689   2.217   6.373 -1.4693 -0.4984 -0.6152
19499SOL    HW259661   1.675   2.221   6.524  1.6627  0.8330 -0.2795
19500SOL     OW59662   7.946   7.751   0.383  0.0613 -0.2787 -0.1856
19500SOL    HW159663   7.924   7.790   0.298 -0.6652 -0.0817  0.0825
19500SOL    HW259664   7.961   7.658   0.364 -2.1024 -0.6795 -0.2556
19501SOL     OW59665   7.090   4.309   6.044 -0.7836 -0.4818  0.0025
19501SOL    HW159666   7.078   4.232   5.989  1.1442  0.4939 -1.9386
19501SOL    HW259667   7.088   4.383   5.983  1.2767  0.6651  1.1908
19502SOL     OW59668   0.355   0.397   2.030  0.5846 -0.2349 -0.2880
19502SOL    HW159669   0.336   0.458   2.102  0.6152 -1.6676  0.9900
19502SOL    HW259670   0.399   0.451   1.964  0.2095  1.2131  0.5890
19503SOL     OW59671   5.903   0.890   3.147  0.3569 -0.2471  0.0252
19503SOL    HW159672   5.902   0.984   3.167 -0.1958 -0.5926  1.7887
19503SOL    HW259673   5.899   0.886   3.051  0.7719  1.5227 -0.0982
19504SOL     OW59674   1.598   1.723   8.811 -0.1731 -0.5865  0.1830
19504SOL    HW159675   1.565   1.638   8.839  0.1639 -1.0728 -0.8720
19504SOL    HW259676   1.693   1.714   8.811 -0.0735  0.2101  1.3237
19505SOL     OW59677   8.558   5.417   5.324 -0.2695 -0.0723  0.0803
19505SOL    HW159678   8.567   5.360   5.247  1.0864 -1.0627  0.9359
19505SOL    HW259679   8.646   5.453   5.337 -0.9970  1.9345 -0.1751
19506SOL     OW59680   4.135   4.704   7.622  0.5055  0.4245 -0.1288
19506SOL    HW159681   4.214   4.677   7.576  0.3465  1.3243 -0.9608
19506SOL    HW259682   4.076   4.629   7.615  0.7702  0.2696 -0.7496
19507SOL     OW59683   3.008   7.171   7.432  0.4389 -0.2613  0.0177
19507SOL    HW159684   3.054   7.255   7.435  0.1315 -0.0799 -0.2293
19507SOL    HW259685   3.006   7.142   7.523 -1.7289  1.2647  0.5503
19508SOL     OW59686   6.263   1.512   6.710 -0.5246  0.1805 -0.4206
19508SOL    HW159687   6.352   1.533   6.682  0.6218 -3.3086  0.0303
19508SOL    HW259688   6.273   1.479   6.799 -2.3640  0.1412 -0.1797
19509SOL     OW59689   7.419   5.363   5.514  0.2711 -0.0069 -0.7265
19509SOL    HW159690   7.328   5.332   5.507  0.1476  0.1981 -0.0686
19509SOL    HW259691   7.472   5.286   5.491 -0.0451 -0.5064  0.1615
19510SOL     OW59692   4.821   2.791   1.433 -0.3924 -0.3491  0.1357
19510SOL    HW159693   4.763   2.810   1.360  0.6630  0.7052 -0.4564
19510SOL    HW259694   4.908   2.785   1.395  0.1146 -0.2814  1.2275
19511SOL     OW59695   2.119   8.716   1.403 -0.0647 -0.0748  0.0334
19511SOL    HW159696   2.097   8.702   1.311 -0.5428 -1.4496  0.3363
19511SOL    HW259697   2.100   8.633   1.445  0.1051  0.5518  1.3980
19512SOL     OW59698   4.969   2.746   0.046  0.1991 -0.1072  0.3946
19512SOL    HW159699   4.920   2.665   0.055 -0.3199  0.3735  2.3905
19512SOL    HW259700   5.051   2.730   0.091  0.8216 -0.0446 -0.6702
19513SOL     OW59701   3.942   2.601   6.294  0.3201 -0.0110 -0.2491
19513SOL    HW159702   3.910   2.594   6.384 -0.2994 -0.3028 -0.4822
19513SOL    HW259703   3.896   2.531   6.247  1.6319 -0.7254 -0.5199
19514SOL     OW59704   0.767   6.397   0.045  0.1760 -0.1141 -0.3367
19514SOL    HW159705   0.709   6.361  -0.022 -0.7191  0.4569  0.1113
19514SOL    HW259706   0.713   6.460   0.093  1.4183  1.1453 -0.5012
19515SOL     OW59707   2.998   3.046   6.679  0.0651 -0.3817  0.0080
19515SOL    HW159708   2.905   3.034   6.658  0.0706 -1.5225  0.5508
19515SOL    HW259709   3.035   2.958   6.674  0.9795 -0.0287  0.4142
19516SOL     OW59710   5.489   0.649   7.880  0.4124 -0.2384  0.4226
19516SOL    HW159711   5.561   0.637   7.818  0.6810 -0.8327  0.8408
19516SOL    HW259712   5.436   0.570   7.871  1.8279 -1.5721  2.7202
19517SOL     OW59713   5.703   8.250   6.765 -0.2974 -0.1456 -0.0406
19517SOL    HW159714   5.676   8.183   6.829 -0.5040  0.1840  0.2224
19517SOL    HW259715   5.687   8.209   6.680 -1.2792 -0.1110  0.1122
19518SOL     OW59716   5.251   2.643   1.862  0.6307 -0.5302  0.3681
19518SOL    HW159717   5.187   2.675   1.798  1.0444 -1.3358 -0.4538
19518SOL    HW259718   5.262   2.717   1.923  0.6579  0.4563 -0.8046
19519SOL     OW59719   2.683   5.037   6.149  0.2025 -0.0187 -0.0624
19519SOL    HW159720   2.632   5.017   6.070  0.6304 -3.4915  0.3676
19519SOL    HW259721   2.770   5.060   6.116 -0.2742  1.0027 -0.6462
19520SOL     OW59722   0.416   7.068   4.500  0.1377 -0.2444 -0.1987
19520SOL    HW159723   0.470   7.017   4.561 -0.1829  1.4086  1.5864
19520SOL    HW259724   0.478   7.129   4.459 -0.0970  0.7712  0.8846
19521SOL     OW59725   2.250   7.042   1.594 -0.5233 -0.0461  0.8462
19521SOL    HW159726   2.243   7.042   1.499 -0.6746  2.1401  0.7955
19521SOL    HW259727   2.327   6.989   1.613 -0.5350 -0.5598 -0.4724
19522SOL     OW59728   4.929   4.551   1.768  0.2275 -0.8361 -0.1693
19522SOL    HW159729   4.864   4.620   1.757  0.2401 -1.0046 -1.4824
19522SOL    HW259730   4.998   4.591   1.822  0.1760  0.1383 -0.8062
19523SOL     OW59731   7.498   7.555   5.718 -0.7245 -0.0410 -0.0516
19523SOL    HW159732   7.445   7.588   5.645  0.4862  1.0130 -0.5101
19523SOL    HW259733   7.479   7.614   5.791  0.4713  0.9615 -0.4975
19524SOL     OW59734   3.274   3.663   8.698 -0.1041 -0.2217  0.2999
19524SOL    HW159735   3.363   3.698   8.703 -0.3093  0.8585 -2.1615
19524SOL    HW259736   3.240   3.671   8.787  2.2372 -0.6681  1.3014
19525SOL     OW59737   3.666   6.151   1.545  0.1133  0.6282 -0.3875
19525SOL    HW159738   3.627   6.066   1.525  0.3272  0.0379  1.4385
19525SOL    HW259739   3.641   6.167   1.636  0.9973  2.0100 -0.3606
19526SOL     OW59740   2.604   5.018   4.476 -0.0375 -0.3749 -0.1638
19526SOL    HW159741   2.654   5.097   4.456 -0.3648  0.2447  1.3295
19526SOL    HW259742   2.567   5.034   4.563 -0.7039 -1.8792 -0.1336
19527SOL     OW59743   2.519   3.802   8.126  0.3363 -0.1195  0.0548
19527SOL    HW159744   2.455   3.853   8.076 -1.5385 -0.6965  1.7335
19527SOL    HW259745   2.604   3.828   8.090 -0.5612  3.3984  0.1104
19528SOL     OW59746   4.107   6.586   5.072  0.2279  0.6579 -0.1631
19528SOL    HW159747   4.202   6.575   5.067  0.2112  0.1586  0.5235
19528SOL    HW259748   4.075   6.559   4.986  0.7268  1.0543 -0.4739
19529SOL     OW59749   5.757   4.956   1.251  0.5853  0.3410 -0.1582
19529SOL    HW159750   5.745   4.962   1.156  1.6449  0.6128 -0.2897
19529SOL    HW259751   5.739   5.045   1.282  2.1884  0.7695 -0.3650
19530SOL     OW59752   8.311   3.872   6.735  0.5788  0.2155 -0.5019
19530SOL    HW159753   8.266   3.948   6.771  0.1039  0.1110 -0.8629
19530SOL    HW259754   8.260   3.797   6.764  2.1333 -0.1629  1.5298
19531SOL     OW59755   7.086   7.470   0.676 -0.3583 -0.3843  0.1073
19531SOL    HW159756   7.133   7.506   0.752 -1.8477 -0.7351  1.2398
19531SOL    HW259757   7.150   7.412   0.634  1.3563  1.7479 -0.4636
19532SOL     OW59758   0.718   4.906   7.653  0.0290 -0.4614  0.1182
19532SOL    HW159759   0.666   4.902   7.734  0.2433  0.2073  0.2919
19532SOL    HW259760   0.785   4.839   7.666 -1.8822 -2.7244 -0.9196
19533SOL     OW59761   1.711   8.537   1.977 -0.1371 -0.0741  0.6523
19533SOL    HW159762   1.729   8.452   2.016  0.3017 -0.2435  0.0977
19533SOL    HW259763   1.798   8.573   1.957 -0.3378  0.2266  0.3075
19534SOL     OW59764   3.790   0.556   7.158 -0.4226 -0.4764  0.5910
19534SOL    HW159765   3.724   0.555   7.228  1.5584 -0.6126  2.5793
19534SOL    HW259766   3.781   0.471   7.115 -1.6699 -0.3991  0.6586
19535SOL     OW59767   1.312   0.808   7.411 -0.0259 -0.4073  0.5645
19535SOL    HW159768   1.364   0.887   7.424 -0.5307  0.0332 -0.0360
19535SOL    HW259769   1.322   0.788   7.318  0.9416 -1.6568  0.9201
19536SOL     OW59770   7.861   6.907   1.018 -0.2108 -0.2060  0.3761
19536SOL    HW159771   7.887   6.852   1.093 -0.7085  1.8342  2.1324
19536SOL    HW259772   7.936   6.964   1.003 -1.0638  1.1758  1.1067
19537SOL     OW59773   3.745   1.605   3.107 -0.4656 -0.0732  0.2283
19537SOL    HW159774   3.716   1.670   3.043 -0.0213 -0.0184  0.0779
19537SOL    HW259775   3.669   1.590   3.162 -0.2540  1.4205  0.9647
19538SOL     OW59776   5.282   5.098   1.273  0.1600  0.2740 -0.0621
19538SOL    HW159777   5.337   5.038   1.324  3.2065  2.2614 -0.7358
19538SOL    HW259778   5.327   5.106   1.189 -1.3812  1.7539 -0.8079
19539SOL     OW59779   1.210   7.918   4.301  0.3507 -0.0837  0.0760
19539SOL    HW159780   1.114   7.923   4.297  0.4015  0.2927 -0.9634
19539SOL    HW259781   1.228   7.863   4.378 -0.6757  0.5029  0.7583
19540SOL     OW59782   5.279   5.822   8.624 -0.3240  0.1861 -0.0529
19540SOL    HW159783   5.295   5.916   8.618  1.9433 -0.0726  0.9132
19540SOL    HW259784   5.220   5.813   8.698  0.3942  0.7869  0.6120
19541SOL     OW59785   5.987   7.887   0.982 -0.0642  0.5504  0.4453
19541SOL    HW159786   5.974   7.965   1.035 -0.5272 -0.3114  1.6634
19541SOL    HW259787   6.082   7.881   0.971  0.0353  0.8064  1.1067
19542SOL     OW59788   2.850   3.874   6.043 -0.1110 -0.2057  0.5498
19542SOL    HW159789   2.938   3.879   6.081 -0.5962 -0.6433  1.7928
19542SOL    HW259790   2.821   3.965   6.037  0.6374 -0.0140 -0.4345
19543SOL     OW59791   6.400   7.080   7.866 -0.4807 -0.3542  1.0036
19543SOL    HW159792   6.466   7.021   7.903  1.9708  0.3477 -1.8515
19543SOL    HW259793   6.374   7.038   7.784 -0.6045  1.2624  0.1810
19544SOL     OW59794   1.755   3.660   3.864  0.7020 -0.2906  0.5780
19544SOL    HW159795   1.818   3.731   3.868 -0.3404  0.6594  0.6804
19544SOL    HW259796   1.683   3.694   3.810  0.4728 -1.5070  0.0758
19545SOL     OW59797   2.424   4.802   3.939 -0.4184  0.3012  0.1439
19545SOL    HW159798   2.422   4.786   4.033 -0.7076 -0.5827  0.0013
19545SOL    HW259799   2.413   4.715   3.900 -5.4397  1.0369 -0.7672
19546SOL     OW59800   8.741   1.363   8.814  0.3190  0.3902  0.0080
19546SOL    HW159801   8.690   1.348   8.894 -0.0647  2.8536  0.3134
19546SOL    HW259802   8.675   1.378   8.746  0.6471 -1.3676 -0.7493
19547SOL     OW59803   4.621   4.145   4.925  0.1323 -0.0122  0.6062
19547SOL    HW159804   4.573   4.063   4.913  1.2639 -0.6656  0.3327
19547SOL    HW259805   4.638   4.149   5.019 -0.6986  0.3697  0.7437
19548SOL     OW59806   2.744   5.295   0.395 -0.3587 -0.2788  0.4936
19548SOL    HW159807   2.837   5.276   0.410 -0.0773  0.0635 -0.7336
19548SOL    HW259808   2.706   5.212   0.368 -0.0801 -0.0987 -0.4788
19549SOL     OW59809   8.746   6.186   2.587 -0.1514  0.6382  0.0513
19549SOL    HW159810   8.656   6.219   2.577 -0.4557 -0.7621 -2.9923
19549SOL    HW259811   8.753   6.116   2.521  2.8727  0.0112  0.8982
19550SOL     OW59812   1.084   0.849   3.081  0.2076 -0.1321 -0.5231
19550SOL    HW159813   1.025   0.775   3.070 -2.0106  1.6198 -1.2466
19550SOL    HW259814   1.090   0.861   3.176  1.6329 -1.9432 -0.3347
19551SOL     OW59815   5.936   4.457   7.272  0.0185  0.1588 -0.0418
19551SOL    HW159816   5.860   4.511   7.293 -0.0687  0.1992 -0.4410
19551SOL    HW259817   5.997   4.517   7.229 -0.4367 -0.2308 -1.2713
19552SOL     OW59818   8.848   7.472   0.878 -0.2459  0.0292  0.4122
19552SOL    HW159819   8.791   7.465   0.954 -0.2702 -0.4937  0.3536
19552SOL    HW259820   8.793   7.446   0.804 -0.5794  1.7333  0.0311
19553SOL     OW59821   0.712   3.809   1.033 -0.1672 -0.3450  0.2090
19553SOL    HW159822   0.718   3.752   0.956 -1.6842  0.8215 -0.8273
19553SOL    HW259823   0.624   3.846   1.028  0.4551  1.3710  1.3625
19554SOL     OW59824   8.175   3.102   4.124 -0.7669  0.2181  0.1251
19554SOL    HW159825   8.089   3.066   4.101 -0.2858 -0.5315 -0.5413
19554SOL    HW259826   8.199   3.056   4.204 -0.5398 -0.3281 -0.2507
19555SOL     OW59827   3.634   5.264   6.785 -0.1144  0.6789 -0.5950
19555SOL    HW159828   3.717   5.313   6.786  0.8790 -0.9244 -0.9287
19555SOL    HW259829   3.652   5.188   6.731 -1.4532 -0.3236  0.3098
19556SOL     OW59830   2.590   1.665   3.148 -0.2996 -0.1158 -0.1288
19556SOL    HW159831   2.604   1.630   3.236  1.0937  0.0655 -0.2577
19556SOL    HW259832   2.675   1.655   3.104 -1.3858 -1.7486 -2.0178
19557SOL     OW59833   0.974   8.771   2.680  0.0721  0.4081  0.1144
19557SOL    HW159834   0.982   8.806   2.769  1.6104  1.3575 -0.3549
19557SOL    HW259835   1.059   8.731   2.662 -1.1399 -2.3975  0.0741
19558SOL     OW59836   8.282   4.779   2.035  0.0376  0.5057 -0.4946
19558SOL    HW159837   8.378   4.776   2.030  0.1238  1.4772  0.2421
19558SOL    HW259838   8.254   4.804   1.947  0.4399 -0.0903 -0.7976
19559SOL     OW59839   0.768   1.338   4.713  0.0348  0.0527  0.0039
19559SOL    HW159840   0.726   1.264   4.671  0.4258 -0.7925  1.0300
19559SOL    HW259841   0.697   1.387   4.754 -0.0494 -1.1971  1.4718
19560SOL     OW59842   7.616   6.272   7.509 -0.3096  0.9263 -0.2049
19560SOL    HW159843   7.603   6.187   7.468  0.6900 -0.2987  1.8671
19560SOL    HW259844   7.528   6.307   7.522 -1.1197 -1.8066  2.8506
19561SOL     OW59845   7.295   7.557   3.139  0.3522  0.9474 -0.3745
19561SOL    HW159846   7.214   7.595   3.105 -1.4085 -1.1259  1.1828
19561SOL    HW259847   7.323   7.616   3.208  0.5700  2.0296 -1.3689
19562SOL     OW59848   2.353   4.556   3.774  0.3080 -0.0871  0.2485
19562SOL    HW159849   2.341   4.468   3.809 -0.0807 -1.0695 -2.1729
19562SOL    HW259850   2.431   4.550   3.719 -0.2104  0.8645 -0.6245
19563SOL     OW59851   8.185   8.761   5.756  0.0908  1.2002 -0.3196
19563SOL    HW159852   8.208   8.847   5.791 -2.0768  1.9826 -0.6356
19563SOL    HW259853   8.119   8.780   5.689 -0.9582 -0.7518  0.0809
19564SOL     OW59854   3.104   6.799   6.361  0.1271  0.9666  0.2342
19564SOL    HW159855   3.134   6.786   6.272 -3.1988 -0.5785 -0.8320
19564SOL    HW259856   3.094   6.894   6.370  3.6270  1.4587  0.2543
19565SOL     OW59857   0.151   3.205   0.514 -0.7434  0.3158  0.0850
19565SOL    HW159858   0.134   3.112   0.499  2.1011 -0.1065 -1.1759
19565SOL    HW259859   0.151   3.244   0.426 -0.4520  1.2385  0.4815
19566SOL     OW59860   7.498   4.265   5.448  0.2032  0.0172  0.2434
19566SOL    HW159861   7.556   4.229   5.515 -0.1063  0.5667  0.8045
19566SOL    HW259862   7.419   4.211   5.453  1.0723 -1.5492 -1.3497
19567SOL     OW59863   4.872   6.354   1.375  0.5834  0.2254 -0.1642
19567SOL    HW159864   4.837   6.391   1.457  1.9562  1.3682 -0.0516
19567SOL    HW259865   4.795   6.343   1.319 -0.2827  0.1611  1.0048
19568SOL     OW59866   3.011   3.583   3.627  0.2211  0.3710  0.3049
19568SOL    HW159867   3.093   3.563   3.672  0.3470 -1.3369 -0.5946
19568SOL    HW259868   3.036   3.644   3.557  0.7366 -0.1440  0.0326
19569SOL     OW59869   3.189   4.221   5.331  0.3161  0.4341  0.2440
19569SOL    HW159870   3.101   4.237   5.298  0.6286  2.1824  0.1093
19569SOL    HW259871   3.177   4.201   5.423 -0.3027 -0.6447 -0.0603
19570SOL     OW59872   1.614   2.346   6.644 -0.3712 -0.2355 -0.1235
19570SOL    HW159873   1.555   2.358   6.718 -0.1012 -1.1802  0.2686
19570SOL    HW259874   1.624   2.433   6.606 -0.7444  0.2103  0.7764
19571SOL     OW59875   2.693   3.459   1.115  0.3558  0.0747  0.4939
19571SOL    HW159876   2.758   3.504   1.168  0.6646 -0.9790  1.0466
19571SOL    HW259877   2.646   3.529   1.069  1.9610  0.8470 -0.0327
19572SOL     OW59878   2.187   4.413   5.073 -0.2238  0.2345 -0.3442
19572SOL    HW159879   2.242   4.474   5.122  0.4004 -1.0566  0.6252
19572SOL    HW259880   2.228   4.409   4.986  0.2423  0.5227 -0.1393
19573SOL     OW59881   7.443   3.230   5.082 -0.0030 -0.3984  0.1172
19573SOL    HW159882   7.480   3.193   5.162 -0.0386 -0.7280 -0.0179
19573SOL    HW259883   7.357   3.264   5.108  0.3640  0.3283  0.4225
19574SOL     OW59884   7.727   5.851   1.893  0.2023  0.2464 -0.0594
19574SOL    HW159885   7.683   5.921   1.941 -1.3738 -0.0028 -1.0988
19574SOL    HW259886   7.821   5.870   1.904 -0.0633  0.0666  3.2432
19575SOL     OW59887   0.347   4.412   8.493 -0.3976 -0.4676 -0.5931
19575SOL    HW159888   0.382   4.468   8.424 -0.6282  2.5250  1.5313
19575SOL    HW259889   0.362   4.461   8.574 -1.8311 -2.9344  1.3099
19576SOL     OW59890   0.048   6.060   6.192  0.2907 -0.2966 -0.1411
19576SOL    HW159891   0.041   5.966   6.210 -2.3983 -0.4615 -1.5401
19576SOL    HW259892   0.006   6.102   6.267  1.1801 -0.2189  0.3191
19577SOL     OW59893   4.560   5.561   6.157  0.4072 -0.2347 -0.2134
19577SOL    HW159894   4.468   5.541   6.141  0.2527  0.9269 -0.8876
19577SOL    HW259895   4.602   5.553   6.071  1.0325 -1.1775  0.1632
19578SOL     OW59896   2.669   5.967   4.428  1.2692 -0.2298  0.6190
19578SOL    HW159897   2.690   5.873   4.435  1.5676 -0.1553  0.7775
19578SOL    HW259898   2.674   5.999   4.518  0.3838 -0.2200  0.6666
19579SOL     OW59899   6.785   1.758   7.670 -0.3611  0.4895  0.0952
19579SOL    HW159900   6.825   1.699   7.734 -0.9209 -0.2727 -0.2454
19579SOL    HW259901   6.749   1.829   7.722  2.3129  1.7973  0.3618
19580SOL     OW59902   1.597   7.850   2.233 -0.0513  0.3822 -0.5437
19580SOL    HW159903   1.530   7.786   2.212  0.7495 -0.9411  0.7791
19580SOL    HW259904   1.679   7.812   2.201  0.4332  0.7352  0.2336
19581SOL     OW59905   6.826   2.705   1.585  0.1785 -0.8196  0.5065
19581SOL    HW159906   6.853   2.662   1.504 -0.3299  1.0386 -0.7273
19581SOL    HW259907   6.751   2.655   1.615 -0.6020 -0.6464 -1.0561
19582SOL     OW59908   7.310   8.147   5.297  0.1139  0.0144 -0.1557
19582SOL    HW159909   7.316   8.073   5.237  0.4216  0.3718 -0.5788
19582SOL    HW259910   7.399   8.161   5.328 -0.0059 -0.0235  0.2038
19583SOL     OW59911   3.668   3.301   8.014 -0.1789  0.1179 -0.4947
19583SOL    HW159912   3.709   3.354   7.945 -1.9370  1.6732 -0.4145
19583SOL    HW259913   3.742   3.257   8.057  1.0818  0.2526 -2.4094
19584SOL     OW59914   1.951   0.870   1.248 -0.1767  0.4700  1.0805
19584SOL    HW159915   2.045   0.853   1.246  0.0762  1.7712  1.3823
19584SOL    HW259916   1.935   0.926   1.172 -1.2327 -2.0743 -0.7295
19585SOL     OW59917   0.406   4.844   4.490 -0.0584 -0.2770 -0.6416
19585SOL    HW159918   0.469   4.827   4.560 -0.0799 -2.4796 -1.0935
19585SOL    HW259919   0.453   4.899   4.428 -0.5803  3.2642  1.8079
19586SOL     OW59920   1.442   6.085   4.593 -0.3019  0.3364 -0.5254
19586SOL    HW159921   1.450   6.180   4.592  0.8566  0.2498 -0.3158
19586SOL    HW259922   1.350   6.069   4.569 -0.7083  1.5181  0.1474
19587SOL     OW59923   1.144   0.602   1.351 -0.2000 -0.3270  0.5602
19587SOL    HW159924   1.152   0.606   1.255  0.7487 -0.6158  0.6195
19587SOL    HW259925   1.167   0.512   1.373  0.6918  0.0400  1.1603
19588SOL     OW59926   4.292   4.795   3.796 -0.4511 -0.5047  0.3289
19588SOL    HW159927   4.288   4.868   3.858  0.9407  0.2716 -0.4321
19588SOL    HW259928   4.269   4.834   3.711 -1.9782 -1.4709  0.2583
19589SOL     OW59929   0.443   4.442   6.902 -0.1976 -0.2154  0.1188
19589SOL    HW159930   0.491   4.366   6.936 -0.4398 -0.1242  0.6746
19589SOL    HW259931   0.473   4.515   6.955 -1.4355 -0.2670  0.9403
19590SOL     OW59932   2.768   7.440   4.909  0.3604 -0.2833  0.2768
19590SOL    HW159933   2.769   7.526   4.867  1.3498 -0.6642 -0.5213
19590SOL    HW259934   2.801   7.455   4.997 -0.3007  0.2911  0.4308
19591SOL     OW59935   7.885   3.644   0.921 -0.6926 -0.7347  0.2376
19591SOL    HW159936   7.836   3.603   0.992 -0.8771 -0.5298  0.2292
19591SOL    HW259937   7.826   3.711   0.887 -0.5176 -0.6805  0.0384
19592SOL     OW59938   8.771   5.562   4.046  0.4723 -0.4583 -0.3296
19592SOL    HW159939   8.733   5.494   4.102 -1.2805  0.5367 -0.2233
19592SOL    HW259940   8.767   5.642   4.100 -2.2720  0.7630 -2.1235
19593SOL     OW59941   0.993   0.236   7.645  0.1856  0.0561  0.2393
19593SOL    HW159942   1.028   0.309   7.595 -0.2971  0.9205  1.1399
19593SOL    HW259943   1.055   0.224   7.718 -0.4061  0.4064  0.8091
19594SOL     OW59944   5.110   7.773   8.635 -0.2388 -0.4436  0.7910
19594SOL    HW159945   5.062   7.691   8.619 -0.4264 -0.1719 -0.0998
19594SOL    HW259946   5.193   7.761   8.590  0.0749 -0.4660  1.3732
19595SOL     OW59947   8.243   8.529   5.143 -0.1727 -0.1121 -0.0567
19595SOL    HW159948   8.184   8.579   5.087  0.0642  1.8097  1.2962
19595SOL    HW259949   8.329   8.567   5.127  0.1518 -0.6112  0.4514
19596SOL     OW59950   2.006   1.437   3.257  0.6074  0.1413  0.7323
19596SOL    HW159951   1.986   1.365   3.197  0.3357 -1.3808  2.5632
19596SOL    HW259952   2.019   1.513   3.199  0.2106 -1.1903 -1.2200
19597SOL     OW59953   0.337   4.594   3.125 -0.5119 -0.2763 -0.1576
19597SOL    HW159954   0.344   4.652   3.049 -0.6583  0.1116  0.1243
19597SOL    HW259955   0.272   4.528   3.098 -2.2023  1.0746  0.3856
19598SOL     OW59956   8.072   6.877   0.792  1.1791  0.3795 -0.3244
19598SOL    HW159957   7.981   6.855   0.811  1.9872 -1.7140  1.6412
19598SOL    HW259958   8.067   6.949   0.729 -1.7979  0.7531  0.1937
19599SOL     OW59959   5.459   1.750   0.947  0.1658  0.0622 -0.7580
19599SOL    HW159960   5.404   1.704   0.883 -0.0159  0.8833 -1.2069
19599SOL    HW259961   5.535   1.779   0.897 -0.8626  2.3721 -1.0867
19600SOL     OW59962   6.417   0.205   5.468  0.0169 -0.2201 -0.4120
19600SOL    HW159963   6.417   0.282   5.412  2.3835 -0.5379 -0.9445
19600SOL    HW259964   6.419   0.131   5.407 -1.3749 -0.7246  0.1002
19601SOL     OW59965   0.308   8.395   7.425 -0.0090 -0.1986  0.2024
19601SOL    HW159966   0.286   8.333   7.356  0.4271 -0.5984  0.4229
19601SOL    HW259967   0.228   8.446   7.436 -0.0315 -0.0117 -0.7145
19602SOL     OW59968   8.847   8.100   7.861  0.3900 -0.5615 -0.1835
19602SOL    HW159969   8.906   8.149   7.804 -2.4703  2.7790 -0.5698
19602SOL    HW259970   8.806   8.035   7.803 -0.5672  1.0475 -1.3749
19603SOL     OW59971   5.278   5.668   3.512 -0.2311  0.4022  0.5524
19603SOL    HW159972   5.238   5.754   3.499  2.7932  1.8827  0.0945
19603SOL    HW259973   5.354   5.686   3.568 -0.4117 -2.2925  1.8097
19604SOL     OW59974   1.698   0.430   6.434 -0.0267 -0.0894  0.0011
19604SOL    HW159975   1.757   0.359   6.406 -1.1263 -0.9935 -0.0955
19604SOL    HW259976   1.611   0.392   6.427 -0.8198  1.8571 -1.8224
19605SOL     OW59977   4.934   1.390   8.503  0.2073 -0.0198  0.4913
19605SOL    HW159978   4.940   1.479   8.537 -2.2118  0.6023 -0.4878
19605SOL    HW259979   4.843   1.364   8.521 -0.0070 -1.1330 -1.9032
19606SOL     OW59980   8.463   4.022   1.636 -0.4732  0.2376  0.0376
19606SOL    HW159981   8.416   4.104   1.620 -1.2340 -0.1853  0.0781
19606SOL    HW259982   8.541   4.029   1.581 -0.6958  0.8456 -0.2177
19607SOL     OW59983   4.277   4.522   4.649 -0.0931 -0.0642  0.2793
19607SOL    HW159984   4.230   4.594   4.691  0.9540  1.2910 -0.7642
19607SOL    HW259985   4.349   4.502   4.709 -0.4307 -0.2952  0.6087
19608SOL     OW59986   1.178   2.522   1.122  0.2596  0.0252 -0.7618
19608SOL    HW159987   1.114   2.580   1.079 -0.5550  0.8785  1.4494
19608SOL    HW259988   1.202   2.459   1.055 -1.0876  1.1501 -2.3884
19609SOL     OW59989   7.874   5.076   3.070  0.0686  0.5187  0.2262
19609SOL    HW159990   7.898   5.152   3.018 -1.1077  0.5342 -0.3274
19609SOL    HW259991   7.823   5.112   3.143 -1.4677  0.2138 -0.6411
19610SOL     OW59992   4.986   3.241   2.787  0.1524 -0.4268  0.1920
19610SOL    HW159993   5.007   3.246   2.694 -0.3057  0.6793  0.1379
19610SOL    HW259994   5.070   3.254   2.832 -0.1243  2.8491 -0.0363
19611SOL     OW59995   5.817   0.392   6.485  0.2709  0.2701  1.1123
19611SOL    HW159996   5.908   0.394   6.454  0.0755  3.2890  0.3394
19611SOL    HW259997   5.823   0.383   6.580  1.3589 -0.2206  1.0003
19612SOL     OW59998   7.637   5.262   0.497 -0.1432 -0.8248  0.2690
19612SOL    HW159999   7.577   5.337   0.504 -0.5780 -1.1672  0.2521
19612SOL    HW260000   7.627   5.231   0.407 -1.5537 -2.1997  0.8618
19613SOL     OW60001   3.894   4.347   7.899  0.2333  0.4875  0.4091
19613SOL    HW160002   3.941   4.301   7.969  0.0556 -0.7491 -0.2465
19613SOL    HW260003   3.802   4.343   7.926  0.1029 -0.4551 -0.1159
19614SOL     OW60004   0.433   8.611   0.923 -0.4227  0.2363  0.0156
19614SOL    HW160005   0.502   8.678   0.923 -0.8102  0.6440 -0.6248
19614SOL    HW260006   0.444   8.566   0.839 -2.1409  1.5890 -1.0105
19615SOL     OW60007   3.976   7.606   3.422  0.0404  0.2987  0.5234
19615SOL    HW160008   3.961   7.649   3.338 -0.1954 -0.4713  0.1582
19615SOL    HW260009   3.902   7.545   3.431  0.2063  0.1848  1.1624
19616SOL     OW60010   8.282   0.104   2.774  0.2976  0.0374 -0.4301
19616SOL    HW160011   8.267   0.021   2.820 -0.1244  1.3826  2.0596
19616SOL    HW260012   8.198   0.126   2.735 -0.2348  0.3392  0.8278
19617SOL     OW60013   2.850   7.909   0.757 -0.2506  0.1131  0.0022
19617SOL    HW160014   2.905   7.832   0.775  1.1974  0.8954 -0.8182
19617SOL    HW260015   2.775   7.874   0.710  0.4805 -0.8034 -0.5366
19618SOL     OW60016   5.441   0.410   3.600 -0.4455 -0.2844  0.2135
19618SOL    HW160017   5.444   0.318   3.624 -2.8350 -0.5420 -0.2870
19618SOL    HW260018   5.462   0.412   3.507  0.4459 -0.1987  0.4042
19619SOL     OW60019   2.098   3.633   0.980 -0.1880 -0.0227  0.2917
19619SOL    HW160020   2.152   3.694   1.030 -1.9673  1.4949  0.4641
19619SOL    HW260021   2.015   3.679   0.968 -0.3600 -0.9030 -2.7781
19620SOL     OW60022   7.566   2.888   6.717  0.4683  0.5329 -0.2744
19620SOL    HW160023   7.569   2.792   6.724 -0.1978  0.4881 -0.5102
19620SOL    HW260024   7.636   2.910   6.655  1.1273  0.2691  0.3607
19621SOL     OW60025   1.502   0.748   0.070 -0.1286  1.0808  0.2494
19621SOL    HW160026   1.451   0.753   0.151  0.9134 -0.8500  1.0923
19621SOL    HW260027   1.447   0.696   0.011  0.0299  0.6183  0.5007
19622SOL     OW60028   8.660   8.584   7.570  0.0940  0.1982 -0.1956
19622SOL    HW160029   8.610   8.573   7.489 -0.7989  0.2205  0.3336
19622SOL    HW260030   8.607   8.644   7.622 -0.7052 -1.8347  1.4765
19623SOL     OW60031   4.284   4.640   5.988  0.2588 -0.0602 -0.2657
19623SOL    HW160032   4.201   4.596   5.970 -1.0325  1.3494  1.7958
19623SOL    HW260033   4.297   4.699   5.913 -0.6099 -0.2783 -0.5936
19624SOL     OW60034   3.158   1.611   2.843  0.0415  0.1270 -0.7536
19624SOL    HW160035   3.222   1.544   2.821  0.1983 -0.0846  0.2996
19624SOL    HW260036   3.175   1.633   2.935  0.0590  1.6950 -1.0948
19625SOL     OW60037   3.048   6.082   7.606 -0.0561 -0.1069  0.1170
19625SOL    HW160038   3.129   6.119   7.571 -0.5864  1.1365  0.1381
19625SOL    HW260039   3.005   6.042   7.531 -0.4666  1.2136 -0.3923
19626SOL     OW60040   5.923   8.293   8.235  0.2897  0.0170 -0.7541
19626SOL    HW160041   5.835   8.285   8.198  0.1457  0.3383 -0.4745
19626SOL    HW260042   5.966   8.210   8.212  0.0161 -0.0166 -1.1507
19627SOL     OW60043   2.448   5.978   0.958 -0.5121  0.0539 -0.5358
19627SOL    HW160044   2.491   5.895   0.980 -0.5593  0.1335 -0.1355
19627SOL    HW260045   2.408   6.007   1.040 -1.2591  0.0291 -0.8818
19628SOL     OW60046   0.543   4.927   2.149  0.1329 -0.4794  0.1496
19628SOL    HW160047   0.454   4.955   2.169  0.3204  0.5462 -0.3903
19628SOL    HW260048   0.591   5.009   2.134  2.3510 -0.5140  4.9691
19629SOL     OW60049   2.300   4.867   2.541 -0.4061 -0.3929  0.8470
19629SOL    HW160050   2.375   4.891   2.595 -1.6974  2.9390  1.3678
19629SOL    HW260051   2.337   4.851   2.454  1.0598 -0.4325  1.4446
19630SOL     OW60052   5.043   8.552   7.653 -0.2498 -0.7061  0.3767
19630SOL    HW160053   5.050   8.458   7.671  3.1070 -0.9734 -1.4650
19630SOL    HW260054   5.123   8.589   7.690  0.3136  0.7749 -2.1115
19631SOL     OW60055   7.141   0.912   0.452  0.4199  0.4349 -0.3076
19631SOL    HW160056   7.096   0.986   0.411 -1.4974 -0.5438 -0.1099
19631SOL    HW260057   7.135   0.842   0.387  3.7289  0.8587 -1.2070
19632SOL     OW60058   3.896   1.274   5.741 -0.7155  0.6222 -0.1126
19632SOL    HW160059   3.905   1.179   5.734 -1.1415  0.5840 -0.1528
19632SOL    HW260060   3.810   1.288   5.781 -0.4730  0.9805  0.2948
19633SOL     OW60061   0.861   7.848   0.911  0.1412 -0.0689  0.4312
19633SOL    HW160062   0.892   7.932   0.877 -2.9094 -0.0377 -2.8599
19633SOL    HW260063   0.788   7.871   0.968 -0.8006 -0.4002 -0.5998
19634SOL     OW60064   8.846   4.257   4.091 -0.6184 -0.2853  0.5760
19634SOL    HW160065   8.819   4.165   4.092 -2.7510  0.2583 -0.5140
19634SOL    HW260066   8.939   4.255   4.113 -0.1728 -2.8740 -1.0626
19635SOL     OW60067   6.657   6.843   6.414 -0.3036 -0.3011  0.0311
19635SOL    HW160068   6.625   6.759   6.447 -1.0035  0.1038  0.3930
19635SOL    HW260069   6.584   6.903   6.427 -0.0672  0.2013 -0.9126
19636SOL     OW60070   1.291   3.327   3.142 -0.6505 -0.1023 -0.3357
19636SOL    HW160071   1.198   3.304   3.143 -0.2147 -2.1011  0.5106
19636SOL    HW260072   1.327   3.275   3.070  0.2499 -1.6703  1.1466
19637SOL     OW60073   1.322   4.674   6.879  0.2555 -0.3944 -0.2816
19637SOL    HW160074   1.305   4.742   6.945 -0.1433 -1.0128  0.2644
19637SOL    HW260075   1.397   4.707   6.830 -0.0039  0.5032 -0.1080
19638SOL     OW60076   1.736   5.090   0.233  0.2945  0.2546 -0.1743
19638SOL    HW160077   1.776   5.081   0.146  1.5523 -2.5319  0.5658
19638SOL    HW260078   1.810   5.103   0.292 -0.2850 -0.4530  0.7369
19639SOL     OW60079   2.504   7.967   1.009 -0.0288  0.4067  0.1661
19639SOL    HW160080   2.468   7.975   1.098  0.8775  1.7396  0.4514
19639SOL    HW260081   2.599   7.977   1.020  0.1781 -0.2327 -0.8702
19640SOL     OW60082   3.440   5.733   8.368  0.3495  0.6799  0.4083
19640SOL    HW160083   3.392   5.688   8.438  1.1396  1.8498  1.7448
19640SOL    HW260084   3.424   5.826   8.383 -0.8384  0.9522 -2.0105
19641SOL     OW60085   4.512   0.693   0.452  0.0079  0.2556  0.0594
19641SOL    HW160086   4.464   0.698   0.535  0.6908 -1.4974  0.5985
19641SOL    HW260087   4.544   0.783   0.438 -0.5662  0.7025  1.4116
19642SOL     OW60088   2.686   4.010   5.637 -0.6775 -0.2724  0.0844
19642SOL    HW160089   2.763   3.959   5.660 -0.5744  0.7660  2.3238
19642SOL    HW260090   2.631   3.950   5.585  0.9400 -1.4831 -0.2890
19643SOL     OW60091   2.027   0.306   3.654 -0.2158  0.2337  0.4632
19643SOL    HW160092   2.106   0.360   3.649 -0.5676  0.7983  0.8130
19643SOL    HW260093   2.054   0.229   3.704  0.7938 -0.8766 -1.6535
19644SOL     OW60094   2.506   4.467   4.440  0.5362 -0.2393 -0.1220
19644SOL    HW160095   2.431   4.514   4.476  0.9836  1.6773 -1.5036
19644SOL    HW260096   2.512   4.497   4.349  1.1347 -2.7118 -0.9771
19645SOL     OW60097   7.939   0.334   8.558  0.0038 -0.3983  0.1929
19645SOL    HW160098   7.886   0.278   8.501  0.4013 -1.1838  0.5836
19645SOL    HW260099   8.016   0.355   8.506 -0.1880 -0.1327  0.0125
19646SOL     OW60100   4.967   5.059   7.070 -0.5101  0.0076  0.0812
19646SOL    HW160101   4.934   5.010   7.145  2.3013  0.7586  1.9651
19646SOL    HW260102   5.040   5.007   7.036 -1.3958 -0.0597 -1.8734
19647SOL     OW60103   1.482   1.331   7.938  0.8798 -0.0341 -0.1067
19647SOL    HW160104   1.496   1.252   7.885 -1.5341 -0.0531 -0.8399
19647SOL    HW260105   1.509   1.305   8.026  1.5543 -1.2009 -0.6290
19648SOL     OW60106   5.853   5.977   8.644  0.2540 -0.0089 -0.2735
19648SOL    HW160107   5.874   5.898   8.594 -1.9958 -0.3872 -0.7080
19648SOL    HW260108   5.816   6.037   8.580  1.8829  1.4392  0.0629
19649SOL     OW60109   0.572   1.780   4.805 -0.5429 -0.1357  0.3155
19649SOL    HW160110   0.552   1.847   4.739  2.0591 -0.4826 -0.9752
19649SOL    HW260111   0.648   1.814   4.851 -0.2401 -1.4285  0.8136
19650SOL     OW60112   0.811   8.692   7.820 -0.0458  0.0357 -0.1901
19650SOL    HW160113   0.865   8.747   7.763 -1.5403  1.9094  0.0819
19650SOL    HW260114   0.725   8.734   7.819 -1.4537 -2.6380 -0.3468
19651SOL     OW60115   6.606   6.478   3.801  0.1926 -0.3576 -0.4204
19651SOL    HW160116   6.638   6.562   3.835  3.4213 -1.7833  0.5078
19651SOL    HW260117   6.562   6.438   3.876 -1.9809  0.6848 -1.0586
19652SOL     OW60118   7.830   7.785   1.365 -0.7001 -0.0646 -0.3946
19652SOL    HW160119   7.812   7.699   1.401 -0.7086  0.6797  1.4644
19652SOL    HW260120   7.909   7.814   1.410 -0.0812  0.4817 -1.7714
19653SOL     OW60121   3.872   7.034   2.895 -0.5313  0.0586  0.2770
19653SOL    HW160122   3.798   7.053   2.951  0.1067 -1.4377  1.6986
19653SOL    HW260123   3.947   7.072   2.940 -0.4772  2.4496 -1.6344
19654SOL     OW60124   8.472   1.989   6.819 -0.0340 -0.3222  0.3765
19654SOL    HW160125   8.475   2.046   6.742 -0.5571  0.0547  0.6300
19654SOL    HW260126   8.425   1.911   6.791  1.1146 -0.8660 -0.1146
19655SOL     OW60127   8.652   5.343   4.859  0.1733  0.3411 -0.0750
19655SOL    HW160128   8.738   5.324   4.897  0.8207  0.9919 -1.1619
19655SOL    HW260129   8.629   5.264   4.811 -1.4917 -1.2109  3.0393
19656SOL     OW60130   0.574   7.075   7.397 -0.0322 -0.4111  0.4012
19656SOL    HW160131   0.648   7.031   7.439 -0.0366 -2.0488 -1.1837
19656SOL    HW260132   0.612   7.118   7.321 -0.6144 -0.7887 -0.1100
19657SOL     OW60133   0.667   8.159   1.820  0.1269  0.4057 -0.2250
19657SOL    HW160134   0.729   8.086   1.824  1.8374  1.7789 -0.5092
19657SOL    HW260135   0.645   8.177   1.911  0.7309  0.3692 -0.0686
19658SOL     OW60136   6.683   5.383   5.566 -0.2231  0.6492 -0.2966
19658SOL    HW160137   6.609   5.441   5.584 -0.9958 -0.3812 -0.0798
19658SOL    HW260138   6.688   5.380   5.470  0.3384  1.6893 -0.3191
19659SOL     OW60139   3.547   3.344   3.841 -0.3538  0.0454 -0.1111
19659SOL    HW160140   3.599   3.300   3.909  1.4774  1.2197 -0.6997
19659SOL    HW260141   3.511   3.272   3.789  0.6623 -0.8203  0.3435
19660SOL     OW60142   8.720   3.985   1.495  0.3047  0.1440 -0.2059
19660SOL    HW160143   8.815   3.989   1.491  0.3821  2.4650  1.9121
19660SOL    HW260144   8.699   3.892   1.481  2.9247 -0.6054  0.4060
19661SOL     OW60145   4.602   3.286   5.092  0.4275  0.3441  0.0792
19661SOL    HW160146   4.535   3.333   5.142  0.5437  0.5212  0.0739
19661SOL    HW260147   4.597   3.323   5.004  0.6288  0.4640  0.1158
19662SOL     OW60148   7.521   1.669   7.438 -0.2433 -0.1962 -0.5294
19662SOL    HW160149   7.464   1.597   7.464 -0.1165 -0.1026  0.0076
19662SOL    HW260150   7.509   1.735   7.506 -1.5405  0.9497 -1.7837
19663SOL     OW60151   6.645   3.955   4.984 -0.2907 -0.6796  0.2179
19663SOL    HW160152   6.599   3.941   5.066 -0.0417  1.0650  0.6911
19663SOL    HW260153   6.731   3.914   4.997 -0.5408 -1.1233  0.5053
19664SOL     OW60154   6.478   7.496   1.163 -0.0744  0.7991 -0.3375
19664SOL    HW160155   6.431   7.530   1.240 -1.4066 -0.6910 -0.4446
19664SOL    HW260156   6.557   7.456   1.198  0.2818  1.7915  0.0330
19665SOL     OW60157   3.744   5.241   6.463  0.1155  0.0612  0.4963
19665SOL    HW160158   3.652   5.262   6.448  0.0118 -1.5118 -1.5711
19665SOL    HW260159   3.742   5.161   6.516  0.2098 -0.7168 -0.6291
19666SOL     OW60160   7.781   3.620   4.739 -0.4509 -0.0236 -0.3930
19666SOL    HW160161   7.835   3.548   4.772  0.8487  0.5227 -1.2380
19666SOL    HW260162   7.731   3.649   4.815  1.9359  0.7529  1.0118
19667SOL     OW60163   5.137   6.478   7.808  0.0086 -0.0217 -0.2502
19667SOL    HW160164   5.145   6.553   7.750  0.3748 -1.4678 -2.1640
19667SOL    HW260165   5.060   6.497   7.862  0.1901  1.7734 -0.5783
19668SOL     OW60166   4.778   7.396   1.773  0.3809 -0.3089  0.3567
19668SOL    HW160167   4.755   7.344   1.696  1.2496 -0.2258  0.0202
19668SOL    HW260168   4.697   7.439   1.799  0.0933 -0.2773 -0.5686
19669SOL     OW60169   1.015   3.688   2.466 -0.0677  0.4854  0.1116
19669SOL    HW160170   0.950   3.618   2.466  1.5690 -1.1640  2.1749
19669SOL    HW260171   1.090   3.651   2.418  1.0727  0.4976  1.8144
19670SOL     OW60172   5.521   7.367   6.030  0.1321  0.4784 -0.3290
19670SOL    HW160173   5.510   7.296   5.967 -1.7895  0.8231 -0.4491
19670SOL    HW260174   5.511   7.324   6.116 -2.5108  0.7429 -0.4281
19671SOL     OW60175   6.869   8.252   6.241 -0.3849 -0.1865  0.1107
19671SOL    HW160176   6.935   8.190   6.210 -0.5223 -0.2056 -0.1462
19671SOL    HW260177   6.877   8.327   6.182 -0.1484  0.0870  0.4841
19672SOL     OW60178   6.356   6.629   7.815 -0.4384  0.3724 -0.6000
19672SOL    HW160179   6.326   6.702   7.760 -1.2340  1.7461  1.5105
19672SOL    HW260180   6.377   6.670   7.899 -1.2656 -1.8828  0.7826
19673SOL     OW60181   4.802   8.841   4.362  0.1636  0.4608  0.2867
19673SOL    HW160182   4.891   8.834   4.394 -0.2586  0.1262  1.4147
19673SOL    HW260183   4.753   8.774   4.410 -0.4644 -0.1818 -1.1767
19674SOL     OW60184   7.911   6.954   6.377 -0.3975  0.1428  0.3690
19674SOL    HW160185   7.906   7.050   6.379  0.6183  0.2121 -0.0566
19674SOL    HW260186   7.858   6.929   6.301  1.7465  0.5742 -1.3521
19675SOL     OW60187   1.253   7.225   3.037 -0.4833  0.3630  0.7076
19675SOL    HW160188   1.261   7.269   3.122  0.3330 -0.6539  1.1763
19675SOL    HW260189   1.227   7.136   3.059  1.9221 -0.5653  0.0551
19676SOL     OW60190   0.011   8.691   0.397 -0.9633 -0.9299  0.2457
19676SOL    HW160191  -0.044   8.765   0.423 -0.3726 -0.4706  0.2062
19676SOL    HW260192   0.007   8.689   0.302 -0.7149 -0.7372  0.2292
19677SOL     OW60193   8.643   7.083   1.721 -0.0429  0.0759 -0.1822
19677SOL    HW160194   8.644   6.995   1.685 -2.2039 -0.6946  1.3705
19677SOL    HW260195   8.551   7.099   1.741  0.2662  2.7702 -0.5469
19678SOL     OW60196   6.570   3.977   3.782  0.2088  0.6330  0.3830
19678SOL    HW160197   6.581   4.061   3.827  1.8069  0.2389  0.8131
19678SOL    HW260198   6.536   3.918   3.850 -1.1233  0.9580  0.0250
19679SOL     OW60199   5.600   5.626   8.434 -0.1949  0.6919 -0.3660
19679SOL    HW160200   5.646   5.545   8.457  1.8861  1.8833 -0.0285
19679SOL    HW260201   5.638   5.651   8.350 -0.7183  1.3887 -0.4023
19680SOL     OW60202   6.713   4.527   4.202  0.1212 -0.2170  0.0901
19680SOL    HW160203   6.656   4.600   4.228 -0.6805 -0.4104 -1.0594
19680SOL    HW260204   6.692   4.513   4.110 -0.8866 -2.9425  0.6609
19681SOL     OW60205   2.207   0.720   2.337 -0.0953  0.4094  0.1711
19681SOL    HW160206   2.282   0.773   2.310 -1.0620  1.1464 -1.2151
19681SOL    HW260207   2.132   0.777   2.325 -1.1070 -1.0279 -0.6564
19682SOL     OW60208   4.251   4.004   7.498  0.0036  0.3384  0.5212
19682SOL    HW160209   4.179   4.017   7.436 -0.4542 -1.1574  0.7066
19682SOL    HW260210   4.299   3.928   7.463  0.8876  0.6798  0.9621
19683SOL     OW60211   0.550   0.753   4.114  0.2373 -0.2170  0.5137
19683SOL    HW160212   0.455   0.757   4.123  0.2228 -1.4883  1.1636
19683SOL    HW260213   0.568   0.790   4.028 -1.0156 -1.5218 -0.3507
19684SOL     OW60214   7.407   4.213   0.718  0.3675  0.6920  0.8978
19684SOL    HW160215   7.390   4.154   0.791  0.1925 -1.8227 -1.0303
19684SOL    HW260216   7.499   4.198   0.696 -0.2931 -0.8093 -1.1303
19685SOL     OW60217   3.486   5.030   8.734 -0.4577  0.0849  0.3679
19685SOL    HW160218   3.490   4.996   8.644  2.5733  0.0783  0.3943
19685SOL    HW260219   3.417   4.979   8.776 -1.6634 -0.2161 -1.8072
19686SOL     OW60220   2.575   2.788   0.215 -0.0590  0.0423  0.1678
19686SOL    HW160221   2.560   2.761   0.124 -1.3056 -0.4506  0.5002
19686SOL    HW260222   2.549   2.880   0.217 -1.6978 -0.3851  0.3722
19687SOL     OW60223   4.142   4.330   1.519  0.5634  0.4403  0.2400
19687SOL    HW160224   4.200   4.377   1.578 -0.7884  1.7258  0.6287
19687SOL    HW260225   4.164   4.363   1.432  0.3197  1.0452  0.4020
19688SOL     OW60226   2.204   2.315   4.129  0.1754 -0.4725 -0.2320
19688SOL    HW160227   2.260   2.377   4.176  2.2013 -1.2423 -1.4632
19688SOL    HW260228   2.130   2.367   4.098 -1.5671 -0.0039  4.0445
19689SOL     OW60229   6.480   2.738   8.056  0.0928 -0.0385 -0.1360
19689SOL    HW160230   6.506   2.823   8.020  0.2311  0.0099  0.0792
19689SOL    HW260231   6.443   2.759   8.142  0.8562 -0.2786  0.2578
19690SOL     OW60232   3.496   7.553   1.518  0.0546 -0.0408 -0.1244
19690SOL    HW160233   3.435   7.538   1.591  0.3131 -1.5749 -0.1802
19690SOL    HW260234   3.544   7.632   1.543 -1.8690  1.1642 -0.0420
19691SOL     OW60235   8.845   4.617   7.927 -0.2177  0.0270 -0.0615
19691SOL    HW160236   8.844   4.709   7.899 -0.0148 -0.1326 -0.6019
19691SOL    HW260237   8.929   4.607   7.972 -0.2042  0.0847 -0.0730
19692SOL     OW60238   4.151   7.417   0.285  0.2141  0.1242 -0.1320
19692SOL    HW160239   4.146   7.420   0.381 -0.4709  0.9646 -0.1835
19692SOL    HW260240   4.221   7.478   0.263 -0.5939  1.0419 -0.2242
19693SOL     OW60241   5.367   0.418   7.491  0.4757 -0.0553  0.7995
19693SOL    HW160242   5.361   0.386   7.581  1.7286 -0.1322  0.8685
19693SOL    HW260243   5.455   0.456   7.485 -0.3286  1.8447  0.2237
19694SOL     OW60244   0.481   5.385   3.945 -0.0061 -0.2369 -0.1871
19694SOL    HW160245   0.460   5.316   4.008  1.5140 -0.9338 -0.4106
19694SOL    HW260246   0.400   5.397   3.896 -0.6808 -0.9564  0.6969
19695SOL     OW60247   8.628   3.266   8.705 -0.3640  0.3668 -0.0140
19695SOL    HW160248   8.594   3.353   8.728 -1.4692  0.3441 -1.3889
19695SOL    HW260249   8.598   3.209   8.775  3.5608  1.6048  3.0266
19696SOL     OW60250   0.621   0.565   5.264 -0.2616  0.4270 -0.1756
19696SOL    HW160251   0.614   0.516   5.182 -0.9071  0.0409  0.1015
19696SOL    HW260252   0.545   0.537   5.316 -0.8488  1.9824 -0.1395
19697SOL     OW60253   5.077   5.239   4.044  0.2174  0.0501  0.5845
19697SOL    HW160254   4.991   5.280   4.029  0.8748  1.2081 -0.1609
19697SOL    HW260255   5.076   5.217   4.137 -2.2707 -3.3278 -0.0278
19698SOL     OW60256   8.863   8.530   0.987 -0.2360  0.0708  0.0335
19698SOL    HW160257   8.922   8.567   1.053  0.6094 -1.1788  0.0059
19698SOL    HW260258   8.794   8.595   0.978  1.2512  1.6864 -0.1026
19699SOL     OW60259   3.208   5.960   0.906 -0.0993  0.0417 -0.4066
19699SOL    HW160260   3.199   6.040   0.854 -0.3425  0.5921  0.4547
19699SOL    HW260261   3.126   5.954   0.955  0.1270 -0.4584 -0.0818
19700SOL     OW60262   3.605   2.841   1.160  0.0120  0.3079  0.3839
19700SOL    HW160263   3.577   2.932   1.158 -0.3715  0.3438  2.9780
19700SOL    HW260264   3.659   2.834   1.239  2.6583 -1.0710 -1.3764
19701SOL     OW60265   2.824   2.421   0.208 -0.5717 -0.2805  0.2327
19701SOL    HW160266   2.918   2.427   0.194 -0.3269  0.4516  1.8824
19701SOL    HW260267   2.785   2.454   0.127  0.5971 -0.0406 -0.2503
19702SOL     OW60268   7.774   7.804   7.265  0.0132  0.3802  0.4470
19702SOL    HW160269   7.802   7.877   7.209  0.2830 -0.1184 -0.0799
19702SOL    HW260270   7.800   7.829   7.353  1.1322  0.4197  0.1203
19703SOL     OW60271   7.201   0.179   1.283  0.0464  0.1912  0.1153
19703SOL    HW160272   7.155   0.244   1.230  1.2332  0.9773  0.0229
19703SOL    HW260273   7.292   0.183   1.253  0.0118 -2.0904 -0.4592
19704SOL     OW60274   0.116   6.159   0.880  0.2615  0.3376  0.4824
19704SOL    HW160275   0.100   6.254   0.876  1.2366  0.4689 -1.3538
19704SOL    HW260276   0.028   6.121   0.881 -0.2187  1.2300 -1.5982
19705SOL     OW60277   5.882   3.593   1.536 -0.1268  0.0161 -0.4542
19705SOL    HW160278   5.849   3.600   1.626  0.7961 -0.0480 -0.0956
19705SOL    HW260279   5.813   3.631   1.482 -0.5799  0.3029  0.3085
19706SOL     OW60280   2.272   8.076   8.586  0.2290  0.1012 -0.0189
19706SOL    HW160281   2.317   8.022   8.651  0.6157 -1.0234 -1.1793
19706SOL    HW260282   2.333   8.084   8.513 -0.6285  0.3565 -0.7353
19707SOL     OW60283   3.685   1.589   8.009  0.0302  0.0341 -0.3120
19707SOL    HW160284   3.639   1.518   7.964  0.5497 -0.4686 -0.0408
19707SOL    HW260285   3.695   1.559   8.099  0.0565  0.5461 -0.1420
19708SOL     OW60286   4.034   1.219   5.483  0.4773  0.2775 -0.0978
19708SOL    HW160287   3.997   1.259   5.562 -2.3001  1.3955 -1.8103
19708SOL    HW260288   4.111   1.272   5.463 -0.2942  1.6517  0.4456
19709SOL     OW60289   3.751   2.299   6.958 -0.3661  0.1943 -0.4069
19709SOL    HW160290   3.817   2.231   6.971 -0.4533  0.4918  2.2851
19709SOL    HW260291   3.801   2.381   6.964 -0.8590  0.4128  1.3222
19710SOL     OW60292   8.783   3.328   5.774  0.4142 -0.0590 -0.4236
19710SOL    HW160293   8.808   3.280   5.853 -1.5701 -0.8678 -0.2330
19710SOL    HW260294   8.826   3.413   5.782  1.2979 -0.5967  0.8651
19711SOL     OW60295   8.365   5.585   5.254 -0.0228 -0.1127  0.3257
19711SOL    HW160296   8.357   5.577   5.159  1.8386  1.4876 -0.0356
19711SOL    HW260297   8.425   5.515   5.279  1.1011  0.6907 -0.0210
19712SOL     OW60298   6.375   0.344   1.001 -0.2104 -0.3127 -0.2083
19712SOL    HW160299   6.440   0.393   0.951  0.5437 -1.2407 -0.1582
19712SOL    HW260300   6.413   0.336   1.089  0.5638 -2.5862 -0.7034
19713SOL     OW60301   3.990   4.814   7.803 -0.5356  0.1973 -0.5409
19713SOL    HW160302   4.025   4.770   7.725 -0.6745 -0.2297 -0.3625
19713SOL    HW260303   4.056   4.881   7.823 -0.2155 -0.0657 -0.6913
19714SOL     OW60304   4.401   2.671   3.928 -0.7672  0.0546  0.0463
19714SOL    HW160305   4.415   2.651   4.020  0.0855  0.2251 -0.0383
19714SOL    HW260306   4.326   2.730   3.927  0.3624  1.5769  0.8174
19715SOL     OW60307   5.578   2.996   1.695 -0.5096  1.0342 -0.0055
19715SOL    HW160308   5.653   3.048   1.667  0.5903 -0.8002 -0.6610
19715SOL    HW260309   5.560   2.938   1.621 -1.2842  0.0755  0.8995
19716SOL     OW60310   0.501   4.122   6.044  0.1261 -0.5550  0.0694
19716SOL    HW160311   0.445   4.185   5.999 -1.5519  0.5443  3.3478
19716SOL    HW260312   0.590   4.154   6.028 -0.4010  0.1428 -1.7862
19717SOL     OW60313   5.958   4.570   6.609 -0.3234 -0.1916 -0.5263
19717SOL    HW160314   6.048   4.537   6.601  0.2960  1.3977 -0.4505
19717SOL    HW260315   5.917   4.549   6.525  1.0976  1.7632 -1.8052
19718SOL     OW60316   4.916   6.476   4.851 -0.2008 -0.1437 -0.1752
19718SOL    HW160317   4.895   6.383   4.838  0.1139 -0.1176 -0.9194
19718SOL    HW260318   4.997   6.475   4.901 -0.7033 -0.2584  0.6541
19719SOL     OW60319   1.336   5.146   2.616 -0.3950 -0.5498  0.1981
19719SOL    HW160320   1.325   5.169   2.708 -0.5293 -0.0967  0.0744
19719SOL    HW260321   1.396   5.212   2.581 -1.5775  0.2565 -0.4004
19720SOL     OW60322   2.400   8.554   0.596  0.4173  0.0324  0.1212
19720SOL    HW160323   2.442   8.638   0.613 -0.6614  0.2473  2.1124
19720SOL    HW260324   2.310   8.576   0.570  0.3136 -0.4832  0.0232
19721SOL     OW60325   8.491   1.453   8.489 -0.2530  0.1248  0.4306
19721SOL    HW160326   8.497   1.431   8.582 -1.3953 -2.8860 -0.1188
19721SOL    HW260327   8.406   1.420   8.462  0.1408  0.7501 -1.7527
19722SOL     OW60328   8.858   7.867   5.559  0.1714  0.4474  0.4306
19722SOL    HW160329   8.769   7.834   5.542 -0.9011  2.1950  2.2496
19722SOL    HW260330   8.899   7.799   5.613 -0.8085  0.5253  1.3079
19723SOL     OW60331   4.479   8.024   1.531  0.4852 -0.3051 -0.5716
19723SOL    HW160332   4.476   8.108   1.576  1.8428  0.1717 -1.3117
19723SOL    HW260333   4.424   7.966   1.584 -0.0667  0.9074  0.2177
19724SOL     OW60334   8.263   5.464   4.489  0.3598 -0.3308  0.2181
19724SOL    HW160335   8.323   5.472   4.414  2.6392  2.3330  2.1107
19724SOL    HW260336   8.304   5.397   4.544 -0.8037 -1.5952 -0.3954
19725SOL     OW60337   5.333   6.128   4.730 -0.6701 -0.0618 -0.3297
19725SOL    HW160338   5.362   6.094   4.815  0.6561 -1.8552 -1.4227
19725SOL    HW260339   5.342   6.223   4.737 -3.6922  0.1623  2.5967
19726SOL     OW60340   7.400   2.373   5.693  0.2793  0.2443  0.2354
19726SOL    HW160341   7.339   2.320   5.744  0.0182  0.7923  0.5012
19726SOL    HW260342   7.478   2.319   5.686  0.5109  0.3508  1.6607
19727SOL     OW60343   6.544   7.698   4.468 -0.0797 -0.1262  0.2183
19727SOL    HW160344   6.553   7.660   4.381  0.3065  0.2854  0.0737
19727SOL    HW260345   6.490   7.636   4.516  1.7246 -1.6223  0.4433
19728SOL     OW60346   3.733   1.708   1.573 -0.0485 -0.1222 -0.0981
19728SOL    HW160347   3.783   1.668   1.502 -0.3193 -1.0183  0.2040
19728SOL    HW260348   3.747   1.802   1.562  1.6401 -0.3360 -0.0632
19729SOL     OW60349   6.446   2.134   7.207  0.1015 -0.5100 -1.0287
19729SOL    HW160350   6.518   2.071   7.215  1.2999  0.8044 -1.0604
19729SOL    HW260351   6.474   2.209   7.260 -2.5258 -1.0386  1.3547
19730SOL     OW60352   8.046   7.901   4.508 -0.4569 -0.3545 -0.1973
19730SOL    HW160353   7.976   7.967   4.516 -2.1130 -2.2102  1.6251
19730SOL    HW260354   8.006   7.820   4.539  2.7763 -1.3512  1.7932
19731SOL     OW60355   4.298   8.823   1.667 -0.6448 -0.3888 -0.2680
19731SOL    HW160356   4.385   8.820   1.707 -1.4221  0.9344  1.6549
19731SOL    HW260357   4.239   8.790   1.735 -1.7022 -1.0535 -1.4580
19732SOL     OW60358   7.725   3.339   0.200  0.1677  0.0522  0.4795
19732SOL    HW160359   7.640   3.304   0.171  0.6237 -1.5455  0.9583
19732SOL    HW260360   7.707   3.430   0.221 -1.3913 -0.1868  0.3543
19733SOL     OW60361   6.554   5.581   5.932 -0.6755 -0.0131  0.1957
19733SOL    HW160362   6.473   5.632   5.925 -0.9669 -0.6489 -1.6898
19733SOL    HW260363   6.623   5.647   5.939 -1.1406  0.6303 -0.9766
19734SOL     OW60364   5.340   6.659   3.811 -0.2740 -0.5735 -0.8268
19734SOL    HW160365   5.368   6.621   3.894 -0.0186 -1.7697 -1.4260
19734SOL    HW260366   5.399   6.732   3.796 -1.3567  0.7225  0.8137
19735SOL     OW60367   5.472   7.887   3.863 -0.1982 -0.1028 -0.2140
19735SOL    HW160368   5.521   7.920   3.788 -0.9095  1.5986  0.0425
19735SOL    HW260369   5.537   7.838   3.914  0.6411  0.0214 -1.1278
19736SOL     OW60370   7.663   4.041   7.374 -0.4620 -0.3320 -0.2844
19736SOL    HW160371   7.732   4.022   7.311 -1.1037  0.2942 -1.2174
19736SOL    HW260372   7.583   4.046   7.321 -0.8856  1.1667  0.4181
19737SOL     OW60373   5.054   2.417   0.627 -0.4809 -0.2351 -0.0006
19737SOL    HW160374   5.116   2.345   0.625 -0.1440  0.0214  0.7031
19737SOL    HW260375   5.109   2.496   0.633 -0.8603  0.0086  0.3474
19738SOL     OW60376   7.498   1.497   6.514  0.6063 -0.2716  0.9238
19738SOL    HW160377   7.423   1.556   6.505  1.8135  1.2022  0.0775
19738SOL    HW260378   7.459   1.411   6.527 -1.2249  0.7029  2.3617
19739SOL     OW60379   3.951   1.530   7.672  0.1260 -0.5509  0.1432
19739SOL    HW160380   3.982   1.604   7.724  0.4137  2.1226 -3.4556
19739SOL    HW260381   3.856   1.532   7.683  0.1274  0.3880  0.0671
19740SOL     OW60382   8.816   2.548   7.427 -0.4097  0.1273  0.1558
19740SOL    HW160383   8.726   2.515   7.433 -0.5681  0.4528 -0.2957
19740SOL    HW260384   8.812   2.637   7.462  0.3231 -0.8007  2.8062
19741SOL     OW60385   1.851   7.509   3.468 -0.1746 -0.3098  0.0731
19741SOL    HW160386   1.845   7.604   3.480  0.6029 -0.3311  0.6997
19741SOL    HW260387   1.918   7.497   3.401  1.4461 -0.4699  1.6459
19742SOL     OW60388   7.789   4.542   6.790 -0.3575 -0.0243  0.2045
19742SOL    HW160389   7.699   4.529   6.820 -1.3792 -2.5455 -3.2131
19742SOL    HW260390   7.786   4.624   6.742 -0.8573 -0.0595  0.1674
19743SOL     OW60391   2.683   2.496   8.832 -0.2391 -0.1449  0.6949
19743SOL    HW160392   2.741   2.563   8.796 -0.6964 -0.6514 -1.0914
19743SOL    HW260393   2.603   2.543   8.855  0.1076  0.2099  1.1957
19744SOL     OW60394   0.203   6.694   3.674 -0.9645  0.1502 -0.2335
19744SOL    HW160395   0.249   6.778   3.673 -0.7678  0.0384 -1.3082
19744SOL    HW260396   0.131   6.706   3.736  1.6199 -0.2753  3.1359
19745SOL     OW60397   7.602   1.931   5.927 -0.2545 -0.0192 -0.1210
19745SOL    HW160398   7.553   1.903   5.850 -0.5581 -0.9916  0.4128
19745SOL    HW260399   7.691   1.948   5.895 -0.3975 -0.3491 -0.6931
19746SOL     OW60400   2.544   0.649   8.166 -0.0723 -0.2564  0.0487
19746SOL    HW160401   2.457   0.644   8.204 -0.5837  0.0421 -1.0315
19746SOL    HW260402   2.540   0.593   8.088 -0.0155  1.4816 -1.2781
19747SOL     OW60403   6.794   8.536   4.569  0.2675 -0.0509  0.4088
19747SOL    HW160404   6.888   8.545   4.556  0.2630 -0.1578  0.3018
19747SOL    HW260405   6.768   8.464   4.511  0.1975 -0.3342  0.7839
19748SOL     OW60406   4.492   0.005   6.540 -0.1020 -0.0032 -0.1250
19748SOL    HW160407   4.445  -0.062   6.490 -1.8752  0.5224  0.7688
19748SOL    HW260408   4.486  -0.023   6.631  0.9664  0.3142  0.0587
19749SOL     OW60409   1.122   8.137   8.756  0.7580 -0.1355  0.0274
19749SOL    HW160410   1.034   8.146   8.719  0.5215  0.8183  0.7672
19749SOL    HW260411   1.176   8.197   8.704  0.4915  0.9622  0.9740
19750SOL     OW60412   6.811   6.265   6.474 -0.2671 -0.2161  0.1562
19750SOL    HW160413   6.837   6.212   6.398 -0.4821 -0.7614  0.4550
19750SOL    HW260414   6.729   6.305   6.447 -0.7343 -1.0071  0.3665
19751SOL     OW60415   5.823   4.867   2.277  0.7135  0.9678 -0.3392
19751SOL    HW160416   5.737   4.881   2.237  0.2306  1.1116  0.7102
19751SOL    HW260417   5.883   4.915   2.222  0.4048 -0.5664 -2.1380
19752SOL     OW60418   7.457   3.328   1.533  0.0212 -0.4145  0.0028
19752SOL    HW160419   7.491   3.304   1.619  0.4381  1.7899  0.5196
19752SOL    HW260420   7.473   3.422   1.526 -0.6184 -0.4066 -2.2214
19753SOL     OW60421   8.406   4.447   8.411  0.0563 -0.0379 -0.0052
19753SOL    HW160422   8.462   4.377   8.447 -0.7554 -0.8192 -0.2143
19753SOL    HW260423   8.320   4.406   8.402 -1.5454  2.0163  3.5509
19754SOL     OW60424   3.148   0.185   0.297 -0.1510 -0.6113  0.0644
19754SOL    HW160425   3.108   0.128   0.362  0.4922  0.5992  1.5878
19754SOL    HW260426   3.141   0.273   0.334  2.5851 -0.1743 -0.2254
19755SOL     OW60427   7.381   4.497   0.786  0.4713 -0.0510  0.3210
19755SOL    HW160428   7.340   4.482   0.701 -2.8184 -1.7886  2.0529
19755SOL    HW260429   7.432   4.417   0.802  1.6429  0.5546 -0.2135
19756SOL     OW60430   4.156   2.166   7.607  0.1213 -0.0922  0.3583
19756SOL    HW160431   4.121   2.244   7.564 -0.9329 -0.2377  0.9039
19756SOL    HW260432   4.244   2.156   7.571  0.2854  1.3502  0.3014
19757SOL     OW60433   6.334   7.055   6.807  0.0545  0.0152 -0.1936
19757SOL    HW160434   6.359   6.976   6.855 -0.4520 -0.1248 -0.1495
19757SOL    HW260435   6.268   7.024   6.745  1.6675 -0.0795 -1.9564
19758SOL     OW60436   8.486   1.166   2.059 -0.5618 -0.2938 -0.3502
19758SOL    HW160437   8.408   1.184   2.111 -0.3807 -1.8386  0.5380
19758SOL    HW260438   8.465   1.199   1.971 -2.3273 -0.9121 -0.2046
19759SOL     OW60439   6.171   4.537   5.117  0.2497 -0.5490  0.5373
19759SOL    HW160440   6.230   4.591   5.169  0.3426 -0.8604  0.7628
19759SOL    HW260441   6.204   4.448   5.129  0.3662 -0.6060 -0.1833
19760SOL     OW60442   6.966   1.365   4.786  0.2820 -0.0846 -0.3322
19760SOL    HW160443   6.951   1.457   4.764  1.3452  0.2488  0.2950
19760SOL    HW260444   6.961   1.320   4.702 -3.1089  0.0729 -0.3831
19761SOL     OW60445   5.987   6.514   5.228 -0.2593 -0.6909  0.1420
19761SOL    HW160446   5.977   6.539   5.136  0.3272 -1.6293 -0.1902
19761SOL    HW260447   6.048   6.578   5.265 -1.2518  0.2799  0.1439
19762SOL     OW60448   1.711   8.330   3.011 -0.3394 -0.5938 -0.4981
19762SOL    HW160449   1.709   8.243   3.051  0.7713 -0.4382 -0.0600
19762SOL    HW260450   1.785   8.327   2.950  0.9446  0.5816  0.8967
19763SOL     OW60451   4.560   3.168   4.651 -0.0387 -0.4727 -0.6384
19763SOL    HW160452   4.575   3.105   4.722  1.0073  0.2115 -0.2269
19763SOL    HW260453   4.468   3.156   4.627 -1.3601  1.3470  2.8612
19764SOL     OW60454   5.788   1.201   6.527 -0.5121  0.3806  0.3183
19764SOL    HW160455   5.838   1.168   6.453 -1.8546  0.5039 -0.6684
19764SOL    HW260456   5.772   1.293   6.507 -0.2406  0.6245  1.1415
19765SOL     OW60457   4.763   3.803   3.064  0.2922 -0.3934  0.0960
19765SOL    HW160458   4.789   3.711   3.072  0.3927 -0.5232 -1.3743
19765SOL    HW260459   4.845   3.851   3.055  0.1961 -0.4393 -1.3319
19766SOL     OW60460   4.165   6.617   2.332 -0.3015 -0.9292 -0.2803
19766SOL    HW160461   4.197   6.664   2.409 -0.9414  0.1107 -0.6305
19766SOL    HW260462   4.076   6.591   2.355 -1.6056  1.8590 -1.6165
19767SOL     OW60463   5.585   7.556   0.899  0.3566  0.2012  0.6024
19767SOL    HW160464   5.649   7.614   0.941  1.3128 -0.6370  0.3406
19767SOL    HW260465   5.636   7.479   0.875 -0.5672 -0.0896 -0.4639
19768SOL     OW60466   5.022   2.794   0.973 -0.0205 -0.3333 -0.4817
19768SOL    HW160467   5.105   2.776   0.930  0.6637  1.6561 -0.1103
19768SOL    HW260468   5.046   2.810   1.065 -0.5464  1.6769 -0.6329
19769SOL     OW60469   4.067   1.884   1.359 -0.2186 -0.3863  0.8088
19769SOL    HW160470   4.002   1.814   1.357 -0.1064 -0.4779  0.2013
19769SOL    HW260471   4.151   1.839   1.368 -0.2554 -0.2518  1.9887
19770SOL     OW60472   0.576   7.637   3.374  0.1898  0.3173 -0.3244
19770SOL    HW160473   0.491   7.658   3.412  0.6687  1.4434  0.1720
19770SOL    HW260474   0.598   7.713   3.320  1.0570  0.2335 -0.1137
19771SOL     OW60475   5.250   2.069   1.999  0.1325  0.2697 -0.2276
19771SOL    HW160476   5.323   2.106   1.951  0.6553 -0.5594 -0.1012
19771SOL    HW260477   5.280   2.064   2.090  1.2331 -3.0217 -0.6198
19772SOL     OW60478   2.729   3.374   7.905  0.4747 -0.4044  0.7455
19772SOL    HW160479   2.744   3.414   7.819 -0.5465  1.0343  1.2058
19772SOL    HW260480   2.753   3.282   7.893  2.0803  0.1391 -0.5910
19773SOL     OW60481   6.159   0.556   8.848 -0.2105 -0.0264 -0.2605
19773SOL    HW160482   6.140   0.616   8.776 -1.3860 -0.5145 -0.3911
19773SOL    HW260483   6.252   0.568   8.867 -0.3942  1.7547 -0.3509
19774SOL     OW60484   0.717   1.607   6.232 -0.4153 -0.1842  0.2881
19774SOL    HW160485   0.809   1.585   6.247 -1.0222 -1.1292  3.1788
19774SOL    HW260486   0.719   1.697   6.199  1.4815  1.1341  3.5481
19775SOL     OW60487   6.980   3.612   4.748  0.6534 -0.7180  0.4947
19775SOL    HW160488   6.967   3.517   4.742  1.8572 -0.8195 -2.9729
19775SOL    HW260489   6.893   3.647   4.764 -0.1195 -2.3173  0.0144
19776SOL     OW60490   8.650   6.880   2.036 -0.2062 -0.1611  0.0434
19776SOL    HW160491   8.656   6.853   2.128  0.4782 -0.1116  0.0174
19776SOL    HW260492   8.729   6.932   2.021 -1.3978  1.7783  0.0558
19777SOL     OW60493   2.471   4.675   1.788 -0.2733  0.5170 -0.1732
19777SOL    HW160494   2.527   4.655   1.713  0.0805 -0.0613  0.2392
19777SOL    HW260495   2.401   4.610   1.785 -0.5866  0.8551 -0.3304
19778SOL     OW60496   2.402   4.378   1.002 -0.2428 -0.3503 -0.0231
19778SOL    HW160497   2.323   4.408   1.046 -0.3121  0.0625 -0.4142
19778SOL    HW260498   2.435   4.306   1.056 -0.2510  0.2292  0.7670
19779SOL     OW60499   2.691   2.624   1.657 -0.3903  0.0297 -0.8759
19779SOL    HW160500   2.693   2.540   1.703 -1.4312  0.5636  0.2270
19779SOL    HW260501   2.615   2.669   1.694  0.2462  1.5277 -1.3126
19780SOL     OW60502   0.868   1.528   6.616 -0.6954 -1.1040 -0.4501
19780SOL    HW160503   0.935   1.563   6.675 -2.3803  1.6729  0.0209
19780SOL    HW260504   0.913   1.518   6.532  0.6424 -0.7595  0.1884
19781SOL     OW60505   1.928   6.358   5.871 -0.7484  0.1101 -0.6720
19781SOL    HW160506   1.964   6.431   5.820 -0.3892  0.0216 -0.5443
19781SOL    HW260507   1.834   6.377   5.876 -0.9684 -0.4094 -2.2357
19782SOL     OW60508   1.563   1.023   2.785 -0.1464  0.0785 -0.2838
19782SOL    HW160509   1.558   1.119   2.791 -2.5785 -0.0499  0.7428
19782SOL    HW260510   1.640   1.000   2.838  0.0943  1.4239 -0.0080
19783SOL     OW60511   0.632   2.875   8.591  0.2359  0.1746  0.0228
19783SOL    HW160512   0.575   2.854   8.665  0.3468 -0.4568 -0.0646
19783SOL    HW260513   0.593   2.953   8.551 -1.2651 -0.9328 -0.7638
19784SOL     OW60514   0.796   0.035   1.449  0.3421 -0.2144 -0.6161
19784SOL    HW160515   0.742  -0.006   1.382  0.3670 -1.5278  0.1353
19784SOL    HW260516   0.771   0.127   1.447 -1.4101 -0.6589 -0.7860
19785SOL     OW60517   5.135   0.141   1.263  0.3426  0.5378  0.0228
19785SOL    HW160518   5.218   0.106   1.228 -0.1002 -0.0785 -0.4466
19785SOL    HW260519   5.071   0.122   1.194 -0.4451 -0.1644  0.9177
19786SOL     OW60520   6.040   2.981   8.258  0.4914 -0.1642 -0.0419
19786SOL    HW160521   6.095   2.924   8.313  0.5929  0.6883  0.7519
19786SOL    HW260522   5.960   2.930   8.244  0.6244 -0.5529  0.5707
19787SOL     OW60523   1.925   3.034   6.492 -0.3853 -0.1631 -0.1932
19787SOL    HW160524   1.958   3.004   6.408  0.2480 -1.1067  0.3677
19787SOL    HW260525   1.910   3.128   6.481 -0.9919 -0.3929 -1.5619
19788SOL     OW60526   5.293   2.010   0.029  0.2337 -0.8571  0.7694
19788SOL    HW160527   5.220   2.062  -0.003  0.8132  0.0899  0.9552
19788SOL    HW260528   5.347   1.994  -0.048 -0.1954 -1.6223  0.6169
19789SOL     OW60529   5.280   1.562   1.741 -0.3458 -0.0610 -0.0439
19789SOL    HW160530   5.228   1.576   1.820  0.4648 -0.4680  0.5743
19789SOL    HW260531   5.371   1.558   1.772  0.1533  1.4304 -1.1959
19790SOL     OW60532   3.630   0.826   6.732 -0.0034 -0.2211 -0.7583
19790SOL    HW160533   3.577   0.898   6.767 -0.2473 -0.8788  0.2793
19790SOL    HW260534   3.695   0.869   6.676  1.2358  1.0882  1.4967
19791SOL     OW60535   4.315   3.750   8.818 -0.2758  0.5057 -0.1024
19791SOL    HW160536   4.375   3.680   8.843 -0.2912  0.7031  0.5043
19791SOL    HW260537   4.293   3.731   8.727  0.6458  0.3934 -0.3113
19792SOL     OW60538   8.709   1.107   5.448 -0.0444 -0.0641 -0.1501
19792SOL    HW160539   8.692   1.067   5.533 -1.4934  1.2471  0.2370
19792SOL    HW260540   8.623   1.116   5.408  0.3114  1.7739 -0.5953
19793SOL     OW60541   5.806   8.450   4.260 -0.4610 -0.2362  0.5548
19793SOL    HW160542   5.899   8.463   4.239 -0.6147  0.3734  0.2380
19793SOL    HW260543   5.759   8.495   4.190 -1.0059 -1.1248  0.3337
19794SOL     OW60544   7.534   3.706   3.070 -0.7943 -0.0178  0.2192
19794SOL    HW160545   7.606   3.686   3.129 -1.7278 -2.0151  0.7434
19794SOL    HW260546   7.575   3.759   3.001  1.1715 -1.0909  0.4759
19795SOL     OW60547   6.524   0.739   0.007 -0.2921 -0.3533  0.6134
19795SOL    HW160548   6.508   0.647   0.030  0.3161 -0.9076 -1.0532
19795SOL    HW260549   6.619   0.748   0.010  0.0659 -1.0171 -3.2924
19796SOL     OW60550   4.911   3.104   6.979  0.1005 -0.0493 -0.2137
19796SOL    HW160551   4.924   3.011   6.998 -0.9430 -0.3263 -0.7293
19796SOL    HW260552   4.847   3.104   6.907 -0.3567  1.0749  0.1801
19797SOL     OW60553   3.996   4.114   2.045  0.7245  0.0935 -0.3725
19797SOL    HW160554   4.069   4.055   2.067  0.7066  0.0358 -0.4659
19797SOL    HW260555   4.018   4.148   1.958  0.6576  0.1033 -0.3857
19798SOL     OW60556   6.394   7.938   8.862 -0.0970 -0.5181  0.1117
19798SOL    HW160557   6.390   8.008   8.927 -0.8620 -0.2422 -0.2230
19798SOL    HW260558   6.380   7.982   8.779  1.7545 -0.7382 -0.3633
19799SOL     OW60559   2.421   7.906   8.354  0.3210  0.2579 -0.1214
19799SOL    HW160560   2.457   7.895   8.265  1.5611 -2.9401  0.6279
19799SOL    HW260561   2.492   7.878   8.411 -1.7810 -1.7844  1.6782
19800SOL     OW60562   6.972   6.866   2.722  0.3573  0.2983  0.2146
19800SOL    HW160563   7.025   6.945   2.737  2.0502 -1.0196  1.6297
19800SOL    HW260564   6.967   6.859   2.627 -0.5001  2.5031  0.0319
19801SOL     OW60565   5.260   5.426   4.025  0.4528  0.1125 -0.1623
19801SOL    HW160566   5.193   5.360   4.041  1.5602 -0.6251  1.7413
19801SOL    HW260567   5.264   5.477   4.106  2.6479 -0.3395  0.0712
19802SOL     OW60568   3.369   7.493   4.386 -0.3049 -0.3368 -0.2068
19802SOL    HW160569   3.401   7.537   4.464  0.8047 -1.0541 -0.2435
19802SOL    HW260570   3.294   7.441   4.417  0.8914 -1.6055  0.6550
19803SOL     OW60571   8.749   8.841   5.816  0.3434  0.4577 -0.0823
19803SOL    HW160572   8.691   8.818   5.889 -1.4275 -0.7710 -1.7646
19803SOL    HW260573   8.719   8.928   5.788  0.1091  0.3418 -0.1947
19804SOL     OW60574   0.992   2.125   6.680  0.3027 -0.0753 -0.0089
19804SOL    HW160575   1.053   2.053   6.695 -1.4708 -1.4047  1.2716
19804SOL    HW260576   1.022   2.195   6.737 -0.6114 -1.5587  2.4545
19805SOL     OW60577   0.808   2.950   3.133  0.4314 -0.2835 -0.3089
19805SOL    HW160578   0.716   2.922   3.136 -0.7718  3.1726 -0.2255
19805SOL    HW260579   0.836   2.948   3.225  0.5695 -1.6735 -0.3726
19806SOL     OW60580   2.389   2.730   3.908  0.0691 -0.5034  0.0690
19806SOL    HW160581   2.429   2.646   3.885 -0.8573 -0.9993  0.1804
19806SOL    HW260582   2.311   2.705   3.959  0.5657  0.4737  1.3699
19807SOL     OW60583   4.077   0.551   7.129 -1.0683  0.0386  0.0456
19807SOL    HW160584   3.982   0.560   7.140 -1.5039 -1.2231 -2.1302
19807SOL    HW260585   4.102   0.624   7.072 -0.8566 -0.0838 -0.0190
19808SOL     OW60586   8.430   7.071   3.405 -0.3900 -0.3080 -0.1417
19808SOL    HW160587   8.348   7.091   3.360  0.1059 -0.6113 -1.2136
19808SOL    HW260588   8.439   7.140   3.471 -1.1947  0.0822 -0.4308
19809SOL     OW60589   6.074   6.349   7.604  0.2930 -0.5686  0.1547
19809SOL    HW160590   6.012   6.386   7.667  1.0432 -0.5255  0.8793
19809SOL    HW260591   6.025   6.345   7.522 -0.3807  0.3245  0.4956
19810SOL     OW60592   4.198   1.831   0.479 -0.6633  0.4272  0.0501
19810SOL    HW160593   4.233   1.920   0.487  1.4219 -0.4208  1.1722
19810SOL    HW260594   4.165   1.810   0.566  0.9694 -0.6675  0.4527
19811SOL     OW60595   5.126   4.835   1.787 -0.5956  0.2433  0.0150
19811SOL    HW160596   5.207   4.886   1.793  0.3979 -1.1486 -0.8876
19811SOL    HW260597   5.146   4.754   1.833 -1.9184  0.3658  0.8334
19812SOL     OW60598   7.752   1.516   7.388  0.1734 -1.3047  1.2551
19812SOL    HW160599   7.817   1.506   7.458  1.8892  0.6387  0.0533
19812SOL    HW260600   7.688   1.578   7.424  1.4050  0.2111  0.9479
19813SOL     OW60601   2.790   3.149   4.778 -0.2837 -0.2659 -0.6563
19813SOL    HW160602   2.814   3.058   4.757  0.6746 -0.3187  0.5355
19813SOL    HW260603   2.698   3.145   4.802 -0.1426 -1.0026 -0.2171
19814SOL     OW60604   0.388   7.693   6.964  0.1642 -0.4716  0.1076
19814SOL    HW160605   0.388   7.789   6.966  2.4747 -0.4162  1.4387
19814SOL    HW260606   0.297   7.669   6.947 -0.2404  1.9488 -1.6867
19815SOL     OW60607   8.495   1.489   5.022  0.1279  0.2588  0.3193
19815SOL    HW160608   8.443   1.500   5.101 -0.7131  0.8381 -0.2997
19815SOL    HW260609   8.436   1.513   4.951  1.2412  0.9304 -0.4036
19816SOL     OW60610   4.290   5.121   4.556  0.6338  0.1906 -0.5676
19816SOL    HW160611   4.338   5.045   4.592  0.1555 -0.2450 -0.8403
19816SOL    HW260612   4.303   5.190   4.621 -0.1637 -0.5680  0.4326
19817SOL     OW60613   1.954   1.424   0.997 -0.1846  0.1142  0.3063
19817SOL    HW160614   1.963   1.511   0.958 -1.1374  0.7399  1.4223
19817SOL    HW260615   2.006   1.429   1.077  1.1761 -0.9307 -0.4705
19818SOL     OW60616   2.286   4.529   5.716 -0.1578  0.6571  0.5212
19818SOL    HW160617   2.293   4.605   5.774  0.2362  0.7311  0.3763
19818SOL    HW260618   2.365   4.478   5.733 -0.1873  0.5255  0.2682
19819SOL     OW60619   8.468   2.559   8.739 -0.1446  0.5088  0.0090
19819SOL    HW160620   8.446   2.476   8.699 -0.3455  0.0434  1.0446
19819SOL    HW260621   8.542   2.539   8.796 -0.6172  0.8887  0.7751
19820SOL     OW60622   6.649   1.480   5.100  0.2920  0.0820  0.3950
19820SOL    HW160623   6.578   1.506   5.160  0.4248  0.2887  0.4627
19820SOL    HW260624   6.609   1.485   5.013 -0.5864 -2.3879  0.5852
19821SOL     OW60625   2.618   8.651   5.832 -0.2354 -0.2541 -0.2475
19821SOL    HW160626   2.573   8.661   5.917 -0.5131  2.1713 -0.5906
19821SOL    HW260627   2.711   8.647   5.855 -0.3996 -1.4489  0.2599
19822SOL     OW60628   8.833   4.981   5.623  0.7470 -0.0829 -0.8205
19822SOL    HW160629   8.791   5.047   5.678 -1.3803 -1.2032 -1.0115
19822SOL    HW260630   8.817   5.011   5.533  0.3914 -0.4756 -0.8926
19823SOL     OW60631   5.164   5.638   6.746  0.2564 -0.0483  0.0491
19823SOL    HW160632   5.077   5.601   6.762  0.4798 -1.0328 -0.9014
19823SOL    HW260633   5.157   5.729   6.775 -1.4055  0.1785 -0.9378
19824SOL     OW60634   2.444   8.306   2.230 -0.0672  0.8562  0.3419
19824SOL    HW160635   2.495   8.373   2.183 -0.3552  0.8201 -0.0258
19824SOL    HW260636   2.478   8.309   2.320  0.7434  0.6752  0.0496
19825SOL     OW60637   4.288   4.899   8.193  0.8914  0.1357 -0.3240
19825SOL    HW160638   4.216   4.915   8.132  0.3040  0.8771  0.5514
19825SOL    HW260639   4.277   4.809   8.222  1.9818 -0.7150 -2.3386
19826SOL     OW60640   6.885   2.627   1.307 -0.1832 -0.1928 -0.5515
19826SOL    HW160641   6.965   2.580   1.331 -0.0954 -0.8194 -1.9984
19826SOL    HW260642   6.904   2.664   1.221 -1.3480 -0.0961 -0.7841
19827SOL     OW60643   7.686   1.926   2.128 -0.2461  0.0057 -0.2029
19827SOL    HW160644   7.621   1.919   2.198 -1.5482  2.8207 -0.9880
19827SOL    HW260645   7.644   1.887   2.051 -0.6551  1.0235 -0.4984
19828SOL     OW60646   3.191   0.882   2.394  0.1474 -0.5523  0.2920
19828SOL    HW160647   3.155   0.881   2.305  0.0417  1.0217  0.2914
19828SOL    HW260648   3.284   0.863   2.383  0.1750 -0.1688 -0.1872
19829SOL     OW60649   7.629   5.585   8.753 -0.4640  0.6223  0.1849
19829SOL    HW160650   7.551   5.629   8.785  0.1220  1.1854  0.8667
19829SOL    HW260651   7.627   5.598   8.658 -0.4879  1.8192  0.3416
19830SOL     OW60652   7.540   8.200   2.712 -0.0780  0.3976  0.0932
19830SOL    HW160653   7.448   8.196   2.740  0.0121  0.1920  0.3593
19830SOL    HW260654   7.542   8.272   2.648 -0.4482  0.3240 -0.0060
19831SOL     OW60655   0.877   2.739   8.685  0.0651  0.0941 -0.2046
19831SOL    HW160656   0.793   2.767   8.650 -1.5124 -2.0788  1.6141
19831SOL    HW260657   0.888   2.650   8.654  0.7792 -0.2999  1.1071
19832SOL     OW60658   7.292   3.201   6.963 -0.0514  0.1103  0.1199
19832SOL    HW160659   7.213   3.200   7.017  0.2057  0.6485  0.5162
19832SOL    HW260660   7.359   3.240   7.019 -0.3351  2.9204 -1.3282
19833SOL     OW60661   3.462   3.352   5.101  0.4744  0.0846  0.1052
19833SOL    HW160662   3.556   3.368   5.098  0.4720 -0.0162 -0.4846
19833SOL    HW260663   3.452   3.283   5.167  0.6308  1.3537  1.5163
19834SOL     OW60664   6.967   8.549   7.677  0.3392 -0.8093  0.0516
19834SOL    HW160665   6.994   8.549   7.585 -1.0826 -1.0537 -0.3845
19834SOL    HW260666   7.011   8.626   7.714 -1.0824  0.8559 -1.4897
19835SOL     OW60667   4.630   2.872   8.550 -0.0292  0.4535  0.2372
19835SOL    HW160668   4.680   2.854   8.470  0.2139  2.0337 -0.0097
19835SOL    HW260669   4.600   2.787   8.580  1.6725 -0.3909 -0.3690
19836SOL     OW60670   4.255   4.899   6.100  0.2690 -0.0434 -0.2348
19836SOL    HW160671   4.177   4.949   6.076  0.8658  0.5217 -1.0612
19836SOL    HW260672   4.227   4.808   6.096 -0.6053  0.1801  0.4425
19837SOL     OW60673   8.084   4.442   7.247 -0.2574 -0.1496 -0.6750
19837SOL    HW160674   8.054   4.532   7.260  0.4090 -0.2529  2.2487
19837SOL    HW260675   8.004   4.389   7.253 -0.2002 -0.0700  2.6961
19838SOL     OW60676   4.660   0.158   3.372  0.3077  0.3866  0.7997
19838SOL    HW160677   4.754   0.172   3.383  0.6554 -0.4562 -0.7820
19838SOL    HW260678   4.633   0.225   3.309  0.0182  0.1376  0.6528
19839SOL     OW60679   3.883   1.934   0.060  0.4899 -0.5189 -0.9671
19839SOL    HW160680   3.914   1.866   0.120 -0.5623 -0.9394 -0.8846
19839SOL    HW260681   3.951   2.002   0.064 -0.2882  0.2548  2.0049
19840SOL     OW60682   4.802   8.577   8.539  0.3332 -0.1265  0.0572
19840SOL    HW160683   4.881   8.630   8.533 -0.3504  0.9683  0.4066
19840SOL    HW260684   4.758   8.608   8.618 -1.2775  0.4779 -1.0305
19841SOL     OW60685   0.885   6.626   7.508  0.3692  0.2985 -0.0208
19841SOL    HW160686   0.868   6.546   7.558  1.1028  0.0761 -0.1091
19841SOL    HW260687   0.875   6.599   7.417 -1.9041  0.9260 -0.0043
19842SOL     OW60688   2.503   7.128   5.607  0.1245 -0.4665  0.1165
19842SOL    HW160689   2.425   7.184   5.611  0.5598  0.0783  1.7341
19842SOL    HW260690   2.563   7.167   5.670  0.8371 -2.1834  0.5352
19843SOL     OW60691   6.265   2.277   0.105  0.2458 -0.2573 -0.0090
19843SOL    HW160692   6.191   2.233   0.147  0.0488  0.8933  0.9072
19843SOL    HW260693   6.335   2.274   0.171  0.2040  0.8280  0.1018
19844SOL     OW60694   0.366   5.293   7.204  0.0811 -0.1142 -0.3939
19844SOL    HW160695   0.351   5.387   7.193 -1.6828 -0.3471 -0.2086
19844SOL    HW260696   0.354   5.278   7.298  2.7182 -0.1826  0.0060
19845SOL     OW60697   3.313   1.608   3.077  0.1874 -0.7866 -0.0789
19845SOL    HW160698   3.284   1.699   3.085 -0.1248 -0.8179 -0.7775
19845SOL    HW260699   3.380   1.610   3.009  0.7823 -0.9516  0.4930
19846SOL     OW60700   7.062   0.920   2.175  0.6364 -0.0847  0.1900
19846SOL    HW160701   7.076   0.898   2.267 -0.0302  0.5632  0.4607
19846SOL    HW260702   7.043   1.014   2.176  1.1591  0.0375 -0.6715
19847SOL     OW60703   8.585   0.540   3.753  0.3390 -0.1472  0.1688
19847SOL    HW160704   8.621   0.512   3.838 -1.8629  2.6091  2.1997
19847SOL    HW260705   8.644   0.610   3.725  0.2360 -0.0752  0.1350
19848SOL     OW60706   7.135   3.870   6.816  0.1795 -0.0983  0.2642
19848SOL    HW160707   7.094   3.789   6.787 -0.3557  0.5419 -0.8424
19848SOL    HW260708   7.225   3.845   6.837  0.7295 -0.6001 -2.2793
19849SOL     OW60709   4.695   5.965   0.793  0.1461 -0.3678  0.3883
19849SOL    HW160710   4.636   5.934   0.724  1.0769 -0.3897 -0.4119
19849SOL    HW260711   4.749   5.889   0.816 -0.8896 -0.6861  1.9654
19850SOL     OW60712   4.924   4.154   8.658  0.0593  0.2675 -0.1031
19850SOL    HW160713   4.950   4.127   8.570 -0.9668  1.2498 -0.7413
19850SOL    HW260714   4.887   4.075   8.698  2.1530 -0.6481  0.1285
19851SOL     OW60715   6.431   4.648   7.613  0.0302  0.1213  0.2565
19851SOL    HW160716   6.514   4.602   7.619 -0.7493 -1.2591  0.9680
19851SOL    HW260717   6.400   4.631   7.524 -0.8757 -1.9653  0.8941
19852SOL     OW60718   8.498   5.141   8.165  0.4300 -0.7001  0.1431
19852SOL    HW160719   8.543   5.131   8.249 -0.6369 -2.2583  0.5795
19852SOL    HW260720   8.461   5.054   8.147  0.4079 -0.3367 -1.8228
19853SOL     OW60721   8.413   0.167   5.892 -0.2893  0.0233  0.0665
19853SOL    HW160722   8.428   0.260   5.909  0.3484  0.0242 -0.5091
19853SOL    HW260723   8.317   0.160   5.884 -0.3661  0.5688  0.4163
19854SOL     OW60724   0.310   5.737   7.287 -0.0176 -0.0735 -0.1779
19854SOL    HW160725   0.277   5.658   7.243 -0.7624 -0.1716  0.5300
19854SOL    HW260726   0.247   5.805   7.264 -0.4628 -0.1439  0.7675
19855SOL     OW60727   6.358   2.911   0.758 -0.6096 -0.4664  0.1834
19855SOL    HW160728   6.324   2.958   0.682  0.1046 -0.9923 -0.4746
19855SOL    HW260729   6.438   2.868   0.726 -2.0868 -3.5453  0.2494
19856SOL     OW60730   2.334   7.651   3.928  0.8296  0.3289  0.3422
19856SOL    HW160731   2.255   7.623   3.882  0.5164 -1.5351  1.8944
19856SOL    HW260732   2.324   7.745   3.939 -1.3996  0.0719  0.8503
19857SOL     OW60733   1.057   1.362   3.250 -0.5472  0.0002  0.0081
19857SOL    HW160734   1.101   1.392   3.330 -0.9018 -0.6958  0.4676
19857SOL    HW260735   0.964   1.363   3.272 -0.8683  1.9685 -1.1187
19858SOL     OW60736   2.281   1.641   3.370 -0.2578 -0.1609 -0.2274
19858SOL    HW160737   2.274   1.614   3.278 -0.7755  0.4159 -0.3611
19858SOL    HW260738   2.362   1.601   3.400  0.2782  0.2045 -1.1354
19859SOL     OW60739   5.300   4.511   8.238 -0.2320 -0.2078  1.0013
19859SOL    HW160740   5.382   4.535   8.280  0.1824  0.0488  0.0738
19859SOL    HW260741   5.287   4.419   8.261  0.6500 -0.4289  0.6369
19860SOL     OW60742   1.594   2.010   8.374 -0.7769  0.1435  0.4301
19860SOL    HW160743   1.635   2.094   8.352 -1.8096  0.8011  0.9681
19860SOL    HW260744   1.534   1.993   8.301 -0.8626  0.0721  0.5185
19861SOL     OW60745   1.416   0.668   1.779  0.2755 -0.0718 -0.6104
19861SOL    HW160746   1.401   0.718   1.860 -0.7834 -2.4187  0.7704
19861SOL    HW260747   1.340   0.689   1.724 -1.5234 -1.8693  0.9795
19862SOL     OW60748   7.528   4.938   0.510  0.2039  0.3898  0.0599
19862SOL    HW160749   7.556   4.963   0.598  0.1716  2.8306 -0.5516
19862SOL    HW260750   7.609   4.937   0.458  0.0676  0.2064 -0.1502
19863SOL     OW60751   4.636   7.362   2.227 -0.3610  0.3907  0.7331
19863SOL    HW160752   4.722   7.323   2.212 -0.7882 -0.3577  0.1867
19863SOL    HW260753   4.627   7.427   2.158 -0.8473 -0.5815 -0.1471
19864SOL     OW60754   0.461   3.109   5.834  0.0635 -0.3914  0.4025
19864SOL    HW160755   0.442   3.024   5.875  0.8718 -0.8645 -0.1843
19864SOL    HW260756   0.495   3.087   5.748  1.9145  0.4706  0.8687
19865SOL     OW60757   2.258   8.105   6.989  0.2267  0.6425  0.1777
19865SOL    HW160758   2.348   8.095   6.959  0.7425  0.9626  1.5853
19865SOL    HW260759   2.263   8.104   7.084 -1.0890  2.0703  0.3105
19866SOL     OW60760   8.820   2.492   0.967 -0.9476 -0.2869 -0.2760
19866SOL    HW160761   8.818   2.543   1.048 -1.9952  0.2000 -0.5879
19866SOL    HW260762   8.847   2.555   0.899  1.4639 -1.0452 -0.1026
19867SOL     OW60763   2.625   6.317   8.561  0.2551 -0.4875  0.0329
19867SOL    HW160764   2.546   6.326   8.508 -0.5791 -0.8521  1.1903
19867SOL    HW260765   2.670   6.401   8.551 -0.2711 -0.2702 -0.6298
19868SOL     OW60766   3.330   8.797   3.104 -0.2903  0.4902  0.2944
19868SOL    HW160767   3.338   8.703   3.086 -0.3693  0.4877  0.2722
19868SOL    HW260768   3.400   8.837   3.053  1.0788  0.2520  1.8932
19869SOL     OW60769   7.316   2.600   0.373  0.3839  0.4563 -0.4152
19869SOL    HW160770   7.394   2.578   0.424 -1.9456  1.8522  4.4156
19869SOL    HW260771   7.257   2.525   0.385 -0.6455  1.2952 -0.0085
19870SOL     OW60772   3.985   7.405   0.566 -0.4231  0.2880 -0.0291
19870SOL    HW160773   4.075   7.421   0.594 -0.3241  1.2796 -0.8613
19870SOL    HW260774   3.939   7.487   0.585 -0.4554  0.8464 -2.2684
19871SOL     OW60775   7.164   8.560   1.757  0.0985  0.6206 -0.0416
19871SOL    HW160776   7.256   8.535   1.752 -0.0554 -0.7927  2.2966
19871SOL    HW260777   7.159   8.620   1.831 -1.0130 -0.4454  0.7977
19872SOL     OW60778   7.501   4.987   7.662  0.5947  0.0788 -0.6341
19872SOL    HW160779   7.468   4.905   7.627  2.1250 -0.3746 -1.0939
19872SOL    HW260780   7.436   5.052   7.636 -0.7871 -1.0044 -0.0140
19873SOL     OW60781   5.398   0.379   2.690 -0.1547 -0.0931  0.4338
19873SOL    HW160782   5.481   0.351   2.650 -0.1076 -1.2507  1.3074
19873SOL    HW260783   5.333   0.367   2.620  0.2160 -0.3308  0.1218
19874SOL     OW60784   5.777   4.037   7.501  0.0057 -0.1957 -0.5092
19874SOL    HW160785   5.853   3.986   7.529  0.6785  0.5108 -0.9710
19874SOL    HW260786   5.815   4.121   7.472 -1.0475  0.5498  0.2007
19875SOL     OW60787   4.092   4.601   8.016 -0.0501 -0.4161  0.8112
19875SOL    HW160788   4.068   4.684   7.975 -0.7156  0.2286  2.4381
19875SOL    HW260789   4.142   4.554   7.949  0.3055  1.2829 -0.1507
19876SOL     OW60790   5.408   5.504   4.675  0.6663 -0.4048  0.2177
19876SOL    HW160791   5.326   5.532   4.716 -0.9562 -0.4284 -2.7505
19876SOL    HW260792   5.440   5.581   4.629  0.9042 -1.0527 -0.7390
19877SOL     OW60793   4.545   6.694   6.915  0.4167 -0.1428 -0.1712
19877SOL    HW160794   4.613   6.758   6.939  0.0042 -0.0979  0.9743
19877SOL    HW260795   4.541   6.635   6.991 -0.6227 -0.3089 -0.3472
19878SOL     OW60796   4.722   7.588   7.419 -0.0672  0.0345 -0.2621
19878SOL    HW160797   4.758   7.501   7.436  1.4249  0.0002 -3.0335
19878SOL    HW260798   4.724   7.632   7.505  0.6533 -2.1053  0.8931
19879SOL     OW60799   3.240   2.515   7.494  0.6091  0.5123 -0.1829
19879SOL    HW160800   3.288   2.433   7.484 -0.8233 -0.2599 -1.0316
19879SOL    HW260801   3.274   2.571   7.425  0.8746  0.2659 -0.2538
19880SOL     OW60802   0.626   7.159   4.778  0.1450  0.1160 -0.2384
19880SOL    HW160803   0.566   7.117   4.839  1.1880  0.1073  0.7927
19880SOL    HW260804   0.582   7.242   4.755 -0.0228  0.3669  0.9382
19881SOL     OW60805   5.343   8.087   4.500 -0.0982  0.0471  0.7369
19881SOL    HW160806   5.313   8.095   4.409 -1.6691 -0.8932  1.1338
19881SOL    HW260807   5.347   8.178   4.532 -1.7656  0.2649  0.3979
19882SOL     OW60808   3.862   6.264   5.895 -0.3269  0.4793  0.4570
19882SOL    HW160809   3.826   6.347   5.863 -0.0304  0.7695  0.8583
19882SOL    HW260810   3.799   6.198   5.867 -0.8048  0.8928  0.5323
19883SOL     OW60811   0.100   0.598   3.400  0.1195  0.0934 -0.1282
19883SOL    HW160812   0.070   0.623   3.313 -0.1066 -0.8037 -0.3184
19883SOL    HW260813   0.093   0.502   3.402 -0.4050  0.1299  1.0600
19884SOL     OW60814   4.940   2.047   1.685 -0.5410  0.4847  0.3397
19884SOL    HW160815   4.884   1.980   1.723 -0.0419  0.9198  1.9173
19884SOL    HW260816   4.935   2.032   1.590 -1.6060 -0.8129  0.5743
19885SOL     OW60817   0.551   6.895   0.822 -0.0699  0.0846  0.2246
19885SOL    HW160818   0.456   6.891   0.809 -0.1232 -0.4835  0.7900
19885SOL    HW260819   0.578   6.805   0.835  0.8360 -0.0020 -1.8296
19886SOL     OW60820   0.631   6.763   0.154 -0.0668  0.6401  0.7706
19886SOL    HW160821   0.639   6.682   0.204  0.9580 -0.3781 -0.9273
19886SOL    HW260822   0.544   6.796   0.175 -2.3898 -3.1728 -1.6632
19887SOL     OW60823   8.770   3.037   5.931  0.0001 -0.0250 -0.3334
19887SOL    HW160824   8.681   3.070   5.926 -0.1915 -0.4182  0.2561
19887SOL    HW260825   8.822   3.111   5.962 -0.2298  0.0383 -0.0935
19888SOL     OW60826   1.850   5.899   4.806  0.2726  0.7270  0.7139
19888SOL    HW160827   1.853   5.869   4.897 -2.0617 -0.3007  0.5397
19888SOL    HW260828   1.760   5.932   4.796  0.1089 -0.2617 -1.5146
19889SOL     OW60829   6.947   1.207   4.538  0.3637 -0.0505 -0.3182
19889SOL    HW160830   6.899   1.129   4.511  0.9714 -0.0283 -1.5050
19889SOL    HW260831   7.035   1.176   4.559 -0.0362 -0.0467  1.5855
19890SOL     OW60832   0.323   7.242   8.099 -0.0960  0.5075  0.1477
19890SOL    HW160833   0.358   7.156   8.122 -1.0039 -0.2864 -1.2561
19890SOL    HW260834   0.359   7.301   8.164  0.2660 -1.0000  1.3725
19891SOL     OW60835   5.631   0.816   6.783  0.2124 -0.1856 -0.2764
19891SOL    HW160836   5.682   0.761   6.843 -0.9503 -2.1019 -0.9535
19891SOL    HW260837   5.691   0.886   6.758  3.0956 -3.0306 -2.0795
19892SOL     OW60838   6.517   5.122   2.851  0.2558 -0.1491  0.5122
19892SOL    HW160839   6.426   5.097   2.868  0.3126  0.6502  2.2641
19892SOL    HW260840   6.530   5.103   2.758 -0.8463 -2.8611  0.8182
19893SOL     OW60841   5.265   4.473   2.263 -0.2275  0.3455 -0.0836
19893SOL    HW160842   5.321   4.502   2.191 -0.1831  0.6391  0.0695
19893SOL    HW260843   5.295   4.384   2.281  0.9416  0.8804  0.7324
19894SOL     OW60844   8.039   8.707   6.795 -0.5185  0.1647  0.2707
19894SOL    HW160845   8.058   8.711   6.701 -0.5824  2.1202  0.2996
19894SOL    HW260846   8.009   8.795   6.817 -1.0997 -0.4280  2.0182
19895SOL     OW60847   4.340   1.048   8.558  0.2115 -0.0590 -0.0638
19895SOL    HW160848   4.311   1.135   8.529  1.2377  0.9467  1.7292
19895SOL    HW260849   4.434   1.046   8.538  0.5940  0.0247  1.5260
19896SOL     OW60850   3.892   4.598   5.716  0.6481  0.5477  0.2354
19896SOL    HW160851   3.812   4.645   5.741  0.0390  0.4569 -1.4131
19896SOL    HW260852   3.862   4.511   5.691  1.8214 -1.0067  3.6753
19897SOL     OW60853   4.941   0.537   7.988 -0.1142 -0.9224  0.3623
19897SOL    HW160854   4.928   0.474   8.059 -0.1977 -1.8731 -0.4914
19897SOL    HW260855   4.854   0.574   7.973 -0.6716 -2.7072 -1.0727
19898SOL     OW60856   5.130   8.176   7.274 -0.0247  0.0125  0.5190
19898SOL    HW160857   5.142   8.160   7.368  2.2222 -0.6589  0.1649
19898SOL    HW260858   5.053   8.124   7.251 -1.0518  0.7493  2.1036
19899SOL     OW60859   5.447   6.805   1.116 -0.4562  0.5260  0.1789
19899SOL    HW160860   5.424   6.799   1.023 -0.9180  1.5007  0.2108
19899SOL    HW260861   5.489   6.722   1.137  1.7239  1.1289 -1.4664
19900SOL     OW60862   7.150   2.705   1.936 -0.5992  0.5676 -0.5007
19900SOL    HW160863   7.139   2.772   1.868 -0.7273  2.5996  1.3895
19900SOL    HW260864   7.067   2.706   1.984  0.5202  1.4962  1.5659
19901SOL     OW60865   7.596   1.958   6.235 -0.5274 -1.1240 -0.3621
19901SOL    HW160866   7.656   1.902   6.284 -0.9996 -2.1532 -0.9433
19901SOL    HW260867   7.641   1.977   6.153  0.0134  0.1216  0.1871
19902SOL     OW60868   0.968   2.648   0.989 -0.0602 -0.2151  0.6732
19902SOL    HW160869   0.953   2.602   0.907  0.4948  0.5100  0.1505
19902SOL    HW260870   0.881   2.669   1.022 -0.2843  0.1280 -0.1131
19903SOL     OW60871   8.723   8.741   1.941  0.3332 -0.2025  0.0436
19903SOL    HW160872   8.747   8.649   1.953 -0.0682 -0.1644  1.2272
19903SOL    HW260873   8.806   8.785   1.920  0.6888 -0.6726  0.4515
19904SOL     OW60874   4.771   7.395   7.653  0.2726 -0.2421 -0.1653
19904SOL    HW160875   4.680   7.424   7.658  0.3225  0.0674 -0.8728
19904SOL    HW260876   4.787   7.350   7.736 -0.6495 -0.6635 -0.2099
19905SOL     OW60877   0.868   4.827   3.603 -0.1387  0.3614 -0.0032
19905SOL    HW160878   0.777   4.813   3.580 -0.4662  0.7622  0.9911
19905SOL    HW260879   0.918   4.776   3.539 -1.1287 -2.8831  1.6322
19906SOL     OW60880   4.926   6.245   7.821 -0.0955 -0.1840 -0.2990
19906SOL    HW160881   4.851   6.258   7.879  0.9717  0.6117  0.9393
19906SOL    HW260882   4.969   6.331   7.818  0.8319 -0.6546 -0.9049
19907SOL     OW60883   3.293   5.116   5.317 -0.0694 -0.1446 -0.0183
19907SOL    HW160884   3.216   5.170   5.338 -0.6528 -1.0951  0.3721
19907SOL    HW260885   3.305   5.061   5.394 -0.7373 -1.9956 -1.1806
19908SOL     OW60886   6.683   1.729   6.673  0.2696 -0.1808  0.2076
19908SOL    HW160887   6.746   1.702   6.740  0.8151  0.1236 -0.1653
19908SOL    HW260888   6.723   1.807   6.634  1.0807 -1.5665 -1.9609
19909SOL     OW60889   0.836   1.024   7.165 -0.5914  0.5279  0.6765
19909SOL    HW160890   0.753   0.979   7.182 -0.0388 -1.1576 -0.8447
19909SOL    HW260891   0.886   1.014   7.247 -2.4370  3.1036  2.2895
19910SOL     OW60892   3.200   7.183   6.858  0.2286  0.5109 -0.6571
19910SOL    HW160893   3.158   7.266   6.835  0.9524  1.3336  0.8286
19910SOL    HW260894   3.136   7.116   6.833 -3.3160  1.7390  3.8306
19911SOL     OW60895   5.750   1.543   5.650 -0.0829  0.3538  0.1022
19911SOL    HW160896   5.729   1.620   5.704 -2.2855  1.3563 -1.9604
19911SOL    HW260897   5.734   1.573   5.560  0.4454 -2.1053 -0.8796
19912SOL     OW60898   8.368   3.272   7.570  0.0140 -0.5228  0.2014
19912SOL    HW160899   8.456   3.272   7.531 -0.3750  3.6616 -1.1441
19912SOL    HW260900   8.314   3.223   7.508  0.5760  0.9125 -1.5061
19913SOL     OW60901   1.021   6.326   2.000 -0.2139 -0.1596 -0.0397
19913SOL    HW160902   0.969   6.377   1.938 -0.2770  0.0445  0.1812
19913SOL    HW260903   1.064   6.260   1.946 -0.1131  0.1428 -0.3305
19914SOL     OW60904   7.117   7.763   1.987 -0.0260 -0.3583 -0.0042
19914SOL    HW160905   7.201   7.753   2.031 -1.4262  0.3951  3.0696
19914SOL    HW260906   7.077   7.676   1.991  0.6285 -0.7860 -1.7092
19915SOL     OW60907   0.788   0.215   6.070  0.0528 -0.0657 -0.0857
19915SOL    HW160908   0.693   0.223   6.084  0.1305 -1.0519  1.1970
19915SOL    HW260909   0.798   0.210   5.975 -0.9222  2.9333 -0.4644
19916SOL     OW60910   3.918   5.411   1.699 -0.1486  0.1765 -0.6235
19916SOL    HW160911   3.978   5.362   1.642 -0.2316  0.5519 -1.0416
19916SOL    HW260912   3.915   5.499   1.660  1.8751  1.2778  1.4509
19917SOL     OW60913   7.917   2.058   6.671  0.0217  0.5227  0.3738
19917SOL    HW160914   7.922   1.980   6.726 -0.7408  0.8742  0.9701
19917SOL    HW260915   7.958   2.032   6.588  0.5577 -0.2335  0.8566
19918SOL     OW60916   6.947   3.202   4.535  0.2616 -0.1843 -0.2098
19918SOL    HW160917   6.989   3.207   4.449  0.8712  0.2039  0.1048
19918SOL    HW260918   6.898   3.120   4.533 -1.8019  0.9921 -1.8520
19919SOL     OW60919   6.382   7.906   3.820  0.7342  0.1636 -0.3594
19919SOL    HW160920   6.302   7.855   3.814  0.2564  0.9781 -1.0834
19919SOL    HW260921   6.399   7.913   3.914  0.7679 -1.2268 -0.2417
19920SOL     OW60922   2.882   4.359   8.312  0.0929  0.4480 -0.0955
19920SOL    HW160923   2.896   4.323   8.399 -1.4479  0.9558  0.4043
19920SOL    HW260924   2.895   4.453   8.323  1.7601  0.3308 -0.8575
19921SOL     OW60925   6.059   7.019   3.665  0.1657 -0.4278 -0.0882
19921SOL    HW160926   6.085   7.051   3.579  3.3456  0.8415  1.1979
19921SOL    HW260927   6.014   6.936   3.647  1.5779 -0.6996 -2.9016
19922SOL     OW60928   4.400   4.363   0.226  0.2470  0.4523 -0.2110
19922SOL    HW160929   4.347   4.410   0.291  0.4347 -2.2210  2.0821
19922SOL    HW260930   4.490   4.392   0.244  0.1780  0.5379  0.0045
19923SOL     OW60931   6.243   4.882   0.527  0.4527 -0.3204 -0.1627
19923SOL    HW160932   6.294   4.907   0.604  1.6273  0.4385 -1.1407
19923SOL    HW260933   6.217   4.791   0.543  2.3238 -0.8111  0.2805
19924SOL     OW60934   8.677   6.330   1.053  0.1341 -0.1129 -0.0477
19924SOL    HW160935   8.658   6.275   1.129  0.8309 -0.7577 -0.3170
19924SOL    HW260936   8.746   6.390   1.083 -2.3175  2.3649  0.9925
19925SOL     OW60937   1.220   1.801   4.772 -0.6944  0.1243 -0.3913
19925SOL    HW160938   1.254   1.732   4.714 -0.6397  0.4840 -0.7949
19925SOL    HW260939   1.125   1.791   4.767 -0.6729 -0.3472  0.0782
19926SOL     OW60940   0.626   8.110   5.056  0.5379  0.0480 -0.0422
19926SOL    HW160941   0.667   8.129   5.141  1.2545  0.4581 -0.4657
19926SOL    HW260942   0.584   8.192   5.031 -1.5195 -0.6613  0.8824
19927SOL     OW60943   8.350   7.084   0.196 -0.2210  0.0652  0.3667
19927SOL    HW160944   8.308   7.036   0.124  1.7046 -0.9562 -0.1330
19927SOL    HW260945   8.341   7.025   0.271  0.5250 -0.2638  0.1993
19928SOL     OW60946   4.120   0.282   5.313 -0.3643 -0.2669 -0.7351
19928SOL    HW160947   4.209   0.251   5.327  0.7104  1.6938 -2.6295
19928SOL    HW260948   4.071   0.250   5.389  2.0520 -0.9174  0.6439
19929SOL     OW60949   2.092   3.276   4.226  0.4560 -0.0292 -0.0807
19929SOL    HW160950   2.183   3.306   4.238  0.7715 -0.8480 -0.3664
19929SOL    HW260951   2.100   3.193   4.179 -0.4753  0.1686 -0.6125
19930SOL     OW60952   4.296   6.836   1.956  0.3216  0.0188 -0.8100
19930SOL    HW160953   4.293   6.918   2.006  0.0755  0.4658 -1.5517
19930SOL    HW260954   4.389   6.816   1.947  0.4289  0.8748 -1.6869
19931SOL     OW60955   2.950   0.925   5.124 -0.8121  0.1530  0.0617
19931SOL    HW160956   2.971   0.975   5.045  1.0652 -0.2461  0.2571
19931SOL    HW260957   3.031   0.925   5.175 -1.9177  0.2450  1.9306
19932SOL     OW60958   3.923   3.481   1.797  0.1490  0.7758 -0.4071
19932SOL    HW160959   4.010   3.500   1.763  1.8123 -0.1453  2.8990
19932SOL    HW260960   3.865   3.493   1.722  3.2327  0.0454 -3.1465
19933SOL     OW60961   3.793   6.320   4.283 -0.1872  0.4070 -0.1407
19933SOL    HW160962   3.759   6.274   4.206  0.2803 -0.6172  0.2605
19933SOL    HW260963   3.816   6.251   4.345  0.8876  1.1560  0.3225
19934SOL     OW60964   7.123   2.012   3.752 -0.5965 -0.6190 -0.1956
19934SOL    HW160965   7.129   1.945   3.685  3.1574 -0.4682 -0.2331
19934SOL    HW260966   7.214   2.036   3.770 -1.5854  1.5258  2.7719
19935SOL     OW60967   0.833   4.471   6.936  0.4208  0.4203  0.0438
19935SOL    HW160968   0.926   4.454   6.949  0.6119  1.2294 -0.2372
19935SOL    HW260969   0.791   4.436   7.015  0.9348 -0.1131  0.0889
19936SOL     OW60970   8.457   3.330   3.826 -0.4939  0.0506 -0.2063
19936SOL    HW160971   8.401   3.265   3.869  0.3041 -0.0523  0.7039
19936SOL    HW260972   8.543   3.289   3.823 -0.5272  0.0412 -1.9757
19937SOL     OW60973   0.683   3.372   6.172 -0.3916  0.1704 -0.2673
19937SOL    HW160974   0.591   3.355   6.193 -0.3120 -0.5966 -0.5150
19937SOL    HW260975   0.699   3.322   6.093 -0.3590  2.0693 -1.5155
19938SOL     OW60976   3.167   6.071   1.321  0.0530  0.2467  0.0183
19938SOL    HW160977   3.244   6.128   1.325 -0.4504  0.9705 -0.3635
19938SOL    HW260978   3.142   6.057   1.412  1.3242 -0.9652  0.2145
19939SOL     OW60979   8.322   3.574   7.991  0.2170  0.0668  0.0346
19939SOL    HW160980   8.294   3.548   7.903  1.1432 -0.7881 -0.0251
19939SOL    HW260981   8.323   3.670   7.988  1.0953  0.0516 -1.1810
19940SOL     OW60982   5.323   7.650   1.458 -0.0247  0.3386  0.4885
19940SOL    HW160983   5.326   7.745   1.452 -1.6914  0.4211  0.3965
19940SOL    HW260984   5.289   7.622   1.373  0.9025 -0.3826  0.3413
19941SOL     OW60985   4.174   6.237   2.556 -0.1916 -0.6250 -0.6223
19941SOL    HW160986   4.135   6.316   2.592  0.3958 -0.9588  0.8101
19941SOL    HW260987   4.152   6.240   2.462 -2.4400 -0.1145 -0.1373
19942SOL     OW60988   4.658   7.212   1.568  0.1447  0.4275  0.0424
19942SOL    HW160989   4.652   7.220   1.472  0.2544 -1.6864 -0.1964
19942SOL    HW260990   4.707   7.130   1.582  0.7963  1.0862  1.9239
19943SOL     OW60991   7.724   2.301   6.156  0.9367  0.4989 -0.3981
19943SOL    HW160992   7.695   2.358   6.227 -0.6648 -0.7435  0.0119
19943SOL    HW260993   7.697   2.346   6.076  3.3966  2.2557 -0.3253
19944SOL     OW60994   3.737   1.543   2.038  0.0107 -0.2671 -0.0519
19944SOL    HW160995   3.694   1.587   1.965  1.3686  0.2758 -0.5532
19944SOL    HW260996   3.774   1.614   2.090  1.9543 -0.7604 -0.6943
19945SOL     OW60997   7.291   6.413   4.091  0.0835  0.0711  0.4975
19945SOL    HW160998   7.344   6.458   4.025  0.1966 -0.3020  0.3271
19945SOL    HW260999   7.320   6.321   4.085  1.2375  0.2925  2.1605
19946SOL     OW61000   8.555   2.053   6.336  0.2944 -0.1131 -0.9940
19946SOL    HW161001   8.639   2.068   6.292  0.3197  0.1837 -0.8488
19946SOL    HW261002   8.490   2.092   6.277  0.3224  0.2280 -0.8023
19947SOL     OW61003   7.517   3.908   2.038 -0.2489 -0.0046 -0.8229
19947SOL    HW161004   7.561   3.991   2.056 -0.2786  0.4281 -2.5418
19947SOL    HW261005   7.424   3.927   2.053 -0.0762 -0.3138  0.7343
19948SOL     OW61006   6.326   5.412   0.748  0.4657  0.0065  0.7202
19948SOL    HW161007   6.273   5.358   0.807  0.1300 -1.2958 -0.7166
19948SOL    HW261008   6.396   5.355   0.719  0.1581  0.3459 -0.7776
19949SOL     OW61009   2.425   4.140   4.686  0.4092 -0.3107 -0.3327
19949SOL    HW161010   2.403   4.107   4.773  0.3437  2.6555  0.9072
19949SOL    HW261011   2.341   4.160   4.645  0.4263  1.7150  0.4714
19950SOL     OW61012   3.470   1.065   3.024  0.0433 -0.5533  0.7213
19950SOL    HW161013   3.496   0.991   2.969  1.5028  0.6981 -0.3521
19950SOL    HW261014   3.425   1.025   3.098 -1.0810 -2.3846 -0.8380
19951SOL     OW61015   6.490   0.809   7.746  0.1830  0.7169 -0.3034
19951SOL    HW161016   6.466   0.886   7.798 -1.5883  0.3532 -0.5133
19951SOL    HW261017   6.448   0.736   7.792 -0.2216  0.2059 -1.4600
19952SOL     OW61018   3.131   3.881   3.723 -0.4283 -0.0752  0.4065
19952SOL    HW161019   3.180   3.961   3.704 -2.3213  1.5435  1.8725
19952SOL    HW261020   3.158   3.857   3.812 -0.9469 -0.2308  0.5243
19953SOL     OW61021   1.382   2.198   6.793 -0.1521 -0.5940  0.0896
19953SOL    HW161022   1.393   2.280   6.840  0.3758 -0.6366  0.0453
19953SOL    HW261023   1.298   2.206   6.748  0.8733  0.7946 -1.6939
19954SOL     OW61024   2.095   2.379   4.567  0.2034 -0.0161 -0.1977
19954SOL    HW161025   2.072   2.446   4.502  0.6299  0.5952  0.2619
19954SOL    HW261026   2.123   2.304   4.516 -0.7602 -0.0264 -0.7349
19955SOL     OW61027   7.305   5.065   0.373  0.0233  0.0257  0.4943
19955SOL    HW161028   7.376   5.020   0.419 -0.0095  0.7207  1.2385
19955SOL    HW261029   7.291   5.013   0.294  1.4294 -0.0600  0.2858
19956SOL     OW61030   5.498   0.599   5.735  0.2503 -0.0451  0.2878
19956SOL    HW161031   5.461   0.653   5.665  0.9737 -0.5286 -0.4859
19956SOL    HW261032   5.468   0.510   5.715 -0.1120 -0.0805  0.9884
19957SOL     OW61033   5.821   6.784   2.234  0.0539 -0.9559 -0.3694
19957SOL    HW161034   5.854   6.758   2.320  1.1892  0.4646 -0.3280
19957SOL    HW261035   5.726   6.793   2.246  0.2995  0.2243  1.0472
19958SOL     OW61036   1.739   5.970   1.932  0.8469  0.4807  0.5252
19958SOL    HW161037   1.765   5.879   1.923  3.0179  1.2027 -1.3795
19958SOL    HW261038   1.811   6.013   1.978 -0.4976  1.1545  2.1435
19959SOL     OW61039   0.491   2.852   0.164  0.3607  0.7186 -0.0420
19959SOL    HW161040   0.452   2.839   0.077  0.5729 -0.7927  0.0602
19959SOL    HW261041   0.554   2.780   0.172 -0.3809  0.2348  1.7709
19960SOL     OW61042   5.337   3.360   4.921  0.2026 -0.2125 -0.2166
19960SOL    HW161043   5.402   3.300   4.883 -0.3212  0.1707 -1.8066
19960SOL    HW261044   5.383   3.405   4.991  1.9669  0.6300 -1.8112
19961SOL     OW61045   6.572   8.495   1.677 -0.3993 -0.4586  0.4126
19961SOL    HW161046   6.592   8.416   1.625 -0.3627 -0.5989  0.6362
19961SOL    HW261047   6.642   8.498   1.742 -0.9382 -0.7781  1.0089
19962SOL     OW61048   0.957   5.347   6.791  0.1397  0.6762 -0.4682
19962SOL    HW161049   0.999   5.271   6.831 -1.0429 -0.3751 -1.1680
19962SOL    HW261050   0.942   5.321   6.700 -2.3142  0.8419 -0.1750
19963SOL     OW61051   5.815   8.306   6.147  0.2767  0.0853  0.1179
19963SOL    HW161052   5.831   8.233   6.206  1.5681  0.1886 -0.0678
19963SOL    HW261053   5.888   8.366   6.163  1.7961 -0.7598 -2.8797
19964SOL     OW61054   6.101   4.205   6.221 -0.0527  0.2631 -0.3042
19964SOL    HW161055   6.178   4.213   6.164 -0.5087 -0.4055 -1.0219
19964SOL    HW261056   6.100   4.113   6.247 -1.3296 -0.0453 -1.3410
19965SOL     OW61057   6.362   4.456   6.624  0.4780  0.1329 -0.5251
19965SOL    HW161058   6.387   4.548   6.622 -0.0855  0.2969 -0.1562
19965SOL    HW261059   6.304   4.445   6.549 -1.5237  0.7038  0.8422
19966SOL     OW61060   0.948   3.035   6.820 -0.3965 -0.2222  0.0863
19966SOL    HW161061   1.005   3.101   6.778 -0.9226 -1.2313 -2.4247
19966SOL    HW261062   1.008   2.967   6.849 -0.1605 -0.5157 -1.0466
19967SOL     OW61063   8.834   2.349   1.546 -0.3658  0.0608 -0.2985
19967SOL    HW161064   8.779   2.272   1.533  0.2658 -0.7188  1.3591
19967SOL    HW261065   8.923   2.314   1.557 -0.0479  1.0211  0.3485
19968SOL     OW61066   8.421   2.091   6.578  0.1183  0.0134 -0.4231
19968SOL    HW161067   8.448   2.057   6.493  1.0632  0.2890 -0.2461
19968SOL    HW261068   8.326   2.101   6.571  0.1302 -0.3944 -1.2869
19969SOL     OW61069   8.505   6.352   1.484  0.6670 -0.1950  0.0705
19969SOL    HW161070   8.498   6.416   1.413  1.1284  0.1335  0.3118
19969SOL    HW261071   8.574   6.292   1.455 -1.8709 -2.5457 -1.6351
19970SOL     OW61072   1.336   5.587   5.468 -0.1087 -0.5625  0.7853
19970SOL    HW161073   1.392   5.629   5.534  0.8187  0.1751 -0.4457
19970SOL    HW261074   1.388   5.588   5.388 -1.4268 -0.9832 -0.1020
19971SOL     OW61075   5.833   4.375   7.857 -0.1857  0.0034 -0.0771
19971SOL    HW161076   5.912   4.420   7.886 -0.2004 -1.1227  1.9199
19971SOL    HW261077   5.831   4.388   7.762  2.4675 -0.0483 -0.2110
19972SOL     OW61078   1.277   4.529   5.758 -0.2429 -0.3573  0.3971
19972SOL    HW161079   1.303   4.481   5.679 -0.8635  0.9693 -0.6508
19972SOL    HW261080   1.354   4.583   5.779 -1.0126  1.4166 -1.0242
19973SOL     OW61081   2.231   2.450   8.328  0.0947 -0.4287 -0.1745
19973SOL    HW161082   2.300   2.505   8.366 -0.5868 -0.2967  0.9228
19973SOL    HW261083   2.277   2.372   8.298  0.8824  0.1509 -0.5241
19974SOL     OW61084   3.514   0.437   7.179  0.1464 -0.3174  0.0466
19974SOL    HW161085   3.547   0.367   7.235  0.9889  0.6625  0.8345
19974SOL    HW261086   3.541   0.413   7.091 -1.2009 -1.8945  0.0298
19975SOL     OW61087   3.163   7.283   1.372  0.0120 -0.2962 -0.4018
19975SOL    HW161088   3.227   7.341   1.331  0.7422 -0.2540  0.7622
19975SOL    HW261089   3.122   7.237   1.299  0.7203  0.3457 -1.2212
19976SOL     OW61090   0.291   1.750   6.127  0.7725  0.4666 -0.1923
19976SOL    HW161091   0.307   1.732   6.220  0.1783 -0.1516 -0.2060
19976SOL    HW261092   0.351   1.822   6.107 -0.0970  1.5737  1.0137
19977SOL     OW61093   6.618   5.663   2.524 -0.1454 -0.4338  0.5594
19977SOL    HW161094   6.639   5.628   2.437 -1.6956  1.6683 -0.7549
19977SOL    HW261095   6.682   5.734   2.537 -1.5651  1.0226 -0.1164
19978SOL     OW61096   3.192   1.500   0.148  0.1647  0.5259 -0.3461
19978SOL    HW161097   3.128   1.429   0.152  0.6245  0.1381  0.4626
19978SOL    HW261098   3.270   1.460   0.109  0.4228  0.5756  0.1039
19979SOL     OW61099   8.218   5.920   4.693  0.3393  0.1892  0.3928
19979SOL    HW161100   8.307   5.939   4.721  0.2791  1.0471  0.0544
19979SOL    HW261101   8.195   5.993   4.635  0.1514 -1.0967 -1.2034
19980SOL     OW61102   6.398   1.898   6.614  0.1051 -0.0923  0.3876
19980SOL    HW161103   6.335   1.834   6.647 -0.1786  0.3895  0.7799
19980SOL    HW261104   6.424   1.949   6.691 -2.2172  2.5080 -0.3640
19981SOL     OW61105   4.105   3.555   1.451 -0.0552  0.1268 -0.2058
19981SOL    HW161106   4.089   3.461   1.462 -0.8644  0.3725  0.8588
19981SOL    HW261107   4.055   3.578   1.373 -0.2484 -0.2352 -0.1944
19982SOL     OW61108   8.653   5.095   0.266 -0.0783 -0.0324 -0.8083
19982SOL    HW161109   8.635   5.182   0.303 -0.1562 -1.2413  2.2601
19982SOL    HW261110   8.744   5.079   0.287  0.5610  0.0785 -3.2337
19983SOL     OW61111   2.996   7.019   3.343  0.0186 -0.0318 -0.2645
19983SOL    HW161112   2.990   7.052   3.433 -0.2350 -0.2993 -0.1803
19983SOL    HW261113   2.922   7.060   3.298 -1.0048 -1.3541  0.1296
19984SOL     OW61114   1.615   5.352   5.307 -0.3188  0.1901 -0.3469
19984SOL    HW161115   1.674   5.425   5.321 -0.3999  0.2557 -0.3431
19984SOL    HW261116   1.594   5.320   5.395  1.1109 -0.9750 -0.3820
19985SOL     OW61117   0.588   8.383   2.838 -0.3769 -0.0105 -0.1231
19985SOL    HW161118   0.642   8.460   2.818 -1.1142  0.1269 -1.7564
19985SOL    HW261119   0.542   8.406   2.918 -1.8183  1.9702 -1.4273
19986SOL     OW61120   3.474   4.065   5.804  0.5055 -0.4734  0.4212
19986SOL    HW161121   3.428   4.052   5.887  1.0727 -1.2519  0.6306
19986SOL    HW261122   3.432   4.142   5.765 -0.8954 -1.0745  0.6556
19987SOL     OW61123   0.111   4.054   5.478  0.1361 -0.0202 -0.7363
19987SOL    HW161124   0.094   4.140   5.516  0.2346 -0.3552  0.1025
19987SOL    HW261125   0.197   4.062   5.438  0.8873 -0.1560  0.7586
19988SOL     OW61126   4.317   5.408   6.462  0.1241  0.0002  0.2313
19988SOL    HW161127   4.270   5.462   6.398 -2.7369 -1.5630  0.8392
19988SOL    HW261128   4.295   5.318   6.438 -0.0709 -0.6711  2.7114
19989SOL     OW61129   6.379   3.458   7.084 -0.0860 -0.2422 -0.0771
19989SOL    HW161130   6.391   3.545   7.123 -0.3532 -0.2123 -0.0572
19989SOL    HW261131   6.385   3.397   7.157 -0.0244 -0.2297 -0.0720
19990SOL     OW61132   0.047   4.076   0.520 -0.3320  0.0764  0.0920
19990SOL    HW161133   0.136   4.110   0.530  0.5799 -1.8516 -0.9055
19990SOL    HW261134   0.038   4.012   0.591 -0.4140 -0.6716 -0.5752
19991SOL     OW61135   7.037   3.380   0.421 -0.1257 -0.2031 -0.6090
19991SOL    HW161136   7.029   3.396   0.515 -2.3094 -2.8003 -0.2589
19991SOL    HW261137   6.979   3.445   0.382 -1.0466 -0.6175  0.0295
19992SOL     OW61138   7.190   5.658   3.046 -0.1494  0.5992 -0.0353
19992SOL    HW161139   7.170   5.736   2.993  5.6842  2.6411  0.0913
19992SOL    HW261140   7.188   5.690   3.136  2.3093  0.7823  0.0157
19993SOL     OW61141   0.458   0.718   2.622 -0.7185  0.5390 -0.0904
19993SOL    HW161142   0.469   0.626   2.601 -1.1804  0.6591 -0.8883
19993SOL    HW261143   0.514   0.764   2.558  0.4985  0.7731  1.0836
19994SOL     OW61144   0.478   4.637   8.585 -0.3753  0.3565 -0.0342
19994SOL    HW161145   0.551   4.633   8.647 -0.8941  0.4203  0.5870
19994SOL    HW261146   0.418   4.700   8.622 -1.2390 -0.4543 -0.0069
19995SOL     OW61147   6.904   6.760   7.448  0.4103 -0.0234  0.3788
19995SOL    HW161148   6.957   6.688   7.483  0.7888  1.2395  2.5777
19995SOL    HW261149   6.957   6.838   7.463 -1.5700  1.1599  1.6388
19996SOL     OW61150   4.296   8.349   0.861  0.1666  0.3500 -0.2029
19996SOL    HW161151   4.306   8.270   0.809 -3.3122  0.4195 -1.2507
19996SOL    HW261152   4.326   8.420   0.804 -1.4189  0.1918 -1.2964
19997SOL     OW61153   6.198   6.087   3.594 -0.2776 -0.1832 -0.2418
19997SOL    HW161154   6.120   6.126   3.555  0.0551  0.7688  0.0159
19997SOL    HW261155   6.228   6.022   3.530 -1.5677 -0.9381 -0.1122
19998SOL     OW61156   3.376   0.845   7.434  0.5923 -0.0122  0.0772
19998SOL    HW161157   3.383   0.793   7.354 -0.8977 -2.4803  1.4175
19998SOL    HW261158   3.406   0.786   7.504  2.4738  2.2637  1.3495
19999SOL     OW61159   5.782   3.105   4.642 -0.0230 -0.0219  0.2209
19999SOL    HW161160   5.780   3.044   4.715 -0.3466  1.4615  1.4908
19999SOL    HW261161   5.870   3.143   4.645 -0.3453  0.7146  0.4167
20000SOL     OW61162   8.601   3.143   6.492 -0.0614  0.9617 -0.6380
20000SOL    HW161163   8.638   3.060   6.461  0.0313  1.1159 -0.9367
20000SOL    HW261164   8.671   3.207   6.479 -0.1537  1.0985 -0.4633
20001SOL     OW61165   1.110   0.809   4.594  0.2785 -0.0658 -0.6934
20001SOL    HW161166   1.081   0.878   4.534 -1.2165  0.5331  0.6535
20001SOL    HW261167   1.057   0.733   4.570  0.7523 -0.2852 -1.0826
20002SOL     OW61168   5.785   3.966   6.513  0.4065  0.2174  0.2370
20002SOL    HW161169   5.823   3.918   6.439 -0.6570 -1.0281  0.4561
20002SOL    HW261170   5.753   4.047   6.474  0.7343  0.0146 -0.4810
20003SOL     OW61171   3.505   6.564   8.071 -0.3923  0.2796  0.0140
20003SOL    HW161172   3.573   6.574   8.137  0.2496 -0.3410 -0.5453
20003SOL    HW261173   3.425   6.595   8.114 -0.1573 -0.9322  1.3715
20004SOL     OW61174   4.431   3.324   3.558 -0.3697 -0.3791 -0.1964
20004SOL    HW161175   4.440   3.397   3.497  1.9767  0.3769  0.9294
20004SOL    HW261176   4.398   3.364   3.639 -0.1324 -0.7354  0.0841
20005SOL     OW61177   0.140   2.344   0.173 -0.5318 -0.3074 -0.2040
20005SOL    HW161178   0.085   2.381   0.104  0.0071 -0.3315 -0.6559
20005SOL    HW261179   0.119   2.395   0.251 -0.3698  0.4248 -0.6345
20006SOL     OW61180   6.281   6.688   0.981 -0.6200 -0.1176  0.4976
20006SOL    HW161181   6.187   6.673   0.984 -0.7397  0.4119 -0.2859
20006SOL    HW261182   6.309   6.689   1.073 -1.7806  2.1304  0.8998
20007SOL     OW61183   0.668   5.935   4.237 -0.0560  0.0416 -0.4968
20007SOL    HW161184   0.738   5.890   4.189 -0.3027  1.4085 -2.2388
20007SOL    HW261185   0.714   5.985   4.304  0.6464  0.7360 -1.4702
20008SOL     OW61186   0.817   1.482   2.565  1.0588  0.2478  0.1207
20008SOL    HW161187   0.800   1.463   2.657  0.5766  1.0316  0.2019
20008SOL    HW261188   0.862   1.566   2.565 -0.6773  1.2287 -0.4348
20009SOL     OW61189   5.679   8.794   2.986 -0.2074  0.3191  0.4150
20009SOL    HW161190   5.646   8.764   3.071  0.9831  0.7546  1.0582
20009SOL    HW261191   5.774   8.788   2.994 -0.0617  0.8945 -0.6970
20010SOL     OW61192   8.347   0.091   3.231 -0.2820  0.0677 -0.6263
20010SOL    HW161193   8.272   0.129   3.186 -0.5798 -0.1060 -0.2802
20010SOL    HW261194   8.326  -0.002   3.240  0.6787 -0.3101 -1.9443
20011SOL     OW61195   3.212   8.749   1.748 -0.0572 -0.5879  0.1340
20011SOL    HW161196   3.169   8.666   1.727 -1.0327 -0.1215  0.2134
20011SOL    HW261197   3.256   8.775   1.667 -0.1923 -0.9183 -0.0451
20012SOL     OW61198   3.776   3.464   7.848 -0.3300  0.4307 -0.3906
20012SOL    HW161199   3.861   3.487   7.885 -0.6590 -0.6662  1.1300
20012SOL    HW261200   3.756   3.535   7.787  0.9433  1.4981  0.3950
20013SOL     OW61201   8.640   0.551   5.852 -0.2189  0.1973 -0.2661
20013SOL    HW161202   8.700   0.486   5.816  0.0156  0.1576  0.2031
20013SOL    HW261203   8.628   0.614   5.781  0.2964  0.1530 -0.3913
20014SOL     OW61204   4.932   8.840   6.097  0.2372 -0.3495 -0.5202
20014SOL    HW161205   4.968   8.874   6.179  0.5945 -0.4890 -0.6176
20014SOL    HW261206   4.906   8.918   6.048 -0.7575 -0.2988  0.0763
20015SOL     OW61207   8.665   8.534   4.325  0.1822  0.6210 -0.4921
20015SOL    HW161208   8.582   8.550   4.371  0.5399  0.4012  0.2539
20015SOL    HW261209   8.641   8.478   4.252  0.1066 -2.4360  1.6658
20016SOL     OW61210   1.481   6.894   3.895  0.1862  0.4853 -0.3889
20016SOL    HW161211   1.577   6.901   3.890  0.1397  1.2278 -0.3551
20016SOL    HW261212   1.466   6.809   3.936  0.7817 -0.6109 -2.3010
20017SOL     OW61213   4.721   1.179   3.016 -0.0317  0.1292  0.8181
20017SOL    HW161214   4.711   1.249   3.082  1.3109  0.8605  0.2831
20017SOL    HW261215   4.677   1.104   3.055 -2.6238  1.5581  0.8978
20018SOL     OW61216   7.776   3.767   5.904 -0.7057 -0.0153  0.3231
20018SOL    HW161217   7.767   3.851   5.861  0.5732 -1.3336 -2.8096
20018SOL    HW261218   7.687   3.738   5.921 -1.3446  0.4078 -1.9818
20019SOL     OW61219   1.098   7.687   2.387 -0.4581 -0.0237  0.1690
20019SOL    HW161220   1.055   7.602   2.380 -0.7849  0.1570 -0.0003
20019SOL    HW261221   1.054   7.742   2.324 -0.8229  0.5143  0.8835
20020SOL     OW61222   3.646   1.545   7.225  0.4516 -0.0394  0.7142
20020SOL    HW161223   3.684   1.547   7.313 -0.7113  0.1890  1.2227
20020SOL    HW261224   3.681   1.622   7.181  1.0711 -0.1780  0.9547
20021SOL     OW61225   3.966   7.516   7.769 -0.5766 -0.4155 -0.6177
20021SOL    HW161226   3.900   7.581   7.745 -1.6543 -1.2643 -0.0482
20021SOL    HW261227   4.004   7.489   7.686  0.4961  1.5309 -0.8174
20022SOL     OW61228   8.153   4.231   0.268  0.4065  0.7381 -0.3624
20022SOL    HW161229   8.219   4.289   0.228  0.5788  0.7104 -0.1214
20022SOL    HW261230   8.188   4.143   0.257  0.1757  0.6834 -0.6683
20023SOL     OW61231   2.453   5.089   6.985 -0.3880  0.4796 -0.4956
20023SOL    HW161232   2.417   5.012   7.029  0.0373  2.2355  3.3284
20023SOL    HW261233   2.542   5.064   6.960 -1.1896 -1.0879 -2.0119
20024SOL     OW61234   3.989   3.748   4.639  0.5410 -0.1882  0.4955
20024SOL    HW161235   3.974   3.805   4.715 -0.3103 -0.4419  0.5306
20024SOL    HW261236   3.930   3.783   4.571  3.4952  2.0167 -1.1805
20025SOL     OW61237   3.615   7.110   4.143  0.2309 -0.0707  0.3758
20025SOL    HW161238   3.600   7.179   4.208  0.1548  0.5359 -0.2734
20025SOL    HW261239   3.548   7.126   4.076 -0.3055 -1.2750  0.6109
20026SOL     OW61240   0.750   7.426   5.341  0.6694 -0.5967  0.5175
20026SOL    HW161241   0.700   7.486   5.397  1.0564  0.0951  0.1390
20026SOL    HW261242   0.750   7.469   5.255 -2.0016 -2.7507 -0.7316
20027SOL     OW61243   1.753   0.481   7.283  0.0233 -0.4462  0.1983
20027SOL    HW161244   1.693   0.540   7.236  0.9486  0.0869 -0.3591
20027SOL    HW261245   1.779   0.416   7.217  0.3140 -0.4702  0.3336
20028SOL     OW61246   0.797   2.258   6.383  0.5198  0.0313  0.0524
20028SOL    HW161247   0.828   2.300   6.463  0.4874  0.7808 -0.3165
20028SOL    HW261248   0.721   2.206   6.410  2.1260 -1.9563  1.0029
20029SOL     OW61249   8.827   7.636   4.360 -0.0793 -0.3137  0.1800
20029SOL    HW161250   8.742   7.636   4.403  0.4849 -0.3638  1.3567
20029SOL    HW261251   8.864   7.722   4.379 -0.0898 -0.0864 -0.7983
20030SOL     OW61252   6.516   4.366   2.043  0.0397  0.0095  0.2738
20030SOL    HW161253   6.541   4.446   2.090  0.7207  0.7048 -1.1798
20030SOL    HW261254   6.421   4.360   2.053 -0.1244  1.4493 -0.2170
20031SOL     OW61255   8.062   5.410   6.208 -0.2642 -0.2837  0.6599
20031SOL    HW161256   7.978   5.376   6.178 -0.0076 -1.1353  0.8896
20031SOL    HW261257   8.123   5.338   6.196  0.2830  0.0774  1.2118
20032SOL     OW61258   4.608   2.002   8.238 -0.3707  0.5581 -0.5132
20032SOL    HW161259   4.702   2.012   8.222 -0.1850 -1.5058 -1.0304
20032SOL    HW261260   4.566   2.056   8.171  0.4172  2.0425  0.1476
20033SOL     OW61261   4.735   2.997   8.267  0.2597 -0.2616  0.1588
20033SOL    HW161262   4.779   2.925   8.313 -0.4981 -1.2742 -0.6801
20033SOL    HW261263   4.773   2.996   8.179  2.3512  2.2241  0.9033
20034SOL     OW61264   7.571   5.045   4.944 -0.2682 -0.2913 -0.0197
20034SOL    HW161265   7.664   5.024   4.931 -0.1246 -0.2522  0.8373
20034SOL    HW261266   7.524   4.974   4.901  0.1875 -0.9194  0.4936
20035SOL     OW61267   0.343   0.399   6.042  0.0867 -0.1436  0.2564
20035SOL    HW161268   0.363   0.469   6.103  1.2621 -0.6003  0.4212
20035SOL    HW261269   0.248   0.403   6.031  0.0455  0.9627  0.8596
20036SOL     OW61270   4.897   7.908   1.872  0.0397  0.1595  0.1460
20036SOL    HW161271   4.979   7.930   1.916 -0.5274 -1.4197  2.1918
20036SOL    HW261272   4.898   7.812   1.867 -1.3052  0.1532 -0.5286
20037SOL     OW61273   7.865   8.346   2.977 -0.0700 -0.3735  0.4401
20037SOL    HW161274   7.853   8.399   2.898 -1.6694  2.0256  2.1473
20037SOL    HW261275   7.959   8.328   2.980  0.1378  0.1320 -1.5706
20038SOL     OW61276   6.986   0.906   1.246  0.3267  0.6772  0.5498
20038SOL    HW161277   6.935   0.867   1.175 -0.1621 -0.0807  1.2991
20038SOL    HW261278   6.925   0.965   1.290 -1.1150 -2.6440  3.5116
20039SOL     OW61279   2.899   7.912   1.523 -0.2645 -0.4456 -0.5484
20039SOL    HW161280   2.958   7.952   1.588  1.6048 -1.5182 -1.5082
20039SOL    HW261281   2.908   7.968   1.446  0.3413 -1.1971 -1.0393
20040SOL     OW61282   7.468   0.825   1.776  0.1835 -0.2107 -0.5504
20040SOL    HW161283   7.499   0.777   1.699  0.5584  0.1150 -0.6072
20040SOL    HW261284   7.419   0.899   1.741 -1.3783 -1.1488 -0.4604
20041SOL     OW61285   6.278   5.867   3.426 -0.3324  0.4103  0.0803
20041SOL    HW161286   6.276   5.844   3.334 -0.8041 -0.6414  0.3340
20041SOL    HW261287   6.371   5.880   3.446 -0.1199 -0.4776 -0.2834
20042SOL     OW61288   8.791   1.398   7.691 -0.3994 -0.0734 -0.5678
20042SOL    HW161289   8.841   1.469   7.650 -1.8771  1.0728 -0.4531
20042SOL    HW261290   8.715   1.442   7.730 -0.0800 -1.3747  1.6832
20043SOL     OW61291   6.046   4.808   4.739 -0.3458  0.0262 -0.5053
20043SOL    HW161292   6.054   4.782   4.830  0.7152 -0.3933 -0.6992
20043SOL    HW261293   6.005   4.894   4.742  0.8815  0.6064  0.4558
20044SOL     OW61294   2.033   3.875   6.732 -0.3076 -0.6725  0.0205
20044SOL    HW161295   2.104   3.827   6.773  0.3239 -0.0957 -0.3851
20044SOL    HW261296   2.029   3.840   6.643 -0.1825 -0.3286 -0.1188
20045SOL     OW61297   2.500   4.916   3.480  0.1240  0.2431 -0.1706
20045SOL    HW161298   2.579   4.879   3.519 -0.5164 -0.8276  0.1766
20045SOL    HW261299   2.459   4.966   3.551  0.1546  0.2541 -0.1609
20046SOL     OW61300   1.287   2.682   7.893 -0.0761  0.0295 -0.0591
20046SOL    HW161301   1.234   2.699   7.815 -0.9918  0.1360  0.5821
20046SOL    HW261302   1.354   2.620   7.862 -2.0908 -2.1758 -0.3359
20047SOL     OW61303   6.353   3.055   1.856 -0.1049  0.0080  0.1749
20047SOL    HW161304   6.261   3.062   1.880  0.0404 -0.6391  0.9843
20047SOL    HW261305   6.362   3.108   1.777 -0.6005  2.2754  1.5632
20048SOL     OW61306   4.011   1.919   2.308  0.6452  0.5065 -0.1300
20048SOL    HW161307   4.089   1.873   2.337  1.1503  0.3387 -1.6282
20048SOL    HW261308   3.939   1.860   2.327  1.0284  0.1157  0.1166
20049SOL     OW61309   6.412   8.786   1.835 -0.0151  0.4589  0.4931
20049SOL    HW161310   6.324   8.809   1.807 -0.5727  0.7377  2.3611
20049SOL    HW261311   6.462   8.777   1.753 -1.1279  2.8152 -0.5266
20050SOL     OW61312   6.956   2.825   5.589 -0.3424 -0.1174 -0.3149
20050SOL    HW161313   6.891   2.807   5.522  0.4112  0.1916 -1.1421
20050SOL    HW261314   6.977   2.740   5.627 -2.3841 -0.0573  1.0909
20051SOL     OW61315   5.010   6.788   3.226 -0.2212  0.4122  0.0499
20051SOL    HW161316   5.019   6.728   3.152 -0.9740 -0.9171  0.9872
20051SOL    HW261317   4.998   6.731   3.302 -1.5740  1.7592  0.9013
20052SOL     OW61318   7.915   1.896   6.880  0.4829  0.4163 -0.2997
20052SOL    HW161319   7.941   1.804   6.879  1.7178  0.6948  1.4219
20052SOL    HW261320   7.905   1.917   6.973 -0.1725  1.9253 -0.6780
20053SOL     OW61321   3.040   6.499   0.404 -0.0018 -0.1704 -0.2049
20053SOL    HW161322   3.133   6.481   0.415 -0.2577 -0.6373  1.5895
20053SOL    HW261323   3.036   6.590   0.374  1.0220  0.2157  0.7658
20054SOL     OW61324   5.779   3.411   8.642  0.9108  0.1148  0.1973
20054SOL    HW161325   5.728   3.482   8.603  1.3875  0.5731  0.4009
20054SOL    HW261326   5.755   3.334   8.591 -2.4142 -0.4125  2.1843
20055SOL     OW61327   3.864   6.752   4.216 -0.2348 -0.1088  0.0592
20055SOL    HW161328   3.820   6.748   4.131 -0.0125  1.1279 -0.1334
20055SOL    HW261329   3.802   6.713   4.277 -1.1134  0.5226 -0.4040
20056SOL     OW61330   2.427   6.489   4.027  0.8019  0.5280  0.3589
20056SOL    HW161331   2.394   6.400   4.044 -0.7354  0.6787 -1.5241
20056SOL    HW261332   2.499   6.476   3.965 -1.0370  0.6560 -1.9526
20057SOL     OW61333   8.200   8.277   2.362 -0.0585 -0.9892 -0.6524
20057SOL    HW161334   8.265   8.326   2.412 -0.5439 -1.7741  0.8329
20057SOL    HW261335   8.198   8.320   2.276  1.0011  0.2612 -0.0938
20058SOL     OW61336   6.160   5.171   3.744 -0.0169 -0.3701 -0.4555
20058SOL    HW161337   6.160   5.075   3.743  0.3295 -0.4219  1.3374
20058SOL    HW261338   6.116   5.194   3.825  0.8276  0.9744 -0.3511
20059SOL     OW61339   7.060   1.553   8.321  0.2567  0.0223  0.5799
20059SOL    HW161340   7.122   1.508   8.379  0.3783 -0.6620 -0.0628
20059SOL    HW261341   7.053   1.496   8.244 -1.2573  0.0179  0.6786
20060SOL     OW61342   8.533   5.914   2.765  0.6393 -0.0774 -0.0483
20060SOL    HW161343   8.587   5.926   2.843  2.3781  1.2671 -1.3485
20060SOL    HW261344   8.483   5.995   2.758 -2.6251 -1.7476  1.7757
20061SOL     OW61345   7.472   5.778   2.528  0.5290  0.4501  0.0987
20061SOL    HW161346   7.532   5.787   2.602 -0.1958  0.9796  0.6255
20061SOL    HW261347   7.462   5.683   2.516  2.1953  0.3107 -0.6028
20062SOL     OW61348   4.381   6.716   4.932  0.3088 -0.4700 -0.1580
20062SOL    HW161349   4.431   6.663   4.993 -0.3511 -0.6754  0.2074
20062SOL    HW261350   4.375   6.802   4.975 -0.0888 -0.5922  0.0304
20063SOL     OW61351   5.714   8.798   4.257  0.2565 -0.2165  0.3868
20063SOL    HW161352   5.786   8.757   4.209  1.2285  3.4202 -1.7014
20063SOL    HW261353   5.727   8.772   4.348  4.3935  0.3122  0.1421
20064SOL     OW61354   7.371   8.593   5.315  0.0770  0.0515  0.7609
20064SOL    HW161355   7.314   8.664   5.284  0.6270 -0.7167 -2.3999
20064SOL    HW261356   7.323   8.513   5.293  0.8857 -0.5813  1.2532
20065SOL     OW61357   0.844   0.983   2.487  0.3133 -0.0446  0.2450
20065SOL    HW161358   0.756   0.947   2.473  0.6904 -0.6019 -0.8782
20065SOL    HW261359   0.846   1.063   2.434  0.6626 -0.3534 -0.2204
20066SOL     OW61360   6.180   4.874   0.012 -0.0579  0.1296  0.7707
20066SOL    HW161361   6.090   4.846  -0.008 -0.2259  0.1391  1.4692
20066SOL    HW261362   6.171   4.928   0.090  0.5454  0.2250  0.7788
20067SOL     OW61363   6.845   2.242   2.098  0.1507 -0.0826  0.3394
20067SOL    HW161364   6.845   2.322   2.152 -0.3810  0.1959 -0.0606
20067SOL    HW261365   6.865   2.273   2.010 -0.5631 -0.3245  0.0906
20068SOL     OW61366   3.140   1.016   6.867 -0.2344 -0.1214 -0.1546
20068SOL    HW161367   3.202   0.952   6.903 -0.7331  0.4431  1.8177
20068SOL    HW261368   3.160   1.097   6.915 -0.7476  0.7580 -1.3947
20069SOL     OW61369   7.811   2.626   5.057 -0.3877  0.0034  0.1107
20069SOL    HW161370   7.794   2.672   5.139  2.0628  1.4564 -0.0850
20069SOL    HW261371   7.801   2.693   4.989  0.0827 -0.5482 -0.5146
20070SOL     OW61372   6.043   3.516   7.293 -0.6612  0.2103  0.1110
20070SOL    HW161373   5.949   3.499   7.294 -0.5736 -0.3121 -0.2727
20070SOL    HW261374   6.080   3.454   7.357 -0.4333 -0.5204 -0.7096
20071SOL     OW61375   2.400   6.301   4.885 -0.1335  0.3323  0.7874
20071SOL    HW161376   2.477   6.323   4.832  0.3783 -0.8802  0.9948
20071SOL    HW261377   2.336   6.368   4.862  1.1532  1.7031  1.0252
20072SOL     OW61378   6.136   5.072   0.767 -0.2736 -0.5279  0.3490
20072SOL    HW161379   6.121   5.022   0.847  2.0321  0.0691  1.2368
20072SOL    HW261380   6.192   5.016   0.714 -0.1694 -0.1128  0.0202
20073SOL     OW61381   7.443   7.291   7.382 -0.5612  0.7558  0.2153
20073SOL    HW161382   7.430   7.289   7.287 -0.2721  3.6146  0.0452
20073SOL    HW261383   7.381   7.226   7.416  0.4838 -1.5425 -1.9825
20074SOL     OW61384   6.271   8.730   7.780 -1.1960 -0.4833 -0.4239
20074SOL    HW161385   6.204   8.797   7.793 -0.1100  0.8252 -1.2943
20074SOL    HW261386   6.316   8.756   7.700  1.4970 -0.2924  1.0287
20075SOL     OW61387   1.429   4.455   8.220  0.2953 -0.0861  0.0436
20075SOL    HW161388   1.347   4.469   8.173 -0.3531 -1.3746  0.7466
20075SOL    HW261389   1.453   4.365   8.199  0.2943 -0.4938  1.6959
20076SOL     OW61390   6.912   4.557   6.711  0.3910  0.6890 -0.4267
20076SOL    HW161391   6.975   4.522   6.773  1.4375  0.5827 -1.5199
20076SOL    HW261392   6.869   4.629   6.758  0.2088 -0.2324  0.8599
20077SOL     OW61393   6.188   1.013   2.015 -0.1868 -0.3508  0.2427
20077SOL    HW161394   6.270   0.977   1.981 -1.1745 -0.7215 -1.9507
20077SOL    HW261395   6.148   0.941   2.064  1.4251  0.2946  2.6980
20078SOL     OW61396   1.760   7.111   4.827  0.2484  0.0278 -0.7274
20078SOL    HW161397   1.832   7.153   4.873  0.6515 -1.0143 -0.3732
20078SOL    HW261398   1.720   7.181   4.775 -0.3678  1.2914  1.3489
20079SOL     OW61399   3.199   6.195   3.870 -0.6830  0.0737 -0.6576
20079SOL    HW161400   3.147   6.211   3.791 -1.6310 -3.1538 -0.8312
20079SOL    HW261401   3.246   6.114   3.852  0.0430 -0.1011  1.6465
20080SOL     OW61402   6.203   0.031   4.166  0.3639  0.0460 -0.0377
20080SOL    HW161403   6.276   0.092   4.157  0.2662  0.2242  0.3574
20080SOL    HW261404   6.139   0.059   4.101  0.5608  0.0123 -0.2463
20081SOL     OW61405   6.488   4.617   2.833 -0.3435  0.1735 -0.0123
20081SOL    HW161406   6.416   4.669   2.869 -0.3771  0.2620 -0.2028
20081SOL    HW261407   6.454   4.528   2.828 -0.7906  0.3800 -1.0153
20082SOL     OW61408   8.415   3.584   0.721  0.1955 -0.6362 -0.1330
20082SOL    HW161409   8.476   3.611   0.789  1.9030 -2.8686 -0.6672
20082SOL    HW261410   8.445   3.630   0.642  0.5700 -0.9602 -0.1802
20083SOL     OW61411   0.457   0.203   0.097  0.2685 -0.2462 -0.1978
20083SOL    HW161412   0.451   0.198   0.002  1.7249  2.0923 -0.4769
20083SOL    HW261413   0.433   0.293   0.118  1.3731 -0.3125  1.5048
20084SOL     OW61414   4.384   5.320   4.718  0.9151  0.1980  0.1481
20084SOL    HW161415   4.396   5.414   4.715  0.3000  0.2753 -0.1215
20084SOL    HW261416   4.391   5.298   4.811 -1.1763  0.8504  0.5287
20085SOL     OW61417   5.598   1.077   7.858  0.3631  0.0387 -0.3322
20085SOL    HW161418   5.688   1.087   7.827  1.0324  1.2342  1.7660
20085SOL    HW261419   5.550   1.147   7.814  0.7656  0.2463 -0.4479
20086SOL     OW61420   7.718   6.189   1.589 -0.1232 -0.4175  0.1048
20086SOL    HW161421   7.704   6.267   1.536  0.3601 -0.9187 -0.7755
20086SOL    HW261422   7.785   6.140   1.543  1.0246 -0.4245  1.6718
20087SOL     OW61423   0.272   7.681   6.455  0.2968 -0.5822  0.0768
20087SOL    HW161424   0.262   7.743   6.527 -0.8717  1.0344 -1.3826
20087SOL    HW261425   0.342   7.717   6.401  0.2739 -1.0655 -0.2893
20088SOL     OW61426   2.900   5.545   8.077 -0.2946  0.4500 -1.0650
20088SOL    HW161427   2.963   5.605   8.035  0.7503 -0.7961 -1.3390
20088SOL    HW261428   2.866   5.595   8.151  2.4122  0.5441  0.2291
20089SOL     OW61429   3.926   3.825   2.522  0.5523  0.4470 -0.0114
20089SOL    HW161430   4.000   3.885   2.514  0.6613  0.2072 -0.8705
20089SOL    HW261431   3.960   3.740   2.495 -0.1609  0.4430 -0.9550
20090SOL     OW61432   1.749   5.749   7.879  0.0302  0.0675 -0.0105
20090SOL    HW161433   1.661   5.773   7.852 -0.5930 -0.7733  1.1907
20090SOL    HW261434   1.771   5.674   7.824  1.5165  2.4146 -2.9267
20091SOL     OW61435   3.039   0.013   0.844  0.3487 -0.1057  0.3227
20091SOL    HW161436   2.968   0.023   0.781  0.2145 -1.0043  0.3217
20091SOL    HW261437   3.117  -0.001   0.790  0.4314  0.2719  0.3388
20092SOL     OW61438   6.705   4.497   3.067  0.0875  0.3409  0.8922
20092SOL    HW161439   6.777   4.534   3.117  1.6757 -1.5776  0.1842
20092SOL    HW261440   6.686   4.563   3.000  0.9950  0.9988  1.2656
20093SOL     OW61441   8.794   1.638   0.171 -0.1909  0.3200 -0.4182
20093SOL    HW161442   8.860   1.704   0.191  0.5391  0.0572 -1.8477
20093SOL    HW261443   8.772   1.653   0.079 -1.0370 -0.5560 -0.3759
20094SOL     OW61444   8.520   0.552   7.270 -0.2413 -0.0190  0.5925
20094SOL    HW161445   8.599   0.603   7.291 -0.7311  1.2033 -0.4063
20094SOL    HW261446   8.448   0.607   7.297 -0.7936 -0.1052 -0.6376
20095SOL     OW61447   8.336   4.289   2.739  0.0214 -0.1880 -0.4458
20095SOL    HW161448   8.278   4.217   2.763  0.1141  0.6106  2.5809
20095SOL    HW261449   8.299   4.323   2.657 -1.8149 -1.7272 -0.3344
20096SOL     OW61450   5.969   1.247   0.358 -0.1613 -0.6328  0.6649
20096SOL    HW161451   6.057   1.211   0.341 -0.7407 -2.4453  1.2688
20096SOL    HW261452   5.924   1.242   0.274  0.3006  0.3156  0.3494
20097SOL     OW61453   3.661   6.832   3.093  1.0385 -0.0240  0.2173
20097SOL    HW161454   3.596   6.806   3.159  0.8297  2.1935  0.9732
20097SOL    HW261455   3.714   6.898   3.137  1.6793  0.6258 -1.4601
20098SOL     OW61456   1.477   1.991   0.098 -0.0096 -0.0538  0.2900
20098SOL    HW161457   1.482   2.077   0.139 -0.0986  0.4249 -0.6853
20098SOL    HW261458   1.507   2.005   0.008  0.0325 -1.0528  0.1412
20099SOL     OW61459   0.010   8.407   2.355 -0.1565  0.2906 -0.1026
20099SOL    HW161460   0.007   8.332   2.415  1.6324  0.8003  0.7161
20099SOL    HW261461   0.015   8.368   2.268 -1.3583 -0.4945  0.1667
20100SOL     OW61462   0.720   3.762   0.289  0.1317  0.1077 -0.1677
20100SOL    HW161463   0.716   3.833   0.354 -1.5355  0.9290 -1.0823
20100SOL    HW261464   0.813   3.751   0.271  0.7089 -0.4633  2.6444
20101SOL     OW61465   0.525   1.063   8.638  0.1723 -0.2276  0.1405
20101SOL    HW161466   0.463   1.124   8.599  0.2910  0.3898  0.9054
20101SOL    HW261467   0.472   0.989   8.668 -0.0401 -0.2415 -0.2664
20102SOL     OW61468   3.098   7.821   7.432 -0.1649  0.8959  0.4989
20102SOL    HW161469   3.072   7.884   7.364  0.9580  0.7421 -0.0963
20102SOL    HW261470   3.033   7.751   7.425  0.0286  0.7999 -0.5530
20103SOL     OW61471   5.303   2.335   7.116 -0.0989  0.6613  0.3365
20103SOL    HW161472   5.227   2.347   7.058 -0.2646 -0.1886  0.3543
20103SOL    HW261473   5.369   2.395   7.082 -1.1107  2.1717  0.9447
20104SOL     OW61474   5.327   0.925   6.459  0.4699  0.0979  0.3057
20104SOL    HW161475   5.388   0.998   6.470  0.3252  0.2603  0.0286
20104SOL    HW261476   5.283   0.917   6.543  0.4797  0.3375  0.3339
20105SOL     OW61477   0.262   5.936   2.799 -0.1094 -0.0151 -0.6560
20105SOL    HW161478   0.333   5.984   2.841 -1.6104  0.5637  1.3716
20105SOL    HW261479   0.228   5.878   2.868 -1.9328  0.1206 -1.3875
20106SOL     OW61480   8.093   0.982   7.726 -0.7460  0.2198  0.0639
20106SOL    HW161481   8.166   0.946   7.776 -1.0574  0.1008  0.4322
20106SOL    HW261482   8.072   1.064   7.771 -0.8671  0.2368 -0.0236
20107SOL     OW61483   7.880   0.601   6.809 -0.5385  0.1520 -0.3154
20107SOL    HW161484   7.857   0.667   6.744  1.3317  0.8492 -0.3341
20107SOL    HW261485   7.870   0.645   6.893 -0.1166  0.2004 -0.2878
20108SOL     OW61486   6.749   0.533   2.736 -0.3797 -0.1938  0.1802
20108SOL    HW161487   6.787   0.555   2.821  1.0232 -0.1042 -0.4390
20108SOL    HW261488   6.825   0.516   2.680 -1.2938 -0.8254 -0.9038
20109SOL     OW61489   1.730   6.127   7.323 -0.0602 -0.3257 -0.8853
20109SOL    HW161490   1.775   6.176   7.392  1.7697 -0.3698 -1.9925
20109SOL    HW261491   1.711   6.042   7.362 -1.8486  0.6383  0.5361
20110SOL     OW61492   6.824   8.549   3.507 -0.7588  0.2740  0.7533
20110SOL    HW161493   6.909   8.589   3.526 -0.2249 -0.1712 -0.5465
20110SOL    HW261494   6.837   8.455   3.522 -0.0976 -0.2132 -2.1225
20111SOL     OW61495   0.710   7.173   6.126  0.3491  0.5283 -0.6771
20111SOL    HW161496   0.756   7.252   6.097  0.2624  0.8008 -0.0929
20111SOL    HW261497   0.665   7.200   6.206  2.9626 -0.9136  1.4627
20112SOL     OW61498   5.197   1.107   5.489  0.2720 -0.1231 -0.2139
20112SOL    HW161499   5.121   1.165   5.495  0.7230  0.5231 -0.5409
20112SOL    HW261500   5.160   1.019   5.486 -0.4767  0.1952 -0.6482
20113SOL     OW61501   4.538   0.524   0.761 -0.2739 -0.2245 -0.1766
20113SOL    HW161502   4.609   0.525   0.698 -1.5804 -0.0247 -1.7033
20113SOL    HW261503   4.476   0.459   0.727 -0.6631 -0.6697  1.3064
20114SOL     OW61504   5.059   2.811   0.360 -0.1252  0.2949 -0.3552
20114SOL    HW161505   5.137   2.841   0.314  0.6848 -2.4678 -0.9521
20114SOL    HW261506   5.066   2.850   0.447  1.7052  0.4757 -0.5448
20115SOL     OW61507   8.247   1.191   2.203 -0.1712  0.5451  0.6747
20115SOL    HW161508   8.207   1.227   2.124  1.2077 -0.2899 -0.4448
20115SOL    HW261509   8.181   1.131   2.237  0.1545 -1.0494 -1.3094
20116SOL     OW61510   0.836   1.834   3.303  0.0793  0.7883  0.0889
20116SOL    HW161511   0.812   1.887   3.380  1.9448 -1.4602  2.3910
20116SOL    HW261512   0.776   1.759   3.307  1.6962 -0.5260  0.8379
20117SOL     OW61513   3.121   7.987   5.901 -0.4028 -0.4493  0.6215
20117SOL    HW161514   3.129   7.988   5.996 -1.1877  0.5981  0.6855
20117SOL    HW261515   3.047   8.044   5.882 -0.9983 -1.5502 -0.5531
20118SOL     OW61516   1.059   6.820   4.857  0.6797  0.0741  0.4308
20118SOL    HW161517   0.989   6.819   4.792  1.0305  0.1159  0.0492
20118SOL    HW261518   1.119   6.752   4.829  2.5640  2.2537 -1.2185
20119SOL     OW61519   6.827   7.708   1.328 -0.4667 -0.4927 -0.0979
20119SOL    HW161520   6.811   7.674   1.240  1.5816  1.1581 -1.1918
20119SOL    HW261521   6.899   7.654   1.362 -0.5975 -0.4893  0.1942
20120SOL     OW61522   5.608   8.792   0.177  0.0921  0.0391  0.1950
20120SOL    HW161523   5.537   8.847   0.142  0.7893  0.4123 -0.6709
20120SOL    HW261524   5.688   8.833   0.144  0.7188 -0.3162  1.2572
20121SOL     OW61525   8.268   5.052   2.540  0.2958 -0.6425 -0.4616
20121SOL    HW161526   8.254   5.038   2.447 -0.1747 -2.6592 -0.1459
20121SOL    HW261527   8.361   5.033   2.553  1.0941  2.4867 -0.9153
20122SOL     OW61528   1.159   0.038   1.098 -1.1859  0.6200 -0.2923
20122SOL    HW161529   1.209   0.010   1.021 -2.3148 -1.3782 -0.3803
20122SOL    HW261530   1.218   0.021   1.172 -1.1015 -0.1714 -0.5250
20123SOL     OW61531   4.494   5.708   5.457 -0.0808 -0.0687 -0.1639
20123SOL    HW161532   4.468   5.801   5.458 -0.8949 -0.1831 -2.7727
20123SOL    HW261533   4.573   5.706   5.403 -0.5709 -1.0008 -0.8629
20124SOL     OW61534   5.002   7.904   5.097 -0.4157 -0.3249  0.1961
20124SOL    HW161535   5.022   7.958   5.173  1.8757 -3.3223  1.9100
20124SOL    HW261536   5.085   7.896   5.050 -1.0171 -1.2599 -0.7748
20125SOL     OW61537   1.127   5.559   3.253  1.0845  0.0998  0.3152
20125SOL    HW161538   1.108   5.554   3.160  1.4445  1.8346  0.1111
20125SOL    HW261539   1.183   5.483   3.270  1.1171 -0.1756 -0.9064
20126SOL     OW61540   8.135   4.038   5.659 -0.3138  0.9069 -0.8370
20126SOL    HW161541   8.182   4.116   5.630  0.4767 -0.1219 -2.4669
20126SOL    HW261542   8.061   4.030   5.598  0.3987 -0.3466 -1.5770
20127SOL     OW61543   7.331   0.807   0.665 -0.2145 -0.2646  0.1667
20127SOL    HW161544   7.424   0.789   0.679 -0.5118 -1.1082  1.1758
20127SOL    HW261545   7.330   0.880   0.603  1.1135 -0.3910 -0.0347
20128SOL     OW61546   6.352   7.233   4.563 -0.5349 -0.1123  0.5168
20128SOL    HW161547   6.358   7.327   4.579 -0.9077 -0.1839  1.1239
20128SOL    HW261548   6.296   7.224   4.486  0.2712  0.1979 -0.1160
20129SOL     OW61549   7.396   7.220   3.888  0.1116  0.3901  0.1632
20129SOL    HW161550   7.327   7.170   3.846  1.4878  0.1976 -2.0325
20129SOL    HW261551   7.452   7.155   3.929 -0.9574  0.5498  1.9999
20130SOL     OW61552   5.053   4.608   3.347 -0.2093  0.0453  0.1183
20130SOL    HW161553   5.091   4.527   3.380  1.0181 -0.4260 -2.2435
20130SOL    HW261554   5.074   4.608   3.253  0.3452  3.3607  0.1322
20131SOL     OW61555   5.166   5.655   0.171 -0.0558  0.2543  0.1580
20131SOL    HW161556   5.116   5.698   0.241  0.4155  0.0321  0.6451
20131SOL    HW261557   5.142   5.702   0.091  0.0987  1.1191  0.6056
20132SOL     OW61558   4.820   0.742   4.267  0.3106 -0.9642  0.3715
20132SOL    HW161559   4.891   0.681   4.250  0.0053 -1.6260  1.3913
20132SOL    HW261560   4.757   0.692   4.320 -1.5994 -0.8468 -1.6526
20133SOL     OW61561   2.480   7.024   3.422  0.0088  0.0738  0.0292
20133SOL    HW161562   2.554   7.005   3.480  0.0299  1.7003  0.5886
20133SOL    HW261563   2.407   6.977   3.461  0.2238  0.4404  0.9029
20134SOL     OW61564   5.240   8.370   2.773  0.3689 -0.0547 -0.5229
20134SOL    HW161565   5.199   8.371   2.860  0.1192 -1.4704 -0.6091
20134SOL    HW261566   5.331   8.345   2.790  0.8686  1.6283 -0.4913
20135SOL     OW61567   7.744   5.864   0.720 -0.6586  0.4174 -0.3004
20135SOL    HW161568   7.711   5.835   0.635 -1.1570  0.3974 -0.1067
20135SOL    HW261569   7.779   5.951   0.704  0.0589  0.0706 -0.7065
20136SOL     OW61570   4.291   0.071   0.535 -0.3113 -0.5838  0.4627
20136SOL    HW161571   4.277   0.022   0.454  3.0359 -0.6409 -0.2123
20136SOL    HW261572   4.319   0.158   0.507  1.7220 -0.8461  1.4294
20137SOL     OW61573   3.966   2.559   2.819 -0.2225 -0.1821  0.4788
20137SOL    HW161574   3.886   2.595   2.856 -1.5062 -1.9010 -0.5029
20137SOL    HW261575   3.982   2.611   2.740 -1.1250 -0.6604 -0.0298
20138SOL     OW61576   2.675   6.788   0.418  0.2080 -0.2187  0.2537
20138SOL    HW161577   2.579   6.781   0.412  0.3925 -2.0445 -1.5528
20138SOL    HW261578   2.700   6.722   0.483  0.1938  1.0646  1.6038
20139SOL     OW61579   1.142   2.203   7.029 -0.1177 -0.0023 -0.3056
20139SOL    HW161580   1.138   2.272   7.096  0.1016 -0.8382  0.6010
20139SOL    HW261581   1.099   2.128   7.070  0.0412 -0.5448 -1.1064
20140SOL     OW61582   4.671   2.113   4.314 -0.1728  0.4612  0.7271
20140SOL    HW161583   4.650   2.125   4.407 -0.1082 -3.3877  1.3874
20140SOL    HW261584   4.588   2.083   4.276 -0.7000  3.6557 -1.0028
20141SOL     OW61585   1.677   5.508   6.170  0.4002  0.6010 -0.0581
20141SOL    HW161586   1.664   5.502   6.265 -0.3371  1.0327 -0.1277
20141SOL    HW261587   1.751   5.449   6.153 -0.9113 -1.2856  0.4766
20142SOL     OW61588   7.532   8.220   4.715  0.3749  0.5455  0.0467
20142SOL    HW161589   7.471   8.169   4.768  0.9485  0.8720  1.0464
20142SOL    HW261590   7.503   8.311   4.725  0.5087  0.6151 -0.1770
20143SOL     OW61591   0.860   7.293   3.471 -0.2601  0.3350  0.0985
20143SOL    HW161592   0.769   7.294   3.441 -1.0872 -0.6897  2.3857
20143SOL    HW261593   0.912   7.299   3.390 -2.3252 -0.2966 -1.3473
20144SOL     OW61594   7.608   1.951   1.213 -0.0651  0.2440 -0.0993
20144SOL    HW161595   7.586   2.034   1.170 -2.3138  0.7272  1.7545
20144SOL    HW261596   7.573   1.884   1.155  0.4687  0.6432 -0.9033
20145SOL     OW61597   5.467   2.929   4.986  0.1758  0.6079  0.2257
20145SOL    HW161598   5.415   2.879   5.049  0.3591  0.0068 -0.0928
20145SOL    HW261599   5.508   2.862   4.931 -0.2836  1.1273 -0.7736
20146SOL     OW61600   8.630   3.747   2.432 -0.0809 -0.4218  0.0859
20146SOL    HW161601   8.594   3.833   2.451 -0.7315 -0.3961 -1.1574
20146SOL    HW261602   8.707   3.740   2.488 -0.4426  0.6607  0.7430
20147SOL     OW61603   1.417   2.802   2.402 -0.2437 -0.4432 -0.3387
20147SOL    HW161604   1.344   2.740   2.409  0.2030 -1.3349 -2.7795
20147SOL    HW261605   1.496   2.748   2.407  0.1554 -0.3165 -3.3812
20148SOL     OW61606   3.580   5.705   7.424  0.4481  0.3903  0.2645
20148SOL    HW161607   3.610   5.725   7.336 -1.4000  0.6789 -0.3534
20148SOL    HW261608   3.656   5.668   7.468  1.1368 -0.7558 -1.7671
20149SOL     OW61609   5.856   8.707   2.748 -0.0932  0.1233 -0.0201
20149SOL    HW161610   5.922   8.726   2.682  0.6701 -1.1053  0.3544
20149SOL    HW261611   5.884   8.755   2.826 -0.9569  1.5164 -0.5243
20150SOL     OW61612   3.882   3.169   8.118 -0.4685  0.5292  0.0522
20150SOL    HW161613   3.908   3.077   8.109  1.0135  0.9574 -0.4050
20150SOL    HW261614   3.960   3.218   8.092 -1.2620  1.9232  0.2098
20151SOL     OW61615   0.002   4.956   6.986  0.0094 -0.2274  0.1228
20151SOL    HW161616   0.047   5.041   6.989  0.2528 -0.2946 -1.0562
20151SOL    HW261617  -0.037   4.946   7.073  0.7079  0.6935  0.5604
20152SOL     OW61618   8.305   8.070   6.252 -0.6448 -0.2515 -0.1142
20152SOL    HW161619   8.382   8.014   6.244  0.3743  0.8508  1.2495
20152SOL    HW261620   8.335   8.144   6.306 -2.3774  0.7497 -0.4369
20153SOL     OW61621   7.887   2.875   8.582  0.5104 -0.5405  0.0347
20153SOL    HW161622   7.861   2.917   8.664 -0.1574 -3.1604  1.2565
20153SOL    HW261623   7.983   2.881   8.581  0.4694  0.3518  0.4964
20154SOL     OW61624   6.044   2.012   7.913  0.5609  0.0023 -0.4515
20154SOL    HW161625   5.988   2.070   7.861  1.1995  0.0909 -1.0618
20154SOL    HW261626   5.989   1.936   7.932 -0.1362  0.6000 -0.0371
20155SOL     OW61627   8.602   2.662   6.388  0.3411  0.1411  0.7366
20155SOL    HW161628   8.523   2.712   6.409 -0.3162 -0.2876 -0.5716
20155SOL    HW261629   8.571   2.573   6.375  0.5536  0.3849 -2.1902
20156SOL     OW61630   2.334   2.900   4.926 -0.2625  0.0371 -0.4094
20156SOL    HW161631   2.272   2.836   4.892  1.6355 -2.5171  0.6730
20156SOL    HW261632   2.335   2.886   5.020  0.4024  1.5408 -0.1531
20157SOL     OW61633   1.672   8.663   1.375 -0.4867 -0.1244  0.2135
20157SOL    HW161634   1.690   8.621   1.291  1.4559  1.1415 -0.0638
20157SOL    HW261635   1.722   8.612   1.439  0.0543  0.3987  0.2144
20158SOL     OW61636   3.746   4.985   1.256  0.0681  0.3840  0.6502
20158SOL    HW161637   3.717   4.903   1.215 -2.6469  2.0325 -1.0370
20158SOL    HW261638   3.710   4.980   1.345  0.3394 -0.4427  0.7272
20159SOL     OW61639   8.120   0.951   2.782 -0.6611 -0.1142 -0.2042
20159SOL    HW161640   8.150   1.009   2.712 -1.7495  2.9527  1.6542
20159SOL    HW261641   8.151   0.864   2.756  1.7300  1.3368 -2.8530
20160SOL     OW61642   0.837   6.501   1.519 -0.1182 -0.0442 -0.0463
20160SOL    HW161643   0.821   6.491   1.613  1.3793  0.1412  0.2377
20160SOL    HW261644   0.917   6.451   1.502  0.6494  1.4094 -0.8817
20161SOL     OW61645   2.950   3.700   0.573  0.6188  0.3240  0.5219
20161SOL    HW161646   3.043   3.714   0.590  0.9604 -1.3406  0.2775
20161SOL    HW261647   2.944   3.690   0.478  0.0240  1.3625  0.4331
20162SOL     OW61648   3.774   1.474   4.406  0.1163 -0.2939 -0.0789
20162SOL    HW161649   3.856   1.424   4.406  0.4174  0.1896  0.2873
20162SOL    HW261650   3.763   1.502   4.497 -1.7183 -2.3751  0.4128
20163SOL     OW61651   0.546   5.008   5.428  0.5119 -0.3784 -0.1840
20163SOL    HW161652   0.618   4.950   5.402  2.8134  1.8779  0.6885
20163SOL    HW261653   0.519   4.976   5.514  2.7316  0.5340  0.9471
20164SOL     OW61654   4.256   6.611   0.400 -0.0936 -0.1971 -0.2866
20164SOL    HW161655   4.243   6.688   0.344 -1.6937 -0.4837 -0.3705
20164SOL    HW261656   4.272   6.647   0.487 -1.2921  0.2605 -0.2338
20165SOL     OW61657   8.200   3.375   4.297 -0.2365 -0.3038 -0.7576
20165SOL    HW161658   8.168   3.366   4.208  0.2410 -1.4892 -0.8341
20165SOL    HW261659   8.130   3.339   4.352 -0.3808  0.0950 -0.6768
20166SOL     OW61660   1.572   5.240   7.007  0.6991  0.3877 -0.4808
20166SOL    HW161661   1.520   5.161   6.999 -2.3843  2.3263 -1.2025
20166SOL    HW261662   1.613   5.234   7.093 -0.2794 -1.4981 -0.0955
20167SOL     OW61663   1.784   8.142   5.291  0.3421  0.2762 -0.0986
20167SOL    HW161664   1.720   8.093   5.239 -0.3121  0.6670  0.3221
20167SOL    HW261665   1.809   8.216   5.235 -0.8143  1.0325  0.3450
20168SOL     OW61666   2.687   2.625   5.688  0.1185 -0.2655  0.2846
20168SOL    HW161667   2.595   2.606   5.708 -0.4575 -0.1477 -2.0194
20168SOL    HW261668   2.733   2.605   5.770 -2.0145  0.3225  1.7216
20169SOL     OW61669   3.108   6.476   4.209  0.5658  0.1514 -1.1434
20169SOL    HW161670   3.181   6.445   4.263  1.1564  0.5801 -1.6734
20169SOL    HW261671   3.070   6.396   4.171  0.8307 -0.0659 -0.9524
20170SOL     OW61672   1.412   7.013   1.795  0.0113  0.6426  0.1936
20170SOL    HW161673   1.421   7.046   1.885  1.2399 -0.4075  0.4913
20170SOL    HW261674   1.469   7.070   1.743  1.1273 -0.1507  0.4963
20171SOL     OW61675   6.003   3.285   7.852  0.1583  0.4412 -0.2162
20171SOL    HW161676   6.063   3.217   7.881 -0.6439  0.1710  0.8771
20171SOL    HW261677   5.920   3.239   7.836 -0.4960  1.1886  0.8829
20172SOL     OW61678   7.251   2.181   5.194 -0.1945 -0.1741  0.3842
20172SOL    HW161679   7.260   2.108   5.133 -0.9309 -1.6260  1.9203
20172SOL    HW261680   7.251   2.139   5.280  2.0444  1.8865  1.5102
20173SOL     OW61681   2.298   1.402   8.628  0.2380 -0.5239  0.5815
20173SOL    HW161682   2.278   1.406   8.535  0.1209 -0.8189  0.5935
20173SOL    HW261683   2.221   1.362   8.668  0.2435 -0.2988  0.8203
20174SOL     OW61684   2.120   6.295   7.884 -0.4147  0.5335 -0.5263
20174SOL    HW161685   2.168   6.289   7.801  0.7766 -2.3771  0.2453
20174SOL    HW261686   2.183   6.336   7.944 -0.4352  0.5302 -0.5027
20175SOL     OW61687   7.473   0.145   3.409 -0.0615  0.6430  0.2428
20175SOL    HW161688   7.383   0.162   3.435  0.0888  1.3918  0.2958
20175SOL    HW261689   7.525   0.170   3.486  0.0740 -1.6982  0.9811
20176SOL     OW61690   6.144   0.795   7.171  0.2479 -0.0481 -0.4602
20176SOL    HW161691   6.162   0.873   7.117 -0.7169 -0.5381 -1.5423
20176SOL    HW261692   6.049   0.797   7.184  0.1186 -1.3444 -1.0137
20177SOL     OW61693   4.874   5.387   3.988 -0.3506 -0.3095  0.1305
20177SOL    HW161694   4.946   5.443   3.958 -1.0847  0.2802 -0.5994
20177SOL    HW261695   4.797   5.444   3.983 -0.8865 -0.9615  0.7902
20178SOL     OW61696   7.533   0.646   0.910  0.8456 -0.3390  0.3028
20178SOL    HW161697   7.472   0.581   0.876 -0.0394  0.7656 -0.2813
20178SOL    HW261698   7.492   0.677   0.991  0.2173  0.9224 -0.4567
20179SOL     OW61699   8.568   1.765   7.792  0.2684 -0.4285 -0.0672
20179SOL    HW161700   8.587   1.676   7.761 -0.0960 -1.6193  2.8057
20179SOL    HW261701   8.619   1.775   7.872  1.0466  2.3811 -0.7992
20180SOL     OW61702   5.233   4.281   2.031  0.4652  0.1751 -0.1862
20180SOL    HW161703   5.225   4.195   2.071 -0.5260  0.5498  0.4616
20180SOL    HW261704   5.194   4.341   2.094 -0.2452  0.9034 -1.2760
20181SOL     OW61705   4.524   8.157   7.739  0.1359  0.6640 -0.4827
20181SOL    HW161706   4.437   8.130   7.709 -0.0685  0.9971 -0.1910
20181SOL    HW261707   4.507   8.216   7.813  0.6307 -0.9657  1.0171
20182SOL     OW61708   5.001   7.326   5.192 -0.3399  0.0965  0.6978
20182SOL    HW161709   5.046   7.257   5.143 -1.4354 -1.6594  2.0545
20182SOL    HW261710   4.925   7.348   5.138 -0.2417 -0.0941  0.4806
20183SOL     OW61711   6.809   5.815   5.094 -0.3790 -0.1897 -0.1136
20183SOL    HW161712   6.820   5.722   5.115 -1.4866 -0.3925 -0.3478
20183SOL    HW261713   6.778   5.854   5.176  0.8634  0.1471  0.2162
20184SOL     OW61714   1.761   3.979   2.781  0.3681  0.0067  0.5628
20184SOL    HW161715   1.724   3.896   2.812 -2.2812  0.9969  0.3797
20184SOL    HW261716   1.787   3.962   2.691 -0.2127 -0.6393  0.5071
20185SOL     OW61717   2.420   3.611   7.235 -0.4185 -0.0339 -0.0947
20185SOL    HW161718   2.462   3.551   7.173 -0.5840 -1.5100  1.1682
20185SOL    HW261719   2.381   3.554   7.301 -1.9455  1.4268  0.3163
20186SOL     OW61720   4.181   7.764   0.782  0.0829  0.4329 -0.6105
20186SOL    HW161721   4.245   7.819   0.827  0.1950 -0.6347  0.5942
20186SOL    HW261722   4.107   7.758   0.843  0.5659 -1.6904 -0.1517
20187SOL     OW61723   4.604   0.053   5.913 -0.3122 -0.0309 -0.8090
20187SOL    HW161724   4.679  -0.006   5.905  0.5000  1.0194 -1.1700
20187SOL    HW261725   4.583   0.054   6.006  0.6089  0.2475 -0.5997
20188SOL     OW61726   8.730   2.011   4.006  0.9852  0.1199 -0.5266
20188SOL    HW161727   8.704   1.920   4.021 -0.1494  0.4750 -0.2909
20188SOL    HW261728   8.767   2.039   4.089 -0.7297  0.5459  0.1344
20189SOL     OW61729   3.670   2.406   2.989 -0.0097 -0.3666 -0.1576
20189SOL    HW161730   3.749   2.450   2.958  0.2454 -1.3429 -0.9360
20189SOL    HW261731   3.666   2.325   2.938 -0.9233 -0.8474  0.6452
20190SOL     OW61732   0.502   6.351   2.037  0.1515 -0.9496  0.5296
20190SOL    HW161733   0.594   6.377   2.030 -0.0636 -0.5366 -1.2275
20190SOL    HW261734   0.498   6.301   2.118  2.2353 -2.1872 -0.0256
20191SOL     OW61735   6.348   5.943   8.323 -0.0841  0.2817  0.5083
20191SOL    HW161736   6.319   5.964   8.235 -0.5384  2.0868  1.0456
20191SOL    HW261737   6.443   5.953   8.320  0.0720 -1.1905 -0.1339
20192SOL     OW61738   7.466   2.973   3.195 -0.4004 -0.3886  0.0351
20192SOL    HW161739   7.541   3.018   3.234  0.0176 -0.6174 -0.4959
20192SOL    HW261740   7.473   2.990   3.102 -0.0065 -1.8893 -0.2292
20193SOL     OW61741   5.756   8.210   3.975  0.0536 -0.8417  0.0903
20193SOL    HW161742   5.676   8.222   4.026 -1.0821  0.8399 -1.9177
20193SOL    HW261743   5.746   8.270   3.901  2.4286 -1.8210 -1.1202
20194SOL     OW61744   2.631   6.321   3.387  0.0769  0.5124 -0.3042
20194SOL    HW161745   2.635   6.328   3.292 -2.4007 -0.8071 -0.5944
20194SOL    HW261746   2.626   6.227   3.404  1.9946  0.6245  1.2868
20195SOL     OW61747   3.678   3.785   5.162 -0.6160 -0.0005 -0.4187
20195SOL    HW161748   3.741   3.820   5.225 -1.0736 -0.1765  0.1399
20195SOL    HW261749   3.595   3.781   5.210 -0.6420 -1.5742 -0.5666
20196SOL     OW61750   5.234   6.139   3.605 -0.1676  0.0336  0.2693
20196SOL    HW161751   5.180   6.203   3.650 -1.5473  0.8676 -2.3376
20196SOL    HW261752   5.304   6.191   3.564 -0.2051 -0.3759 -0.3271
20197SOL     OW61753   2.367   4.990   4.360  0.4394 -0.1953  0.7379
20197SOL    HW161754   2.298   4.971   4.424  0.5239  0.3523  0.9945
20197SOL    HW261755   2.446   5.001   4.412  0.6783 -0.5903  0.4627
20198SOL     OW61756   8.789   7.793   1.102  0.1174  0.1531  0.4958
20198SOL    HW161757   8.799   7.868   1.042 -1.1411 -0.3433 -0.3824
20198SOL    HW261758   8.867   7.796   1.157 -0.0126  2.2492  0.6471
20199SOL     OW61759   6.064   5.327   0.701 -0.6047  0.1751  0.1783
20199SOL    HW161760   6.082   5.233   0.709  0.2153  0.3034 -0.0624
20199SOL    HW261761   5.978   5.331   0.659 -0.6116 -0.4700  0.1136
20200SOL     OW61762   2.307   2.253   6.292 -1.0248 -0.4379 -0.0701
20200SOL    HW161763   2.379   2.315   6.305 -0.5151 -0.8143 -0.9707
20200SOL    HW261764   2.344   2.168   6.315 -1.9433 -0.3557  1.8943
20201SOL     OW61765   1.911   3.690   5.622 -0.4701  0.4511  0.2069
20201SOL    HW161766   1.900   3.779   5.589 -0.7219  0.4708  0.3395
20201SOL    HW261767   1.836   3.677   5.681 -0.1664  0.3268  0.5691
20202SOL     OW61768   5.387   0.390   1.224  0.2197 -0.5394  0.1061
20202SOL    HW161769   5.383   0.298   1.201  0.4285 -0.6296  0.4203
20202SOL    HW261770   5.319   0.401   1.290 -1.2389 -0.0133 -1.4203
20203SOL     OW61771   2.194   2.042   7.215  0.5507 -0.7408 -0.5073
20203SOL    HW161772   2.099   2.046   7.228  0.4830  2.3239 -1.2388
20203SOL    HW261773   2.207   2.078   7.127  2.4712  0.2022  0.1178
20204SOL     OW61774   5.960   1.338   7.319 -0.5747 -0.4887  0.8115
20204SOL    HW161775   6.002   1.274   7.377 -0.3780 -1.2987 -0.2022
20204SOL    HW261776   5.907   1.286   7.260  0.0795  0.2254 -0.4445
20205SOL     OW61777   5.964   1.748   5.250  1.2142  0.0950 -0.2078
20205SOL    HW161778   6.004   1.827   5.213  1.6922 -0.4222 -0.8192
20205SOL    HW261779   6.020   1.726   5.325  0.4561  0.9334  0.6437
20206SOL     OW61780   4.511   5.937   8.558 -0.2843 -0.0594 -0.1716
20206SOL    HW161781   4.583   5.876   8.565 -0.6764 -0.4399  0.7064
20206SOL    HW261782   4.440   5.887   8.516 -0.3386  0.0448 -0.2067
20207SOL     OW61783   8.207   0.126   1.074 -0.4635 -0.1701  0.5171
20207SOL    HW161784   8.253   0.055   1.119  2.8764  2.5426  1.9164
20207SOL    HW261785   8.155   0.168   1.143  0.7353  1.0159  0.7485
20208SOL     OW61786   0.861   1.901   3.028 -0.2074  0.2769  0.8061
20208SOL    HW161787   0.780   1.862   2.995 -0.5605  1.8945 -0.3624
20208SOL    HW261788   0.859   1.885   3.122 -0.5680 -2.0127  0.4532
20209SOL     OW61789   0.107   5.969   7.532  0.2788  0.6015  0.4138
20209SOL    HW161790   0.195   5.931   7.535 -0.3482 -0.9062  3.2159
20209SOL    HW261791   0.050   5.899   7.564 -2.0170  1.4595 -1.5704
20210SOL     OW61792   4.141   5.697   5.028  0.0806  0.2258  0.6070
20210SOL    HW161793   4.170   5.787   5.042  1.4615 -0.3253  1.5783
20210SOL    HW261794   4.130   5.661   5.116 -1.5892 -0.2323  0.2378
20211SOL     OW61795   6.821   8.559   2.591 -0.0467 -0.1306  0.5216
20211SOL    HW161796   6.788   8.506   2.519 -1.5447 -0.4195  1.3801
20211SOL    HW261797   6.786   8.647   2.574  0.4404  0.0359  0.3686
20212SOL     OW61798   4.640   0.474   3.575  0.1392  0.2461 -0.4569
20212SOL    HW161799   4.712   0.473   3.512  0.0400 -0.7769 -0.5665
20212SOL    HW261800   4.597   0.558   3.560  0.5725  0.3427 -1.2375
20213SOL     OW61801   6.444   8.191   5.531  0.2295  0.0629 -0.1926
20213SOL    HW161802   6.433   8.277   5.572  0.6083 -0.0274  0.0968
20213SOL    HW261803   6.535   8.190   5.502 -0.2238  0.4265 -1.7342
20214SOL     OW61804   8.072   7.616   5.163  0.1170 -0.1016 -0.2999
20214SOL    HW161805   8.021   7.574   5.094 -0.4506 -0.0815  0.1063
20214SOL    HW261806   8.027   7.594   5.244  1.5628 -1.3027  0.2319
20215SOL     OW61807   3.332   4.196   2.189  0.2369  0.7712 -0.5569
20215SOL    HW161808   3.409   4.215   2.136  0.6966 -1.1833 -0.6525
20215SOL    HW261809   3.366   4.178   2.276  0.0988 -1.6286 -0.9502
20216SOL     OW61810   5.672   2.065   2.008  0.4067 -0.2182  0.3490
20216SOL    HW161811   5.620   2.089   1.931  0.4651  1.2732  0.7383
20216SOL    HW261812   5.665   1.970   2.013 -1.8739 -0.1288  0.0868
20217SOL     OW61813   2.946   1.340   1.996 -0.3892  0.4320 -0.3858
20217SOL    HW161814   2.867   1.367   2.042 -0.5367  0.8274 -0.8675
20217SOL    HW261815   2.937   1.245   1.985 -0.1780  0.2700  0.7241
20218SOL     OW61816   8.829   7.663   1.533 -0.4354 -0.4373 -0.0029
20218SOL    HW161817   8.841   7.592   1.471  0.3384 -0.2585 -0.0714
20218SOL    HW261818   8.916   7.702   1.542 -1.0774  1.3123 -0.9452
20219SOL     OW61819   5.086   3.973   6.667  0.0125  0.5424 -0.3060
20219SOL    HW161820   5.169   3.936   6.639 -0.8941 -0.9418 -1.1524
20219SOL    HW261821   5.072   3.938   6.755 -0.0701  0.1521 -0.4704
20220SOL     OW61822   0.380   3.166   3.569  0.0018 -0.0985  0.1897
20220SOL    HW161823   0.324   3.235   3.604  1.1514  0.5215  0.8486
20220SOL    HW261824   0.330   3.085   3.585  0.3819  0.1264  3.2691
20221SOL     OW61825   8.117   2.265   7.722  0.1915 -0.0192 -0.1256
20221SOL    HW161826   8.042   2.320   7.701 -0.2422  0.0261  1.3946
20221SOL    HW261827   8.190   2.301   7.672 -0.7815 -0.0385 -1.5873
20222SOL     OW61828   3.378   8.162   1.512  0.9128  0.2964  0.0234
20222SOL    HW161829   3.367   8.122   1.599 -0.7010 -2.0850 -1.1553
20222SOL    HW261830   3.350   8.252   1.524  1.1156  0.1421  2.0659
20223SOL     OW61831   1.139   5.017   1.559  0.1290  0.0413  0.0269
20223SOL    HW161832   1.059   5.013   1.506  0.9089 -0.5601 -1.1435
20223SOL    HW261833   1.107   5.024   1.649 -1.2629 -0.9606 -0.3455
20224SOL     OW61834   2.079   1.276   8.706  0.4708 -0.7020 -0.0179
20224SOL    HW161835   1.985   1.269   8.691  0.3394  0.2452  0.2812
20224SOL    HW261836   2.117   1.200   8.662 -0.6446 -2.5165  1.9728
20225SOL     OW61837   4.196   5.103   4.914 -0.0640 -0.0398  0.3209
20225SOL    HW161838   4.223   5.021   4.872  2.0969  1.6368 -1.8729
20225SOL    HW261839   4.278   5.147   4.936 -1.0628  2.5830 -0.8173
20226SOL     OW61840   5.687   7.981   2.675  0.3622 -0.2312 -0.3310
20226SOL    HW161841   5.728   7.963   2.590  0.4778  0.0644 -0.3412
20226SOL    HW261842   5.659   7.896   2.707 -1.9627 -0.1014 -1.8146
20227SOL     OW61843   7.311   0.913   7.348 -0.7051  0.6981  0.0375
20227SOL    HW161844   7.384   0.929   7.407 -0.6469  3.7082 -0.7001
20227SOL    HW261845   7.259   0.846   7.393  1.0047  0.5283  1.9309
20228SOL     OW61846   5.942   0.317   7.045  0.0646  0.4701 -0.0159
20228SOL    HW161847   6.026   0.272   7.056  0.7956  1.7161 -0.2961
20228SOL    HW261848   5.941   0.343   6.953 -0.2463  1.1882  0.1854
20229SOL     OW61849   7.811   8.485   5.038  0.1295 -0.4642  0.1916
20229SOL    HW161850   7.722   8.498   5.071 -0.1540  0.1951 -0.8043
20229SOL    HW261851   7.859   8.562   5.067 -0.9863  2.0063 -3.7632
20230SOL     OW61852   0.009   1.004   3.869  0.4053 -0.4928 -0.7005
20230SOL    HW161853   0.010   1.095   3.840 -0.3038  0.2830  1.4901
20230SOL    HW261854  -0.058   0.963   3.815 -0.6935  0.8194 -0.4125
20231SOL     OW61855   7.958   7.752   6.887  0.1296 -0.4054  0.4048
20231SOL    HW161856   8.015   7.794   6.951  0.8814  0.3883 -0.7350
20231SOL    HW261857   7.930   7.824   6.829  0.6560 -1.2975 -1.0078
20232SOL     OW61858   7.095   5.243   2.272 -0.2686  0.3945 -0.0307
20232SOL    HW161859   7.104   5.202   2.187 -0.4195  2.2689 -1.0009
20232SOL    HW261860   7.002   5.235   2.293 -0.4712  1.0220 -0.6496
20233SOL     OW61861   0.003   3.933   4.367  0.0994  0.0954 -0.3102
20233SOL    HW161862   0.076   3.957   4.309 -1.6500  3.1549 -1.4419
20233SOL    HW261863  -0.073   3.930   4.310 -0.8820 -2.4459  0.9533
20234SOL     OW61864   1.560   4.669   4.992 -0.2210 -0.3227  0.3249
20234SOL    HW161865   1.647   4.687   5.028  0.1793 -0.9808 -0.2807
20234SOL    HW261866   1.577   4.610   4.918 -1.1355  0.0036 -0.1494
20235SOL     OW61867   7.753   3.638   5.023 -0.2267  0.1406 -0.5554
20235SOL    HW161868   7.680   3.579   5.038  0.3875 -0.2352  1.2394
20235SOL    HW261869   7.713   3.717   4.987 -1.7467  0.4556  1.6055
20236SOL     OW61870   5.112   2.363   3.327 -0.0939  0.0132  0.2074
20236SOL    HW161871   5.060   2.383   3.405  1.6731  0.3646  1.3441
20236SOL    HW261872   5.049   2.365   3.255 -1.0831  4.2205  0.9384
20237SOL     OW61873   5.769   7.697   1.031 -0.4409  0.5429 -0.1963
20237SOL    HW161874   5.778   7.668   1.122 -1.5522  1.6188  0.2924
20237SOL    HW261875   5.842   7.758   1.018  0.5150 -0.6292 -0.4809
20238SOL     OW61876   3.494   2.513   7.142  0.1002 -0.0674 -0.3325
20238SOL    HW161877   3.469   2.425   7.115 -0.7815  0.3528 -0.9192
20238SOL    HW261878   3.578   2.501   7.188 -0.4038 -1.3059  0.3124
20239SOL     OW61879   8.822   3.676   2.638  0.5874 -0.4158 -0.0652
20239SOL    HW161880   8.859   3.591   2.613  0.2860 -0.4323 -0.4543
20239SOL    HW261881   8.812   3.671   2.733  0.7215 -0.7552 -0.0691
20240SOL     OW61882   3.050   6.207   7.245  0.0226 -0.0651 -0.0130
20240SOL    HW161883   3.127   6.253   7.211  0.5462 -0.4108  0.6780
20240SOL    HW261884   2.986   6.275   7.263  0.7677  0.3943  0.9504
20241SOL     OW61885   8.371   5.666   2.486  0.9786 -0.1301 -0.6787
20241SOL    HW161886   8.353   5.690   2.395  3.3107 -0.0814 -1.2075
20241SOL    HW261887   8.458   5.703   2.503  0.9779 -0.9080  1.2873
20242SOL     OW61888   2.855   8.055   1.295  0.2199 -0.1712  0.1816
20242SOL    HW161889   2.778   8.112   1.301  0.5308  0.1185  1.9957
20242SOL    HW261890   2.840   8.003   1.216 -2.2666 -0.7236  0.9251
20243SOL     OW61891   4.592   6.649   8.094 -0.1076 -0.9898 -0.1265
20243SOL    HW161892   4.507   6.686   8.118  0.6757  0.5415  0.4112
20243SOL    HW261893   4.622   6.604   8.173  0.0491 -0.6154  0.0298
20244SOL     OW61894   3.177   4.706   3.413  0.3338  0.4722  0.2733
20244SOL    HW161895   3.173   4.664   3.499  0.5993 -1.6045 -0.6724
20244SOL    HW261896   3.270   4.712   3.392  0.2660 -2.0818 -1.1965
20245SOL     OW61897   4.980   7.199   7.580  0.0104  0.4051 -0.3908
20245SOL    HW161898   5.039   7.157   7.517  0.3663  2.1074 -1.2317
20245SOL    HW261899   4.999   7.292   7.573  1.4498  0.6118  3.6167
20246SOL     OW61900   6.158   1.194   6.383 -0.0793  0.1457 -0.0907
20246SOL    HW161901   6.214   1.161   6.312  2.5334 -1.7283  2.5899
20246SOL    HW261902   6.070   1.169   6.358  0.6828 -0.1884 -2.7564
20247SOL     OW61903   1.906   3.951   0.039  0.3223  0.1917 -0.0651
20247SOL    HW161904   1.878   4.036   0.005 -1.0016  0.8392  2.3979
20247SOL    HW261905   1.846   3.889  -0.002 -0.2146  0.7441 -0.1416
20248SOL     OW61906   2.009   0.232   8.475  0.5466  0.0589  0.6236
20248SOL    HW161907   1.918   0.259   8.486 -0.1054 -0.0439 -3.1668
20248SOL    HW261908   2.012   0.142   8.508 -1.6053 -1.0383 -1.8469
20249SOL     OW61909   2.322   7.884   5.032 -0.1576 -0.2554  0.0076
20249SOL    HW161910   2.267   7.838   5.096  0.5682 -0.7423  0.2948
20249SOL    HW261911   2.345   7.966   5.075 -0.5832 -0.0902 -0.0767
20250SOL     OW61912   3.351   2.269   4.290 -0.0993  0.0822  0.2576
20250SOL    HW161913   3.299   2.237   4.216  0.1567 -1.7252  0.8139
20250SOL    HW261914   3.440   2.242   4.270 -0.0242 -0.4158  1.1905
20251SOL     OW61915   4.837   2.057   4.611  0.0635  0.3257 -0.1509
20251SOL    HW161916   4.916   2.003   4.615 -0.4752 -0.4046  1.5663
20251SOL    HW261917   4.851   2.125   4.677 -0.2379  0.9441 -0.7080
20252SOL     OW61918   8.739   1.832   3.639 -0.1504 -0.0347 -0.2213
20252SOL    HW161919   8.781   1.829   3.725 -0.7759 -1.6213  0.0542
20252SOL    HW261920   8.713   1.923   3.628  1.0679  0.4591  0.7031
20253SOL     OW61921   5.054   5.734   0.634  0.1787  0.4157 -0.7859
20253SOL    HW161922   5.132   5.689   0.602  0.3712 -0.2661  0.6114
20253SOL    HW261923   4.981   5.690   0.591  0.4709 -0.0291 -0.8246
20254SOL     OW61924   3.804   2.410   2.317  0.0721  0.5898  0.1355
20254SOL    HW161925   3.872   2.343   2.324  0.9617  1.0715 -2.5038
20254SOL    HW261926   3.762   2.392   2.233 -2.8331  0.5997  1.4903
20255SOL     OW61927   4.403   2.232   4.383 -0.2259  0.0670  0.0443
20255SOL    HW161928   4.398   2.250   4.477 -0.4835  2.5502 -0.3889
20255SOL    HW261929   4.312   2.221   4.355 -0.1564 -0.5599  0.0424
20256SOL     OW61930   7.892   6.513   2.246 -0.2737  0.2741  0.3529
20256SOL    HW161931   7.835   6.442   2.276  1.3427 -0.3638  2.0973
20256SOL    HW261932   7.833   6.586   2.230 -1.6184 -0.4410  1.7886
20257SOL     OW61933   4.915   2.709   8.123 -0.4423  0.2140 -0.2907
20257SOL    HW161934   4.905   2.794   8.080  0.7679  1.5500  1.8646
20257SOL    HW261935   4.876   2.721   8.209  1.7749 -0.6153  0.9339
20258SOL     OW61936   2.964   7.926   3.139  0.3257  0.2816  0.2996
20258SOL    HW161937   2.947   7.928   3.045 -0.1784  0.4362  0.3865
20258SOL    HW261938   2.877   7.934   3.178  0.6344  1.5201  0.7773
20259SOL     OW61939   5.409   7.333   6.734  0.8970 -0.0060 -0.3324
20259SOL    HW161940   5.428   7.328   6.828 -0.4797 -0.1895 -0.0452
20259SOL    HW261941   5.424   7.244   6.702  1.0939 -0.0082 -0.2362
20260SOL     OW61942   1.851   6.165   8.203 -0.0531 -0.0706  0.5730
20260SOL    HW161943   1.757   6.180   8.205 -0.2391 -0.7189 -1.1384
20260SOL    HW261944   1.861   6.079   8.162  1.2886  0.0733  0.5306
20261SOL     OW61945   8.564   1.573   1.337  0.0169  0.1559  0.4562
20261SOL    HW161946   8.479   1.601   1.370 -0.5701  0.8878 -1.5453
20261SOL    HW261947   8.624   1.586   1.411 -1.2604  1.3644  1.3304
20262SOL     OW61948   6.553   6.771   5.683 -0.3223 -0.0409 -0.0560
20262SOL    HW161949   6.461   6.793   5.696 -0.5087 -0.1960 -1.0326
20262SOL    HW261950   6.592   6.778   5.770 -0.9817  1.2755  0.1567
20263SOL     OW61951   3.401   5.593   8.618 -0.6550  0.7404 -0.2354
20263SOL    HW161952   3.489   5.621   8.643 -0.9661 -0.0502  1.9972
20263SOL    HW261953   3.403   5.498   8.622 -1.2761  0.6401 -1.5367
20264SOL     OW61954   8.095   1.262   1.991  0.1919 -0.0975 -0.2526
20264SOL    HW161955   8.059   1.349   1.976 -0.8229 -0.4525 -0.0096
20264SOL    HW261956   8.050   1.206   1.928  1.2299 -0.3645 -0.7718
20265SOL     OW61957   4.971   0.906   8.483  0.0481 -0.6602 -0.0599
20265SOL    HW161958   4.928   0.942   8.405 -1.5317  0.5865  1.3169
20265SOL    HW261959   5.058   0.946   8.482 -0.5269  0.6535 -0.3433
20266SOL     OW61960   5.555   2.750   5.573 -0.5549 -0.1743 -0.5661
20266SOL    HW161961   5.637   2.790   5.543 -0.0758 -0.3227  0.5167
20266SOL    HW261962   5.570   2.730   5.665 -2.4163  1.4258  0.1638
20267SOL     OW61963   0.556   7.424   6.677  0.0462  0.1163  0.2529
20267SOL    HW161964   0.558   7.514   6.710 -0.9853  0.6695 -1.1100
20267SOL    HW261965   0.642   7.411   6.638  0.1956  0.5149  0.4428
20268SOL     OW61966   5.237   4.022   3.963 -0.5541  0.5196  0.0358
20268SOL    HW161967   5.181   4.070   4.024 -0.8498 -0.2292  0.3592
20268SOL    HW261968   5.316   4.075   3.957 -0.6483  0.7665  0.8316
20269SOL     OW61969   4.165   4.488   1.826  0.2967 -0.2978  0.0993
20269SOL    HW161970   4.213   4.542   1.888  0.2923 -0.4770  0.2574
20269SOL    HW261971   4.213   4.497   1.744 -1.7165  2.9704 -0.9222
20270SOL     OW61972   3.495   5.450   1.267 -0.0802 -0.0493 -0.2041
20270SOL    HW161973   3.419   5.408   1.227 -1.1621  1.7547 -0.1414
20270SOL    HW261974   3.548   5.377   1.300 -3.4354 -1.3530  2.9450
20271SOL     OW61975   3.229   6.134   4.473  0.2930 -0.6902 -0.1525
20271SOL    HW161976   3.276   6.189   4.411 -0.8932  0.2508 -0.2419
20271SOL    HW261977   3.265   6.157   4.559 -0.0438  0.0527 -0.2130
20272SOL     OW61978   5.901   7.567   2.916 -0.5733  0.1877  0.4276
20272SOL    HW161979   5.970   7.567   2.981  0.9013 -0.9470 -1.0579
20272SOL    HW261980   5.914   7.486   2.866 -0.2654  1.9673 -2.6478
20273SOL     OW61981   6.474   8.013   7.266  0.5100  0.3214  0.9204
20273SOL    HW161982   6.462   8.094   7.217 -0.2157 -0.0499  0.4739
20273SOL    HW261983   6.493   7.947   7.200  0.3572 -0.0214  1.2139
20274SOL     OW61984   8.352   4.486   2.509  0.0267  0.3355 -0.3871
20274SOL    HW161985   8.270   4.486   2.558 -0.2467 -3.0707 -0.6023
20274SOL    HW261986   8.329   4.451   2.422  1.6027 -0.2923 -0.5948
20275SOL     OW61987   6.859   6.832   1.697 -0.2474 -0.3619 -0.4582
20275SOL    HW161988   6.814   6.751   1.671 -0.7109 -0.0104 -0.7699
20275SOL    HW261989   6.820   6.899   1.641  0.1990  0.0626 -0.2603
20276SOL     OW61990   7.169   6.394   2.334 -0.4453  0.8116  0.3646
20276SOL    HW161991   7.185   6.316   2.279  1.7874  0.4758  1.3859
20276SOL    HW261992   7.131   6.458   2.273  2.3951  0.6480 -1.8126
20277SOL     OW61993   0.418   1.039   0.765  0.2367 -0.0046  0.7094
20277SOL    HW161994   0.484   1.088   0.813 -0.2155 -0.2317  1.5666
20277SOL    HW261995   0.357   1.007   0.831 -0.9760  0.5318 -0.0966
20278SOL     OW61996   6.965   2.394   3.771  0.2208  0.0506  0.0281
20278SOL    HW161997   6.908   2.317   3.774 -0.0273  0.2412  0.2902
20278SOL    HW261998   6.904   2.468   3.758  0.2098  0.4713  2.2059
20279SOL     OW61999   8.428   6.692   1.720  0.1194  0.1752  0.3705
20279SOL    HW162000   8.394   6.780   1.736 -2.7218 -0.7045 -0.2567
20279SOL    HW262001   8.375   6.657   1.648  1.2855 -1.9898  0.4505
20280SOL     OW62002   4.151   8.557   4.012 -0.8095 -0.5300 -0.3157
20280SOL    HW162003   4.131   8.607   4.091  0.5994 -0.0871 -0.2174
20280SOL    HW262004   4.230   8.508   4.034 -0.6404 -0.7201 -1.3157
20281SOL     OW62005   3.065   0.890   2.642 -0.1804  0.1385 -0.2177
20281SOL    HW162006   3.111   0.905   2.559  0.4303 -0.8201 -0.0595
20281SOL    HW262007   3.125   0.921   2.709 -0.5532  0.6384 -0.1151
20282SOL     OW62008   2.799   7.620   2.545 -0.4046 -0.0506 -0.3871
20282SOL    HW162009   2.803   7.704   2.591  0.0861  0.5353 -1.4809
20282SOL    HW262010   2.793   7.642   2.453 -1.4625 -1.2203 -0.6332
20283SOL     OW62011   0.318   5.312   6.304  0.3307 -0.4488 -0.1438
20283SOL    HW162012   0.366   5.379   6.353  1.1178 -1.5321  0.5996
20283SOL    HW262013   0.280   5.256   6.372 -0.2304 -0.8241 -0.7619
20284SOL     OW62014   0.189   1.027   0.605 -0.7420  0.0881  0.8503
20284SOL    HW162015   0.205   1.048   0.513 -0.7224  1.0070  1.0537
20284SOL    HW262016   0.276   1.024   0.644 -0.6194 -1.9233  0.5292
20285SOL     OW62017   5.713   6.578   6.627  0.1078  0.1333 -0.1599
20285SOL    HW162018   5.703   6.648   6.562  2.5334  1.5873  0.8817
20285SOL    HW262019   5.799   6.541   6.608  0.3206 -0.2334  1.4507
20286SOL     OW62020   3.416   6.118   2.153  0.3811  0.1999 -0.1254
20286SOL    HW162021   3.376   6.127   2.239  1.7797 -0.2061  0.5995
20286SOL    HW262022   3.396   6.200   2.108 -1.2908 -0.0269  0.1651
20287SOL     OW62023   6.781   7.093   7.731  0.1259  0.6884 -0.6489
20287SOL    HW162024   6.789   6.998   7.739  1.4232  0.8152 -0.2318
20287SOL    HW262025   6.756   7.108   7.640  2.1899  0.0387 -1.3577
20288SOL     OW62026   2.288   0.620   8.254 -0.1554  0.4026  0.3551
20288SOL    HW162027   2.250   0.575   8.330 -0.9740 -0.7744 -0.6964
20288SOL    HW262028   2.218   0.620   8.189  0.9234  0.2092 -0.8527
20289SOL     OW62029   6.021   1.578   2.323 -0.0258  0.0052  0.0230
20289SOL    HW162030   6.070   1.661   2.329 -2.2008  1.3739 -0.1377
20289SOL    HW262031   6.075   1.522   2.268  0.8946  1.8033 -0.9879
20290SOL     OW62032   0.356   5.905   4.658  0.5023  0.2735 -0.3524
20290SOL    HW162033   0.445   5.880   4.685 -0.3254 -1.8444  0.5799
20290SOL    HW262034   0.353   5.886   4.565  0.5824 -1.1893 -0.0832
20291SOL     OW62035   2.953   4.865   8.235 -0.1206 -0.6992 -0.3741
20291SOL    HW162036   2.859   4.882   8.241  0.1850  0.7908  0.8834
20291SOL    HW262037   2.994   4.942   8.274  1.7150 -0.4033 -2.6770
20292SOL     OW62038   1.684   3.144   0.887 -0.4714  0.0738  0.2989
20292SOL    HW162039   1.594   3.172   0.906 -0.6419  1.2941 -1.9268
20292SOL    HW262040   1.682   3.122   0.793  1.5486  0.1295  0.2126
20293SOL     OW62041   7.009   8.337   0.880  0.2311 -0.3742 -0.2997
20293SOL    HW162042   7.104   8.326   0.893  0.5584  1.2618 -0.9752
20293SOL    HW262043   6.978   8.250   0.857  1.2312 -1.3391  1.7240
20294SOL     OW62044   1.942   6.545   4.595 -0.5459 -0.0675 -0.4922
20294SOL    HW162045   1.891   6.554   4.675  1.2712  0.7846  0.6566
20294SOL    HW262046   1.960   6.635   4.568 -1.3347 -0.3435 -2.0309
20295SOL     OW62047   7.221   5.483   4.165  0.2907 -0.4505 -0.0558
20295SOL    HW162048   7.134   5.503   4.198 -0.5004 -3.0291 -0.3542
20295SOL    HW262049   7.212   5.487   4.070  0.1037 -2.0032 -0.1261
20296SOL     OW62050   7.047   6.159   5.901 -0.0522  0.1986  0.2054
20296SOL    HW162051   7.077   6.171   5.811 -0.5734 -0.3347 -0.0432
20296SOL    HW262052   6.952   6.149   5.894  0.0201 -0.9988  0.6959
20297SOL     OW62053   2.768   8.284   1.825  0.7278 -0.2138 -0.1990
20297SOL    HW162054   2.676   8.284   1.799  0.2137 -1.4340  1.4270
20297SOL    HW262055   2.776   8.209   1.885  2.8347 -0.2789 -0.4761
20298SOL     OW62056   0.678   8.231   6.095 -0.1927  0.2454 -0.6695
20298SOL    HW162057   0.624   8.240   6.017 -0.7335  0.0893 -0.3161
20298SOL    HW262058   0.640   8.291   6.159 -0.2082 -0.1717 -0.2799
20299SOL     OW62059   4.020   2.287   5.477 -0.0401  0.5362  0.6981
20299SOL    HW162060   4.007   2.289   5.382  1.1410  0.1792  0.5100
20299SOL    HW262061   4.090   2.351   5.493  0.2921  0.0517  1.2270
20300SOL     OW62062   1.015   2.109   0.772  0.1557 -0.1203  0.0626
20300SOL    HW162063   0.925   2.076   0.781  0.3591 -0.5390  0.5998
20300SOL    HW262064   1.022   2.134   0.680 -0.9879  1.2946  0.3148
20301SOL     OW62065   6.209   7.766   1.427 -0.3466 -0.3519  0.1976
20301SOL    HW162066   6.182   7.833   1.490 -2.6503 -1.0842  0.0776
20301SOL    HW262067   6.295   7.795   1.396 -1.6992  3.1691 -0.6777
20302SOL     OW62068   0.808   8.160   4.464  0.2837 -0.2940  0.1724
20302SOL    HW162069   0.815   8.116   4.549  0.4312  0.1691  0.3994
20302SOL    HW262070   0.859   8.240   4.473 -1.4901  0.8549  0.3638
20303SOL     OW62071   3.373   3.951   3.501  0.3097  0.6118  0.1205
20303SOL    HW162072   3.393   3.911   3.417  1.4682 -2.3747  1.6768
20303SOL    HW262073   3.456   3.987   3.532 -0.1002  1.6617  0.0449
20304SOL     OW62074   8.785   6.619   1.469  0.6429 -0.4636 -0.2068
20304SOL    HW162075   8.702   6.572   1.472  0.0801 -0.1068 -4.1271
20304SOL    HW262076   8.851   6.551   1.457  0.4665 -0.5699 -0.5981
20305SOL     OW62077   5.772   8.808   8.311 -0.5324 -0.2421  0.3349
20305SOL    HW162078   5.727   8.833   8.230 -0.4835 -1.8540 -0.2341
20305SOL    HW262079   5.855   8.855   8.308 -1.2267  1.0330  0.3082
20306SOL     OW62080   8.742   2.652   3.766  0.3703 -0.4196 -0.1665
20306SOL    HW162081   8.681   2.580   3.782 -0.7699  0.6456  0.4127
20306SOL    HW262082   8.755   2.692   3.852  1.8741 -0.6027 -0.2872
20307SOL     OW62083   8.768   0.151   6.712 -0.3405  0.2175 -0.3664
20307SOL    HW162084   8.772   0.055   6.705 -0.9912  0.2520 -1.4675
20307SOL    HW262085   8.688   0.168   6.763 -0.2902  0.1737 -0.2737
20308SOL     OW62086   7.682   8.341   2.120 -0.0554  0.1824 -0.0792
20308SOL    HW162087   7.726   8.375   2.198 -1.0583  0.5955  0.3283
20308SOL    HW262088   7.681   8.415   2.059 -0.2444  0.1981 -0.0580
20309SOL     OW62089   8.296   2.614   5.162  0.4439 -0.1817 -0.4112
20309SOL    HW162090   8.349   2.541   5.131  0.2033 -0.2858 -0.5794
20309SOL    HW262091   8.209   2.575   5.178  0.3463  0.0420 -0.3950
20310SOL     OW62092   8.319   2.207   1.148 -0.1187 -0.0148  0.7003
20310SOL    HW162093   8.237   2.227   1.103  1.0080  2.5950 -0.3682
20310SOL    HW262094   8.370   2.156   1.085 -0.1351  0.0763  0.6147
20311SOL     OW62095   0.234   3.677   4.639 -0.9570 -0.0095 -0.3546
20311SOL    HW162096   0.160   3.731   4.667 -0.4047  0.6498 -0.1447
20311SOL    HW262097   0.307   3.706   4.693 -0.9766 -2.0088  0.8424
20312SOL     OW62098   0.609   0.096   7.786  0.3986  0.5204  0.1256
20312SOL    HW162099   0.555   0.174   7.798 -0.9920 -0.3093 -0.4270
20312SOL    HW262100   0.585   0.063   7.699 -0.7842 -1.7599  1.2156
20313SOL     OW62101   4.954   1.794   3.164 -0.1277  0.1437 -0.1093
20313SOL    HW162102   4.995   1.878   3.186  1.2206 -0.4489 -0.2531
20313SOL    HW262103   4.895   1.815   3.091 -0.6107  1.1383  0.5348
20314SOL     OW62104   6.622   5.953   1.038  0.6825  0.1638 -0.2377
20314SOL    HW162105   6.581   6.038   1.026  2.6311  0.8147 -3.0677
20314SOL    HW262106   6.575   5.895   0.978  2.4620  0.4672 -2.0209
20315SOL     OW62107   0.664   3.298   5.916 -0.3622 -0.2437 -0.5014
20315SOL    HW162108   0.598   3.362   5.943  0.3022 -0.7103  2.5677
20315SOL    HW262109   0.616   3.215   5.908 -0.2388 -0.5546  1.5833
20316SOL     OW62110   7.060   5.738   4.736  0.0279  0.2972 -0.2911
20316SOL    HW162111   7.007   5.721   4.658 -0.6963  0.1346  0.2306
20316SOL    HW262112   7.025   5.679   4.803  0.2689  0.8308  0.3176
20317SOL     OW62113   6.042   5.222   3.981 -0.1363  0.1166  0.2345
20317SOL    HW162114   6.091   5.283   4.037 -1.0404 -0.3059  1.5343
20317SOL    HW262115   5.957   5.265   3.968  0.3452  0.6010 -1.5639
20318SOL     OW62116   0.333   5.669   2.542  0.2115 -0.1539 -0.0825
20318SOL    HW162117   0.261   5.730   2.563 -0.6374 -1.3490  0.5975
20318SOL    HW262118   0.380   5.712   2.471 -1.0324  0.7897 -0.3781
20319SOL     OW62119   7.306   7.627   6.114 -0.6244  0.0098 -0.0375
20319SOL    HW162120   7.371   7.661   6.053 -0.4984 -1.4278 -0.7501
20319SOL    HW262121   7.355   7.608   6.194 -0.3307 -0.2543 -0.2786
20320SOL     OW62122   3.250   7.105   6.168 -0.2284 -0.1979 -0.6108
20320SOL    HW162123   3.205   7.143   6.092 -1.2055  0.2006  0.1544
20320SOL    HW262124   3.184   7.103   6.237  1.1660  1.3170  0.8634
20321SOL     OW62125   8.589   8.375   7.171  0.0432  0.0404 -0.0499
20321SOL    HW162126   8.642   8.306   7.212  0.7362 -0.7454 -2.1256
20321SOL    HW262127   8.499   8.351   7.192  0.2774 -1.4410 -0.6160
20322SOL     OW62128   7.246   4.843   1.705 -0.3081 -0.0141  0.2506
20322SOL    HW162129   7.291   4.922   1.675 -1.5103  1.2644  1.6665
20322SOL    HW262130   7.230   4.793   1.624  2.8745 -0.1994 -0.3837
20323SOL     OW62131   3.755   4.079   1.913  0.1382 -0.8320 -0.2126
20323SOL    HW162132   3.763   4.097   1.820  0.7927  0.5129  0.0853
20323SOL    HW262133   3.838   4.037   1.936  1.0767  1.1420  0.2347
20324SOL     OW62134   4.682   2.714   6.883  0.1569 -0.0289 -0.3045
20324SOL    HW162135   4.720   2.757   6.806 -0.6826 -0.7084 -1.1245
20324SOL    HW262136   4.754   2.663   6.919  0.6223  0.4771 -0.4943
20325SOL     OW62137   6.191   6.238   2.211 -0.5424  0.3323  0.7942
20325SOL    HW162138   6.286   6.242   2.203 -0.5832  0.2057  0.2289
20325SOL    HW262139   6.158   6.287   2.136 -0.9385 -1.7111 -0.4341
20326SOL     OW62140   4.959   7.045   5.292 -0.0397 -0.4587 -0.8140
20326SOL    HW162141   5.053   7.059   5.307 -0.1311 -0.3399 -0.3118
20326SOL    HW262142   4.916   7.096   5.361 -0.4537 -1.0028 -0.6574
20327SOL     OW62143   7.307   2.229   2.270  0.5892 -0.3474 -0.1874
20327SOL    HW162144   7.225   2.203   2.312  0.5187  0.1220 -0.0308
20327SOL    HW262145   7.286   2.312   2.227  0.9357 -0.3141 -0.2922
20328SOL     OW62146   5.754   6.256   1.883  0.4317  0.2098 -0.3034
20328SOL    HW162147   5.771   6.342   1.844 -0.2128  0.9900  1.0770
20328SOL    HW262148   5.817   6.249   1.955 -0.6692  0.3060  0.7015
20329SOL     OW62149   1.326   3.527   3.372  0.3357 -0.1750  0.6845
20329SOL    HW162150   1.256   3.589   3.348  1.1174  0.8058  0.8669
20329SOL    HW262151   1.332   3.467   3.298 -0.1716  0.2112  0.3234
20330SOL     OW62152   0.410   8.245   2.361  0.6481  0.4664  0.1268
20330SOL    HW162153   0.413   8.267   2.268  0.0500  0.7303  0.1641
20330SOL    HW262154   0.386   8.327   2.404  0.5603  0.2601  0.4769
20331SOL     OW62155   5.338   0.097   3.075  0.0905  0.7828 -0.4936
20331SOL    HW162156   5.347   0.168   3.011 -0.3536  0.6001 -0.7635
20331SOL    HW262157   5.291   0.138   3.148 -2.5722  0.1729 -1.7065
20332SOL     OW62158   3.602   0.084   7.040  0.0525 -0.0945  0.0239
20332SOL    HW162159   3.642   0.000   7.063  1.1563  0.6170  0.7774
20332SOL    HW262160   3.508   0.069   7.050  0.2722 -1.0490  0.8444
20333SOL     OW62161   3.907   6.150   0.324 -0.2972 -0.1683  0.0820
20333SOL    HW162162   3.855   6.183   0.251  0.6271 -1.0124 -1.0026
20333SOL    HW262163   3.953   6.227   0.357  1.8273 -0.2352 -2.4004
20334SOL     OW62164   2.328   6.913   5.985 -0.4129 -0.7436 -0.2981
20334SOL    HW162165   2.329   6.998   6.029  0.0796 -0.4943 -0.7702
20334SOL    HW262166   2.238   6.883   5.992 -1.1595  0.8635 -2.0697
20335SOL     OW62167   5.699   6.337   0.447  0.3537 -0.2147  0.5291
20335SOL    HW162168   5.637   6.370   0.381  1.3737  0.4560 -0.1187
20335SOL    HW262169   5.782   6.329   0.400  0.5159 -2.2188  1.0848
20336SOL     OW62170   8.602   0.962   5.954  0.1744 -0.3246  0.1420
20336SOL    HW162171   8.550   0.911   6.016  0.8182  0.7551  1.6288
20336SOL    HW262172   8.691   0.927   5.962 -0.1615 -1.9464 -2.1555
20337SOL     OW62173   7.269   6.906   2.545  0.4961 -0.1791  0.5062
20337SOL    HW162174   7.194   6.850   2.525  1.7364 -1.7509  0.0430
20337SOL    HW262175   7.240   6.960   2.619 -1.8850  0.9821 -1.1432
20338SOL     OW62176   7.986   7.468   6.306 -0.7623  0.5196 -0.2129
20338SOL    HW162177   7.964   7.521   6.383  1.0610  0.6411  0.2622
20338SOL    HW262178   8.034   7.527   6.249  0.0315 -0.2149 -0.3246
20339SOL     OW62179   4.937   1.023   3.502 -0.0720  0.2219  0.3352
20339SOL    HW162180   4.866   0.973   3.462  0.2882  1.3925 -1.9242
20339SOL    HW262181   5.012   0.963   3.500 -0.1535  0.1359 -0.4546
20340SOL     OW62182   3.770   2.672   3.025 -0.5143  0.6740 -0.1555
20340SOL    HW162183   3.770   2.652   3.119  0.1902  0.7882 -0.1222
20340SOL    HW262184   3.818   2.755   3.019  3.5704 -1.4859 -1.0058
20341SOL     OW62185   6.212   0.446   1.751  0.0436  0.5658 -0.1162
20341SOL    HW162186   6.185   0.515   1.690  2.6516  1.8040  0.0002
20341SOL    HW262187   6.281   0.399   1.705  0.5702  0.1450  1.0549
20342SOL     OW62188   8.362   8.086   6.918 -0.0690  0.1870 -0.2543
20342SOL    HW162189   8.457   8.077   6.911 -0.0213  0.5034 -0.0064
20342SOL    HW262190   8.349   8.171   6.960 -0.5018  1.0217 -1.9837
20343SOL     OW62191   0.098   5.506   7.696 -0.0097 -0.4984 -0.0178
20343SOL    HW162192   0.153   5.541   7.766  2.9671 -0.0526 -2.3581
20343SOL    HW262193   0.079   5.416   7.723 -1.4114  0.4765  2.6075
20344SOL     OW62194   6.749   1.473   7.063 -0.0014  1.0573  0.3398
20344SOL    HW162195   6.662   1.504   7.088  0.2213  2.3039 -0.3401
20344SOL    HW262196   6.766   1.399   7.121 -2.1012 -0.1356 -0.4722
20345SOL     OW62197   2.558   3.771   1.526  0.2900 -0.2254  0.1951
20345SOL    HW162198   2.559   3.793   1.619 -0.7948 -0.6826  0.3441
20345SOL    HW262199   2.472   3.800   1.496  0.3505 -0.7261 -0.4924
20346SOL     OW62200   4.160   4.822   4.453 -0.4746 -0.1767 -0.6451
20346SOL    HW162201   4.105   4.826   4.531  0.7587 -0.1989  0.2352
20346SOL    HW262202   4.164   4.912   4.421  0.5451  0.1718  0.4087
20347SOL     OW62203   1.211   7.641   6.207 -0.5072 -0.0240 -0.1891
20347SOL    HW162204   1.198   7.735   6.196  2.7718  0.6015  0.2176
20347SOL    HW262205   1.280   7.618   6.145  0.7093 -1.5272  1.5775
20348SOL     OW62206   7.696   3.333   6.203 -0.6912 -0.2204  0.1688
20348SOL    HW162207   7.619   3.376   6.239 -0.2714  1.8076 -1.1898
20348SOL    HW262208   7.699   3.360   6.112  1.2406 -0.7997 -0.0006
20349SOL     OW62209   2.554   1.691   5.809 -0.1668 -0.0938  0.5880
20349SOL    HW162210   2.593   1.605   5.823  0.4182  0.1496  0.4851
20349SOL    HW262211   2.559   1.733   5.895 -1.2283 -0.4655  0.8484
20350SOL     OW62212   6.635   5.965   1.709 -0.0269 -0.1561 -0.0196
20350SOL    HW162213   6.720   5.939   1.744  1.1355  1.8719 -1.1299
20350SOL    HW262214   6.608   6.039   1.764  0.2897  0.9817 -1.3289
20351SOL     OW62215   1.394   6.564   1.696 -0.9143 -0.0071  0.5638
20351SOL    HW162216   1.465   6.500   1.687 -0.2642  0.9796 -2.8131
20351SOL    HW262217   1.439   6.647   1.710 -1.5529  0.2562  1.0533
20352SOL     OW62218   8.376   4.931   6.103 -0.4879 -0.5240  0.1432
20352SOL    HW162219   8.353   4.845   6.069 -1.7031  0.0046 -0.4403
20352SOL    HW262220   8.390   4.917   6.196 -2.3989 -1.0633  0.3857
20353SOL     OW62221   1.887   6.457   1.280  0.2392  0.4390  0.2257
20353SOL    HW162222   1.951   6.485   1.215  0.1514 -0.7175 -0.3729
20353SOL    HW262223   1.936   6.399   1.338 -0.3034 -0.6421 -0.3733
20354SOL     OW62224   2.230   2.772   2.793 -0.0097 -0.0782 -0.1101
20354SOL    HW162225   2.177   2.692   2.793  0.8055 -0.6270  0.1879
20354SOL    HW262226   2.264   2.779   2.882 -2.7068  2.4101  0.8650
20355SOL     OW62227   0.756   0.601   7.155  0.1377 -0.0274  0.2086
20355SOL    HW162228   0.825   0.584   7.220  0.1099  0.2271  0.3063
20355SOL    HW262229   0.802   0.605   7.071  0.3572  0.9215  0.3628
20356SOL     OW62230   5.899   6.767   0.393  0.0382 -0.5932 -0.1180
20356SOL    HW162231   5.825   6.817   0.361  0.4227 -0.7499 -1.2858
20356SOL    HW262232   5.861   6.703   0.453 -0.7487 -0.5651 -0.5793
20357SOL     OW62233   0.742   4.783   0.121  0.0191  0.1801 -0.3404
20357SOL    HW162234   0.742   4.830   0.204 -0.9462  1.0182 -0.7911
20357SOL    HW262235   0.735   4.691   0.146 -0.2355  0.4181  0.5120
20358SOL     OW62236   7.294   8.653   5.697 -0.4419  0.1824  0.0911
20358SOL    HW162237   7.317   8.573   5.745 -0.3057 -1.0521 -1.9402
20358SOL    HW262238   7.378   8.694   5.678 -0.5474  1.4423  2.0384
20359SOL     OW62239   6.285   0.121   6.365 -0.8250 -0.0255  0.2013
20359SOL    HW162240   6.349   0.158   6.304 -0.4486 -0.8179  0.1105
20359SOL    HW262241   6.313   0.153   6.451  1.9728 -3.3263  0.6939
20360SOL     OW62242   5.324   2.822   3.381 -0.4481 -0.0441  0.5159
20360SOL    HW162243   5.362   2.828   3.468 -2.8630 -0.0208  1.6414
20360SOL    HW262244   5.375   2.883   3.328  1.4552 -0.5133  1.7343
20361SOL     OW62245   4.458   4.189   7.253  0.2913 -0.1578  0.7837
20361SOL    HW162246   4.393   4.257   7.271  0.2281 -0.1736  0.6190
20361SOL    HW262247   4.408   4.108   7.248  0.3252 -0.1722  0.6699
20362SOL     OW62248   0.153   7.126   2.118  0.1090 -0.0337  0.1043
20362SOL    HW162249   0.234   7.077   2.125  0.1149  0.1481  1.7661
20362SOL    HW262250   0.103   7.082   2.049  0.8396 -1.2752  0.3479
20363SOL     OW62251   6.764   4.239   4.025  0.6512  0.1514 -0.3049
20363SOL    HW162252   6.765   4.161   4.081 -0.3313  1.4157  1.5562
20363SOL    HW262253   6.683   4.284   4.048  0.9203  1.4381 -1.7704
20364SOL     OW62254   4.884   1.548   5.082 -0.1837  0.1685  0.0779
20364SOL    HW162255   4.975   1.535   5.111 -0.1164 -0.5384 -0.3932
20364SOL    HW262256   4.834   1.560   5.162 -0.1127 -2.3613  0.6086
20365SOL     OW62257   6.616   4.901   8.384  0.4384  0.1094 -0.0826
20365SOL    HW162258   6.709   4.891   8.368  0.1826 -0.2912 -1.4343
20365SOL    HW262259   6.597   4.842   8.457  0.9365 -1.1402 -0.9346
20366SOL     OW62260   5.720   5.872   7.305 -0.7341  0.0669  0.4030
20366SOL    HW162261   5.712   5.851   7.212 -2.5073  0.2281  0.4725
20366SOL    HW262262   5.792   5.818   7.336  0.6625  0.8526 -1.2916
20367SOL     OW62263   5.637   6.519   4.942 -0.0211  0.2538 -0.0955
20367SOL    HW162264   5.628   6.541   4.849 -0.1692 -2.5231 -0.8269
20367SOL    HW262265   5.602   6.595   4.988 -0.9784  1.2562 -2.3305
20368SOL     OW62266   8.210   6.132   4.529 -0.3867 -0.0861  0.1268
20368SOL    HW162267   8.249   6.146   4.443  0.1594 -0.1545  0.3598
20368SOL    HW262268   8.199   6.221   4.564 -0.2798 -0.0721  0.1276
20369SOL     OW62269   5.085   2.322   2.647 -0.3390  0.3264  0.8396
20369SOL    HW162270   5.159   2.274   2.686  0.3859  0.3031 -0.5172
20369SOL    HW262271   5.126   2.389   2.592 -1.3401  0.5631  0.3655
20370SOL     OW62272   6.344   0.157   8.850  0.4999  0.4644  0.2130
20370SOL    HW162273   6.346   0.077   8.799 -0.6843  0.9280 -0.6021
20370SOL    HW262274   6.272   0.145   8.911  1.2530  0.3322  1.0973
20371SOL     OW62275   0.649   2.894   5.202  0.0982 -0.2252 -0.4129
20371SOL    HW162276   0.689   2.846   5.275 -0.2552 -0.5853 -0.4542
20371SOL    HW262277   0.600   2.828   5.154 -0.5501  0.2128 -0.3599
20372SOL     OW62278   3.702   6.721   1.539  0.3065 -0.2375  0.2636
20372SOL    HW162279   3.765   6.780   1.580  0.2081  0.7517 -0.9385
20372SOL    HW262280   3.681   6.763   1.455 -0.6163 -1.4321 -0.1346
20373SOL     OW62281   3.668   8.603   6.559  0.1081  0.1051 -0.5538
20373SOL    HW162282   3.669   8.539   6.631  0.1465  0.3184 -0.3625
20373SOL    HW262283   3.613   8.675   6.592 -0.2251  0.0151 -0.9038
20374SOL     OW62284   3.834   3.623   0.391 -0.1836 -0.6711 -0.3615
20374SOL    HW162285   3.835   3.578   0.475  1.5931  1.5895  0.9681
20374SOL    HW262286   3.793   3.707   0.409  0.8925  0.1581 -1.5517
20375SOL     OW62287   5.076   4.991   1.020 -0.2331 -0.1685 -0.5765
20375SOL    HW162288   5.029   4.962   1.098  0.8930  0.4064  0.3429
20375SOL    HW262289   5.087   5.085   1.032  4.1553 -0.6746  1.0291
20376SOL     OW62290   8.042   0.775   5.628  0.0535 -0.1639  0.2961
20376SOL    HW162291   8.080   0.781   5.541  1.6194 -0.4652  0.9214
20376SOL    HW262292   8.043   0.681   5.648  0.8033 -0.0155  1.0642
20377SOL     OW62293   1.157   4.273   5.252  0.4996 -0.2615  0.2432
20377SOL    HW162294   1.227   4.213   5.277  0.5193 -0.6680 -0.7741
20377SOL    HW262295   1.184   4.308   5.168 -0.4018 -0.2409 -0.0453
20378SOL     OW62296   0.229   3.859   8.102  0.1675  0.2917 -0.1167
20378SOL    HW162297   0.263   3.901   8.182  1.8208 -0.3824 -0.4239
20378SOL    HW262298   0.162   3.799   8.134 -0.2870  1.1555  0.6043
20379SOL     OW62299   2.663   3.283   2.584 -0.1055  0.2716 -0.9983
20379SOL    HW162300   2.752   3.310   2.604  0.0689 -0.4283 -0.8265
20379SOL    HW262301   2.657   3.288   2.488  0.9916 -2.2988 -1.2755
20380SOL     OW62302   6.234   4.221   0.823  0.4696 -0.1115  0.1227
20380SOL    HW162303   6.315   4.208   0.872  0.7967  0.4030 -0.2679
20380SOL    HW262304   6.263   4.238   0.733 -0.1188 -1.1098 -0.2742
20381SOL     OW62305   7.432   5.638   5.006 -0.1219 -0.5292 -0.9627
20381SOL    HW162306   7.393   5.709   4.955  0.6359  1.5044  1.1005
20381SOL    HW262307   7.525   5.644   4.987  0.2288  0.5160  0.8069
20382SOL     OW62308   2.456   3.285   2.774  0.3252  0.3909 -0.1884
20382SOL    HW162309   2.487   3.274   2.864 -1.4027 -2.8130  0.1376
20382SOL    HW262310   2.531   3.260   2.720  0.0037 -2.3888  0.5127
20383SOL     OW62311   2.127   6.533   8.580 -0.0379 -0.1884 -0.8806
20383SOL    HW162312   2.081   6.576   8.653  1.9213 -1.4058  1.2136
20383SOL    HW262313   2.093   6.443   8.581  0.9252 -0.5635 -0.5671
20384SOL     OW62314   6.267   4.290   5.230  1.0575  0.3083  0.1541
20384SOL    HW162315   6.358   4.291   5.200  0.9247 -1.1467 -0.3622
20384SOL    HW262316   6.226   4.218   5.183 -0.1886  0.4704  0.9208
20385SOL     OW62317   0.080   4.768   1.766  0.4407  0.3869 -0.1888
20385SOL    HW162318   0.159   4.821   1.778  0.5206  0.4964 -1.1104
20385SOL    HW262319   0.083   4.741   1.674 -0.3492 -0.0019 -0.1077
20386SOL     OW62320   8.560   4.699   7.303 -0.8535 -0.7375 -0.2998
20386SOL    HW162321   8.480   4.684   7.253 -1.8537 -0.1748  1.0837
20386SOL    HW262322   8.558   4.632   7.372 -0.2264 -0.5956 -0.1384
20387SOL     OW62323   5.628   3.365   1.728  0.3180  0.1529  0.4237
20387SOL    HW162324   5.688   3.298   1.695  0.8458  0.2524  1.1637
20387SOL    HW262325   5.546   3.348   1.682  1.1042  0.4618 -1.1489
20388SOL     OW62326   8.238   6.354   1.983 -1.0507  0.7125  0.0874
20388SOL    HW162327   8.194   6.439   1.984 -0.1527  1.1913  1.3592
20388SOL    HW262328   8.329   6.375   1.961 -1.0554 -0.0589 -0.7201
20389SOL     OW62329   6.784   2.385   8.166 -0.5118  0.0853 -0.2835
20389SOL    HW162330   6.745   2.300   8.189  4.0598 -1.4484  3.2991
20389SOL    HW262331   6.846   2.365   8.096  1.3082  0.1105  1.2475
20390SOL     OW62332   1.785   0.629   8.444 -0.2247  0.0282  0.2923
20390SOL    HW162333   1.706   0.682   8.458 -0.3700 -0.4811  1.5393
20390SOL    HW262334   1.851   0.691   8.415 -0.5503  0.7971  1.1552
20391SOL     OW62335   2.979   3.084   0.211  0.1291 -0.1784 -0.1096
20391SOL    HW162336   2.995   3.163   0.161 -0.0749  0.5592  0.9480
20391SOL    HW262337   2.962   3.115   0.300 -1.0501 -1.3239  0.1036
20392SOL     OW62338   7.755   3.575   1.135 -0.0070  0.5498  0.5775
20392SOL    HW162339   7.715   3.488   1.127 -1.6253  1.2833  0.2852
20392SOL    HW262340   7.806   3.571   1.215  0.6618 -0.9400  0.1086
20393SOL     OW62341   1.537   7.320   1.938 -0.1585  0.0184  0.0039
20393SOL    HW162342   1.556   7.357   1.851  1.4700  0.6775  0.6049
20393SOL    HW262343   1.473   7.380   1.976 -2.6235 -1.4674 -1.5232
20394SOL     OW62344   1.754   4.025   0.506  0.0573 -0.3699 -0.1890
20394SOL    HW162345   1.780   4.072   0.585  0.3404  0.7911 -0.9438
20394SOL    HW262346   1.663   4.049   0.491 -0.2722 -1.2873  0.2526
20395SOL     OW62347   6.820   0.413   8.497  0.4586 -0.4834  0.3866
20395SOL    HW162348   6.760   0.437   8.568  0.7859 -1.5375  1.0409
20395SOL    HW262349   6.891   0.366   8.540  2.8776  2.3821 -0.0630
20396SOL     OW62350   4.332   5.793   7.473  0.3829 -0.1342 -0.1555
20396SOL    HW162351   4.383   5.755   7.401  2.4820  0.0978  1.1347
20396SOL    HW262352   4.348   5.887   7.467  0.0319 -0.0495  0.2161
20397SOL     OW62353   0.338   5.177   1.217  0.1089 -0.6090 -0.1105
20397SOL    HW162354   0.308   5.212   1.134 -0.4179  1.9471  1.0470
20397SOL    HW262355   0.264   5.127   1.251 -0.7341  0.7022  0.0510
20398SOL     OW62356   5.859   7.278   4.153  0.3952 -0.6276  0.6112
20398SOL    HW162357   5.945   7.252   4.122  0.4863  0.9690 -0.6107
20398SOL    HW262358   5.799   7.218   4.109  0.6819  0.3559 -1.2425
20399SOL     OW62359   1.467   5.025   8.258  0.2856 -0.3494  1.0953
20399SOL    HW162360   1.478   4.971   8.180 -0.6538  1.5266 -0.4238
20399SOL    HW262361   1.442   4.963   8.327 -2.8884 -1.7260 -1.0188
20400SOL     OW62362   3.874   0.828   8.578 -0.1052  0.2641  0.4799
20400SOL    HW162363   3.814   0.754   8.573 -0.9119  0.9401 -0.1619
20400SOL    HW262364   3.832   0.897   8.527  1.6057  0.5010 -0.6794
20401SOL     OW62365   7.000   2.621   2.817 -0.1014 -0.0148 -0.1349
20401SOL    HW162366   7.047   2.703   2.806 -0.3163 -0.0292 -1.3225
20401SOL    HW262367   6.969   2.622   2.908  2.8367 -0.3774  0.9733
20402SOL     OW62368   6.391   0.159   0.724 -0.1975 -0.4507  0.0401
20402SOL    HW162369   6.326   0.118   0.780 -2.4564  0.1645 -1.9707
20402SOL    HW262370   6.363   0.251   0.717  0.9109 -0.1535 -0.8448
20403SOL     OW62371   1.572   2.514   8.090 -0.0491  0.0266 -0.1573
20403SOL    HW162372   1.522   2.582   8.136  1.4974  0.7649  0.5153
20403SOL    HW262373   1.591   2.553   8.005 -0.1803 -0.0483 -0.2207
20404SOL     OW62374   1.675   2.371   3.698 -0.5396 -0.1348 -0.7180
20404SOL    HW162375   1.696   2.337   3.784  0.2523  1.3822 -0.2644
20404SOL    HW262376   1.755   2.355   3.646 -0.0998  1.1040 -0.4535
20405SOL     OW62377   2.644   0.434   0.066  0.3398  0.2209 -0.6973
20405SOL    HW162378   2.560   0.479   0.059 -0.2775 -0.9585 -1.1344
20405SOL    HW262379   2.684   0.470   0.145 -1.3366 -0.3943  0.4892
20406SOL     OW62380   8.660   6.599   3.606 -0.0982  0.3086  0.4172
20406SOL    HW162381   8.741   6.552   3.590  0.4389  1.2717  0.1957
20406SOL    HW262382   8.648   6.654   3.528  0.1527  1.6955  1.3080
20407SOL     OW62383   1.439   6.827   6.456  0.2137  0.0222 -0.2160
20407SOL    HW162384   1.410   6.819   6.365 -1.1046  0.5036  0.1323
20407SOL    HW262385   1.363   6.800   6.508  0.3741  1.3210  0.7440
20408SOL     OW62386   0.591   1.041   3.636 -0.3306 -0.1515 -0.4972
20408SOL    HW162387   0.591   0.954   3.597  1.5454  0.2989 -1.6458
20408SOL    HW262388   0.560   1.099   3.567 -2.2753  0.0753  0.4865
20409SOL     OW62389   7.415   2.704   2.937 -0.7773 -0.2591 -0.4240
20409SOL    HW162390   7.400   2.775   2.874 -1.3355  0.8157  0.8595
20409SOL    HW262391   7.340   2.646   2.927 -0.5502 -0.4334 -1.1687
20410SOL     OW62392   3.808   5.297   3.274 -0.3238 -0.2008  0.4384
20410SOL    HW162393   3.720   5.324   3.300 -0.5066 -1.0006  0.6959
20410SOL    HW262394   3.864   5.370   3.298 -1.0342  0.7361 -0.6237
20411SOL     OW62395   6.991   3.771   4.505  0.0010  0.2411 -0.1483
20411SOL    HW162396   6.978   3.737   4.594  0.0896  0.0592 -0.2048
20411SOL    HW262397   6.939   3.851   4.503 -1.3568 -0.6117 -0.4478
20412SOL     OW62398   5.539   2.421   3.697  0.3690  0.2475  0.4981
20412SOL    HW162399   5.563   2.456   3.612  1.5018 -3.5040 -0.9333
20412SOL    HW262400   5.614   2.439   3.754  0.5552  0.8432  0.0641
20413SOL     OW62401   5.846   0.725   7.322  0.0151 -0.5111 -1.0881
20413SOL    HW162402   5.804   0.641   7.301  1.1029 -1.4705  0.3688
20413SOL    HW262403   5.899   0.706   7.399  0.2324  1.5581 -0.6827
20414SOL     OW62404   4.760   1.459   7.117 -0.2822  0.2323 -0.2786
20414SOL    HW162405   4.797   1.546   7.134 -0.0111  0.2463 -0.9273
20414SOL    HW262406   4.677   1.476   7.071 -0.5057  0.1640  0.0961
20415SOL     OW62407   8.328   5.656   7.626  0.1168  0.4221 -0.2537
20415SOL    HW162408   8.399   5.595   7.642 -1.5970 -1.6535 -0.0469
20415SOL    HW262409   8.329   5.716   7.701 -0.1438 -1.4066  1.2616
20416SOL     OW62410   6.254   7.575   0.329 -0.0247 -0.0955  0.4706
20416SOL    HW162411   6.225   7.496   0.373 -0.2732  0.4925  1.3941
20416SOL    HW262412   6.273   7.547   0.239  2.6015 -1.7787  1.4388
20417SOL     OW62413   0.254   1.556   1.289  0.2784 -0.0373  0.1317
20417SOL    HW162414   0.236   1.650   1.292 -0.9431 -0.2875  1.0967
20417SOL    HW262415   0.190   1.517   1.348  1.0297 -1.4481  0.0505
20418SOL     OW62416   1.625   3.738   8.615  0.0898 -0.0984  0.2292
20418SOL    HW162417   1.614   3.776   8.702 -0.5075 -0.3083  0.2501
20418SOL    HW262418   1.666   3.653   8.631 -0.5585 -0.3930  0.3586
20419SOL     OW62419   5.461   5.287   3.128  0.3617  0.3363  0.1101
20419SOL    HW162420   5.523   5.352   3.094  1.5719 -0.3449  0.9622
20419SOL    HW262421   5.481   5.281   3.221 -1.7879  0.9354  0.6612
20420SOL     OW62422   8.060   8.294   1.465 -0.1343 -0.0311  0.5841
20420SOL    HW162423   8.071   8.251   1.380 -0.1024  0.0416  0.5519
20420SOL    HW262424   7.999   8.237   1.512 -0.6590  0.2644  0.2722
20421SOL     OW62425   5.751   7.524   4.314  0.6872  0.3273  0.2451
20421SOL    HW162426   5.792   7.499   4.397  1.2742  0.0421 -0.1247
20421SOL    HW262427   5.771   7.452   4.255  0.1836  0.4809 -0.1224
20422SOL     OW62428   6.736   1.646   7.418  0.2283  0.5300  0.0701
20422SOL    HW162429   6.758   1.661   7.510 -0.0614 -0.5714  0.3354
20422SOL    HW262430   6.645   1.676   7.410  0.2247  0.5465  0.1682
20423SOL     OW62431   1.776   2.524   8.366  0.0002  0.0749  0.4139
20423SOL    HW162432   1.723   2.555   8.440 -3.5475  0.2551 -1.9444
20423SOL    HW262433   1.746   2.434   8.351  1.2345 -0.2417 -0.3278
20424SOL     OW62434   7.259   6.342   8.097  0.1424 -0.1882 -0.5732
20424SOL    HW162435   7.204   6.414   8.067  1.0865  0.0549 -1.7702
20424SOL    HW262436   7.214   6.263   8.068 -0.9221 -0.1291  0.7874
20425SOL     OW62437   7.816   0.923   5.573 -0.6563  0.1656  0.1235
20425SOL    HW162438   7.766   0.927   5.654 -1.9242 -1.2955 -0.5153
20425SOL    HW262439   7.904   0.897   5.600 -0.7308  0.8930  1.1131
20426SOL     OW62440   4.294   2.250   3.671 -0.8263 -0.4756 -0.1715
20426SOL    HW162441   4.316   2.157   3.664  1.8110  0.0822 -0.3954
20426SOL    HW262442   4.285   2.265   3.765 -0.6014 -0.8277 -0.0901
20427SOL     OW62443   0.223   3.001   8.799 -0.4774 -0.6412  0.0764
20427SOL    HW162444   0.160   3.069   8.775 -0.3994  0.2338  2.1659
20427SOL    HW262445   0.179   2.951   8.868  0.3774 -1.2546  0.1940
20428SOL     OW62446   3.436   5.605   5.572  0.2943 -0.7383  0.4701
20428SOL    HW162447   3.439   5.517   5.535 -2.3794 -0.5749 -0.3504
20428SOL    HW262448   3.502   5.654   5.524  1.1114 -2.0364  0.2298
20429SOL     OW62449   4.085   2.391   1.200 -0.0867  0.3141  0.0830
20429SOL    HW162450   4.106   2.355   1.286  0.6394 -0.2419 -0.3188
20429SOL    HW262451   3.994   2.419   1.208  0.1253  0.7515  1.1869
20430SOL     OW62452   8.412   6.142   3.174 -0.5002  0.3613 -0.1860
20430SOL    HW162453   8.423   6.221   3.121  0.2063 -0.9227 -2.0368
20430SOL    HW262454   8.380   6.076   3.113  1.7663 -1.5864  0.5885
20431SOL     OW62455   5.973   6.482   1.627 -0.2314  0.0240  0.1691
20431SOL    HW162456   5.999   6.423   1.698 -0.2523  1.9091  1.8463
20431SOL    HW262457   5.895   6.443   1.590 -1.0699 -0.3204  2.1815
20432SOL     OW62458   5.336   6.271   7.637  0.3889  0.0731  0.2636
20432SOL    HW162459   5.268   6.321   7.592 -0.4839 -1.2529  0.0186
20432SOL    HW262460   5.291   6.232   7.712  0.6764 -1.3409 -0.2586
20433SOL     OW62461   7.004   5.120   8.594  0.0044  0.0691  0.4285
20433SOL    HW162462   6.960   5.186   8.540 -1.2300 -0.8794  0.2435
20433SOL    HW262463   7.047   5.062   8.531 -1.8601 -1.3365  0.3760
20434SOL     OW62464   5.919   0.504   5.144 -0.2923  0.3462  0.0626
20434SOL    HW162465   5.993   0.541   5.096 -0.9999  0.0119 -1.3540
20434SOL    HW262466   5.846   0.563   5.125 -0.4969  0.4218  1.0690
20435SOL     OW62467   8.418   2.808   7.421 -0.7025  0.4426 -0.0652
20435SOL    HW162468   8.362   2.871   7.467  2.1451  2.1474  1.3761
20435SOL    HW262469   8.505   2.849   7.421  0.4520 -1.6688 -2.8545
20436SOL     OW62470   3.505   3.183   7.661  0.2067  0.0763  0.3540
20436SOL    HW162471   3.465   3.250   7.716  1.0773  0.8444  0.0648
20436SOL    HW262472   3.445   3.173   7.587 -0.4468 -0.2220  0.9179
20437SOL     OW62473   1.157   6.954   6.422 -0.7697 -0.9450  0.1350
20437SOL    HW162474   1.219   7.026   6.408 -1.4395 -0.2507  0.6514
20437SOL    HW262475   1.127   6.965   6.512  0.2577 -2.8039  0.7586
20438SOL     OW62476   6.490   6.700   1.210 -0.3617 -0.4825  0.3737
20438SOL    HW162477   6.575   6.746   1.209 -0.9339  0.7726  2.6896
20438SOL    HW262478   6.513   6.608   1.222  0.7191 -0.4274 -1.0219
20439SOL     OW62479   3.055   3.965   6.964 -0.4679 -0.1493  0.8749
20439SOL    HW162480   3.140   3.979   6.922 -1.2621  1.6433 -0.2752
20439SOL    HW262481   3.075   3.912   7.041  1.1632 -3.1614 -1.3920
20440SOL     OW62482   4.227   2.850   4.061  0.1697  0.1318  0.0659
20440SOL    HW162483   4.189   2.875   4.145  0.3708 -1.1045  0.5449
20440SOL    HW262484   4.265   2.930   4.027 -0.1714  0.7119  1.0198
20441SOL     OW62485   0.058   2.459   0.403  0.4812  0.1445 -0.3376
20441SOL    HW162486   0.055   2.543   0.357 -0.7152  1.0522  1.3292
20441SOL    HW262487   0.074   2.482   0.494 -1.1751 -1.3294  0.3680
20442SOL     OW62488   0.409   2.650   2.674  0.0303 -0.1279  0.6915
20442SOL    HW162489   0.319   2.644   2.641  0.6464  0.7494 -1.2846
20442SOL    HW262490   0.464   2.623   2.600  1.4308 -0.0272  1.6592
20443SOL     OW62491   3.671   5.943   5.218  0.1337 -0.1475 -0.1496
20443SOL    HW162492   3.617   5.869   5.191  0.6211 -0.3635 -0.5582
20443SOL    HW262493   3.613   5.997   5.272 -0.5653 -0.2372 -0.7906
20444SOL     OW62494   0.017   7.100   2.468 -0.1989 -0.3025  0.3663
20444SOL    HW162495   0.057   7.172   2.419 -1.5178  1.2905  1.5114
20444SOL    HW262496   0.084   7.032   2.469  1.1986  0.9850 -0.5811
20445SOL     OW62497   0.733   1.544   7.486 -0.5476 -0.5495  0.3680
20445SOL    HW162498   0.752   1.637   7.499  0.7121 -0.5845 -0.9352
20445SOL    HW262499   0.702   1.538   7.395 -1.2360 -1.3373  0.6314
20446SOL     OW62500   3.891   0.278   7.955  0.2291 -0.6878  0.5211
20446SOL    HW162501   3.949   0.269   8.031 -0.2831  0.5883  1.0870
20446SOL    HW262502   3.865   0.370   7.956 -1.4377 -1.1330  0.0037
20447SOL     OW62503   7.462   7.963   3.087  0.0645  0.4020 -0.1195
20447SOL    HW162504   7.441   7.924   3.172 -1.0679  0.8084 -0.2067
20447SOL    HW262505   7.496   8.050   3.108  0.0641  0.3893 -0.0665
20448SOL     OW62506   3.217   3.610   5.040 -0.8278 -0.2685  0.0942
20448SOL    HW162507   3.266   3.626   5.121 -1.6366 -0.5272  0.6468
20448SOL    HW262508   3.280   3.629   4.970 -1.2778  4.1184  0.6076
20449SOL     OW62509   1.531   5.997   2.935 -0.3627 -0.2198 -0.6814
20449SOL    HW162510   1.573   5.980   3.019 -0.3356 -3.4483 -1.2262
20449SOL    HW262511   1.535   6.092   2.925 -1.4051  0.4508  3.4550
20450SOL     OW62512   8.066   3.790   2.073  0.3179 -0.0574 -0.2557
20450SOL    HW162513   7.995   3.777   2.136  0.1620  1.5771 -0.0735
20450SOL    HW262514   8.043   3.869   2.026  1.0933 -0.5486 -1.5053
20451SOL     OW62515   5.345   0.358   7.075 -0.4825  0.9663 -0.2190
20451SOL    HW162516   5.364   0.303   6.999  0.1543 -0.0205  0.6227
20451SOL    HW262517   5.280   0.421   7.044 -0.7441  0.1475 -1.3923
20452SOL     OW62518   0.667   1.117   4.556 -0.1661  0.5994  0.1756
20452SOL    HW162519   0.584   1.134   4.511 -0.2177  0.3663  0.1790
20452SOL    HW262520   0.644   1.054   4.624 -0.5498  2.6697  2.0640
20453SOL     OW62521   1.626   7.004   3.075  0.0310  0.0719 -0.7854
20453SOL    HW162522   1.663   7.084   3.039  0.5038 -0.1188 -0.7368
20453SOL    HW262523   1.554   7.033   3.132 -0.0832  0.4298 -1.1102
20454SOL     OW62524   7.084   3.502   8.112 -0.3451 -0.0592 -0.2688
20454SOL    HW162525   7.174   3.469   8.114 -0.4935 -0.4507  0.0185
20454SOL    HW262526   7.089   3.588   8.153 -0.3556 -0.7088  1.1643
20455SOL     OW62527   5.920   4.259   6.939  0.1488  0.6980  0.0013
20455SOL    HW162528   5.894   4.176   6.898 -0.6030  0.1287  1.5333
20455SOL    HW262529   5.946   4.315   6.866  1.0507 -1.0069 -1.0504
20456SOL     OW62530   1.602   5.098   4.500 -0.0172  0.1822  0.2950
20456SOL    HW162531   1.555   5.171   4.461 -1.7160 -0.8287  0.3855
20456SOL    HW262532   1.543   5.023   4.492  0.8609 -0.7524  1.9740
20457SOL     OW62533   4.632   3.977   5.544  0.2555 -0.2892 -0.2114
20457SOL    HW162534   4.625   3.885   5.567 -0.2144 -0.1499  0.2402
20457SOL    HW262535   4.542   4.005   5.527  0.2175  0.3862  0.9287
20458SOL     OW62536   7.756   6.987   0.738 -0.0128 -0.0518  0.8539
20458SOL    HW162537   7.678   6.955   0.693  0.3421 -1.7962  1.3767
20458SOL    HW262538   7.751   6.948   0.825  1.3279 -0.0249  0.9662
20459SOL     OW62539   5.198   1.372   3.723 -0.0508  0.0693 -0.3355
20459SOL    HW162540   5.125   1.334   3.770 -0.3782  1.2466  0.1468
20459SOL    HW262541   5.180   1.353   3.631 -1.3328  0.9033 -0.2851
20460SOL     OW62542   8.515   6.771   4.608 -0.8699 -0.5790  0.6006
20460SOL    HW162543   8.467   6.735   4.683 -0.8249 -0.4730  0.6803
20460SOL    HW262544   8.586   6.708   4.594 -0.3090 -0.1150  1.2509
20461SOL     OW62545   6.920   5.692   3.657 -0.2251  0.4750 -0.3367
20461SOL    HW162546   6.863   5.668   3.584 -1.9425 -0.7466  1.2912
20461SOL    HW262547   6.877   5.768   3.697 -3.2263 -2.7047  3.2504
20462SOL     OW62548   6.441   7.837   8.345  0.3103  0.4685  0.0567
20462SOL    HW162549   6.523   7.843   8.395 -0.7415  0.6872  1.8399
20462SOL    HW262550   6.405   7.926   8.347 -0.3264  0.2195 -0.0795
20463SOL     OW62551   2.207   5.784   1.030  0.5297 -0.2418 -0.3311
20463SOL    HW162552   2.116   5.813   1.041  0.5887  0.1500 -0.8106
20463SOL    HW262553   2.211   5.700   1.075  0.1867  0.1996  0.5434
20464SOL     OW62554   7.060   2.069   1.135 -0.6243 -0.2313 -0.0730
20464SOL    HW162555   6.993   2.033   1.077 -2.0632 -0.8818  1.8827
20464SOL    HW262556   7.094   2.145   1.088 -2.7148  0.0950 -1.1588
20465SOL     OW62557   6.139   3.131   6.677 -0.1233 -0.4818 -0.2663
20465SOL    HW162558   6.173   3.173   6.599 -1.6573 -0.7893 -1.1489
20465SOL    HW262559   6.169   3.040   6.671  0.0569 -0.4180 -0.3191
20466SOL     OW62560   2.999   4.585   8.453 -0.4636 -0.4289  0.0827
20466SOL    HW162561   3.058   4.537   8.511 -0.9522 -1.9824 -0.6577
20466SOL    HW262562   2.926   4.611   8.509  0.6673  1.1345  0.9081
20467SOL     OW62563   1.398   8.075   6.373 -0.0767 -0.2455  0.0987
20467SOL    HW162564   1.405   8.165   6.339 -0.0490 -0.5415 -0.7064
20467SOL    HW262565   1.369   8.024   6.297 -1.6537 -0.6579  0.9299
20468SOL     OW62566   6.271   0.372   8.084 -0.0130  0.6558  0.2093
20468SOL    HW162567   6.302   0.389   8.173 -0.3733 -0.1125  0.4935
20468SOL    HW262568   6.345   0.395   8.028  0.1119  1.4313  0.6819
20469SOL     OW62569   2.295   0.426   4.740 -0.7531  0.0457  0.4897
20469SOL    HW162570   2.263   0.367   4.808  0.7679 -1.8909 -0.3606
20469SOL    HW262571   2.241   0.405   4.663 -0.0912 -0.4150  0.1380
20470SOL     OW62572   5.171   3.445   6.317 -0.3899 -0.7045 -0.1913
20470SOL    HW162573   5.116   3.494   6.256 -1.3613 -0.1220  1.1137
20470SOL    HW262574   5.246   3.502   6.332 -2.6181  1.6975  3.1857
20471SOL     OW62575   7.622   5.505   2.725 -0.1297  0.5994  1.1611
20471SOL    HW162576   7.647   5.596   2.741  1.6837  0.6184 -1.2498
20471SOL    HW262577   7.566   5.508   2.647  1.6506 -0.4704 -0.2256
20472SOL     OW62578   0.706   3.395   0.371  0.3709 -0.3039  0.1468
20472SOL    HW162579   0.784   3.339   0.369 -0.3512 -1.2979 -0.4405
20472SOL    HW262580   0.721   3.458   0.301  1.0347  0.0618  0.5986
20473SOL     OW62581   7.907   6.473   6.338  0.4090  0.4285 -0.2533
20473SOL    HW162582   7.979   6.419   6.306 -0.3698 -1.3772  0.8606
20473SOL    HW262583   7.829   6.417   6.328 -0.3627  1.1377  1.4095
20474SOL     OW62584   5.217   1.954   7.099 -0.3494  0.4737  0.4659
20474SOL    HW162585   5.297   2.006   7.103  0.5086 -0.8050  0.6162
20474SOL    HW262586   5.243   1.874   7.053 -1.4943 -0.0389  0.6735
20475SOL     OW62587   7.796   2.913   7.694 -0.1017 -0.0923  0.3335
20475SOL    HW162588   7.871   2.866   7.731 -0.1057  0.2265  0.7527
20475SOL    HW262589   7.726   2.903   7.758 -0.0946  0.4984  0.4457
20476SOL     OW62590   1.697   5.398   8.139  0.1684  0.4136  0.2748
20476SOL    HW162591   1.740   5.335   8.081 -2.2198 -3.2807  2.0828
20476SOL    HW262592   1.713   5.364   8.227 -3.8361  0.3927  1.1864
20477SOL     OW62593   1.475   3.731   5.546  0.0614  0.1584 -0.1800
20477SOL    HW162594   1.443   3.733   5.456  0.3395 -0.4595 -0.2988
20477SOL    HW262595   1.568   3.751   5.539  0.5418 -1.9284 -0.2697
20478SOL     OW62596   3.401   1.728   2.293 -0.3827 -0.4868 -0.2856
20478SOL    HW162597   3.406   1.651   2.350 -1.8528 -0.8791 -0.6583
20478SOL    HW262598   3.433   1.698   2.208  2.0887  0.1727  0.3406
20479SOL     OW62599   5.686   6.790   6.439 -0.3267 -0.2967 -0.0383
20479SOL    HW162600   5.696   6.859   6.505  1.4030  0.1991 -0.7475
20479SOL    HW262601   5.630   6.828   6.372 -1.2528 -0.4324  0.6432
20480SOL     OW62602   5.893   6.235   2.151  0.0206 -0.7911 -0.2777
20480SOL    HW162603   5.824   6.269   2.209 -0.0195 -0.0200 -0.7719
20480SOL    HW262604   5.958   6.304   2.148  1.5049 -2.0169  1.2312
20481SOL     OW62605   7.922   5.747   4.082  0.7044  0.5440 -0.1383
20481SOL    HW162606   7.854   5.713   4.140  1.4425 -0.7632 -0.0062
20481SOL    HW262607   7.882   5.823   4.040 -1.8432 -1.7252 -2.1622
20482SOL     OW62608   0.427   1.271   4.543 -0.2964  0.2819 -0.1036
20482SOL    HW162609   0.448   1.361   4.568 -2.5171  0.9779 -0.5263
20482SOL    HW262610   0.397   1.278   4.452  0.6920 -1.1068 -0.5722
20483SOL     OW62611   5.526   7.070   1.156  0.6514 -0.1449 -0.3949
20483SOL    HW162612   5.502   6.980   1.178 -0.3458  0.0627 -0.5990
20483SOL    HW262613   5.543   7.111   1.241  1.0288 -0.4968 -0.2954
20484SOL     OW62614   7.388   7.123   7.149 -0.1669 -0.2691 -0.2322
20484SOL    HW162615   7.367   7.104   7.057 -2.0429  2.8427 -0.5963
20484SOL    HW262616   7.318   7.080   7.198 -0.4182 -0.1379 -0.4671
20485SOL     OW62617   3.830   1.236   6.493 -0.6930  0.2822 -0.3214
20485SOL    HW162618   3.788   1.314   6.530 -2.3906 -0.3753 -0.7920
20485SOL    HW262619   3.887   1.271   6.424  1.5957  1.4094  1.9655
20486SOL     OW62620   1.832   8.061   1.092 -0.2561 -0.1240  0.5876
20486SOL    HW162621   1.872   8.029   1.172 -0.0399  0.1174  0.5751
20486SOL    HW262622   1.895   8.123   1.055 -0.0273 -0.7834 -0.1562
20487SOL     OW62623   0.967   1.758   5.106  0.1570 -0.2899  0.0326
20487SOL    HW162624   0.878   1.724   5.103  0.6558 -1.6294 -2.8845
20487SOL    HW262625   1.010   1.707   5.173 -0.8088 -0.8946  0.2100
20488SOL     OW62626   3.307   8.269   5.703  0.6538 -0.0948  0.0965
20488SOL    HW162627   3.383   8.260   5.759 -0.4415 -2.2507  1.3693
20488SOL    HW262628   3.322   8.207   5.631 -0.1955 -1.0918  0.7563
20489SOL     OW62629   1.010   0.927   1.642 -0.0055 -0.5102 -0.3983
20489SOL    HW162630   1.034   1.012   1.606 -0.9059  0.0875  0.3654
20489SOL    HW262631   0.915   0.921   1.632 -0.1502 -0.7777  0.8619
20490SOL     OW62632   2.767   4.554   1.078 -0.6106 -0.1994 -0.6213
20490SOL    HW162633   2.673   4.569   1.072 -0.7190 -0.4402  0.3548
20490SOL    HW262634   2.806   4.620   1.021 -1.2924  0.9874  0.2580
20491SOL     OW62635   6.694   4.905   0.881 -0.3541 -0.2694 -0.1088
20491SOL    HW162636   6.707   4.818   0.844 -0.3465  0.4671 -1.9494
20491SOL    HW262637   6.599   4.914   0.886 -0.3775 -0.0270 -0.8628
20492SOL     OW62638   0.716   4.747   5.995 -0.1968  0.4010 -0.6310
20492SOL    HW162639   0.717   4.792   5.911  1.2633  1.5026 -0.0713
20492SOL    HW262640   0.663   4.669   5.980 -1.3849  1.4402 -2.0848
20493SOL     OW62641   3.135   4.183   8.189 -0.0806  0.0598  0.0216
20493SOL    HW162642   3.070   4.113   8.186 -0.6818  0.6267 -0.4449
20493SOL    HW262643   3.102   4.249   8.129  1.6886 -0.2563 -1.3723
20494SOL     OW62644   0.363   1.080   8.097 -0.0571  0.1948 -0.4206
20494SOL    HW162645   0.363   1.071   8.002 -1.4628  1.6097 -0.5892
20494SOL    HW262646   0.342   1.172   8.113 -1.2717 -0.3182  1.2590
20495SOL     OW62647   1.580   1.630   8.138 -0.7819 -0.3529 -0.1337
20495SOL    HW162648   1.655   1.590   8.093 -1.3225 -0.8384 -0.6135
20495SOL    HW262649   1.518   1.650   8.067 -0.7661  0.8119  0.1560
20496SOL     OW62650   4.588   6.728   1.304 -0.3019  0.6470 -0.2578
20496SOL    HW162651   4.605   6.788   1.231 -1.1728  1.5970  0.2972
20496SOL    HW262652   4.494   6.733   1.319 -0.3703 -0.7218 -0.0568
20497SOL     OW62653   7.584   5.568   5.606 -0.1832  0.1150 -0.1881
20497SOL    HW162654   7.513   5.515   5.569  0.0208  0.3355 -0.9203
20497SOL    HW262655   7.545   5.610   5.683 -0.9283  0.4298 -0.7191
20498SOL     OW62656   2.892   6.997   0.945  0.0121 -0.3516 -0.0496
20498SOL    HW162657   2.945   6.933   0.994  1.0841  0.9454  0.5657
20498SOL    HW262658   2.957   7.050   0.898 -0.7418  1.1951  0.6011
20499SOL     OW62659   7.039   5.289   6.279  0.0229 -0.0575 -0.0503
20499SOL    HW162660   7.107   5.353   6.303  1.3875 -1.8053  0.9991
20499SOL    HW262661   7.075   5.244   6.203 -0.7616  0.1454 -0.5529
20500SOL     OW62662   7.021   4.025   6.457 -0.4646  0.6678 -0.1261
20500SOL    HW162663   7.010   4.106   6.406  0.0720  1.3649  0.8375
20500SOL    HW262664   7.089   3.977   6.411 -1.1133  0.5318 -0.9723
20501SOL     OW62665   3.823   3.840   4.896 -0.0393  0.4498 -0.3252
20501SOL    HW162666   3.742   3.822   4.944 -1.0814  0.6535 -1.9636
20501SOL    HW262667   3.888   3.853   4.965 -1.6935  1.8008  1.0733
20502SOL     OW62668   1.280   6.617   3.775  0.4492  0.5094  0.9310
20502SOL    HW162669   1.316   6.663   3.850  0.2875  1.4994  0.4134
20502SOL    HW262670   1.247   6.535   3.811 -1.5467  1.8449  2.3209
20503SOL     OW62671   2.909   7.406   8.021 -0.6302 -0.6351  0.2832
20503SOL    HW162672   2.987   7.422   8.074 -1.1410  1.1253  0.5642
20503SOL    HW262673   2.861   7.489   8.023 -1.2612 -0.8768 -1.9709
20504SOL     OW62674   2.963   1.402   1.353  0.0133 -1.1375 -0.1646
20504SOL    HW162675   3.030   1.367   1.411  1.8973 -0.5964 -1.8812
20504SOL    HW262676   2.881   1.385   1.398  1.3388 -0.7101  2.6376
20505SOL     OW62677   0.961   2.591   1.918  0.1552 -0.3253 -0.8549
20505SOL    HW162678   1.010   2.673   1.928 -0.4857 -0.0142 -0.1566
20505SOL    HW262679   1.004   2.546   1.846  0.4458  0.6853 -1.3347
20506SOL     OW62680   5.546   4.102   7.309 -0.0880 -0.1464 -0.1661
20506SOL    HW162681   5.637   4.085   7.335  0.6021 -0.6128 -2.6133
20506SOL    HW262682   5.548   4.189   7.268 -1.1412  0.5979  1.2444
20507SOL     OW62683   6.540   0.764   5.996  0.3046  0.1214 -0.0620
20507SOL    HW162684   6.557   0.676   5.963 -0.3469  0.6218 -1.8979
20507SOL    HW262685   6.576   0.822   5.929 -0.7046  1.2297  0.3196
20508SOL     OW62686   5.758   1.714   1.157 -0.1380  0.1619  0.6835
20508SOL    HW162687   5.700   1.790   1.155 -1.4196 -0.7266  1.8623
20508SOL    HW262688   5.741   1.668   1.075 -1.2895 -0.1901  1.0985
20509SOL     OW62689   2.612   5.375   8.419  0.5569  0.0503 -0.4008
20509SOL    HW162690   2.644   5.463   8.437  2.4045 -0.6989  0.2295
20509SOL    HW262691   2.679   5.337   8.361  0.2617 -1.2181  0.0688
20510SOL     OW62692   1.351   0.897   4.305 -0.1350 -0.3284 -0.5614
20510SOL    HW162693   1.359   0.816   4.357  0.6595  0.2023  0.1671
20510SOL    HW262694   1.260   0.896   4.275 -0.7622 -0.4633  1.1897
20511SOL     OW62695   6.066   2.577   2.385  0.4248  0.6661 -0.7955
20511SOL    HW162696   6.090   2.504   2.328  0.3637 -3.0262  3.3667
20511SOL    HW262697   6.150   2.610   2.418  0.5535 -2.5049  2.6422
20512SOL     OW62698   5.494   1.782   7.757 -0.5238 -0.1273  0.0474
20512SOL    HW162699   5.401   1.802   7.753 -0.0975  2.2145  0.1778
20512SOL    HW262700   5.520   1.805   7.846  0.0517 -1.5063  0.2567
20513SOL     OW62701   1.774   0.934   4.137  0.0679  0.2671 -0.3641
20513SOL    HW162702   1.863   0.969   4.133 -0.0763  0.5524 -2.2735
20513SOL    HW262703   1.780   0.860   4.197  2.4437 -1.8236 -2.8756
20514SOL     OW62704   0.694   2.087   8.104  0.0173 -0.9326 -0.1544
20514SOL    HW162705   0.660   2.132   8.181  0.4176 -0.1539 -0.4202
20514SOL    HW262706   0.739   2.010   8.138 -1.3950 -1.6164  0.2542
20515SOL     OW62707   1.468   0.227   1.561  0.0355  0.4938 -0.0895
20515SOL    HW162708   1.564   0.223   1.554  0.0719  0.2900  0.4642
20515SOL    HW262709   1.452   0.272   1.643 -0.3470  0.6201 -0.2354
20516SOL     OW62710   3.812   7.606   5.641  0.0671 -0.1978 -0.1430
20516SOL    HW162711   3.846   7.692   5.619  0.3522 -0.4600 -0.7491
20516SOL    HW262712   3.771   7.575   5.560  0.6328 -0.9404 -0.1553
20517SOL     OW62713   0.077   7.653   6.120 -0.3076  0.0294 -0.3523
20517SOL    HW162714   0.135   7.595   6.170 -0.8188 -0.6996 -0.5970
20517SOL    HW262715  -0.004   7.603   6.109 -0.5362  0.5475 -1.1069
20518SOL     OW62716   4.864   2.509   7.438 -0.2613 -0.3249 -0.5510
20518SOL    HW162717   4.849   2.487   7.530  0.4329 -1.1491 -0.6279
20518SOL    HW262718   4.935   2.451   7.411  1.8671  2.1571 -0.6970
20519SOL     OW62719   0.784   5.424   5.435  0.2546 -0.3336 -0.1766
20519SOL    HW162720   0.861   5.371   5.457 -0.5043 -1.0846  0.7674
20519SOL    HW262721   0.712   5.361   5.433 -0.1539  0.0918 -2.5080
20520SOL     OW62722   6.792   7.431   7.054  0.7297 -0.1282 -0.5578
20520SOL    HW162723   6.711   7.465   7.015  0.5242  0.2147  0.1401
20520SOL    HW262724   6.845   7.404   6.980  0.0286 -0.2304 -1.0356
20521SOL     OW62725   2.598   0.928   1.571 -0.3877  0.6452  0.3634
20521SOL    HW162726   2.516   0.888   1.600 -0.5439  0.0130 -0.8992
20521SOL    HW262727   2.600   1.013   1.615 -1.8009  0.7330  0.2984
20522SOL     OW62728   7.121   1.555   4.559  0.1170 -0.0418 -0.5079
20522SOL    HW162729   7.161   1.611   4.492  0.3423 -1.0660 -1.2565
20522SOL    HW262730   7.054   1.610   4.600  1.8312  1.5087  0.3384
20523SOL     OW62731   5.876   1.929   6.128 -0.0920  0.9087  0.0566
20523SOL    HW162732   5.939   1.857   6.126  0.4364  1.3567  0.4675
20523SOL    HW262733   5.898   1.983   6.053 -1.7496 -0.3821 -1.4680
20524SOL     OW62734   0.742   3.815   5.786 -0.7796  0.2910 -0.1597
20524SOL    HW162735   0.798   3.828   5.709 -2.0517  1.1303 -0.9805
20524SOL    HW262736   0.784   3.744   5.834  0.8021  0.6654 -0.9106
20525SOL     OW62737   6.920   0.061   1.434 -0.0342  0.0526 -0.0010
20525SOL    HW162738   6.965   0.033   1.354  1.0763 -0.4283  0.7554
20525SOL    HW262739   6.896   0.152   1.417  0.5445  0.0832 -0.7376
20526SOL     OW62740   3.722   8.151   7.186 -0.0637  0.0510 -0.3231
20526SOL    HW162741   3.667   8.228   7.170 -0.5460 -0.1801  0.1939
20526SOL    HW262742   3.809   8.187   7.203 -0.5529  0.5864  1.2265
20527SOL     OW62743   0.461   4.124   3.731  0.0452  0.5485 -0.2074
20527SOL    HW162744   0.504   4.162   3.655  1.7901 -0.2028  0.3654
20527SOL    HW262745   0.527   4.067   3.771 -0.8922  0.7265  1.7352
20528SOL     OW62746   1.079   1.557   3.019 -0.1150  0.2674  0.2503
20528SOL    HW162747   1.143   1.543   2.950  1.5809  2.9607  1.1039
20528SOL    HW262748   1.081   1.477   3.071  1.5803 -0.2280 -0.5257
20529SOL     OW62749   5.410   1.105   0.699 -0.3191 -0.1182  0.1888
20529SOL    HW162750   5.415   1.085   0.793 -0.5118 -0.9813  0.0308
20529SOL    HW262751   5.432   1.022   0.657  1.8365  0.7543 -0.5577
20530SOL     OW62752   6.620   1.423   6.351  0.6082 -0.2981 -0.1846
20530SOL    HW162753   6.681   1.353   6.376  2.0922  0.0617 -2.4525
20530SOL    HW262754   6.598   1.404   6.259  0.1103  1.5437 -0.4939
20531SOL     OW62755   7.793   4.432   5.443 -0.4584 -0.0010 -0.0996
20531SOL    HW162756   7.779   4.351   5.492 -1.4388  0.2511  0.0529
20531SOL    HW262757   7.747   4.418   5.360  1.4946 -0.5769 -1.1627
20532SOL     OW62758   4.103   3.366   2.298 -0.1766 -0.2481 -0.0419
20532SOL    HW162759   4.121   3.441   2.355 -0.9619  0.4968 -0.7408
20532SOL    HW262760   4.022   3.390   2.252  0.0463 -1.1357 -0.9234
20533SOL     OW62761   2.852   5.176   7.677  0.5810  0.2458 -0.2817
20533SOL    HW162762   2.861   5.093   7.630  0.9453  0.9148 -1.4264
20533SOL    HW262763   2.918   5.171   7.746  0.8784 -0.2598 -0.5939
20534SOL     OW62764   7.989   4.744   4.767 -0.2150 -0.2222  0.4754
20534SOL    HW162765   8.042   4.675   4.807  2.5466  0.9083 -0.9591
20534SOL    HW262766   8.033   4.763   4.684 -1.1324  2.9103  0.5783
20535SOL     OW62767   6.814   5.777   6.147 -0.6193 -0.0308  0.0264
20535SOL    HW162768   6.744   5.833   6.182  0.0449  0.5989  0.3903
20535SOL    HW262769   6.793   5.690   6.179 -1.1360  0.1839  0.2910
20536SOL     OW62770   6.709   3.744   5.321  0.2990  0.1961 -0.0990
20536SOL    HW162771   6.802   3.757   5.344  0.1205  1.2261  0.0952
20536SOL    HW262772   6.712   3.690   5.242  1.0980  0.8435 -0.5318
20537SOL     OW62773   0.121   4.436   2.946 -0.2926 -0.6530 -0.1639
20537SOL    HW162774   0.111   4.522   2.904  0.9082  0.1485  1.0994
20537SOL    HW262775   0.042   4.426   2.999 -0.2348 -0.1107  0.0324
20538SOL     OW62776   0.031   8.835   8.673  0.4602  0.2936  0.5427
20538SOL    HW162777   0.091   8.908   8.661  0.7363  0.6254  3.1829
20538SOL    HW262778  -0.049   8.861   8.628  1.5248  0.8569 -1.0846
20539SOL     OW62779   1.368   6.111   0.283 -0.8101 -0.4251 -0.5490
20539SOL    HW162780   1.314   6.114   0.204  0.3696  0.6157 -1.3413
20539SOL    HW262781   1.437   6.175   0.268  1.3480 -2.4839 -0.0695
20540SOL     OW62782   5.655   3.060   5.155 -0.1606  0.1953 -0.4961
20540SOL    HW162783   5.587   3.093   5.214  0.0707 -0.1396 -0.0338
20540SOL    HW262784   5.613   2.991   5.105  0.1412 -0.8626  0.6465
20541SOL     OW62785   0.836   2.860   8.212  0.3648 -0.3750  0.0334
20541SOL    HW162786   0.915   2.887   8.165  0.5164 -0.8275  0.0217
20541SOL    HW262787   0.823   2.769   8.186  0.4131 -0.6121  0.8111
20542SOL     OW62788   7.660   1.576   2.652  0.1923 -0.0391  0.1146
20542SOL    HW162789   7.606   1.533   2.585  2.2831 -0.4399 -1.4054
20542SOL    HW262790   7.638   1.669   2.643 -1.1058 -0.2944  0.3767
20543SOL     OW62791   7.159   6.642   5.392 -0.6987 -0.2918  0.9382
20543SOL    HW162792   7.109   6.654   5.311 -2.3263 -1.6172  1.6818
20543SOL    HW262793   7.250   6.637   5.363 -0.8572  2.5670 -0.4381
20544SOL     OW62794   7.610   6.189   8.473  0.2063 -0.2438  1.1862
20544SOL    HW162795   7.566   6.258   8.523  2.6412  0.2647  2.7777
20544SOL    HW262796   7.683   6.161   8.528  1.5746 -1.4188 -1.0563
20545SOL     OW62797   5.970   6.818   5.470  0.8728  0.3822  0.8720
20545SOL    HW162798   5.999   6.888   5.528  1.7644 -0.1216  1.0664
20545SOL    HW262799   5.887   6.789   5.507 -0.0195  1.9795  0.2166
20546SOL     OW62800   5.411   2.093   1.121  0.5399  0.8313  0.3541
20546SOL    HW162801   5.337   2.091   1.061 -1.4590  3.2501  2.4672
20546SOL    HW262802   5.434   2.186   1.128  1.1717  0.5772  2.6597
20547SOL     OW62803   0.920   3.837   7.330  0.8847 -0.6259  0.2435
20547SOL    HW162804   0.901   3.876   7.245 -0.0444 -0.0752  0.6901
20547SOL    HW262805   0.951   3.910   7.384  0.2637 -0.7122  0.7352
20548SOL     OW62806   0.521   8.580   4.942  0.2924 -0.7900  0.1169
20548SOL    HW162807   0.439   8.629   4.931  0.1269 -1.3212 -1.1676
20548SOL    HW262808   0.563   8.620   5.018 -0.4266  0.5055 -0.1493
20549SOL     OW62809   6.504   2.814   8.709  0.0495  0.2201  0.1769
20549SOL    HW162810   6.453   2.891   8.732  0.1730  0.7070 -1.0939
20549SOL    HW262811   6.567   2.845   8.644  0.9955 -0.6768  0.6268
20550SOL     OW62812   7.925   7.166   6.083 -0.4624  0.4676 -0.0057
20550SOL    HW162813   7.998   7.123   6.039 -0.5882 -0.6994  0.8927
20550SOL    HW262814   7.855   7.168   6.018 -0.2805 -0.2162 -0.2228
20551SOL     OW62815   4.523   2.144   8.030  0.3680 -0.0783 -0.4087
20551SOL    HW162816   4.539   2.143   7.936 -2.1370  2.8447 -1.0042
20551SOL    HW262817   4.429   2.159   8.038  0.7241  1.2318  2.5248
20552SOL     OW62818   4.247   0.529   5.660  0.0057  0.8261  0.4513
20552SOL    HW162819   4.312   0.534   5.591  0.2494 -2.4303  0.2978
20552SOL    HW262820   4.164   0.548   5.616  0.6427  4.8629  0.6235
20553SOL     OW62821   2.425   8.012   5.893 -0.1407 -0.7266 -0.4205
20553SOL    HW162822   2.509   7.999   5.935  0.2101  0.5913 -0.6707
20553SOL    HW262823   2.442   8.075   5.822 -1.5765  0.7569  0.4615
20554SOL     OW62824   7.795   7.951   4.044 -0.1880  0.0300 -0.6858
20554SOL    HW162825   7.743   7.999   3.980  0.7155  1.6351 -0.2516
20554SOL    HW262826   7.773   7.990   4.128  0.7488 -0.1414 -0.3501
20555SOL     OW62827   6.115   1.129   3.895 -0.6160  0.2709  0.3094
20555SOL    HW162828   6.035   1.182   3.900 -1.1309 -0.5546  1.0324
20555SOL    HW262829   6.138   1.111   3.986  0.2542  0.2871  0.0974
20556SOL     OW62830   5.233   7.661   7.726 -0.2617 -0.3617 -0.5307
20556SOL    HW162831   5.161   7.618   7.680 -0.4829  0.7344 -1.2706
20556SOL    HW262832   5.311   7.614   7.697 -0.5675 -0.7935 -0.6709
20557SOL     OW62833   6.066   0.276   2.708  0.1734 -0.6494  0.5402
20557SOL    HW162834   6.112   0.194   2.729  0.2156 -0.3471  1.6984
20557SOL    HW262835   6.078   0.330   2.786  0.5909  0.6723 -0.4093
20558SOL     OW62836   1.078   2.107   8.813  0.8177  0.3741 -0.0259
20558SOL    HW162837   1.166   2.146   8.815  0.9016  0.1850  2.0874
20558SOL    HW262838   1.085   2.036   8.749  1.7100  1.4201 -1.1356
20559SOL     OW62839   4.449   6.976   5.020 -0.7874  0.6616 -0.9571
20559SOL    HW162840   4.406   7.062   5.017 -1.2608  0.4189 -1.0728
20559SOL    HW262841   4.461   6.960   5.114  0.8918  1.6410 -0.9645
20560SOL     OW62842   7.503   3.292   7.138 -0.2247 -0.0516 -0.1343
20560SOL    HW162843   7.431   3.318   7.196 -0.5531  2.7670 -1.6436
20560SOL    HW262844   7.581   3.295   7.194 -0.8248  0.3710  0.6970
20561SOL     OW62845   1.279   0.275   7.606  0.2440 -0.2706  0.7744
20561SOL    HW162846   1.289   0.370   7.604 -1.0998 -0.1121 -0.5492
20561SOL    HW262847   1.364   0.241   7.580  0.0052  0.6801 -1.4667
20562SOL     OW62848   2.961   8.267   4.057  0.1233 -0.2152 -0.2995
20562SOL    HW162849   2.913   8.350   4.060  0.4485 -0.0500  2.3960
20562SOL    HW262850   2.894   8.200   4.070  0.0969 -0.2901 -0.7798
20563SOL     OW62851   7.342   5.249   7.691  0.2490  0.0232  0.1121
20563SOL    HW162852   7.418   5.306   7.684  0.2430  0.2913  1.8116
20563SOL    HW262853   7.289   5.288   7.760  0.0764 -1.8166  1.0931
20564SOL     OW62854   8.464   8.144   7.511 -0.0937  0.4458  0.2002
20564SOL    HW162855   8.471   8.232   7.547  1.0144  1.4224 -2.1194
20564SOL    HW262856   8.555   8.118   7.494 -0.4033 -1.1584  0.8479
20565SOL     OW62857   2.903   5.319   4.471  0.6309  0.0794 -0.1378
20565SOL    HW162858   2.914   5.412   4.452  2.1099 -0.1929 -0.7964
20565SOL    HW262859   2.827   5.292   4.419  1.8241  0.3602 -2.1535
20566SOL     OW62860   4.798   1.046   4.052 -0.2718 -0.3301 -0.1926
20566SOL    HW162861   4.882   1.002   4.039  0.2411  0.0850  1.4439
20566SOL    HW262862   4.785   1.096   3.971  1.5374  0.3475 -0.1185
20567SOL     OW62863   7.272   3.020   3.600 -0.6599 -0.5166  0.4186
20567SOL    HW162864   7.270   2.999   3.693 -1.0416 -2.1577  0.0745
20567SOL    HW262865   7.366   3.026   3.579 -0.5565 -0.8455  0.7666
20568SOL     OW62866   4.714   0.645   1.184  0.0031  1.0486 -0.0776
20568SOL    HW162867   4.673   0.571   1.228 -1.9996  1.1380 -1.6352
20568SOL    HW262868   4.749   0.609   1.103  1.4837  1.3291  0.4070
20569SOL     OW62869   4.572   3.069   7.792 -0.3135 -0.1491  0.7701
20569SOL    HW162870   4.652   3.073   7.844 -0.5128 -1.9728  1.3033
20569SOL    HW262871   4.600   3.034   7.707 -0.3567  0.4820  0.4907
20570SOL     OW62872   6.492   5.101   6.433 -0.2240  0.4286  0.3473
20570SOL    HW162873   6.540   5.025   6.467  0.2707  0.6108  0.0595
20570SOL    HW262874   6.409   5.064   6.403 -0.7095  0.2674  1.8038
20571SOL     OW62875   6.728   2.288   6.153  0.1052  0.1610 -0.8204
20571SOL    HW162876   6.773   2.283   6.237 -1.4449 -0.2109  0.0216
20571SOL    HW262877   6.754   2.373   6.117  1.8464 -0.2577 -0.6209
20572SOL     OW62878   5.775   2.336   3.310  0.0051 -0.0479  0.0466
20572SOL    HW162879   5.720   2.412   3.330  0.5262  0.7582 -1.4177
20572SOL    HW262880   5.833   2.328   3.385  0.7730  1.8067 -0.2913
20573SOL     OW62881   2.190   2.650   5.644 -0.3831 -0.0459 -0.2737
20573SOL    HW162882   2.262   2.692   5.690 -1.6712  1.4976  0.4464
20573SOL    HW262883   2.175   2.704   5.566  0.7584 -1.7414 -1.7367
20574SOL     OW62884   7.116   1.821   4.673  0.1061 -0.1713  0.3250
20574SOL    HW162885   7.175   1.895   4.685  0.2074 -0.3439  0.9713
20574SOL    HW262886   7.119   1.801   4.580  1.7324 -0.7249  0.4703
20575SOL     OW62887   2.542   5.700   3.559 -0.1887  0.4723  0.1805
20575SOL    HW162888   2.535   5.612   3.598 -0.6048  0.5952  0.3936
20575SOL    HW262889   2.478   5.752   3.608 -0.1265  0.8316 -0.1205
20576SOL     OW62890   4.323   6.681   2.757  0.5788 -0.2739  0.3251
20576SOL    HW162891   4.374   6.653   2.681  0.4876  1.1973 -0.3058
20576SOL    HW262892   4.386   6.727   2.813  0.1382  0.9190 -0.1161
20577SOL     OW62893   0.430   2.681   1.347  0.4408  0.5221 -0.0986
20577SOL    HW162894   0.512   2.640   1.318  0.8721  1.1571  0.1888
20577SOL    HW262895   0.364   2.613   1.337  1.6293 -1.3862  3.2755
20578SOL     OW62896   3.669   0.387   8.376 -0.1395 -0.3759  0.5306
20578SOL    HW162897   3.726   0.383   8.453 -2.6834 -0.2445  2.5448
20578SOL    HW262898   3.680   0.302   8.334 -0.3413 -1.3520  2.3465
20579SOL     OW62899   7.353   5.209   1.099 -0.0398  1.0178 -0.0611
20579SOL    HW162900   7.362   5.301   1.074 -0.2608  0.6089 -1.7296
20579SOL    HW262901   7.404   5.161   1.034  0.3585 -0.0321  0.9867
20580SOL     OW62902   1.587   0.311   2.498 -0.3706  0.7866  0.1478
20580SOL    HW162903   1.502   0.303   2.542  0.3861  1.2450  1.7500
20580SOL    HW262904   1.606   0.404   2.500  1.0495  0.5041  1.5838
20581SOL     OW62905   3.821   2.594   4.178  0.1795  0.2908 -0.4867
20581SOL    HW162906   3.738   2.558   4.208 -0.2123 -0.4606 -2.3241
20581SOL    HW262907   3.861   2.631   4.256 -1.6293  0.1767  0.5491
20582SOL     OW62908   0.939   8.374   7.090  0.7873 -0.5444 -0.4482
20582SOL    HW162909   0.979   8.392   7.175 -0.2994 -1.6741  0.3367
20582SOL    HW262910   1.001   8.316   7.046  1.7245  0.6705 -0.7764
20583SOL     OW62911   5.817   3.900   6.783 -0.2035 -0.1658  0.0262
20583SOL    HW162912   5.777   3.813   6.791 -0.1294 -0.2024  0.0039
20583SOL    HW262913   5.800   3.926   6.692  1.3670 -0.9495 -0.5215
20584SOL     OW62914   0.372   4.346   8.145 -0.3002 -0.0788  0.1371
20584SOL    HW162915   0.364   4.274   8.209  0.0715 -0.8393 -0.6539
20584SOL    HW262916   0.465   4.368   8.147 -0.2442 -0.2669 -0.3069
20585SOL     OW62917   1.537   7.842   2.498  0.0373 -0.1659  0.3248
20585SOL    HW162918   1.547   7.879   2.410 -0.0955  2.2202  1.2460
20585SOL    HW262919   1.504   7.753   2.483  0.9372 -0.1681 -2.0456
20586SOL     OW62920   6.383   7.465   4.329  0.3574 -0.4923  0.0347
20586SOL    HW162921   6.423   7.465   4.242 -0.2872  0.8183 -0.2898
20586SOL    HW262922   6.292   7.490   4.313 -0.2619 -2.0733  0.9051
20587SOL     OW62923   7.801   2.234   2.398 -0.1564 -1.3129 -0.1538
20587SOL    HW162924   7.816   2.320   2.360 -1.8951 -0.5987  0.6750
20587SOL    HW262925   7.856   2.175   2.346  1.1152  0.2710 -0.7062
20588SOL     OW62926   5.682   1.949   3.360 -0.4142 -0.1402  0.1919
20588SOL    HW162927   5.733   1.995   3.293 -0.1362 -0.1805  0.3732
20588SOL    HW262928   5.681   1.858   3.330 -0.4481 -0.1261  0.1486
20589SOL     OW62929   0.133   3.922   2.213  0.0154 -0.4475  0.6546
20589SOL    HW162930   0.129   3.847   2.272 -2.1606 -0.7724  0.1842
20589SOL    HW262931   0.117   3.998   2.269  0.1038 -0.5463  0.8130
20590SOL     OW62932   0.393   0.450   5.383  0.0495 -0.4474  0.5661
20590SOL    HW162933   0.321   0.406   5.339 -1.2592  1.1927  0.9276
20590SOL    HW262934   0.418   0.391   5.454  0.1382 -1.7459 -0.5256
20591SOL     OW62935   5.804   0.449   7.243 -0.1728  0.1671 -0.3278
20591SOL    HW162936   5.850   0.388   7.185  0.3304 -0.7006  0.9400
20591SOL    HW262937   5.718   0.459   7.203 -0.7553 -2.4447  0.1002
20592SOL     OW62938   6.601   1.058   2.840  0.4758 -0.2290  0.6246
20592SOL    HW162939   6.552   1.119   2.895  0.6663  0.2828  0.2267
20592SOL    HW262940   6.625   0.986   2.900 -1.0405 -0.6609  0.7520
20593SOL     OW62941   6.841   2.553   5.112  0.2992  0.2076  0.1259
20593SOL    HW162942   6.894   2.568   5.033  1.3267 -1.2311  0.4966
20593SOL    HW262943   6.891   2.596   5.182  1.2388 -1.5075  0.5471
20594SOL     OW62944   4.339   6.345   0.317 -0.0156 -0.0346 -0.3793
20594SOL    HW162945   4.433   6.336   0.327 -0.1243 -0.6249  0.2731
20594SOL    HW262946   4.314   6.411   0.382 -0.1428 -0.4708  0.0250
20595SOL     OW62947   5.159   5.317   8.541 -0.3403 -0.1629  0.3978
20595SOL    HW162948   5.254   5.315   8.531 -0.3511 -1.2277  0.3424
20595SOL    HW262949   5.138   5.409   8.554  0.7517  0.0358  0.9119
20596SOL     OW62950   2.456   8.528   4.286  0.2448  0.3553 -0.5415
20596SOL    HW162951   2.507   8.602   4.254 -0.4735  0.4707 -1.4656
20596SOL    HW262952   2.514   8.452   4.275 -0.6846  0.0011 -4.3491
20597SOL     OW62953   4.466   4.345   8.681 -0.3255 -0.0753  0.2267
20597SOL    HW162954   4.559   4.357   8.662 -0.5915  0.3447 -0.8696
20597SOL    HW262955   4.463   4.323   8.774  0.7832  0.8815  0.5016
20598SOL     OW62956   8.518   3.351   5.730  0.4995  0.0667  0.0104
20598SOL    HW162957   8.608   3.348   5.762 -0.2629  0.5760  2.4220
20598SOL    HW262958   8.524   3.326   5.638  3.0500 -0.2069  0.1863
20599SOL     OW62959   8.665   2.125   2.757 -0.1219  0.3602 -0.2032
20599SOL    HW162960   8.661   2.130   2.853 -1.8380 -1.2192 -0.1412
20599SOL    HW262961   8.593   2.066   2.733  1.2555 -0.5687 -2.3561
20600SOL     OW62962   1.792   4.696   6.954  0.5272  0.0095 -0.3884
20600SOL    HW162963   1.874   4.698   6.905  0.5510 -0.9181 -0.4207
20600SOL    HW262964   1.785   4.782   6.994  2.4275 -0.4714  1.1183
20601SOL     OW62965   3.164   8.369   5.447 -0.1556  0.0229  1.2468
20601SOL    HW162966   3.124   8.422   5.377  0.0806 -0.0974  1.0181
20601SOL    HW262967   3.242   8.418   5.473  0.7246 -0.7678  0.2165
20602SOL     OW62968   2.928   7.961   4.154  0.1765  0.1036 -0.4757
20602SOL    HW162969   2.855   8.021   4.142 -0.8391 -0.8314  0.6931
20602SOL    HW262970   2.996   8.013   4.197  0.5228  1.1760 -2.2463
20603SOL     OW62971   5.340   4.560   3.845 -0.3622  0.2166  0.2829
20603SOL    HW162972   5.319   4.595   3.931 -0.7573 -1.2669  0.8220
20603SOL    HW262973   5.417   4.504   3.860 -2.4654 -2.8886  0.4594
20604SOL     OW62974   8.495   1.941   8.551  0.1247 -0.1550  0.7613
20604SOL    HW162975   8.403   1.969   8.552 -1.1846 -3.2551 -3.0914
20604SOL    HW262976   8.545   2.021   8.564 -3.1262  2.1593  0.2908
20605SOL     OW62977   7.341   6.072   6.668 -0.3820 -0.0734 -0.0816
20605SOL    HW162978   7.314   6.102   6.581  1.2126  1.0910 -0.2378
20605SOL    HW262979   7.400   5.998   6.651  0.1435  0.3246 -0.0293
20606SOL     OW62980   3.075   2.367   5.040  0.4374 -0.5572 -0.4040
20606SOL    HW162981   3.010   2.298   5.051  1.5371 -1.7057 -0.8247
20606SOL    HW262982   3.104   2.387   5.129  0.3336 -0.8806 -0.2961
20607SOL     OW62983   7.596   3.791   1.036 -0.1256 -0.2025  0.1211
20607SOL    HW162984   7.529   3.813   1.099  0.4718 -0.5068  0.8783
20607SOL    HW262985   7.638   3.713   1.072 -0.1167 -0.6943 -0.9116
20608SOL     OW62986   3.921   7.284   4.344 -0.2426 -0.3280 -0.3707
20608SOL    HW162987   3.931   7.242   4.430 -0.0418  1.1035  0.3376
20608SOL    HW262988   3.835   7.325   4.348 -0.3761 -0.5460 -0.9935
20609SOL     OW62989   7.945   1.179   1.216 -0.2484  0.5675  0.3179
20609SOL    HW162990   7.912   1.243   1.153 -0.6625  0.3345  0.2946
20609SOL    HW262991   8.016   1.134   1.170 -1.2135 -0.3001 -0.3591
20610SOL     OW62992   0.059   4.668   1.499  0.6788  0.9431 -0.0158
20610SOL    HW162993   0.067   4.608   1.425 -1.5469  0.5877 -0.0399
20610SOL    HW262994   0.044   4.754   1.460 -2.4158  0.4838 -0.1414
20611SOL     OW62995   1.707   8.544   5.920  0.2243 -0.6082  0.2494
20611SOL    HW162996   1.739   8.594   5.845  1.8271  1.5077  2.1893
20611SOL    HW262997   1.763   8.466   5.923 -0.3254 -1.0739 -1.1202
20612SOL     OW62998   1.211   7.792   7.031 -0.2448  0.1249  0.5368
20612SOL    HW162999   1.251   7.879   7.034  0.4085 -0.1585  0.2460
20612SOL    HW263000   1.271   7.740   6.978  0.5662 -1.1002  2.5277
20613SOL     OW63001   5.228   2.631   0.624  0.8796  0.1399 -0.1011
20613SOL    HW163002   5.254   2.693   0.556 -0.4344  1.6235  0.6745
20613SOL    HW263003   5.237   2.680   0.706 -1.3035 -0.2550  0.4543
20614SOL     OW63004   1.932   4.377   5.155  0.1819  0.2073  0.1442
20614SOL    HW163005   1.928   4.289   5.194 -1.8186  0.2728  0.1831
20614SOL    HW263006   2.007   4.373   5.096 -1.2037 -2.3091 -1.6564
20615SOL     OW63007   0.019   5.387   5.639  0.5758  0.0351  0.0569
20615SOL    HW163008   0.009   5.299   5.675  0.9655 -0.0874 -0.1256
20615SOL    HW263009  -0.019   5.445   5.706 -0.1356 -0.3029 -0.0462
20616SOL     OW63010   6.412   4.795   4.927 -0.2026  0.2505 -0.1847
20616SOL    HW163011   6.387   4.754   5.010  1.5513 -0.7089 -0.0693
20616SOL    HW263012   6.474   4.733   4.888 -0.4416  1.0314 -1.8760
20617SOL     OW63013   0.164   7.875   0.301 -0.2611 -0.6781  0.0210
20617SOL    HW163014   0.102   7.942   0.272  0.2809 -0.5620 -0.9099
20617SOL    HW263015   0.228   7.869   0.231 -0.1392 -1.9870  0.2117
20618SOL     OW63016   0.042   0.653   3.137  0.2061  0.1960  0.2988
20618SOL    HW163017   0.096   0.719   3.095 -0.6602 -0.4065 -1.9193
20618SOL    HW263018   0.012   0.597   3.065 -2.1307 -0.3806  1.6063
20619SOL     OW63019   6.514   1.854   3.416  0.1821 -0.0532  0.1233
20619SOL    HW163020   6.539   1.862   3.324 -0.4241  0.6542  0.0116
20619SOL    HW263021   6.567   1.781   3.449 -0.8368 -1.4711 -1.2096
20620SOL     OW63022   1.287   5.921   4.936  0.1116 -0.0723 -0.1796
20620SOL    HW163023   1.222   5.973   4.888 -0.9033 -1.1212  0.0033
20620SOL    HW263024   1.362   5.917   4.877 -0.7937 -0.6050 -1.3500
20621SOL     OW63025   0.977   7.569   8.192  0.1143  0.0610 -0.1134
20621SOL    HW163026   0.999   7.551   8.101  1.1911 -1.1417  0.3657
20621SOL    HW263027   1.051   7.619   8.226  0.8630 -1.5391  0.7240
20622SOL     OW63028   4.884   4.036   5.460  0.0180 -0.2420  0.6669
20622SOL    HW163029   4.800   4.008   5.496  0.6424 -1.2077  1.4250
20622SOL    HW263030   4.939   4.053   5.536  0.6293  0.0272  0.1805
20623SOL     OW63031   1.427   4.821   5.650  0.1831  0.6907 -0.1202
20623SOL    HW163032   1.490   4.757   5.682 -1.3022 -1.2128 -0.8353
20623SOL    HW263033   1.406   4.874   5.727 -0.1422 -1.0761  1.0824
20624SOL     OW63034   7.956   8.000   8.735 -0.0071 -0.4222  0.5319
20624SOL    HW163035   7.975   8.083   8.691  1.0305 -0.1799  1.3619
20624SOL    HW263036   7.976   7.933   8.670 -0.8421 -0.0241 -0.1449
20625SOL     OW63037   0.444   6.659   7.887 -0.6704 -0.4541 -0.9606
20625SOL    HW163038   0.438   6.603   7.964  0.9300 -1.1617 -1.2959
20625SOL    HW263039   0.377   6.726   7.900 -2.7916 -2.5376 -0.6553
20626SOL     OW63040   3.161   7.187   0.886 -0.1209 -0.2686 -0.4757
20626SOL    HW163041   3.136   7.267   0.840 -1.7209 -1.0595 -1.0939
20626SOL    HW263042   3.198   7.131   0.818  1.4032  0.0922  0.0383
20627SOL     OW63043   5.476   7.485   4.124 -0.2946 -0.0214 -0.0298
20627SOL    HW163044   5.504   7.414   4.181  0.3971  0.8199  0.7012
20627SOL    HW263045   5.452   7.556   4.183 -0.2636  0.6125 -0.7586
20628SOL     OW63046   3.858   5.950   1.656  0.2365  0.1412 -0.1982
20628SOL    HW163047   3.848   6.032   1.607  1.4358  1.1341  1.1334
20628SOL    HW263048   3.953   5.943   1.671 -0.1357  0.6170  3.0740
20629SOL     OW63049   0.737   5.573   8.743  0.4476  0.0598  0.5081
20629SOL    HW163050   0.775   5.597   8.658  0.2029  1.0720  0.6778
20629SOL    HW263051   0.812   5.548   8.797  0.6325 -0.2913  0.0910
20630SOL     OW63052   8.330   8.455   8.501 -0.5145 -1.0211 -0.2041
20630SOL    HW163053   8.333   8.381   8.561 -0.6090 -0.9669 -0.1328
20630SOL    HW263054   8.256   8.507   8.531  0.9631  0.3696  1.2248
20631SOL     OW63055   5.034   8.438   7.315  0.6620 -0.0556 -0.0263
20631SOL    HW163056   5.052   8.345   7.300 -0.2301 -0.4542  1.2224
20631SOL    HW263057   4.944   8.449   7.285  1.2279  0.7623 -1.5185
20632SOL     OW63058   5.619   3.777   5.572 -0.0347  0.1690  0.1436
20632SOL    HW163059   5.631   3.872   5.568 -1.4050  0.3363 -0.7002
20632SOL    HW263060   5.678   3.748   5.641  0.0906  1.6873  0.7110
20633SOL     OW63061   3.438   3.599   6.395  0.0279 -0.3416  0.2898
20633SOL    HW163062   3.433   3.608   6.490 -0.9299  0.9941  0.1322
20633SOL    HW263063   3.460   3.507   6.382 -0.0001 -0.5963  1.7950
20634SOL     OW63064   7.584   2.975   5.648  0.0127  0.2162 -0.5138
20634SOL    HW163065   7.514   3.034   5.675 -0.3786 -0.1241 -0.7643
20634SOL    HW263066   7.574   2.898   5.704 -0.6791 -0.4072 -1.4523
20635SOL     OW63067   6.995   6.697   2.943  0.3786 -0.4130 -0.1168
20635SOL    HW163068   6.971   6.769   2.885 -1.0862 -1.3474 -0.7118
20635SOL    HW263069   6.972   6.618   2.895 -0.1389 -1.2297  1.4079
20636SOL     OW63070   2.580   1.037   5.706  0.1500  0.1156 -0.2238
20636SOL    HW163071   2.551   0.950   5.678 -0.4199  0.3882 -0.5099
20636SOL    HW263072   2.522   1.058   5.780  0.6588  0.0223  0.2078
20637SOL     OW63073   2.763   6.926   2.248  0.0539 -0.3457  0.3320
20637SOL    HW163074   2.785   6.973   2.168 -2.6002 -0.0359 -0.3134
20637SOL    HW263075   2.825   6.958   2.313  1.3084  0.5154 -1.2281
20638SOL     OW63076   1.847   3.641   4.916 -0.5226 -0.4087  0.0877
20638SOL    HW163077   1.874   3.703   4.984  0.1415 -0.4644 -0.1146
20638SOL    HW263078   1.820   3.563   4.964  1.2445 -0.9562  0.2722
20639SOL     OW63079   3.073   0.775   0.379 -0.0326  0.2224  0.4358
20639SOL    HW163080   3.123   0.697   0.353 -0.2232 -0.3354  1.6733
20639SOL    HW263081   3.138   0.834   0.415  0.2643  1.0835 -1.3659
20640SOL     OW63082   4.390   4.939   0.596  0.1325 -0.0705  0.1608
20640SOL    HW163083   4.296   4.942   0.612 -0.1684 -0.4259 -1.3499
20640SOL    HW263084   4.428   4.906   0.678 -1.1781 -1.0893  0.3902
20641SOL     OW63085   1.902   4.567   7.269 -0.4489 -0.3927 -0.2791
20641SOL    HW163086   1.898   4.479   7.305 -1.6508 -0.2848 -0.1032
20641SOL    HW263087   1.813   4.585   7.240 -0.1104  0.5824 -0.7666
20642SOL     OW63088   7.813   8.747   2.179 -0.1387  0.3857  0.6160
20642SOL    HW163089   7.758   8.813   2.221 -1.1681  0.2627 -0.4540
20642SOL    HW263090   7.903   8.777   2.193 -0.5593  1.6534  0.7247
20643SOL     OW63091   7.743   3.198   4.911  0.2764  0.2116 -0.9146
20643SOL    HW163092   7.806   3.194   4.839  0.3646 -1.5329 -0.7716
20643SOL    HW263093   7.662   3.227   4.870  1.2259  3.0732 -1.0070
20644SOL     OW63094   6.760   8.273   3.417 -0.4518 -0.1049 -0.3571
20644SOL    HW163095   6.774   8.197   3.361  0.7145 -0.1481 -0.0503
20644SOL    HW263096   6.755   8.347   3.357 -1.3288 -0.3943 -0.6410
20645SOL     OW63097   7.218   6.533   6.051  0.0875  0.0177  0.2017
20645SOL    HW163098   7.260   6.610   6.090 -1.2993  1.5955 -1.2607
20645SOL    HW263099   7.235   6.542   5.957 -0.5203 -1.2148 -0.0405
20646SOL     OW63100   4.116   3.694   2.009 -0.0719  1.1295  0.3932
20646SOL    HW163101   4.132   3.632   1.937 -0.8178 -0.0358  1.2037
20646SOL    HW263102   4.202   3.736   2.023  1.0256 -1.2091  1.1716
20647SOL     OW63103   4.949   3.517   7.898 -0.3673 -0.3794  0.0092
20647SOL    HW163104   4.920   3.467   7.975 -1.5325 -2.0721 -1.4427
20647SOL    HW263105   4.988   3.451   7.841 -0.8844  0.5707 -1.4881
20648SOL     OW63106   7.804   0.111   1.983 -0.2047  0.2782 -0.3357
20648SOL    HW163107   7.713   0.085   1.997  0.0418 -1.3417 -1.4756
20648SOL    HW263108   7.849   0.030   1.957  1.5662  1.0441  0.1609
20649SOL     OW63109   4.198   4.194   8.652 -0.3305  0.6796 -0.3640
20649SOL    HW163110   4.223   4.198   8.745  0.9607  0.2679 -0.6734
20649SOL    HW263111   4.278   4.215   8.605 -0.2724 -1.6166 -1.4293
20650SOL     OW63112   0.174   5.009   0.133 -0.6675  0.2999  0.2625
20650SOL    HW163113   0.110   5.076   0.156  0.0845  1.1134  0.0261
20650SOL    HW263114   0.200   5.031   0.043 -0.4110 -0.3133  0.1807
20651SOL     OW63115   6.823   1.126   6.670  0.3365  0.0194  0.3776
20651SOL    HW163116   6.736   1.163   6.687  0.9795  2.0839 -0.6037
20651SOL    HW263117   6.872   1.141   6.751  0.4944  1.0690  0.0973
20652SOL     OW63118   2.868   8.701   3.423  0.5817 -0.2238 -0.1767
20652SOL    HW163119   2.849   8.777   3.368  1.6526 -0.1801 -0.5085
20652SOL    HW263120   2.837   8.626   3.373 -1.6826  0.0318  0.7003
20653SOL     OW63121   2.478   2.788   3.276  0.1810 -0.4070  0.2042
20653SOL    HW163122   2.481   2.762   3.368  0.1715  0.2740  0.4048
20653SOL    HW263123   2.497   2.708   3.227 -0.2978 -0.8718  0.7821
20654SOL     OW63124   8.724   6.053   0.927 -1.0170 -0.3449 -0.2440
20654SOL    HW163125   8.652   6.002   0.965 -0.0858  0.0477  2.1838
20654SOL    HW263126   8.709   6.143   0.957  0.4053 -0.2328  0.1947
20655SOL     OW63127   6.699   7.661   5.443 -0.0594 -0.2218 -0.1765
20655SOL    HW163128   6.627   7.601   5.423 -0.6600  0.3326  0.2421
20655SOL    HW263129   6.768   7.638   5.381 -0.7595 -0.4934 -0.8768
20656SOL     OW63130   0.836   4.372   4.978  0.2868  0.0423 -0.8482
20656SOL    HW163131   0.757   4.317   4.972 -1.1755  2.1092 -1.8393
20656SOL    HW263132   0.848   4.386   5.072  0.2756 -1.3422 -0.6168
20657SOL     OW63133   1.103   4.249   5.745  0.6161  0.7730  0.0773
20657SOL    HW163134   1.188   4.266   5.704  1.2734 -0.3791  0.8919
20657SOL    HW263135   1.075   4.334   5.778  1.1072  1.3060 -0.8224
20658SOL     OW63136   0.586   7.215   2.262  0.3911 -0.6068 -0.6856
20658SOL    HW163137   0.509   7.264   2.292  0.5374 -1.5557  1.4837
20658SOL    HW263138   0.560   7.179   2.177 -1.5097 -0.7336 -0.1041
20659SOL     OW63139   1.184   6.854   4.439  0.0073 -0.1312  0.4602
20659SOL    HW163140   1.162   6.931   4.492 -1.6289 -1.1789  1.3691
20659SOL    HW263141   1.125   6.859   4.364  1.2731  0.5237 -0.5365
20660SOL     OW63142   1.153   6.332   2.528  0.1937 -0.0471  0.6898
20660SOL    HW163143   1.180   6.325   2.437 -1.4351  0.6473  0.1026
20660SOL    HW263144   1.057   6.337   2.524  0.0868  0.0008  2.4348
20661SOL     OW63145   0.168   6.461   4.144 -0.1799 -0.2664  0.0918
20661SOL    HW163146   0.240   6.521   4.125  0.6899 -1.1431  0.5226
20661SOL    HW263147   0.182   6.387   4.085 -0.4729 -0.6430  0.4854
20662SOL     OW63148   2.084   4.214   1.880 -0.1661 -0.2448 -0.1211
20662SOL    HW163149   2.108   4.136   1.830 -0.3435  0.9488 -2.1739
20662SOL    HW263150   2.050   4.275   1.815  1.1394  2.0421  1.2069
20663SOL     OW63151   0.784   8.397   8.818 -0.2800  0.0149  0.6216
20663SOL    HW163152   0.827   8.480   8.797 -0.4046  0.5255  2.2385
20663SOL    HW263153   0.764   8.403   8.911 -1.7411 -1.1798  0.4342
20664SOL     OW63154   2.332   7.325   0.223  0.1702 -0.2548  0.5609
20664SOL    HW163155   2.247   7.368   0.219  0.1425 -0.3618 -0.5595
20664SOL    HW263156   2.348   7.309   0.316 -0.3680  1.0772  0.8974
20665SOL     OW63157   6.886   3.805   7.745  0.0262 -0.1386 -0.0559
20665SOL    HW163158   6.927   3.886   7.714 -0.8229 -0.4175 -2.0688
20665SOL    HW263159   6.947   3.736   7.717 -0.2512 -0.3368 -0.1688
20666SOL     OW63160   6.959   5.169   5.832 -0.8198  0.3806  0.0732
20666SOL    HW163161   7.052   5.184   5.814 -0.9477  1.7893  0.4583
20666SOL    HW263162   6.957   5.137   5.922 -0.6303 -0.9316 -0.3657
20667SOL     OW63163   3.022   6.327   4.788 -0.3470  0.3576  0.8102
20667SOL    HW163164   3.090   6.364   4.732 -1.8200 -0.4632 -1.6897
20667SOL    HW263165   2.989   6.402   4.838  1.6399  0.9441  1.3439
20668SOL     OW63166   5.348   3.381   6.673 -0.2575  0.1565 -0.4940
20668SOL    HW163167   5.272   3.417   6.628 -2.0188 -0.8408  1.4941
20668SOL    HW263168   5.339   3.286   6.664  0.8943  0.0267 -0.4417
20669SOL     OW63169   4.457   1.421   4.756  0.0080 -0.6015  0.2983
20669SOL    HW163170   4.507   1.368   4.694  1.7872 -1.0889  2.0505
20669SOL    HW263171   4.367   1.421   4.721  0.6615 -1.9466 -1.5266
20670SOL     OW63172   6.632   0.175   4.683  0.3551  0.0179 -0.3314
20670SOL    HW163173   6.634   0.100   4.624 -0.7420  0.1011 -0.4978
20670SOL    HW263174   6.660   0.249   4.629 -0.5616  0.0785 -0.7356
20671SOL     OW63175   6.987   6.167   8.335 -0.1837  0.4273  0.5023
20671SOL    HW163176   7.056   6.145   8.399  0.4264 -0.6035 -0.4741
20671SOL    HW263177   6.908   6.176   8.388  0.8766  2.9116  1.8352
20672SOL     OW63178   0.034   7.962   7.518  0.5258 -0.0114 -0.4176
20672SOL    HW163179   0.123   7.954   7.552 -0.1390 -0.9528  1.2184
20672SOL    HW263180  -0.023   7.940   7.592 -1.0261 -1.7175 -1.9910
20673SOL     OW63181   6.383   2.709   3.140  0.1657 -0.0427 -0.0405
20673SOL    HW163182   6.403   2.642   3.075  0.0912 -0.4940  0.3957
20673SOL    HW263183   6.327   2.665   3.204  0.5069  0.3030  0.5078
20674SOL     OW63184   7.835   2.094   0.837  0.1971 -0.1997 -0.1505
20674SOL    HW163185   7.834   2.000   0.819 -0.7693 -0.3356  0.5557
20674SOL    HW263186   7.837   2.135   0.751 -1.9084 -0.8557 -0.5786
20675SOL     OW63187   1.493   5.440   7.923 -0.4720 -0.1479  0.4783
20675SOL    HW163188   1.474   5.534   7.922 -0.1818 -0.0497 -1.9310
20675SOL    HW263189   1.567   5.432   7.983  0.3825  1.3937 -0.2840
20676SOL     OW63190   3.708   1.693   4.919  0.1893 -0.4228  0.3637
20676SOL    HW163191   3.619   1.661   4.909 -0.0661 -0.0387  1.3390
20676SOL    HW263192   3.702   1.763   4.984  0.8343  1.1708 -1.1966
20677SOL     OW63193   4.312   2.473   6.779 -0.4059 -0.2344 -0.4669
20677SOL    HW163194   4.266   2.547   6.739 -0.6110 -0.5118 -0.7407
20677SOL    HW263195   4.263   2.455   6.859  2.0562  2.7025  1.9853
20678SOL     OW63196   0.712   7.865   5.405 -0.0715  0.4522  0.0437
20678SOL    HW163197   0.675   7.952   5.391 -0.3253  0.0636 -2.2171
20678SOL    HW263198   0.798   7.881   5.444  0.1455  1.7624 -0.8925
20679SOL     OW63199   1.780   7.999   8.763 -0.1974 -0.2467  0.1054
20679SOL    HW163200   1.849   7.990   8.698  1.6663  1.9337  1.6209
20679SOL    HW263201   1.713   8.052   8.721 -0.7320 -1.8510 -1.1649
20680SOL     OW63202   6.629   4.334   1.231 -1.0428  0.4052 -0.1922
20680SOL    HW163203   6.585   4.418   1.220  0.1107  1.1457  0.5960
20680SOL    HW263204   6.709   4.341   1.179 -0.8358 -0.1305  0.0434
20681SOL     OW63205   3.775   3.538   1.589  0.2794 -0.1357  0.2529
20681SOL    HW163206   3.785   3.528   1.494 -1.6677  0.8162 -0.0984
20681SOL    HW263207   3.683   3.519   1.606  1.2660 -3.8249  2.5201
20682SOL     OW63208   6.290   6.689   5.855  0.1363 -0.2481  0.6636
20682SOL    HW163209   6.301   6.636   5.776  1.7759  0.1220  0.6107
20682SOL    HW263210   6.324   6.634   5.926 -0.3828 -0.1843  0.9643
20683SOL     OW63211   5.655   5.130   7.414  0.4819 -0.0286  0.0409
20683SOL    HW163212   5.643   5.040   7.382 -2.3531  0.3171 -0.0959
20683SOL    HW263213   5.669   5.182   7.334  1.3524 -0.2066  0.0632
20684SOL     OW63214   4.472   8.318   8.000 -0.4244  0.3427 -0.2104
20684SOL    HW163215   4.393   8.339   7.950 -1.3816  0.3360  1.2601
20684SOL    HW263216   4.496   8.400   8.043 -1.5746 -0.3698  1.9539
20685SOL     OW63217   3.401   5.901   5.328  0.3098 -0.4393 -0.2476
20685SOL    HW163218   3.305   5.910   5.332  0.3285 -0.4988  0.5295
20685SOL    HW263219   3.432   5.943   5.408  0.9485 -0.2968 -0.5641
20686SOL     OW63220   6.217   0.533   7.148  0.5037  0.6444 -0.2196
20686SOL    HW163221   6.237   0.516   7.056  0.2991  1.2856 -0.3884
20686SOL    HW263222   6.189   0.624   7.150  2.1726  1.1928  0.7370
20687SOL     OW63223   2.334   6.225   5.701 -0.3017 -0.4387  0.4528
20687SOL    HW163224   2.337   6.196   5.610 -1.0820  0.0257  0.2668
20687SOL    HW263225   2.418   6.199   5.738  0.4139  0.2415 -0.6608
20688SOL     OW63226   3.386   6.047   7.756 -0.5283  0.2235  0.2632
20688SOL    HW163227   3.397   5.956   7.730 -1.1811  0.2289 -0.0534
20688SOL    HW263228   3.375   6.094   7.674  1.7259  0.9010  0.2697
20689SOL     OW63229   7.590   2.219   4.081  0.5130 -0.1842 -0.2862
20689SOL    HW163230   7.630   2.271   4.151  0.0613 -1.2254  0.7996
20689SOL    HW263231   7.624   2.131   4.095 -2.2799 -1.2074  0.8828
20690SOL     OW63232   7.180   1.548   5.224 -0.6238  0.1793  0.2152
20690SOL    HW163233   7.142   1.507   5.302 -2.4711 -1.1478 -1.2747
20690SOL    HW263234   7.274   1.541   5.237 -0.8837 -1.5477  1.5789
20691SOL     OW63235   3.703   1.840   2.036 -0.3767  0.4143  0.5524
20691SOL    HW163236   3.686   1.918   2.089 -1.6015 -0.3442  1.3389
20691SOL    HW263237   3.631   1.836   1.973 -1.4472 -1.0664  1.7715
20692SOL     OW63238   7.163   1.742   8.576  0.3923  0.1193  0.5092
20692SOL    HW163239   7.109   1.771   8.502  1.2305 -0.0146 -0.1607
20692SOL    HW263240   7.131   1.654   8.595 -2.0845  1.3193  2.4725
20693SOL     OW63241   8.600   0.536   2.133  0.2417  0.0856  0.3839
20693SOL    HW163242   8.506   0.530   2.116  0.3931 -0.0479 -0.4714
20693SOL    HW263243   8.640   0.544   2.046  1.1250 -1.1889  0.6300
20694SOL     OW63244   3.672   4.139   5.171 -0.0764 -0.1601  0.0694
20694SOL    HW163245   3.666   4.048   5.143  0.8332 -0.2092  0.0141
20694SOL    HW263246   3.587   4.157   5.211  0.6996 -1.9941  2.8787
20695SOL     OW63247   5.883   7.894   5.129  0.2606  0.1612 -0.0744
20695SOL    HW163248   5.925   7.875   5.212 -2.4738  0.7821  1.5906
20695SOL    HW263249   5.823   7.820   5.115 -1.0196  1.1901 -0.2275
20696SOL     OW63250   1.248   1.010   7.157  0.3537  0.7250 -0.6414
20696SOL    HW163251   1.242   1.090   7.104  1.3792  0.4606 -1.1703
20696SOL    HW263252   1.277   1.041   7.243 -0.4545  1.0483 -0.4687
20697SOL     OW63253   2.055   6.284   0.700  0.0099 -0.1533 -0.4800
20697SOL    HW163254   2.137   6.307   0.745 -0.1648  0.9859 -0.7208
20697SOL    HW263255   2.083   6.226   0.629  0.4392 -0.8883  0.2551
20698SOL     OW63256   5.191   8.008   8.373  0.2974  0.4421  0.2536
20698SOL    HW163257   5.216   8.001   8.281 -1.4663 -0.5731 -0.1923
20698SOL    HW263258   5.252   7.950   8.419 -0.4117 -1.0674 -0.6333
20699SOL     OW63259   4.861   8.819   7.322  0.6399 -0.1601  0.0349
20699SOL    HW163260   4.818   8.905   7.325 -1.1147 -0.8935 -1.7657
20699SOL    HW263261   4.920   8.824   7.247  0.1812 -0.6622 -0.3635
20700SOL     OW63262   5.593   4.628   0.802  0.4424 -0.3646  0.6474
20700SOL    HW163263   5.647   4.650   0.877 -1.0335  1.2641  1.3008
20700SOL    HW263264   5.612   4.695   0.737  2.0363 -2.0028 -0.6917
20701SOL     OW63265   7.057   4.260   8.608  0.5191 -0.0885  0.0144
20701SOL    HW163266   7.007   4.220   8.678  0.2467  1.0720  0.5018
20701SOL    HW263267   6.995   4.267   8.535  0.3873  0.0295  0.1376
20702SOL     OW63268   1.961   2.064   0.903  0.1881 -0.3464  0.0974
20702SOL    HW163269   2.046   2.094   0.871  1.3024 -1.5049  1.8525
20702SOL    HW263270   1.981   1.992   0.962 -2.0146 -0.5446  0.6816
20703SOL     OW63271   2.842   4.105   6.400 -0.0563  0.1479 -0.0094
20703SOL    HW163272   2.917   4.056   6.434 -1.2975 -1.1556  1.0077
20703SOL    HW263273   2.857   4.109   6.305  0.1723 -2.1679 -0.1354
20704SOL     OW63274   6.538   2.354   7.339 -0.2175  0.3134 -0.3628
20704SOL    HW163275   6.550   2.448   7.322  0.3107  0.1248 -1.1317
20704SOL    HW263276   6.560   2.343   7.431 -0.8951  1.0387 -0.1019
20705SOL     OW63277   0.707   7.689   4.526  0.0355 -0.1151  0.1086
20705SOL    HW163278   0.642   7.676   4.595  0.3133  0.6959  0.5320
20705SOL    HW263279   0.664   7.748   4.464  0.0261 -0.3274 -0.0886
20706SOL     OW63280   5.052   1.895   4.641  0.0802  0.0849  0.3501
20706SOL    HW163281   5.142   1.927   4.647  0.8668 -2.1053  1.3186
20706SOL    HW263282   5.049   1.821   4.701 -2.1807 -0.3755 -0.2353
20707SOL     OW63283   7.817   7.201   0.406 -0.8243  0.0228 -0.1006
20707SOL    HW163284   7.879   7.129   0.419 -1.9071 -0.9671 -0.2667
20707SOL    HW263285   7.733   7.158   0.394 -1.3919  1.2952 -0.8837
20708SOL     OW63286   1.680   3.118   4.755  0.5236 -0.4605 -0.5042
20708SOL    HW163287   1.724   3.198   4.728 -0.4693  0.3131  0.1035
20708SOL    HW263288   1.615   3.102   4.686 -0.2738  0.0919  0.1006
20709SOL     OW63289   1.953   5.649   2.549 -0.4378  0.4282 -0.2618
20709SOL    HW163290   1.971   5.562   2.585  0.2015  0.4647 -0.4808
20709SOL    HW263291   1.960   5.637   2.454  1.0798  1.0162 -0.2417
20710SOL     OW63292   5.959   7.455   7.104 -0.3636  0.1955  0.1857
20710SOL    HW163293   5.936   7.394   7.174  0.4450 -3.0552 -2.0955
20710SOL    HW263294   5.876   7.491   7.075 -1.0312 -0.6794  0.9411
20711SOL     OW63295   5.358   4.548   0.026  0.5383 -0.3812 -0.0742
20711SOL    HW163296   5.341   4.626   0.078 -0.6416 -0.1812 -0.7260
20711SOL    HW263297   5.297   4.554  -0.048 -1.4903 -3.1717  1.1735
20712SOL     OW63298   4.845   0.533   3.004 -0.4532  0.0991 -0.3136
20712SOL    HW163299   4.936   0.515   3.028  0.0047  0.3796 -1.7678
20712SOL    HW263300   4.825   0.467   2.937  0.3680  3.0422 -3.7444
20713SOL     OW63301   1.606   6.386   4.055 -0.4306 -0.0934 -0.4103
20713SOL    HW163302   1.650   6.351   3.977 -0.6669 -0.3656 -0.4218
20713SOL    HW263303   1.656   6.465   4.076  1.1272 -1.2905  0.5989
20714SOL     OW63304   4.515   0.279   4.544  0.6331  0.4540  0.1725
20714SOL    HW163305   4.534   0.287   4.450 -2.0588  0.9838 -0.4215
20714SOL    HW263306   4.552   0.359   4.582 -0.5589  1.6013 -0.9366
20715SOL     OW63307   8.652   5.760   0.665 -0.0007  0.2969 -0.6098
20715SOL    HW163308   8.716   5.826   0.690  2.5293 -1.8634 -1.0311
20715SOL    HW263309   8.637   5.710   0.745 -0.8644  0.5065 -0.6282
20716SOL     OW63310   3.265   4.604   8.062  0.1560 -0.4174  0.3791
20716SOL    HW163311   3.319   4.676   8.032 -1.6955  0.6751 -0.5055
20716SOL    HW263312   3.328   4.539   8.094  1.8848  1.5400  1.2156
20717SOL     OW63313   8.648   6.789   6.702 -0.5739 -0.7223 -0.8122
20717SOL    HW163314   8.672   6.741   6.782  0.5196  0.0395 -0.6545
20717SOL    HW263315   8.728   6.790   6.650 -0.5746  0.8781 -0.8262
20718SOL     OW63316   2.375   4.066   5.629 -0.0332 -0.1117  0.1163
20718SOL    HW163317   2.413   4.025   5.552  1.0631 -1.8382  1.4890
20718SOL    HW263318   2.297   4.111   5.597  1.6547  1.2401 -2.3482
20719SOL     OW63319   6.638   6.732   4.848  0.1463  0.2343 -0.2206
20719SOL    HW163320   6.662   6.677   4.923 -1.3041  1.3813  1.1812
20719SOL    HW263321   6.589   6.674   4.790  2.2273 -0.9519 -0.8837
20720SOL     OW63322   4.250   8.049   6.918  0.2975  0.0743 -0.2189
20720SOL    HW163323   4.276   7.957   6.928  2.1424  0.5500 -0.1160
20720SOL    HW263324   4.167   8.046   6.871 -0.7069 -1.7028  1.5378
20721SOL     OW63325   7.156   7.547   4.076 -0.3185  0.2019  0.1154
20721SOL    HW163326   7.086   7.609   4.054 -0.7329 -0.1924  0.2882
20721SOL    HW263327   7.121   7.462   4.048  0.7299  0.1743 -1.2581
20722SOL     OW63328   5.614   4.963   3.713  0.2182  0.0729 -0.4603
20722SOL    HW163329   5.629   4.868   3.719 -1.6833 -0.1575  1.4139
20722SOL    HW263330   5.699   4.998   3.687  1.5563 -1.9566  0.8697
20723SOL     OW63331   6.971   0.657   8.799 -0.0592 -0.3234  0.0548
20723SOL    HW163332   7.000   0.666   8.709  0.1786  0.7931  0.2321
20723SOL    HW263333   7.038   0.602   8.840 -0.2445 -0.9561 -0.4679
20724SOL     OW63334   3.291   3.533   1.342 -0.7743  0.1396  0.2496
20724SOL    HW163335   3.204   3.567   1.321 -0.6773  0.3518  0.1917
20724SOL    HW263336   3.343   3.610   1.362 -0.5282  0.0316  0.0237
20725SOL     OW63337   3.989   3.170   6.400 -0.0055 -0.0989  0.0957
20725SOL    HW163338   4.004   3.100   6.463  0.3551 -0.6241 -0.5564
20725SOL    HW263339   3.938   3.235   6.448  0.9097 -0.1313  1.1534
20726SOL     OW63340   1.942   7.305   2.837  0.2783 -0.3466  0.5786
20726SOL    HW163341   1.862   7.352   2.860 -0.3874 -1.3533  0.3525
20726SOL    HW263342   1.950   7.317   2.742 -1.1832 -2.5896  0.1023
20727SOL     OW63343   4.267   2.306   1.788  0.0652 -0.0906  0.0371
20727SOL    HW163344   4.358   2.289   1.814 -0.6853 -1.9689  1.7517
20727SOL    HW263345   4.223   2.222   1.803 -2.5538  1.5407  2.1549
20728SOL     OW63346   5.505   0.939   1.775  0.5264 -0.5269  0.3957
20728SOL    HW163347   5.562   0.889   1.834  0.6548 -0.8084  0.0360
20728SOL    HW263348   5.565   0.982   1.714  0.5594  1.4644  1.7166
20729SOL     OW63349   3.914   7.427   2.748 -0.3848  0.0937 -0.2417
20729SOL    HW163350   3.880   7.359   2.689  1.0557 -2.5726  1.7793
20729SOL    HW263351   3.995   7.456   2.706 -0.7771  0.2441 -0.9092
20730SOL     OW63352   3.059   2.877   8.476  0.5255  0.2598 -0.0011
20730SOL    HW163353   3.103   2.854   8.395  1.0335 -1.2196  0.6676
20730SOL    HW263354   2.970   2.901   8.449  1.1999  1.5759 -1.1631
20731SOL     OW63355   5.898   8.160   0.731  0.2367 -0.1915  0.0964
20731SOL    HW163356   5.876   8.102   0.658  0.5369 -1.6416  1.1355
20731SOL    HW263357   5.994   8.159   0.734  0.3696  1.9388 -1.0821
20732SOL     OW63358   5.273   3.456   5.749 -0.2038  0.7029 -0.1480
20732SOL    HW163359   5.323   3.535   5.768 -0.3251  0.5428  0.8999
20732SOL    HW263360   5.246   3.466   5.658  0.7784  1.3138 -0.3915
20733SOL     OW63361   7.999   5.907   5.324 -0.0697 -0.7870  0.6582
20733SOL    HW163362   8.051   5.981   5.294  0.2241 -0.6648  1.4549
20733SOL    HW263363   8.040   5.880   5.406 -0.2475 -1.7540  0.4420
20734SOL     OW63364   6.577   1.642   1.476 -0.6559  0.2358 -0.1337
20734SOL    HW163365   6.552   1.720   1.427 -1.1286 -0.1757 -0.5532
20734SOL    HW263366   6.537   1.653   1.562 -3.1398 -0.8537 -1.0785
20735SOL     OW63367   7.411   4.661   1.330  0.8827 -0.2417 -0.0843
20735SOL    HW163368   7.442   4.599   1.396 -1.4276 -0.5309  0.8132
20735SOL    HW263369   7.346   4.715   1.376 -0.0706  0.2211 -1.8665
20736SOL     OW63370   1.915   6.863   5.492  0.0456  0.0254 -0.0331
20736SOL    HW163371   2.002   6.824   5.481 -0.3261 -0.8567  0.0723
20736SOL    HW263372   1.907   6.924   5.418  0.6626 -0.0537 -0.1704
20737SOL     OW63373   4.094   0.763   5.552 -0.6281  0.5600  0.0285
20737SOL    HW163374   4.183   0.751   5.519 -1.4419 -1.6309 -1.5595
20737SOL    HW263375   4.055   0.828   5.494 -0.4052  0.7203  0.0566
20738SOL     OW63376   5.853   3.102   7.150  0.2199  0.0185 -0.2462
20738SOL    HW163377   5.791   3.104   7.077  1.1886 -1.4110 -1.1726
20738SOL    HW263378   5.859   3.193   7.178 -0.3541  0.5911 -1.8278
20739SOL     OW63379   1.812   0.688   5.426  0.0224  0.4033  0.1264
20739SOL    HW163380   1.821   0.780   5.403  0.0147  0.5311  0.6157
20739SOL    HW263381   1.891   0.668   5.476  0.7202 -0.2489 -1.2082
20740SOL     OW63382   3.109   6.609   6.858  0.2329  0.0675 -0.2030
20740SOL    HW163383   3.043   6.549   6.822  2.4413 -1.2556 -2.3765
20740SOL    HW263384   3.191   6.560   6.852  1.7013  2.2481  0.8463
20741SOL     OW63385   2.460   6.483   5.995 -0.3874  0.0926 -0.0164
20741SOL    HW163386   2.462   6.391   6.019  1.0468  0.8420  3.3428
20741SOL    HW263387   2.549   6.503   5.967 -0.8335  0.3936 -1.3188
20742SOL     OW63388   3.105   5.589   3.244  0.0040 -0.4963  0.1017
20742SOL    HW163389   3.167   5.655   3.273 -0.2923  0.2021 -0.8085
20742SOL    HW263390   3.131   5.509   3.290  2.0258 -0.4014 -0.7999
20743SOL     OW63391   0.511   7.513   6.306  0.3384 -0.1563 -0.2345
20743SOL    HW163392   0.538   7.587   6.251 -0.4907 -0.7928 -1.5666
20743SOL    HW263393   0.491   7.551   6.391 -0.7725  1.2833 -1.0992
20744SOL     OW63394   7.047   8.553   4.519  0.3755 -0.7463 -0.4234
20744SOL    HW163395   7.103   8.494   4.468 -0.5802 -0.5148 -1.8096
20744SOL    HW263396   7.108   8.611   4.563  1.2647 -0.6761 -1.6807
20745SOL     OW63397   7.482   4.401   7.961 -0.1333 -0.1917  0.1521
20745SOL    HW163398   7.537   4.366   8.032 -0.9934 -1.2446  0.3306
20745SOL    HW263399   7.393   4.371   7.983 -0.6793  0.8876 -0.4930
20746SOL     OW63400   2.421   7.590   5.079 -0.3936  0.5211  0.1905
20746SOL    HW163401   2.431   7.565   4.987 -1.1539  0.0888  0.2123
20746SOL    HW263402   2.484   7.661   5.092  0.0176  0.3067 -0.5517
20747SOL     OW63403   3.426   4.920   8.491  0.6574  0.5404 -0.5045
20747SOL    HW163404   3.470   4.835   8.497  3.1192  1.7752  0.2153
20747SOL    HW263405   3.428   4.941   8.398  0.0144 -0.1667 -0.6903
20748SOL     OW63406   4.888   0.404   8.493 -0.2750 -0.0413 -0.4847
20748SOL    HW163407   4.971   0.362   8.471  0.1508 -0.1627  1.2062
20748SOL    HW263408   4.909   0.498   8.496 -0.2641 -0.0483 -0.3346
20749SOL     OW63409   4.859   4.826   4.329  0.7323 -0.3714  0.1969
20749SOL    HW163410   4.882   4.896   4.268 -0.2342  0.1386  0.3965
20749SOL    HW263411   4.853   4.869   4.414  0.9658 -0.8609  0.4671
20750SOL     OW63412   5.181   7.575   1.219  0.1760 -0.0945 -0.8015
20750SOL    HW163413   5.097   7.568   1.175 -0.1834 -0.8668 -0.0363
20750SOL    HW263414   5.244   7.537   1.158 -0.1193 -0.0464 -1.1378
20751SOL     OW63415   1.912   4.545   3.452 -0.2394  0.3851  0.2139
20751SOL    HW163416   1.999   4.569   3.484 -0.1243  0.3637 -0.0782
20751SOL    HW263417   1.855   4.616   3.482 -0.0604  0.5724  0.1190
20752SOL     OW63418   2.481   2.116   6.663  0.0121 -0.3674  0.7008
20752SOL    HW163419   2.412   2.054   6.687  0.2892 -0.7744  0.4467
20752SOL    HW263420   2.480   2.118   6.568  1.4398 -1.6327  0.6245
20753SOL     OW63421   1.419   5.750   1.115 -0.0467 -0.5403 -0.1949
20753SOL    HW163422   1.335   5.742   1.160  0.2629 -1.2792  0.2879
20753SOL    HW263423   1.398   5.784   1.028 -0.7753 -0.1379  0.1342
20754SOL     OW63424   7.656   1.391   3.096 -0.1073  0.1015 -0.6731
20754SOL    HW163425   7.723   1.430   3.040 -0.7287  2.0636 -0.1510
20754SOL    HW263426   7.574   1.429   3.065 -0.7015 -0.4544  0.1781
20755SOL     OW63427   6.280   1.122   6.151 -1.0098  0.1685 -0.4827
20755SOL    HW163428   6.370   1.098   6.129 -0.7012 -0.1943  1.0897
20755SOL    HW263429   6.246   1.161   6.070  0.3320 -0.2884 -1.3135
20756SOL     OW63430   0.269   7.625   2.413 -0.0302  0.2399  0.5236
20756SOL    HW163431   0.363   7.629   2.398 -0.0871  2.0866  0.3881
20756SOL    HW263432   0.259   7.583   2.498  1.2256  3.5767  2.5403
20757SOL     OW63433   5.684   2.599   1.206 -0.1083 -0.4671 -0.1848
20757SOL    HW163434   5.657   2.683   1.170  1.8424  0.9255  1.3255
20757SOL    HW263435   5.764   2.577   1.158  0.7602 -0.1508  1.0377
20758SOL     OW63436   0.158   3.647   7.224 -0.6270  0.1856  0.0069
20758SOL    HW163437   0.225   3.588   7.257 -0.7024  0.9708  1.6556
20758SOL    HW263438   0.174   3.652   7.130  1.1232 -0.2558  0.2519
20759SOL     OW63439   2.885   6.997   0.420  0.2479 -0.1528 -0.1030
20759SOL    HW163440   2.826   6.925   0.399  0.6218 -0.6018  0.3602
20759SOL    HW263441   2.944   6.961   0.487  1.0987  0.2609 -0.6123
20760SOL     OW63442   4.841   0.976   2.617 -0.1517  0.1294 -0.3810
20760SOL    HW163443   4.791   1.040   2.668 -1.2012 -0.6231 -0.4362
20760SOL    HW263444   4.876   0.915   2.682  3.2465  2.2557 -0.0050
20761SOL     OW63445   8.841   5.546   6.274 -0.5114  0.6821  0.1304
20761SOL    HW163446   8.824   5.503   6.357  1.6143  3.5340  2.2495
20761SOL    HW263447   8.926   5.512   6.246 -0.7785  0.4290 -0.3842
20762SOL     OW63448   8.067   3.176   7.637  0.2950  0.2708  0.2357
20762SOL    HW163449   7.983   3.203   7.673  0.5076  0.6155  0.4741
20762SOL    HW263450   8.077   3.229   7.558  0.2408  0.1522  0.1486
20763SOL     OW63451   4.457   4.769   0.366 -0.3244 -0.0493  0.2369
20763SOL    HW163452   4.424   4.817   0.442 -2.0801  0.6888 -0.9228
20763SOL    HW263453   4.493   4.836   0.308  1.5099 -0.6568  0.5928
20764SOL     OW63454   8.429   3.677   5.099 -0.2676 -0.0509  0.0305
20764SOL    HW163455   8.468   3.720   5.023 -2.4952  1.0257 -0.5849
20764SOL    HW263456   8.348   3.637   5.065 -1.5942  0.8949  1.8828
20765SOL     OW63457   5.015   5.121   8.384 -0.2519 -0.3819  0.6003
20765SOL    HW163458   5.054   5.189   8.439 -0.0190 -1.0648  1.3059
20765SOL    HW263459   5.082   5.102   8.318 -0.3794  0.1772  0.3070
20766SOL     OW63460   3.871   2.634   8.147  0.1036 -0.0120 -0.1021
20766SOL    HW163461   3.845   2.623   8.055 -1.2930  3.0459 -0.1878
20766SOL    HW263462   3.803   2.588   8.196  0.3739 -0.9194 -0.5489
20767SOL     OW63463   1.864   0.604   6.944 -0.0648  0.0575 -0.3012
20767SOL    HW163464   1.859   0.698   6.928  0.5331  0.2934  0.7876
20767SOL    HW263465   1.957   0.583   6.939 -0.1941 -0.4955 -0.5725
20768SOL     OW63466   4.680   6.116   4.688  0.5454  0.3130  0.2398
20768SOL    HW163467   4.627   6.086   4.614 -0.9535  1.0563  0.9616
20768SOL    HW263468   4.638   6.077   4.765  1.1180  0.8364  0.8300
20769SOL     OW63469   3.470   8.765   4.622  0.6249 -0.1204  0.1680
20769SOL    HW163470   3.404   8.707   4.583 -1.0835  2.0156 -0.3021
20769SOL    HW263471   3.539   8.771   4.556  0.1437 -0.4968 -0.3837
20770SOL     OW63472   3.154   8.449   3.307 -0.1145  0.1439  0.6654
20770SOL    HW163473   3.141   8.489   3.221  1.2981  0.1414  0.4146
20770SOL    HW263474   3.247   8.425   3.308 -0.0763  0.2311  2.2348
20771SOL     OW63475   3.562   2.823   2.739 -0.0320  0.3343 -0.3373
20771SOL    HW163476   3.647   2.847   2.775 -0.8722  1.4121  1.0068
20771SOL    HW263477   3.529   2.903   2.700 -2.0113  1.0003  2.4480
20772SOL     OW63478   0.518   7.687   5.318 -0.4292 -0.2580 -0.7260
20772SOL    HW163479   0.483   7.755   5.260  1.3694  1.1445 -0.2590
20772SOL    HW263480   0.593   7.728   5.360  0.1245 -2.2423  0.3321
20773SOL     OW63481   4.022   3.304   1.529  0.1320  0.0783  0.0961
20773SOL    HW163482   4.068   3.242   1.473  0.1290 -0.1848  0.3787
20773SOL    HW263483   3.945   3.256   1.559 -0.0307  0.3253  0.0717
20774SOL     OW63484   1.235   8.314   8.056 -0.0578  0.9826  0.0081
20774SOL    HW163485   1.261   8.349   7.970  1.1600  1.8929  0.7060
20774SOL    HW263486   1.184   8.385   8.096  0.2333  0.9631  0.4218
20775SOL     OW63487   0.780   1.035   3.197 -0.0624  0.6285 -0.3500
20775SOL    HW163488   0.785   1.018   3.291 -0.4004 -1.0601 -0.6007
20775SOL    HW263489   0.687   1.047   3.179 -0.2996 -1.3350 -0.7620
20776SOL     OW63490   3.493   7.269   2.586 -0.1126 -0.2412 -0.6320
20776SOL    HW163491   3.429   7.283   2.516 -0.2445 -0.2055 -0.5033
20776SOL    HW263492   3.577   7.259   2.539  0.0286  1.1534 -0.7372
20777SOL     OW63493   8.448   2.351   2.791 -0.6411  0.2406  0.4228
20777SOL    HW163494   8.514   2.286   2.817  0.0371  0.7179 -0.0472
20777SOL    HW263495   8.404   2.374   2.873 -1.9514 -1.8930  0.4010
20778SOL     OW63496   7.089   4.442   3.752 -0.0110 -0.0138  0.0527
20778SOL    HW163497   7.092   4.467   3.660 -0.0926 -0.2258 -0.0091
20778SOL    HW263498   7.022   4.374   3.756 -0.3391  0.3222  0.3474
20779SOL     OW63499   1.347   2.661   2.974 -0.1241 -0.7127 -0.7516
20779SOL    HW163500   1.424   2.693   3.020 -0.9422  1.8375 -0.9898
20779SOL    HW263501   1.381   2.597   2.912  1.5015 -1.2080  0.5831
20780SOL     OW63502   5.214   7.376   6.011  0.1448  0.0578 -0.4552
20780SOL    HW163503   5.170   7.394   5.928  1.0106 -1.4582 -1.2919
20780SOL    HW263504   5.295   7.428   6.006 -0.3338  0.8750 -0.0183
20781SOL     OW63505   5.061   6.868   6.073  0.8162 -0.4738 -0.2544
20781SOL    HW163506   5.049   6.963   6.073  1.2486 -0.3998 -1.6859
20781SOL    HW263507   5.062   6.844   6.165  1.2901  0.9885  0.1429
20782SOL     OW63508   2.533   5.402   2.942 -0.4471 -0.2849 -0.0978
20782SOL    HW163509   2.463   5.460   2.973  0.5693  0.7487  0.3346
20782SOL    HW263510   2.604   5.462   2.918 -0.1685 -1.2341 -1.7574
20783SOL     OW63511   6.405   1.942   6.123  0.5722 -0.9037  0.1533
20783SOL    HW163512   6.397   1.995   6.203  2.1653 -0.1000 -0.1786
20783SOL    HW263513   6.493   1.904   6.128  1.4104  0.5171 -1.9516
20784SOL     OW63514   8.066   2.103   0.597 -0.5654 -0.1496 -0.1521
20784SOL    HW163515   8.098   2.168   0.535 -2.2116  1.5244  0.6562
20784SOL    HW263516   7.974   2.092   0.575 -1.5548  1.4471  2.6776
20785SOL     OW63517   4.361   4.152   5.189  0.5092  0.4080  0.2339
20785SOL    HW163518   4.273   4.123   5.211  0.8831 -2.4497 -1.4711
20785SOL    HW263519   4.415   4.124   5.263  0.5054 -1.4930 -0.4196
20786SOL     OW63520   3.224   2.444   2.929 -0.3681  0.3681 -0.5830
20786SOL    HW163521   3.260   2.366   2.888  0.0127 -1.1943  2.4668
20786SOL    HW263522   3.301   2.495   2.956 -0.4212 -0.6520  1.7136
20787SOL     OW63523   4.426   6.670   8.440  0.2089 -0.6839  0.3625
20787SOL    HW163524   4.472   6.603   8.389  1.4779  1.7572 -1.9130
20787SOL    HW263525   4.337   6.668   8.407  0.4680 -0.6583 -0.3547
20788SOL     OW63526   4.651   1.307   0.842  0.0746  0.0975  0.3079
20788SOL    HW163527   4.674   1.220   0.810  0.2263 -0.3466  1.5829
20788SOL    HW263528   4.698   1.315   0.925  0.4687  1.6052 -0.0400
20789SOL     OW63529   7.838   2.019   7.854 -0.4459  0.6223  0.4449
20789SOL    HW163530   7.902   1.950   7.837 -0.7442  0.3288  0.4957
20789SOL    HW263531   7.826   2.062   7.769 -1.1861 -0.1982  0.1023
20790SOL     OW63532   7.920   1.376   0.496  0.3437  0.0167 -0.3737
20790SOL    HW163533   7.995   1.349   0.548 -0.4331  0.9726  1.3080
20790SOL    HW263534   7.956   1.389   0.408  1.7900 -1.1350  0.0033
20791SOL     OW63535   0.230   7.082   6.257  0.3453 -0.0747  0.2208
20791SOL    HW163536   0.216   7.159   6.203  0.8460  1.4088  2.1021
20791SOL    HW263537   0.314   7.046   6.228  0.5779  0.6679 -0.0275
20792SOL     OW63538   6.689   7.930   4.381  0.2602 -0.0635  0.3656
20792SOL    HW163539   6.621   7.998   4.381 -1.1284 -1.4043  0.0636
20792SOL    HW263540   6.646   7.853   4.419  1.9182 -0.6799  1.1056
20793SOL     OW63541   7.273   3.629   5.724 -0.9665  0.1370  0.5338
20793SOL    HW163542   7.193   3.681   5.715 -2.8796 -2.2864  2.0840
20793SOL    HW263543   7.242   3.543   5.753  1.9033 -2.0995 -2.3101
20794SOL     OW63544   4.000   0.868   4.363  0.6606  0.0067 -0.4013
20794SOL    HW163545   4.010   0.880   4.268  3.2811 -2.7880 -0.6382
20794SOL    HW263546   4.061   0.931   4.401  1.7560 -0.7943 -0.7736
20795SOL     OW63547   7.535   0.087   3.130 -0.7692  0.0232 -0.0210
20795SOL    HW163548   7.527   0.106   3.224  0.1088  1.7887 -0.2613
20795SOL    HW263549   7.500  -0.001   3.121 -1.9600  0.2364  1.7895
20796SOL     OW63550   7.000   2.624   8.254  0.0620 -0.4580 -0.7367
20796SOL    HW163551   6.918   2.671   8.269  0.6488  0.0314  1.0831
20796SOL    HW263552   6.979   2.533   8.273 -0.0799 -0.3537 -0.3956
20797SOL     OW63553   4.657   2.516   6.079  0.2816 -0.0825  0.2015
20797SOL    HW163554   4.630   2.511   6.171 -1.2531 -0.8781 -0.2480
20797SOL    HW263555   4.575   2.527   6.031  1.0926  0.6685 -1.0628
20798SOL     OW63556   8.762   3.657   0.479 -0.1176 -0.0731 -0.4319
20798SOL    HW163557   8.760   3.569   0.515  2.3704  0.0190  0.0702
20798SOL    HW263558   8.670   3.676   0.457 -0.6764 -2.8985 -0.9143
20799SOL     OW63559   1.597   5.725   2.212  0.6070  0.6330  0.1593
20799SOL    HW163560   1.670   5.782   2.236  0.5975  0.7169 -0.0098
20799SOL    HW263561   1.538   5.729   2.287 -0.4926  2.6272 -0.7269
20800SOL     OW63562   1.186   4.605   2.971  0.3524  0.3081 -0.0199
20800SOL    HW163563   1.155   4.693   2.992  0.4493  0.3892 -0.2089
20800SOL    HW263564   1.107   4.551   2.968  0.3878  0.1761  1.0909
20801SOL     OW63565   2.287   5.563   0.655 -0.2501  0.2815  0.5191
20801SOL    HW163566   2.362   5.588   0.602 -0.7139  1.3332  0.3254
20801SOL    HW263567   2.269   5.640   0.709 -0.2456 -0.5010  1.6794
20802SOL     OW63568   6.327   7.986   1.785  0.0864  0.4421  0.1769
20802SOL    HW163569   6.345   7.912   1.843 -0.2140  0.7882  0.7253
20802SOL    HW263570   6.340   7.952   1.697  1.7918  0.2219  0.4770
20803SOL     OW63571   5.094   2.792   4.509  0.3319  0.5143 -0.7341
20803SOL    HW163572   5.078   2.886   4.511  0.0054  0.4454  0.1668
20803SOL    HW263573   5.041   2.757   4.580  1.1947 -0.2375 -0.4436
20804SOL     OW63574   5.894   4.361   6.122  0.5171  0.5579  0.1057
20804SOL    HW163575   5.948   4.424   6.074  0.2627  0.0353 -0.9068
20804SOL    HW263576   5.944   4.342   6.202  0.1606  2.6989  0.8839
20805SOL     OW63577   2.883   0.942   4.470 -0.4151  0.3030  0.0538
20805SOL    HW163578   2.890   0.854   4.432 -2.2325  1.2134 -2.6500
20805SOL    HW263579   2.829   0.929   4.548  0.5213 -1.1426  0.5096
20806SOL     OW63580   4.899   4.510   5.290 -0.2612 -0.0971  0.5815
20806SOL    HW163581   4.907   4.545   5.378  0.7990  1.4837 -0.0845
20806SOL    HW263582   4.978   4.542   5.245 -0.3400 -1.5930 -0.6978
20807SOL     OW63583   0.044   2.061   7.517 -0.3021 -0.0312  0.9789
20807SOL    HW163584   0.065   2.148   7.550 -0.8837  0.5745 -0.1962
20807SOL    HW263585   0.058   2.067   7.423 -2.3101 -0.5985  0.5929
20808SOL     OW63586   5.601   0.640   1.894  0.2585  0.0766 -0.5456
20808SOL    HW163587   5.560   0.627   1.809 -0.5845 -3.2171  0.2246
20808SOL    HW263588   5.528   0.647   1.955  0.7307 -1.9785  0.3578
20809SOL     OW63589   2.295   4.699   0.156 -0.3872 -0.3955  0.2079
20809SOL    HW163590   2.326   4.721   0.067  0.8100 -1.1740  0.4072
20809SOL    HW263591   2.227   4.763   0.174  0.3898  0.7343 -0.7075
20810SOL     OW63592   4.376   7.182   7.490  0.4623  0.5582 -0.1846
20810SOL    HW163593   4.396   7.275   7.482 -0.1579  0.5925 -1.6025
20810SOL    HW263594   4.282   7.179   7.509  0.3103  0.1989 -0.9736
20811SOL     OW63595   1.711   1.549   2.178  0.3580  0.2437  0.6328
20811SOL    HW163596   1.699   1.547   2.272  1.7711 -0.4341  0.8290
20811SOL    HW263597   1.710   1.642   2.155 -0.1045  0.4060  1.2886
20812SOL     OW63598   2.964   5.289   3.796  0.2265 -0.0770  0.3870
20812SOL    HW163599   2.958   5.326   3.884 -0.8596  2.1154 -0.5350
20812SOL    HW263600   3.016   5.352   3.747 -0.4496 -0.4854 -0.9003
20813SOL     OW63601   2.066   8.187   2.401 -0.4521 -0.1132 -0.2421
20813SOL    HW163602   2.118   8.253   2.354 -0.3695 -0.1375 -0.1871
20813SOL    HW263603   2.113   8.105   2.387 -0.5883 -0.1708 -0.3602
20814SOL     OW63604   5.353   3.877   7.919 -0.1846  0.0848 -0.3302
20814SOL    HW163605   5.339   3.859   8.012 -1.5419  1.0933 -0.3101
20814SOL    HW263606   5.344   3.972   7.912  0.0029  0.0278 -1.4843
20815SOL     OW63607   2.069   3.584   5.842 -0.1655  0.4052 -0.7234
20815SOL    HW163608   2.034   3.636   5.914  0.3820  0.5198 -0.5341
20815SOL    HW263609   2.014   3.607   5.767 -1.6823 -0.8137 -0.0364
20816SOL     OW63610   1.372   7.779   1.498  0.2837 -0.0360  0.1497
20816SOL    HW163611   1.433   7.811   1.564  1.0817 -1.6029  0.2302
20816SOL    HW263612   1.291   7.828   1.514  0.6169  0.0052  1.9500
20817SOL     OW63613   7.176   5.619   3.517 -0.5115  0.0575 -0.0020
20817SOL    HW163614   7.242   5.616   3.586  1.6224 -0.2627 -1.9516
20817SOL    HW263615   7.097   5.652   3.561  1.6703  3.4251  1.8577
20818SOL     OW63616   0.977   2.748   7.429  0.1192 -0.5208  0.0114
20818SOL    HW163617   0.930   2.680   7.477 -1.5595  1.9720  2.1727
20818SOL    HW263618   0.909   2.804   7.392  1.2429  2.2074  1.7319
20819SOL     OW63619   0.693   3.673   6.170  0.2884 -0.1701  0.3697
20819SOL    HW163620   0.768   3.672   6.110  0.1901  0.9209  0.2033
20819SOL    HW263621   0.694   3.587   6.212  1.2098 -0.4247 -0.1523
20820SOL     OW63622   2.049   8.311   5.600  0.2235  0.3888 -0.3135
20820SOL    HW163623   2.058   8.343   5.511 -0.0232  0.0286 -0.4674
20820SOL    HW263624   2.084   8.382   5.655  1.5998  0.0834 -0.7636
20821SOL     OW63625   1.713   8.724   7.885  0.2163  0.6257 -0.0796
20821SOL    HW163626   1.801   8.714   7.923  0.1921 -0.2958 -0.2530
20821SOL    HW263627   1.697   8.819   7.887 -0.8203  0.5681  4.5266
20822SOL     OW63628   7.350   7.949   0.849  0.0065 -0.0983  0.2898
20822SOL    HW163629   7.322   7.861   0.823  0.8733 -0.5502  0.8456
20822SOL    HW263630   7.327   7.954   0.942  0.6450 -0.0270  0.4474
20823SOL     OW63631   0.945   0.953   0.775  0.3427 -0.8087  0.0088
20823SOL    HW163632   0.881   0.998   0.720 -0.4504 -1.6917  0.1779
20823SOL    HW263633   1.017   1.016   0.784 -1.7202  1.4845  2.2634
20824SOL     OW63634   5.263   6.471   2.869 -0.4521  0.2638  0.0086
20824SOL    HW163635   5.347   6.491   2.911 -0.9152  1.0834  0.5712
20824SOL    HW263636   5.285   6.462   2.776  0.3257  0.0495  0.2052
20825SOL     OW63637   3.607   6.426   5.523  0.4642  0.4794  0.1741
20825SOL    HW163638   3.615   6.338   5.560  3.2283  0.3623 -0.4583
20825SOL    HW263639   3.626   6.415   5.430  0.2551  1.6794 -0.0314
20826SOL     OW63640   7.433   5.642   6.220 -0.0937  0.3833 -0.3090
20826SOL    HW163641   7.383   5.560   6.229  1.4214 -0.6490 -0.8146
20826SOL    HW263642   7.370   5.705   6.185 -1.0954 -0.8071 -0.7197
20827SOL     OW63643   0.175   6.544   4.808  0.4292 -0.3242  0.2444
20827SOL    HW163644   0.221   6.492   4.873  0.2913  0.5984  1.0941
20827SOL    HW263645   0.226   6.532   4.728  0.5436 -1.5436  0.4727
20828SOL     OW63646   0.027   3.776   3.256  0.0676  0.1411  0.4263
20828SOL    HW163647   0.010   3.863   3.291 -0.0542  0.6944 -0.9707
20828SOL    HW263648  -0.032   3.719   3.305 -0.7347  1.0188  0.5048
20829SOL     OW63649   4.502   6.179   7.822 -0.2918  0.4148 -0.0498
20829SOL    HW163650   4.461   6.094   7.806  0.2085 -0.0662  1.1071
20829SOL    HW263651   4.514   6.217   7.734 -0.9112 -0.5122 -0.5515
20830SOL     OW63652   6.057   3.633   0.165 -0.0467  0.8036 -0.2553
20830SOL    HW163653   6.046   3.579   0.244 -2.2004  2.0383  0.3536
20830SOL    HW263654   5.972   3.630   0.122 -0.0292  3.1165 -0.5688
20831SOL     OW63655   4.451   4.438   8.429  0.1556 -0.4824 -0.4432
20831SOL    HW163656   4.457   4.398   8.515 -0.3495 -0.1211 -0.2357
20831SOL    HW263657   4.540   4.432   8.393  0.1105 -1.6699 -0.3758
20832SOL     OW63658   6.795   4.721   5.082  0.0726  0.4631  0.2288
20832SOL    HW163659   6.815   4.774   5.159 -0.8941  1.5794 -0.2639
20832SOL    HW263660   6.856   4.752   5.015 -0.5806  1.0741 -0.0983
20833SOL     OW63661   3.001   5.045   0.636 -0.5459 -0.3017  0.3622
20833SOL    HW163662   3.071   4.985   0.608  0.0093  0.9801 -1.1922
20833SOL    HW263663   2.993   5.031   0.730  0.1421 -2.1788  0.1923
20834SOL     OW63664   6.516   5.342   6.541 -0.0611  0.5620 -0.5867
20834SOL    HW163665   6.461   5.401   6.490 -1.4308  0.1616  0.3930
20834SOL    HW263666   6.506   5.257   6.499  0.5373  0.6549 -0.9384
20835SOL     OW63667   0.869   8.365   6.698  0.6754 -0.4775  0.4001
20835SOL    HW163668   0.923   8.404   6.629  0.7923  0.8807  1.2232
20835SOL    HW263669   0.843   8.439   6.753 -1.0885 -1.2599  0.6863
20836SOL     OW63670   4.951   1.606   0.038  0.6068 -0.1259 -0.0632
20836SOL    HW163671   4.964   1.558  -0.044 -1.0347  0.3872 -0.6501
20836SOL    HW263672   4.863   1.643   0.031  1.5147  2.3642  0.6974
20837SOL     OW63673   4.706   3.253   8.419  0.1096 -0.0276 -0.2012
20837SOL    HW163674   4.720   3.178   8.361  0.8887 -0.1705  0.1586
20837SOL    HW263675   4.667   3.320   8.362 -0.9080 -0.7953 -0.4556
20838SOL     OW63676   6.744   8.375   2.339  0.1394  0.3440 -0.5238
20838SOL    HW163677   6.689   8.298   2.351 -0.3317  0.9022  1.1135
20838SOL    HW263678   6.829   8.340   2.313  0.4283 -0.8910  1.8297
20839SOL     OW63679   8.539   1.980   0.503 -0.0748 -0.0276 -0.2165
20839SOL    HW163680   8.585   2.006   0.582  0.2669  0.2527 -0.5016
20839SOL    HW263681   8.459   1.938   0.534  0.9075 -1.6001  0.3246
20840SOL     OW63682   4.986   8.375   0.202 -0.1081 -0.2664  0.2702
20840SOL    HW163683   4.974   8.378   0.107 -0.7491  1.8501  0.3761
20840SOL    HW263684   5.044   8.300   0.216 -1.3219 -1.6412 -1.6276
20841SOL     OW63685   1.225   7.297   6.817  0.3980 -0.2013  0.4592
20841SOL    HW163686   1.236   7.225   6.879 -1.3135 -1.1997 -0.3140
20841SOL    HW263687   1.312   7.337   6.810  1.7492 -2.9863 -0.0018
20842SOL     OW63688   6.924   5.580   8.410  0.2013 -0.0282 -0.1490
20842SOL    HW163689   6.976   5.659   8.395 -1.0355  1.2442  1.6697
20842SOL    HW263690   6.833   5.612   8.411 -0.5954 -1.9721 -2.1115
20843SOL     OW63691   3.352   8.317   2.573  0.1003 -0.0810  0.1028
20843SOL    HW163692   3.285   8.384   2.584  0.2768 -0.2003  2.6775
20843SOL    HW263693   3.308   8.244   2.530 -1.0669  0.3693  0.5166
20844SOL     OW63694   4.960   8.818   7.618 -0.0773  0.2557  0.7328
20844SOL    HW163695   4.989   8.729   7.635 -0.9593  0.1909  2.0456
20844SOL    HW263696   4.990   8.837   7.530  0.5560 -1.1615  0.6263
20845SOL     OW63697   6.238   6.703   7.487 -0.3345 -0.4472 -0.2944
20845SOL    HW163698   6.277   6.617   7.476  1.3661  0.4023 -1.3331
20845SOL    HW263699   6.220   6.733   7.397 -0.3534  0.5109  0.0135
20846SOL     OW63700   5.928   8.264   5.856  0.6326 -0.7913 -0.6370
20846SOL    HW163701   5.870   8.304   5.791  1.8937 -0.4947 -1.6293
20846SOL    HW263702   5.873   8.252   5.934 -0.4746  0.4082 -1.1983
20847SOL     OW63703   0.208   2.465   2.877 -0.7307 -0.2614 -0.2525
20847SOL    HW163704   0.178   2.417   2.954  0.2161  0.2585  0.4732
20847SOL    HW263705   0.135   2.522   2.854  0.1520  2.2512  2.5156
20848SOL     OW63706   3.121   1.898   3.952 -0.0691  0.4282  0.1878
20848SOL    HW163707   3.177   1.930   3.881 -0.5575 -1.6396 -1.2225
20848SOL    HW263708   3.169   1.825   3.989 -0.9013 -0.0511  0.3377
20849SOL     OW63709   0.811   1.862   6.161 -0.1140 -0.2678  0.6805
20849SOL    HW163710   0.844   1.888   6.075 -1.4884 -1.8855 -0.3721
20849SOL    HW263711   0.865   1.912   6.223  1.3664  0.4031 -1.0746
20850SOL     OW63712   6.537   7.585   0.784  0.1187  0.3145 -0.3091
20850SOL    HW163713   6.512   7.668   0.826  0.1968 -0.4842  1.3922
20850SOL    HW263714   6.455   7.550   0.750 -0.3258 -0.0090  1.0366
20851SOL     OW63715   4.642   2.698   0.131  0.1477  0.6672 -0.1723
20851SOL    HW163716   4.631   2.609   0.099  0.9099  1.3461 -2.4782
20851SOL    HW263717   4.702   2.689   0.206 -0.1698 -0.7838 -0.0665
20852SOL     OW63718   2.721   7.905   2.983  0.2752 -0.1743  0.6332
20852SOL    HW163719   2.703   7.998   2.992  0.8635  0.0885 -0.6259
20852SOL    HW263720   2.645   7.862   3.022 -0.6559  0.8522  0.0190
20853SOL     OW63721   0.461   5.746   2.919  0.0641 -0.4652 -0.0665
20853SOL    HW163722   0.464   5.722   3.012 -0.2011 -1.1400 -0.2246
20853SOL    HW263723   0.469   5.841   2.918 -0.6133 -0.3951  0.6840
20854SOL     OW63724   6.470   7.604   8.530 -0.4604  0.2910 -0.1621
20854SOL    HW163725   6.499   7.694   8.518 -0.3311  0.0874 -1.5165
20854SOL    HW263726   6.545   7.551   8.504 -0.1807 -0.2300  1.5798
20855SOL     OW63727   7.449   1.501   6.047 -0.0810  0.0683 -0.5433
20855SOL    HW163728   7.378   1.492   5.983 -0.8716  1.0533  0.1717
20855SOL    HW263729   7.415   1.464   6.127  1.5139 -2.7311 -1.0419
20856SOL     OW63730   0.002   3.253   6.042  0.1679  0.1646  0.9774
20856SOL    HW163731   0.009   3.238   6.136 -1.5383  1.3743  1.3577
20856SOL    HW263732   0.082   3.298   6.018 -0.1864  1.5307  2.2515
20857SOL     OW63733   3.909   2.064   1.096 -0.1061  0.6088  0.4046
20857SOL    HW163734   3.867   1.982   1.122 -2.4599  1.0542 -1.5691
20857SOL    HW263735   3.991   2.038   1.054 -0.9110 -0.7738 -0.3714
20858SOL     OW63736   3.823   8.140   4.199 -0.2316  0.2626  0.3316
20858SOL    HW163737   3.818   8.233   4.221 -1.5826  0.3511 -0.2335
20858SOL    HW263738   3.763   8.130   4.125  0.5079 -0.9147 -0.1238
20859SOL     OW63739   4.067   6.913   1.253 -0.7677  0.1387  0.2055
20859SOL    HW163740   4.073   6.988   1.313  1.8190  0.3691 -0.1986
20859SOL    HW263741   4.028   6.949   1.173 -0.0739  0.9570  0.2141
20860SOL     OW63742   6.726   8.852   2.988 -0.1579 -0.1536 -0.5785
20860SOL    HW163743   6.707   8.818   2.901  0.5816 -1.3635 -0.2916
20860SOL    HW263744   6.716   8.777   3.046  2.9837 -0.3700 -0.1180
20861SOL     OW63745   3.392   3.802   7.447  0.1852  0.6114  0.1006
20861SOL    HW163746   3.317   3.860   7.462  0.0829  0.4450  0.2472
20861SOL    HW263747   3.358   3.714   7.467 -0.5136  0.0774 -2.9528
20862SOL     OW63748   0.850   8.708   6.667  0.1339 -0.3619 -0.7405
20862SOL    HW163749   0.798   8.685   6.590 -1.6503  0.1356  0.2751
20862SOL    HW263750   0.793   8.765   6.719  0.5589 -2.1285  1.8383
20863SOL     OW63751   6.270   0.526   4.568  0.1546  0.0524 -0.4419
20863SOL    HW163752   6.233   0.482   4.645  0.4308 -1.5163 -1.1550
20863SOL    HW263753   6.337   0.465   4.536  1.9955  1.9023 -0.3477
20864SOL     OW63754   1.685   0.860   0.480  0.5296 -0.0681 -0.3447
20864SOL    HW163755   1.697   0.803   0.404  1.6391 -0.8943  0.4046
20864SOL    HW263756   1.626   0.929   0.450  2.2339  0.5910 -2.4766
20865SOL     OW63757   2.916   8.265   8.110  0.2081 -0.2284  0.2743
20865SOL    HW163758   2.998   8.222   8.136  0.1127 -0.5063  0.1158
20865SOL    HW263759   2.928   8.285   8.018 -1.1106 -3.1416 -0.6402
20866SOL     OW63760   4.063   8.575   7.298 -0.3346  0.7366 -0.1882
20866SOL    HW163761   4.134   8.553   7.358 -0.7147 -0.1715 -0.0476
20866SOL    HW263762   4.087   8.660   7.261 -0.0422  1.2665  1.1643
20867SOL     OW63763   3.234   0.682   4.234  0.4268  0.3895 -0.6873
20867SOL    HW163764   3.219   0.588   4.230 -2.4600  0.5643  1.9308
20867SOL    HW263765   3.312   0.692   4.289 -1.6830 -0.6118  2.8201
20868SOL     OW63766   8.398   4.330   3.929 -0.1450 -0.3998  0.1631
20868SOL    HW163767   8.376   4.278   4.006 -1.3788  0.6174  0.5314
20868SOL    HW263768   8.478   4.376   3.953 -1.1481  0.8275  1.3464
20869SOL     OW63769   5.322   0.877   2.308 -0.8033 -0.2073  0.3684
20869SOL    HW163770   5.266   0.800   2.315 -0.1033 -0.6864  0.9865
20869SOL    HW263771   5.392   0.861   2.372 -0.6279  0.9277  0.4850
20870SOL     OW63772   4.017   0.234   3.791 -0.6602  0.5393  0.1523
20870SOL    HW163773   3.922   0.221   3.793 -0.6841  0.7097  0.0635
20870SOL    HW263774   4.052   0.154   3.752 -0.8225  0.8049 -0.5456
20871SOL     OW63775   5.854   2.377   2.696  0.5020 -0.1949 -0.4025
20871SOL    HW163776   5.828   2.301   2.748  1.3012 -0.2267 -0.0256
20871SOL    HW263777   5.927   2.345   2.642  2.2891  0.7753  1.2747
20872SOL     OW63778   5.622   5.751   0.413  0.0787 -0.1636  0.2415
20872SOL    HW163779   5.705   5.792   0.437 -1.1369  2.9672 -0.4648
20872SOL    HW263780   5.636   5.719   0.324  0.2289  1.3741 -0.3073
20873SOL     OW63781   0.137   3.862   7.392  0.0455  0.0104  0.1921
20873SOL    HW163782   0.230   3.881   7.404 -0.0151  0.9213 -0.6560
20873SOL    HW263783   0.135   3.788   7.331  0.2100 -0.0322  0.2395
20874SOL     OW63784   2.786   4.496   0.771 -0.5077  0.4872 -0.0025
20874SOL    HW163785   2.691   4.505   0.768 -0.6408 -0.0706  1.5169
20874SOL    HW263786   2.817   4.579   0.807 -0.3322  0.9495 -1.1676
20875SOL     OW63787   8.666   3.513   7.919  0.2945  0.6064 -0.0800
20875SOL    HW163788   8.703   3.593   7.881 -0.0657  0.6319 -0.3856
20875SOL    HW263789   8.582   3.541   7.956  0.1446  0.3651 -0.2336
20876SOL     OW63790   5.802   0.487   1.739  0.4733 -0.4715  0.6434
20876SOL    HW163791   5.748   0.408   1.737  0.0529 -0.1940  0.9847
20876SOL    HW263792   5.740   0.559   1.751  0.6051  0.1408 -1.7118
20877SOL     OW63793   4.539   5.212   2.839  0.1684  0.1026  0.5074
20877SOL    HW163794   4.455   5.172   2.816  0.5794 -0.9538  0.8283
20877SOL    HW263795   4.582   5.148   2.895  0.9540  0.8809  0.8090
20878SOL     OW63796   2.697   8.137   7.850  0.0845  0.1391  0.4126
20878SOL    HW163797   2.781   8.104   7.882  0.8632  0.2902 -1.3376
20878SOL    HW263798   2.697   8.230   7.873  0.5619  0.2103  0.1473
20879SOL     OW63799   3.320   2.529   3.988 -0.0948  0.2592 -0.1272
20879SOL    HW163800   3.275   2.563   4.065 -1.5955 -0.5025 -0.6330
20879SOL    HW263801   3.252   2.483   3.939  1.2900 -1.0994 -0.8416
20880SOL     OW63802   3.763   5.636   7.598 -0.6743 -0.6038 -0.3986
20880SOL    HW163803   3.790   5.585   7.675 -1.7106 -0.9090 -0.2222
20880SOL    HW263804   3.788   5.726   7.619 -0.9680 -0.6827  0.3089
20881SOL     OW63805   4.095   2.397   4.377 -0.4461 -0.1807  0.1200
20881SOL    HW163806   4.070   2.446   4.456  1.9620  0.3437  0.6346
20881SOL    HW263807   4.059   2.309   4.392 -1.3226  0.3042  1.0788
20882SOL     OW63808   3.319   6.497   2.506  0.3791 -0.2405 -0.0649
20882SOL    HW163809   3.277   6.581   2.524  2.7734  1.2015 -0.8279
20882SOL    HW263810   3.309   6.484   2.412  0.1324 -0.7583  0.0280
20883SOL     OW63811   0.589   3.350   2.735  0.1086  0.4395  0.2098
20883SOL    HW163812   0.596   3.325   2.827  0.8737  0.2068  0.0971
20883SOL    HW263813   0.658   3.415   2.722  1.4929 -1.1194 -0.6941
20884SOL     OW63814   8.057   2.490   6.245 -0.8178  0.2883 -0.1830
20884SOL    HW163815   8.078   2.404   6.209 -0.2577  0.0420  0.6851
20884SOL    HW263816   8.136   2.515   6.294 -0.9504  1.3232 -0.4709
20885SOL     OW63817   2.687   3.982   7.872 -0.2404 -0.1358 -0.5455
20885SOL    HW163818   2.716   4.067   7.838 -0.5713  0.2148  0.0331
20885SOL    HW263819   2.600   4.000   7.908  0.5166 -0.2485  1.4660
20886SOL     OW63820   1.139   1.174   0.798 -0.1447 -0.3891  0.5551
20886SOL    HW163821   1.072   1.240   0.813 -0.5698 -0.4967 -0.7486
20886SOL    HW263822   1.221   1.216   0.823 -0.4132  0.6179 -0.2219
20887SOL     OW63823   5.608   3.556   2.553  0.2653 -0.8229 -0.5057
20887SOL    HW163824   5.655   3.593   2.628  1.4794 -0.2491 -1.5153
20887SOL    HW263825   5.659   3.480   2.528  0.6756 -0.2108 -1.5955
20888SOL     OW63826   7.380   7.018   3.278  0.0031 -0.1876  0.4873
20888SOL    HW163827   7.346   7.108   3.280  1.8596  0.6089 -0.5895
20888SOL    HW263828   7.437   7.012   3.354  0.9139  0.0348 -0.1529
20889SOL     OW63829   7.568   8.079   7.363 -0.0213 -0.1142  0.1750
20889SOL    HW163830   7.663   8.072   7.359  0.0361  0.7359 -0.0387
20889SOL    HW263831   7.546   8.064   7.455  0.4205  0.8948  0.4507
20890SOL     OW63832   8.321   1.254   3.261  0.1345  0.4340  0.2053
20890SOL    HW163833   8.271   1.266   3.180  0.1648  0.6922  0.2235
20890SOL    HW263834   8.282   1.317   3.322 -0.3765 -0.2658  0.6228
20891SOL     OW63835   5.219   7.301   1.435 -0.2904 -0.3830 -0.3516
20891SOL    HW163836   5.181   7.307   1.348 -0.1359  3.0639 -0.2818
20891SOL    HW263837   5.146   7.318   1.495  0.1292 -0.0187  0.0652
20892SOL     OW63838   2.083   0.815   0.723  0.0986 -0.0850  0.1592
20892SOL    HW163839   2.150   0.882   0.733  0.2662 -0.0189 -1.2109
20892SOL    HW263840   2.109   0.746   0.785  0.5289  0.6277  0.7895
20893SOL     OW63841   1.759   1.553   2.479 -0.3946  0.3811 -0.1354
20893SOL    HW163842   1.671   1.520   2.495 -0.2622 -0.4705 -1.0642
20893SOL    HW263843   1.771   1.622   2.544 -0.8648 -1.0520  1.5450
20894SOL     OW63844   2.851   4.807   6.417 -0.0628 -0.0330 -0.5242
20894SOL    HW163845   2.909   4.814   6.492  0.7824 -1.4816 -1.0016
20894SOL    HW263846   2.910   4.809   6.341 -0.8327  0.6577 -1.1270
20895SOL     OW63847   7.726   1.801   0.884 -0.7065  0.6890 -0.3701
20895SOL    HW163848   7.729   1.782   0.791 -1.0083 -0.4940 -0.1517
20895SOL    HW263849   7.637   1.831   0.901 -0.6918  0.7691 -0.4351
20896SOL     OW63850   7.335   2.886   2.081  0.3176  0.3215  0.1314
20896SOL    HW163851   7.395   2.932   2.022 -0.1570  2.0877  0.9418
20896SOL    HW263852   7.283   2.830   2.023  0.7164  1.0298 -0.9533
20897SOL     OW63853   5.400   6.540   4.055 -0.1490 -0.0600  0.6786
20897SOL    HW163854   5.413   6.450   4.026  1.4688  0.4494 -0.3115
20897SOL    HW263855   5.488   6.574   4.068 -0.7434  1.2022  1.6654
20898SOL     OW63856   6.444   6.012   7.324  0.0493 -0.0265  0.6310
20898SOL    HW163857   6.405   5.924   7.315 -1.0413  0.5107 -0.1570
20898SOL    HW263858   6.423   6.038   7.414  0.0210 -0.4098  0.7391
20899SOL     OW63859   3.209   0.733   5.788  0.1992  0.4485 -0.3946
20899SOL    HW163860   3.243   0.756   5.701  0.0506 -1.3005 -0.9624
20899SOL    HW263861   3.118   0.711   5.772 -0.2132  1.4653  0.4788
20900SOL     OW63862   4.156   5.063   0.175  0.0589  0.4447  0.3790
20900SOL    HW163863   4.156   5.153   0.143 -1.2532  0.2349 -0.2861
20900SOL    HW263864   4.248   5.042   0.187  0.4747  1.3915 -0.9050
20901SOL     OW63865   2.722   4.406   2.971 -0.2240  0.2348  0.0386
20901SOL    HW163866   2.673   4.483   2.999  0.3386 -0.1182  2.1590
20901SOL    HW263867   2.812   4.438   2.958  0.0400 -0.0470  1.0515
20902SOL     OW63868   3.614   3.526   0.133  0.8384  0.0178  0.0859
20902SOL    HW163869   3.607   3.537   0.039 -1.3816  0.6560  0.2723
20902SOL    HW263870   3.612   3.615   0.168 -1.6601 -0.2428  0.8328
20903SOL     OW63871   7.895   6.712   0.679 -0.1977 -0.2617 -1.0798
20903SOL    HW163872   7.864   6.733   0.590 -2.6730 -1.8728 -0.7035
20903SOL    HW263873   7.972   6.658   0.665 -0.1050  0.1302 -2.2333
20904SOL     OW63874   5.748   0.686   5.874  0.9710 -0.3016 -0.6542
20904SOL    HW163875   5.819   0.658   5.815  1.0553 -1.1440 -0.1820
20904SOL    HW263876   5.668   0.658   5.830  1.0188 -0.6720 -0.5126
20905SOL     OW63877   0.279   7.937   4.096 -0.2307 -0.2238  0.0179
20905SOL    HW163878   0.306   8.028   4.083  0.4324 -0.4761 -0.4126
20905SOL    HW263879   0.241   7.911   4.012 -1.8888  0.1322  0.6178
20906SOL     OW63880   3.379   0.033   1.532  0.2986 -0.3328  0.2305
20906SOL    HW163881   3.379   0.084   1.451  0.6138 -2.1833 -0.9988
20906SOL    HW263882   3.455   0.065   1.580  1.0862 -0.3176 -0.9821
20907SOL     OW63883   4.363   7.799   8.285  0.0451 -0.3541  0.1711
20907SOL    HW163884   4.275   7.775   8.255 -0.3030 -0.2604  1.0984
20907SOL    HW263885   4.414   7.808   8.204 -0.7199 -0.6952 -0.3610
20908SOL     OW63886   0.045   3.259   4.263  0.8090  0.1591 -0.0065
20908SOL    HW163887   0.040   3.334   4.204  1.1586 -0.5239 -0.9337
20908SOL    HW263888   0.001   3.189   4.216 -0.3880  0.0191  1.2674
20909SOL     OW63889   0.014   5.198   6.248 -0.3125 -0.0136  0.5268
20909SOL    HW163890   0.079   5.258   6.285 -1.0900  0.7930  0.6270
20909SOL    HW263891  -0.068   5.248   6.250 -0.3708  0.1841 -2.5269
20910SOL     OW63892   2.598   1.140   7.600 -0.3146 -0.4948  0.5204
20910SOL    HW163893   2.545   1.216   7.575 -1.8947 -1.4467  0.8567
20910SOL    HW263894   2.657   1.173   7.668 -0.8717  0.4713  0.5488
20911SOL     OW63895   7.707   5.376   3.100 -0.0142  0.0490 -0.6474
20911SOL    HW163896   7.717   5.302   3.160  0.3047 -1.1952 -2.1559
20911SOL    HW263897   7.712   5.453   3.156  1.9449 -0.9872  0.7224
20912SOL     OW63898   5.748   7.036   6.607  0.2207 -0.1480 -0.1132
20912SOL    HW163899   5.799   6.971   6.656  1.4097  0.8830  0.0639
20912SOL    HW263900   5.795   7.118   6.620 -0.4196  0.4790 -1.5505
20913SOL     OW63901   4.101   5.498   5.880  0.0699 -0.4038  0.3739
20913SOL    HW163902   4.043   5.569   5.906  0.3262  1.0983 -2.6866
20913SOL    HW263903   4.045   5.437   5.831  0.7083  0.3936 -1.4539
20914SOL     OW63904   2.747   4.251   6.796 -0.5046 -0.1216 -0.0470
20914SOL    HW163905   2.705   4.322   6.845  0.3285 -1.2645  2.4700
20914SOL    HW263906   2.694   4.174   6.815  0.2430 -0.7328 -0.3988
20915SOL     OW63907   7.360   3.812   3.995 -0.1697  0.3335 -0.1234
20915SOL    HW163908   7.375   3.754   4.069 -1.9199  0.6338  0.5075
20915SOL    HW263909   7.282   3.777   3.952 -0.7619  1.7129 -0.2183
20916SOL     OW63910   1.367   4.594   0.194  0.3521  0.2667  0.2534
20916SOL    HW163911   1.340   4.520   0.140  1.0538  0.7551 -0.7876
20916SOL    HW263912   1.398   4.660   0.132  0.1035  1.2941  1.1800
20917SOL     OW63913   6.370   2.678   1.486 -0.0185  0.7422 -0.4896
20917SOL    HW163914   6.463   2.687   1.509 -0.0646 -0.8386  0.4568
20917SOL    HW263915   6.330   2.638   1.563 -1.3410  0.6848 -1.1846
20918SOL     OW63916   2.038   7.842   3.943 -0.4700  0.3629  0.3551
20918SOL    HW163917   2.052   7.767   3.884  0.7920 -0.9496  2.2172
20918SOL    HW263918   2.115   7.897   3.930 -1.1265  1.0857 -0.5981
20919SOL     OW63919   8.287   2.095   0.716  0.1380 -0.1939  0.0584
20919SOL    HW163920   8.201   2.093   0.674  0.4466 -0.9262 -0.5713
20919SOL    HW263921   8.294   2.182   0.754 -1.1198 -0.3164  0.6120
20920SOL     OW63922   0.502   0.014   3.777 -0.3071  0.2580  0.1023
20920SOL    HW163923   0.428  -0.006   3.834  0.1283 -0.5997  0.3776
20920SOL    HW263924   0.556  -0.064   3.779  0.6689  0.9078 -0.0206
20921SOL     OW63925   6.084   7.223   2.435  0.3358  0.2865  0.0790
20921SOL    HW163926   6.035   7.204   2.515  2.0438  0.2143  1.1687
20921SOL    HW263927   6.053   7.159   2.372 -1.5635  0.7880  0.4391
20922SOL     OW63928   8.291   2.652   1.944 -0.8491 -0.0278  0.2720
20922SOL    HW163929   8.231   2.710   1.896 -0.4964 -0.0984 -0.2567
20922SOL    HW263930   8.305   2.697   2.027 -0.6518  0.6026 -0.0963
20923SOL     OW63931   0.600   0.009   4.140  0.2558 -0.5261 -0.2322
20923SOL    HW163932   0.510  -0.006   4.113  0.4750  2.0123 -2.7515
20923SOL    HW263933   0.649  -0.065   4.103 -0.7154 -1.9953  1.2737
20924SOL     OW63934   7.545   2.805   5.876  0.3038 -0.6943 -0.4036
20924SOL    HW163935   7.550   2.861   5.954 -0.3178 -1.7386  0.4155
20924SOL    HW263936   7.618   2.745   5.884  0.4076 -0.6236 -0.7853
20925SOL     OW63937   3.599   2.523   1.812 -0.2312 -0.2868  0.1946
20925SOL    HW163938   3.581   2.541   1.905 -2.4798 -0.8642 -0.0780
20925SOL    HW263939   3.581   2.605   1.768  1.2375  0.1047  0.2838
20926SOL     OW63940   0.350   3.751   3.791  0.0585  0.3661 -0.0981
20926SOL    HW163941   0.404   3.830   3.796 -1.3162  1.2711  0.8399
20926SOL    HW263942   0.300   3.761   3.710 -0.4130  0.6500  0.2291
20927SOL     OW63943   0.990   1.206   6.402 -0.0091  0.3923  0.5041
20927SOL    HW163944   1.003   1.128   6.348  0.9413  1.2310 -0.5266
20927SOL    HW263945   1.010   1.178   6.491 -0.7613 -0.8014  0.3112
20928SOL     OW63946   2.672   8.776   0.422 -0.2635  0.0354 -0.1580
20928SOL    HW163947   2.633   8.812   0.501  0.8454 -1.8781  1.3475
20928SOL    HW263948   2.601   8.775   0.358 -2.0632 -1.1076  1.7390
20929SOL     OW63949   8.115   3.532   8.711 -0.1268  0.4061  0.6416
20929SOL    HW163950   8.039   3.567   8.665  0.5441  0.9493 -0.0816
20929SOL    HW263951   8.180   3.516   8.642 -0.0221 -1.2755  1.0682
20930SOL     OW63952   3.413   6.151   4.084 -0.3576  0.5935  0.2017
20930SOL    HW163953   3.400   6.059   4.105  1.1333  0.1764 -0.5494
20930SOL    HW263954   3.359   6.166   4.006 -1.7235  0.7540  1.1556
20931SOL     OW63955   2.247   0.947   8.774 -0.3271  0.8204 -0.1500
20931SOL    HW163956   2.177   0.978   8.717 -1.2434  0.5869  0.8212
20931SOL    HW263957   2.308   0.903   8.715 -2.5850 -1.8379 -0.7255
20932SOL     OW63958   8.414   0.984   4.050  0.5359 -0.0272 -0.8257
20932SOL    HW163959   8.347   1.052   4.060 -0.8457 -1.6101  2.1789
20932SOL    HW263960   8.386   0.934   3.973 -0.9330  0.2195 -0.4847
20933SOL     OW63961   1.102   3.408   0.913 -0.0086 -0.1346 -0.1862
20933SOL    HW163962   1.095   3.412   1.009  0.3997  0.3495 -0.1696
20933SOL    HW263963   1.023   3.362   0.885 -0.3874  0.1707  0.3520
20934SOL     OW63964   4.401   5.599   4.827 -0.5889 -0.1449 -0.3911
20934SOL    HW163965   4.324   5.637   4.869 -0.4809 -0.1705 -0.1663
20934SOL    HW263966   4.470   5.605   4.893 -0.3978 -0.1232 -0.5903
20935SOL     OW63967   6.797   7.452   0.260  0.9825  0.2685  0.1609
20935SOL    HW163968   6.727   7.431   0.198  1.0299  0.1082  0.1623
20935SOL    HW263969   6.854   7.376   0.259  1.7215  0.8171 -0.5987
20936SOL     OW63970   0.079   3.167   0.786 -1.2508 -0.1651 -0.0507
20936SOL    HW163971   0.084   3.157   0.691 -0.0629 -0.9905  0.0737
20936SOL    HW263972   0.126   3.247   0.805  1.0424 -1.4540  0.0421
20937SOL     OW63973   5.973   5.353   7.785  0.0404  0.2090  0.0364
20937SOL    HW163974   5.916   5.364   7.862  0.2853  1.5098  0.0536
20937SOL    HW263975   5.932   5.283   7.735  1.0334 -2.2796  2.3990
20938SOL     OW63976   5.579   4.481   1.409  0.0738  0.1539  0.3674
20938SOL    HW163977   5.609   4.525   1.330  0.0689 -0.2091  0.1604
20938SOL    HW263978   5.569   4.389   1.383 -0.3650  0.1145  0.6676
20939SOL     OW63979   0.871   7.652   6.924 -0.5753  0.3818 -0.2931
20939SOL    HW163980   0.927   7.652   7.002  0.5509  0.8382 -1.0781
20939SOL    HW263981   0.915   7.710   6.863 -0.8824 -0.7994 -1.6848
20940SOL     OW63982   1.762   5.158   4.913  0.4308  0.2523  0.4375
20940SOL    HW163983   1.736   5.067   4.894  2.0319  0.0656 -1.0942
20940SOL    HW263984   1.824   5.180   4.844  0.0629  2.5567  0.7600
20941SOL     OW63985   1.023   3.987   2.285  0.4167 -0.2531 -0.5212
20941SOL    HW163986   0.977   3.912   2.249 -0.4938  0.7899 -1.6107
20941SOL    HW263987   0.954   4.050   2.307  1.2048  0.7095 -0.7034
20942SOL     OW63988   2.402   5.012   8.849 -0.4621  0.1957 -0.2902
20942SOL    HW163989   2.468   5.039   8.785 -1.6586 -0.1097 -1.7245
20942SOL    HW263990   2.382   4.921   8.827 -1.3478  0.2799  0.1096
20943SOL     OW63991   6.422   1.105   4.712  0.1178  0.3813  0.1217
20943SOL    HW163992   6.364   1.151   4.772  2.2482  0.3068  2.3989
20943SOL    HW263993   6.484   1.172   4.683 -0.5245  0.2767 -1.6092
20944SOL     OW63994   8.014   1.646   6.916  0.1640 -0.1754  0.1492
20944SOL    HW163995   8.012   1.676   7.007  2.1801 -0.0641  0.2075
20944SOL    HW263996   8.104   1.618   6.902 -0.2882 -0.9090 -1.6122
20945SOL     OW63997   4.251   8.696   3.257 -0.5985 -0.3617  0.1224
20945SOL    HW163998   4.250   8.657   3.170 -1.1993  1.0224 -0.5226
20945SOL    HW263999   4.343   8.715   3.275 -0.6288  1.1014 -1.0637
20946SOL     OW64000   4.423   1.195   1.396 -0.0180  0.5355 -0.6838
20946SOL    HW164001   4.392   1.285   1.392  0.2474  0.7726  1.6727
20946SOL    HW264002   4.515   1.202   1.420  0.0400 -0.3688 -0.5911
20947SOL     OW64003   1.802   3.410   5.766 -0.0230 -0.0202 -0.4463
20947SOL    HW164004   1.858   3.424   5.843 -2.6469  2.0551  1.2939
20947SOL    HW264005   1.741   3.341   5.793  0.2437 -0.6422 -1.4153
20948SOL     OW64006   4.493   3.294   1.417 -0.1490 -0.4268 -0.1160
20948SOL    HW164007   4.464   3.354   1.348 -0.6117 -1.7580 -1.1262
20948SOL    HW264008   4.425   3.301   1.485 -0.4514 -0.1712 -0.4415
20949SOL     OW64009   4.447   1.641   0.039 -0.0570 -0.3870  0.0301
20949SOL    HW164010   4.431   1.675   0.127  0.7475 -0.6381  0.2791
20949SOL    HW264011   4.379   1.681  -0.015 -0.6938 -0.3943  0.8029
20950SOL     OW64012   5.314   5.221   5.546 -0.5677 -0.4395  0.4345
20950SOL    HW164013   5.329   5.312   5.568 -0.3227 -0.1043 -1.0274
20950SOL    HW264014   5.238   5.196   5.600 -1.1046  0.8396  0.3111
20951SOL     OW64015   2.396   3.236   1.515 -0.0547 -0.1945 -0.4534
20951SOL    HW164016   2.429   3.314   1.558  0.7614 -0.0519 -1.3248
20951SOL    HW264017   2.417   3.248   1.422 -0.2860 -1.2501 -0.6575
20952SOL     OW64018   0.164   8.375   1.568  0.2608  0.0528  0.2951
20952SOL    HW164019   0.156   8.282   1.587  0.7579  0.2000  1.2959
20952SOL    HW264020   0.077   8.411   1.583  0.3197 -0.0767  0.9465
20953SOL     OW64021   7.517   3.092   0.565  0.2515 -0.4106  0.1704
20953SOL    HW164022   7.534   3.008   0.523 -0.7316 -0.1699 -0.7196
20953SOL    HW264023   7.603   3.134   0.569  0.5370 -0.9056 -0.5776
20954SOL     OW64024   1.590   8.737   3.045 -0.0593  0.3145  0.2808
20954SOL    HW164025   1.513   8.751   3.101 -0.2930 -0.5098  0.1716
20954SOL    HW264026   1.638   8.667   3.089  0.6869  0.8915  0.3983
20955SOL     OW64027   1.370   8.195   2.380  0.5984  0.5366 -0.7790
20955SOL    HW164028   1.379   8.118   2.436 -0.8422  1.6121  1.0344
20955SOL    HW264029   1.430   8.179   2.307  1.7284 -1.4294  0.5035
20956SOL     OW64030   2.744   1.097   4.055 -0.2916 -0.0096  0.2085
20956SOL    HW164031   2.655   1.109   4.021 -0.0781  0.1631 -0.3102
20956SOL    HW264032   2.798   1.155   4.001  0.1612 -0.2386  0.4086
20957SOL     OW64033   8.837   7.434   6.685  0.0101  0.1435  0.3371
20957SOL    HW164034   8.748   7.403   6.701  0.0176  0.8126  1.8830
20957SOL    HW264035   8.827   7.527   6.665  0.4845  0.8341  2.9472
20958SOL     OW64036   5.734   2.658   4.606  0.0323  0.0247  0.5077
20958SOL    HW164037   5.828   2.666   4.621 -0.0658  0.7997  0.7189
20958SOL    HW264038   5.712   2.732   4.550 -0.2638 -0.7767 -0.4684
20959SOL     OW64039   3.528   0.671   8.027  0.3705 -0.0540 -0.0914
20959SOL    HW164040   3.444   0.675   8.073 -0.2612 -2.1850 -0.9457
20959SOL    HW264041   3.538   0.758   7.989 -0.9008  0.5879  0.9421
20960SOL     OW64042   2.676   5.769   3.339 -0.3902 -0.2652 -0.0438
20960SOL    HW164043   2.752   5.822   3.361 -1.0252  0.7293 -0.1691
20960SOL    HW264044   2.633   5.754   3.424 -0.0107 -0.8950  0.0371
20961SOL     OW64045   3.788   3.712   4.447  0.4312 -0.5567  0.0727
20961SOL    HW164046   3.719   3.750   4.501 -1.2021  0.5090 -2.5739
20961SOL    HW264047   3.782   3.618   4.463 -1.3877 -0.4524  0.2430
20962SOL     OW64048   6.658   3.207   8.690  0.1523  0.0242 -0.1813
20962SOL    HW164049   6.641   3.124   8.645  0.9098 -0.0961 -0.2578
20962SOL    HW264050   6.665   3.271   8.619  0.8339 -0.0744 -0.2062
20963SOL     OW64051   2.966   7.544   3.764 -0.0326 -0.9471  0.4356
20963SOL    HW164052   2.874   7.520   3.776  0.2185 -1.3822  1.6071
20963SOL    HW264053   2.977   7.626   3.812 -0.5413  0.9328 -2.3788
20964SOL     OW64054   6.409   6.419   4.935 -0.3575 -0.2954 -0.0112
20964SOL    HW164055   6.419   6.469   5.016 -1.8941  1.0141 -0.5672
20964SOL    HW264056   6.315   6.399   4.932 -0.7232  1.4247 -2.4035
20965SOL     OW64057   4.626   5.424   1.270  0.5856  0.2496  0.2837
20965SOL    HW164058   4.590   5.378   1.194  0.4995 -0.9218  1.0077
20965SOL    HW264059   4.720   5.424   1.256  0.4958  1.1861 -0.4353
20966SOL     OW64060   4.823   4.820   7.204 -0.4327  0.3540  0.2320
20966SOL    HW164061   4.778   4.746   7.243  0.0672 -0.0301  0.0927
20966SOL    HW264062   4.804   4.812   7.110 -2.0164  1.5354  0.4109
20967SOL     OW64063   5.474   4.407   0.735  0.1516  0.4224  0.2175
20967SOL    HW164064   5.512   4.489   0.766  0.7953 -0.0348  0.6410
20967SOL    HW264065   5.465   4.420   0.640  0.1928  0.9999  0.2859
20968SOL     OW64066   6.750   7.112   5.367 -0.5658 -0.0038 -0.4490
20968SOL    HW164067   6.746   7.108   5.463 -0.1220  0.1025 -0.4246
20968SOL    HW264068   6.840   7.088   5.346 -0.3701  0.9843 -0.7827
20969SOL     OW64069   0.360   6.578   1.211 -0.7394  0.1856 -0.5243
20969SOL    HW164070   0.306   6.565   1.289  0.7169  0.2736  0.5480
20969SOL    HW264071   0.397   6.491   1.193 -0.5236  0.3110 -0.6925
20970SOL     OW64072   7.958   4.127   0.818  0.2855 -0.5829  0.3019
20970SOL    HW164073   8.026   4.190   0.795  0.8864 -0.9308  1.0672
20970SOL    HW264074   8.006   4.050   0.848 -0.3823 -0.2225  2.5561
20971SOL     OW64075   6.750   7.055   2.835  0.0327 -0.1375 -0.1894
20971SOL    HW164076   6.662   7.030   2.860 -0.2793 -0.1802 -1.2847
20971SOL    HW264077   6.783   6.980   2.785  0.4722  0.1230 -0.2935
20972SOL     OW64078   3.834   0.614   0.996 -0.2910  0.7007  0.4444
20972SOL    HW164079   3.759   0.665   0.966  0.2072  0.2655 -1.7044
20972SOL    HW264080   3.909   0.673   0.989 -0.0074  0.2777 -0.2008
20973SOL     OW64081   7.472   1.417   2.879 -0.6714  0.2531 -0.0335
20973SOL    HW164082   7.525   1.430   2.801 -1.0920 -0.5200 -0.4572
20973SOL    HW264083   7.382   1.414   2.847 -0.8512  0.0135  0.4841
20974SOL     OW64084   8.509   4.219   1.049  0.0127  0.5706  0.1322
20974SOL    HW164085   8.465   4.225   1.134  0.4592  1.8466  0.3021
20974SOL    HW264086   8.531   4.126   1.040 -1.3933  0.1542  0.6967
20975SOL     OW64087   8.636   6.996   0.148  0.1892  0.4909  0.3703
20975SOL    HW164088   8.649   7.089   0.130 -1.0175  0.3746 -1.2884
20975SOL    HW264089   8.542   6.987   0.161  0.4244 -0.3347  1.6720
20976SOL     OW64090   6.521   5.439   8.149  0.5952 -0.6817 -0.0465
20976SOL    HW164091   6.426   5.434   8.143  0.4094  1.4524  0.4768
20976SOL    HW264092   6.549   5.348   8.155 -1.4158 -1.3478  0.0005
20977SOL     OW64093   4.812   2.007   5.006  0.2236  0.0717 -0.2710
20977SOL    HW164094   4.760   2.068   4.954  0.0648 -1.7832 -2.4332
20977SOL    HW264095   4.792   2.030   5.097 -0.8833  2.2828 -0.9913
20978SOL     OW64096   5.770   6.678   5.687  0.3393 -0.6396  0.5197
20978SOL    HW164097   5.847   6.670   5.744  0.4804 -1.0063  0.2849
20978SOL    HW264098   5.784   6.611   5.619  0.2072 -0.1676  0.0218
20979SOL     OW64099   1.054   2.854   4.213 -0.5208 -0.2597  0.4194
20979SOL    HW164100   1.144   2.828   4.194 -0.7598 -0.1401 -0.9860
20979SOL    HW264101   1.056   2.950   4.212 -0.8445 -0.2495 -0.6541
20980SOL     OW64102   1.829   5.803   3.012  0.1597  0.3351 -0.0499
20980SOL    HW164103   1.774   5.860   3.065  0.9032 -0.6027  1.8283
20980SOL    HW264104   1.803   5.821   2.922 -1.0541  2.1030  0.6067
20981SOL     OW64105   2.449   2.698   5.390  0.3833 -0.2775 -0.2318
20981SOL    HW164106   2.427   2.634   5.458 -0.5331 -1.2328 -1.3610
20981SOL    HW264107   2.525   2.745   5.424 -0.0747 -0.6779  1.4576
20982SOL     OW64108   1.993   5.524   0.232 -0.3837 -0.0306  0.0250
20982SOL    HW164109   1.982   5.618   0.214 -1.5119 -0.3204 -0.8512
20982SOL    HW264110   1.905   5.492   0.246  0.0848 -0.7562  1.5583
20983SOL     OW64111   7.581   0.433   3.756 -0.0096  0.6246 -0.2479
20983SOL    HW164112   7.530   0.454   3.834 -0.3219  0.1938 -0.3324
20983SOL    HW264113   7.593   0.517   3.713  1.2507  1.0693  0.9049
20984SOL     OW64114   8.154   2.099   6.822  0.2247 -0.7150  0.2503
20984SOL    HW164115   8.067   2.127   6.849  0.2644  0.3676 -0.6979
20984SOL    HW264116   8.142   2.057   6.737  0.6225 -0.5423  0.1029
20985SOL     OW64117   2.870   5.139   2.582  0.3439 -0.1018  0.3853
20985SOL    HW164118   2.939   5.098   2.635 -0.4814  0.4801  1.9702
20985SOL    HW264119   2.791   5.132   2.635 -0.6939 -0.1137 -1.0960
20986SOL     OW64120   7.707   4.803   8.039 -0.1269  0.0228  0.3735
20986SOL    HW164121   7.692   4.731   7.978 -1.4633  1.8192 -1.5590
20986SOL    HW264122   7.776   4.772   8.097  1.7651 -1.5431 -2.5204
20987SOL     OW64123   7.792   3.481   7.200  1.1425 -0.1780  0.1770
20987SOL    HW164124   7.767   3.491   7.292 -0.0094 -2.6675  0.2158
20987SOL    HW264125   7.773   3.566   7.161 -4.3896 -0.6466  0.9848
20988SOL     OW64126   5.230   0.486   3.305  0.3006 -0.6616 -0.4308
20988SOL    HW164127   5.322   0.460   3.309  0.3322 -0.3924  1.4985
20988SOL    HW264128   5.199   0.478   3.395 -1.5118 -0.4994 -1.0026
20989SOL     OW64129   1.553   6.043   4.008 -0.4827 -0.2595 -0.0401
20989SOL    HW164130   1.540   5.950   3.987 -0.9069  0.0743 -1.3595
20989SOL    HW264131   1.475   6.086   3.975  0.1924  0.7080 -0.4185
20990SOL     OW64132   3.695   6.145   3.454 -0.4341 -0.3670 -0.1397
20990SOL    HW164133   3.757   6.214   3.478 -2.2368  1.7959 -1.3331
20990SOL    HW264134   3.630   6.145   3.523  0.4801 -2.2406  0.8114
20991SOL     OW64135   0.848   0.040   0.684 -0.1492  0.2425 -0.0708
20991SOL    HW164136   0.823  -0.048   0.713  0.4060  0.1510  0.1435
20991SOL    HW264137   0.848   0.035   0.589 -1.3465  0.3623 -0.0879
20992SOL     OW64138   5.548   7.291   4.296 -0.4156  0.4521  0.2087
20992SOL    HW164139   5.636   7.259   4.277 -1.0576 -0.3354 -1.6933
20992SOL    HW264140   5.561   7.360   4.361  1.2441 -2.0103  2.7203
20993SOL     OW64141   8.455   2.384   6.556 -0.4295  0.1142 -0.2964
20993SOL    HW164142   8.459   2.434   6.638  1.0335 -0.5468  0.0577
20993SOL    HW264143   8.457   2.292   6.583  0.2307 -0.1123 -1.0684
20994SOL     OW64144   3.948   1.577   3.910 -0.4529  0.0180 -0.1472
20994SOL    HW164145   3.986   1.559   3.996 -0.4842 -0.4649 -0.2287
20994SOL    HW264146   3.977   1.504   3.856 -0.7555  0.1172 -0.4432
20995SOL     OW64147   5.125   6.951   4.163  0.3200  0.2958  0.3908
20995SOL    HW164148   5.130   7.014   4.090 -2.5420  1.8147  1.3161
20995SOL    HW264149   5.205   6.965   4.213  0.9781  1.3037 -0.8672
20996SOL     OW64150   7.423   3.262   5.813 -0.5321  0.0019 -1.0387
20996SOL    HW164151   7.445   3.251   5.721  0.1117  0.8261 -0.9927
20996SOL    HW264152   7.329   3.282   5.813 -0.2598  1.3993 -1.6430
20997SOL     OW64153   6.269   7.717   2.831  0.2941  0.0593  0.0814
20997SOL    HW164154   6.333   7.715   2.760  0.5845  0.5813  0.3205
20997SOL    HW264155   6.288   7.639   2.883  0.7871  0.2517  0.1937
20998SOL     OW64156   0.876   7.252   3.181 -0.5615  0.2433 -0.1037
20998SOL    HW164157   0.831   7.255   3.096  0.0970 -0.6800 -0.4957
20998SOL    HW264158   0.834   7.180   3.228 -0.8892  0.7196  0.3478
20999SOL     OW64159   2.608   2.058   4.811 -0.0373 -0.1484  0.8729
20999SOL    HW164160   2.593   1.964   4.800 -1.2831 -0.0510  1.5047
20999SOL    HW264161   2.527   2.090   4.851 -0.3162  1.4931 -0.8971
21000SOL     OW64162   1.392   3.662   5.992 -0.4808 -0.4495  0.7373
21000SOL    HW164163   1.437   3.605   5.930 -1.7115 -1.2499  0.5557
21000SOL    HW264164   1.300   3.659   5.965 -0.9161 -0.2159  2.1346
21001SOL     OW64165   7.138   6.781   5.688 -0.5492 -0.5803 -0.4197
21001SOL    HW164166   7.174   6.706   5.736 -1.6802 -1.2334 -0.5581
21001SOL    HW264167   7.167   6.767   5.598  0.1112 -0.2840 -0.2605
21002SOL     OW64168   3.906   1.699   2.632 -0.3816 -0.6350  0.1398
21002SOL    HW164169   3.957   1.657   2.702 -0.2702  1.2920  1.2731
21002SOL    HW264170   3.903   1.791   2.656 -0.5129  0.0702 -2.3484
21003SOL     OW64171   2.277   6.608   1.682 -0.3160 -0.4189 -0.1829
21003SOL    HW164172   2.225   6.529   1.700 -0.7900  0.1216  0.9792
21003SOL    HW264173   2.221   6.680   1.712 -0.4707  0.4994 -2.4857
21004SOL     OW64174   8.366   6.093   8.764 -0.1362  0.0806  0.3512
21004SOL    HW164175   8.386   6.065   8.674 -1.1180 -0.7791  0.3877
21004SOL    HW264176   8.287   6.045   8.788 -0.4089  0.9807  1.3644
21005SOL     OW64177   6.013   3.243   4.669  0.1826 -0.0185 -0.7566
21005SOL    HW164178   6.034   3.290   4.750 -1.4626  1.6614 -1.2316
21005SOL    HW264179   6.075   3.276   4.605  0.0040  0.3879 -0.7231
21006SOL     OW64180   2.232   4.855   6.882 -0.1741  0.3173  0.2903
21006SOL    HW164181   2.236   4.875   6.975 -3.0538 -2.7748  1.2516
21006SOL    HW264182   2.157   4.906   6.850 -1.1685 -1.0101  0.4446
21007SOL     OW64183   6.100   3.980   3.704  0.1769 -0.4927  0.3514
21007SOL    HW164184   6.171   3.925   3.737  0.7487  0.5634  0.9100
21007SOL    HW264185   6.142   4.063   3.682 -0.9239  0.2361  0.9425
21008SOL     OW64186   0.511   5.844   5.917  0.2866  0.4221  0.3204
21008SOL    HW164187   0.469   5.906   5.976 -0.4670 -0.2870  0.5549
21008SOL    HW264188   0.438   5.795   5.879  0.8626 -0.3323  0.1679
21009SOL     OW64189   6.905   3.324   1.942 -0.1645 -0.1956  0.3919
21009SOL    HW164190   6.986   3.361   1.977 -0.5971  1.0799  0.1140
21009SOL    HW264191   6.913   3.230   1.956  1.0602 -0.0205  0.9879
21010SOL     OW64192   8.759   3.233   1.002  0.2177 -0.2849  0.0837
21010SOL    HW164193   8.755   3.266   1.092 -0.1917 -1.3501  0.4678
21010SOL    HW264194   8.853   3.225   0.985  0.2972 -0.2017  0.4606
21011SOL     OW64195   0.799   6.786   8.025  0.0515 -0.0182 -0.1988
21011SOL    HW164196   0.862   6.721   8.055 -1.6874 -1.5685  0.2815
21011SOL    HW264197   0.786   6.766   7.932  0.3804  0.4203 -0.3444
21012SOL     OW64198   6.140   3.768   2.877 -0.3813 -0.1377  0.3995
21012SOL    HW164199   6.083   3.829   2.830 -0.1351  0.2099  0.5447
21012SOL    HW264200   6.217   3.759   2.820 -0.7226 -0.8675  0.0453
21013SOL     OW64201   2.532   5.986   0.518 -0.3537  0.5263 -1.0644
21013SOL    HW164202   2.582   5.905   0.528 -0.8880  0.4065  1.1467
21013SOL    HW264203   2.598   6.056   0.521 -0.0353  0.2397 -1.3712
21014SOL     OW64204   4.462   4.524   0.486  0.4071 -0.3934 -0.5539
21014SOL    HW164205   4.484   4.578   0.411  1.5252  0.3931  0.3073
21014SOL    HW264206   4.518   4.447   0.478  0.8814 -0.0826 -0.2853
21015SOL     OW64207   7.482   7.331   3.499 -0.0599 -0.1301  0.0460
21015SOL    HW164208   7.416   7.331   3.430 -0.5024  0.2249  0.4565
21015SOL    HW264209   7.489   7.239   3.526 -0.6127 -0.1298  0.2017
21016SOL     OW64210   3.313   7.071   0.160  0.1494  0.1728 -0.1363
21016SOL    HW164211   3.237   7.078   0.217  0.1211 -0.5971 -0.0791
21016SOL    HW264212   3.307   7.148   0.103 -1.3955 -0.5740 -1.0161
21017SOL     OW64213   2.927   2.556   5.539 -0.1095  0.0870  0.4617
21017SOL    HW164214   2.890   2.521   5.457 -0.3016 -1.9182  1.3428
21017SOL    HW264215   2.853   2.598   5.582 -0.5651 -0.8862  0.6459
21018SOL     OW64216   6.579   6.354   6.398  0.7110  0.4892 -0.1852
21018SOL    HW164217   6.507   6.411   6.425 -1.2851 -2.0760  0.2596
21018SOL    HW264218   6.555   6.327   6.309  1.8757  0.7001 -0.5751
21019SOL     OW64219   4.362   6.339   8.211  0.0387 -0.7334 -0.1458
21019SOL    HW164220   4.352   6.352   8.116 -1.5595 -3.5780 -0.4745
21019SOL    HW264221   4.457   6.332   8.224  0.3529  0.6499 -1.3243
21020SOL     OW64222   4.290   0.184   4.710  0.3316  0.1483  0.2256
21020SOL    HW164223   4.352   0.225   4.649  1.5338 -1.2949  0.4137
21020SOL    HW264224   4.263   0.103   4.666 -0.2048 -0.0169  0.8413
21021SOL     OW64225   8.571   8.161   5.599  0.2432  0.0534 -0.3974
21021SOL    HW164226   8.638   8.229   5.609  0.9421 -0.6911  0.0525
21021SOL    HW264227   8.598   8.091   5.659 -0.8187 -0.3551 -0.3677
21022SOL     OW64228   6.189   2.616   0.337 -0.0818  0.6173 -0.2873
21022SOL    HW164229   6.189   2.596   0.243 -2.1349 -0.9215 -0.0202
21022SOL    HW264230   6.172   2.710   0.341  1.4932  0.9999 -1.4345
21023SOL     OW64231   6.799   2.212   5.746 -0.3051  0.3591 -0.2922
21023SOL    HW164232   6.884   2.225   5.787  0.1078 -1.0810 -0.6374
21023SOL    HW264233   6.777   2.121   5.765 -0.4986 -0.1134 -2.4836
21024SOL     OW64234   3.496   1.041   6.839  0.3367  0.0680 -0.2443
21024SOL    HW164235   3.502   1.136   6.850 -1.4844  0.3024 -0.9028
21024SOL    HW264236   3.471   1.009   6.926 -3.5929  0.7739 -0.9055
21025SOL     OW64237   6.634   2.251   3.256 -0.2729  0.0896  0.2741
21025SOL    HW164238   6.620   2.327   3.313 -0.7248 -0.1624  0.5065
21025SOL    HW264239   6.549   2.235   3.216 -0.4474 -0.9268  1.0254
21026SOL     OW64240   8.558   4.439   0.463 -0.1857  0.0887 -0.4929
21026SOL    HW164241   8.599   4.483   0.388 -1.9917 -0.1909 -1.6835
21026SOL    HW264242   8.466   4.461   0.457 -0.5378 -0.7947  1.0825
21027SOL     OW64243   0.301   5.841   0.484  0.8498 -0.4299 -0.0144
21027SOL    HW164244   0.268   5.931   0.477 -1.4603 -1.2402 -0.3418
21027SOL    HW264245   0.359   5.843   0.561 -0.2201  1.0394  0.8126
21028SOL     OW64246   0.512   6.209   0.961  0.5658  0.5801  0.0476
21028SOL    HW164247   0.594   6.171   0.930  0.2062 -0.6033  0.4908
21028SOL    HW264248   0.454   6.134   0.974 -0.4712  1.3677  0.0903
21029SOL     OW64249   8.770   8.146   7.169 -0.2919 -0.1015 -0.1728
21029SOL    HW164250   8.745   8.159   7.077 -1.0924  1.3734  0.2173
21029SOL    HW264251   8.781   8.051   7.178 -0.0322 -0.2602 -1.8241
21030SOL     OW64252   8.039   4.276   0.510 -0.6424 -0.1631 -0.3558
21030SOL    HW164253   8.068   4.284   0.419 -0.7412  0.6352 -0.3215
21030SOL    HW264254   8.033   4.182   0.525 -1.4650 -0.2982 -1.4425
21031SOL     OW64255   8.714   0.998   4.597  0.1047 -0.4183 -1.2804
21031SOL    HW164256   8.768   1.032   4.525  2.7507  1.0252  1.1809
21031SOL    HW264257   8.750   0.912   4.616  0.9932  0.1522 -0.2571
21032SOL     OW64258   3.774   6.028   5.500 -0.3729 -0.3390 -0.9349
21032SOL    HW164259   3.754   6.061   5.413 -0.8156 -0.7130 -0.9761
21032SOL    HW264260   3.839   6.090   5.535 -1.0267  0.4595 -1.0943
21033SOL     OW64261   1.438   0.126   7.986 -0.1334  0.0684 -0.1021
21033SOL    HW164262   1.496   0.154   7.914  0.0944 -0.6111 -0.1893
21033SOL    HW264263   1.392   0.050   7.951 -0.2324 -0.0926  0.3765
21034SOL     OW64264   6.614   1.788   2.868 -0.1500  0.5941  0.8231
21034SOL    HW164265   6.706   1.813   2.868  0.7496 -2.3458  0.1059
21034SOL    HW264266   6.569   1.862   2.826  1.9743  1.7207  0.4130
21035SOL     OW64267   4.922   0.952   6.665 -0.5765 -0.5531 -0.2560
21035SOL    HW164268   5.001   0.997   6.695 -1.5230  0.7700  0.4046
21035SOL    HW264269   4.906   0.987   6.577  0.2761 -1.8186 -0.9411
21036SOL     OW64270   0.131   7.276   6.001 -0.0705  0.5100  0.4563
21036SOL    HW164271   0.143   7.346   6.066  0.3391  2.0858 -1.2558
21036SOL    HW264272   0.215   7.231   6.000  0.3265  1.2411  0.1675
21037SOL     OW64273   1.336   7.910   6.177 -0.2768 -0.0685 -0.4839
21037SOL    HW164274   1.366   7.929   6.088  2.3063 -0.6572  0.1838
21037SOL    HW264275   1.391   7.837   6.205 -1.8678 -0.6795  1.1955
21038SOL     OW64276   1.842   4.274   7.343 -0.2257  0.3292  0.1596
21038SOL    HW164277   1.919   4.225   7.312 -0.0915  0.6259  0.0189
21038SOL    HW264278   1.868   4.305   7.430 -0.6907 -0.7049  0.6832
21039SOL     OW64279   7.051   8.068   7.537  0.4341  0.4280 -0.0302
21039SOL    HW164280   7.135   8.045   7.497  1.3397  2.0759  0.8007
21039SOL    HW264281   6.988   8.010   7.496  2.1000 -1.4525 -0.0900
21040SOL     OW64282   1.308   0.037   7.114  0.2606 -0.0618 -0.1305
21040SOL    HW164283   1.328  -0.056   7.105  0.3452 -0.0084 -0.5049
21040SOL    HW264284   1.218   0.039   7.146  0.6429 -0.2943  1.0157
21041SOL     OW64285   3.234   7.784   8.197  0.1652 -0.1993  0.3211
21041SOL    HW164286   3.269   7.695   8.199  1.6376  0.2967 -1.2315
21041SOL    HW264287   3.277   7.829   8.270 -0.6576 -0.7528  1.1712
21042SOL     OW64288   8.705   8.116   3.291 -0.2963 -0.7203  0.3277
21042SOL    HW164289   8.724   8.209   3.294 -1.1202 -0.5549  1.1631
21042SOL    HW264290   8.769   8.076   3.350 -1.1855 -0.4158  1.5480
21043SOL     OW64291   7.352   3.759   8.482  0.2052  0.2419 -0.4014
21043SOL    HW164292   7.306   3.841   8.465  1.2491  0.7457 -0.9172
21043SOL    HW264293   7.401   3.776   8.563 -0.9751 -0.4999  0.4928
21044SOL     OW64294   7.492   8.054   6.717 -0.6461  0.8373 -0.0256
21044SOL    HW164295   7.565   7.997   6.744 -1.5486  0.0446  0.8092
21044SOL    HW264296   7.530   8.111   6.650  0.5597 -0.0390 -0.1213
21045SOL     OW64297   7.391   1.808   7.680 -0.5415 -0.3857  0.2352
21045SOL    HW164298   7.302   1.773   7.682 -0.7789  0.2318  0.8513
21045SOL    HW264299   7.380   1.903   7.671  0.0457 -0.2691  0.6817
21046SOL     OW64300   8.614   7.294   2.739 -0.1572 -0.3513  0.3329
21046SOL    HW164301   8.669   7.310   2.815  0.9062  0.4125 -0.5657
21046SOL    HW264302   8.670   7.247   2.678 -0.1389  1.3174 -1.0034
21047SOL     OW64303   1.604   2.292   3.145  0.0620 -0.1154 -0.6193
21047SOL    HW164304   1.562   2.233   3.207 -0.2589  0.9230  0.1738
21047SOL    HW264305   1.672   2.336   3.195  1.4308 -1.0107 -1.6278
21048SOL     OW64306   6.704   8.422   6.848 -0.0931 -0.1850 -0.0828
21048SOL    HW164307   6.796   8.398   6.848  0.3582  1.4089  0.9452
21048SOL    HW264308   6.681   8.429   6.755  1.9416  3.2208 -0.5219
21049SOL     OW64309   3.462   3.775   1.367 -0.2873  0.6060  0.0221
21049SOL    HW164310   3.515   3.819   1.434  1.8382 -0.9166 -0.5282
21049SOL    HW264311   3.525   3.753   1.298 -2.2300  1.3101 -2.1010
21050SOL     OW64312   5.584   6.015   4.493 -0.0051 -0.1590  0.0087
21050SOL    HW164313   5.509   6.069   4.470 -0.5192 -1.6637 -2.1912
21050SOL    HW264314   5.659   6.060   4.454 -0.0173  0.3693  0.5805
21051SOL     OW64315   3.387   4.641   8.522  0.0620 -0.0373 -0.1598
21051SOL    HW164316   3.309   4.669   8.475 -1.2085 -0.6356  1.5265
21051SOL    HW264317   3.372   4.667   8.613  1.9852  0.1355  0.1570
21052SOL     OW64318   3.682   2.209   2.810  0.2643 -0.0665 -0.4075
21052SOL    HW164319   3.767   2.168   2.827  1.2488  1.0365 -2.3232
21052SOL    HW264320   3.665   2.191   2.717 -1.6929 -0.3781 -0.0349
21053SOL     OW64321   5.030   5.858   0.360 -0.1198  0.6319  0.1678
21053SOL    HW164322   5.007   5.883   0.449 -0.3577  0.7620  0.0719
21053SOL    HW264323   5.119   5.891   0.348  0.4231 -0.5395  0.7959
21054SOL     OW64324   3.889   5.074   3.621 -0.5054  0.3728  0.2867
21054SOL    HW164325   3.889   5.093   3.528 -2.7774  1.1509  0.3846
21054SOL    HW264326   3.979   5.046   3.640  0.5072  2.0079 -1.7305
21055SOL     OW64327   4.416   5.915   6.280 -0.1388  0.3535  0.0617
21055SOL    HW164328   4.506   5.931   6.250 -0.0116 -0.5669 -0.0925
21055SOL    HW264329   4.407   5.969   6.358  0.7142  0.1169  0.3404
21056SOL     OW64330   6.622   8.267   8.145  0.1468 -0.6589 -0.9186
21056SOL    HW164331   6.633   8.358   8.115 -1.3773 -0.5507 -1.2224
21056SOL    HW264332   6.529   8.248   8.131  0.2343 -1.9499  0.0463
21057SOL     OW64333   1.284   3.377   5.093 -0.3596 -0.1599  0.1659
21057SOL    HW164334   1.267   3.301   5.148 -0.0587 -1.4347 -1.4307
21057SOL    HW264335   1.367   3.358   5.050 -0.4526  0.9018 -0.5343
21058SOL     OW64336   5.554   7.713   7.794 -0.0521 -0.3174 -0.1771
21058SOL    HW164337   5.577   7.638   7.739  0.1961  0.3541 -1.0115
21058SOL    HW264338   5.501   7.676   7.865  1.1053 -1.4462  0.1153
21059SOL     OW64339   7.297   8.448   2.057  0.2700  0.2011 -0.2045
21059SOL    HW164340   7.298   8.437   2.152  0.5014  0.8911 -0.1227
21059SOL    HW264341   7.317   8.541   2.044 -1.6892  0.5879 -0.8416
21060SOL     OW64342   1.388   6.171   6.178 -0.4027  0.0093  0.1895
21060SOL    HW164343   1.401   6.102   6.113 -1.6009 -1.2603  1.2516
21060SOL    HW264344   1.382   6.252   6.126  1.4752 -0.5759 -1.0490
21061SOL     OW64345   1.494   6.317   1.397  1.0511 -0.8136 -0.2367
21061SOL    HW164346   1.540   6.400   1.387 -0.1046 -0.1010  0.1176
21061SOL    HW264347   1.437   6.313   1.320 -1.1417  0.2481  1.2286
21062SOL     OW64348   6.008   6.246   6.725  0.2091 -0.3090 -0.0880
21062SOL    HW164349   5.991   6.315   6.660  1.5649 -1.2260 -1.4982
21062SOL    HW264350   6.103   6.249   6.738  0.0056 -0.4458  1.5342
21063SOL     OW64351   4.067   2.369   7.461  0.1049  0.1547  0.0334
21063SOL    HW164352   4.085   2.324   7.379 -1.7911 -1.4049  0.4095
21063SOL    HW264353   4.066   2.462   7.438  3.5986  0.1256 -0.8655
21064SOL     OW64354   1.823   6.412   3.274  0.0754  0.2473 -0.1458
21064SOL    HW164355   1.760   6.484   3.282  0.8319  0.9916 -0.8186
21064SOL    HW264356   1.840   6.405   3.180 -0.7185 -1.4732 -0.2146
21065SOL     OW64357   6.586   7.270   4.165  0.3399  0.2455  0.2113
21065SOL    HW164358   6.567   7.178   4.147  1.7418 -0.1192  0.4750
21065SOL    HW264359   6.528   7.319   4.107 -0.3254 -0.8048 -0.0265
21066SOL     OW64360   5.316   7.651   4.739 -0.4532 -0.4242 -0.5826
21066SOL    HW164361   5.341   7.586   4.673  0.5366 -0.3617 -0.2832
21066SOL    HW264362   5.363   7.730   4.713  0.4095 -0.5539  0.5129
21067SOL     OW64363   5.491   7.226   8.706 -0.0056 -0.5176  0.1267
21067SOL    HW164364   5.417   7.185   8.750 -0.0250 -1.0717 -0.4139
21067SOL    HW264365   5.568   7.180   8.739 -0.0138 -0.8802 -0.3519
21068SOL     OW64366   4.383   2.405   6.401 -0.3968 -0.1183  0.6710
21068SOL    HW164367   4.421   2.477   6.451 -1.4154 -0.7057  2.3985
21068SOL    HW264368   4.312   2.444   6.351 -0.1093  0.2845  0.5755
21069SOL     OW64369   4.850   5.001   7.441 -0.3382  0.5723  0.2668
21069SOL    HW164370   4.879   4.934   7.380 -0.3543 -1.4816  2.3613
21069SOL    HW264371   4.817   5.072   7.386  1.0339 -0.5004 -2.0610
21070SOL     OW64372   7.307   3.334   7.321  0.3494  0.1105 -0.1302
21070SOL    HW164373   7.296   3.417   7.367  0.0530  0.6476 -1.1490
21070SOL    HW264374   7.224   3.288   7.333 -0.4639  1.0921 -1.7619
21071SOL     OW64375   7.542   3.515   2.808 -0.5998  0.5057 -0.2077
21071SOL    HW164376   7.564   3.492   2.898  1.0022  0.4711 -0.5853
21071SOL    HW264377   7.576   3.604   2.797  0.1067  0.1336 -1.0760
21072SOL     OW64378   7.409   5.684   0.081  1.0503  0.3092 -0.0416
21072SOL    HW164379   7.412   5.598   0.124  0.3221 -0.4058 -1.3521
21072SOL    HW264380   7.317   5.695   0.057  0.8533  2.1313  1.3754
21073SOL     OW64381   3.820   3.291   2.668  0.0743  0.0028 -0.2911
21073SOL    HW164382   3.732   3.279   2.633 -0.1023 -0.5920  0.3411
21073SOL    HW264383   3.849   3.203   2.693  1.5971 -0.1370 -2.1873
21074SOL     OW64384   5.378   0.778   8.759  0.1264 -0.3013 -0.0239
21074SOL    HW164385   5.373   0.873   8.752 -0.5861 -0.3334 -0.0322
21074SOL    HW264386   5.465   0.761   8.794  0.1072  0.3777  0.3695
21075SOL     OW64387   7.470   1.281   8.557  0.0388  0.3018 -0.1932
21075SOL    HW164388   7.405   1.217   8.587 -1.6603  1.8218 -0.4651
21075SOL    HW264389   7.433   1.315   8.475  0.3061  2.4234  0.5050
21076SOL     OW64390   1.350   6.880   0.012 -0.5227 -0.0300 -0.2550
21076SOL    HW164391   1.414   6.853  -0.054 -0.6225  1.2375 -0.8916
21076SOL    HW264392   1.388   6.851   0.095  1.8751  2.3574 -0.3872
21077SOL     OW64393   3.255   8.177   3.942 -0.3541  0.1914 -0.3962
21077SOL    HW164394   3.295   8.257   3.978  0.5900  0.4633 -1.9639
21077SOL    HW264395   3.182   8.159   4.001  0.9895  0.7026  1.5319
21078SOL     OW64396   1.873   1.182   7.818  0.4275 -0.4102 -0.4844
21078SOL    HW164397   1.801   1.127   7.785  0.8293 -0.4611 -1.2955
21078SOL    HW264398   1.833   1.268   7.829 -0.0166 -0.6799  0.0657
21079SOL     OW64399   4.703   2.725   6.319  0.7806  0.0335 -0.0577
21079SOL    HW164400   4.708   2.631   6.337  2.3247  0.0944 -0.0195
21079SOL    HW264401   4.620   2.736   6.274  1.8289 -1.8321 -2.7021
21080SOL     OW64402   6.142   8.273   2.499  0.0811  0.2443  0.2943
21080SOL    HW164403   6.235   8.290   2.511 -0.0298  1.9780 -1.0339
21080SOL    HW264404   6.121   8.206   2.565  2.6253 -1.5392 -0.5739
21081SOL     OW64405   6.202   0.657   1.038  0.1249 -0.1261  0.0492
21081SOL    HW164406   6.284   0.614   1.011 -0.7436 -1.8234 -0.0581
21081SOL    HW264407   6.137   0.626   0.975 -0.4525  1.9391 -0.4301
21082SOL     OW64408   4.778   1.991   0.986 -0.3115 -0.1950 -0.7628
21082SOL    HW164409   4.702   1.934   0.998 -1.3061  1.2005 -0.1580
21082SOL    HW264410   4.818   1.960   0.904 -1.2680 -1.2426 -0.8683
21083SOL     OW64411   8.511   4.122   5.750  0.4062  0.2880 -1.1847
21083SOL    HW164412   8.545   4.212   5.750  0.1000  0.4396  0.5234
21083SOL    HW264413   8.508   4.097   5.658  2.0677  1.4294 -1.5845
21084SOL     OW64414   2.115   2.142   5.875 -0.8811 -0.2535  0.1628
21084SOL    HW164415   2.201   2.128   5.916 -0.7879  1.0054  0.4249
21084SOL    HW264416   2.052   2.110   5.941 -0.6320 -1.1278 -0.0082
21085SOL     OW64417   8.281   1.513   1.163 -0.2208  0.1244  0.4703
21085SOL    HW164418   8.207   1.452   1.161 -0.7022  0.6517  1.3524
21085SOL    HW264419   8.307   1.522   1.071 -1.9532  0.7521  0.0033
21086SOL     OW64420   2.817   7.650   6.439  0.0726 -0.2681  0.4284
21086SOL    HW164421   2.722   7.646   6.424  0.2197  0.2367 -0.8210
21086SOL    HW264422   2.828   7.625   6.530 -1.0316 -2.9638 -0.0827
21087SOL     OW64423   7.796   8.468   2.345  0.4857  0.2275 -0.4254
21087SOL    HW164424   7.810   8.553   2.386 -1.1067  0.2250  0.1930
21087SOL    HW264425   7.855   8.409   2.392  0.7892  0.7673 -0.1157
21088SOL     OW64426   8.821   4.665   1.985  0.4299 -0.2055  0.0468
21088SOL    HW164427   8.839   4.677   1.892 -1.8029  1.6984 -0.2120
21088SOL    HW264428   8.797   4.572   1.992  1.4631 -0.5957 -1.0723
21089SOL     OW64429   6.132   0.218   5.415 -0.0660 -0.3114 -0.0808
21089SOL    HW164430   6.116   0.125   5.432  1.3562 -0.2347  1.9610
21089SOL    HW264431   6.223   0.232   5.442 -0.9061  2.1226  1.7870
21090SOL     OW64432   5.386   7.909   4.680  0.0773 -0.5827  0.0844
21090SOL    HW164433   5.354   7.966   4.610 -1.4265 -2.7689 -1.1243
21090SOL    HW264434   5.467   7.950   4.710  1.5289 -0.2490 -3.8391
21091SOL     OW64435   0.271   0.062   3.966  0.3958  0.0663 -0.4295
21091SOL    HW164436   0.177   0.055   3.946 -0.2083  1.9142  1.3038
21091SOL    HW264437   0.291   0.154   3.949  1.1902  0.3464  1.7363
21092SOL     OW64438   4.042   3.413   0.011 -0.4891 -0.1315 -0.6416
21092SOL    HW164439   4.021   3.506   0.024 -2.6247 -0.4374 -1.5085
21092SOL    HW264440   4.138   3.411   0.004 -0.4080  2.0359 -0.8690
21093SOL     OW64441   6.250   4.042   6.019  0.2082  0.3813  0.0705
21093SOL    HW164442   6.163   4.029   5.981  1.2842  0.2075 -2.6084
21093SOL    HW264443   6.271   3.958   6.059 -0.8359  0.4239  0.7360
21094SOL     OW64444   3.615   4.243   7.924 -0.0063  0.1793  0.4352
21094SOL    HW164445   3.648   4.160   7.892  0.8591  0.4648  0.5718
21094SOL    HW264446   3.535   4.221   7.972  1.7425 -0.9572  3.0214
21095SOL     OW64447   3.671   2.985   0.089  0.0519 -0.2549 -0.2874
21095SOL    HW164448   3.670   3.081   0.094 -0.5780 -0.1625 -1.7535
21095SOL    HW264449   3.730   2.965   0.017 -0.8219 -0.9138 -0.8364
21096SOL     OW64450   6.253   0.751   5.998  0.1793 -0.7842  0.5415
21096SOL    HW164451   6.243   0.752   6.093  0.4190  1.2954  0.5851
21096SOL    HW264452   6.348   0.756   5.983  0.0586  1.2787  0.2400
21097SOL     OW64453   0.123   5.789   2.292  0.2363 -0.1568 -0.0388
21097SOL    HW164454   0.191   5.809   2.228 -0.3613 -1.6940 -1.2316
21097SOL    HW264455   0.164   5.804   2.377  1.6820  0.0473 -0.7475
21098SOL     OW64456   2.929   5.504   4.255  0.1536  0.5748  0.1151
21098SOL    HW164457   2.912   5.596   4.234 -2.2776  0.9664  3.1129
21098SOL    HW264458   2.874   5.455   4.193 -0.2112  1.2355 -0.0930
21099SOL     OW64459   6.197   5.408   6.736 -0.6603  0.2704 -0.6351
21099SOL    HW164460   6.198   5.503   6.730 -0.7931  0.1875 -4.0389
21099SOL    HW264461   6.103   5.385   6.734 -0.7684 -0.0009  2.2498
21100SOL     OW64462   2.391   8.581   7.960  0.5217 -0.2797 -0.6745
21100SOL    HW164463   2.345   8.663   7.944  0.5918  0.0079  0.5195
21100SOL    HW264464   2.346   8.517   7.905 -0.1059  0.3745 -0.9385
21101SOL     OW64465   5.856   1.723   5.904  0.2668  0.4316  0.1596
21101SOL    HW164466   5.819   1.638   5.930 -0.2750 -0.6147 -3.4798
21101SOL    HW264467   5.946   1.721   5.937  0.1598 -1.4263  0.4504
21102SOL     OW64468   4.904   8.484   2.850  0.0818 -0.1951  0.0293
21102SOL    HW164469   4.883   8.391   2.856 -1.4125  0.2132  2.8499
21102SOL    HW264470   4.997   8.490   2.870  0.1886 -1.0718 -0.1817
21103SOL     OW64471   5.536   5.949   7.750 -0.8542  0.6457  0.7225
21103SOL    HW164472   5.464   5.980   7.695  0.0360  0.2475 -0.7080
21103SOL    HW264473   5.562   6.026   7.801 -2.2319  0.8087  1.2306
21104SOL     OW64474   0.415   2.636   4.435  0.0691  0.0036  0.2603
21104SOL    HW164475   0.367   2.692   4.496  1.4647  0.6600  0.8023
21104SOL    HW264476   0.425   2.690   4.357 -0.9310 -0.5078 -0.2386
21105SOL     OW64477   3.924   8.075   2.371 -0.4139 -0.4370 -0.3385
21105SOL    HW164478   3.936   7.984   2.397  0.0396  0.3883  2.7878
21105SOL    HW264479   4.013   8.111   2.370 -0.7742  0.6583  1.6601
21106SOL     OW64480   0.325   0.076   7.072 -0.3061  0.4309 -0.1670
21106SOL    HW164481   0.235   0.107   7.067 -0.2888  0.3878 -0.8330
21106SOL    HW264482   0.340   0.061   7.165 -0.8700  0.7806 -0.0161
21107SOL     OW64483   7.073   0.318   2.437 -0.1736 -0.5106 -0.4390
21107SOL    HW164484   7.087   0.413   2.426 -1.6165 -0.1051  0.8261
21107SOL    HW264485   7.028   0.311   2.521  1.6360 -2.5125  0.4430
21108SOL     OW64486   0.774   1.083   5.996  0.1014 -0.4216  0.2917
21108SOL    HW164487   0.723   1.164   5.988  1.8772  0.8185  0.9818
21108SOL    HW264488   0.728   1.020   5.941 -1.6419  0.8892  0.1762
21109SOL     OW64489   8.158   2.173   6.470  0.8826  0.0255 -0.2255
21109SOL    HW164490   8.205   2.243   6.426  0.1749  0.4586 -0.3093
21109SOL    HW264491   8.072   2.172   6.429  0.1115  0.6094  1.2875
21110SOL     OW64492   5.704   8.762   6.663 -0.3406 -0.5778  0.2551
21110SOL    HW164493   5.774   8.826   6.652 -0.3592 -0.2229  1.9734
21110SOL    HW264494   5.624   8.814   6.665 -0.3615 -0.6502  1.6044
21111SOL     OW64495   0.932   0.734   2.546  0.1763  0.4042  0.4752
21111SOL    HW164496   0.928   0.811   2.489  2.0624  0.1488 -0.0905
21111SOL    HW264497   0.917   0.660   2.486  1.1730  0.1919  0.4718
21112SOL     OW64498   6.063   3.257   8.306 -0.2823 -0.3248 -0.2958
21112SOL    HW164499   5.968   3.255   8.293 -0.3077  0.9822 -0.4290
21112SOL    HW264500   6.091   3.167   8.289 -1.6621 -1.0619  1.1069
21113SOL     OW64501   1.065   1.697   3.267 -0.2210 -0.2421  0.2941
21113SOL    HW164502   1.046   1.658   3.182  0.2718  0.4315 -0.1330
21113SOL    HW264503   0.984   1.739   3.293  0.2096  1.4056 -0.8625
21114SOL     OW64504   5.495   6.429   3.321  0.1542  0.0346  0.0559
21114SOL    HW164505   5.432   6.489   3.361 -0.6358 -0.6120 -0.1923
21114SOL    HW264506   5.464   6.417   3.232 -1.0660 -2.5218  0.7329
21115SOL     OW64507   0.912   4.403   1.271 -0.0740 -0.4192 -0.5130
21115SOL    HW164508   0.837   4.376   1.324  0.0900 -0.3515 -0.2440
21115SOL    HW264509   0.917   4.338   1.201  1.6487 -2.4034  1.3263
21116SOL     OW64510   3.849   7.341   2.460 -0.4462  0.4547 -0.2267
21116SOL    HW164511   3.885   7.298   2.382 -0.7944  0.4479 -0.3892
21116SOL    HW264512   3.858   7.276   2.530 -0.1024  0.4722 -0.2540
21117SOL     OW64513   2.648   2.943   7.881  0.3666 -0.4496 -0.1446
21117SOL    HW164514   2.682   2.889   7.809  1.3550  0.3812 -0.3269
21117SOL    HW264515   2.723   2.994   7.910 -0.5770  0.9533 -0.0794
21118SOL     OW64516   1.961   8.053   4.289  0.2989  0.0397  0.0460
21118SOL    HW164517   1.944   7.963   4.318 -0.6661  0.1909 -0.0322
21118SOL    HW264518   2.018   8.089   4.357  1.3177 -0.8531 -0.3039
21119SOL     OW64519   0.367   7.419   8.311  0.3348 -0.1574  0.2023
21119SOL    HW164520   0.391   7.493   8.368  1.4325 -0.3607  0.0218
21119SOL    HW264521   0.446   7.365   8.307 -0.0551 -0.6838 -0.6971
21120SOL     OW64522   5.450   3.106   5.324  0.0508 -0.3525  0.2310
21120SOL    HW164523   5.388   3.178   5.316  0.7668  0.2476 -0.1244
21120SOL    HW264524   5.437   3.072   5.412  0.8163  1.2935  1.0312
21121SOL     OW64525   4.993   7.307   1.604  0.1686  0.4834 -0.0047
21121SOL    HW164526   4.955   7.391   1.628  0.4721  0.4830  0.4929
21121SOL    HW264527   4.931   7.270   1.541 -0.2539  0.8288  0.2022
21122SOL     OW64528   8.298   2.429   7.618  0.2734 -0.1158 -0.1050
21122SOL    HW164529   8.389   2.444   7.644  0.3970 -1.0267  0.0130
21122SOL    HW264530   8.262   2.517   7.605  0.8460  0.2894  0.9384
21123SOL     OW64531   5.672   1.975   8.290  1.0482 -0.5489 -0.2729
21123SOL    HW164532   5.729   1.902   8.265  0.0453 -1.2162 -0.6887
21123SOL    HW264533   5.660   1.965   8.384 -0.1477 -1.7281 -0.5293
21124SOL     OW64534   3.485   2.479   6.184  0.9335  0.0572  0.0338
21124SOL    HW164535   3.560   2.527   6.220  0.4280  1.4700 -0.7515
21124SOL    HW264536   3.408   2.529   6.211  0.3648 -0.4445 -0.6027
21125SOL     OW64537   7.199   6.447   3.311  0.2446  0.1086 -0.2065
21125SOL    HW164538   7.164   6.465   3.223 -0.8651  0.3861  0.2704
21125SOL    HW264539   7.289   6.417   3.296  0.2665  0.7155 -1.3956
21126SOL     OW64540   5.600   0.903   6.373 -0.1319 -0.1558 -0.2900
21126SOL    HW164541   5.682   0.857   6.355  0.2155  0.2920  0.1325
21126SOL    HW264542   5.534   0.833   6.376  0.5340 -0.7495  1.2816
21127SOL     OW64543   5.882   8.042   6.239  0.5629 -0.4399  0.2311
21127SOL    HW164544   5.837   7.967   6.279  0.6422  1.2064  3.7790
21127SOL    HW264545   5.970   8.041   6.276  0.5325  1.4316  0.4665
21128SOL     OW64546   5.628   5.074   7.789  0.1452 -0.0443  0.2091
21128SOL    HW164547   5.601   5.041   7.875  0.0355 -0.4359  0.0246
21128SOL    HW264548   5.723   5.071   7.791  0.1367 -0.2923  0.2212
21129SOL     OW64549   6.956   5.290   0.369 -0.5899 -0.4099 -0.5051
21129SOL    HW164550   7.039   5.249   0.345 -0.7708 -0.2862 -1.4045
21129SOL    HW264551   6.889   5.232   0.333 -0.8523  0.4725 -1.5072
21130SOL     OW64552   1.424   4.704   2.765  0.2014  0.8752 -0.0348
21130SOL    HW164553   1.335   4.714   2.730  0.9726  2.4103 -1.7007
21130SOL    HW264554   1.429   4.612   2.792 -1.9623  0.8268  0.3783
21131SOL     OW64555   5.047   8.011   5.330 -0.1136  0.2740 -0.2116
21131SOL    HW164556   5.015   7.962   5.405 -0.4483  0.0695 -0.4859
21131SOL    HW264557   5.014   8.100   5.342 -2.4338 -0.3395 -1.4396
21132SOL     OW64558   3.037   0.231   5.883  0.1723 -0.4354  0.0782
21132SOL    HW164559   3.127   0.205   5.903  0.3420 -0.7909 -1.0540
21132SOL    HW264560   3.046   0.299   5.816 -0.4093 -1.1077 -0.7112
21133SOL     OW64561   5.512   7.085   2.319  0.5560 -0.1258 -0.2506
21133SOL    HW164562   5.539   6.996   2.297  1.6497  0.4688 -1.4445
21133SOL    HW264563   5.593   7.128   2.347  0.5332  1.1206 -1.9234
21134SOL     OW64564   6.250   5.366   4.647  0.3348 -0.1581 -0.0118
21134SOL    HW164565   6.344   5.354   4.660  0.1481 -0.5717  1.0414
21134SOL    HW264566   6.227   5.439   4.705  0.1495  0.5601 -0.9454
21135SOL     OW64567   6.846   2.106   3.372 -0.5696 -0.1223 -0.1891
21135SOL    HW164568   6.764   2.155   3.368 -1.4612 -1.6600 -1.8670
21135SOL    HW264569   6.829   2.026   3.324  0.5576 -2.5391  3.0729
21136SOL     OW64570   8.412   7.176   5.012 -0.1109  0.8554  0.0819
21136SOL    HW164571   8.319   7.199   5.011  0.1627  2.0399 -0.5323
21136SOL    HW264572   8.428   7.140   5.099 -0.7971  2.2042  0.7921
21137SOL     OW64573   4.394   1.701   8.510 -0.5636  0.0781  0.4216
21137SOL    HW164574   4.335   1.660   8.447 -0.8878 -0.2407  0.9232
21137SOL    HW264575   4.338   1.723   8.584 -0.2105  0.5688  0.5481
21138SOL     OW64576   7.206   0.936   5.841  0.2770 -0.1039 -0.2828
21138SOL    HW164577   7.216   0.870   5.773  0.5352  0.0008 -0.3468
21138SOL    HW264578   7.112   0.952   5.845  0.1801 -0.6778 -0.0773
21139SOL     OW64579   6.203   7.043   5.106 -0.0521  0.0700 -1.1351
21139SOL    HW164580   6.296   7.030   5.122 -0.3177 -0.9113 -0.2434
21139SOL    HW264581   6.181   6.977   5.040 -0.1441  0.2035 -1.2379
21140SOL     OW64582   4.801   0.636   5.100 -0.4892 -0.2530 -0.2819
21140SOL    HW164583   4.768   0.643   5.190 -0.4545 -3.0762  0.0514
21140SOL    HW264584   4.737   0.683   5.047 -0.4109  1.6517  1.1809
21141SOL     OW64585   0.215   7.363   4.881  0.1078 -0.2443 -0.0921
21141SOL    HW164586   0.171   7.429   4.935 -0.0057 -0.0369 -0.4319
21141SOL    HW264587   0.174   7.372   4.795  0.3010 -0.5557 -0.2172
21142SOL     OW64588   3.514   6.504   4.752 -0.8641 -0.2302 -0.0137
21142SOL    HW164589   3.595   6.513   4.803  1.1590 -1.8068 -2.6971
21142SOL    HW264590   3.506   6.587   4.705  0.5302 -0.8872 -1.4685
21143SOL     OW64591   3.474   4.611   8.835  0.2544  1.0283  0.6025
21143SOL    HW164592   3.435   4.557   8.903  1.0120  1.4903  1.4275
21143SOL    HW264593   3.468   4.559   8.755 -0.0904  0.2235  1.1490
21144SOL     OW64594   0.734   2.245   5.527 -0.0913  0.4573 -0.3525
21144SOL    HW164595   0.798   2.196   5.579 -2.2768 -0.8308  1.2705
21144SOL    HW264596   0.760   2.336   5.536  1.0540  0.0396  0.8809
21145SOL     OW64597   0.648   7.948   4.041 -0.1816 -0.3489  0.3667
21145SOL    HW164598   0.593   7.981   3.970  0.0121  0.0542  0.4001
21145SOL    HW264599   0.634   8.009   4.113 -0.3958 -0.7695  0.6906
21146SOL     OW64600   4.779   2.881   0.965  0.0025  0.4237 -0.0093
21146SOL    HW164601   4.800   2.973   0.977 -1.0563  0.4308  2.2162
21146SOL    HW264602   4.864   2.836   0.965  0.3916  1.0528  2.6337
21147SOL     OW64603   4.849   1.109   7.408  0.0623 -0.8991  0.2170
21147SOL    HW164604   4.788   1.041   7.439  0.9022 -0.5214  2.9578
21147SOL    HW264605   4.794   1.185   7.392 -0.3840 -0.9558  1.3881
21148SOL     OW64606   6.660   2.500   8.688 -0.3807  0.7686  0.1522
21148SOL    HW164607   6.711   2.547   8.754 -0.8538 -1.2292  2.0603
21148SOL    HW264608   6.725   2.470   8.624  0.7273 -0.5292  1.7852
21149SOL     OW64609   4.735   8.248   0.232  0.2548 -0.2933  0.0968
21149SOL    HW164610   4.687   8.301   0.169 -1.1576 -0.0404  1.3228
21149SOL    HW264611   4.818   8.293   0.243 -0.9214  1.8009  1.1440
21150SOL     OW64612   0.953   4.201   5.406  0.3478 -0.6844 -0.3466
21150SOL    HW164613   1.037   4.211   5.362  0.3628 -1.0262 -0.3965
21150SOL    HW264614   0.923   4.114   5.380  0.1699 -0.7254 -0.0021
21151SOL     OW64615   5.750   5.154   4.793 -0.3356  0.8481 -0.5296
21151SOL    HW164616   5.714   5.201   4.718 -1.3329  0.0512 -0.5630
21151SOL    HW264617   5.828   5.110   4.758 -0.9720  0.2257 -1.1801
21152SOL     OW64618   5.791   6.941   8.027 -0.2712 -0.4205 -0.1439
21152SOL    HW164619   5.873   6.919   8.071  0.4871  0.9566 -0.7942
21152SOL    HW264620   5.785   6.878   7.955 -0.4269 -1.2982  0.6117
21153SOL     OW64621   7.792   0.037   7.543 -0.4050  0.2034 -0.2244
21153SOL    HW164622   7.836   0.015   7.461 -4.2187 -2.9845 -1.7369
21153SOL    HW264623   7.828  -0.024   7.607 -0.3302 -0.1622 -0.6099
21154SOL     OW64624   2.350   3.491   7.734  0.3934 -0.0688 -0.3342
21154SOL    HW164625   2.262   3.482   7.772  0.3240 -0.1453 -0.5123
21154SOL    HW264626   2.409   3.465   7.804  0.2520 -0.5446 -0.3869
21155SOL     OW64627   5.920   7.222   3.764  0.0104 -0.4599  0.0592
21155SOL    HW164628   5.861   7.196   3.835 -0.3750  0.8802  0.2548
21155SOL    HW264629   5.962   7.140   3.736 -1.9290 -1.4589 -0.0878
21156SOL     OW64630   3.807   4.743   2.305 -0.1374 -0.4385  0.4278
21156SOL    HW164631   3.754   4.820   2.325  0.8782 -0.0669  1.8632
21156SOL    HW264632   3.844   4.761   2.218 -0.8849  0.1270  0.2186
21157SOL     OW64633   5.552   4.139   2.712  0.5065 -0.5910 -0.3368
21157SOL    HW164634   5.470   4.108   2.675  0.2801 -1.7144  1.0244
21157SOL    HW264635   5.538   4.137   2.806  1.7104  0.3270 -0.1138
21158SOL     OW64636   0.051   8.515   6.447  0.0039 -0.3522 -0.1980
21158SOL    HW164637  -0.011   8.486   6.380 -0.4803 -0.1845  0.1740
21158SOL    HW264638   0.108   8.576   6.401  0.8064 -1.5856 -0.8992
21159SOL     OW64639   8.788   3.502   4.647  0.1286 -0.3974 -0.6344
21159SOL    HW164640   8.732   3.579   4.631 -1.1985 -0.6028  2.3275
21159SOL    HW264641   8.773   3.445   4.572 -1.7890  0.6479 -1.1106
21160SOL     OW64642   0.535   7.070   3.316 -0.1425  0.2990 -0.0098
21160SOL    HW164643   0.593   7.143   3.336 -1.3290  0.8971  1.5058
21160SOL    HW264644   0.450   7.098   3.350 -1.1611 -0.8413 -1.5043
21161SOL     OW64645   5.607   3.451   1.287 -0.1007  0.2459  0.1771
21161SOL    HW164646   5.640   3.538   1.310 -0.3128  0.0695  1.1994
21161SOL    HW264647   5.513   3.463   1.278 -0.0021  0.3494 -0.8318
21162SOL     OW64648   3.043   6.477   3.275  0.1424 -0.2772  0.6134
21162SOL    HW164649   3.114   6.434   3.227 -0.6088 -0.0062 -0.8079
21162SOL    HW264650   3.048   6.568   3.248 -0.7212 -0.2491  0.5190
21163SOL     OW64651   2.026   5.549   2.266 -0.4690  0.6087 -0.2873
21163SOL    HW164652   1.956   5.594   2.219 -0.8461  0.2601 -0.0760
21163SOL    HW264653   2.015   5.457   2.242 -0.4149  0.4831  0.1613
21164SOL     OW64654   2.449   6.369   7.103  0.3697  0.0748 -0.3659
21164SOL    HW164655   2.386   6.358   7.174  0.6559  0.3525 -0.0655
21164SOL    HW264656   2.490   6.283   7.094 -0.0875 -0.1240 -0.6030
21165SOL     OW64657   7.020   4.013   7.620  0.4851  0.5335 -0.0258
21165SOL    HW164658   6.956   4.030   7.551 -0.5439 -1.8032  0.2596
21165SOL    HW264659   7.104   4.035   7.581 -0.2704  1.3451 -1.2584
21166SOL     OW64660   3.793   0.716   5.807  0.6047 -0.0144 -0.1594
21166SOL    HW164661   3.794   0.626   5.775  1.3374 -0.0151 -0.1395
21166SOL    HW264662   3.700   0.737   5.815  0.4254 -0.8924  0.1786
21167SOL     OW64663   0.879   3.982   3.415 -0.3402  0.0194 -0.4857
21167SOL    HW164664   0.929   4.052   3.459 -0.0281  0.3578 -1.3549
21167SOL    HW264665   0.856   4.019   3.330  0.2013 -1.0883 -1.1399
21168SOL     OW64666   8.419   0.586   5.328 -0.3884 -0.0212 -0.3763
21168SOL    HW164667   8.445   0.651   5.263  0.3979  1.3212  1.2013
21168SOL    HW264668   8.357   0.530   5.282 -2.1645  2.6237 -1.4734
21169SOL     OW64669   3.633   3.046   8.636 -0.3783  0.0775 -0.5147
21169SOL    HW164670   3.698   3.013   8.698 -2.7555 -1.7655  1.1878
21169SOL    HW264671   3.580   2.969   8.614 -0.6332  1.0263 -3.6460
21170SOL     OW64672   8.403   6.824   2.077 -0.8763 -0.1736 -0.6867
21170SOL    HW164673   8.491   6.857   2.060 -0.9310  0.7347  0.6226
21170SOL    HW264674   8.349   6.862   2.009 -0.2341 -0.8991 -1.6229
21171SOL     OW64675   3.226   7.692   8.656 -0.1377 -0.0468 -0.3515
21171SOL    HW164676   3.186   7.772   8.623  0.1329  0.1264 -0.2617
21171SOL    HW264677   3.277   7.659   8.582 -0.0872 -0.0289 -0.3244
21172SOL     OW64678   3.999   1.404   2.518 -0.4923 -0.0733 -0.2817
21172SOL    HW164679   4.070   1.353   2.478 -0.5427 -0.9452  0.6922
21172SOL    HW264680   3.987   1.365   2.604 -0.4526  1.6884  0.5698
21173SOL     OW64681   7.441   4.575   6.833  0.1931 -1.0189 -0.0651
21173SOL    HW164682   7.404   4.598   6.748  1.0312  0.8448  0.0179
21173SOL    HW264683   7.386   4.621   6.896  0.5365 -1.0913  0.2891
21174SOL     OW64684   2.319   3.319   4.803 -0.4427 -0.1359  0.3672
21174SOL    HW164685   2.371   3.363   4.736 -1.0077  1.1462  0.7316
21174SOL    HW264686   2.238   3.370   4.807 -0.7207 -0.6358  1.5056
21175SOL     OW64687   7.683   1.188   6.640  0.1275  0.1350 -0.0153
21175SOL    HW164688   7.635   1.122   6.690 -2.7921  0.8324 -1.6483
21175SOL    HW264689   7.714   1.142   6.562  1.7081 -0.1662  0.7459
21176SOL     OW64690   2.807   1.185   4.816 -0.3641  0.0330  0.2550
21176SOL    HW164691   2.834   1.094   4.803  0.1136 -0.1239  2.0883
21176SOL    HW264692   2.879   1.237   4.780  0.4705 -0.3526  1.3403
21177SOL     OW64693   3.820   1.946   6.750 -0.6437  0.0321  0.0903
21177SOL    HW164694   3.796   1.992   6.669  2.1173 -0.6733 -1.2617
21177SOL    HW264695   3.844   1.858   6.721 -0.0438 -0.3934  1.7716
21178SOL     OW64696   3.450   4.185   4.770  0.2952 -0.4553 -0.8060
21178SOL    HW164697   3.454   4.254   4.836 -0.9393 -0.5391 -0.6244
21178SOL    HW264698   3.489   4.225   4.692  1.5496 -0.2801 -0.1232
21179SOL     OW64699   6.990   2.833   5.902  0.0655 -0.0286 -0.1922
21179SOL    HW164700   7.010   2.755   5.851  0.8476 -0.8031  1.2181
21179SOL    HW264701   7.067   2.889   5.893  0.1097 -0.0666 -0.0592
21180SOL     OW64702   4.874   1.224   1.963  0.3396 -0.6236  0.2971
21180SOL    HW164703   4.938   1.154   1.957  0.4076 -0.6424  1.0718
21180SOL    HW264704   4.859   1.235   2.058 -0.7103 -0.5462  0.1401
21181SOL     OW64705   0.870   2.939   7.820 -0.5040 -0.3083  0.3062
21181SOL    HW164706   0.928   2.894   7.882 -0.1814  0.6670  0.7254
21181SOL    HW264707   0.835   3.013   7.869 -0.5244  0.2799 -0.5755
21182SOL     OW64708   6.882   2.485   4.704  0.6104  0.1401  0.0330
21182SOL    HW164709   6.898   2.393   4.721  0.0940  0.0380  0.0030
21182SOL    HW264710   6.855   2.488   4.612  0.5751  0.3106  0.0473
21183SOL     OW64711   2.190   0.758   1.407 -0.2040  0.2406  0.5750
21183SOL    HW164712   2.265   0.715   1.365 -0.0545 -0.3517  1.4136
21183SOL    HW264713   2.158   0.693   1.470 -1.4353  0.4787  0.2214
21184SOL     OW64714   5.443   6.740   7.497 -0.3912 -0.7848  0.2902
21184SOL    HW164715   5.457   6.650   7.468 -1.5890 -0.6476 -0.7797
21184SOL    HW264716   5.475   6.741   7.588 -0.3347 -2.2663  0.3154
21185SOL     OW64717   3.639   0.673   8.571  0.2759  0.0017  0.4490
21185SOL    HW164718   3.694   0.599   8.598  0.3445 -0.5660 -1.1085
21185SOL    HW264719   3.592   0.641   8.494 -0.0666  1.4135  0.0325
21186SOL     OW64720   3.191   5.644   4.301 -0.2343 -0.2304 -0.8711
21186SOL    HW164721   3.118   5.583   4.290 -1.7361  0.6012  3.0953
21186SOL    HW264722   3.165   5.722   4.253 -1.5032 -0.3077 -0.3314
21187SOL     OW64723   3.624   5.656   8.827 -0.2257 -0.1199 -0.1787
21187SOL    HW164724   3.646   5.565   8.806  1.2741  0.1811  0.0058
21187SOL    HW264725   3.700   5.707   8.799 -1.1374  1.1205 -0.4894
21188SOL     OW64726   2.081   8.485   8.746  0.4646  0.5055 -0.2071
21188SOL    HW164727   2.151   8.551   8.751  1.8936 -0.9038 -0.9379
21188SOL    HW264728   2.121   8.411   8.701 -0.7130 -1.3546  1.6310
21189SOL     OW64729   1.455   1.874   6.086 -0.2144 -0.4094 -0.3748
21189SOL    HW164730   1.474   1.959   6.046 -2.8770  0.8923  0.8378
21189SOL    HW264731   1.496   1.878   6.173 -1.7905  0.4276  0.3707
21190SOL     OW64732   3.750   7.061   6.946  0.3022 -0.2189  0.2824
21190SOL    HW164733   3.809   7.003   6.898 -0.2396  0.5533 -1.4237
21190SOL    HW264734   3.745   7.140   6.891 -2.8103 -0.5149 -0.0348
21191SOL     OW64735   1.829   5.253   1.094  0.1412  0.0068 -0.3183
21191SOL    HW164736   1.786   5.281   1.013  1.3430 -1.1614 -1.4218
21191SOL    HW264737   1.863   5.333   1.133 -0.5800  0.6048 -0.8998
21192SOL     OW64738   3.267   5.121   0.286  0.0280  1.0087 -0.6128
21192SOL    HW164739   3.314   5.148   0.365  1.2255  0.2633 -1.0491
21192SOL    HW264740   3.208   5.052   0.315  1.7727 -0.5694 -0.6360
21193SOL     OW64741   2.860   5.045   5.899 -0.2219  0.1595 -0.2175
21193SOL    HW164742   2.866   5.116   5.835 -0.7356  1.8139  1.4734
21193SOL    HW264743   2.850   4.966   5.847  0.5962  1.2921 -2.1845
21194SOL     OW64744   4.511   0.255   2.506  0.0851  0.3310  0.0695
21194SOL    HW164745   4.465   0.193   2.449  2.3612 -0.5535 -0.9057
21194SOL    HW264746   4.520   0.334   2.452 -0.5963  0.6567  0.4130
21195SOL     OW64747   6.598   6.488   5.379  0.4480 -0.1073  0.5065
21195SOL    HW164748   6.621   6.420   5.316 -0.6319 -0.1965  0.1892
21195SOL    HW264749   6.664   6.480   5.448  0.0402 -1.8313  0.7436
21196SOL     OW64750   3.117   5.376   8.346 -0.0362  0.3381  0.3693
21196SOL    HW164751   3.108   5.467   8.372  1.6556  0.1241  1.8419
21196SOL    HW264752   3.154   5.379   8.258 -2.2627  1.0316 -0.6245
21197SOL     OW64753   8.205   4.176   8.054 -0.4940 -0.1570 -0.5028
21197SOL    HW164754   8.180   4.220   7.973  0.6267  2.0987  0.2944
21197SOL    HW264755   8.277   4.119   8.029 -0.4594  0.1672 -1.1692
21198SOL     OW64756   5.948   8.506   7.689 -0.2326  0.3718 -0.2269
21198SOL    HW164757   5.943   8.453   7.769 -0.1888  1.3155  0.4225
21198SOL    HW264758   5.892   8.581   7.707  0.7930  1.2448 -0.5771
21199SOL     OW64759   1.131   4.340   7.250 -0.7033 -0.1266 -0.5650
21199SOL    HW164760   1.045   4.297   7.246 -1.0088  0.4770 -0.5018
21199SOL    HW264761   1.136   4.393   7.171 -0.0184 -0.8243 -1.0119
21200SOL     OW64762   6.441   7.181   2.998  0.4491 -0.6496 -0.6063
21200SOL    HW164763   6.491   7.151   2.921  0.3491  0.4356 -1.1116
21200SOL    HW264764   6.463   7.118   3.067  1.3390 -1.0583 -1.2446
21201SOL     OW64765   5.551   3.061   5.920  0.5569  0.3009  0.5466
21201SOL    HW164766   5.478   3.091   5.975 -1.4116 -1.3606 -0.9744
21201SOL    HW264767   5.559   2.968   5.940  1.1342  0.1103 -0.5008
21202SOL     OW64768   5.307   4.980   6.738  0.2914 -0.7933 -0.1704
21202SOL    HW164769   5.235   5.010   6.683  1.6425 -0.7454 -2.0163
21202SOL    HW264770   5.311   4.886   6.724  1.1491 -0.6749 -0.8637
21203SOL     OW64771   2.175   3.216   0.996 -0.4476 -0.6121 -0.3554
21203SOL    HW164772   2.153   3.289   1.053  0.9067 -1.0511  0.7857
21203SOL    HW264773   2.271   3.216   0.992 -0.4224 -2.2425 -0.4083
21204SOL     OW64774   1.573   1.390   6.959  0.0365 -0.4687 -0.2767
21204SOL    HW164775   1.638   1.423   7.021 -0.0981 -1.5868  0.4828
21204SOL    HW264776   1.575   1.295   6.970 -1.8891 -0.5174 -0.0608
21205SOL     OW64777   8.106   4.917   1.218  0.2473  0.4429  0.5854
21205SOL    HW164778   8.068   4.839   1.177 -0.6415  0.5171  1.2418
21205SOL    HW264779   8.130   4.888   1.306  0.4671  0.7510  0.6271
21206SOL     OW64780   3.557   4.044   7.184  0.2896  0.7657  0.0437
21206SOL    HW164781   3.521   4.118   7.232  1.2190  0.7265  0.8297
21206SOL    HW264782   3.614   4.083   7.118 -0.9030  0.8157 -0.9765
21207SOL     OW64783   8.617   1.714   6.604  0.1941 -0.6675  0.0744
21207SOL    HW164784   8.521   1.707   6.608  0.1790 -0.4379  0.1257
21207SOL    HW264785   8.644   1.712   6.696  0.2035 -0.2492  0.0815
21208SOL     OW64786   0.107   6.215   7.648 -0.3418 -0.1406  0.3547
21208SOL    HW164787   0.113   6.186   7.739  0.0648  0.1441  0.4194
21208SOL    HW264788   0.109   6.134   7.597 -3.4986 -0.5602  0.6983
21209SOL     OW64789   0.815   5.295   8.198 -0.0313 -0.3892 -0.3041
21209SOL    HW164790   0.865   5.291   8.279 -0.7022 -0.0876  0.1371
21209SOL    HW264791   0.880   5.284   8.129  0.9660  2.0171  0.1482
21210SOL     OW64792   2.551   8.257   6.119  0.1585 -0.4227 -0.2949
21210SOL    HW164793   2.645   8.271   6.134  0.0007  2.1621 -1.2320
21210SOL    HW264794   2.548   8.194   6.046  1.1862 -0.2479 -0.5125
21211SOL     OW64795   4.125   8.550   5.406  0.1080 -0.6223  0.7813
21211SOL    HW164796   4.038   8.543   5.445 -0.7389  0.0630 -0.8924
21211SOL    HW264797   4.173   8.474   5.440 -1.2904 -1.2843  1.3382
21212SOL     OW64798   6.190   0.153   7.545  0.2815 -0.0084  0.0162
21212SOL    HW164799   6.246   0.090   7.500  0.9118  0.1428  0.5536
21212SOL    HW264800   6.220   0.238   7.514  0.9126  0.1106  0.8949
21213SOL     OW64801   6.049   2.783   5.255 -0.7260 -0.5330  0.2410
21213SOL    HW164802   6.007   2.854   5.304 -0.1240  1.0351 -1.4324
21213SOL    HW264803   5.996   2.773   5.176 -0.1083 -1.1535 -0.1059
21214SOL     OW64804   1.753   3.411   0.876 -0.0852  0.2634  0.3176
21214SOL    HW164805   1.726   3.418   0.784 -0.6177  0.5731  0.4948
21214SOL    HW264806   1.746   3.317   0.895  1.2613  0.0133 -0.3172
21215SOL     OW64807   2.386   4.642   6.305 -0.2554 -0.2234 -0.0237
21215SOL    HW164808   2.444   4.572   6.337 -0.8064 -0.4447  0.5026
21215SOL    HW264809   2.428   4.723   6.334  1.2163 -0.2156 -1.9515
21216SOL     OW64810   3.449   2.664   6.751  0.4925  0.5947 -0.0889
21216SOL    HW164811   3.448   2.579   6.707  0.0930  0.4976  0.1054
21216SOL    HW264812   3.405   2.648   6.834 -0.9910  1.3516 -0.7122
21217SOL     OW64813   5.416   0.288   4.382  0.3400 -0.0853  0.0116
21217SOL    HW164814   5.430   0.224   4.312 -0.0331 -0.6603  0.4590
21217SOL    HW264815   5.502   0.328   4.395  0.4288 -0.0200 -0.7252
21218SOL     OW64816   1.651   1.393   4.078  0.3726 -0.0791  0.2509
21218SOL    HW164817   1.635   1.478   4.038  0.1654  0.8207  2.1144
21218SOL    HW264818   1.696   1.414   4.160  1.0942 -1.8429  0.3507
21219SOL     OW64819   7.227   8.376   4.125  0.4096  0.9790 -0.5254
21219SOL    HW164820   7.185   8.429   4.058 -1.3343 -0.1934 -0.4368
21219SOL    HW264821   7.186   8.290   4.116  0.0666  0.7977  2.0469
21220SOL     OW64822   1.757   1.217   5.216 -0.5021 -0.8510 -0.5360
21220SOL    HW164823   1.807   1.231   5.296 -3.3676 -0.4809  1.3325
21220SOL    HW264824   1.757   1.303   5.172  0.6614 -0.9332 -0.7301
21221SOL     OW64825   7.166   1.293   6.971  0.2188  0.2687  0.4225
21221SOL    HW164826   7.185   1.384   6.990 -1.3181  0.6058  0.5189
21221SOL    HW264827   7.235   1.244   7.016  1.1966  1.3784  0.1694
21222SOL     OW64828   4.641   2.248   6.652 -0.4054  0.7379  0.1314
21222SOL    HW164829   4.615   2.224   6.741 -1.1729  1.0235 -0.0076
21222SOL    HW264830   4.572   2.307   6.621 -0.3524  0.3423 -0.7895
21223SOL     OW64831   4.741   0.757   3.998 -0.3393 -0.4296  0.2826
21223SOL    HW164832   4.772   0.839   3.961 -1.3051  0.2249  0.8902
21223SOL    HW264833   4.751   0.768   4.092 -1.6691 -0.4850  0.4519
21224SOL     OW64834   2.513   5.086   2.415  0.7280 -0.3700 -0.3080
21224SOL    HW164835   2.470   5.096   2.499 -0.3988  3.3937 -1.1358
21224SOL    HW264836   2.493   4.997   2.387 -0.7558 -0.9585  2.3743
21225SOL     OW64837   6.494   0.127   3.411  0.2808  0.3732 -0.7462
21225SOL    HW164838   6.525   0.216   3.426  1.0713 -0.1860  1.3345
21225SOL    HW264839   6.459   0.100   3.496 -1.7236 -0.6661 -1.8134
21226SOL     OW64840   3.609   3.933   1.526  0.1955 -0.1480 -0.7547
21226SOL    HW164841   3.592   4.003   1.589 -1.3227 -1.6576  0.6074
21226SOL    HW264842   3.701   3.910   1.540  0.2522  0.4427 -0.0720
21227SOL     OW64843   2.350   3.946   5.356 -0.0921 -0.2781  0.0747
21227SOL    HW164844   2.291   4.016   5.326 -0.5399 -1.2509 -1.4032
21227SOL    HW264845   2.300   3.901   5.425 -0.3645 -0.0014  0.0608
21228SOL     OW64846   7.601   0.702   1.543  0.2407 -0.1280 -0.0360
21228SOL    HW164847   7.650   0.735   1.468  0.7603 -2.4802 -0.8271
21228SOL    HW264848   7.655   0.632   1.578 -1.1917 -0.8172  0.9055
21229SOL     OW64849   4.164   8.341   8.268 -0.0893  0.6769 -0.6119
21229SOL    HW164850   4.217   8.408   8.225 -0.1477  1.6296  0.7483
21229SOL    HW264851   4.211   8.259   8.252  1.0541  1.3198 -0.5959
21230SOL     OW64852   2.454   8.432   1.368  0.5130  0.1182 -0.1559
21230SOL    HW164853   2.431   8.450   1.459  0.5193 -1.1173  0.1108
21230SOL    HW264854   2.473   8.518   1.331 -4.0015  1.2932 -0.2966
21231SOL     OW64855   3.651   1.436   3.919  0.0459  0.3993  0.1255
21231SOL    HW164856   3.677   1.510   3.975  0.9489  0.9590 -0.9695
21231SOL    HW264857   3.640   1.476   3.832 -0.8939 -0.5176 -0.1866
21232SOL     OW64858   6.546   1.774   0.503  0.3305 -0.4632  0.2118
21232SOL    HW164859   6.479   1.796   0.440 -0.4853 -1.8998  0.5192
21232SOL    HW264860   6.623   1.825   0.477 -0.9653  1.5423  0.1057
21233SOL     OW64861   3.415   4.685   3.182  0.3508 -0.0302 -0.0901
21233SOL    HW164862   3.476   4.721   3.117 -0.1523  0.9032 -0.0595
21233SOL    HW264863   3.436   4.732   3.262 -1.5624  1.6120 -0.4831
21234SOL     OW64864   1.624   2.289   5.113  0.1529  0.1730  0.1309
21234SOL    HW164865   1.588   2.297   5.202 -1.7160  2.0195 -0.7241
21234SOL    HW264866   1.565   2.229   5.068 -1.0109  1.9434 -0.8088
21235SOL     OW64867   7.575   1.501   0.410 -0.3048  0.5535 -0.0484
21235SOL    HW164868   7.634   1.534   0.342  0.3495  2.5263  1.4158
21235SOL    HW264869   7.488   1.515   0.374  0.0488  0.4747 -0.9696
21236SOL     OW64870   3.494   3.900   4.814 -0.1629 -0.2016 -0.3162
21236SOL    HW164871   3.461   3.904   4.904 -1.8524 -1.5512 -0.8333
21236SOL    HW264872   3.505   3.991   4.788 -0.7338  0.2270  0.8838
21237SOL     OW64873   8.260   8.061   6.645 -0.0408 -0.5559 -0.8054
21237SOL    HW164874   8.259   8.061   6.741 -0.8503  0.5925 -0.7851
21237SOL    HW264875   8.347   8.029   6.622  0.4145 -0.2129  0.3256
21238SOL     OW64876   5.961   6.463   6.542 -0.0799 -0.0648 -0.2360
21238SOL    HW164877   5.965   6.417   6.457  0.2458 -1.9657  0.7467
21238SOL    HW264878   6.028   6.531   6.535 -1.5490  1.3064 -2.2827
21239SOL     OW64879   4.777   0.642   6.548  0.0783 -0.0429 -0.3403
21239SOL    HW164880   4.853   0.687   6.586  0.2368  0.0917 -0.8129
21239SOL    HW264881   4.725   0.615   6.624 -0.5082  1.7489 -0.0819
21240SOL     OW64882   6.799   7.713   0.345  0.3295  0.3018  0.1242
21240SOL    HW164883   6.835   7.642   0.291  0.0160 -1.6365  2.3056
21240SOL    HW264884   6.861   7.721   0.417 -0.5918  1.0093  0.8587
21241SOL     OW64885   6.896   2.780   8.566 -0.0423  0.5025  0.1266
21241SOL    HW164886   6.859   2.712   8.511 -1.5577  1.5722 -0.2393
21241SOL    HW264887   6.990   2.779   8.547 -0.2435 -0.5515 -0.8761
21242SOL     OW64888   3.408   7.413   6.927  0.3987 -0.1741 -0.5024
21242SOL    HW164889   3.440   7.473   6.859  0.5699  0.1471 -0.1465
21242SOL    HW264890   3.356   7.349   6.880 -3.3597  2.5897 -0.5753
21243SOL     OW64891   0.033   3.090   7.463  0.2560  0.9115  0.5319
21243SOL    HW164892   0.050   3.142   7.541  0.4403  1.9983 -0.2092
21243SOL    HW264893   0.114   3.041   7.448 -0.7756 -1.7590  2.7603
21244SOL     OW64894   7.942   2.474   3.576  0.4419  0.2315 -0.3607
21244SOL    HW164895   7.863   2.499   3.528  0.1138  0.3973  0.2564
21244SOL    HW264896   8.007   2.540   3.552 -0.1042  1.0711  0.4293
21245SOL     OW64897   1.785   0.776   5.741  0.4522 -0.1635 -0.0019
21245SOL    HW164898   1.852   0.720   5.780  1.0453  0.3640 -0.2492
21245SOL    HW264899   1.834   0.841   5.691 -0.2801 -0.6850 -1.4639
21246SOL     OW64900   5.576   2.242   2.985 -0.3030  0.2124 -0.9220
21246SOL    HW164901   5.554   2.294   3.063 -2.4956 -0.6323 -0.9078
21246SOL    HW264902   5.493   2.235   2.938  0.7703 -0.1617 -2.8288
21247SOL     OW64903   1.822   5.332   2.891  0.2462  0.7217 -0.3141
21247SOL    HW164904   1.764   5.407   2.876 -0.1782  0.2542 -1.0411
21247SOL    HW264905   1.770   5.256   2.867  0.8122  0.2161  0.0403
21248SOL     OW64906   0.057   8.444   7.517 -0.1703 -0.3751  0.4136
21248SOL    HW164907  -0.024   8.487   7.547 -0.1789 -0.4432  0.4871
21248SOL    HW264908   0.029   8.357   7.488  0.2136 -1.3413  2.7250
21249SOL     OW64909   4.189   4.546   3.691  0.5823 -0.0581  0.2741
21249SOL    HW164910   4.214   4.632   3.725  1.3621  0.3687 -1.3347
21249SOL    HW264911   4.103   4.561   3.651  0.3413 -0.2314  0.7137
21250SOL     OW64912   1.911   1.291   0.769 -0.2404  0.4972  0.2289
21250SOL    HW164913   1.982   1.227   0.766 -0.0156  0.7226  0.6950
21250SOL    HW264914   1.928   1.343   0.848 -1.7854 -0.4457  1.2374
21251SOL     OW64915   6.591   2.651   6.409 -0.0927 -0.4692 -0.0478
21251SOL    HW164916   6.522   2.636   6.344  0.6785 -2.2840 -0.5174
21251SOL    HW264917   6.545   2.669   6.490 -1.0893  1.1149 -0.9247
21252SOL     OW64918   1.521   7.240   0.883 -0.0219  0.4234  0.5821
21252SOL    HW164919   1.551   7.152   0.905  0.0879  0.2351 -0.2879
21252SOL    HW264920   1.427   7.237   0.898 -0.0050  0.1860  0.6535
21253SOL     OW64921   1.278   4.965   0.566 -0.2455 -0.1854 -0.1331
21253SOL    HW164922   1.213   4.901   0.536 -1.2393  0.9904 -0.5539
21253SOL    HW264923   1.271   5.037   0.504  0.8839  0.3328  0.3171
21254SOL     OW64924   8.420   4.983   4.114  0.2711  0.0263  0.1056
21254SOL    HW164925   8.356   4.953   4.050  0.8912 -0.1159 -0.4523
21254SOL    HW264926   8.369   5.035   4.176 -0.1233  1.2745 -1.2198
21255SOL     OW64927   8.205   8.494   6.889 -0.9111  0.7027  0.1673
21255SOL    HW164928   8.169   8.582   6.881 -0.0501  1.1343  0.9679
21255SOL    HW264929   8.287   8.505   6.937 -0.8861 -0.5556  0.4506
21256SOL     OW64930   4.427   0.389   4.920  0.0934  0.4455 -0.1127
21256SOL    HW164931   4.441   0.300   4.889 -0.3894 -0.0186  0.9522
21256SOL    HW264932   4.377   0.432   4.850  1.6997  0.3930 -1.3495
21257SOL     OW64933   5.457   7.830   0.901 -0.0695 -0.2423 -0.0988
21257SOL    HW164934   5.376   7.818   0.950 -1.5805  1.2117 -2.0813
21257SOL    HW264935   5.442   7.782   0.819  0.4859  1.1554 -1.0575
21258SOL     OW64936   6.038   6.264   1.780  0.1100  0.0888 -0.1712
21258SOL    HW164937   6.003   6.185   1.739 -0.6516  0.3510 -0.0514
21258SOL    HW264938   6.130   6.245   1.795  0.0800 -0.5341 -0.7280
21259SOL     OW64939   8.469   5.569   6.234 -0.2954 -0.0063  0.3019
21259SOL    HW164940   8.479   5.596   6.325 -2.8383 -0.3407  0.7523
21259SOL    HW264941   8.393   5.618   6.202  1.6362  1.5549 -2.3032
21260SOL     OW64942   0.049   5.520   3.196 -0.0912  0.3619  0.0183
21260SOL    HW164943   0.096   5.565   3.266 -0.4167  0.7383 -0.0035
21260SOL    HW264944   0.018   5.439   3.235  0.7973 -0.0184 -0.0354
21261SOL     OW64945   2.080   3.206   7.402 -0.0640  0.2900 -0.4603
21261SOL    HW164946   2.164   3.204   7.357 -0.1090  2.3502 -0.7089
21261SOL    HW264947   2.020   3.159   7.343  0.9303 -1.5280 -0.1082
21262SOL     OW64948   8.630   8.252   0.416 -0.2033  0.1277  0.2579
21262SOL    HW164949   8.608   8.339   0.451 -0.3860 -0.2788  1.1744
21262SOL    HW264950   8.714   8.265   0.373  0.4921  0.4590  1.6589
21263SOL     OW64951   2.038   5.964   5.803  0.0745  0.3367  0.1351
21263SOL    HW164952   1.948   5.968   5.771 -0.1700  0.6420  0.8298
21263SOL    HW264953   2.052   6.048   5.848 -0.0019 -0.5077  1.8193
21264SOL     OW64954   0.615   5.207   2.092 -0.2419 -0.4620  0.1487
21264SOL    HW164955   0.528   5.246   2.102 -0.2770 -0.6748  0.7115
21264SOL    HW264956   0.645   5.191   2.182 -0.6723 -2.7016 -0.0288
21265SOL     OW64957   1.848   5.445   7.126 -0.3254 -0.2536 -0.6437
21265SOL    HW164958   1.889   5.528   7.149 -0.3234 -0.7091  1.1424
21265SOL    HW264959   1.808   5.461   7.041 -1.3484  1.9685  0.1569
21266SOL     OW64960   1.720   0.180   4.113  0.2927  0.2832  0.5992
21266SOL    HW164961   1.815   0.187   4.125  0.5891 -0.0227 -1.2341
21266SOL    HW264962   1.704   0.220   4.028 -0.8450 -2.0330 -0.3450
21267SOL     OW64963   6.200   2.953   1.157  0.0925  0.4698 -0.1946
21267SOL    HW164964   6.144   3.003   1.097 -0.8305 -0.2405  0.0569
21267SOL    HW264965   6.203   2.865   1.119  0.9771  0.4729 -0.1550
21268SOL     OW64966   0.160   7.821   4.933  0.2178 -0.0558 -0.0326
21268SOL    HW164967   0.089   7.834   4.996  1.2737 -0.4785  1.3077
21268SOL    HW264968   0.207   7.905   4.933 -0.4709  0.3554 -1.2091
21269SOL     OW64969   4.797   5.372   4.887 -0.0060  0.3529  0.2856
21269SOL    HW164970   4.745   5.370   4.807  0.4395 -0.4150  0.0018
21269SOL    HW264971   4.850   5.292   4.884  0.4385  0.5975  1.0664
21270SOL     OW64972   5.482   5.805   3.652 -0.2107  0.2155  0.0259
21270SOL    HW164973   5.468   5.862   3.727 -0.0076 -0.2920  0.4587
21270SOL    HW264974   5.568   5.766   3.667  0.2879  0.8855 -0.9901
21271SOL     OW64975   5.621   3.556   7.626 -0.3350 -0.7999 -0.3009
21271SOL    HW164976   5.646   3.530   7.714 -0.6013 -1.5361 -0.4355
21271SOL    HW264977   5.548   3.499   7.603 -0.8274 -0.0390 -0.6780
21272SOL     OW64978   1.002   6.954   4.206 -0.1519 -0.4234 -0.1277
21272SOL    HW164979   1.084   6.947   4.158  0.8717  3.1412  0.8577
21272SOL    HW264980   0.936   6.973   4.139  0.0815 -1.6486 -0.7315
21273SOL     OW64981   5.264   3.572   0.741  0.1519 -0.1524 -0.5223
21273SOL    HW164982   5.265   3.629   0.818 -0.1558 -0.9024  0.0639
21273SOL    HW264983   5.190   3.602   0.689  0.9848  1.0250 -1.0618
21274SOL     OW64984   4.602   3.334   2.987  0.0552  0.2152  0.1934
21274SOL    HW164985   4.531   3.275   3.010  0.6999 -0.6637  0.0077
21274SOL    HW264986   4.610   3.325   2.892  0.5374  0.1471  0.2383
21275SOL     OW64987   4.900   6.104   2.692 -0.1769  0.1882 -0.0166
21275SOL    HW164988   4.950   6.123   2.771  0.5250  1.1977 -0.6770
21275SOL    HW264989   4.955   6.136   2.621 -1.7949  1.5041 -0.7657
21276SOL     OW64990   1.072   3.583   6.353  0.1794  0.5537  0.4475
21276SOL    HW164991   1.142   3.536   6.398 -0.2056 -0.4062  0.0735
21276SOL    HW264992   1.094   3.676   6.363  0.9164  0.3010  1.2687
21277SOL     OW64993   6.576   0.753   1.803 -0.1159 -0.4535 -0.1058
21277SOL    HW164994   6.484   0.728   1.798 -0.3550  0.6059 -1.2965
21277SOL    HW264995   6.620   0.697   1.739 -0.3176  0.6402 -1.2293
21278SOL     OW64996   7.171   8.305   5.895  0.1561  0.0628  0.2413
21278SOL    HW164997   7.096   8.258   5.861 -1.8123  1.2418  2.6311
21278SOL    HW264998   7.228   8.237   5.932  1.8305 -1.1370 -3.9136
21279SOL     OW64999   6.772   4.924   6.624 -0.2133  0.4332 -0.1355
21279SOL    HW165000   6.726   4.892   6.546 -0.6138  0.8654 -0.0734
21279SOL    HW265001   6.865   4.915   6.601 -0.3256  0.2370 -0.5300
21280SOL     OW65002   1.414   5.186   7.845  0.1599 -0.4637 -0.0665
21280SOL    HW165003   1.442   5.277   7.854 -0.4863 -0.3333  0.8413
21280SOL    HW265004   1.365   5.184   7.763 -0.1080  0.0877  0.0765
21281SOL     OW65005   8.184   0.801   5.394  0.1862  0.4136 -0.3295
21281SOL    HW165006   8.102   0.821   5.348  1.4124  2.9071 -1.6603
21281SOL    HW265007   8.246   0.781   5.325  1.7337  2.8772  0.2064
21282SOL     OW65008   0.945   5.841   7.371 -0.4499 -0.4913 -0.2416
21282SOL    HW165009   0.907   5.770   7.424  0.1355 -1.7793 -1.4608
21282SOL    HW265010   1.035   5.814   7.356  0.6962  1.9591  1.6435
21283SOL     OW65011   1.597   1.564   3.737 -0.2062  0.2095 -0.2208
21283SOL    HW165012   1.517   1.604   3.770 -0.5688 -0.1453 -0.6568
21283SOL    HW265013   1.592   1.574   3.642  0.5827  0.7652 -0.2218
21284SOL     OW65014   4.649   2.123   1.318  0.4750  0.2740 -0.2150
21284SOL    HW165015   4.661   2.029   1.300  0.5643  0.1966  0.2155
21284SOL    HW265016   4.658   2.165   1.233 -0.1366 -0.1612 -0.5060
21285SOL     OW65017   8.837   1.572   2.930  0.5067 -0.2036 -0.0365
21285SOL    HW165018   8.854   1.665   2.911  0.6121 -0.0904  0.6090
21285SOL    HW265019   8.768   1.548   2.868  1.0317  0.0891 -0.7468
21286SOL     OW65020   3.370   7.517   7.185  0.2007 -0.1215  0.4014
21286SOL    HW165021   3.277   7.541   7.187  0.4418  0.8154  0.6024
21286SOL    HW265022   3.380   7.465   7.105 -0.1555  1.2363 -0.5663
21287SOL     OW65023   0.819   3.582   7.662  0.7226 -0.2892  0.3208
21287SOL    HW165024   0.853   3.511   7.716  2.5189  0.7141  0.6057
21287SOL    HW265025   0.748   3.620   7.714 -0.2261 -1.8033  0.1804
21288SOL     OW65026   3.358   6.331   5.509 -0.0165  0.1834  0.5836
21288SOL    HW165027   3.285   6.384   5.479  0.9433  0.6043 -1.1712
21288SOL    HW265028   3.434   6.389   5.505  0.7487 -0.7938  0.3725
21289SOL     OW65029   8.027   1.233   0.098  0.1915  0.4954 -0.3597
21289SOL    HW165030   8.003   1.308   0.152  0.5907 -0.0375  0.5877
21289SOL    HW265031   8.103   1.195   0.141 -0.8855 -1.3370  0.0639
21290SOL     OW65032   3.354   5.520   1.636 -0.2024 -0.3038  0.2218
21290SOL    HW165033   3.444   5.546   1.618 -0.0005 -0.8948  0.3371
21290SOL    HW265034   3.306   5.540   1.556  0.0835 -0.2223  0.0695
21291SOL     OW65035   0.598   5.352   2.849  0.4614  0.0439 -0.0755
21291SOL    HW165036   0.546   5.298   2.789 -1.0647  0.5209  0.7721
21291SOL    HW265037   0.610   5.434   2.802  1.2465 -0.3770 -0.6364
21292SOL     OW65038   6.969   4.421   2.260  0.1694  0.1409 -0.0673
21292SOL    HW165039   6.914   4.358   2.214  0.6074  0.6513 -1.3360
21292SOL    HW265040   7.026   4.368   2.315  1.0830 -0.6617 -1.7060
21293SOL     OW65041   8.016   6.647   3.516  0.2620 -0.3447  0.3964
21293SOL    HW165042   8.046   6.701   3.443  1.4286  0.5383  1.4827
21293SOL    HW265043   7.920   6.649   3.510  0.3407 -0.3441 -1.1236
21294SOL     OW65044   3.854   3.403   8.530  0.6323  0.9583  0.0381
21294SOL    HW165045   3.782   3.370   8.476  0.1183  0.7334  0.8417
21294SOL    HW265046   3.919   3.332   8.530 -0.6007 -0.2686  2.0186
21295SOL     OW65047   6.368   7.479   2.980 -0.0406 -0.1090  0.0698
21295SOL    HW165048   6.443   7.504   2.925 -0.8919  0.1256 -1.0051
21295SOL    HW265049   6.392   7.392   3.013  2.1532  1.2655  2.4129
21296SOL     OW65050   5.142   2.708   7.522  0.3345  0.4834 -0.3847
21296SOL    HW165051   5.055   2.748   7.515  0.7444  1.4484 -0.1003
21296SOL    HW265052   5.161   2.676   7.434 -0.3548  0.1719 -0.4223
21297SOL     OW65053   6.215   8.708   6.892 -0.4459  0.6086 -0.3410
21297SOL    HW165054   6.124   8.729   6.871 -0.7118  0.2648  0.4257
21297SOL    HW265055   6.209   8.643   6.961  0.3848  0.0695 -0.7580
21298SOL     OW65056   1.910   2.055   7.535 -0.3989 -0.0096  0.1977
21298SOL    HW165057   1.860   2.116   7.588  1.8097  1.3341  0.8567
21298SOL    HW265058   1.951   1.996   7.599  0.0176 -0.1694 -0.2116
21299SOL     OW65059   7.770   5.916   8.066 -0.4761  0.0049 -0.0812
21299SOL    HW165060   7.838   5.919   8.133 -1.1241 -0.4781  0.6216
21299SOL    HW265061   7.807   5.863   7.996 -0.4575 -1.0371  0.6961
21300SOL     OW65062   6.318   1.187   6.616  0.2570  0.4550 -0.8680
21300SOL    HW165063   6.252   1.192   6.548 -0.1075 -0.3175 -0.5794
21300SOL    HW265064   6.269   1.179   6.698  0.6762 -1.4009 -0.7463
21301SOL     OW65065   0.216   6.725   4.463 -0.2644  0.1984  0.4308
21301SOL    HW165066   0.252   6.670   4.533 -0.2339 -0.2783  0.0424
21301SOL    HW265067   0.154   6.668   4.417  0.9869 -0.0368 -1.0147
21302SOL     OW65068   2.370   8.260   5.350  0.2031  0.1495 -0.2028
21302SOL    HW165069   2.372   8.349   5.384  0.4872 -0.2245  0.8142
21302SOL    HW265070   2.343   8.207   5.425  1.8751 -0.8357 -0.2561
21303SOL     OW65071   2.926   8.116   2.334 -0.2325 -0.7422 -0.2338
21303SOL    HW165072   3.005   8.135   2.283 -0.7848 -0.3445 -0.9628
21303SOL    HW265073   2.939   8.026   2.365  0.6626 -0.5577 -0.0357
21304SOL     OW65074   2.141   4.977   4.142 -0.3800 -0.3562 -0.3872
21304SOL    HW165075   2.132   4.886   4.114  0.9347 -0.1650 -1.5826
21304SOL    HW265076   2.235   4.993   4.144 -0.3860  2.2173 -4.9145
21305SOL     OW65077   5.814   7.848   1.792  0.3587 -0.7032 -0.0301
21305SOL    HW165078   5.804   7.753   1.792 -3.1570 -0.4662 -0.6283
21305SOL    HW265079   5.724   7.882   1.786  1.3257  2.6917  1.6953
21306SOL     OW65080   2.232   0.600   4.106 -0.1190  0.0605  0.4090
21306SOL    HW165081   2.179   0.574   4.030 -0.4620 -1.8566  1.2526
21306SOL    HW265082   2.173   0.653   4.159 -1.1145 -1.6889  1.1247
21307SOL     OW65083   4.323   1.245   5.255  0.8119  0.7707  0.1075
21307SOL    HW165084   4.309   1.276   5.344  1.4776  0.8169  0.1999
21307SOL    HW265085   4.408   1.281   5.229  2.3390 -2.0222  0.7235
21308SOL     OW65086   4.562   6.373   6.112 -0.2854  0.6231 -0.9338
21308SOL    HW165087   4.481   6.367   6.061 -0.6237  0.8800 -0.4319
21308SOL    HW265088   4.624   6.317   6.064 -1.7839 -2.6468  0.6316
21309SOL     OW65089   0.349   4.742   7.875 -0.4112 -0.1172  0.4052
21309SOL    HW165090   0.337   4.782   7.789  1.3989 -1.1776 -0.3824
21309SOL    HW265091   0.358   4.817   7.935  0.8573  0.6855 -0.7270
21310SOL     OW65092   4.157   1.595   8.365 -0.5492  0.0564 -0.3122
21310SOL    HW165093   4.138   1.602   8.271 -0.3562  0.0297 -0.3541
21310SOL    HW265094   4.085   1.641   8.407  0.6203  2.2564 -0.5770
21311SOL     OW65095   4.747   4.033   5.814 -0.7448 -0.2759  0.4284
21311SOL    HW165096   4.712   4.084   5.888  0.5258 -1.7974  2.1795
21311SOL    HW265097   4.672   4.020   5.756 -1.8999  0.6137  1.6543
21312SOL     OW65098   6.025   2.444   6.145  0.4734  0.0643  0.2928
21312SOL    HW165099   6.080   2.447   6.067 -0.6593 -1.0761 -0.6035
21312SOL    HW265100   6.046   2.359   6.185  0.2067  0.1285  0.5703
21313SOL     OW65101   0.414   4.937   3.117  0.1068 -0.2241 -0.5713
21313SOL    HW165102   0.406   4.885   3.037  1.4681 -1.0974 -0.1740
21313SOL    HW265103   0.466   5.013   3.091  0.5949 -0.5344 -0.5272
21314SOL     OW65104   2.826   1.700   0.269  0.4270  0.1807 -0.6914
21314SOL    HW165105   2.862   1.685   0.182 -0.2790 -0.7582 -0.8231
21314SOL    HW265106   2.736   1.669   0.265  0.7495 -1.0666  0.7141
21315SOL     OW65107   8.811   1.319   2.281  0.3594  0.0815 -0.1514
21315SOL    HW165108   8.775   1.230   2.275  0.3155  0.0620  0.3991
21315SOL    HW265109   8.819   1.347   2.190  1.8840 -1.1014 -0.4266
21316SOL     OW65110   4.162   0.777   6.952  0.3120  0.5413  0.0184
21316SOL    HW165111   4.170   0.758   6.858  0.8607  0.9120 -0.0150
21316SOL    HW265112   4.084   0.832   6.958  0.5526  0.9267 -0.2904
21317SOL     OW65113   4.332   5.048   0.984  0.0108  0.4823 -0.0806
21317SOL    HW165114   4.317   5.039   0.890 -0.8438  1.4436 -0.0558
21317SOL    HW265115   4.422   5.018   0.997 -0.1535 -0.5022 -1.0657
21318SOL     OW65116   4.704   8.761   5.139 -0.5688 -0.5401  0.0420
21318SOL    HW165117   4.715   8.667   5.149 -0.9433 -0.9622 -2.7299
21318SOL    HW265118   4.615   8.779   5.172 -1.0369 -1.4210 -0.7064
21319SOL     OW65119   4.770   6.113   3.672  0.2148 -0.2312  0.5436
21319SOL    HW165120   4.794   6.204   3.690 -0.3612  0.0035  0.1687
21319SOL    HW265121   4.839   6.081   3.613 -0.2266  0.3442 -0.2955
21320SOL     OW65122   5.615   0.207   5.793 -0.5177  0.2744 -0.5026
21320SOL    HW165123   5.542   0.220   5.732 -0.1825 -0.5571 -1.0941
21320SOL    HW265124   5.691   0.192   5.737 -0.0584  0.2221  0.1207
21321SOL     OW65125   7.319   6.796   4.255 -0.6376  0.1925  0.5546
21321SOL    HW165126   7.393   6.745   4.223 -0.0457  1.9682 -1.0876
21321SOL    HW265127   7.334   6.884   4.222 -3.7064  0.5554 -0.2158
21322SOL     OW65128   5.755   3.551   0.513  0.0476 -0.5818 -0.7085
21322SOL    HW165129   5.721   3.584   0.597  1.9306 -1.0827  0.3294
21322SOL    HW265130   5.701   3.475   0.493  0.4303 -1.2965  0.8174
21323SOL     OW65131   7.713   5.029   4.655  0.8220 -0.4074 -0.5085
21323SOL    HW165132   7.757   4.996   4.733 -0.4030 -1.7815 -0.3596
21323SOL    HW265133   7.771   5.008   4.583  2.7141  2.2374  0.0826
21324SOL     OW65134   0.729   8.490   4.785  0.1857 -0.0386  0.4477
21324SOL    HW165135   0.671   8.427   4.741  1.0045 -1.0399  0.7629
21324SOL    HW265136   0.674   8.528   4.854 -0.7504  0.6829 -0.6468
21325SOL     OW65137   7.640   2.728   5.341 -0.2782  0.4593 -0.4198
21325SOL    HW165138   7.578   2.787   5.299 -1.7768 -1.6355 -1.3583
21325SOL    HW265139   7.595   2.698   5.419  0.0046 -0.2330 -0.5141
21326SOL     OW65140   6.856   8.076   3.688 -0.0526  1.0134 -0.1773
21326SOL    HW165141   6.811   8.053   3.769  0.2503  1.0997  0.0176
21326SOL    HW265142   6.786   8.100   3.628 -0.3276  0.2373 -0.1774
21327SOL     OW65143   4.868   2.361   8.725 -0.5316  0.1219  0.7794
21327SOL    HW165144   4.833   2.278   8.692  0.7845 -0.1109 -0.1212
21327SOL    HW265145   4.841   2.426   8.660 -0.8987  0.2611  1.0730
21328SOL     OW65146   5.117   6.180   2.501  0.0175  0.0384  0.0548
21328SOL    HW165147   5.044   6.198   2.442  1.0975  1.6185 -0.8883
21328SOL    HW265148   5.195   6.202   2.450  1.0732 -0.2263  1.5015
21329SOL     OW65149   0.208   0.991   2.220 -0.3742  0.4389 -0.8072
21329SOL    HW165150   0.226   1.076   2.180  1.9434  0.4068  0.0518
21329SOL    HW265151   0.220   0.928   2.149 -0.1771  0.6826 -0.9915
21330SOL     OW65152   4.196   2.595   5.795  0.6552  0.4102 -0.1793
21330SOL    HW165153   4.118   2.540   5.787 -0.4703  1.8604  0.4177
21330SOL    HW265154   4.164   2.684   5.783  2.1358  1.0897  0.6218
21331SOL     OW65155   6.331   7.712   6.389  0.3186  0.2253  0.5614
21331SOL    HW165156   6.349   7.793   6.437 -1.0332  0.8181  0.1258
21331SOL    HW265157   6.365   7.729   6.301  0.7673 -0.0016  0.6876
21332SOL     OW65158   0.211   2.125   5.690  0.2261 -0.2949  0.4287
21332SOL    HW165159   0.239   2.123   5.599  2.0579  0.6228  0.9377
21332SOL    HW265160   0.183   2.215   5.706 -0.3942 -0.5269  0.6964
21333SOL     OW65161   4.487   5.890   5.242 -0.3403 -0.1571 -0.1529
21333SOL    HW165162   4.552   5.959   5.256  0.5245 -1.1037  0.6567
21333SOL    HW265163   4.419   5.908   5.307  0.6825 -0.9737  1.2063
21334SOL     OW65164   6.124   4.101   4.077 -0.0778  0.4584  0.1955
21334SOL    HW165165   6.030   4.116   4.083 -0.1081 -0.2400  1.9438
21334SOL    HW265166   6.133   4.007   4.060  0.2947  0.7211 -1.1354
21335SOL     OW65167   6.790   1.587   0.873  0.1834 -0.0991  0.3645
21335SOL    HW165168   6.738   1.513   0.843 -1.2391 -0.2968  3.0546
21335SOL    HW265169   6.733   1.634   0.934  1.4492  2.5784 -0.3650
21336SOL     OW65170   3.854   2.944   8.770 -0.5419 -0.2428  0.2809
21336SOL    HW165171   3.907   2.865   8.767 -0.6067 -0.2424 -2.0095
21336SOL    HW265172   3.918   3.016   8.766 -0.5874 -0.2015  0.2977
21337SOL     OW65173   2.012   2.248   8.275 -0.1433  0.4377 -0.3073
21337SOL    HW165174   2.064   2.299   8.212  1.6418  0.5349  1.1589
21337SOL    HW265175   2.048   2.159   8.268  2.0758  0.9795  2.4312
21338SOL     OW65176   6.821   5.157   6.161  0.5599 -0.7403 -0.8439
21338SOL    HW165177   6.836   5.073   6.205 -1.7469 -1.0940 -0.5975
21338SOL    HW265178   6.884   5.216   6.201  0.2817 -1.6846  1.1385
21339SOL     OW65179   1.533   6.777   1.760 -0.0302 -0.2579 -0.1140
21339SOL    HW165180   1.607   6.783   1.822  0.5447 -3.5191 -0.3051
21339SOL    HW265181   1.489   6.861   1.768  1.4073  0.3637  2.9773
21340SOL     OW65182   5.978   5.661   4.384  0.6076 -0.1181  0.2456
21340SOL    HW165183   5.957   5.746   4.346 -0.8961 -0.2220  0.7663
21340SOL    HW265184   5.910   5.647   4.450  0.7488 -1.7852  0.0767
21341SOL     OW65185   3.184   7.095   0.398 -0.1166 -0.0425  0.1903
21341SOL    HW165186   3.230   7.179   0.403 -0.8151  0.4110 -0.6519
21341SOL    HW265187   3.160   7.076   0.488  0.4687  0.4162  0.4580
21342SOL     OW65188   8.852   7.395   3.407  0.4033  0.5099  0.1556
21342SOL    HW165189   8.796   7.440   3.471  0.4462 -0.0067  0.5631
21342SOL    HW265190   8.931   7.449   3.403 -0.9269  2.4553 -2.0293
21343SOL     OW65191   5.208   6.800   6.602 -0.4331  0.3143  0.1077
21343SOL    HW165192   5.156   6.787   6.682  0.2057 -1.6515  0.2572
21343SOL    HW265193   5.283   6.743   6.613  1.3122  2.3592 -0.5534
21344SOL     OW65194   8.434   2.116   7.956 -0.6783 -0.1116  0.1229
21344SOL    HW165195   8.435   2.151   8.045  0.2428 -0.3425  0.2172
21344SOL    HW265196   8.509   2.056   7.953  0.8097  1.6850 -1.4960
21345SOL     OW65197   5.385   1.327   7.781  0.1841  0.1672  0.5680
21345SOL    HW165198   5.461   1.383   7.763  0.9991 -0.9732  0.3230
21345SOL    HW265199   5.310   1.386   7.778  0.6203  0.7513 -3.0104
21346SOL     OW65200   3.116   1.235   7.805  0.3390  0.2724 -0.1980
21346SOL    HW165201   3.042   1.178   7.826 -0.8071  1.4520 -0.8743
21346SOL    HW265202   3.193   1.183   7.827 -0.6723 -1.1178  0.2269
21347SOL     OW65203   1.514   6.789   8.216 -0.2372  0.5854  0.1561
21347SOL    HW165204   1.513   6.851   8.143  0.9736 -0.2267 -0.5812
21347SOL    HW265205   1.582   6.823   8.275  0.6034 -0.1351 -0.3675
21348SOL     OW65206   6.144   3.868   8.293  0.2955 -0.4358 -0.3330
21348SOL    HW165207   6.206   3.817   8.346  1.5212 -1.2550 -2.4460
21348SOL    HW265208   6.060   3.826   8.308  0.5165 -0.3434  1.3209
21349SOL     OW65209   2.254   1.631   6.110  0.3495  0.3239 -0.0398
21349SOL    HW165210   2.341   1.606   6.082  0.7394  0.9251  0.6024
21349SOL    HW265211   2.198   1.556   6.088  1.5804 -1.5001  2.5650
21350SOL     OW65212   1.808   7.945   6.561  0.6212  0.2156 -0.3492
21350SOL    HW165213   1.752   8.009   6.517  2.0697  1.8800  0.1295
21350SOL    HW265214   1.785   7.952   6.654  0.2756 -0.5156 -0.3696
21351SOL     OW65215   3.736   5.728   3.625 -0.2793 -0.0150 -0.5074
21351SOL    HW165216   3.724   5.795   3.693  0.9795 -0.7629  0.5088
21351SOL    HW265217   3.766   5.778   3.549  0.5555  0.6331  0.2061
21352SOL     OW65218   7.946   6.346   3.402  0.1874 -0.4666  0.0430
21352SOL    HW165219   7.975   6.426   3.445 -1.1054 -0.2118  0.4982
21352SOL    HW265220   7.953   6.278   3.469 -1.5415 -0.1269  0.6297
21353SOL     OW65221   8.161   7.073   2.208 -0.1191 -0.1909 -0.6620
21353SOL    HW165222   8.154   7.157   2.254  0.8606  0.3413 -1.4353
21353SOL    HW265223   8.252   7.070   2.178 -0.5797 -0.7595 -2.0842
21354SOL     OW65224   6.384   5.668   7.076  0.4534 -0.1414 -0.2539
21354SOL    HW165225   6.403   5.716   6.995 -1.4478  2.4900  0.7331
21354SOL    HW265226   6.454   5.693   7.136 -0.0145  0.6927 -0.0421
21355SOL     OW65227   1.448   4.550   4.154 -0.7202  0.0224  0.2217
21355SOL    HW165228   1.438   4.552   4.249 -1.3627 -0.3886  0.1756
21355SOL    HW265229   1.388   4.480   4.125 -1.0016  0.5562 -0.5333
21356SOL     OW65230   0.562   0.173   3.540 -0.0031 -0.0632 -0.1858
21356SOL    HW165231   0.474   0.208   3.537 -0.1109 -0.3405 -0.2974
21356SOL    HW265232   0.559   0.103   3.606 -0.6847 -2.2511 -2.3616
21357SOL     OW65233   3.814   5.589   3.949 -0.0295  0.2048 -0.2894
21357SOL    HW165234   3.739   5.570   3.892 -0.3327 -0.3379  0.2768
21357SOL    HW265235   3.830   5.683   3.936 -0.7977  0.3296 -0.4308
21358SOL     OW65236   4.817   4.974   1.459 -0.2512 -0.3210  0.5420
21358SOL    HW165237   4.740   4.991   1.513  0.4617 -0.9548  1.7979
21358SOL    HW265238   4.790   4.903   1.400 -1.3958  1.1449 -0.7803
21359SOL     OW65239   6.102   1.977   8.514 -0.5580  0.1788  0.4825
21359SOL    HW165240   6.013   1.957   8.484 -0.9778  0.7812  1.2965
21359SOL    HW265241   6.132   2.045   8.454 -0.7639  0.2001  0.4017
21360SOL     OW65242   8.687   6.786   6.378  0.6467  0.6211 -0.2124
21360SOL    HW165243   8.629   6.724   6.422  0.0374  1.9634  0.9721
21360SOL    HW265244   8.772   6.740   6.373 -0.4727 -1.4279 -2.1158
21361SOL     OW65245   5.665   1.025   1.436 -0.4475  0.5065 -0.7523
21361SOL    HW165246   5.633   0.942   1.401  0.2912 -0.1825  0.1591
21361SOL    HW265247   5.751   1.036   1.396  0.6016 -0.5141  1.1069
21362SOL     OW65248   3.648   7.720   0.753 -0.4692 -0.1170 -0.2515
21362SOL    HW165249   3.620   7.659   0.822 -1.4996  1.5683  0.9093
21362SOL    HW265250   3.695   7.666   0.690 -1.6735 -2.1626  0.5202
21363SOL     OW65251   8.556   7.240   5.919 -0.8429  0.1728  0.0383
21363SOL    HW165252   8.622   7.171   5.927  0.0311  1.1303  1.6324
21363SOL    HW265253   8.514   7.243   6.005 -1.2679  1.2365 -0.1907
21364SOL     OW65254   8.202   8.518   2.996  0.0569 -0.4390  0.4165
21364SOL    HW165255   8.113   8.510   3.032 -0.5231 -1.4233 -1.1300
21364SOL    HW265256   8.247   8.439   3.028  0.3518 -0.0150  1.0764
21365SOL     OW65257   3.406   1.438   4.245 -0.6892 -0.2156 -0.1039
21365SOL    HW165258   3.454   1.376   4.299 -1.2028 -0.3352  0.2197
21365SOL    HW265259   3.420   1.523   4.287 -2.4073 -0.5084  1.2023
21366SOL     OW65260   5.958   3.741   1.925  0.2169  0.8510  0.5633
21366SOL    HW165261   5.892   3.677   1.897  1.0724  0.4174 -0.5256
21366SOL    HW265262   5.921   3.779   2.005 -0.1126 -1.3406  1.5219
21367SOL     OW65263   2.821   8.301   2.185 -0.1423 -0.6001  0.5929
21367SOL    HW165264   2.887   8.319   2.118 -1.2244  0.9140 -0.1046
21367SOL    HW265265   2.863   8.236   2.242  1.0436 -1.4734 -1.1729
21368SOL     OW65266   5.879   7.321   1.666 -0.0665 -0.2766  0.2408
21368SOL    HW165267   5.944   7.250   1.664  1.2319  0.8555  0.7392
21368SOL    HW265268   5.833   7.313   1.582  1.9779 -0.0156 -0.9800
21369SOL     OW65269   1.232   7.647   8.274  0.0447 -0.8130 -0.1409
21369SOL    HW165270   1.213   7.680   8.362  2.7263  0.1561  0.1906
21369SOL    HW265271   1.326   7.626   8.277  1.0158  2.0289 -3.5158
21370SOL     OW65272   6.646   6.969   0.074  0.0864 -0.3723 -0.4710
21370SOL    HW165273   6.554   6.983   0.096  0.3783  0.1836  0.4677
21370SOL    HW265274   6.678   7.055   0.047  0.2036 -0.6729 -1.3081
21371SOL     OW65275   0.788   4.516   7.563 -0.3722  0.1524  0.1012
21371SOL    HW165276   0.822   4.597   7.602 -2.6404  0.5888  1.3179
21371SOL    HW265277   0.862   4.456   7.565  0.5753  1.2983  1.8378
21372SOL     OW65278   5.041   6.251   5.788 -0.3860 -0.3442 -0.9338
21372SOL    HW165279   4.962   6.303   5.798  0.4248  0.7091  0.5335
21372SOL    HW265280   5.099   6.305   5.734 -0.1057 -0.3932 -0.6891
21373SOL     OW65281   2.867   6.993   8.001  0.0004 -0.5693 -0.0516
21373SOL    HW165282   2.851   7.006   8.095 -0.9930 -0.8207 -0.1770
21373SOL    HW265283   2.929   6.921   7.997 -1.3784 -1.8349  0.3790
21374SOL     OW65284   7.502   2.269   1.992  0.1390 -0.9238 -0.4508
21374SOL    HW165285   7.480   2.310   1.908  1.3119  2.4529  0.7494
21374SOL    HW265286   7.419   2.263   2.039 -0.2675 -1.3304 -1.1946
21375SOL     OW65287   8.519   2.348   0.473  0.2012  0.0002 -0.4608
21375SOL    HW165288   8.460   2.341   0.399  0.2564 -0.7158 -0.4403
21375SOL    HW265289   8.462   2.349   0.550  0.2263 -1.9394 -0.3588
21376SOL     OW65290   1.045   8.439   0.077 -0.4845  0.2567  0.3867
21376SOL    HW165291   1.133   8.436   0.116 -0.3806  3.9443  0.7692
21376SOL    HW265292   0.986   8.428   0.152 -0.4701 -2.4068  0.1070
21377SOL     OW65293   8.032   0.831   2.477  0.1169  0.2631 -0.4427
21377SOL    HW165294   7.939   0.818   2.496  0.4187 -1.0957  0.2411
21377SOL    HW265295   8.062   0.891   2.546 -0.0263 -0.1397 -0.0273
21378SOL     OW65296   2.730   1.800   6.415  0.0773  0.2291 -0.7071
21378SOL    HW165297   2.777   1.843   6.487 -0.5853  1.6673 -1.1028
21378SOL    HW265298   2.682   1.729   6.457 -0.4399  1.1520  0.3172
21379SOL     OW65299   5.094   8.651   4.509  0.3442  0.4009  0.2261
21379SOL    HW165300   5.089   8.708   4.432 -0.4788  1.9068  1.3269
21379SOL    HW265301   5.184   8.659   4.540  1.0042 -1.1046 -1.1767
21380SOL     OW65302   4.110   6.184   3.902 -0.1293  0.5652 -0.0739
21380SOL    HW165303   4.043   6.134   3.949  1.3341 -1.7366 -0.2975
21380SOL    HW265304   4.063   6.260   3.867 -2.9260 -1.5036 -1.1711
21381SOL     OW65305   6.883   8.834   7.013  0.0794  0.1158 -0.1642
21381SOL    HW165306   6.809   8.810   7.069  0.9367  0.9593  1.3772
21381SOL    HW265307   6.918   8.750   6.983 -1.4354 -0.3036 -0.8870
21382SOL     OW65308   5.022   1.869   0.061 -0.2136  0.6947  0.7234
21382SOL    HW165309   5.001   1.877  -0.032  0.8985  0.8565  0.4722
21382SOL    HW265310   5.020   1.775   0.079  1.0418  0.5443  0.1631
21383SOL     OW65311   4.794   0.549   2.367 -0.0063 -0.1559  0.2953
21383SOL    HW165312   4.765   0.625   2.418  0.3399 -1.4746  2.6276
21383SOL    HW265313   4.846   0.498   2.429  4.0152  0.0649 -2.4941
21384SOL     OW65314   6.880   8.347   6.503  0.1596 -0.3177 -0.0275
21384SOL    HW165315   6.868   8.313   6.414 -2.1748 -0.2379  0.1803
21384SOL    HW265316   6.806   8.406   6.515  1.4928  1.1513  1.3235
21385SOL     OW65317   5.952   4.867   8.356  0.0676  0.0996  0.0980
21385SOL    HW165318   6.022   4.832   8.411 -1.0688  1.1216  2.3696
21385SOL    HW265319   5.876   4.813   8.377 -0.5059  0.8096 -0.0915
21386SOL     OW65320   0.858   2.240   3.418  0.7363  0.7755 -0.1569
21386SOL    HW165321   0.782   2.197   3.380  0.6621 -0.0573  0.8716
21386SOL    HW265322   0.930   2.178   3.403  0.6392  0.2645  1.2946
21387SOL     OW65323   7.972   1.930   6.413 -0.2234  0.0546  0.0276
21387SOL    HW165324   7.948   2.020   6.392  0.1146 -0.1306 -1.2900
21387SOL    HW265325   7.891   1.880   6.400 -0.5560  0.2307  1.3169
21388SOL     OW65326   8.076   6.073   0.744 -0.0409  0.4359 -0.5563
21388SOL    HW165327   8.003   6.118   0.702  0.7235  2.2175 -0.0686
21388SOL    HW265328   8.083   5.989   0.697 -0.7025  1.3486 -2.3861
21389SOL     OW65329   0.433   7.467   8.674 -0.4709  0.5911 -0.3502
21389SOL    HW165330   0.362   7.512   8.720 -0.2182  0.3415  0.3049
21389SOL    HW265331   0.419   7.486   8.582 -2.0611 -0.3875 -0.3391
21390SOL     OW65332   3.014   2.149   2.489  0.6610 -0.2583  0.0645
21390SOL    HW165333   3.065   2.220   2.452  1.1107 -0.0036  1.1322
21390SOL    HW265334   3.064   2.070   2.470  1.9073  0.0688  1.8081
21391SOL     OW65335   6.571   3.616   4.545 -0.4112 -0.6121  0.7202
21391SOL    HW165336   6.596   3.525   4.530  2.2301  0.1586 -0.0737
21391SOL    HW265337   6.631   3.647   4.612 -0.3783  0.9101  0.0189
21392SOL     OW65338   5.602   6.562   1.124 -0.2347 -0.2443  0.0203
21392SOL    HW165339   5.571   6.495   1.185  0.0917  0.3118  0.7984
21392SOL    HW265340   5.648   6.513   1.056  1.0756 -0.7232  1.2281
21393SOL     OW65341   1.812   8.656   1.683  0.0437 -0.2420  0.4316
21393SOL    HW165342   1.722   8.649   1.716 -0.2275  1.2695  0.1084
21393SOL    HW265343   1.866   8.648   1.762 -0.4371  0.0892  0.8048
21394SOL     OW65344   2.636   0.532   6.760  0.3144 -0.0467 -0.4958
21394SOL    HW165345   2.689   0.570   6.691  0.7650 -0.4319 -0.3733
21394SOL    HW265346   2.672   0.444   6.771 -0.1557 -0.2043 -0.1996
21395SOL     OW65347   5.105   6.164   2.173 -0.3304 -0.1513  0.2056
21395SOL    HW165348   5.187   6.152   2.220  0.2862 -1.7318 -1.1695
21395SOL    HW265349   5.115   6.249   2.129 -0.4278  0.7610  1.8986
21396SOL     OW65350   0.222   6.872   4.195  0.4024 -0.0932  0.6895
21396SOL    HW165351   0.131   6.901   4.197  0.5400  0.4056 -0.0662
21396SOL    HW265352   0.235   6.831   4.281 -0.6477 -0.5468  0.6545
21397SOL     OW65353   1.454   5.480   7.101 -0.1641  0.4745 -0.1740
21397SOL    HW165354   1.490   5.411   7.045 -1.4406  1.1533 -1.9624
21397SOL    HW265355   1.371   5.445   7.132  0.6309  0.0223  1.5533
21398SOL     OW65356   8.442   7.655   7.244  0.5145  0.1207  0.2943
21398SOL    HW165357   8.530   7.644   7.282  0.6582 -0.2539 -0.1414
21398SOL    HW265358   8.439   7.747   7.219  0.3407  0.4336  1.3890
21399SOL     OW65359   5.949   2.561   7.600 -0.9260 -0.2854 -0.1192
21399SOL    HW165360   5.868   2.529   7.639 -0.3145 -1.3022  0.3579
21399SOL    HW265361   6.010   2.488   7.608 -0.1368  0.2505 -1.0256
21400SOL     OW65362   5.060   5.936   3.998  0.3068  0.3969 -0.0755
21400SOL    HW165363   5.078   5.935   3.904 -1.8403 -0.1251 -0.5215
21400SOL    HW265364   5.146   5.950   4.038  1.6390 -1.4539 -2.0167
21401SOL     OW65365   6.668   2.628   7.251 -0.2372 -0.1105  0.2545
21401SOL    HW165366   6.758   2.601   7.234 -0.1191 -0.3584  1.2011
21401SOL    HW265367   6.669   2.658   7.342 -1.5609 -2.1289  1.0023
21402SOL     OW65368   2.731   7.432   3.780 -0.0705  0.1175  0.0291
21402SOL    HW165369   2.690   7.400   3.700 -2.5462  0.9667  0.8695
21402SOL    HW265370   2.696   7.376   3.849 -0.3700  1.2925  0.8655
21403SOL     OW65371   2.958   3.712   8.238  0.0706  0.1868 -0.2592
21403SOL    HW165372   2.911   3.629   8.232  0.6337 -0.1904  0.4255
21403SOL    HW265373   3.034   3.693   8.293 -0.4859  1.4522  1.0308
21404SOL     OW65374   3.195   3.420   6.834 -0.7356 -0.1965  0.2875
21404SOL    HW165375   3.267   3.357   6.841  0.5156  1.3235  2.0185
21404SOL    HW265376   3.217   3.489   6.897 -1.7816  2.2113 -1.7848
21405SOL     OW65377   1.844   7.078   1.604 -0.5432  0.2137  0.0427
21405SOL    HW165378   1.811   6.992   1.578  0.3845 -0.3167  0.5256
21405SOL    HW265379   1.876   7.117   1.523 -0.2351 -0.2494 -0.0691
21406SOL     OW65380   6.699   4.139   6.732  0.1626  0.2054  0.1011
21406SOL    HW165381   6.697   4.072   6.664 -1.1841  0.5916 -0.2623
21406SOL    HW265382   6.711   4.222   6.685 -0.3554  0.4337  0.3632
21407SOL     OW65383   5.531   1.644   4.198 -0.2043  0.4675  0.1316
21407SOL    HW165384   5.442   1.617   4.174 -0.2229  0.8125 -0.1926
21407SOL    HW265385   5.571   1.670   4.115  0.6575 -0.9811  0.0574
21408SOL     OW65386   5.331   6.992   6.444  0.0757  0.5382  0.1509
21408SOL    HW165387   5.399   6.947   6.393  0.1715  1.7627 -0.8377
21408SOL    HW265388   5.293   6.923   6.499  1.0740 -0.4796 -0.3913
21409SOL     OW65389   7.646   2.714   8.464  0.2043 -0.0320 -0.3090
21409SOL    HW165390   7.647   2.723   8.369 -1.0492  3.4100 -0.1325
21409SOL    HW265391   7.730   2.752   8.492 -1.0429  2.6812  0.0384
21410SOL     OW65392   2.545   3.030   4.267  0.0184 -0.1318  0.1981
21410SOL    HW165393   2.591   2.996   4.344 -0.7610  0.1044  0.7770
21410SOL    HW265394   2.610   3.025   4.197  0.4336 -1.2804  0.6368
21411SOL     OW65395   0.780   2.072   6.837 -0.4340 -0.1707 -0.7659
21411SOL    HW165396   0.766   1.978   6.846  0.8414 -0.2658  0.5514
21411SOL    HW265397   0.864   2.080   6.792  0.9947  0.2599  1.7938
21412SOL     OW65398   8.336   3.087   8.446  0.2150  0.1876  0.3620
21412SOL    HW165399   8.400   3.019   8.425 -0.4232 -0.6803  1.1321
21412SOL    HW265400   8.253   3.053   8.411  0.0806  1.0661 -0.1887
21413SOL     OW65401   3.539   0.202   6.292 -0.0463  0.1129 -0.0487
21413SOL    HW165402   3.472   0.134   6.277 -2.1970  1.9982  0.3893
21413SOL    HW265403   3.504   0.254   6.365  0.0178  3.3637 -2.1439
21414SOL     OW65404   5.606   5.906   2.950 -0.5075  0.7484  0.1769
21414SOL    HW165405   5.668   5.853   2.900  0.1815  0.0867  1.6768
21414SOL    HW265406   5.523   5.896   2.904  0.0827  0.1258 -0.7877
21415SOL     OW65407   0.195   0.503   7.579  0.4919  0.2124  0.3519
21415SOL    HW165408   0.102   0.503   7.559  0.6675  0.5930 -0.4918
21415SOL    HW265409   0.200   0.476   7.671 -0.4327  0.0273  0.3530
21416SOL     OW65410   3.101   6.619   2.897 -0.6034  0.5912 -0.3033
21416SOL    HW165411   3.146   6.650   2.819 -0.9125  1.4066 -0.1683
21416SOL    HW265412   3.009   6.611   2.871 -0.9080  1.9671  0.2682
21417SOL     OW65413   1.122   7.418   7.563 -0.7699  0.1152 -0.3002
21417SOL    HW165414   1.046   7.373   7.601 -1.8753  1.2263 -1.1243
21417SOL    HW265415   1.138   7.491   7.622  0.4979 -0.8281  0.5740
21418SOL     OW65416   5.719   8.858   4.546  0.4309  0.7256  0.1149
21418SOL    HW165417   5.791   8.912   4.580  1.1375 -1.7414  2.9790
21418SOL    HW265418   5.641   8.911   4.562  1.3344  2.4120 -0.7083
21419SOL     OW65419   6.620   8.227   7.835  0.2332  0.2203 -0.1838
21419SOL    HW165420   6.693   8.268   7.883  1.6452  1.2257 -2.9500
21419SOL    HW265421   6.659   8.149   7.795 -0.6762 -0.1514 -0.3665
21420SOL     OW65422   1.636   0.720   0.703  0.1676  0.0292 -0.1937
21420SOL    HW165423   1.641   0.775   0.625 -0.8280  0.8104  0.2669
21420SOL    HW265424   1.621   0.782   0.775  1.7545 -0.6169  0.7266
21421SOL     OW65425   5.123   3.517   6.601  0.1093  0.9706  0.4750
21421SOL    HW165426   5.086   3.456   6.665 -0.0353  1.0320  0.4506
21421SOL    HW265427   5.095   3.483   6.516  1.5703  0.0100  0.3339
21422SOL     OW65428   1.298   0.406   7.159 -0.3343 -0.3459  0.2668
21422SOL    HW165429   1.315   0.496   7.187  1.9432 -0.2965 -1.0084
21422SOL    HW265430   1.232   0.415   7.090  0.9101  0.5458 -0.8506
21423SOL     OW65431   7.971   2.066   8.587  0.0591  0.5704  0.1556
21423SOL    HW165432   7.877   2.061   8.570 -0.2120  0.9347  1.4798
21423SOL    HW265433   7.984   2.014   8.666  1.2030 -0.6390 -0.7765
21424SOL     OW65434   7.123   4.398   6.823 -0.2117 -0.4260  0.4009
21424SOL    HW165435   7.149   4.388   6.914 -1.9490  0.0350  0.9774
21424SOL    HW265436   7.142   4.313   6.783  1.0559 -0.4642  1.0305
21425SOL     OW65437   4.079   4.198   3.248 -0.0710 -0.6227  0.6407
21425SOL    HW165438   4.099   4.106   3.234  0.1492 -0.4285 -0.4290
21425SOL    HW265439   4.155   4.245   3.211 -0.4926  0.0007  0.5490
21426SOL     OW65440   7.605   0.678   3.630  0.0650  0.8044 -0.2805
21426SOL    HW165441   7.650   0.745   3.680 -1.6964  0.8406  1.3708
21426SOL    HW265442   7.513   0.707   3.627  0.0953  1.0539 -4.0188
21427SOL     OW65443   3.498   6.163   3.649 -0.4228  0.4468 -0.1646
21427SOL    HW165444   3.445   6.214   3.589 -1.7093 -0.6369  0.0108
21427SOL    HW265445   3.453   6.079   3.657  0.8961 -0.2412  0.6045
21428SOL     OW65446   4.045   1.637   3.549 -0.0811  0.5759  0.1607
21428SOL    HW165447   3.996   1.557   3.567 -0.5016  0.6334 -0.6625
21428SOL    HW265448   4.022   1.659   3.458 -1.5500  2.7107  0.9513
21429SOL     OW65449   7.044   6.548   7.593 -0.4103 -0.5151 -0.3703
21429SOL    HW165450   7.099   6.485   7.547 -0.0601 -1.7504  1.6079
21429SOL    HW265451   7.058   6.529   7.686  1.3669  3.8502  0.5217
21430SOL     OW65452   0.381   8.635   5.811 -0.7209  0.1291 -0.0219
21430SOL    HW165453   0.305   8.688   5.786 -0.6103 -0.4101 -1.6311
21430SOL    HW265454   0.349   8.579   5.882 -1.9311 -0.2442 -0.8147
21431SOL     OW65455   2.068   8.817   8.532  0.2767  0.6055 -0.0658
21431SOL    HW165456   2.000   8.796   8.596 -0.8333  0.7667 -1.1513
21431SOL    HW265457   2.044   8.767   8.454  2.7013 -1.1878  0.1965
21432SOL     OW65458   2.619   6.155   5.368 -0.1014  0.0068 -0.3188
21432SOL    HW165459   2.610   6.117   5.281 -2.2953 -0.4743  0.0600
21432SOL    HW265460   2.620   6.080   5.427 -0.6890  0.3810  0.1849
21433SOL     OW65461   3.461   1.653   0.122  0.0692  0.9023 -0.3235
21433SOL    HW165462   3.498   1.741   0.124  2.2670  0.0064  1.0395
21433SOL    HW265463   3.383   1.659   0.177  1.6198  1.4377  1.9309
21434SOL     OW65464   1.695   5.348   3.271 -0.4644  0.0875 -0.6042
21434SOL    HW165465   1.700   5.432   3.317  1.8635 -1.1608  1.6543
21434SOL    HW265466   1.700   5.282   3.340  3.1137 -1.9337 -2.4997
21435SOL     OW65467   0.817   1.886   4.898  0.1266  0.2501  0.0772
21435SOL    HW165468   0.858   1.896   4.984 -0.0457 -2.0392  0.4796
21435SOL    HW265469   0.869   1.942   4.840  1.8780 -0.1770  1.1684
21436SOL     OW65470   6.514   5.744   0.028  0.0794  0.4322 -0.1137
21436SOL    HW165471   6.569   5.745  -0.051  2.1426  0.8486  1.2312
21436SOL    HW265472   6.430   5.780   0.000  0.5502  0.0173 -2.2328
21437SOL     OW65473   3.976   1.202   2.244 -1.0969  0.4976  0.3600
21437SOL    HW165474   4.064   1.168   2.226 -1.0814  0.8582 -0.2777
21437SOL    HW265475   3.947   1.155   2.322 -0.1915  0.6382  0.7892
21438SOL     OW65476   5.084   6.657   1.925  0.1656 -0.1506 -0.1615
21438SOL    HW165477   5.052   6.650   1.835  0.8902  0.3662 -0.4672
21438SOL    HW265478   5.029   6.725   1.965  0.0533 -0.1575 -0.3041
21439SOL     OW65479   0.217   2.039   2.866 -0.2323 -0.4901  0.5667
21439SOL    HW165480   0.247   2.124   2.835 -0.8873  0.0819  1.4659
21439SOL    HW265481   0.297   1.994   2.894  0.2683 -0.6845 -1.0543
21440SOL     OW65482   6.131   7.220   4.402  0.5861 -0.4963  0.1777
21440SOL    HW165483   6.090   7.152   4.455 -0.5006  0.3887  0.4918
21440SOL    HW265484   6.088   7.213   4.317  1.0872 -0.7532 -0.0629
21441SOL     OW65485   5.971   0.085   4.663  0.0654 -0.1054 -0.0022
21441SOL    HW165486   6.045   0.026   4.647  0.1925 -0.7505  2.5365
21441SOL    HW265487   6.009   0.173   4.662  0.9230 -0.4408  1.3700
21442SOL     OW65488   5.393   3.582   6.322 -0.2018  0.0949 -0.3990
21442SOL    HW165489   5.484   3.603   6.341 -0.1868  0.2440 -0.6289
21442SOL    HW265490   5.379   3.613   6.232  0.1377 -1.8997 -1.1901
21443SOL     OW65491   8.673   0.850   3.730 -0.4633 -0.2680 -0.0636
21443SOL    HW165492   8.692   0.854   3.636 -0.1851  2.0504  0.0187
21443SOL    HW265493   8.745   0.798   3.767  0.0822 -0.2041 -1.0014
21444SOL     OW65494   8.156   4.852   4.591 -0.9701 -0.3031  0.2858
21444SOL    HW165495   8.136   4.945   4.580  0.4129  0.2529  1.9289
21444SOL    HW265496   8.221   4.834   4.523 -0.4906  0.2133  0.5980
21445SOL     OW65497   5.420   2.665   1.036  0.3791 -0.2465 -0.0728
21445SOL    HW165498   5.402   2.573   1.017 -1.4656  0.6791 -3.7750
21445SOL    HW265499   5.495   2.687   0.982  0.7031  0.4971  0.6519
21446SOL     OW65500   1.148   5.124   0.363  0.2996 -0.6076 -0.4545
21446SOL    HW165501   1.058   5.156   0.359  0.4951  0.4199  1.7347
21446SOL    HW265502   1.150   5.049   0.303 -1.7353 -0.0756 -1.2718
21447SOL     OW65503   1.704   4.189   1.463 -0.3933  0.0954  0.2447
21447SOL    HW165504   1.639   4.257   1.484 -0.4175 -0.3494  1.7543
21447SOL    HW265505   1.787   4.225   1.494  0.3652  1.1691 -2.7551
21448SOL     OW65506   4.377   7.213   5.972 -0.4314  0.2954 -0.4635
21448SOL    HW165507   4.447   7.204   5.907  0.1527  1.1699  0.0240
21448SOL    HW265508   4.315   7.273   5.932 -1.4059 -1.1984 -1.2871
21449SOL     OW65509   2.148   5.166   3.488 -0.1688  0.2014 -0.4059
21449SOL    HW165510   2.221   5.227   3.472 -0.2354  0.3230 -0.2447
21449SOL    HW265511   2.100   5.205   3.560  0.6580 -0.8293  0.7384
21450SOL     OW65512   2.027   7.991   1.493 -0.5928 -0.4692  0.2636
21450SOL    HW165513   2.112   8.034   1.505 -0.3441 -0.8549 -0.1093
21450SOL    HW265514   1.971   8.058   1.455  0.1963 -0.8508 -1.7101
21451SOL     OW65515   2.745   2.861   2.103 -0.7214 -0.4800  0.2415
21451SOL    HW165516   2.732   2.932   2.165 -0.6412  0.3300 -0.6471
21451SOL    HW265517   2.830   2.823   2.126 -0.8117 -0.3582  0.7801
21452SOL     OW65518   6.607   8.780   1.215 -0.1337 -0.1541 -0.0809
21452SOL    HW165519   6.556   8.753   1.139  0.4797 -2.3510  0.2238
21452SOL    HW265520   6.542   8.812   1.277 -0.6493  1.5660 -1.4384
21453SOL     OW65521   6.185   8.459   5.654 -0.3167 -0.7536 -0.3529
21453SOL    HW165522   6.168   8.472   5.747  1.8406  1.3676 -0.1441
21453SOL    HW265523   6.098   8.452   5.614 -1.2907 -1.4647  1.7641
21454SOL     OW65524   0.663   2.955   4.957  0.2692 -0.1121  0.1167
21454SOL    HW165525   0.617   2.881   4.918  0.9380 -1.0203  1.0040
21454SOL    HW265526   0.664   2.937   5.051  1.3730  0.4812  0.2397
21455SOL     OW65527   2.201   4.053   1.043  0.0686 -0.0338 -0.0613
21455SOL    HW165528   2.288   4.090   1.029  1.0726 -2.1854  0.0423
21455SOL    HW265529   2.179   4.012   0.960 -0.4913 -0.1749  0.1536
21456SOL     OW65530   6.343   3.846   5.014  0.3202 -0.0637  0.2361
21456SOL    HW165531   6.352   3.910   5.084 -1.0233 -0.3112  0.6497
21456SOL    HW265532   6.372   3.763   5.053  1.7174  0.1902 -0.1946
21457SOL     OW65533   1.044   1.337   2.316  0.5372  0.1957 -0.6387
21457SOL    HW165534   1.063   1.245   2.331  3.1451  0.7438 -0.0900
21457SOL    HW265535   1.002   1.366   2.397 -1.0295 -0.6335 -1.1135
21458SOL     OW65536   8.761   2.865   0.049 -0.5102 -0.1544 -0.3280
21458SOL    HW165537   8.672   2.867   0.084 -0.3541 -2.4646  0.3870
21458SOL    HW265538   8.801   2.945   0.081 -2.0689  0.5289  0.0255
21459SOL     OW65539   2.813   3.690   7.175 -0.2231 -0.3056  0.1451
21459SOL    HW165540   2.755   3.670   7.248 -0.0846  0.8829  0.5960
21459SOL    HW265541   2.818   3.785   7.173  0.1962 -0.3314 -1.0891
21460SOL     OW65542   8.665   2.078   3.035  0.3946 -0.5473  0.3611
21460SOL    HW165543   8.741   2.033   3.073  0.6957 -0.3069  0.0432
21460SOL    HW265544   8.598   2.009   3.029  1.3154 -1.3423 -1.4746
21461SOL     OW65545   4.037   6.185   1.512 -0.3632 -0.1193 -0.1122
21461SOL    HW165546   4.081   6.251   1.458  1.9157 -0.6503  0.9765
21461SOL    HW265547   4.031   6.225   1.599 -1.2197 -0.4223 -0.0276
21462SOL     OW65548   7.893   6.289   7.411  0.1910 -0.3108 -0.2919
21462SOL    HW165549   7.935   6.235   7.478  1.4747  0.6038 -0.3158
21462SOL    HW265550   7.799   6.272   7.420  0.4659 -1.3796  0.6855
21463SOL     OW65551   0.228   4.054   3.898  0.2333 -0.3218  0.1232
21463SOL    HW165552   0.252   4.114   3.968 -0.7923 -1.6442  1.6871
21463SOL    HW265553   0.305   4.050   3.842  0.1638  2.8162 -0.3769
21464SOL     OW65554   2.391   7.448   1.902  0.1664  0.3104  0.3477
21464SOL    HW165555   2.346   7.413   1.980 -0.5786 -0.4341 -0.3926
21464SOL    HW265556   2.361   7.392   1.831  2.4550 -0.3542 -0.1649
21465SOL     OW65557   2.528   5.148   0.203  0.1902 -0.6218 -0.6313
21465SOL    HW165558   2.492   5.112   0.284  2.1144  0.5755  0.8576
21465SOL    HW265559   2.504   5.085   0.135 -2.4135 -1.1319  0.6342
21466SOL     OW65560   2.924   7.730   5.998  0.2683  0.3415  0.5600
21466SOL    HW165561   2.913   7.806   5.941  0.6632 -0.2906 -0.3653
21466SOL    HW265562   2.985   7.673   5.952  0.0654 -0.4966  1.2957
21467SOL     OW65563   3.771   0.961   1.216 -0.9171  0.1948  0.6371
21467SOL    HW165564   3.864   0.942   1.221 -1.4756 -2.8365  1.3673
21467SOL    HW265565   3.736   0.935   1.301 -2.2852  2.6447  0.9271
21468SOL     OW65566   2.910   3.986   3.442  0.8586 -0.2596  0.6865
21468SOL    HW165567   2.830   3.985   3.495  0.5747 -0.1185  0.2662
21468SOL    HW265568   2.944   4.075   3.453 -0.0300  0.2544 -0.5857
21469SOL     OW65569   1.820   4.597   1.378 -0.1915 -0.0727  0.1797
21469SOL    HW165570   1.736   4.638   1.358  0.6815  0.6826 -2.1857
21469SOL    HW265571   1.800   4.537   1.451 -3.2766 -1.5566 -1.6702
21470SOL     OW65572   8.289   5.859   1.023 -0.3530 -0.0754 -0.1916
21470SOL    HW165573   8.213   5.914   1.010 -0.9105 -0.8116 -0.1028
21470SOL    HW265574   8.354   5.917   1.062 -0.1837  1.0363 -2.0207
21471SOL     OW65575   1.648   6.924   8.691  0.1245 -0.6460 -0.7232
21471SOL    HW165576   1.718   6.926   8.626  0.4986  1.7205 -0.3395
21471SOL    HW265577   1.683   6.972   8.766 -2.4301  2.2813 -1.1891
21472SOL     OW65578   7.537   6.218   4.432 -0.3957 -0.0650  0.3698
21472SOL    HW165579   7.617   6.200   4.480 -0.8059  0.7084  1.3729
21472SOL    HW265580   7.545   6.309   4.405 -2.1112  0.9447  2.9122
21473SOL     OW65581   2.128   4.748   6.036  0.0406  0.2947 -0.4520
21473SOL    HW165582   2.224   4.743   6.042 -0.0681 -1.4284  0.4123
21473SOL    HW265583   2.105   4.821   6.093  0.6958 -1.0706  1.7080
21474SOL     OW65584   1.712   4.878   4.853  0.4939 -0.6593  0.9007
21474SOL    HW165585   1.718   4.828   4.772 -1.9991 -1.6705  1.2489
21474SOL    HW265586   1.629   4.926   4.845  1.7086  1.7001  1.5659
21475SOL     OW65587   2.630   2.972   6.951  0.3162  0.6330  0.4637
21475SOL    HW165588   2.623   3.058   6.909 -0.1697  0.6047  0.4802
21475SOL    HW265589   2.591   2.912   6.888  2.0272  0.1871 -0.2285
21476SOL     OW65590   5.395   5.939   6.104  0.5214 -0.0988 -0.0631
21476SOL    HW165591   5.376   5.989   6.025  0.0156  2.4882  1.5903
21476SOL    HW265592   5.369   5.849   6.083  2.1274  0.0750 -3.4058
21477SOL     OW65593   3.733   4.396   8.124 -0.0947 -0.3628  0.5380
21477SOL    HW165594   3.750   4.481   8.083 -1.4317  0.0303  0.7276
21477SOL    HW265595   3.681   4.348   8.060 -0.6287 -0.4527  1.0282
21478SOL     OW65596   2.191   4.763   0.680  0.3080  0.2342 -0.5348
21478SOL    HW165597   2.138   4.685   0.695 -1.0629  1.4535  1.3154
21478SOL    HW265598   2.273   4.746   0.727  0.7332 -0.7422 -1.5665
21479SOL     OW65599   7.246   0.132   7.643 -0.2802  0.1383 -0.3187
21479SOL    HW165600   7.217   0.059   7.698  0.0362  1.5140  1.7858
21479SOL    HW265601   7.256   0.093   7.556 -2.2208 -1.8102  0.2227
21480SOL     OW65602   4.332   0.758   2.098 -0.0748 -0.0761  0.1643
21480SOL    HW165603   4.297   0.671   2.118 -1.7140  0.2246 -1.2051
21480SOL    HW265604   4.369   0.749   2.010  0.2984  0.4725  0.2606
21481SOL     OW65605   2.973   7.399   8.742 -0.2450 -0.0384  0.2223
21481SOL    HW165606   2.917   7.325   8.763  0.3773 -0.1794  1.5250
21481SOL    HW265607   2.916   7.476   8.755 -0.4195 -0.2211  0.5661
21482SOL     OW65608   4.822   4.277   0.989  0.4051 -0.6567 -0.4783
21482SOL    HW165609   4.865   4.358   0.963 -0.8716  0.2014 -0.0252
21482SOL    HW265610   4.789   4.295   1.078 -1.1837 -1.1069 -0.9318
21483SOL     OW65611   5.463   4.960   5.300  0.0983  0.1225 -0.3791
21483SOL    HW165612   5.457   5.055   5.288 -0.8727  0.1908  0.4520
21483SOL    HW265613   5.552   4.945   5.332 -0.4845  1.0783  1.8872
21484SOL     OW65614   1.854   6.558   0.115 -0.0980 -0.0121 -0.7617
21484SOL    HW165615   1.899   6.606   0.045 -0.6573 -0.3500 -1.3766
21484SOL    HW265616   1.799   6.495   0.068 -0.8836  0.1075 -0.0291
21485SOL     OW65617   0.095   3.448   2.595  0.4075 -0.3191  0.5284
21485SOL    HW165618   0.074   3.364   2.637  0.5890 -0.2944  0.6687
21485SOL    HW265619   0.083   3.432   2.501 -1.2266 -0.0296  0.6620
21486SOL     OW65620   3.641   2.398   5.141 -0.4737 -0.0162 -0.3252
21486SOL    HW165621   3.639   2.487   5.105 -0.9126 -0.3333 -1.0911
21486SOL    HW265622   3.591   2.404   5.223 -0.8830  0.3443 -0.6003
21487SOL     OW65623   4.331   7.591   1.956 -0.1589 -0.2406 -0.7689
21487SOL    HW165624   4.258   7.535   1.928 -0.1390 -1.1769  0.8895
21487SOL    HW265625   4.290   7.662   2.005  0.0097 -1.3126  1.0538
21488SOL     OW65626   8.457   5.685   8.515  0.8030 -0.2313 -0.2439
21488SOL    HW165627   8.543   5.684   8.474  0.9514 -2.1520  0.0117
21488SOL    HW265628   8.396   5.691   8.442  1.1421  1.0318 -0.4322
21489SOL     OW65629   1.118   4.887   8.499 -0.0114 -0.4974  0.3122
21489SOL    HW165630   1.141   4.832   8.424 -0.5429 -1.9980  1.2124
21489SOL    HW265631   1.180   4.960   8.495 -0.4967 -0.1147 -2.0149
21490SOL     OW65632   7.568   2.400   3.045 -0.0348 -0.4007 -0.6684
21490SOL    HW165633   7.472   2.401   3.041 -0.0540  1.8164 -0.5264
21490SOL    HW265634   7.595   2.457   2.973  1.0594  1.2945  1.0045
21491SOL     OW65635   6.144   3.923   7.838 -0.2646 -0.3356 -0.5571
21491SOL    HW165636   6.068   3.877   7.803 -0.4807  0.2882 -0.9112
21491SOL    HW265637   6.213   3.908   7.773  0.1904 -1.6502  0.1898
21492SOL     OW65638   8.413   1.683   0.579  0.5074  0.2485  0.2261
21492SOL    HW165639   8.329   1.704   0.620  0.6207  2.2784 -0.4494
21492SOL    HW265640   8.442   1.602   0.621 -0.8016  0.6339  1.9376
21493SOL     OW65641   6.460   4.576   0.247  0.3830  0.3255 -0.0606
21493SOL    HW165642   6.369   4.550   0.265  0.7378  0.4857  2.2546
21493SOL    HW265643   6.512   4.517   0.301  1.5750  1.3274 -0.0877
21494SOL     OW65644   5.272   0.050   3.998  0.0576  0.2002  0.6280
21494SOL    HW165645   5.326  -0.026   3.975  0.4060  0.6297 -0.0004
21494SOL    HW265646   5.207   0.056   3.928  1.4072  1.7927 -0.5713
21495SOL     OW65647   2.156   2.678   7.733 -0.0747 -0.6989 -0.0526
21495SOL    HW165648   2.094   2.719   7.672 -0.1583 -0.9453 -0.1358
21495SOL    HW265649   2.205   2.615   7.679  0.9452  0.2027 -0.2044
21496SOL     OW65650   0.023   3.587   0.830 -0.3798 -0.2851  0.2452
21496SOL    HW165651   0.073   3.518   0.873  0.7607 -0.0588 -0.6848
21496SOL    HW265652   0.053   3.668   0.871 -1.6048 -0.2769  1.2248
21497SOL     OW65653   2.566   6.828   7.915 -0.2557  0.2817 -0.1722
21497SOL    HW165654   2.632   6.769   7.877 -1.2790 -0.0754 -1.4936
21497SOL    HW265655   2.576   6.818   8.009  0.5275 -0.9512 -0.3636
21498SOL     OW65656   8.590   0.138   0.002  0.0377  0.2638 -0.1134
21498SOL    HW165657   8.515   0.105   0.052  1.9908 -1.4884  1.8886
21498SOL    HW265658   8.624   0.210   0.055  0.7397 -0.0433 -0.1428
21499SOL     OW65659   5.271   2.564   7.775 -0.0411 -0.2318  0.1500
21499SOL    HW165660   5.302   2.557   7.865 -1.4904 -0.3240  0.6613
21499SOL    HW265661   5.198   2.625   7.780  1.3020  1.6368 -1.3593
21500SOL     OW65662   3.311   3.159   7.457  0.0457  0.4659 -0.2611
21500SOL    HW165663   3.327   3.127   7.368  0.1749  0.0527 -0.0951
21500SOL    HW265664   3.220   3.135   7.476 -0.2767  1.3651 -0.6084
21501SOL     OW65665   6.457   8.262   6.507 -0.6675 -0.1276 -0.0828
21501SOL    HW165666   6.502   8.346   6.500  0.9367 -0.8480  0.8756
21501SOL    HW265667   6.433   8.241   6.417  2.7593 -0.5891 -1.0611
21502SOL     OW65668   0.968   7.950   7.225 -0.0536 -0.9068  0.6455
21502SOL    HW165669   0.992   7.999   7.145 -0.2464 -1.6415  0.1319
21502SOL    HW265670   0.977   8.015   7.295  0.5932 -0.3724  0.0933
21503SOL     OW65671   3.108   2.507   2.143 -0.2086 -0.0651  0.3162
21503SOL    HW165672   3.037   2.471   2.090 -0.3239 -0.7669  0.9318
21503SOL    HW265673   3.185   2.505   2.085 -0.7730  1.1265 -0.5013
21504SOL     OW65674   5.335   5.828   2.887  0.6820 -0.0860 -0.2584
21504SOL    HW165675   5.261   5.797   2.836  0.6669 -0.1676 -0.1865
21504SOL    HW265676   5.383   5.749   2.910 -1.0200 -0.4268  2.5619
21505SOL     OW65677   8.063   1.202   5.552  0.9265  0.5844 -0.5142
21505SOL    HW165678   7.993   1.163   5.500  0.9120  1.7980 -1.4431
21505SOL    HW265679   8.134   1.137   5.549  0.2387 -0.1861 -0.4463
21506SOL     OW65680   2.470   7.438   8.064  0.4497  0.0365  0.0022
21506SOL    HW165681   2.474   7.391   7.981  2.4882 -1.4438  0.8564
21506SOL    HW265682   2.408   7.509   8.048 -1.5463 -1.9628 -1.8549
21507SOL     OW65683   0.522   2.797   7.162 -0.1667 -0.4477  0.3424
21507SOL    HW165684   0.458   2.751   7.217  0.5435 -0.6103  1.0467
21507SOL    HW265685   0.503   2.890   7.178 -1.5410 -0.4534 -1.0134
21508SOL     OW65686   6.726   1.145   2.296 -0.1784 -0.0792  0.6303
21508SOL    HW165687   6.679   1.115   2.218 -2.0439  0.5657  1.4620
21508SOL    HW265688   6.810   1.176   2.262 -0.7229 -0.3099 -1.0496
21509SOL     OW65689   0.742   5.611   6.818 -0.1893  0.7833  0.2138
21509SOL    HW165690   0.744   5.681   6.753  1.4284  0.8672  0.3165
21509SOL    HW265691   0.711   5.534   6.769  0.3968  0.9959 -0.5052
21510SOL     OW65692   5.331   6.429   4.754 -0.4679 -0.0317 -0.1529
21510SOL    HW165693   5.306   6.399   4.841 -0.9183  0.1699 -0.2087
21510SOL    HW265694   5.248   6.455   4.713 -0.3691 -0.8579 -0.9139
21511SOL     OW65695   6.281   5.444   2.895  0.6252 -0.3530  0.5531
21511SOL    HW165696   6.228   5.368   2.871  0.3868 -0.0390  0.0723
21511SOL    HW265697   6.326   5.417   2.976 -2.4997  0.3749  2.7367
21512SOL     OW65698   0.446   7.407   6.933 -0.1535 -0.1434  0.4638
21512SOL    HW165699   0.379   7.472   6.914  1.1407  1.1304  0.0346
21512SOL    HW265700   0.502   7.406   6.855  1.1623 -0.0577  1.3647
21513SOL     OW65701   5.260   3.531   8.562  0.2545  0.4058 -0.3558
21513SOL    HW165702   5.317   3.585   8.616  0.4135  0.5955 -0.7079
21513SOL    HW265703   5.195   3.591   8.526  0.8276  0.5060 -1.2832
21514SOL     OW65704   7.429   1.646   5.360 -0.2315  0.6555  0.0735
21514SOL    HW165705   7.492   1.622   5.292 -1.5420  0.1318 -0.9841
21514SOL    HW265706   7.483   1.663   5.437  1.1391 -0.8363 -0.5032
21515SOL     OW65707   2.723   7.015   4.098  0.3191 -0.1358 -0.5120
21515SOL    HW165708   2.666   7.077   4.053 -0.1717 -0.7725 -0.7813
21515SOL    HW265709   2.809   7.057   4.097  0.1879  0.1395 -1.5195
21516SOL     OW65710   4.979   5.243   8.718  0.5566  0.2991  1.0923
21516SOL    HW165711   4.910   5.300   8.684  1.4450  0.1163 -1.2112
21516SOL    HW265712   5.059   5.275   8.675  1.6284 -0.5496  2.3954
21517SOL     OW65713   2.997   8.081   8.859 -0.2651  0.4266  0.1976
21517SOL    HW165714   3.068   8.019   8.873 -0.0531  0.6170 -0.0176
21517SOL    HW265715   2.949   8.046   8.783 -0.1710  0.5025  0.1025
21518SOL     OW65716   1.659   7.868   5.813  0.1515 -0.0532 -0.4471
21518SOL    HW165717   1.646   7.796   5.752 -3.0100  0.8673 -1.0578
21518SOL    HW265718   1.718   7.928   5.767 -0.6910 -0.2412 -1.8427
21519SOL     OW65719   6.046   2.436   8.430  0.2154  0.4760 -0.2295
21519SOL    HW165720   6.045   2.458   8.337 -1.1177  0.1029 -0.3100
21519SOL    HW265721   5.954   2.434   8.456  0.5623  3.1745  1.7236
21520SOL     OW65722   5.172   0.775   0.472 -0.4380  0.4659  0.0630
21520SOL    HW165723   5.103   0.840   0.456 -2.0258 -0.4691  2.6019
21520SOL    HW265724   5.132   0.692   0.446  0.2585  0.0780  0.2238
21521SOL     OW65725   4.266   7.674   3.358  0.8410  0.2218  0.4385
21521SOL    HW165726   4.340   7.658   3.300 -0.9200  1.9115 -2.4857
21521SOL    HW265727   4.267   7.768   3.374 -0.1150  0.1209  1.2122
21522SOL     OW65728   6.730   4.281   8.697 -0.3119  0.3410 -0.1023
21522SOL    HW165729   6.732   4.350   8.763  0.9834  0.3574 -0.1410
21522SOL    HW265730   6.662   4.221   8.727 -0.1908  0.6928  0.8961
21523SOL     OW65731   1.943   4.766   0.418  0.2522 -0.2277  0.1698
21523SOL    HW165732   1.996   4.705   0.470  0.4257  0.2132  0.5189
21523SOL    HW265733   1.885   4.710   0.367  0.8482 -0.7082  0.0062
21524SOL     OW65734   3.545   4.433   0.799 -0.2091 -1.0563 -0.3865
21524SOL    HW165735   3.617   4.398   0.851 -0.1087 -2.1673 -1.2452
21524SOL    HW265736   3.563   4.403   0.710 -0.1438  1.1346 -1.1807
21525SOL     OW65737   6.161   6.692   5.326  0.5320 -0.1066  0.1816
21525SOL    HW165738   6.253   6.701   5.351  0.7633 -0.2483 -0.6074
21525SOL    HW265739   6.113   6.735   5.397  1.2295  0.4049  0.3564
21526SOL     OW65740   4.390   8.160   7.122  0.0951 -0.2912  0.3684
21526SOL    HW165741   4.352   8.125   7.042 -1.0962  0.3145  0.6486
21526SOL    HW265742   4.327   8.138   7.191  0.5301  0.2124  0.9437
21527SOL     OW65743   7.651   7.098   2.303  0.3439 -0.5467 -0.3625
21527SOL    HW165744   7.695   7.120   2.385 -0.1158 -1.7290  0.2225
21527SOL    HW265745   7.649   7.180   2.254 -0.9740  0.6748  1.5793
21528SOL     OW65746   3.983   4.145   8.363 -0.2452 -0.6619 -0.2589
21528SOL    HW165747   4.019   4.084   8.427  1.8884 -0.7093 -1.4055
21528SOL    HW265748   3.891   4.153   8.387 -0.0676 -2.5223  1.3263
21529SOL     OW65749   7.677   0.288   7.528  0.5501  0.7718 -0.5352
21529SOL    HW165750   7.691   0.195   7.545  1.2290  0.9940  0.1799
21529SOL    HW265751   7.592   0.307   7.567  0.6358  0.5614 -0.2463
21530SOL     OW65752   4.886   1.499   1.542 -0.1322 -0.2973  0.3430
21530SOL    HW165753   4.832   1.540   1.610  0.5027  0.0488  0.6506
21530SOL    HW265754   4.840   1.516   1.461 -1.0718 -0.9972  0.7191
21531SOL     OW65755   3.535   2.569   2.638 -0.0746 -0.3436  0.4671
21531SOL    HW165756   3.466   2.599   2.578 -0.7258 -0.3103  1.2147
21531SOL    HW265757   3.570   2.650   2.675  1.4333 -0.2654 -1.0382
21532SOL     OW65758   6.972   3.994   3.222  0.0919  0.9707 -0.0359
21532SOL    HW165759   7.043   4.003   3.159 -0.1563 -0.8637 -0.6416
21532SOL    HW265760   7.013   4.012   3.307  0.8925  1.5181 -0.5233
21533SOL     OW65761   0.709   0.793   7.516 -0.0841  0.5281  0.1053
21533SOL    HW165762   0.739   0.793   7.607  1.4049 -0.1286 -0.3550
21533SOL    HW265763   0.640   0.727   7.513 -0.4711  0.8831  0.8386
21534SOL     OW65764   5.604   5.746   4.102 -0.3521 -0.4144  0.4381
21534SOL    HW165765   5.583   5.654   4.085 -1.0118 -0.2272  0.1777
21534SOL    HW265766   5.695   5.756   4.076 -1.2253 -0.1817 -3.0611
21535SOL     OW65767   0.774   1.425   1.700 -0.5578 -0.2756  0.3861
21535SOL    HW165768   0.779   1.505   1.648 -1.8954  0.9644  2.0213
21535SOL    HW265769   0.702   1.376   1.661  0.6902 -1.0473 -1.0328
21536SOL     OW65770   6.122   0.540   5.884  0.2113  0.0590 -0.0181
21536SOL    HW165771   6.152   0.619   5.929 -0.6304  0.7804 -0.6737
21536SOL    HW265772   6.062   0.572   5.817  0.9027 -1.0343 -1.2055
21537SOL     OW65773   8.780   3.970   1.151  0.3211 -0.0688 -0.4592
21537SOL    HW165774   8.778   4.051   1.202  0.1586  0.3934 -1.1866
21537SOL    HW265775   8.721   3.911   1.198 -0.0465  0.4437 -0.2594
21538SOL     OW65776   6.115   5.445   4.402 -0.4088 -0.4060  0.1777
21538SOL    HW165777   6.081   5.535   4.402 -0.1579 -0.2921 -1.0535
21538SOL    HW265778   6.134   5.426   4.494 -1.6378  0.3498  0.6036
21539SOL     OW65779   5.021   3.695   1.823 -0.4845  0.2128  0.1578
21539SOL    HW165780   4.981   3.613   1.796  2.3494 -1.0702 -0.5890
21539SOL    HW265781   5.068   3.673   1.904 -0.6143  1.4218  0.5838
21540SOL     OW65782   7.659   2.948   2.893 -0.0953  0.1330  0.0917
21540SOL    HW165783   7.744   2.949   2.849 -0.5718  1.1115 -0.8273
21540SOL    HW265784   7.620   2.864   2.868  0.7004 -0.4477  0.7469
21541SOL     OW65785   1.707   4.708   8.156 -0.1652 -0.2303 -0.2234
21541SOL    HW165786   1.715   4.801   8.136  0.0309 -0.2587 -0.2737
21541SOL    HW265787   1.753   4.664   8.085 -1.7928 -0.4418 -1.2093
21542SOL     OW65788   1.441   0.844   6.036 -0.1756 -0.2798 -0.3321
21542SOL    HW165789   1.377   0.773   6.037 -0.4520 -0.3047 -4.4791
21542SOL    HW265790   1.452   0.867   6.128 -3.0645 -2.9834  0.8757
21543SOL     OW65791   0.463   8.862   1.288  0.1505 -0.1607  0.0957
21543SOL    HW165792   0.426   8.935   1.338  1.0427  0.5701 -0.2812
21543SOL    HW265793   0.520   8.904   1.224  2.1412 -1.2515  1.0599
21544SOL     OW65794   7.624   5.014   1.428 -0.7016 -0.2216  0.4688
21544SOL    HW165795   7.697   5.075   1.442  0.0550 -0.8790 -0.4665
21544SOL    HW265796   7.550   5.071   1.405  0.2413  0.3196 -1.3824
21545SOL     OW65797   0.582   4.133   7.684  0.6289 -0.3699  0.4027
21545SOL    HW165798   0.556   4.162   7.771 -0.4314 -0.8308  0.2562
21545SOL    HW265799   0.663   4.084   7.697 -0.6430 -2.3315  1.4589
21546SOL     OW65800   1.143   7.723   3.360  0.5087  0.5051 -0.8170
21546SOL    HW165801   1.189   7.642   3.384 -0.7807 -0.0340 -0.0642
21546SOL    HW265802   1.199   7.764   3.294  2.5711  0.3976  0.7714
21547SOL     OW65803   6.209   5.851   7.712 -0.0453  0.2292 -0.7562
21547SOL    HW165804   6.145   5.796   7.757  0.2476  1.6617  1.6144
21547SOL    HW265805   6.159   5.925   7.679 -0.1736 -0.5689 -2.4759
21548SOL     OW65806   3.385   2.933   8.498 -0.3355  0.4236 -0.1297
21548SOL    HW165807   3.338   2.862   8.542  1.1749 -0.1026  0.6990
21548SOL    HW265808   3.317   2.996   8.474 -1.5633 -0.7604  0.1599
21549SOL     OW65809   1.442   3.061   8.441 -0.2107 -0.0886  0.3371
21549SOL    HW165810   1.392   3.117   8.500 -2.2908 -1.6512  0.1390
21549SOL    HW265811   1.491   3.122   8.386  0.2693  1.4414  2.3199
21550SOL     OW65812   2.618   1.773   1.860 -0.1704 -0.1856 -0.1596
21550SOL    HW165813   2.543   1.742   1.911 -0.0874  0.8659  0.6293
21550SOL    HW265814   2.692   1.719   1.890 -0.3876 -0.4791 -0.1491
21551SOL     OW65815   8.675   6.271   5.548  0.0595 -0.5000  0.8616
21551SOL    HW165816   8.638   6.349   5.506  0.0790  0.5028  2.5695
21551SOL    HW265817   8.640   6.198   5.498 -0.9178  0.5629 -0.0929
21552SOL     OW65818   3.503   6.654   0.876  0.1223  0.0398  0.4801
21552SOL    HW165819   3.517   6.708   0.798  0.2175 -2.2993 -1.2581
21552SOL    HW265820   3.423   6.688   0.915 -0.4378  0.7552 -1.1794
21553SOL     OW65821   7.926   8.829   3.189 -0.0583 -0.0128 -0.1334
21553SOL    HW165822   7.897   8.912   3.226  0.1091 -0.0963  0.1932
21553SOL    HW265823   7.938   8.772   3.265 -2.4158 -1.0733 -0.4762
21554SOL     OW65824   0.549   1.978   0.632  0.0066 -0.0451  0.0845
21554SOL    HW165825   0.553   1.940   0.545 -0.9047 -3.1840  1.2815
21554SOL    HW265826   0.462   2.017   0.638 -0.1764 -0.4014 -0.2075
21555SOL     OW65827   2.196   0.062   2.522 -0.0573  0.2469 -0.3066
21555SOL    HW165828   2.271   0.076   2.579 -0.9553  1.3584  0.6608
21555SOL    HW265829   2.130   0.023   2.579 -0.0438 -1.3200 -1.2870
21556SOL     OW65830   2.327   3.191   7.253  0.2216 -0.3427  0.3620
21556SOL    HW165831   2.310   3.281   7.282 -2.8287 -1.1298  1.2715
21556SOL    HW265832   2.404   3.164   7.303 -0.2968  0.9544  1.9457
21557SOL     OW65833   6.024   7.375   8.561  0.2928  0.0758  0.1402
21557SOL    HW165834   5.956   7.345   8.500 -0.4465  0.4039  0.7960
21557SOL    HW265835   6.101   7.391   8.505 -0.4114  0.4950 -0.7346
21558SOL     OW65836   2.460   3.960   2.223 -0.3020  0.4566 -0.1962
21558SOL    HW165837   2.534   3.908   2.190  0.2430  1.1729 -0.1277
21558SOL    HW265838   2.383   3.920   2.183  0.0663 -0.6534  0.1628
21559SOL     OW65839   4.060   1.725   1.631 -0.2124  0.2888  0.0368
21559SOL    HW165840   4.014   1.798   1.672  0.8210 -0.8147  3.4817
21559SOL    HW265841   3.993   1.683   1.576 -2.3882  0.7519  2.1296
21560SOL     OW65842   2.589   8.197   3.861 -0.2123  0.1026 -0.2289
21560SOL    HW165843   2.565   8.288   3.881  0.5692  0.2703 -0.0217
21560SOL    HW265844   2.630   8.201   3.775  1.9129  0.3299  0.7307
21561SOL     OW65845   7.867   6.426   0.399 -0.2584 -0.0084  0.6115
21561SOL    HW165846   7.876   6.372   0.477  0.4060  0.3370  0.7831
21561SOL    HW265847   7.938   6.398   0.342  1.8945  2.5258  1.8313
21562SOL     OW65848   6.517   0.210   4.966 -0.3215 -0.5023  0.1712
21562SOL    HW165849   6.529   0.236   4.875 -3.1545  0.3281 -0.0752
21562SOL    HW265850   6.486   0.119   4.961 -0.0011 -0.6208  0.3392
21563SOL     OW65851   8.393   4.740   5.728 -0.4446  0.0908  0.8831
21563SOL    HW165852   8.407   4.769   5.638 -1.1304  2.6539  1.5065
21563SOL    HW265853   8.481   4.724   5.762 -0.0852  0.4604  0.1645
21564SOL     OW65854   5.239   6.178   1.790 -0.0161 -0.2318  0.0961
21564SOL    HW165855   5.233   6.083   1.803  1.4850 -0.4953 -0.8691
21564SOL    HW265856   5.313   6.204   1.844 -0.4086  0.3978  0.3337
21565SOL     OW65857   6.158   5.741   3.893 -0.6550 -0.6770  0.4990
21565SOL    HW165858   6.196   5.685   3.826  1.2844  0.6236  0.4656
21565SOL    HW265859   6.226   5.805   3.914 -2.5000  1.2327  1.0778
21566SOL     OW65860   1.599   6.285   7.125  0.9752 -0.3407 -0.0720
21566SOL    HW165861   1.581   6.219   7.058 -0.3800 -0.0502 -0.0204
21566SOL    HW265862   1.627   6.235   7.201 -0.2456 -0.8970  0.0382
21567SOL     OW65863   3.849   4.318   5.132  0.2889 -0.3855 -0.7535
21567SOL    HW165864   3.792   4.245   5.157  0.3405 -0.3328 -0.4687
21567SOL    HW265865   3.832   4.333   5.039 -0.9763  0.3553 -0.4245
21568SOL     OW65866   1.462   4.817   8.062 -0.0108 -0.2398 -0.2179
21568SOL    HW165867   1.522   4.750   8.095 -0.2552 -0.0097  0.7209
21568SOL    HW265868   1.378   4.772   8.053 -0.4117  0.1322  1.3168
21569SOL     OW65869   5.522   3.959   1.205  0.1020 -0.2594  0.0412
21569SOL    HW165870   5.445   4.008   1.233  0.7568  1.0219 -0.3256
21569SOL    HW265871   5.595   4.020   1.217  0.8126 -0.7707 -1.4232
21570SOL     OW65872   1.944   1.993   1.317  0.6593 -0.3684 -0.1649
21570SOL    HW165873   1.944   2.030   1.405  1.4700 -0.8890  0.0708
21570SOL    HW265874   1.853   1.967   1.302  0.3771  0.3545  0.2393
21571SOL     OW65875   1.309   7.690   0.985 -0.3137 -0.1105  0.3545
21571SOL    HW165876   1.270   7.690   1.072  0.8604 -1.0561  0.9136
21571SOL    HW265877   1.241   7.655   0.928  0.3449 -4.0624  1.6799
21572SOL     OW65878   5.918   7.641   8.492 -0.1080  0.2069  0.2048
21572SOL    HW165879   5.944   7.557   8.530  0.7964  0.6759  0.6549
21572SOL    HW265880   6.000   7.690   8.483 -0.8230  1.8693  1.9598
21573SOL     OW65881   2.322   1.084   7.804 -0.5585  0.2333 -0.2691
21573SOL    HW165882   2.382   1.009   7.801 -1.9930 -0.9042 -2.2868
21573SOL    HW265883   2.344   1.135   7.726 -2.3512 -0.3512 -1.1943
21574SOL     OW65884   6.236   5.330   4.168 -0.1559 -0.5278  0.1956
21574SOL    HW165885   6.182   5.359   4.241  1.2326 -0.4898  1.2592
21574SOL    HW265886   6.325   5.329   4.204  0.5593 -0.5096 -1.5071
21575SOL     OW65887   1.596   4.273   7.222 -0.5015  0.4351  0.2670
21575SOL    HW165888   1.677   4.267   7.273 -0.2281 -0.9388 -0.2767
21575SOL    HW265889   1.596   4.362   7.187  0.6293  0.5491  0.5256
21576SOL     OW65890   3.607   2.597   1.076 -0.4549  1.0588 -0.3196
21576SOL    HW165891   3.615   2.684   1.115  0.9938  0.5277  0.6502
21576SOL    HW265892   3.645   2.538   1.141 -0.3452 -0.1731 -1.4568
21577SOL     OW65893   0.822   1.536   5.880  1.1579  0.3370 -0.3910
21577SOL    HW165894   0.873   1.614   5.858  1.9692 -0.4525 -1.4028
21577SOL    HW265895   0.881   1.482   5.931  1.4284 -0.6586 -1.7026
21578SOL     OW65896   2.385   8.214   4.915  0.0041 -0.3592  0.5495
21578SOL    HW165897   2.416   8.146   4.855  0.0708  0.6069 -0.5497
21578SOL    HW265898   2.417   8.187   5.001  1.8418 -0.6506 -0.1806
21579SOL     OW65899   6.197   7.265   5.995 -0.7293 -0.3392  0.1408
21579SOL    HW165900   6.132   7.331   5.970 -0.8310 -0.6894 -0.5380
21579SOL    HW265901   6.244   7.245   5.915 -0.1957 -0.5485  0.4993
21580SOL     OW65902   1.530   0.723   2.862 -0.1368 -0.3501 -0.3068
21580SOL    HW165903   1.496   0.801   2.818 -0.4183  0.4677  1.3049
21580SOL    HW265904   1.599   0.755   2.919  0.1462 -1.3718 -0.0517
21581SOL     OW65905   3.511   8.083   6.722 -0.1521  0.2297  0.4108
21581SOL    HW165906   3.515   8.138   6.644  0.0671 -1.4066 -0.7960
21581SOL    HW265907   3.584   8.022   6.712 -1.4846 -1.5066  0.6632
21582SOL     OW65908   3.378   2.884   4.385 -0.1086  0.2900 -0.2449
21582SOL    HW165909   3.377   2.899   4.480 -2.1430  1.5773 -0.4049
21582SOL    HW265910   3.288   2.862   4.363  0.3296  0.0040 -1.8955
21583SOL     OW65911   4.762   8.204   2.257 -0.3342  0.4101  0.5799
21583SOL    HW165912   4.711   8.166   2.186 -0.2460 -0.5568  1.0207
21583SOL    HW265913   4.814   8.131   2.291  0.5605  1.1473  0.8166
21584SOL     OW65914   1.785   3.424   1.178  0.3345  0.5085  1.0073
21584SOL    HW165915   1.778   3.331   1.159  0.0937  0.4852  1.2047
21584SOL    HW265916   1.762   3.467   1.096  1.6218  0.3889  0.5586
21585SOL     OW65917   6.825   2.308   5.492 -0.1887  0.2232 -0.1332
21585SOL    HW165918   6.797   2.236   5.435 -2.7943  0.7860  0.3026
21585SOL    HW265919   6.814   2.275   5.581 -0.7637  0.9056  0.0613
21586SOL     OW65920   4.848   8.707   2.658  0.0310  0.3437 -0.1579
21586SOL    HW165921   4.797   8.634   2.693  0.9754 -0.1054  0.3469
21586SOL    HW265922   4.939   8.680   2.671  0.4377  2.3942  1.7269
21587SOL     OW65923   3.266   7.711   2.018  0.2265 -0.5737 -0.4946
21587SOL    HW165924   3.230   7.671   2.098  0.2972  1.8012  0.8066
21587SOL    HW265925   3.359   7.723   2.037  0.6318 -1.5987 -1.6783
21588SOL     OW65926   2.013   5.386   4.269 -0.1518 -0.1455  0.8700
21588SOL    HW165927   2.025   5.295   4.298 -1.4092 -0.3058  0.9508
21588SOL    HW265928   1.948   5.421   4.329 -0.0400  0.6645  0.5240
21589SOL     OW65929   8.629   0.790   8.610 -0.1869 -0.3536 -0.0864
21589SOL    HW165930   8.715   0.824   8.634  1.8294 -1.7617 -4.2980
21589SOL    HW265931   8.634   0.696   8.629 -1.7916 -0.1228  1.7891
21590SOL     OW65932   7.573   1.573   8.185 -0.0791  0.6544 -0.5889
21590SOL    HW165933   7.631   1.513   8.139 -1.6458 -0.9157 -0.6466
21590SOL    HW265934   7.501   1.517   8.216 -0.8274  2.2607  0.7122
21591SOL     OW65935   1.361   1.998   2.999  0.0062 -0.1914 -0.0911
21591SOL    HW165936   1.435   1.997   2.938 -0.2743  0.9480 -0.4798
21591SOL    HW265937   1.296   1.939   2.960 -0.1153  0.4240 -0.8377
21592SOL     OW65938   0.966   6.843   6.126 -0.5124 -0.8698  0.3275
21592SOL    HW165939   0.945   6.801   6.209 -0.8286 -2.2272 -0.4032
21592SOL    HW265940   1.022   6.780   6.080  0.6714  0.3751 -0.0078
21593SOL     OW65941   2.748   2.115   3.077  0.5362  0.1353  0.1758
21593SOL    HW165942   2.705   2.154   3.153  1.5144  1.2014  0.2097
21593SOL    HW265943   2.734   2.178   3.006  0.7843 -0.2025 -0.1819
21594SOL     OW65944   2.738   2.178   5.032  0.2462 -0.0151 -0.0856
21594SOL    HW165945   2.687   2.112   5.080  1.4721 -0.9446 -0.0033
21594SOL    HW265946   2.712   2.166   4.941  1.9377 -2.1232 -0.3911
21595SOL     OW65947   1.346   2.839   0.376  0.0218 -0.5790 -0.2448
21595SOL    HW165948   1.393   2.909   0.331 -1.1509  0.8781  0.6919
21595SOL    HW265949   1.402   2.762   0.366  1.3311  0.4597 -1.3609
21596SOL     OW65950   5.545   1.676   7.316  0.8536  0.3490 -0.4268
21596SOL    HW165951   5.556   1.597   7.263  0.1322  0.7044 -1.1115
21596SOL    HW265952   5.599   1.742   7.273  0.4410  0.5772 -0.6003
21597SOL     OW65953   4.566   7.634   2.081  0.2847 -0.4820  0.2629
21597SOL    HW165954   4.627   7.698   2.044  1.7287 -1.7061  0.3834
21597SOL    HW265955   4.479   7.668   2.061  1.0043  1.0083 -0.5099
21598SOL     OW65956   5.504   4.994   2.945  0.0835 -0.0959  0.3750
21598SOL    HW165957   5.523   4.901   2.931  0.8876  0.2002 -0.6502
21598SOL    HW265958   5.445   4.996   3.021 -0.1377 -1.4514  0.2584
21599SOL     OW65959   7.195   3.364   3.828 -0.5766  0.3258 -0.2441
21599SOL    HW165960   7.268   3.314   3.863 -0.9208  0.1187  0.1881
21599SOL    HW265961   7.196   3.446   3.878 -1.3752 -0.1758  0.6246
21600SOL     OW65962   2.685   2.623   0.753 -0.3060  0.0433 -0.3516
21600SOL    HW165963   2.776   2.592   0.750 -0.3909 -0.3891  1.1380
21600SOL    HW265964   2.639   2.567   0.690  0.1215 -0.9329  0.1783
21601SOL     OW65965   3.381   6.615   3.875 -0.1497  0.3819  0.3074
21601SOL    HW165966   3.398   6.594   3.783 -1.4593 -0.1619  0.1625
21601SOL    HW265967   3.412   6.538   3.923 -0.3751  0.2360  0.2229
21602SOL     OW65968   5.366   0.969   6.172  0.4152  0.1961  0.6728
21602SOL    HW165969   5.449   1.013   6.153  0.3813  0.5833  1.3733
21602SOL    HW265970   5.361   0.968   6.267 -0.6992  0.7651  0.6284
21603SOL     OW65971   0.579   4.597   7.878 -0.1731 -0.2282 -0.0213
21603SOL    HW165972   0.643   4.645   7.930  1.2801 -1.8854 -0.2121
21603SOL    HW265973   0.501   4.652   7.880  1.6391  2.6108 -0.9931
21604SOL     OW65974   8.151   6.334   2.965 -0.4471 -0.0008 -0.0034
21604SOL    HW165975   8.150   6.338   2.870 -2.3414 -0.7402 -0.0565
21604SOL    HW265976   8.244   6.331   2.988  0.0339 -0.3303 -1.8376
21605SOL     OW65977   6.044   3.369   1.267 -0.2091  0.1155  0.1195
21605SOL    HW165978   6.013   3.353   1.178 -1.1407  0.6520  0.3417
21605SOL    HW265979   6.047   3.464   1.275 -0.2207  0.0703  0.7000
21606SOL     OW65980   5.958   4.933   0.982  0.8772  0.0371  0.1397
21606SOL    HW165981   5.969   4.838   0.975 -1.0603 -0.1417 -1.1329
21606SOL    HW265982   5.972   4.952   1.075  0.2958 -1.6399  0.6067
21607SOL     OW65983   4.454   8.183   4.694 -0.2382  0.1761 -0.4454
21607SOL    HW165984   4.522   8.224   4.641  0.4331  0.1325  0.3602
21607SOL    HW265985   4.372   8.219   4.661  0.2242  0.7570 -0.9690
21608SOL     OW65986   1.797   1.797   3.544 -0.0201 -0.3008 -0.2322
21608SOL    HW165987   1.714   1.752   3.524  0.1298 -0.3874 -0.6635
21608SOL    HW265988   1.850   1.786   3.466  0.4956 -0.4488  0.1342
21609SOL     OW65989   1.082   5.056   7.537 -0.0922 -0.4308 -0.3941
21609SOL    HW165990   1.149   5.120   7.510  1.4280 -1.6668  0.2446
21609SOL    HW265991   1.027   5.044   7.460 -0.1146  1.2507 -0.6801
21610SOL     OW65992   8.147   6.353   2.694 -0.0897 -0.1031  0.3324
21610SOL    HW165993   8.199   6.391   2.623 -0.0814 -0.4872  0.1344
21610SOL    HW265994   8.073   6.311   2.651 -0.9558  1.0278  0.6514
21611SOL     OW65995   7.998   0.108   1.317 -0.0547 -0.2284  0.4435
21611SOL    HW165996   7.941   0.184   1.329  1.8378  1.1911  0.9285
21611SOL    HW265997   7.947   0.049   1.261 -1.7466  1.1963  0.3764
21612SOL     OW65998   5.940   7.870   0.358  0.6372 -0.3747  0.2202
21612SOL    HW165999   5.994   7.793   0.374  0.5696 -0.4167  0.2473
21612SOL    HW266000   6.002   7.943   0.358  0.9067 -0.5781 -1.2403
21613SOL     OW66001   5.086   3.770   3.282  0.4065 -0.3810  0.8892
21613SOL    HW166002   5.151   3.736   3.220  0.6592  0.7804  0.4917
21613SOL    HW266003   5.083   3.705   3.352  1.8263 -0.5715  0.7957
21614SOL     OW66004   0.085   0.197   5.568 -0.3516 -0.2607 -0.6690
21614SOL    HW166005   0.133   0.119   5.537  2.5035  0.5053  1.4046
21614SOL    HW266006   0.012   0.205   5.507  0.1355 -3.6220 -1.9467
21615SOL     OW66007   4.123   0.245   3.082 -0.6203 -0.3926 -0.1423
21615SOL    HW166008   4.113   0.174   3.018  0.7909 -0.3515 -0.4360
21615SOL    HW266009   4.174   0.205   3.153  3.0400  1.0567 -1.7020
21616SOL     OW66010   6.500   4.437   6.180  0.2642 -0.0397 -0.0874
21616SOL    HW166011   6.467   4.427   6.090  2.8816 -2.1800 -0.9545
21616SOL    HW266012   6.465   4.360   6.226  1.8662 -0.9983 -0.3713
21617SOL     OW66013   6.071   5.017   2.542 -0.0733  0.4817 -0.2713
21617SOL    HW166014   6.115   4.983   2.464  0.6115 -0.1193  0.3600
21617SOL    HW266015   5.984   4.978   2.540  0.8985 -1.9355  0.7864
21618SOL     OW66016   6.534   8.145   4.116 -0.0755 -0.1921  0.0547
21618SOL    HW166017   6.627   8.131   4.097  0.4690  0.8130  1.7128
21618SOL    HW266018   6.508   8.216   4.057 -0.1898 -1.3465 -1.3479
21619SOL     OW66019   8.395   8.255   6.463  0.5342 -0.0644  0.3254
21619SOL    HW166020   8.439   8.176   6.494 -0.8513 -0.7183  0.7142
21619SOL    HW266021   8.316   8.261   6.517  1.1132  2.1822  1.0253
21620SOL     OW66022   7.238   2.327   4.463  0.3608 -0.1965 -0.4126
21620SOL    HW166023   7.299   2.276   4.410 -0.0990 -1.1952  0.0050
21620SOL    HW266024   7.177   2.364   4.399  0.4888 -0.4576 -0.6904
21621SOL     OW66025   5.636   1.425   1.380 -0.5599 -0.0425 -0.1512
21621SOL    HW166026   5.551   1.386   1.358 -1.0485  0.1194  1.3296
21621SOL    HW266027   5.688   1.416   1.300 -1.2693 -2.0341 -0.4375
21622SOL     OW66028   1.884   2.386   1.753 -0.1780 -0.2964 -0.1880
21622SOL    HW166029   1.855   2.336   1.676  0.6114 -0.7402 -0.1997
21622SOL    HW266030   1.837   2.346   1.826 -0.4797 -0.2559 -0.3574
21623SOL     OW66031   5.599   6.233   4.909 -0.4164  0.2966 -0.2060
21623SOL    HW166032   5.521   6.207   4.959 -0.2637 -0.5253 -0.3934
21623SOL    HW266033   5.609   6.326   4.929 -0.8380  0.1708  0.6484
21624SOL     OW66034   4.344   8.466   4.608 -0.2011 -0.0281  0.3002
21624SOL    HW166035   4.340   8.525   4.533  1.0507  0.4568  0.5961
21624SOL    HW266036   4.358   8.524   4.683  0.8019 -0.6773  0.6304
21625SOL     OW66037   3.485   2.349   7.701  0.0671 -0.6871 -0.1956
21625SOL    HW166038   3.409   2.407   7.702 -1.9102 -3.1273  0.5180
21625SOL    HW266039   3.497   2.328   7.608  1.0717  1.1097 -0.5092
21626SOL     OW66040   0.484   7.205   0.822  0.4926  0.3475 -0.3882
21626SOL    HW166041   0.390   7.192   0.808  0.4866 -0.8951  0.6471
21626SOL    HW266042   0.501   7.294   0.792 -1.2243  0.9871  0.4549
21627SOL     OW66043   1.935   4.739   1.955  0.3525 -0.0223  0.3033
21627SOL    HW166044   1.962   4.759   2.044  1.1532 -1.1958  0.3559
21627SOL    HW266045   2.003   4.680   1.922 -0.8071 -0.9950 -0.4779
21628SOL     OW66046   0.529   1.626   2.473 -0.1189 -0.1133  0.3882
21628SOL    HW166047   0.447   1.664   2.442  0.8366  2.7767  1.0897
21628SOL    HW266048   0.557   1.569   2.402 -1.6567  0.5375 -0.7997
21629SOL     OW66049   8.544   3.535   5.315  0.3559  0.2345 -0.4523
21629SOL    HW166050   8.538   3.598   5.388  3.4017  0.4203 -0.2336
21629SOL    HW266051   8.512   3.583   5.239 -0.0984  1.0443  0.2346
21630SOL     OW66052   0.744   2.065   1.302  0.1520  0.6604 -0.5982
21630SOL    HW166053   0.737   1.980   1.258 -0.8413 -0.1147  0.9576
21630SOL    HW266054   0.701   2.052   1.387  2.7740  1.7749  1.0409
21631SOL     OW66055   2.124   2.208   0.401 -0.0984 -0.1513  0.2863
21631SOL    HW166056   2.092   2.151   0.471 -1.1448 -2.1908 -1.7512
21631SOL    HW266057   2.180   2.152   0.348 -0.2754  1.0073 -1.1713
21632SOL     OW66058   1.680   1.491   5.137 -0.7778 -0.7130 -0.1992
21632SOL    HW166059   1.607   1.462   5.083  0.6200 -1.2434 -1.8951
21632SOL    HW266060   1.641   1.551   5.201 -2.6017 -0.6728 -1.2921
21633SOL     OW66061   8.086   7.657   4.094 -0.4602 -0.1490  0.0009
21633SOL    HW166062   8.026   7.691   4.029 -1.3338  0.0458  0.8841
21633SOL    HW266063   8.142   7.731   4.117 -0.2007 -0.1985 -0.4522
21634SOL     OW66064   8.711   6.427   1.672  0.7329  0.0504  0.4782
21634SOL    HW166065   8.779   6.410   1.606  0.0502  2.7947 -1.0677
21634SOL    HW266066   8.629   6.417   1.624  0.2036  1.5016  1.0633
21635SOL     OW66067   4.078   7.468   6.882 -0.0880 -0.0856  0.4313
21635SOL    HW166068   4.095   7.374   6.878  0.3305  0.0170 -0.5357
21635SOL    HW266069   4.088   7.491   6.974 -0.1003 -0.9667  0.6588
21636SOL     OW66070   4.331   6.313   0.722  0.0412 -0.4232 -0.4503
21636SOL    HW166071   4.261   6.272   0.672 -0.1869 -0.4732 -0.0855
21636SOL    HW266072   4.342   6.259   0.800  0.8069 -0.6882 -0.7277
21637SOL     OW66073   2.589   1.950   7.458  0.1318  0.3736  0.3962
21637SOL    HW166074   2.610   2.035   7.497 -1.3447  0.9314  0.0288
21637SOL    HW266075   2.673   1.904   7.456  1.0726  2.0014  0.1606
21638SOL     OW66076   2.202   7.135   3.678 -0.1034 -0.2385 -0.3875
21638SOL    HW166077   2.132   7.197   3.657 -1.6945 -2.0073 -0.5405
21638SOL    HW266078   2.194   7.067   3.612  1.6789 -0.5923 -0.2863
21639SOL     OW66079   2.101   3.255   8.147 -0.2586 -0.0735  0.2838
21639SOL    HW166080   2.044   3.323   8.111 -0.9308  1.0963  3.2286
21639SOL    HW266081   2.042   3.182   8.165 -0.5144  0.4069  1.5150
21640SOL     OW66082   8.684   1.838   4.973 -0.1870 -0.0863  0.3054
21640SOL    HW166083   8.612   1.800   4.923 -0.7469  1.8945 -0.4568
21640SOL    HW266084   8.720   1.763   5.021 -2.7449 -1.1553  0.7621
21641SOL     OW66085   0.339   1.304   8.609  0.1365  0.5342  0.0679
21641SOL    HW166086   0.306   1.308   8.519 -0.7379  0.5229  0.3811
21641SOL    HW266087   0.263   1.325   8.663  0.2461 -1.0907  0.8905
21642SOL     OW66088   8.037   2.141   7.384  0.2724 -0.3229  0.3455
21642SOL    HW166089   8.030   2.052   7.421 -0.8930 -0.5131 -0.2819
21642SOL    HW266090   7.976   2.193   7.436 -2.6845 -0.9401 -2.1790
21643SOL     OW66091   5.977   1.100   5.509  0.1201 -0.3768 -0.0205
21643SOL    HW166092   5.947   1.171   5.566 -1.4920 -0.9905 -0.0288
21643SOL    HW266093   5.971   1.137   5.420 -2.6554 -1.0398 -0.2155
21644SOL     OW66094   7.969   1.816   7.516 -0.1005  0.3743  0.3025
21644SOL    HW166095   8.062   1.838   7.521  0.1920 -0.9244  1.0658
21644SOL    HW266096   7.940   1.852   7.432  1.1003  0.7462  0.0308
21645SOL     OW66097   2.510   6.229   7.825 -0.0132  0.4377 -0.3614
21645SOL    HW166098   2.545   6.173   7.756  1.2475  1.7597 -0.8692
21645SOL    HW266099   2.466   6.170   7.885  3.3803 -1.5080  0.4873
21646SOL     OW66100   8.523   1.105   1.299  0.1399 -0.4445 -0.5333
21646SOL    HW166101   8.568   1.117   1.383 -1.0460 -0.5058  0.1237
21646SOL    HW266102   8.535   1.187   1.252 -0.3251  0.0769  0.2514
21647SOL     OW66103   3.848   0.705   0.279  0.1812 -0.5278  0.2193
21647SOL    HW166104   3.826   0.701   0.186  0.5154 -1.5347  0.1774
21647SOL    HW266105   3.883   0.793   0.292  1.2939 -0.7887 -0.8650
21648SOL     OW66106   6.560   8.583   3.443  0.2317  0.4375 -0.3047
21648SOL    HW166107   6.649   8.560   3.470 -0.9172 -2.0154  1.8502
21648SOL    HW266108   6.509   8.579   3.524 -2.0442  0.6769 -1.6389
21649SOL     OW66109   5.065   2.037   3.231  0.0007  0.1839  0.1211
21649SOL    HW166110   5.078   2.056   3.324  1.0272  1.0374 -0.1764
21649SOL    HW266111   5.152   2.020   3.197  0.4530  4.5305 -1.6252
21650SOL     OW66112   8.009   7.484   2.766  0.2503  0.1756 -0.7030
21650SOL    HW166113   7.992   7.391   2.779  0.1827  0.3384  0.4921
21650SOL    HW266114   8.103   7.494   2.782  0.4863  0.1315 -1.9989
21651SOL     OW66115   4.232   8.275   2.041  0.1161  0.1101  0.0085
21651SOL    HW166116   4.303   8.305   1.984  0.1066 -1.1938 -0.7108
21651SOL    HW266117   4.275   8.250   2.122  0.2925  0.6867  0.0982
21652SOL     OW66118   8.784   2.582   1.786  0.1071  0.2773 -0.8222
21652SOL    HW166119   8.757   2.490   1.782 -1.5476  0.7293 -0.8959
21652SOL    HW266120   8.876   2.582   1.759  0.6561 -1.5516  0.8154
21653SOL     OW66121   6.213   1.157   0.330 -0.7031  0.1844  0.4430
21653SOL    HW166122   6.262   1.104   0.266 -3.4663  0.7061 -2.3501
21653SOL    HW266123   6.183   1.093   0.395  2.4119 -0.3280  1.5711
21654SOL     OW66124   4.978   1.197   8.326  0.3955  0.3346 -0.5014
21654SOL    HW166125   4.961   1.263   8.393  3.7612  1.5427 -0.6598
21654SOL    HW266126   5.069   1.212   8.299  1.0880 -3.8126 -1.2120
21655SOL     OW66127   2.136   7.079   7.977  0.0696 -0.2271  0.4528
21655SOL    HW166128   2.122   6.986   7.958  1.6227 -0.9988  2.6317
21655SOL    HW266129   2.195   7.079   8.052  1.3063  2.5776 -0.3987
21656SOL     OW66130   1.340   6.426   4.053 -0.0029 -0.0028  0.0527
21656SOL    HW166131   1.302   6.346   4.017  1.0648 -0.1133 -0.8805
21656SOL    HW266132   1.432   6.403   4.068  0.0850  0.7545  0.7066
21657SOL     OW66133   7.798   2.570   4.069 -0.2451 -0.0687 -0.0188
21657SOL    HW166134   7.864   2.638   4.077 -0.3210 -0.1236  1.3353
21657SOL    HW266135   7.716   2.613   4.092 -0.2168 -0.7145  1.4230
21658SOL     OW66136   7.179   2.392   6.938  0.1193 -0.0372  0.4222
21658SOL    HW166137   7.262   2.430   6.966 -0.0431  0.3992  0.3220
21658SOL    HW266138   7.192   2.298   6.946  0.5873  0.0308  0.5096
21659SOL     OW66139   0.104   2.427   5.299 -0.2634 -0.2681  0.0365
21659SOL    HW166140   0.088   2.477   5.379 -0.6329  0.9575 -0.7745
21659SOL    HW266141   0.072   2.339   5.319 -0.1456 -0.0468  1.3030
21660SOL     OW66142   1.638   1.710   0.586  0.4337 -0.3505 -0.6409
21660SOL    HW166143   1.682   1.790   0.616 -0.1649  0.8744 -2.8579
21660SOL    HW266144   1.661   1.645   0.652  1.9702  1.3256  0.5865
21661SOL     OW66145   2.737   0.277   6.746  0.2596  0.2932  0.5160
21661SOL    HW166146   2.672   0.210   6.727 -0.6291  0.3291  3.0735
21661SOL    HW266147   2.800   0.233   6.804  1.8996  0.6185 -0.9183
21662SOL     OW66148   5.332   4.796   8.156 -0.2218  0.1477 -0.2285
21662SOL    HW166149   5.386   4.734   8.205 -2.6189 -1.1921  0.8812
21662SOL    HW266150   5.305   4.747   8.078 -1.4516  0.0540  0.2391
21663SOL     OW66151   1.945   8.785   5.496 -0.1130 -0.6131  0.1950
21663SOL    HW166152   1.954   8.876   5.522 -0.6722 -1.0468  2.0786
21663SOL    HW266153   1.890   8.788   5.417 -1.1986  0.6203  0.9424
21664SOL     OW66154   8.466   2.200   5.836  0.6479  0.6411  0.4493
21664SOL    HW166155   8.507   2.177   5.753 -0.9488 -2.8112  0.4518
21664SOL    HW266156   8.376   2.225   5.811 -0.2062 -1.5573  1.1293
21665SOL     OW66157   2.767   6.918   7.549 -0.1164  0.4228  0.0839
21665SOL    HW166158   2.851   6.956   7.524  0.3501 -0.5055  0.1892
21665SOL    HW266159   2.720   6.990   7.592  0.2948  1.1758 -0.6958
21666SOL     OW66160   7.131   0.616   1.366 -0.3760  0.6088 -0.1928
21666SOL    HW166161   7.201   0.669   1.404  0.4801 -0.7001  0.1441
21666SOL    HW266162   7.055   0.636   1.420 -0.1339  1.6326 -0.2054
21667SOL     OW66163   0.817   1.677   1.611  0.4116  0.3411  1.0037
21667SOL    HW166164   0.867   1.722   1.679  0.3003  1.1127  0.5868
21667SOL    HW266165   0.877   1.671   1.537  1.3900 -2.6642  1.8933
21668SOL     OW66166   2.052   3.479   7.792  0.4375  0.1822 -0.8662
21668SOL    HW166167   2.070   3.393   7.754  0.6353 -0.5910  0.8641
21668SOL    HW266168   2.014   3.460   7.878  0.3215  1.8286 -0.5093
21669SOL     OW66169   7.505   6.587   5.881  0.1273 -0.3807 -0.3042
21669SOL    HW166170   7.454   6.638   5.944 -0.2031 -1.3177  0.2065
21669SOL    HW266171   7.577   6.551   5.933 -0.0480 -1.0142 -0.4930
21670SOL     OW66172   7.181   7.406   2.312  0.0806  0.1114 -0.0961
21670SOL    HW166173   7.171   7.358   2.394  0.6558 -0.9820 -0.6567
21670SOL    HW266174   7.188   7.339   2.245 -2.9005  0.9356 -1.4307
21671SOL     OW66175   8.004   7.997   3.612  0.0372 -0.0525  0.1426
21671SOL    HW166176   8.022   7.903   3.621 -1.7299 -0.4107  0.2635
21671SOL    HW266177   7.975   8.024   3.699 -1.2050  0.1859 -0.3281
21672SOL     OW66178   1.016   6.482   3.410  0.1815  0.0030 -0.2035
21672SOL    HW166179   0.942   6.527   3.369 -0.1573  0.3905  0.7936
21672SOL    HW266180   1.007   6.391   3.382  0.1275  0.3076 -1.2001
21673SOL     OW66181   2.683   8.636   7.518 -0.0884  0.1615 -0.2800
21673SOL    HW166182   2.638   8.623   7.601  0.0508 -0.5785 -0.3121
21673SOL    HW266183   2.614   8.648   7.454 -0.2697 -0.9572 -0.3279
21674SOL     OW66184   1.211   7.758   5.251 -0.1144 -0.5629 -0.5294
21674SOL    HW166185   1.177   7.846   5.236  0.2382 -0.5240 -1.1029
21674SOL    HW266186   1.242   7.760   5.342 -3.0741 -1.0801  0.6056
21675SOL     OW66187   0.454   5.535   4.745 -0.1748 -0.5263  0.1091
21675SOL    HW166188   0.490   5.565   4.828  0.0002 -1.3102  0.3257
21675SOL    HW266189   0.450   5.439   4.753  0.5425 -0.6838 -1.0613
21676SOL     OW66190   2.582   6.989   4.660  0.8702 -0.1624  0.1336
21676SOL    HW166191   2.580   7.085   4.661  1.2536 -0.1497  0.9387
21676SOL    HW266192   2.611   6.967   4.572 -2.1615  0.3528 -1.0959
21677SOL     OW66193   7.815   2.228   4.720  0.4989 -0.3754  0.2364
21677SOL    HW166194   7.794   2.309   4.766  0.3630 -0.7247  0.7971
21677SOL    HW266195   7.756   2.163   4.758  0.5390 -0.7145 -0.2794
21678SOL     OW66196   6.051   0.587   8.327  0.1697 -0.9183 -0.8829
21678SOL    HW166197   6.091   0.672   8.313 -0.0222 -0.6603  0.0714
21678SOL    HW266198   6.124   0.525   8.320  0.8196 -0.4474  0.9580
21679SOL     OW66199   2.152   6.935   3.062  0.0601  0.4084 -0.4214
21679SOL    HW166200   2.210   7.006   3.091  0.9916  0.8128 -2.9956
21679SOL    HW266201   2.088   6.977   3.005 -0.4137 -0.5874 -0.6559
21680SOL     OW66202   7.661   8.351   8.268  0.2754 -0.1683  0.1683
21680SOL    HW166203   7.629   8.284   8.330  0.5092  0.7117  1.2709
21680SOL    HW266204   7.754   8.332   8.258  0.4420  0.2655  0.8502
21681SOL     OW66205   6.359   2.889   6.980 -0.2624  0.7092 -0.3783
21681SOL    HW166206   6.397   2.967   7.021  0.3163  0.6936 -0.8709
21681SOL    HW266207   6.434   2.835   6.956 -0.5432  0.9674 -1.9348
21682SOL     OW66208   1.051   5.777   3.626 -0.1554  0.4310  0.0962
21682SOL    HW166209   1.116   5.745   3.563  1.2676  1.9809  0.7015
21682SOL    HW266210   0.967   5.768   3.581  0.6894  0.2681 -1.5060
21683SOL     OW66211   8.272   0.510   8.523 -0.1325 -0.4886 -0.2365
21683SOL    HW166212   8.345   0.564   8.493  0.6885 -1.0055  0.7397
21683SOL    HW266213   8.194   0.558   8.496  0.5478 -0.2402 -1.8718
21684SOL     OW66214   8.027   7.724   7.885 -0.1820 -0.2698 -0.3831
21684SOL    HW166215   7.953   7.707   7.943  0.2496  1.3038  0.7153
21684SOL    HW266216   8.082   7.646   7.893  0.2745  0.2226  2.0505
21685SOL     OW66217   1.113   1.788   2.218 -0.2448 -0.2008 -0.0681
21685SOL    HW166218   1.123   1.700   2.183  0.2197  1.4733 -4.8529
21685SOL    HW266219   1.201   1.812   2.247 -0.3459 -1.1408  1.1359
21686SOL     OW66220   5.980   3.828   7.454  0.2181 -0.4277  0.1512
21686SOL    HW166221   5.981   3.807   7.548 -0.3967 -1.8988 -0.1523
21686SOL    HW266222   6.063   3.875   7.440  0.8100 -1.1057  1.2256
21687SOL     OW66223   5.342   0.020   0.501  0.1438 -0.2609  0.5030
21687SOL    HW166224   5.398  -0.046   0.461 -0.3400 -0.6554  0.4620
21687SOL    HW266225   5.391   0.102   0.494  0.4760 -0.5055 -0.0133
21688SOL     OW66226   3.725   4.065   6.970  0.5509  0.1887  0.1973
21688SOL    HW166227   3.763   3.978   6.984  0.3578 -0.0249 -0.5227
21688SOL    HW266228   3.800   4.124   6.974  0.9886 -0.2285 -1.1846
21689SOL     OW66229   3.789   6.260   7.516 -0.1509 -0.7546  0.4212
21689SOL    HW166230   3.747   6.193   7.463 -0.0183  0.4456 -1.2995
21689SOL    HW266231   3.862   6.291   7.462  0.3416  0.1282  1.5550
21690SOL     OW66232   1.485   0.374   0.474  0.0293  0.3613 -0.1675
21690SOL    HW166233   1.502   0.282   0.497  0.0246  0.0723 -1.2523
21690SOL    HW266234   1.481   0.419   0.558  0.0940 -0.6224  0.3855
21691SOL     OW66235   3.482   6.576   1.621 -0.1441  0.1925 -0.3832
21691SOL    HW166236   3.484   6.658   1.670  2.4657  1.0345 -1.7232
21691SOL    HW266237   3.570   6.567   1.584 -1.2495 -1.6063 -2.8985
21692SOL     OW66238   4.633   6.815   1.846  0.0118 -0.4973 -0.1611
21692SOL    HW166239   4.722   6.839   1.871  0.2520 -0.4407 -1.0263
21692SOL    HW266240   4.610   6.741   1.902 -0.2575  0.9025  1.6703
21693SOL     OW66241   2.327   0.507   0.563 -0.2860 -0.5740  0.2399
21693SOL    HW166242   2.381   0.580   0.533 -0.6753 -0.8592 -1.2406
21693SOL    HW266243   2.256   0.502   0.499 -1.5632 -0.7802  1.6315
21694SOL     OW66244   5.994   7.571   4.030 -0.5819 -0.7425  0.2822
21694SOL    HW166245   6.024   7.525   4.109 -2.0914 -2.6299 -0.1709
21694SOL    HW266246   6.015   7.511   3.958  1.0565  1.0794 -0.8568
21695SOL     OW66247   2.701   7.977   7.199  0.0951 -0.3762  0.0359
21695SOL    HW166248   2.654   8.060   7.204 -2.0159 -1.5589  1.6366
21695SOL    HW266249   2.743   7.967   7.284  0.7768 -0.6892 -0.3327
21696SOL     OW66250   1.787   7.812   1.699 -0.5602 -0.1478 -0.3127
21696SOL    HW166251   1.813   7.881   1.760 -0.8644  0.5281 -0.9340
21696SOL    HW266252   1.805   7.731   1.746  0.4812  0.3332  0.1561
21697SOL     OW66253   1.586   3.465   3.158  0.4184  0.3418  0.6938
21697SOL    HW166254   1.546   3.514   3.087 -0.0347 -1.1657 -0.1298
21697SOL    HW266255   1.519   3.402   3.184  1.3151 -0.4864  1.0611
21698SOL     OW66256   1.491   0.685   4.897 -0.2722 -0.2914  0.0930
21698SOL    HW166257   1.527   0.605   4.859 -0.5759 -0.8326  0.8878
21698SOL    HW266258   1.566   0.729   4.937 -0.1540 -0.3414 -0.0739
21699SOL     OW66259   3.872   2.077   8.422 -0.3624 -0.2440  0.8868
21699SOL    HW166260   3.910   2.044   8.503  0.9010  1.3436  0.9817
21699SOL    HW266261   3.858   2.170   8.438  0.6922  0.2920 -0.9745
21700SOL     OW66262   6.100   1.972   5.214 -0.0168 -0.2067 -0.8189
21700SOL    HW166263   6.183   1.976   5.262 -0.7175  1.0218  0.3603
21700SOL    HW266264   6.113   2.029   5.138  0.2438 -0.0739 -0.6769
21701SOL     OW66265   1.591   8.035   5.052  0.3749 -0.0116  0.2056
21701SOL    HW166266   1.561   8.014   4.964  0.4480 -1.1275  0.4324
21701SOL    HW266267   1.574   8.128   5.062  0.7363  0.2148 -1.1357
21702SOL     OW66268   1.639   2.850   5.197  0.4873 -0.4882  0.8247
21702SOL    HW166269   1.553   2.845   5.154  1.5764  1.8231 -1.9945
21702SOL    HW266270   1.633   2.926   5.254  0.4785 -0.7645  1.1995
21703SOL     OW66271   1.619   0.494   4.752 -0.1307 -0.4297 -0.1615
21703SOL    HW166272   1.588   0.458   4.669  1.8225 -1.2670 -0.5624
21703SOL    HW266273   1.702   0.450   4.769  0.9260  1.7425  0.8180
21704SOL     OW66274   5.984   3.709   8.529 -0.0636  0.3323  0.0967
21704SOL    HW166275   6.033   3.765   8.589  1.0068  0.7295 -1.0846
21704SOL    HW266276   6.046   3.640   8.504 -0.2405  0.5709 -1.0679
21705SOL     OW66277   4.110   7.921   5.395 -0.0525  0.0791  0.3891
21705SOL    HW166278   4.122   7.834   5.435 -0.5354  1.0048  2.7255
21705SOL    HW266279   4.068   7.903   5.311  0.0164 -1.9685  0.7448
21706SOL     OW66280   2.643   7.379   1.486 -0.1528  0.6265 -0.4487
21706SOL    HW166281   2.655   7.474   1.485  1.9559  0.3960 -0.5579
21706SOL    HW266282   2.676   7.351   1.571 -2.5171  0.1319  0.3941
21707SOL     OW66283   1.028   6.160   6.765  0.1566 -0.0514 -0.0286
21707SOL    HW166284   1.064   6.245   6.791 -2.3213  0.9876  0.3211
21707SOL    HW266285   1.044   6.155   6.671 -0.3248  1.2095 -0.2044
21708SOL     OW66286   3.517   8.075   1.286 -0.1527  0.6279 -0.5513
21708SOL    HW166287   3.454   8.088   1.357 -0.1777  1.0293 -0.6496
21708SOL    HW266288   3.594   8.126   1.311 -0.0581  0.5509 -0.6803
21709SOL     OW66289   6.533   7.572   3.803 -0.1150 -0.2375 -0.3723
21709SOL    HW166290   6.586   7.498   3.773 -1.0028 -0.3660 -1.7610
21709SOL    HW266291   6.498   7.611   3.722 -0.0815  1.3966  0.3479
21710SOL     OW66292   1.797   3.373   5.169 -0.1969 -0.0283 -0.5651
21710SOL    HW166293   1.818   3.442   5.232 -0.1875  0.3524 -0.9793
21710SOL    HW266294   1.779   3.296   5.223  2.2878 -0.4092 -0.1653
21711SOL     OW66295   6.245   2.615   7.975  0.1900  0.0253 -0.1271
21711SOL    HW166296   6.330   2.642   8.009  0.8723 -1.2640 -0.7170
21711SOL    HW266297   6.238   2.659   7.890  1.2100 -1.4189 -1.0002
21712SOL     OW66298   7.912   3.129   6.772  0.3752 -0.1859 -0.4608
21712SOL    HW166299   7.966   3.052   6.788  1.0503  0.6008  1.3013
21712SOL    HW266300   7.851   3.102   6.703  1.6205 -1.7603 -1.0084
21713SOL     OW66301   4.837   5.033   4.111 -0.1108 -0.6064 -0.4227
21713SOL    HW166302   4.768   5.094   4.133  0.3722  0.3988 -1.5916
21713SOL    HW266303   4.863   5.056   4.022  1.9366 -0.7412  0.0841
21714SOL     OW66304   0.211   6.929   0.527 -0.1284  0.1860 -0.1768
21714SOL    HW166305   0.152   6.912   0.453 -0.0280  0.6616 -0.3669
21714SOL    HW266306   0.275   6.857   0.523  0.5034  0.7824 -1.2013
21715SOL     OW66307   8.133   6.761   6.816 -0.5700  0.3289  0.1371
21715SOL    HW166308   8.068   6.799   6.757 -0.6438 -0.3084 -0.2051
21715SOL    HW266309   8.134   6.819   6.891 -1.1758  0.6218 -0.0740
21716SOL     OW66310   0.733   2.765   3.369 -0.4905  0.5046 -0.1969
21716SOL    HW166311   0.699   2.677   3.385 -1.8706  0.6732 -1.9167
21716SOL    HW266312   0.669   2.823   3.410 -1.9732  0.7990 -2.7673
21717SOL     OW66313   8.522   4.360   1.473  0.6145  0.0613  0.5670
21717SOL    HW166314   8.598   4.387   1.526 -0.2203  1.3364  1.1774
21717SOL    HW266315   8.461   4.322   1.536  0.5917 -0.6206  0.1366
21718SOL     OW66316   4.527   6.724   0.813 -0.2874  0.0209 -0.0634
21718SOL    HW166317   4.521   6.814   0.781  1.2612  0.8739  1.8795
21718SOL    HW266318   4.457   6.678   0.767 -0.6435  2.0192 -1.6754
21719SOL     OW66319   1.403   1.121   3.706  0.1000 -0.1154 -0.0246
21719SOL    HW166320   1.470   1.189   3.713  0.3501 -0.1141 -1.8205
21719SOL    HW266321   1.335   1.161   3.651 -1.0465 -0.3714  1.1794
21720SOL     OW66322   2.752   0.520   0.278 -0.3987  0.4665  0.6255
21720SOL    HW166323   2.733   0.455   0.346 -0.3100  0.6118  0.7878
21720SOL    HW266324   2.816   0.579   0.318  1.2106 -0.5994 -0.2594
21721SOL     OW66325   6.565   4.922   5.852  0.0212 -1.0625 -0.2577
21721SOL    HW166326   6.513   4.905   5.931 -1.5737 -0.2095 -1.0771
21721SOL    HW266327   6.598   5.011   5.864  1.2472 -1.5541  0.1996
21722SOL     OW66328   4.727   1.190   6.250  0.4037 -0.1156  0.0880
21722SOL    HW166329   4.788   1.242   6.304  0.6296 -0.6225  0.3314
21722SOL    HW266330   4.681   1.135   6.313  0.5181 -0.5643 -0.2156
21723SOL     OW66331   1.143   2.334   0.870 -0.0932 -0.2920  0.2946
21723SOL    HW166332   1.202   2.298   0.937  0.3604 -0.0893  0.0081
21723SOL    HW266333   1.085   2.262   0.847  1.1511 -1.0253 -0.6718
21724SOL     OW66334   5.132   6.244   6.561  0.1063  0.6876 -0.0273
21724SOL    HW166335   5.074   6.216   6.491 -4.0735  0.8829  2.9810
21724SOL    HW266336   5.155   6.164   6.608  1.3705  0.7664 -0.4519
21725SOL     OW66337   5.713   1.859   2.294  0.0758 -0.0462  0.3207
21725SOL    HW166338   5.788   1.903   2.253 -0.8631  1.4315  0.0898
21725SOL    HW266339   5.705   1.777   2.247  1.4164 -0.1513  0.2158
21726SOL     OW66340   0.322   4.083   3.435 -0.3111  0.2214 -0.1681
21726SOL    HW166341   0.228   4.077   3.418 -0.4251  0.9691  0.1538
21726SOL    HW266342   0.343   4.003   3.482 -0.8907  0.2922  0.2156
21727SOL     OW66343   0.209   2.752   3.253 -0.5349 -0.7151 -0.0141
21727SOL    HW166344   0.149   2.772   3.181 -0.3403  0.2992  0.0832
21727SOL    HW266345   0.166   2.788   3.330  0.1774  0.0249  0.0593
21728SOL     OW66346   1.869   3.945   7.171 -0.4650  0.1241  0.4329
21728SOL    HW166347   1.901   3.856   7.159 -0.8309  0.0079  0.3085
21728SOL    HW266348   1.948   3.997   7.187  0.0412  0.1642 -1.7532
21729SOL     OW66349   5.611   5.743   4.399 -0.0902 -0.1809 -0.0744
21729SOL    HW166350   5.578   5.823   4.440  1.7828  0.5833  0.0424
21729SOL    HW266351   5.613   5.763   4.305  0.2029 -0.1435 -0.0627
21730SOL     OW66352   6.222   7.586   0.916 -0.2158  0.1594  0.2325
21730SOL    HW166353   6.236   7.677   0.888  2.8854 -0.4013 -0.3959
21730SOL    HW266354   6.222   7.590   1.011  3.0965  0.5584  0.3171
21731SOL     OW66355   8.599   1.335   1.183  0.0246  0.2212  0.0055
21731SOL    HW166356   8.589   1.349   1.088 -0.4033 -0.7403 -0.1029
21731SOL    HW266357   8.579   1.420   1.221 -2.8511 -0.0787 -0.5983
21732SOL     OW66358   7.807   4.431   3.319  0.3124 -0.3383 -0.4330
21732SOL    HW166359   7.871   4.403   3.384  0.0127  0.1709  0.0875
21732SOL    HW266360   7.849   4.412   3.235  0.2426 -2.0507 -0.1196
21733SOL     OW66361   4.707   6.983   3.429  0.7534  0.2130 -0.4263
21733SOL    HW166362   4.744   6.902   3.466  0.3783  0.0192 -0.4710
21733SOL    HW266363   4.696   7.041   3.505  0.6565  0.0801 -0.3382
21734SOL     OW66364   2.700   4.387   7.755 -0.0188 -0.2974 -0.3289
21734SOL    HW166365   2.758   4.316   7.784 -0.0754  0.0365  0.6323
21734SOL    HW266366   2.613   4.348   7.756 -0.1784  0.0453  1.1680
21735SOL     OW66367   1.824   0.435   8.778  0.1992  0.9025 -0.3369
21735SOL    HW166368   1.872   0.447   8.860 -1.4766  1.2096  0.6411
21735SOL    HW266369   1.732   0.439   8.803 -0.4596 -2.4403 -1.6857
21736SOL     OW66370   6.201   1.125   4.156  0.3031 -0.1471 -0.1369
21736SOL    HW166371   6.290   1.161   4.160  0.0219  0.5425  0.1384
21736SOL    HW266372   6.167   1.136   4.245  0.0704 -0.7616 -0.1412
21737SOL     OW66373   5.459   6.149   6.598 -0.3559 -0.5259  0.1604
21737SOL    HW166374   5.449   6.216   6.530  0.7239  0.4249  0.8881
21737SOL    HW266375   5.370   6.119   6.615 -0.7547 -0.0265 -0.9255
21738SOL     OW66376   2.401   6.790   0.401  0.2998  0.4629 -0.7717
21738SOL    HW166377   2.366   6.790   0.312 -0.3309 -0.2793 -0.5382
21738SOL    HW266378   2.349   6.856   0.447 -0.7178 -0.5282 -0.4656
21739SOL     OW66379   2.581   6.769   6.538 -0.3990  0.8500 -0.0089
21739SOL    HW166380   2.644   6.755   6.608 -0.9803  1.7769  0.7152
21739SOL    HW266381   2.518   6.697   6.547  0.6518 -0.2242 -0.8912
21740SOL     OW66382   7.645   6.904   5.910 -0.0446 -0.2837 -0.5684
21740SOL    HW166383   7.629   6.818   5.873 -0.7308 -0.4484  0.0804
21740SOL    HW266384   7.682   6.887   5.996 -1.3473  0.0192  0.0902
21741SOL     OW66385   3.908   3.451   0.683  0.0603 -0.1133  0.1424
21741SOL    HW166386   3.986   3.499   0.654  0.0629  0.3915  0.9457
21741SOL    HW266387   3.873   3.504   0.755 -1.5405  0.1451 -0.7670
21742SOL     OW66388   0.870   8.841   7.520 -0.4798  0.2349 -0.0264
21742SOL    HW166389   0.908   8.903   7.582 -1.1287 -0.0439  0.6726
21742SOL    HW266390   0.930   8.766   7.521 -0.8402 -0.0565  0.8028
21743SOL     OW66391   2.355   3.947   0.603 -0.1920 -0.0902 -0.5904
21743SOL    HW166392   2.448   3.924   0.605  0.0573  0.8845  0.1199
21743SOL    HW266393   2.342   3.989   0.518  0.6926  2.1992  0.2991
21744SOL     OW66394   1.763   3.854   4.556 -0.0204  0.2118  0.3994
21744SOL    HW166395   1.668   3.851   4.548  0.0076  1.0266 -0.6109
21744SOL    HW266396   1.795   3.787   4.495  0.0455 -1.5950  2.3378
21745SOL     OW66397   7.609   1.354   4.555 -0.0910  0.3602  0.1478
21745SOL    HW166398   7.568   1.409   4.488 -1.0851 -1.9504 -1.2395
21745SOL    HW266399   7.540   1.342   4.621  0.4663  1.5617  0.9875
21746SOL     OW66400   3.529   5.106   6.169  0.2752 -0.5944 -0.4768
21746SOL    HW166401   3.472   5.153   6.109 -1.0744  0.1814  1.3168
21746SOL    HW266402   3.479   5.100   6.250  2.6623  0.0316  1.1649
21747SOL     OW66403   6.742   3.121   6.526  0.4394  0.2072  0.0097
21747SOL    HW166404   6.748   3.068   6.447  2.1269 -0.0551  0.2661
21747SOL    HW266405   6.819   3.179   6.522  0.4021  0.3766  1.2983
21748SOL     OW66406   3.874   7.621   8.559 -0.0054  0.0008 -0.3055
21748SOL    HW166407   3.832   7.602   8.643 -1.0563  0.1837 -0.7802
21748SOL    HW266408   3.861   7.715   8.545  0.9864  0.1634 -0.2432
21749SOL     OW66409   8.502   0.819   5.597 -0.3601  0.0855 -0.7174
21749SOL    HW166410   8.445   0.743   5.604  0.7986 -0.6666  1.2750
21749SOL    HW266411   8.582   0.785   5.556 -0.5488  0.6812 -1.6091
21750SOL     OW66412   0.753   0.876   1.815  0.0638 -0.3501  0.4994
21750SOL    HW166413   0.803   0.931   1.876 -0.8562 -0.1356  1.0856
21750SOL    HW266414   0.672   0.925   1.800  0.4543 -0.1874 -1.2625
21751SOL     OW66415   4.249   6.814   5.669 -0.0159  0.4039 -0.0436
21751SOL    HW166416   4.344   6.823   5.671  0.1569 -1.0961  2.7595
21751SOL    HW266417   4.217   6.881   5.729 -0.7471  0.6996 -0.7341
21752SOL     OW66418   7.424   4.624   2.054 -0.2272  0.0214  0.5927
21752SOL    HW166419   7.339   4.605   2.095  0.8035 -1.8295  2.0152
21752SOL    HW266420   7.488   4.581   2.110  1.7192  1.6189 -0.2848
21753SOL     OW66421   5.311   3.183   5.685  0.1172  0.4405 -0.2539
21753SOL    HW166422   5.287   3.271   5.713 -0.4155 -0.1181  1.1389
21753SOL    HW266423   5.286   3.127   5.758  0.1800 -0.9132 -1.2268
21754SOL     OW66424   1.786   0.367   7.010 -0.0474 -0.1749 -0.1772
21754SOL    HW166425   1.794   0.460   6.989 -0.3841  0.4281  2.0916
21754SOL    HW266426   1.870   0.329   6.983  0.4962  1.0011 -0.2009
21755SOL     OW66427   8.610   7.492   8.805 -0.2349 -1.1314 -0.4094
21755SOL    HW166428   8.599   7.548   8.728  0.1201  2.6835  2.0490
21755SOL    HW266429   8.541   7.520   8.865  0.3380 -3.0030  1.2265
21756SOL     OW66430   6.776   6.795   8.763  0.0034  0.1578 -0.4567
21756SOL    HW166431   6.734   6.713   8.788  1.0274 -1.0122 -2.3405
21756SOL    HW266432   6.739   6.860   8.822 -0.8185 -1.6495  1.1169
21757SOL     OW66433   3.949   1.867   4.699  0.5414 -0.0117  0.5800
21757SOL    HW166434   4.017   1.811   4.662  0.5951 -0.1026  0.8130
21757SOL    HW266435   3.922   1.821   4.779  0.6466  0.3434  0.8181
21758SOL     OW66436   7.170   3.295   5.205 -0.2495 -0.4811 -0.5270
21758SOL    HW166437   7.151   3.201   5.211 -0.7661 -0.6514 -3.4735
21758SOL    HW266438   7.102   3.329   5.148  1.1027  1.3252 -1.1195
21759SOL     OW66439   3.024   2.441   6.665 -0.2608 -0.3460  0.1503
21759SOL    HW166440   2.987   2.368   6.716  1.1435 -1.7706 -0.7782
21759SOL    HW266441   3.007   2.418   6.574 -0.1427  0.6906 -0.1420
21760SOL     OW66442   6.381   1.231   3.025 -0.0970  0.4611  0.1210
21760SOL    HW166443   6.357   1.283   3.103 -1.4497  0.5848 -0.3456
21760SOL    HW266444   6.308   1.171   3.013  0.2331  0.2430 -0.8885
21761SOL     OW66445   7.298   8.741   3.469  0.5413  0.3634  0.4768
21761SOL    HW166446   7.345   8.765   3.389 -0.4403  0.7246 -0.0157
21761SOL    HW266447   7.216   8.790   3.464  0.8207  1.0672  2.1424
21762SOL     OW66448   3.074   5.910   2.211 -0.0725 -0.0107 -0.0609
21762SOL    HW166449   3.110   5.941   2.294 -0.4745  0.2246  0.0259
21762SOL    HW266450   3.057   5.990   2.160  0.3807 -0.1611 -0.4596
21763SOL     OW66451   6.867   1.822   4.477  0.0154 -0.0235 -0.5448
21763SOL    HW166452   6.884   1.912   4.506  2.3458 -0.8241  0.8687
21763SOL    HW266453   6.881   1.824   4.382 -1.2007  1.3394 -0.7163
21764SOL     OW66454   6.333   2.096   3.955 -0.2186  0.3148 -0.0306
21764SOL    HW166455   6.244   2.077   3.923  0.1412  1.6562 -2.0470
21764SOL    HW266456   6.380   2.013   3.945 -1.5785 -0.8743  2.5872
21765SOL     OW66457   3.744   8.389   3.826  0.1607 -0.1108 -0.1898
21765SOL    HW166458   3.823   8.407   3.876 -0.3811 -0.8533  0.9948
21765SOL    HW266459   3.683   8.459   3.852 -0.1561 -0.5571  0.2952
21766SOL     OW66460   7.034   5.107   2.659 -0.6112  0.4167  0.1064
21766SOL    HW166461   7.113   5.138   2.615 -0.0338 -1.5436 -0.3746
21766SOL    HW266462   7.042   5.139   2.749  1.1832 -0.4111  0.2904
21767SOL     OW66463   1.185   1.245   8.268  0.3069 -0.1157 -0.4366
21767SOL    HW166464   1.227   1.291   8.195  1.8157 -0.1711  0.3569
21767SOL    HW266465   1.170   1.314   8.333  0.6755 -0.3859 -0.0654
21768SOL     OW66466   4.568   0.797   3.745 -0.2242 -0.0872  0.4268
21768SOL    HW166467   4.484   0.766   3.710 -0.2373 -1.4238  1.5211
21768SOL    HW266468   4.587   0.736   3.816  1.5868  0.3194  0.3320
21769SOL     OW66469   5.477   2.392   1.244 -0.1896 -0.4673 -0.3665
21769SOL    HW166470   5.389   2.411   1.277  0.2717 -2.4322  2.2817
21769SOL    HW266471   5.517   2.478   1.234 -2.1814  0.4484 -1.0830
21770SOL     OW66472   8.006   4.759   8.671  0.0914 -0.1161 -0.4058
21770SOL    HW166473   8.074   4.715   8.722  0.7506  1.0380 -0.2511
21770SOL    HW266474   7.956   4.808   8.737  0.0781  0.2657 -0.6975
21771SOL     OW66475   7.210   7.855   5.450  0.0721  0.7050 -0.3955
21771SOL    HW166476   7.134   7.831   5.398 -1.1542 -0.1207  1.6740
21771SOL    HW266477   7.193   7.944   5.479  0.8948  1.2755 -1.5882
21772SOL     OW66478   5.334   4.608   5.742  0.6209  0.5449 -0.0666
21772SOL    HW166479   5.276   4.627   5.668  0.6633 -0.5212 -0.3827
21772SOL    HW266480   5.278   4.562   5.805  0.4472  1.9063  0.8216
21773SOL     OW66481   6.666   6.853   1.361 -0.2300  0.3161  0.5533
21773SOL    HW166482   6.755   6.887   1.368  0.7780 -2.1434  0.3273
21773SOL    HW266483   6.613   6.931   1.341  2.0120  1.6557 -0.5407
21774SOL     OW66484   2.583   2.770   5.149 -0.0380  0.9692  0.0592
21774SOL    HW166485   2.634   2.693   5.123 -0.7617  0.6062 -0.3055
21774SOL    HW266486   2.533   2.742   5.225  0.0400  1.2245  0.2068
21775SOL     OW66487   2.835   7.814   2.754  0.3390  0.2010 -0.2040
21775SOL    HW166488   2.781   7.845   2.827 -1.0214  0.2826 -1.2013
21775SOL    HW266489   2.920   7.793   2.794 -0.8644 -1.3741  1.7057
21776SOL     OW66490   0.460   0.580   0.420  0.5870 -0.0557  0.3866
21776SOL    HW166491   0.531   0.583   0.485  1.4072  0.4197 -0.5137
21776SOL    HW266492   0.381   0.598   0.471  0.8963 -1.9594  1.6675
21777SOL     OW66493   8.685   1.267   5.841  0.5397  0.5061  0.1190
21777SOL    HW166494   8.671   1.180   5.804  0.5618  0.2960  0.5991
21777SOL    HW266495   8.624   1.324   5.793  0.1456  0.1310  0.1738
21778SOL     OW66496   2.614   5.552   1.568 -0.3778  0.3101 -0.0506
21778SOL    HW166497   2.686   5.516   1.619 -1.0898  0.6270  1.2166
21778SOL    HW266498   2.581   5.477   1.517  2.1989  0.6060 -2.4177
21779SOL     OW66499   8.774   0.967   1.209  0.0066  0.0137 -0.1549
21779SOL    HW166500   8.696   1.020   1.225  0.5374  1.0251 -0.7766
21779SOL    HW266501   8.744   0.897   1.151 -0.8383 -0.7727  1.1757
21780SOL     OW66502   0.407   2.120   7.201  0.5270  0.5933 -0.0857
21780SOL    HW166503   0.476   2.056   7.222  0.4028  0.4977  0.0295
21780SOL    HW266504   0.434   2.156   7.116  0.0937 -0.3125 -0.6291
21781SOL     OW66505   4.832   4.253   0.057 -0.1965  0.0136 -0.7048
21781SOL    HW166506   4.925   4.261   0.077  0.2855  0.0904 -2.7120
21781SOL    HW266507   4.827   4.178  -0.003 -1.5083 -0.3237 -0.2057
21782SOL     OW66508   0.168   4.334   0.737  0.1725  0.8144  1.0354
21782SOL    HW166509   0.142   4.394   0.667  0.1895 -0.2963  0.0440
21782SOL    HW266510   0.105   4.350   0.807 -0.6323  1.0643  0.2698
21783SOL     OW66511   0.337   0.306   6.813  0.1377 -0.6813 -0.1371
21783SOL    HW166512   0.340   0.361   6.891 -0.1847 -0.4794 -0.2640
21783SOL    HW266513   0.386   0.227   6.837  1.0084 -0.1435 -0.1163
21784SOL     OW66514   7.163   4.346   2.015 -0.1480  0.0622 -0.2240
21784SOL    HW166515   7.103   4.277   2.044 -0.4945  0.4876  0.0713
21784SOL    HW266516   7.206   4.309   1.938 -0.6941 -0.2921 -0.3602
21785SOL     OW66517   7.987   0.028   0.093 -0.6416  0.2882 -0.0770
21785SOL    HW166518   7.902   0.070   0.104 -0.9297 -0.0780 -0.8342
21785SOL    HW266519   8.048   0.100   0.081 -1.1219  0.5022 -1.3042
21786SOL     OW66520   7.478   6.813   7.679 -0.5177 -0.2554 -0.5286
21786SOL    HW166521   7.434   6.775   7.756 -0.2994 -0.1752 -0.3635
21786SOL    HW266522   7.422   6.788   7.605  0.8493 -2.9620 -0.7697
21787SOL     OW66523   1.115   7.117   3.339 -0.5292 -0.1981  0.1811
21787SOL    HW166524   1.101   7.022   3.345  1.1247 -0.4513  0.5971
21787SOL    HW266525   1.054   7.146   3.272  0.4331 -1.9265 -1.5422
21788SOL     OW66526   4.001   8.144   1.978  0.2912  0.2114 -0.9708
21788SOL    HW166527   4.076   8.187   2.019 -0.5160  0.0176  0.8073
21788SOL    HW266528   4.038   8.066   1.936  1.1966  0.5836 -0.8972
21789SOL     OW66529   0.166   3.542   3.820 -0.5118  0.1530  0.0011
21789SOL    HW166530   0.201   3.627   3.849 -0.7743  0.3634 -0.2906
21789SOL    HW266531   0.082   3.563   3.780 -0.8572 -0.3282  0.4769
21790SOL     OW66532   8.131   6.279   2.288 -0.5538 -0.0173 -0.0002
21790SOL    HW166533   8.099   6.367   2.269 -1.3689 -0.4162 -0.5341
21790SOL    HW266534   8.222   6.280   2.257  0.1296  1.2440  1.8766
21791SOL     OW66535   4.382   7.445   3.510  0.2950 -0.1511  0.3603
21791SOL    HW166536   4.443   7.399   3.452 -0.0172  0.1439 -0.2012
21791SOL    HW266537   4.405   7.413   3.597  0.9921 -0.3411  0.1166
21792SOL     OW66538   4.897   8.070   7.215 -0.1116  0.1487 -0.0173
21792SOL    HW166539   4.873   8.009   7.285 -0.8740  0.9090  0.4049
21792SOL    HW266540   4.813   8.103   7.182  0.2964  2.1120  0.8013
21793SOL     OW66541   3.061   5.361   6.293  0.0029  0.7214 -0.3277
21793SOL    HW166542   3.034   5.383   6.204  2.0311  2.4414 -0.6050
21793SOL    HW266543   2.991   5.397   6.348 -0.6375  0.8159 -1.1678
21794SOL     OW66544   3.054   0.857   3.464 -0.5190  0.5700 -0.0027
21794SOL    HW166545   3.080   0.799   3.392 -3.5561  0.3445 -1.0679
21794SOL    HW266546   3.059   0.803   3.542  1.2621  0.3479 -0.2175
21795SOL     OW66547   3.016   0.904   6.380 -0.7591 -0.2777  0.0754
21795SOL    HW166548   3.007   0.968   6.450  0.5515  2.1453 -1.8296
21795SOL    HW266549   3.025   0.820   6.425 -0.4048  1.0996  2.7653
21796SOL     OW66550   5.987   0.260   6.127  0.0704 -0.1740  0.4716
21796SOL    HW166551   5.907   0.290   6.085  0.2388 -0.5663 -0.1394
21796SOL    HW266552   6.034   0.341   6.149 -0.9384  0.1041  1.7674
21797SOL     OW66553   5.082   1.890   5.452  0.0673  0.0388  0.5519
21797SOL    HW166554   5.105   1.826   5.384 -1.5291 -0.1596  0.1454
21797SOL    HW266555   5.116   1.973   5.419  2.0694 -0.5395  1.0358
21798SOL     OW66556   2.923   6.226   3.282 -0.4341  0.1933 -0.1795
21798SOL    HW166557   2.959   6.314   3.296  0.7877  0.0074 -1.8165
21798SOL    HW266558   2.847   6.222   3.339 -0.0458  2.0208  0.5464
21799SOL     OW66559   4.941   8.604   3.297 -0.2956 -0.0141  0.3927
21799SOL    HW166560   4.856   8.612   3.340  0.2262  0.9979  1.2846
21799SOL    HW266561   4.941   8.674   3.232 -1.0418 -1.4749 -1.2680
21800SOL     OW66562   8.283   0.704   2.420 -0.3079 -0.1395 -0.6054
21800SOL    HW166563   8.308   0.791   2.391 -1.1116  0.4161  0.3308
21800SOL    HW266564   8.190   0.711   2.442 -0.6850 -1.5229 -1.6037
21801SOL     OW66565   0.393   0.171   1.477  0.2298  0.0889  0.1157
21801SOL    HW166566   0.411   0.111   1.550 -0.3995 -0.2490 -0.0021
21801SOL    HW266567   0.411   0.258   1.512  2.3725 -0.2105 -0.0664
21802SOL     OW66568   1.730   2.569   6.549  0.5203  0.4876  0.5175
21802SOL    HW166569   1.793   2.560   6.620 -0.0835 -2.6980  0.8178
21802SOL    HW266570   1.783   2.579   6.470  1.3510 -0.2101  0.9726
21803SOL     OW66571   3.542   3.935   1.963 -0.4033 -0.3440 -0.2332
21803SOL    HW166572   3.536   3.926   2.058 -0.7355 -0.6840 -0.2837
21803SOL    HW266573   3.617   3.992   1.949 -0.4065 -0.2183  0.2377
21804SOL     OW66574   8.846   2.048   5.064  0.2641  0.3218  0.0804
21804SOL    HW166575   8.769   1.998   5.034  0.7187 -0.7674  0.6529
21804SOL    HW266576   8.919   2.012   5.013  0.6409  0.1913  0.7009
21805SOL     OW66577   7.971   0.128   2.445  0.1316  0.8710 -0.3441
21805SOL    HW166578   8.020   0.138   2.363  1.3733  0.8111  0.3715
21805SOL    HW266579   8.013   0.055   2.490  0.4000  1.8170  0.9880
21806SOL     OW66580   2.320   5.825   4.873  0.1246 -0.2059  0.2585
21806SOL    HW166581   2.307   5.917   4.849 -3.4986 -1.0380 -1.7855
21806SOL    HW266582   2.402   5.800   4.830  0.0588  1.5470 -0.9977
21807SOL     OW66583   7.059   7.608   7.060 -0.8615 -0.9291  0.3496
21807SOL    HW166584   7.077   7.521   7.095 -0.9614 -1.1470 -0.1336
21807SOL    HW266585   7.032   7.592   6.969  2.1351 -0.2198 -0.8019
21808SOL     OW66586   8.217   6.098   5.464  0.0378  0.3069  0.1218
21808SOL    HW166587   8.191   6.013   5.499 -0.2113 -0.4645 -1.8025
21808SOL    HW266588   8.281   6.132   5.527 -0.6847 -0.7714  1.4987
21809SOL     OW66589   8.784   4.326   7.788 -0.7056 -0.1774 -0.4822
21809SOL    HW166590   8.818   4.392   7.728 -3.2638  0.9617 -0.8035
21809SOL    HW266591   8.862   4.292   7.833  1.1056  0.1334 -3.1737
21810SOL     OW66592   6.952   1.794   8.379  0.1158 -0.5066  0.0877
21810SOL    HW166593   6.860   1.808   8.355  0.3918  1.3195  0.0004
21810SOL    HW266594   6.972   1.706   8.346 -1.1603 -0.3363 -1.2268
21811SOL     OW66595   2.491   0.281   2.340  0.1096  0.0313  0.1706
21811SOL    HW166596   2.416   0.338   2.358 -0.7341 -1.3042  1.0267
21811SOL    HW266597   2.564   0.341   2.328 -0.9447  1.3366  0.0317
21812SOL     OW66598   7.717   3.802   1.439 -0.4527 -0.3291  0.2750
21812SOL    HW166599   7.637   3.751   1.454 -1.3934  0.6162 -1.3098
21812SOL    HW266600   7.689   3.876   1.385  1.4740  0.1118 -0.1947
21813SOL     OW66601   5.169   2.985   7.859 -0.2418 -0.1743 -0.1083
21813SOL    HW166602   5.199   2.974   7.769  0.8547 -1.4278  0.3686
21813SOL    HW266603   5.078   2.955   7.858 -0.2911 -0.0112 -0.8281
21814SOL     OW66604   2.074   6.417   4.040 -0.2130  0.2142  0.2943
21814SOL    HW166605   2.086   6.322   4.028  2.3155  0.5188 -0.0932
21814SOL    HW266606   2.033   6.425   4.126  1.4809 -1.1797  1.3001
21815SOL     OW66607   2.600   8.478   2.052 -0.0652 -0.3243  0.4569
21815SOL    HW166608   2.652   8.398   2.046 -0.0058 -0.4341  2.0001
21815SOL    HW266609   2.664   8.549   2.047  0.0554 -0.4184  0.6366
21816SOL     OW66610   4.678   5.682   5.877 -0.1387 -0.0835 -0.1366
21816SOL    HW166611   4.717   5.690   5.790 -0.5235 -0.5166 -0.3596
21816SOL    HW266612   4.688   5.589   5.899  0.0959  0.0577  0.3479
21817SOL     OW66613   5.913   3.504   4.374  0.2077  0.5444 -0.0853
21817SOL    HW166614   5.904   3.514   4.469  0.0883  1.8755 -0.2168
21817SOL    HW266615   5.853   3.434   4.351  0.3543  0.1076  0.8485
21818SOL     OW66616   7.956   8.114   4.735 -0.6593  0.1952  0.1214
21818SOL    HW166617   7.980   8.022   4.740  0.8359  0.5434 -0.2424
21818SOL    HW266618   7.904   8.129   4.814 -2.5676 -1.3801 -0.7486
21819SOL     OW66619   8.541   7.178   1.316 -0.3259  0.4468 -0.0907
21819SOL    HW166620   8.631   7.148   1.334  0.1050  1.0482 -1.1304
21819SOL    HW266621   8.520   7.235   1.389  0.0406  0.0826  0.3060
21820SOL     OW66622   7.205   0.756   4.216 -0.0961 -0.0322 -0.3541
21820SOL    HW166623   7.201   0.731   4.309  2.7601 -0.1575 -0.1941
21820SOL    HW266624   7.199   0.851   4.217  2.0427  0.1426  0.2059
21821SOL     OW66625   8.027   3.291   6.322  0.7625  0.3367 -0.5174
21821SOL    HW166626   7.963   3.241   6.271  0.6186  0.3978 -0.3963
21821SOL    HW266627   8.056   3.231   6.390 -0.3114  0.7974  0.3840
21822SOL     OW66628   4.870   4.192   3.360  0.5791  0.2572  0.4652
21822SOL    HW166629   4.851   4.106   3.397 -1.6689  0.2335 -0.5960
21822SOL    HW266630   4.962   4.188   3.334  1.9452 -0.1853  4.6383
21823SOL     OW66631   5.341   7.168   4.691  0.0736 -0.3204 -0.2178
21823SOL    HW166632   5.372   7.094   4.640 -1.8677 -3.0189  2.2053
21823SOL    HW266633   5.389   7.162   4.774 -3.2907 -1.8539  1.8145
21824SOL     OW66634   5.581   7.360   2.859 -0.2484  0.5129 -0.0239
21824SOL    HW166635   5.559   7.290   2.921  0.5874 -0.1132 -0.4243
21824SOL    HW266636   5.603   7.435   2.915  1.7221 -0.3973  0.5010
21825SOL     OW66637   1.649   4.812   2.027 -0.4795 -0.1110 -0.2829
21825SOL    HW166638   1.736   4.786   1.996 -0.6579 -0.9791 -0.0695
21825SOL    HW266639   1.666   4.855   2.111 -0.3136 -0.8511  0.0649
21826SOL     OW66640   3.446   0.422   5.161  0.1471  0.2811 -0.3469
21826SOL    HW166641   3.496   0.349   5.125  0.4562  0.5399 -0.4454
21826SOL    HW266642   3.381   0.381   5.218  1.1545 -0.0083  0.6156
21827SOL     OW66643   2.612   5.921   5.520 -0.1417  0.2627  0.0003
21827SOL    HW166644   2.682   5.866   5.485  0.4012  0.2931  1.0031
21827SOL    HW266645   2.558   5.862   5.572 -1.8508 -0.1069 -2.0645
21828SOL     OW66646   2.183   8.267   3.360 -0.0672  0.1130  0.5123
21828SOL    HW166647   2.273   8.245   3.383  0.7081  0.2895 -2.0649
21828SOL    HW266648   2.169   8.353   3.400  1.4876  0.7998 -0.3083
21829SOL     OW66649   3.285   2.457   5.905  0.2083  0.1295  0.5283
21829SOL    HW166650   3.194   2.434   5.922 -0.3283  1.5418 -0.2661
21829SOL    HW266651   3.299   2.538   5.954  0.6896  0.5439 -0.2801
21830SOL     OW66652   4.930   1.819   7.438 -0.3278  0.1454 -0.6648
21830SOL    HW166653   4.843   1.850   7.462  0.0083  0.7972 -0.2736
21830SOL    HW266654   4.981   1.898   7.420  0.7563 -0.1047  1.0867
21831SOL     OW66655   6.104   0.942   4.651  0.2019  0.3221  0.8762
21831SOL    HW166656   6.012   0.920   4.664  0.1764  0.4048  0.8295
21831SOL    HW266657   6.119   1.019   4.705  0.2511  0.2930  0.9048
21832SOL     OW66658   0.507   6.913   5.338 -0.1695  0.1545 -0.4500
21832SOL    HW166659   0.549   6.996   5.317  0.3662 -0.5888 -2.6692
21832SOL    HW266660   0.415   6.926   5.316 -0.6403  0.9320  1.7697
21833SOL     OW66661   0.749   1.776   0.049 -0.1567  0.4691 -0.1706
21833SOL    HW166662   0.792   1.774   0.135 -1.8201 -0.0680  0.6785
21833SOL    HW266663   0.761   1.866   0.019 -0.0563  0.8293  0.8961
21834SOL     OW66664   8.368   2.395   3.609  0.2268 -0.2069  0.0293
21834SOL    HW166665   8.286   2.376   3.654 -0.4187  1.0954 -0.5258
21834SOL    HW266666   8.423   2.437   3.676  0.3752 -0.9107  0.3525
21835SOL     OW66667   4.927   3.200   4.103 -0.2637 -0.7217 -0.1496
21835SOL    HW166668   4.940   3.290   4.133 -1.5936 -0.4980 -0.1997
21835SOL    HW266669   5.014   3.172   4.074  0.1471  0.5757 -0.2398
21836SOL     OW66670   0.432   5.694   1.573 -0.2530  0.1664 -0.3541
21836SOL    HW166671   0.484   5.617   1.595 -0.2018  0.0823 -0.7532
21836SOL    HW266672   0.349   5.681   1.618 -0.0107  0.1963  0.1118
21837SOL     OW66673   0.437   5.574   3.568  0.3355  0.1937  0.4816
21837SOL    HW166674   0.469   5.497   3.615  0.0199  0.8720  1.8575
21837SOL    HW266675   0.514   5.628   3.553  0.0615  1.4797  3.1381
21838SOL     OW66676   5.967   5.859   3.024  0.0479  0.1749 -0.9179
21838SOL    HW166677   5.890   5.808   3.050 -0.0502 -0.0221 -1.5886
21838SOL    HW266678   5.980   5.920   3.097 -0.6972  0.1654 -0.7632
21839SOL     OW66679   7.212   0.020   1.578 -0.0540 -0.5823 -0.5489
21839SOL    HW166680   7.139  -0.023   1.534  1.1983 -2.1780 -1.1380
21839SOL    HW266681   7.245   0.083   1.515 -1.0788  0.3694 -0.1664
21840SOL     OW66682   8.569   2.615   0.194  0.5330 -0.1627 -0.1788
21840SOL    HW166683   8.644   2.665   0.228  0.7136 -0.2256 -0.4733
21840SOL    HW266684   8.493   2.670   0.211  0.6829  0.0316 -0.1322
21841SOL     OW66685   7.843   5.806   8.850  0.1122  0.5661  0.3867
21841SOL    HW166686   7.771   5.759   8.808 -0.1159  2.3575 -1.3989
21841SOL    HW266687   7.801   5.885   8.887  0.7346  0.2423  1.8666
21842SOL     OW66688   3.254   7.254   4.210  0.3339  0.4404  0.2105
21842SOL    HW166689   3.289   7.207   4.134  0.2361  0.0266  0.4149
21842SOL    HW266690   3.231   7.341   4.177 -0.8403 -0.1226 -0.5207
21843SOL     OW66691   8.576   6.459   0.635  0.1958 -0.9586 -0.3092
21843SOL    HW166692   8.631   6.497   0.703  0.6842 -0.0300 -1.2089
21843SOL    HW266693   8.529   6.388   0.679  1.4127 -1.1669  0.6976
21844SOL     OW66694   1.532   4.292   0.226  0.4497  0.0647 -0.0479
21844SOL    HW166695   1.597   4.354   0.257  1.2673 -1.2135  0.9044
21844SOL    HW266696   1.459   4.346   0.195  1.4370  1.4850  0.0396
21845SOL     OW66697   4.548   1.941   3.981 -0.4587 -0.5057 -0.2956
21845SOL    HW166698   4.559   1.893   3.899  2.1951  0.5614 -0.6825
21845SOL    HW266699   4.556   1.874   4.049 -0.3829 -1.1035 -0.8790
21846SOL     OW66700   0.849   6.331   1.073  0.1391  0.1284 -0.0066
21846SOL    HW166701   0.920   6.359   1.016  0.7994 -2.1629 -0.4309
21846SOL    HW266702   0.788   6.404   1.074 -0.2975  0.0248 -4.2754
21847SOL     OW66703   3.649   1.189   8.743 -0.1264  0.5193  0.8682
21847SOL    HW166704   3.570   1.148   8.778  0.1696  0.0920  1.0596
21847SOL    HW266705   3.721   1.139   8.783  0.2261  0.0100 -0.3404
21848SOL     OW66706   4.251   6.563   6.725 -0.0552  0.1642 -0.7536
21848SOL    HW166707   4.329   6.515   6.699  0.9247  1.0000  0.5319
21848SOL    HW266708   4.278   6.655   6.726 -0.4182  0.3032  1.6964
21849SOL     OW66709   4.175   7.109   8.458 -0.5294  0.2164  0.3421
21849SOL    HW166710   4.158   7.086   8.367 -0.1190 -0.1462  0.3535
21849SOL    HW266711   4.225   7.190   8.453  2.1716 -1.3526  0.0998
21850SOL     OW66712   1.974   8.222   2.862  0.4698 -0.7004  0.4038
21850SOL    HW166713   2.026   8.258   2.934 -1.7024  1.9755  0.8129
21850SOL    HW266714   1.988   8.283   2.789 -0.9141 -0.7468  0.0739
21851SOL     OW66715   2.695   3.516   5.044  0.2389 -0.1765 -0.0117
21851SOL    HW166716   2.617   3.460   5.039 -0.2083  0.3880  0.5741
21851SOL    HW266717   2.767   3.454   5.054 -0.0155 -0.7588 -1.5184
21852SOL     OW66718   1.686   0.859   4.985 -0.0371 -0.1967  0.0662
21852SOL    HW166719   1.654   0.859   5.076  1.9600 -2.4129  0.8772
21852SOL    HW266720   1.700   0.951   4.965 -1.1778  0.3942  1.7638
21853SOL     OW66721   0.944   7.673   5.675  0.6037 -0.1087 -0.5937
21853SOL    HW166722   1.029   7.705   5.705 -0.0894  0.8868  0.3707
21853SOL    HW266723   0.942   7.697   5.582  1.7406 -0.9977 -0.8797
21854SOL     OW66724   3.225   7.124   8.502 -0.2448 -0.1010 -0.2113
21854SOL    HW166725   3.270   7.199   8.542  1.4309 -0.3688 -1.4756
21854SOL    HW266726   3.137   7.127   8.539  0.1324  1.7830  0.6870
21855SOL     OW66727   3.962   6.823   1.672 -0.1173  0.4628 -0.8101
21855SOL    HW166728   3.956   6.914   1.699 -0.4171 -0.2175  1.7105
21855SOL    HW266729   4.024   6.784   1.734 -1.4756 -1.4387 -0.5561
21856SOL     OW66730   7.459   4.491   8.439 -0.2836 -1.5299  0.5546
21856SOL    HW166731   7.491   4.407   8.407 -0.1795 -1.5302  0.6566
21856SOL    HW266732   7.380   4.469   8.490 -0.5780 -1.5055  0.1142
21857SOL     OW66733   6.515   1.504   4.846  0.0369  0.2739 -0.0685
21857SOL    HW166734   6.475   1.541   4.768  0.7232  2.0773  0.3975
21857SOL    HW266735   6.565   1.429   4.814 -0.6744  0.2596 -1.1733
21858SOL     OW66736   2.387   8.495   1.614 -0.0139  0.1721  0.5065
21858SOL    HW166737   2.296   8.471   1.631 -0.2380  0.3475 -0.3896
21858SOL    HW266738   2.390   8.590   1.625 -0.1694  0.2903 -0.4450
21859SOL     OW66739   7.231   1.485   0.899  0.8169  0.3993  0.5143
21859SOL    HW166740   7.284   1.406   0.903  0.0589 -0.1774 -0.2309
21859SOL    HW266741   7.186   1.489   0.983 -0.7433 -1.1622 -0.1739
21860SOL     OW66742   8.083   4.889   3.150 -0.3001 -0.6703  0.0806
21860SOL    HW166743   8.030   4.959   3.112 -0.0236 -0.1377  0.6648
21860SOL    HW266744   8.090   4.824   3.080  1.5333  0.9735 -1.4084
21861SOL     OW66745   2.605   7.251   3.981  0.4034  0.0736 -0.7262
21861SOL    HW166746   2.523   7.206   3.959  0.4820 -1.0676  1.1557
21861SOL    HW266747   2.577   7.327   4.033  0.5042 -0.0410 -0.5030
21862SOL     OW66748   6.776   3.874   0.021 -0.0321 -0.3175  0.1599
21862SOL    HW166749   6.688   3.838   0.019  0.0132 -0.4400 -1.8991
21862SOL    HW266750   6.766   3.962   0.057 -1.1652  0.0055 -0.8721
21863SOL     OW66751   0.186   5.220   3.794  0.1284  0.1535 -0.6938
21863SOL    HW166752   0.109   5.241   3.741  0.2022  1.1277 -0.4291
21863SOL    HW266753   0.222   5.305   3.818  0.5065 -0.2880  0.3216
21864SOL     OW66754   4.238   4.331   7.341  0.5852 -0.3714 -0.0550
21864SOL    HW166755   4.191   4.386   7.278  2.1396  0.3064 -0.6539
21864SOL    HW266756   4.180   4.256   7.354 -0.1836 -0.0890 -1.6115
21865SOL     OW66757   2.211   4.814   5.266 -0.1963 -0.0492  0.1410
21865SOL    HW166758   2.202   4.751   5.338 -3.6766 -1.1889 -1.0676
21865SOL    HW266759   2.189   4.898   5.305 -0.4451 -0.4012  0.7767
21866SOL     OW66760   0.784   2.559   2.942  0.1429  0.3815  0.1183
21866SOL    HW166761   0.752   2.492   2.881 -0.7260  0.4483  0.4965
21866SOL    HW266762   0.860   2.518   2.983 -0.3003 -0.3280  0.2502
21867SOL     OW66763   0.913   0.739   1.246  0.0054  0.1862 -0.2133
21867SOL    HW166764   0.888   0.766   1.157  1.3497  0.5202 -0.5179
21867SOL    HW266765   0.999   0.699   1.235 -1.0246 -2.4141  0.5367
21868SOL     OW66766   0.762   0.231   3.353 -0.2203  0.4016  0.5548
21868SOL    HW166767   0.687   0.212   3.410 -0.5931 -2.7006 -0.7316
21868SOL    HW266768   0.817   0.290   3.404 -3.2209  2.3935  1.7853
21869SOL     OW66769   6.418   0.732   5.604  0.0772  0.2860  0.6696
21869SOL    HW166770   6.330   0.767   5.587 -0.7626 -2.2816 -1.0477
21869SOL    HW266771   6.476   0.784   5.549 -0.9225 -0.0860 -0.7949
21870SOL     OW66772   3.140   3.594   4.570  0.3428 -0.2119  0.2569
21870SOL    HW166773   3.214   3.652   4.587 -0.4923  0.6775  0.9734
21870SOL    HW266774   3.146   3.574   4.476  2.5895 -1.7482  0.6381
21871SOL     OW66775   5.152   3.623   7.420 -0.0965  0.4727 -0.0278
21871SOL    HW166776   5.224   3.687   7.420 -1.0663  1.6122 -1.1676
21871SOL    HW266777   5.182   3.553   7.362  0.3496  0.6349  0.0038
21872SOL     OW66778   2.553   8.034   7.432  0.2443 -0.5199  0.5421
21872SOL    HW166779   2.601   8.094   7.489  1.1953 -1.0865  0.3775
21872SOL    HW266780   2.505   7.976   7.491  0.4858 -0.5129  0.7438
21873SOL     OW66781   7.973   8.673   3.417  0.7916  0.4476 -0.0543
21873SOL    HW166782   8.053   8.699   3.463  1.5734  1.2631 -1.7691
21873SOL    HW266783   7.944   8.595   3.463  2.3598  0.3558  0.8752
21874SOL     OW66784   1.945   1.941   3.741  0.4563  0.2679 -0.2263
21874SOL    HW166785   2.030   1.906   3.766 -1.1538 -3.1609  1.0448
21874SOL    HW266786   1.907   1.875   3.683 -2.0937  0.6456  0.8529
21875SOL     OW66787   6.620   7.290   8.301  0.1262  0.0187  0.4216
21875SOL    HW166788   6.668   7.368   8.328  0.4992 -0.1206  0.1783
21875SOL    HW266789   6.574   7.317   8.221  0.9206 -0.2384 -0.1363
21876SOL     OW66790   3.672   3.278   6.104 -0.6692  0.6973  0.2719
21876SOL    HW166791   3.736   3.344   6.078 -0.9528 -0.0331 -2.5262
21876SOL    HW266792   3.726   3.204   6.133 -0.2352  0.4121 -1.2111
21877SOL     OW66793   1.949   4.595   0.718  0.6055 -0.2728  0.0762
21877SOL    HW166794   1.985   4.506   0.723 -0.9060 -0.8696  1.4083
21877SOL    HW266795   1.862   4.583   0.680  0.7736  0.7927 -0.6880
21878SOL     OW66796   1.436   5.918   1.705  0.3028 -0.0552 -0.6422
21878SOL    HW166797   1.390   5.870   1.637 -1.8629  0.9437  0.0350
21878SOL    HW266798   1.447   5.855   1.776  0.9844 -0.5918 -1.2051
21879SOL     OW66799   3.745   6.578   4.916 -0.0496  0.0973  0.4203
21879SOL    HW166800   3.819   6.521   4.936  0.4035  0.0093 -1.4000
21879SOL    HW266801   3.784   6.653   4.870 -1.0848 -0.0049 -0.6584
21880SOL     OW66802   5.465   5.038   3.489 -0.6079  0.8906 -0.1770
21880SOL    HW166803   5.527   5.021   3.560 -0.4811  2.4586  0.1231
21880SOL    HW266804   5.391   4.979   3.507  0.5705 -0.6751 -0.2875
21881SOL     OW66805   3.879   5.766   5.189 -0.3923  0.2532 -0.2979
21881SOL    HW166806   3.810   5.831   5.196 -1.1161 -0.5990  0.8360
21881SOL    HW266807   3.893   5.755   5.095 -1.6056  0.6408 -0.5325
21882SOL     OW66808   1.894   8.440   4.090 -0.1889  0.3581  0.2645
21882SOL    HW166809   1.863   8.514   4.038  0.3088  0.7265  0.4779
21882SOL    HW266810   1.981   8.466   4.119  0.4232 -0.7201 -0.4962
21883SOL     OW66811   7.597   4.634   5.834 -0.1746  0.0203  0.5248
21883SOL    HW166812   7.685   4.668   5.843  0.2598 -1.1918  1.0098
21883SOL    HW266813   7.592   4.604   5.743  0.5056 -1.4620  0.9532
21884SOL     OW66814   8.307   4.056   2.498  0.5016  0.1960  0.4680
21884SOL    HW166815   8.377   4.023   2.554  0.3823  0.2020  0.6188
21884SOL    HW266816   8.233   3.997   2.515  0.1666  0.7768  1.0215
21885SOL     OW66817   5.341   1.617   2.173  0.2195 -0.0278  0.4238
21885SOL    HW166818   5.395   1.684   2.217  1.5033  0.3727 -1.6049
21885SOL    HW266819   5.404   1.565   2.124 -1.1996  0.1587 -1.6869
21886SOL     OW66820   2.384   8.514   5.445  0.0801 -0.9678  0.2214
21886SOL    HW166821   2.405   8.550   5.359  2.1814 -0.5207  0.8752
21886SOL    HW266822   2.309   8.565   5.475  0.5251  0.1699 -0.5424
21887SOL     OW66823   2.992   8.616   8.260  0.3217 -0.0658  0.0238
21887SOL    HW166824   2.967   8.685   8.199  1.3264  0.9653  0.7317
21887SOL    HW266825   2.910   8.588   8.300 -0.0306  1.3951  0.3979
21888SOL     OW66826   7.683   2.587   1.026  0.1255  0.3165 -0.3163
21888SOL    HW166827   7.712   2.574   0.936  1.7794  0.1055  0.2043
21888SOL    HW266828   7.734   2.663   1.056  0.2961 -0.1966  0.7185
21889SOL     OW66829   7.846   5.343   4.530 -0.0457 -0.3342 -0.1765
21889SOL    HW166830   7.824   5.272   4.470  0.8454  0.7853 -1.9051
21889SOL    HW266831   7.899   5.403   4.478  2.4879 -0.2489  2.2550
21890SOL     OW66832   7.403   5.033   5.180 -0.3694  0.3092 -0.0984
21890SOL    HW166833   7.454   4.992   5.250 -1.7262  1.1488  1.4509
21890SOL    HW266834   7.458   5.024   5.102  1.6019  0.1196  1.2321
21891SOL     OW66835   8.436   6.143   6.272 -0.3212  0.3468  0.0622
21891SOL    HW166836   8.391   6.136   6.357 -1.7134  0.0982 -0.6670
21891SOL    HW266837   8.404   6.068   6.222 -0.0229  0.8616 -0.9151
21892SOL     OW66838   8.488   3.546   2.998 -0.0699  0.0883  0.8023
21892SOL    HW166839   8.506   3.637   2.973 -1.4404 -0.4201 -2.5649
21892SOL    HW266840   8.393   3.541   3.002  0.0043 -0.7491  3.2459
21893SOL     OW66841   4.735   3.202   1.269 -0.1728 -0.0320 -0.4657
21893SOL    HW166842   4.663   3.247   1.312 -0.3340 -1.1841  0.5288
21893SOL    HW266843   4.752   3.253   1.190 -0.1859  1.8928  0.7178
21894SOL     OW66844   2.155   6.463   7.462 -0.0563 -0.1359 -0.3366
21894SOL    HW166845   2.073   6.511   7.467 -0.2362 -0.5559  1.2822
21894SOL    HW266846   2.209   6.500   7.532  0.2272 -1.4923  0.1868
21895SOL     OW66847   5.036   4.267   6.125 -0.1643 -0.2208  0.2116
21895SOL    HW166848   4.949   4.305   6.111 -1.0405 -1.5562  1.6533
21895SOL    HW266849   5.087   4.338   6.165  0.3383  1.4424 -3.0011
21896SOL     OW66850   8.247   1.256   3.982  0.0270  0.1995  0.0968
21896SOL    HW166851   8.336   1.261   3.947  0.0305 -0.9195 -0.0938
21896SOL    HW266852   8.199   1.326   3.937  0.5083  0.0201 -0.7132
21897SOL     OW66853   8.718   2.556   4.396 -0.1657  0.5180  0.4396
21897SOL    HW166854   8.797   2.515   4.431 -0.1276  1.4406  1.4883
21897SOL    HW266855   8.747   2.643   4.369 -0.6262  0.5215 -0.0434
21898SOL     OW66856   2.903   0.890   3.906  1.1373 -0.1940 -0.1647
21898SOL    HW166857   2.922   0.970   3.857 -0.4781  0.0957 -0.3923
21898SOL    HW266858   2.836   0.916   3.969  0.1683 -1.4753 -0.6146
21899SOL     OW66859   7.331   7.976   8.347  0.6013  0.5963 -0.4084
21899SOL    HW166860   7.371   7.922   8.279  0.6939  0.6936 -0.4306
21899SOL    HW266861   7.355   7.935   8.429 -1.6410 -1.0584 -0.4717
21900SOL     OW66862   5.474   3.706   3.513  0.1714 -0.1828 -0.2261
21900SOL    HW166863   5.391   3.735   3.550 -0.3332 -3.1383  1.2781
21900SOL    HW266864   5.540   3.742   3.571 -0.2713 -0.1753  0.2796
21901SOL     OW66865   0.605   1.661   2.892  0.5152 -0.2581 -0.2576
21901SOL    HW166866   0.539   1.598   2.861 -0.3047  0.5278 -0.1522
21901SOL    HW266867   0.687   1.612   2.891  0.2067 -0.8230 -1.8777
21902SOL     OW66868   2.886   4.257   0.827 -0.8566 -0.4201  0.2139
21902SOL    HW166869   2.817   4.209   0.781 -0.5693  0.2752 -0.9613
21902SOL    HW266870   2.868   4.349   0.809  1.2066 -0.2616 -1.3952
21903SOL     OW66871   3.817   0.525   5.058  0.3743  0.7116 -0.2218
21903SOL    HW166872   3.857   0.566   4.981 -2.0385 -0.8210 -2.4499
21903SOL    HW266873   3.732   0.569   5.067  0.6513  0.9370  1.7239
21904SOL     OW66874   6.058   6.478   1.387  0.0811 -0.4010 -0.1952
21904SOL    HW166875   6.016   6.467   1.472  1.5251 -1.5933  0.4214
21904SOL    HW266876   6.009   6.548   1.344 -1.7918 -0.9994  0.8874
21905SOL     OW66877   4.842   2.335   0.431  0.0741  0.1160 -0.0401
21905SOL    HW166878   4.918   2.321   0.374  0.7576  0.6941  0.6976
21905SOL    HW266879   4.878   2.378   0.509 -0.8752 -0.3884  0.7058
21906SOL     OW66880   2.383   5.053   3.820 -0.3890 -0.0868  0.5644
21906SOL    HW166881   2.473   5.070   3.791  0.7060  0.8984  3.9716
21906SOL    HW266882   2.385   4.962   3.850 -0.1295  0.2645  1.6807
21907SOL     OW66883   2.664   7.782   1.882 -0.1166  0.1757  0.5068
21907SOL    HW166884   2.713   7.703   1.909  1.3687  0.5241 -1.0062
21907SOL    HW266885   2.575   7.751   1.868  0.6253 -1.4654 -0.9109
21908SOL     OW66886   0.855   7.411   6.041 -0.2563  0.5844 -0.0371
21908SOL    HW166887   0.820   7.478   5.982  1.4929  1.8889  0.3007
21908SOL    HW266888   0.936   7.382   5.997  0.2688  0.4841  0.9711
21909SOL     OW66889   7.528   6.621   7.421 -0.1794 -0.5571  0.0363
21909SOL    HW166890   7.550   6.615   7.328  0.5047 -0.2187  0.1660
21909SOL    HW266891   7.479   6.541   7.440 -2.1785  0.3371 -1.0971
21910SOL     OW66892   0.949   2.034   6.358  0.3241 -0.0397  0.5721
21910SOL    HW166893   1.042   2.040   6.336  0.1681 -0.7952 -0.3604
21910SOL    HW266894   0.919   2.125   6.357  1.0027  0.1926  0.6701
21911SOL     OW66895   1.272   5.503   2.855  0.2963 -0.4217  0.1736
21911SOL    HW166896   1.319   5.546   2.927  0.9440 -2.1621  0.8484
21911SOL    HW266897   1.332   5.508   2.780  0.3260 -0.0630  0.2208
21912SOL     OW66898   1.518   4.107   0.430 -0.5755 -0.6985 -0.1784
21912SOL    HW166899   1.515   4.180   0.368  1.0880 -1.6251 -1.4256
21912SOL    HW266900   1.432   4.066   0.423 -0.8656  0.0020 -0.8864
21913SOL     OW66901   4.734   7.217   4.266 -0.0089  0.7078 -0.0388
21913SOL    HW166902   4.669   7.149   4.282 -0.7226  0.8100 -2.1437
21913SOL    HW266903   4.794   7.179   4.202  0.4077  1.5655 -0.1724
21914SOL     OW66904   2.847   7.917   0.416  0.3595  0.0490  0.4037
21914SOL    HW166905   2.780   7.906   0.483  0.7638 -0.2113  0.7735
21914SOL    HW266906   2.832   7.846   0.354  0.8367 -0.5508  0.9585
21915SOL     OW66907   8.209   4.680   5.488 -0.4153  0.4336  0.5199
21915SOL    HW166908   8.249   4.626   5.420 -0.7160 -1.0063  1.4405
21915SOL    HW266909   8.220   4.630   5.569  1.4006  2.8103  1.8870
21916SOL     OW66910   3.110   8.180   1.259 -0.3810  0.1669 -0.3131
21916SOL    HW166911   3.126   8.145   1.171 -0.8333 -0.5064 -0.1300
21916SOL    HW266912   3.018   8.159   1.277  0.2556 -1.5605  1.1554
21917SOL     OW66913   7.230   7.570   8.129 -0.2129  0.1394  0.6263
21917SOL    HW166914   7.140   7.574   8.162 -0.8814 -0.2817 -1.0566
21917SOL    HW266915   7.236   7.642   8.067  0.8103  0.5209  1.1470
21918SOL     OW66916   8.202   2.855   0.680 -0.0708 -0.1378  0.4476
21918SOL    HW166917   8.231   2.811   0.600  0.5772 -1.7078  1.4850
21918SOL    HW266918   8.268   2.833   0.745 -1.0526  0.3303  1.6490
21919SOL     OW66919   0.777   3.250   4.613 -0.1104  0.5961 -0.1488
21919SOL    HW166920   0.866   3.268   4.583 -0.0848  2.1517  0.7657
21919SOL    HW266921   0.741   3.190   4.547  1.1980  0.8928 -1.1685
21920SOL     OW66922   1.229   1.196   0.051  0.0686 -0.5517 -0.3804
21920SOL    HW166923   1.243   1.243   0.133  1.0132  1.7260 -1.7360
21920SOL    HW266924   1.225   1.104   0.076  2.5963 -0.1499  1.9732
21921SOL     OW66925   7.746   1.581   8.413  0.3175  0.4416  0.1178
21921SOL    HW166926   7.708   1.526   8.481  2.1725  0.8909  1.6197
21921SOL    HW266927   7.673   1.605   8.357 -1.3543  0.2023  2.0851
21922SOL     OW66928   3.742   8.017   2.033  0.4114 -0.7723 -0.2781
21922SOL    HW166929   3.760   7.938   2.083  1.9140 -0.9165 -0.9759
21922SOL    HW266930   3.825   8.065   2.033 -0.3924  0.6910 -0.0902
21923SOL     OW66931   0.869   7.745   7.396 -0.3288 -0.1777  0.7708
21923SOL    HW166932   0.890   7.672   7.338 -1.5708 -0.8695  1.1480
21923SOL    HW266933   0.925   7.817   7.366  0.4372 -1.0863 -0.0296
21924SOL     OW66934   7.760   2.610   7.681 -0.4271 -0.1756  0.4991
21924SOL    HW166935   7.851   2.640   7.683 -0.1742 -0.7240 -0.9586
21924SOL    HW266936   7.708   2.690   7.686  0.2234  0.8270 -4.0682
21925SOL     OW66937   2.591   8.711   0.798  0.3785  0.5537 -0.5371
21925SOL    HW166938   2.622   8.794   0.761 -0.9454  1.5061  0.4240
21925SOL    HW266939   2.668   8.676   0.844  0.8560  1.4390 -0.6271
21926SOL     OW66940   6.760   0.277   8.059  0.1004  0.2315 -0.2923
21926SOL    HW166941   6.814   0.329   8.119  0.5563 -0.0547 -0.4507
21926SOL    HW266942   6.740   0.197   8.109  1.8212 -0.7474 -1.0525
21927SOL     OW66943   4.863   6.137   6.939 -0.3852 -0.0879  0.2416
21927SOL    HW166944   4.792   6.201   6.945 -0.2472  0.1508 -0.5936
21927SOL    HW266945   4.920   6.157   7.013 -0.4081  0.6813  0.0528
21928SOL     OW66946   8.681   3.021   3.078  0.3534 -0.0500 -0.2857
21928SOL    HW166947   8.659   3.017   2.985 -1.2447 -0.0574  0.0759
21928SOL    HW266948   8.644   3.104   3.108  2.7337  1.0397 -0.0852
21929SOL     OW66949   2.973   6.037   3.574 -0.1230 -0.0314 -0.4375
21929SOL    HW166950   3.060   6.015   3.543  0.2148  0.0460  0.4359
21929SOL    HW266951   2.985   6.116   3.627 -0.8274  0.3851 -0.8795
21930SOL     OW66952   8.160   1.939   2.568 -0.2452 -0.3995  0.1758
21930SOL    HW166953   8.111   1.969   2.491  0.9821  0.0418 -0.4607
21930SOL    HW266954   8.178   1.846   2.550 -0.8936 -0.5855  0.4507
21931SOL     OW66955   4.763   2.209   7.731 -0.2738 -0.5702  0.4132
21931SOL    HW166956   4.780   2.139   7.794 -0.8778 -0.9867  0.1232
21931SOL    HW266957   4.707   2.271   7.778 -0.7073 -0.8708  0.3071
21932SOL     OW66958   3.089   0.703   1.917 -0.7423  0.5037  0.3377
21932SOL    HW166959   3.119   0.651   1.842 -0.3796 -0.4120  1.1044
21932SOL    HW266960   3.157   0.768   1.930 -0.7357  0.5749 -0.0230
21933SOL     OW66961   7.084   5.183   8.828  0.0297  0.1089 -0.1936
21933SOL    HW166962   7.038   5.146   8.903  1.1092  1.9184  1.4815
21933SOL    HW266963   7.037   5.150   8.751 -2.3357 -0.2660  1.3155
21934SOL     OW66964   3.275   4.127   3.686  0.0849 -0.0971  0.3407
21934SOL    HW166965   3.335   4.201   3.677 -1.0852  0.8471  0.0046
21934SOL    HW266966   3.309   4.060   3.627 -0.2230  1.1350 -1.3133
21935SOL     OW66967   1.675   4.247   1.838 -0.2424 -0.4220 -0.1217
21935SOL    HW166968   1.590   4.290   1.828 -0.5056 -1.1506 -1.2521
21935SOL    HW266969   1.730   4.288   1.772  1.0820  1.7889  2.1824
21936SOL     OW66970   8.856   8.136   1.450 -0.6818  0.7750 -0.0149
21936SOL    HW166971   8.905   8.155   1.370 -0.3035 -1.8151 -0.5027
21936SOL    HW266972   8.797   8.064   1.425  1.4918 -2.1986  2.5961
21937SOL     OW66973   1.728   1.189   2.547  0.5517  0.2363 -0.3564
21937SOL    HW166974   1.731   1.130   2.472 -0.7950  0.0546 -0.2828
21937SOL    HW266975   1.636   1.192   2.573  0.9079  0.7075  0.9680
21938SOL     OW66976   2.536   1.857   5.070  0.6031 -0.1232 -0.4780
21938SOL    HW166977   2.446   1.824   5.066  0.7135 -0.5835  0.4122
21938SOL    HW266978   2.550   1.899   4.986 -1.4993  2.7072  0.4294
21939SOL     OW66979   6.738   7.946   5.390  0.4065 -0.1522 -0.2008
21939SOL    HW166980   6.744   7.893   5.469  0.5227 -0.9686 -0.7460
21939SOL    HW266981   6.680   7.897   5.332 -0.5510  0.9557 -0.2349
21940SOL     OW66982   5.416   1.059   0.991  0.3746  0.8509  0.3533
21940SOL    HW166983   5.512   1.057   0.997  0.2637 -0.0283  4.4161
21940SOL    HW266984   5.388   1.102   1.071 -2.6829  1.3446 -0.8724
21941SOL     OW66985   1.861   5.009   8.455 -0.5342  0.3737  0.1127
21941SOL    HW166986   1.781   5.037   8.410 -0.1979  0.3303 -0.5257
21941SOL    HW266987   1.924   5.078   8.436  0.2380 -0.6621 -1.2731
21942SOL     OW66988   7.118   5.303   1.289 -0.5924  0.5962 -0.2238
21942SOL    HW166989   7.121   5.339   1.378 -0.4064 -0.6715  0.3160
21942SOL    HW266990   7.067   5.223   1.298 -3.4313  2.0606 -1.8997
21943SOL     OW66991   8.604   5.805   5.578 -0.1091 -0.1843  0.0581
21943SOL    HW166992   8.641   5.743   5.516 -0.7607 -0.5530  0.0297
21943SOL    HW266993   8.657   5.794   5.658  1.3654  0.9859 -0.7049
21944SOL     OW66994   3.568   0.399   6.917 -0.0344 -0.6164  0.1801
21944SOL    HW166995   3.522   0.325   6.878  0.1124  0.5805 -2.4427
21944SOL    HW266996   3.650   0.406   6.869  0.4174  0.6287  1.0643
21945SOL     OW66997   8.789   5.813   4.204 -0.4217 -0.4820 -0.0216
21945SOL    HW166998   8.770   5.883   4.142 -1.9477 -0.3966  0.4857
21945SOL    HW266999   8.815   5.857   4.284  1.9951 -0.6008 -0.6755
21946SOL     OW67000   5.669   3.681   2.826 -0.2324  0.3911  0.4791
21946SOL    HW167001   5.729   3.611   2.798  0.7683  0.3262  2.5983
21946SOL    HW267002   5.719   3.761   2.813 -0.4005  0.4970  0.4886
21947SOL     OW67003   4.400   6.964   8.302 -0.5916  0.3092 -0.1162
21947SOL    HW167004   4.422   6.961   8.395  0.0347 -1.1549 -0.2831
21947SOL    HW267005   4.478   6.999   8.259 -1.0033  1.3074 -0.0717
21948SOL     OW67006   6.686   2.033   7.256  0.1982  0.5013  0.0670
21948SOL    HW167007   6.749   1.995   7.317  0.8600 -1.3894 -1.6796
21948SOL    HW267008   6.724   2.119   7.234 -0.3211  1.4640  2.6018
21949SOL     OW67009   0.422   0.741   5.415 -0.7405 -0.7873 -0.0838
21949SOL    HW167010   0.333   0.769   5.439 -1.0086 -2.0001  0.4226
21949SOL    HW267011   0.408   0.670   5.352 -0.1152 -0.6052 -0.4263
21950SOL     OW67012   2.797   0.913   4.825  0.4440 -0.1088  0.3497
21950SOL    HW167013   2.818   0.823   4.849 -2.8011 -0.9279  0.5721
21950SOL    HW267014   2.702   0.920   4.838  0.2863  2.7990 -1.4183
21951SOL     OW67015   8.323   5.811   0.358 -0.4158  0.2501  0.0347
21951SOL    HW167016   8.354   5.854   0.278 -0.1502  0.5752  0.3089
21951SOL    HW267017   8.281   5.731   0.327  0.2993  0.0195 -0.3856
21952SOL     OW67018   2.173   6.690   4.244  0.4957 -0.0424 -0.8333
21952SOL    HW167019   2.147   6.599   4.234  0.1496 -0.0976  0.3926
21952SOL    HW267020   2.202   6.697   4.335 -4.0190  2.0700  0.7840
21953SOL     OW67021   6.893   6.257   7.184 -0.6853 -0.3556  0.1867
21953SOL    HW167022   6.934   6.178   7.150 -2.1518 -1.6422  1.2611
21953SOL    HW267023   6.801   6.249   7.159 -0.9976  0.6590  0.9202
21954SOL     OW67024   5.927   6.612   2.442  0.0730  0.7394 -0.1697
21954SOL    HW167025   5.962   6.601   2.531 -1.1942 -0.2449  0.2327
21954SOL    HW267026   5.966   6.540   2.392  0.8019  1.3056 -0.4272
21955SOL     OW67027   6.135   6.881   2.111  0.0476 -0.2562  0.1031
21955SOL    HW167028   6.205   6.836   2.159 -0.2238 -0.2068  0.5455
21955SOL    HW267029   6.078   6.811   2.081 -0.2734 -0.2262  0.6321
21956SOL     OW67030   8.112   2.004   7.666  0.3493  0.4928  0.0269
21956SOL    HW167031   8.204   1.985   7.647  0.1569  1.0881 -1.7068
21956SOL    HW267032   8.112   2.097   7.692  0.1395  0.7690 -0.9257
21957SOL     OW67033   0.889   8.587   5.581  0.2974 -0.0771  0.7224
21957SOL    HW167034   0.829   8.563   5.511  2.7476  0.0191 -1.5755
21957SOL    HW267035   0.896   8.683   5.576  2.3692 -0.2557 -0.6534
21958SOL     OW67036   4.444   8.459   3.772 -0.0632 -0.5295  0.4426
21958SOL    HW167037   4.436   8.431   3.863 -0.4302  1.2884  1.0066
21958SOL    HW267038   4.538   8.467   3.756 -0.0155 -0.2577  0.8633
21959SOL     OW67039   3.584   7.312   8.369  0.4165  0.6577  0.2305
21959SOL    HW167040   3.576   7.357   8.285 -0.8399 -2.1968 -1.3261
21959SOL    HW267041   3.524   7.357   8.427 -1.6450  0.3941 -1.5780
21960SOL     OW67042   3.589   5.517   4.837 -0.0769 -0.4302  0.5282
21960SOL    HW167043   3.667   5.463   4.822 -0.6834 -1.2211  0.1149
21960SOL    HW267044   3.516   5.459   4.814 -0.7405  0.7634 -0.4758
21961SOL     OW67045   3.303   6.584   5.339 -0.1376 -0.5566  0.7112
21961SOL    HW167046   3.220   6.602   5.295 -0.5850 -1.1917  1.2752
21961SOL    HW267047   3.319   6.661   5.393 -0.5242 -0.5768  0.8537
21962SOL     OW67048   1.017   7.399   6.282 -0.4210 -0.8997  1.0500
21962SOL    HW167049   1.049   7.309   6.274 -0.4547 -0.8094 -0.3947
21962SOL    HW267050   0.937   7.401   6.230  0.3618  0.3158 -0.1808
21963SOL     OW67051   7.068   5.008   7.178  0.6038  0.0773 -0.1587
21963SOL    HW167052   6.980   5.039   7.201  0.9525  1.1468 -0.1948
21963SOL    HW267053   7.095   4.955   7.253  0.1110  0.1298  0.0619
21964SOL     OW67054   8.275   8.562   8.001  0.0040 -0.3610 -0.5141
21964SOL    HW167055   8.282   8.512   7.920  0.2570 -1.6653  0.2748
21964SOL    HW267056   8.210   8.514   8.053  1.8247 -1.1892  1.1382
21965SOL     OW67057   3.141   7.582   2.234 -0.0128 -0.1309 -0.4619
21965SOL    HW167058   3.117   7.571   2.326 -0.3020 -0.4350 -0.5732
21965SOL    HW267059   3.116   7.500   2.193 -1.4419  0.6203 -1.1552
21966SOL     OW67060   2.637   7.741   5.151 -0.0257 -0.6057  0.4597
21966SOL    HW167061   2.664   7.803   5.082  1.6007 -1.8650 -0.1158
21966SOL    HW267062   2.626   7.795   5.229 -1.9052  0.8664 -0.7486
21967SOL     OW67063   2.685   8.447   0.350 -0.0257  0.7786  0.5803
21967SOL    HW167064   2.678   8.446   0.446  0.2776  2.9777  0.6585
21967SOL    HW267065   2.596   8.464   0.320 -0.5273 -1.8290  0.3215
21968SOL     OW67066   7.697   5.909   4.876  0.2854 -0.1656 -0.6154
21968SOL    HW167067   7.793   5.914   4.877  0.3036  0.3250 -1.8705
21968SOL    HW267068   7.673   5.877   4.963  1.5109  1.1163  0.2350
21969SOL     OW67069   7.404   2.003   3.811  0.3263  0.3030 -0.2640
21969SOL    HW167070   7.424   1.940   3.879  1.2730  1.4121  0.5291
21969SOL    HW267071   7.451   1.971   3.734  0.4000 -0.2201 -0.0035
21970SOL     OW67072   1.667   3.257   4.169  0.1905 -0.5801 -0.1745
21970SOL    HW167073   1.738   3.268   4.234 -0.1642  2.4940 -0.1186
21970SOL    HW267074   1.587   3.268   4.220 -0.0818  3.1865 -1.1011
21971SOL     OW67075   6.033   1.608   4.547 -0.5266 -0.1048  0.2207
21971SOL    HW167076   6.073   1.695   4.543  0.4795 -0.5342  0.6005
21971SOL    HW267077   5.957   1.619   4.603  0.0446  0.3705  0.9290
21972SOL     OW67078   6.447   0.636   5.099  0.1028 -0.3458  0.1722
21972SOL    HW167079   6.472   0.702   5.034  0.2306 -2.0710 -1.6092
21972SOL    HW267080   6.367   0.671   5.138  0.4822  1.1325 -0.2788
21973SOL     OW67081   6.079   4.537   1.664  0.1563 -0.4059  0.0472
21973SOL    HW167082   6.117   4.580   1.740 -0.8459 -0.0906  0.3773
21973SOL    HW267083   6.148   4.477   1.634  1.1066  0.5079  0.3172
21974SOL     OW67084   1.472   6.319   5.165 -0.5681 -0.2432 -0.5555
21974SOL    HW167085   1.417   6.246   5.194 -0.3880  0.0323  0.4939
21974SOL    HW267086   1.410   6.388   5.141 -0.7008  0.0063  0.4627
21975SOL     OW67087   3.393   2.393   0.977  0.3398 -0.0883  0.1335
21975SOL    HW167088   3.447   2.317   1.001  2.2025  0.6462 -1.3932
21975SOL    HW267089   3.451   2.468   0.991  0.4338  0.6198 -3.1778
21976SOL     OW67090   6.624   1.405   0.801  0.2362 -0.0160  0.0574
21976SOL    HW167091   6.622   1.330   0.742  1.0021 -0.2706  0.3335
21976SOL    HW267092   6.580   1.375   0.880  3.2678 -1.3522  1.4323
21977SOL     OW67093   7.399   0.457   8.635  0.2927  0.1967  0.0496
21977SOL    HW167094   7.488   0.493   8.637  0.3030  0.1467  1.5806
21977SOL    HW267095   7.380   0.433   8.726 -1.0424 -0.4180 -0.3564
21978SOL     OW67096   4.213   6.990   5.880  0.1458  0.0063  0.3918
21978SOL    HW167097   4.242   7.064   5.933  0.2834 -0.0023  0.3278
21978SOL    HW267098   4.117   6.992   5.888  0.0719  0.8232 -0.4487
21979SOL     OW67099   0.242   4.082   0.874 -0.0037  0.2566 -0.6057
21979SOL    HW167100   0.273   4.162   0.832  0.8027 -0.2868 -1.0993
21979SOL    HW267101   0.150   4.075   0.850 -0.0205  0.9169 -0.7412
21980SOL     OW67102   4.627   5.760   7.880  0.0337  0.1951 -0.0614
21980SOL    HW167103   4.600   5.681   7.833  1.6505  0.9788 -2.4825
21980SOL    HW267104   4.547   5.790   7.923 -1.6110 -0.6439 -2.2928
21981SOL     OW67105   2.890   2.038   5.609  0.0302 -0.3283  0.0206
21981SOL    HW167106   2.844   2.006   5.687  2.2087 -0.7257  1.2507
21981SOL    HW267107   2.982   2.014   5.625  0.6024 -0.0805 -2.5284
21982SOL     OW67108   5.853   6.409   7.721  0.3242  0.0574 -0.3216
21982SOL    HW167109   5.847   6.354   7.643 -1.9791  1.0702 -0.9570
21982SOL    HW267110   5.778   6.467   7.715  1.2348  1.5639  1.6343
21983SOL     OW67111   2.038   1.961   6.183 -0.2918  0.0007 -0.2841
21983SOL    HW167112   2.133   1.968   6.176 -0.3451  0.1734 -1.0074
21983SOL    HW267113   2.017   1.995   6.270  0.4461 -1.6492  0.5647
21984SOL     OW67114   4.571   1.197   2.578 -0.2529 -0.1871 -0.1838
21984SOL    HW167115   4.529   1.212   2.662 -0.9708  2.0375 -0.8620
21984SOL    HW267116   4.554   1.105   2.558 -0.4078 -0.6410  1.8784
21985SOL     OW67117   3.306   3.277   1.200  0.1706 -0.1997 -0.1971
21985SOL    HW167118   3.285   3.358   1.247  0.5407  0.1040 -0.5395
21985SOL    HW267119   3.233   3.219   1.218  0.4318 -0.1888  0.9720
21986SOL     OW67120   4.890   1.833   3.892  0.1355  0.5566  0.0315
21986SOL    HW167121   4.871   1.926   3.907 -1.4081  0.0501  1.4098
21986SOL    HW267122   4.808   1.796   3.860  0.9147 -0.2324 -1.1450
21987SOL     OW67123   2.163   8.015   2.818 -0.8836 -0.3643  0.0511
21987SOL    HW167124   2.126   8.103   2.822  0.1492  0.0720  0.1197
21987SOL    HW267125   2.102   7.966   2.763 -0.5477  0.8540 -1.4814
21988SOL     OW67126   6.618   4.798   2.104 -0.2731 -0.3547  0.0970
21988SOL    HW167127   6.701   4.843   2.123 -1.0625  1.8718 -1.3342
21988SOL    HW267128   6.616   4.791   2.009 -0.9636 -2.0100  0.2023
21989SOL     OW67129   7.912   7.726   2.413  0.0486 -0.4066 -0.6596
21989SOL    HW167130   7.831   7.758   2.372  1.4426  0.9988 -2.4895
21989SOL    HW267131   7.927   7.787   2.486  0.6640  0.8365 -1.7826
21990SOL     OW67132   5.026   5.186   4.311 -0.0660  0.2840  0.2003
21990SOL    HW167133   4.993   5.264   4.357 -0.6411  1.3671 -1.9376
21990SOL    HW267134   5.077   5.140   4.377 -1.8718  1.0836  2.2791
21991SOL     OW67135   7.960   5.737   3.459  0.0153 -0.1321  0.2664
21991SOL    HW167136   8.051   5.720   3.438  0.7702  1.0764  2.2403
21991SOL    HW267137   7.937   5.669   3.523 -0.2770 -0.0886  0.2102
21992SOL     OW67138   6.752   0.174   5.411  0.2995  0.4352  0.6463
21992SOL    HW167139   6.701   0.227   5.349 -0.0997 -0.9808 -0.2791
21992SOL    HW267140   6.704   0.091   5.416  1.3294 -0.1276  1.4767
21993SOL     OW67141   4.226   0.775   4.756 -0.4582  0.0934 -0.0905
21993SOL    HW167142   4.178   0.790   4.837 -0.8392  0.3113 -0.3557
21993SOL    HW267143   4.292   0.844   4.754 -1.3175  0.9292 -0.6228
21994SOL     OW67144   5.907   6.421   4.849  0.2027 -0.2990  0.4912
21994SOL    HW167145   5.932   6.508   4.877  1.3714 -0.6054  0.4467
21994SOL    HW267146   5.827   6.401   4.899  0.8939  0.1158  1.7949
21995SOL     OW67147   4.082   8.746   8.845 -0.1001 -0.5816 -0.1502
21995SOL    HW167148   4.173   8.761   8.820 -0.0579  1.6435  1.0656
21995SOL    HW267149   4.083   8.663   8.893  1.1285 -0.9913 -0.8578
21996SOL     OW67150   8.005   4.039   1.188  0.1319 -0.0093  0.6276
21996SOL    HW167151   8.023   3.960   1.240  2.3502 -0.1409 -0.2349
21996SOL    HW267152   7.933   4.014   1.130  0.3664 -1.1786  0.8217
21997SOL     OW67153   7.256   2.609   0.793 -0.0375  0.2571 -0.5309
21997SOL    HW167154   7.279   2.673   0.860 -2.1176  0.7182 -0.1740
21997SOL    HW267155   7.185   2.650   0.744 -0.0374 -0.9653 -1.6166
21998SOL     OW67156   4.740   0.713   7.982  0.0212 -0.3680 -0.2855
21998SOL    HW167157   4.722   0.774   7.910  0.1477 -0.1489 -0.1347
21998SOL    HW267158   4.747   0.769   8.060 -1.7546 -0.7533  0.2006
21999SOL     OW67159   3.087   8.617   5.884 -0.6970 -0.5145  0.4970
21999SOL    HW167160   3.063   8.694   5.833 -1.9715 -0.7002  0.7908
21999SOL    HW267161   3.085   8.545   5.821 -0.2048 -0.4245  0.3740
22000SOL     OW67162   0.246   0.345   7.871 -0.4304  0.2029 -0.4761
22000SOL    HW167163   0.333   0.316   7.898 -1.0298 -0.3061  1.0116
22000SOL    HW267164   0.255   0.440   7.858  0.7028 -0.0589 -1.9409
22001SOL     OW67165   0.114   8.767   6.874  0.0446 -0.5425  0.3449
22001SOL    HW167166   0.100   8.859   6.854 -0.7130 -0.6250  0.4566
22001SOL    HW267167   0.102   8.761   6.969  0.6919 -0.6591  0.4278
22002SOL     OW67168   8.328   8.436   3.518 -0.5205 -0.2147 -0.0307
22002SOL    HW167169   8.234   8.454   3.514 -0.3953  0.3899 -0.3288
22002SOL    HW267170   8.333   8.341   3.522 -1.1049 -0.3383 -1.5806
22003SOL     OW67171   8.740   0.414   8.121  0.4341  0.2165 -0.2142
22003SOL    HW167172   8.758   0.331   8.166  0.0985 -0.0382 -0.5449
22003SOL    HW267173   8.825   0.457   8.115  0.7338 -0.4205 -0.6667
22004SOL     OW67174   1.543   8.208   5.821  0.4897 -0.5038  0.1047
22004SOL    HW167175   1.632   8.204   5.854  0.3985  0.5816  0.5230
22004SOL    HW267176   1.498   8.269   5.880 -0.3692 -0.5840 -0.4490
22005SOL     OW67177   8.522   5.646   3.926 -0.8937  0.7418  0.3887
22005SOL    HW167178   8.536   5.723   3.871 -0.0312  0.1189 -0.2916
22005SOL    HW267179   8.610   5.619   3.952 -0.8957 -1.6229 -1.6778
22006SOL     OW67180   5.027   6.558   0.396 -0.2093 -0.3091  0.1050
22006SOL    HW167181   4.981   6.600   0.323  2.4495  1.8557 -0.4799
22006SOL    HW267182   5.092   6.502   0.354  0.0770 -0.5684  0.8747
22007SOL     OW67183   8.547   1.482   0.170 -0.0171  0.2642  0.2446
22007SOL    HW167184   8.473   1.531   0.204 -1.1526 -1.1735 -0.0629
22007SOL    HW267185   8.624   1.530   0.200 -1.0536  1.4409  1.1002
22008SOL     OW67186   1.266   6.958   4.113 -0.6261 -0.3563  0.4599
22008SOL    HW167187   1.308   6.928   4.032  1.6665  0.5820  1.2143
22008SOL    HW267188   1.260   7.053   4.103  1.3332 -0.0057  2.0492
22009SOL     OW67189   1.372   0.652   4.404  0.5359  0.1626 -0.3366
22009SOL    HW167190   1.418   0.579   4.364 -0.8023  0.2963 -2.2807
22009SOL    HW267191   1.308   0.611   4.463 -0.1613 -0.2765 -1.3667
22010SOL     OW67192   5.065   4.680   6.522 -0.0021 -0.6629 -0.3989
22010SOL    HW167193   5.122   4.733   6.468 -1.1900  0.9094 -0.1756
22010SOL    HW267194   5.031   4.612   6.463  1.5881 -1.2669 -0.6658
22011SOL     OW67195   2.280   1.641   5.423  0.2493 -0.2117  0.0462
22011SOL    HW167196   2.358   1.594   5.393  0.3961 -0.7802  1.2537
22011SOL    HW267197   2.314   1.724   5.459  0.3104 -0.4635  0.5808
22012SOL     OW67198   4.994   7.192   8.023 -0.3049  0.0634 -0.6280
22012SOL    HW167199   4.916   7.242   7.998 -0.8613 -0.8639 -0.7958
22012SOL    HW267200   5.009   7.132   7.950 -1.1585 -1.7652  0.6102
22013SOL     OW67201   1.190   8.523   0.744  0.1278  0.2491 -0.1665
22013SOL    HW167202   1.166   8.431   0.730 -0.1169  0.2102  0.4836
22013SOL    HW267203   1.141   8.570   0.677 -0.2325 -0.0344 -0.1098
22014SOL     OW67204   4.168   4.226   5.853  0.2855 -0.0598  0.2159
22014SOL    HW167205   4.163   4.206   5.759 -0.0276  0.0735  0.2017
22014SOL    HW267206   4.202   4.315   5.856  0.1856 -0.0220  0.2245
22015SOL     OW67207   7.804   6.804   7.691  0.0897  0.2413  0.6218
22015SOL    HW167208   7.881   6.753   7.715 -1.1476 -0.1258  4.6536
22015SOL    HW267209   7.770   6.836   7.775 -1.9137  3.7776 -1.2783
22016SOL     OW67210   3.444   6.037   6.759  0.3179 -0.1842 -0.1122
22016SOL    HW167211   3.425   6.101   6.827 -0.5795 -1.0650  0.4985
22016SOL    HW267212   3.450   6.089   6.679 -2.0181  0.5349  0.0918
22017SOL     OW67213   7.509   6.790   1.318 -0.6711 -0.4115  0.6915
22017SOL    HW167214   7.442   6.738   1.364  0.4462 -1.4729  1.1770
22017SOL    HW267215   7.550   6.728   1.258  0.2829  0.0795  0.8258
22018SOL     OW67216   6.837   3.074   7.399 -0.1053 -0.2694 -0.2520
22018SOL    HW167217   6.765   3.034   7.447 -0.3525 -0.3237 -0.6637
22018SOL    HW267218   6.828   3.041   7.309  0.2370 -0.0215 -0.3815
22019SOL     OW67219   4.120   0.745   0.693 -0.2791 -0.2436 -0.4104
22019SOL    HW167220   4.153   0.778   0.609  0.6171 -1.6413 -0.6289
22019SOL    HW267221   4.035   0.787   0.703  0.1965  1.0161 -1.3520
22020SOL     OW67222   4.555   1.030   6.347 -0.1969 -0.1466 -0.0635
22020SOL    HW167223   4.592   0.952   6.389  0.8526 -0.2134 -1.0606
22020SOL    HW267224   4.462   1.009   6.336 -1.1940  0.8202  4.3369
22021SOL     OW67225   7.993   2.302   6.037 -0.0782  0.1569  0.3274
22021SOL    HW167226   8.041   2.223   6.062 -1.0685 -1.4175 -2.3077
22021SOL    HW267227   7.907   2.292   6.075 -0.6977 -0.8839 -1.2246
22022SOL     OW67228   6.764   3.908   0.404 -0.2869 -0.1636  0.1503
22022SOL    HW167229   6.678   3.867   0.391  0.7814 -2.1271 -1.1711
22022SOL    HW267230   6.776   3.964   0.327 -0.6953  0.7526  0.7366
22023SOL     OW67231   8.171   6.704   4.647  0.2964  0.2641 -0.2764
22023SOL    HW167232   8.192   6.646   4.721  1.3093  0.8193 -0.1011
22023SOL    HW267233   8.161   6.791   4.687  3.4196  1.0992 -0.9967
22024SOL     OW67234   8.259   2.638   3.794 -0.9356  0.0335 -0.5788
22024SOL    HW167235   8.221   2.668   3.711 -0.5244 -1.2676 -1.2714
22024SOL    HW267236   8.335   2.695   3.808 -0.8583  0.1044 -1.2353
22025SOL     OW67237   0.896   0.436   6.707  0.4926 -0.4072  0.2484
22025SOL    HW167238   0.965   0.436   6.642 -0.3832 -1.2112 -0.7161
22025SOL    HW267239   0.914   0.360   6.763  0.5749 -0.4212  0.2016
22026SOL     OW67240   3.677   3.202   8.419 -0.2260 -0.4910 -0.5982
22026SOL    HW167241   3.670   3.137   8.349 -0.9996 -0.0248 -0.9511
22026SOL    HW267242   3.668   3.151   8.499  0.5014 -1.0037 -0.8264
22027SOL     OW67243   6.853   6.333   0.996 -0.0698  0.3788  0.0592
22027SOL    HW167244   6.882   6.290   0.915 -2.2726 -1.3028  0.0752
22027SOL    HW267245   6.885   6.276   1.066 -1.1711 -0.0832  0.1913
22028SOL     OW67246   3.559   1.176   0.878  0.9388 -0.5234  0.1497
22028SOL    HW167247   3.485   1.186   0.938  1.5358  0.0041  0.8016
22028SOL    HW267248   3.633   1.154   0.933  1.6357  0.5994 -0.3090
22029SOL     OW67249   3.997   1.868   3.957  0.0069 -0.1906  0.6689
22029SOL    HW167250   4.009   1.890   3.864 -0.6983  1.4306  0.9191
22029SOL    HW267251   3.976   1.775   3.957 -0.4671 -0.1196 -0.8583
22030SOL     OW67252   1.998   7.228   2.016  0.2239 -0.3064 -0.0088
22030SOL    HW167253   2.093   7.218   2.011  0.1386 -1.0005 -0.5421
22030SOL    HW267254   1.975   7.280   1.939  0.3510  1.5153  1.1451
22031SOL     OW67255   1.420   0.714   8.172 -0.0905  0.0319  0.7998
22031SOL    HW167256   1.426   0.809   8.184  0.9811  0.0065  0.5472
22031SOL    HW267257   1.433   0.678   8.260 -1.7584  0.1355  1.1263
22032SOL     OW67258   0.897   5.390   2.235  0.4961 -0.1354  0.1247
22032SOL    HW167259   0.852   5.411   2.318 -1.7147 -0.3126 -0.9629
22032SOL    HW267260   0.841   5.426   2.167  1.7268 -0.9161 -1.3796
22033SOL     OW67261   6.014   1.469   3.296  0.2108 -0.7961 -0.1090
22033SOL    HW167262   5.950   1.498   3.361 -0.1018 -0.6800 -0.4709
22033SOL    HW267263   5.978   1.387   3.261  0.3252 -0.7997 -0.2188
22034SOL     OW67264   2.120   4.462   1.451  0.0561 -0.2090  0.8860
22034SOL    HW167265   2.120   4.542   1.503 -0.4947 -0.5947  1.5020
22034SOL    HW267266   2.049   4.409   1.488 -0.1633 -0.6122 -0.0796
22035SOL     OW67267   5.533   7.542   2.280  0.4276  0.6870  0.2785
22035SOL    HW167268   5.568   7.631   2.289  2.4114  0.1465 -1.3580
22035SOL    HW267269   5.596   7.486   2.326  1.0715 -0.1743 -1.5586
22036SOL     OW67270   0.069   6.129   8.569  0.0865 -0.4038 -0.1125
22036SOL    HW167271   0.096   6.221   8.556 -1.1569 -0.2657 -2.3229
22036SOL    HW267272   0.151   6.083   8.589  1.1034  0.8564 -1.1414
22037SOL     OW67273   6.534   1.384   1.829 -0.8793 -0.6718  0.3980
22037SOL    HW167274   6.613   1.436   1.817 -1.1402 -0.3530  0.0265
22037SOL    HW267275   6.480   1.434   1.890 -0.8344 -0.8368  0.5711
22038SOL     OW67276   5.353   0.184   7.357 -0.3789 -0.2449 -0.2588
22038SOL    HW167277   5.380   0.188   7.265 -1.9680 -1.1634 -0.7962
22038SOL    HW267278   5.352   0.275   7.386 -1.1434  0.1829 -1.5553
22039SOL     OW67279   4.473   1.241   3.207 -0.6041 -0.6136  0.1153
22039SOL    HW167280   4.528   1.241   3.286 -2.2677 -1.5068  1.3433
22039SOL    HW267281   4.488   1.155   3.168 -0.5527 -0.5666  0.0325
22040SOL     OW67282   2.971   6.033   4.786 -0.8631  0.0881 -0.5234
22040SOL    HW167283   2.990   6.125   4.768  1.9697 -0.3156  0.0145
22040SOL    HW267284   2.994   6.020   4.878  3.3255 -2.0347 -1.6091
22041SOL     OW67285   0.310   0.326   3.888  0.1356  0.0783  0.5116
22041SOL    HW167286   0.290   0.419   3.903  0.1708  0.0261  0.9031
22041SOL    HW267287   0.344   0.323   3.799  2.0983  0.7614  1.1911
22042SOL     OW67288   5.363   7.303   1.921 -0.8010  0.1248  0.1414
22042SOL    HW167289   5.416   7.299   1.842 -0.1472  0.2877  0.5633
22042SOL    HW267290   5.328   7.393   1.922  0.1557  0.5063  0.6411
22043SOL     OW67291   0.608   7.616   4.754 -0.6106 -0.4241 -0.0496
22043SOL    HW167292   0.700   7.595   4.737 -0.0031  2.0352 -0.2337
22043SOL    HW267293   0.593   7.587   4.844  0.2361 -1.1407 -0.1216
22044SOL     OW67294   7.521   3.846   8.686  0.1054  0.4936  0.0558
22044SOL    HW167295   7.569   3.797   8.753 -0.3508 -1.1835 -0.7933
22044SOL    HW267296   7.588   3.870   8.622  0.2091  0.2194  0.0579
22045SOL     OW67297   3.889   3.023   2.401 -0.0265  0.5043 -0.7220
22045SOL    HW167298   3.799   2.999   2.378 -0.6157  1.1701  0.7375
22045SOL    HW267299   3.890   3.023   2.497  2.4614 -2.7523 -0.6139
22046SOL     OW67300   0.045   5.859   6.840  0.0724 -0.0105 -0.0371
22046SOL    HW167301  -0.015   5.840   6.768 -1.0981  1.2606  0.5681
22046SOL    HW267302   0.132   5.855   6.800 -0.4864 -0.4031 -1.2668
22047SOL     OW67303   2.123   6.833   5.196  0.0842 -0.1422  0.1333
22047SOL    HW167304   2.033   6.810   5.173  0.0597  0.6982 -0.6765
22047SOL    HW267305   2.141   6.781   5.275 -0.7208 -1.1604 -0.3172
22048SOL     OW67306   4.479   6.816   5.890  0.2407 -0.7738  0.3168
22048SOL    HW167307   4.510   6.889   5.837 -0.8834  0.1235  0.8517
22048SOL    HW267308   4.385   6.833   5.902  0.4471 -0.9407  2.5636
22049SOL     OW67309   3.432   8.168   0.669 -0.1480 -0.2978 -0.1546
22049SOL    HW167310   3.511   8.123   0.699  1.7718  2.5439 -0.4907
22049SOL    HW267311   3.446   8.181   0.575  0.0107  1.9682  0.1219
22050SOL     OW67312   1.801   1.873   4.147  0.2647 -0.0112  0.1334
22050SOL    HW167313   1.868   1.806   4.151 -1.3838 -1.9684 -2.0526
22050SOL    HW267314   1.836   1.938   4.085  0.0964 -1.1792 -1.2518
22051SOL     OW67315   0.828   4.020   5.198 -0.6975  0.4574  0.3371
22051SOL    HW167316   0.802   3.948   5.141 -0.7309  1.1692 -0.5694
22051SOL    HW267317   0.754   4.033   5.256 -0.4070 -0.7095  1.0071
22052SOL     OW67318   7.045   6.894   0.867  0.7456  0.0749 -0.1634
22052SOL    HW167319   7.044   6.920   0.959  1.6536  1.5813 -0.5313
22052SOL    HW267320   6.956   6.911   0.836  0.4390 -0.4307  0.4227
22053SOL     OW67321   2.530   6.765   5.089  0.3052 -0.1174  0.1843
22053SOL    HW167322   2.560   6.732   5.004 -0.0143  0.7021 -0.2594
22053SOL    HW267323   2.567   6.853   5.095 -1.1524  0.5262  0.0737
22054SOL     OW67324   3.517   5.457   7.719 -0.1370  0.0377 -0.1388
22054SOL    HW167325   3.578   5.529   7.735 -1.4943  1.1852  0.1085
22054SOL    HW267326   3.518   5.446   7.623 -0.0900  0.5353 -0.1983
22055SOL     OW67327   5.046   3.583   3.752 -0.0714  0.9360 -0.5799
22055SOL    HW167328   5.120   3.583   3.691  0.8297 -2.1802  0.3135
22055SOL    HW267329   5.084   3.554   3.835 -2.2149 -0.4872 -0.0151
22056SOL     OW67330   3.730   2.157   8.025 -0.2394 -0.8072  0.0572
22056SOL    HW167331   3.821   2.174   8.000  0.7026 -2.2060  2.2077
22056SOL    HW267332   3.680   2.174   7.946  1.5657  2.4313 -0.5622
22057SOL     OW67333   4.309   7.869   2.622  0.1641 -0.3501 -0.1134
22057SOL    HW167334   4.365   7.895   2.694  2.7146 -0.4781 -1.9137
22057SOL    HW267335   4.290   7.777   2.638  1.3122 -0.5694  0.0194
22058SOL     OW67336   8.772   2.579   8.743 -0.0642 -0.0349  0.1059
22058SOL    HW167337   8.819   2.611   8.820  1.4499 -0.0561 -0.7770
22058SOL    HW267338   8.774   2.653   8.681  2.9223 -1.4801 -1.7188
22059SOL     OW67339   4.686   6.893   6.062 -0.4154 -0.5831  0.0948
22059SOL    HW167340   4.619   6.844   6.015  0.2008 -1.4639  0.1115
22059SOL    HW267341   4.745   6.827   6.097  0.3646  0.1623  0.2425
22060SOL     OW67342   5.048   0.608   3.572  0.4450 -0.6412  0.6288
22060SOL    HW167343   5.124   0.575   3.619  3.5254  3.1145 -1.0773
22060SOL    HW267344   5.007   0.669   3.632  1.0384  0.0129  0.3914
22061SOL     OW67345   3.696   4.465   7.167 -0.4431  0.2953  0.0696
22061SOL    HW167346   3.607   4.483   7.199 -0.3057 -0.0323  0.6575
22061SOL    HW267347   3.683   4.409   7.090 -0.7790  1.0317 -0.4179
22062SOL     OW67348   1.079   4.231   8.383 -0.0675  0.1356  0.1490
22062SOL    HW167349   1.163   4.248   8.425  0.9335 -5.5885  1.3819
22062SOL    HW267350   1.101   4.221   8.290  0.6541 -0.8912  0.4032
22063SOL     OW67351   1.547   5.028   7.666 -0.4275 -0.1510 -0.0665
22063SOL    HW167352   1.492   5.076   7.728  0.2429  1.8757 -0.9763
22063SOL    HW267353   1.517   5.057   7.580  2.2394  1.3054 -0.5960
22064SOL     OW67354   2.051   5.082   8.124  0.0832  0.2314 -0.1258
22064SOL    HW167355   1.958   5.086   8.146  0.4452  0.2654  1.5467
22064SOL    HW267356   2.085   5.009   8.176  0.8486 -0.3260 -1.3554
22065SOL     OW67357   1.079   6.156   6.490  0.4605  0.1877  0.0092
22065SOL    HW167358   1.001   6.170   6.437 -0.7821 -1.6685  1.2253
22065SOL    HW267359   1.139   6.109   6.432 -0.5697 -1.1133 -0.0476
22066SOL     OW67360   5.182   5.622   6.452  0.2015 -0.6328 -0.5573
22066SOL    HW167361   5.257   5.571   6.422 -0.3646 -1.7952 -0.0646
22066SOL    HW267362   5.184   5.613   6.548 -0.2437 -0.2164 -0.5030
22067SOL     OW67363   3.099   1.027   7.261  0.9667 -0.6837 -0.1963
22067SOL    HW167364   3.059   1.113   7.261  2.3023 -0.0233 -1.0796
22067SOL    HW267365   3.159   1.028   7.336  1.0384 -0.8191 -0.2503
22068SOL     OW67366   7.929   2.272   6.865 -0.1483 -0.7031  0.2942
22068SOL    HW167367   7.901   2.234   6.782  1.3982 -1.3827  0.0477
22068SOL    HW267368   7.994   2.338   6.841 -0.9051  0.2882  0.8828
22069SOL     OW67369   4.707   4.374   8.234 -0.0568  0.2039  0.0394
22069SOL    HW167370   4.738   4.378   8.324 -0.4810  0.4577  0.1775
22069SOL    HW267371   4.664   4.289   8.227  1.6665 -0.6719 -0.4915
22070SOL     OW67372   1.749   7.359   0.733  0.0209  0.6667 -0.6284
22070SOL    HW167373   1.663   7.319   0.748  0.6540 -1.2063 -1.6155
22070SOL    HW267374   1.782   7.378   0.820 -1.0313  0.5965 -0.1983
22071SOL     OW67375   5.971   8.133   1.636 -0.0946 -0.3555 -0.8906
22071SOL    HW167376   5.970   8.142   1.541  0.8700 -1.4451 -1.0242
22071SOL    HW267377   6.020   8.052   1.653 -1.1878 -0.7913  0.4918
22072SOL     OW67378   3.606   2.627   8.776 -0.7591  0.3753 -0.1203
22072SOL    HW167379   3.701   2.616   8.783 -0.9524 -2.2568 -0.4337
22072SOL    HW267380   3.591   2.652   8.685 -0.3162  2.2777  0.2935
22073SOL     OW67381   7.612   0.065   1.706  0.0609  0.0178  0.2120
22073SOL    HW167382   7.615  -0.029   1.689  0.2791 -0.0795  0.7864
22073SOL    HW267383   7.577   0.072   1.794  2.1485  0.3769  1.0579
22074SOL     OW67384   2.277   2.453   7.500  0.1050 -0.1917 -0.4097
22074SOL    HW167385   2.208   2.422   7.441  0.2666 -0.4013 -0.4867
22074SOL    HW267386   2.291   2.381   7.561  0.0354 -0.0282 -0.1960
22075SOL     OW67387   0.099   5.164   4.496  0.1523 -0.4006 -0.0309
22075SOL    HW167388   0.129   5.136   4.582  0.5018  5.1441  2.0782
22075SOL    HW267389   0.179   5.183   4.447 -0.0657 -2.4041 -1.2686
22076SOL     OW67390   1.180   2.275   2.351 -0.4553 -0.5137 -0.1715
22076SOL    HW167391   1.208   2.336   2.420 -0.6710 -0.6933  0.0799
22076SOL    HW267392   1.088   2.257   2.371 -1.3585  1.5718 -2.0890
22077SOL     OW67393   3.513   2.993   5.829 -0.4171  0.5406 -0.4841
22077SOL    HW167394   3.441   3.024   5.774 -0.6770 -0.2970 -0.6291
22077SOL    HW267395   3.577   2.957   5.767  0.1128  1.2425 -0.3525
22078SOL     OW67396   2.007   0.769   1.892 -0.4166  0.1852  0.2113
22078SOL    HW167397   2.055   0.792   1.813 -1.1821 -0.3360 -0.4288
22078SOL    HW267398   2.052   0.691   1.926  0.4958  0.9716  0.8391
22079SOL     OW67399   3.416   6.391   2.045  0.5954 -0.5675  0.7623
22079SOL    HW167400   3.389   6.451   1.976 -0.8257 -0.3543  1.4693
22079SOL    HW267401   3.492   6.432   2.085  0.2903  0.2417  0.5332
22080SOL     OW67402   3.854   2.059   5.588 -0.3177 -0.0798  0.1335
22080SOL    HW167403   3.815   2.101   5.665 -0.4025  0.2895 -0.1108
22080SOL    HW267404   3.939   2.101   5.578 -0.2380 -0.2437  0.1224
22081SOL     OW67405   1.379   7.826   3.579  0.0148  0.0174 -0.0805
22081SOL    HW167406   1.309   7.785   3.527  0.9850 -1.2762 -0.4174
22081SOL    HW267407   1.449   7.843   3.515 -0.6399  3.1110 -0.1611
22082SOL     OW67408   3.227   4.874   7.754  0.4049 -0.4106 -0.0211
22082SOL    HW167409   3.177   4.912   7.826 -1.8618 -1.3332 -1.0127
22082SOL    HW267410   3.183   4.906   7.675  0.0311 -2.9390 -0.9079
22083SOL     OW67411   4.548   4.968   1.946 -0.3567  0.0337 -0.4385
22083SOL    HW167412   4.562   4.997   1.856 -0.0313 -0.6727 -0.6321
22083SOL    HW267413   4.469   5.013   1.975  0.2702  1.2956 -0.6150
22084SOL     OW67414   6.582   7.519   6.877  0.0352  0.0472 -0.0489
22084SOL    HW167415   6.529   7.443   6.852 -0.0417  0.7932 -2.3341
22084SOL    HW267416   6.577   7.578   6.802  1.1802  1.7394  1.1416
22085SOL     OW67417   8.371   4.353   6.293  0.3369 -0.0282  0.1574
22085SOL    HW167418   8.461   4.376   6.271 -0.0027 -0.7345 -2.3002
22085SOL    HW267419   8.331   4.330   6.209 -1.8176 -0.8644  1.3264
22086SOL     OW67420   7.189   8.387   5.242 -0.5595  0.3050  0.1711
22086SOL    HW167421   7.105   8.375   5.285 -0.7901  0.1998 -0.2966
22086SOL    HW267422   7.232   8.301   5.249 -0.1773  0.5549  1.0448
22087SOL     OW67423   3.026   6.478   5.527  0.0872  0.2054  0.0911
22087SOL    HW167424   2.950   6.428   5.495 -0.3325  0.8321  0.0822
22087SOL    HW267425   3.024   6.559   5.475  2.1298 -0.7376 -1.5764
22088SOL     OW67426   6.957   2.524   7.077 -0.1555  0.3023 -0.6939
22088SOL    HW167427   7.030   2.486   7.028 -1.6840 -0.5422 -2.4255
22088SOL    HW267428   6.953   2.615   7.048  0.2895  0.3909 -0.4838
22089SOL     OW67429   7.175   2.881   1.412  0.2375 -0.0502 -0.0880
22089SOL    HW167430   7.211   2.798   1.445 -0.7112 -0.0589  1.0266
22089SOL    HW267431   7.194   2.944   1.481 -0.6878  0.2286 -0.0718
22090SOL     OW67432   1.731   5.740   8.546 -0.2244  0.5925  0.1526
22090SOL    HW167433   1.813   5.764   8.504 -0.9535  4.4691  0.5359
22090SOL    HW267434   1.730   5.791   8.628 -2.5357 -0.1208  0.6548
22091SOL     OW67435   2.404   4.653   3.369  0.6191 -0.0345 -0.1155
22091SOL    HW167436   2.453   4.730   3.396 -0.0997  1.0139 -1.6686
22091SOL    HW267437   2.437   4.633   3.281  1.5632 -2.1918  0.6433
22092SOL     OW67438   3.516   1.487   3.244 -0.3322  0.5529 -0.8276
22092SOL    HW167439   3.520   1.399   3.280  1.7798  1.2671  0.9524
22092SOL    HW267440   3.423   1.502   3.224 -0.8635 -1.6631 -0.1981
22093SOL     OW67441   4.006   4.372   8.160 -0.8004 -0.1149 -0.0993
22093SOL    HW167442   4.020   4.448   8.104 -1.5334  0.5622  0.6122
22093SOL    HW267443   3.921   4.388   8.202  0.3510  0.1203  2.2956
22094SOL     OW67444   8.040   5.436   4.989  0.3225 -0.0444 -0.2476
22094SOL    HW167445   8.037   5.519   5.037  2.2743  0.4041 -0.8168
22094SOL    HW267446   7.987   5.452   4.911 -0.3224  0.2477  0.2418
22095SOL     OW67447   3.877   8.348   2.409  0.5941 -0.5616 -0.0065
22095SOL    HW167448   3.879   8.252   2.409 -1.7590 -0.7820 -2.8643
22095SOL    HW267449   3.793   8.370   2.449  0.9813  0.2793  0.3579
22096SOL     OW67450   7.804   2.395   0.418 -0.1786  0.8387  0.3887
22096SOL    HW167451   7.772   2.415   0.330  0.1735  1.2144  0.3417
22096SOL    HW267452   7.850   2.475   0.446 -0.0906  0.6420  0.8217
22097SOL     OW67453   1.220   7.325   0.296 -0.2907 -0.1574  0.2049
22097SOL    HW167454   1.178   7.264   0.236 -1.0129 -0.4862  1.0342
22097SOL    HW267455   1.298   7.354   0.249 -0.4479 -0.9732 -0.5906
22098SOL     OW67456   6.515   3.214   1.392  0.1370  1.4137 -0.5233
22098SOL    HW167457   6.505   3.289   1.334 -1.2167  0.6150 -1.3811
22098SOL    HW267458   6.525   3.139   1.333 -2.6887  0.3875  0.1416
22099SOL     OW67459   7.742   5.498   0.612 -0.9297 -0.2443  0.0329
22099SOL    HW167460   7.747   5.416   0.563 -3.9460 -0.6222  0.1835
22099SOL    HW267461   7.737   5.566   0.544 -1.2722 -0.4383 -0.1385
22100SOL     OW67462   6.319   2.875   2.769  0.4182 -0.1868  0.0771
22100SOL    HW167463   6.334   2.817   2.695  0.5258 -2.3315  1.6929
22100SOL    HW267464   6.399   2.868   2.822 -0.0864  0.4550  0.9508
22101SOL     OW67465   5.268   5.595   4.232  0.0705  0.6705  0.2551
22101SOL    HW167466   5.299   5.645   4.308  0.2511  0.5665  0.2497
22101SOL    HW267467   5.175   5.619   4.224  0.7951  3.2836 -1.5071
22102SOL     OW67468   1.051   4.149   1.632 -0.0242 -0.0883  0.1889
22102SOL    HW167469   1.113   4.208   1.676  0.8252 -1.2621  0.6265
22102SOL    HW267470   0.972   4.202   1.620  0.8950  1.3231  0.0199
22103SOL     OW67471   1.094   1.220   1.515  0.1287  0.2371  0.3348
22103SOL    HW167472   1.146   1.231   1.435  0.9549 -1.0698  0.6763
22103SOL    HW267473   1.016   1.173   1.486  0.0828  0.4091  0.1759
22104SOL     OW67474   1.981   2.577   1.979 -0.2829 -0.6408  0.1060
22104SOL    HW167475   2.007   2.603   2.067  0.2765 -2.6167  0.5740
22104SOL    HW267476   1.886   2.588   1.978 -0.3046 -0.6490  0.9930
22105SOL     OW67477   8.375   2.597   7.961  0.2608  0.0676  0.2750
22105SOL    HW167478   8.377   2.548   7.879  0.3829  0.9169 -0.2513
22105SOL    HW267479   8.392   2.532   8.029  0.1846 -0.6463 -0.3731
22106SOL     OW67480   2.483   0.880   7.553  0.1523 -0.3292  0.3984
22106SOL    HW167481   2.532   0.936   7.613 -1.9101 -0.4019  2.2688
22106SOL    HW267482   2.530   0.797   7.554  2.8303  0.9721 -1.8451
22107SOL     OW67483   7.235   5.185   5.742 -0.4437  0.3032  0.0778
22107SOL    HW167484   7.232   5.191   5.647  3.6411  0.0279 -0.2596
22107SOL    HW267485   7.287   5.260   5.770  0.1991 -0.7156  1.8385
22108SOL     OW67486   7.887   7.653   1.738 -0.3295  0.5031  0.2211
22108SOL    HW167487   7.792   7.641   1.738 -0.1620 -1.0002  0.4175
22108SOL    HW267488   7.914   7.628   1.650  0.1451 -1.7964  0.9447
22109SOL     OW67489   6.102   3.887   8.690  0.0790 -0.2384  0.3691
22109SOL    HW167490   6.043   3.952   8.731  0.0746 -0.9247  1.5068
22109SOL    HW267491   6.167   3.940   8.644 -1.7230  0.5671 -1.4576
22110SOL     OW67492   5.326   5.308   6.885  0.0042 -0.0172 -0.3590
22110SOL    HW167493   5.237   5.316   6.918 -0.6207  1.3595 -2.2183
22110SOL    HW267494   5.316   5.292   6.791  1.7035 -2.6606 -0.1997
22111SOL     OW67495   5.888   2.326   1.529  0.0052  0.1105 -0.6298
22111SOL    HW167496   5.915   2.275   1.452 -1.7396 -0.0545 -1.1865
22111SOL    HW267497   5.942   2.292   1.601  0.2292 -1.1662 -1.3763
22112SOL     OW67498   7.408   6.698   2.781  0.2668  0.3403  0.0714
22112SOL    HW167499   7.350   6.635   2.738 -0.1832  0.0775  1.0353
22112SOL    HW267500   7.371   6.708   2.869  0.7175  1.4542  0.1429
22113SOL     OW67501   0.266   2.048   6.373 -0.3342  0.1313  0.1851
22113SOL    HW167502   0.257   1.953   6.385  0.5625  0.1830  1.5659
22113SOL    HW267503   0.205   2.085   6.437  0.0660  0.4727  0.3732
22114SOL     OW67504   3.566   0.661   5.079 -0.4274 -0.0622 -0.3482
22114SOL    HW167505   3.567   0.668   4.984 -0.3233 -1.3982 -0.4605
22114SOL    HW267506   3.494   0.602   5.099 -1.7813  1.7687  0.5663
22115SOL     OW67507   3.699   0.926   6.043 -0.3749  0.2152  0.2074
22115SOL    HW167508   3.674   0.867   6.114  0.2696 -3.0323 -2.0473
22115SOL    HW267509   3.630   0.915   5.978  0.3062  1.2101 -0.7140
22116SOL     OW67510   8.401   3.043   5.186  0.6039  0.1767 -0.3230
22116SOL    HW167511   8.375   3.115   5.243 -1.0159 -1.3017  0.9476
22116SOL    HW267512   8.463   2.992   5.238  0.8114  0.0069 -0.7312
22117SOL     OW67513   2.948   8.134   4.417  0.2927 -0.3912  0.6355
22117SOL    HW167514   3.042   8.154   4.413  0.4576 -1.3111 -2.4246
22117SOL    HW267515   2.905   8.220   4.411  0.8757  0.0578  2.2824
22118SOL     OW67516   4.694   5.595   3.899  0.0409  0.3908 -0.2316
22118SOL    HW167517   4.615   5.634   3.935  1.0125  1.2472  1.0705
22118SOL    HW267518   4.739   5.667   3.854  1.0282  0.4152  0.7452
22119SOL     OW67519   7.258   7.955   6.618  0.1040  1.1148  0.1267
22119SOL    HW167520   7.217   8.032   6.579  1.5394  2.0640  0.4252
22119SOL    HW267521   7.329   7.990   6.672  0.6374 -0.4025  0.4543
22120SOL     OW67522   6.120   7.577   5.201  0.2665  0.3155  0.3475
22120SOL    HW167523   6.060   7.512   5.164  1.5991 -0.0684 -1.2331
22120SOL    HW267524   6.113   7.564   5.296 -1.2586 -0.5077  0.1522
22121SOL     OW67525   0.313   8.648   7.133 -0.2527 -0.5057 -0.5334
22121SOL    HW167526   0.218   8.639   7.143 -0.4520  0.7641 -1.0413
22121SOL    HW267527   0.325   8.682   7.044  0.7816 -1.8598 -0.9432
22122SOL     OW67528   0.246   4.004   6.810  0.2398  0.0958 -0.0292
22122SOL    HW167529   0.209   4.041   6.730  3.5785  0.8829 -1.3803
22122SOL    HW267530   0.267   3.914   6.788 -0.0301 -0.0925  0.4458
22123SOL     OW67531   7.194   5.220   5.158 -0.3918  0.1315  0.6530
22123SOL    HW167532   7.133   5.210   5.085 -0.3656  1.7324  0.3753
22123SOL    HW267533   7.265   5.158   5.138 -1.5156 -1.1957  0.5879
22124SOL     OW67534   7.069   5.479   0.154 -0.0630 -0.1419  0.2515
22124SOL    HW167535   7.127   5.438   0.218  0.6139  0.9140  0.3507
22124SOL    HW267536   6.982   5.475   0.194 -0.1515 -2.0020 -0.0261
22125SOL     OW67537   0.467   2.880   4.323 -0.8524 -0.2633 -0.3131
22125SOL    HW167538   0.386   2.901   4.276 -0.1870  2.3471 -0.4185
22125SOL    HW267539   0.534   2.877   4.255 -0.6261 -1.1091 -0.0598
22126SOL     OW67540   1.050   5.712   5.980  0.1059 -0.1363  0.1148
22126SOL    HW167541   1.030   5.656   5.905 -1.2915  0.1082  0.2764
22126SOL    HW267542   1.060   5.800   5.943 -1.2580  0.1027  0.2710
22127SOL     OW67543   7.498   2.048   8.145  0.0078 -0.1288 -0.1555
22127SOL    HW167544   7.461   2.034   8.232 -0.4379 -0.3558 -0.3784
22127SOL    HW267545   7.535   1.964   8.121 -1.8900 -0.7388 -1.1244
22128SOL     OW67546   4.109   6.238   2.293  0.3755  0.5314 -0.5788
22128SOL    HW167547   4.122   6.160   2.239 -1.3757 -0.9717  0.9839
22128SOL    HW267548   4.021   6.268   2.270  0.0702  0.5570  0.5566
22129SOL     OW67549   5.307   7.248   1.058 -0.0069 -0.0064 -0.3535
22129SOL    HW167550   5.382   7.198   1.092 -0.1360 -0.5459 -0.8504
22129SOL    HW267551   5.243   7.181   1.034 -1.4915  0.4968  1.9412
22130SOL     OW67552   2.587   5.073   8.680 -0.1897 -0.1001 -0.2014
22130SOL    HW167553   2.669   5.121   8.691 -0.1606 -0.2174  0.1038
22130SOL    HW267554   2.613   4.991   8.637 -0.0188 -0.5200  0.6722
22131SOL     OW67555   1.169   0.695   8.026  0.1640  0.0917 -0.4040
22131SOL    HW167556   1.233   0.696   8.097 -1.4503  0.0692  1.1106
22131SOL    HW267557   1.114   0.772   8.042 -0.3990 -0.0517 -1.5017
22132SOL     OW67558   3.544   2.684   8.515  0.0259  0.1604  0.3893
22132SOL    HW167559   3.485   2.757   8.497 -0.8786 -0.5228  0.5391
22132SOL    HW267560   3.516   2.615   8.456  1.2535  0.1161 -0.1659
22133SOL     OW67561   0.038   7.140   8.140 -0.0221  0.1352 -0.0964
22133SOL    HW167562   0.006   7.215   8.190  0.7739  1.1521 -1.0546
22133SOL    HW267563   0.015   7.160   8.049 -1.1238 -1.5049 -0.2222
22134SOL     OW67564   2.794   2.037   4.439  0.4814 -0.5823 -0.2817
22134SOL    HW167565   2.787   1.945   4.465 -0.9560 -0.5791 -0.5805
22134SOL    HW267566   2.791   2.084   4.522 -1.8507 -0.6909 -0.2251
22135SOL     OW67567   8.400   8.608   0.397  0.3652  0.6649 -0.3374
22135SOL    HW167568   8.326   8.548   0.381  0.3404  0.9452 -1.4045
22135SOL    HW267569   8.361   8.683   0.440 -0.1316  1.1168 -1.5198
22136SOL     OW67570   2.906   6.355   6.211  0.4079 -0.1613 -0.0766
22136SOL    HW167571   2.875   6.265   6.206 -0.0285 -0.1267  1.5019
22136SOL    HW267572   2.970   6.354   6.283  0.3045  0.8141  0.0389
22137SOL     OW67573   2.947   0.930   5.926  0.6627 -0.2788  0.5253
22137SOL    HW167574   3.005   0.865   5.966  0.1999 -1.3663 -0.4891
22137SOL    HW267575   2.910   0.885   5.850 -0.6119  0.7816  0.4835
22138SOL     OW67576   4.094   4.213   1.822  0.0425  0.3994  0.1212
22138SOL    HW167577   4.181   4.183   1.797 -0.4361  0.3570 -1.6272
22138SOL    HW267578   4.100   4.309   1.820  0.2245  0.4004  0.6722
22139SOL     OW67579   0.096   7.060   0.877 -0.3347 -0.4706  0.0370
22139SOL    HW167580   0.141   7.128   0.827  1.6952 -1.7897 -0.0471
22139SOL    HW267581   0.076   7.100   0.961  0.9188  0.2050  0.0272
22140SOL     OW67582   6.977   4.107   4.381  0.0139  0.8547 -0.4929
22140SOL    HW167583   6.958   4.183   4.327  2.2718  1.4108 -0.6330
22140SOL    HW267584   7.073   4.104   4.385 -0.0148 -1.5369  0.1499
22141SOL     OW67585   4.093   3.789   7.167  0.2528  0.0299 -0.2397
22141SOL    HW167586   4.162   3.736   7.207  1.0073  1.0370 -0.1703
22141SOL    HW267587   4.023   3.727   7.149  1.3511 -1.1096 -0.7332
22142SOL     OW67588   8.215   3.672   4.255 -0.3530 -0.7175 -0.5342
22142SOL    HW167589   8.308   3.685   4.269 -0.6971 -0.3365  2.0208
22142SOL    HW267590   8.198   3.582   4.283 -0.9360 -0.3325  0.4160
22143SOL     OW67591   8.751   8.361   2.929 -0.2767  0.1449  0.0702
22143SOL    HW167592   8.668   8.378   2.973  0.4655  2.2704  0.7877
22143SOL    HW267593   8.758   8.265   2.926 -1.4517 -0.1067  2.5328
22144SOL     OW67594   8.254   3.443   5.153  0.0480  0.0983 -0.1594
22144SOL    HW167595   8.173   3.417   5.196  0.1212  0.4256  0.1863
22144SOL    HW267596   8.323   3.425   5.218  0.0991  1.1342  0.1057
22145SOL     OW67597   2.325   4.284   3.839  0.3628  0.0100 -0.5951
22145SOL    HW167598   2.355   4.258   3.926 -1.8097 -0.4053  0.0829
22145SOL    HW267599   2.350   4.211   3.782  1.8235  0.2991 -0.3568
22146SOL     OW67600   6.668   1.428   2.380  0.0487  0.3387  0.3986
22146SOL    HW167601   6.709   1.411   2.465  1.0051  0.6709  0.0157
22146SOL    HW267602   6.682   1.348   2.330 -0.1711  0.2882  0.4161
22147SOL     OW67603   5.987   4.772   5.074  0.3036 -0.2908  0.6033
22147SOL    HW167604   6.028   4.687   5.081  0.6147 -0.2127 -0.1985
22147SOL    HW267605   6.029   4.825   5.142  1.1035 -0.3830  0.1901
22148SOL     OW67606   7.179   4.652   5.254  0.3608  0.1719  0.2707
22148SOL    HW167607   7.174   4.734   5.205 -0.9702  1.5738  2.5430
22148SOL    HW267608   7.174   4.584   5.187 -0.4457  1.9267 -1.5827
22149SOL     OW67609   4.887   4.490   2.998  0.0605 -0.0830  0.5861
22149SOL    HW167610   4.965   4.545   2.996  0.8808 -1.1909  1.1232
22149SOL    HW267611   4.861   4.481   2.906 -0.2604  1.4030  0.5086
22150SOL     OW67612   7.791   1.741   4.150  0.7456 -0.4785 -0.1541
22150SOL    HW167613   7.825   1.772   4.066  2.4942  0.0135  0.6767
22150SOL    HW267614   7.868   1.739   4.207 -0.7695  1.6098  2.1414
22151SOL     OW67615   3.718   3.236   1.297  0.3467 -0.4151 -0.5139
22151SOL    HW167616   3.792   3.287   1.265  0.2782  1.5934  2.1874
22151SOL    HW267617   3.642   3.292   1.282  0.0780 -0.2452  1.2555
22152SOL     OW67618   4.589   6.299   0.377 -0.1562  0.3574 -0.1206
22152SOL    HW167619   4.554   6.213   0.404  0.1256  0.3323  0.1752
22152SOL    HW267620   4.684   6.287   0.377 -0.0869  0.8527  0.5585
22153SOL     OW67621   6.557   2.721   0.467  0.4642  0.3286 -0.2956
22153SOL    HW167622   6.491   2.652   0.468  0.4188  0.3754  0.4365
22153SOL    HW267623   6.591   2.723   0.557  0.0154  1.6928 -0.1351
22154SOL     OW67624   8.228   1.063   4.803 -0.2993  0.3909 -0.5473
22154SOL    HW167625   8.262   1.122   4.871  0.7079  0.3583 -1.0022
22154SOL    HW267626   8.142   1.036   4.835  0.4393 -0.1547  1.0366
22155SOL     OW67627   3.590   0.019   3.283  0.2995  0.2441  0.2445
22155SOL    HW167628   3.668   0.065   3.315 -0.6201  3.5354 -1.6611
22155SOL    HW267629   3.586   0.043   3.190 -1.6800 -1.8591 -0.2969
22156SOL     OW67630   3.079   5.831   0.173 -0.0229 -0.3640 -0.2402
22156SOL    HW167631   3.075   5.769   0.100  0.4957  1.1535 -1.6272
22156SOL    HW267632   3.002   5.812   0.226 -1.4108 -0.3667 -2.1706
22157SOL     OW67633   6.110   3.720   4.954 -0.0307 -0.5860  0.4286
22157SOL    HW167634   6.173   3.791   4.955 -0.7241  0.0882 -0.8926
22157SOL    HW267635   6.026   3.763   4.939 -0.7540 -1.5069  1.6787
22158SOL     OW67636   7.832   8.698   7.755  0.1641 -0.3357  0.1072
22158SOL    HW167637   7.779   8.767   7.793  0.0890  0.1402 -0.8377
22158SOL    HW267638   7.920   8.714   7.789 -0.1511 -0.7472  1.1635
22159SOL     OW67639   7.998   1.734   4.322  0.1753 -0.0422  0.0850
22159SOL    HW167640   7.955   1.714   4.405 -0.1195 -0.9615 -0.2777
22159SOL    HW267641   8.074   1.676   4.320  0.0331 -0.2132 -0.4102
22160SOL     OW67642   0.846   7.431   4.658  0.3372  0.1875 -0.7485
22160SOL    HW167643   0.834   7.351   4.709  1.4415 -1.3866 -2.8314
22160SOL    HW267644   0.908   7.483   4.709 -0.7481 -0.0280  0.8594
22161SOL     OW67645   5.969   6.966   1.083  0.0311 -0.3006  0.7274
22161SOL    HW167646   6.026   6.889   1.081  0.3166 -0.0762 -0.6568
22161SOL    HW267647   5.928   6.963   1.169  1.2342 -1.1226  1.2940
22162SOL     OW67648   1.527   7.796   3.046 -0.7361  0.9298 -0.2213
22162SOL    HW167649   1.561   7.812   2.959 -0.5092  0.9963 -0.1197
22162SOL    HW267650   1.576   7.720   3.078 -0.3223  1.3371  0.1230
22163SOL     OW67651   5.854   3.817   4.966  0.3022 -0.5675 -0.1878
22163SOL    HW167652   5.861   3.898   4.915 -0.0086 -0.2597  0.2425
22163SOL    HW267653   5.778   3.772   4.930  1.0626 -1.1626 -1.0939
22164SOL     OW67654   1.220   6.602   4.795 -0.5594 -0.0879 -0.1797
22164SOL    HW167655   1.199   6.563   4.880 -2.7208  0.8804 -0.1797
22164SOL    HW267656   1.211   6.530   4.733 -0.1512 -0.5406  0.2755
22165SOL     OW67657   1.915   5.422   1.828 -0.0609 -0.0665  0.6575
22165SOL    HW167658   1.836   5.372   1.809 -1.5530  2.2459  0.3544
22165SOL    HW267659   1.932   5.407   1.921 -0.6148 -0.8969  0.6313
22166SOL     OW67660   6.749   0.628   4.035 -0.2136 -0.0979 -0.3711
22166SOL    HW167661   6.779   0.565   3.970  1.3354 -0.2284  0.4246
22166SOL    HW267662   6.829   0.659   4.077 -1.1157  0.6268  0.8876
22167SOL     OW67663   7.587   4.853   3.079  0.1739 -0.0916  0.0173
22167SOL    HW167664   7.611   4.763   3.102  0.3330  0.3197  1.6492
22167SOL    HW267665   7.668   4.903   3.091 -0.1507  0.4196  0.1444
22168SOL     OW67666   7.412   5.831   0.610 -0.7793  0.6869  0.4543
22168SOL    HW167667   7.467   5.895   0.655 -0.2931  1.5165 -1.2255
22168SOL    HW267668   7.326   5.872   0.606 -1.2881 -0.1205  2.0600
22169SOL     OW67669   7.577   6.482   4.369  0.0302 -0.0830 -0.3205
22169SOL    HW167670   7.541   6.535   4.298 -1.8226  2.2983  2.1961
22169SOL    HW267671   7.662   6.523   4.388  0.7524 -1.0217 -1.3848
22170SOL     OW67672   4.749   3.953   2.163 -0.2490 -0.0155 -0.0753
22170SOL    HW167673   4.808   3.878   2.151  0.4102  0.6512 -1.1540
22170SOL    HW267674   4.766   3.983   2.252  2.9879  1.7351 -1.1466
22171SOL     OW67675   3.555   3.650   8.447  0.4197  0.4616  0.7026
22171SOL    HW167676   3.501   3.595   8.390 -1.2467  2.5015  0.1926
22171SOL    HW267677   3.572   3.728   8.395  3.6862  0.0616  0.9748
22172SOL     OW67678   1.930   5.740   1.547 -0.0653  0.0598  0.0390
22172SOL    HW167679   1.947   5.829   1.577 -0.1259 -0.7643  2.7983
22172SOL    HW267680   1.995   5.725   1.479  0.3238  1.9883 -0.0724
22173SOL     OW67681   5.050   3.649   2.940 -0.0523 -0.0701  0.5909
22173SOL    HW167682   5.014   3.609   3.019  0.0836  1.0144  1.2147
22173SOL    HW267683   5.136   3.681   2.966  0.2841 -0.3228 -0.1897
22174SOL     OW67684   2.232   7.370   4.845 -0.2587  0.1289 -0.1773
22174SOL    HW167685   2.312   7.408   4.808 -0.0094  0.5723  0.7954
22174SOL    HW267686   2.196   7.317   4.774  1.2224 -0.5727 -0.4471
22175SOL     OW67687   7.053   0.244   8.197 -0.0666  1.0620  0.2383
22175SOL    HW167688   7.008   0.164   8.171  0.1450  1.0690 -0.1499
22175SOL    HW267689   7.135   0.244   8.148 -0.7609  2.2965 -1.0263
22176SOL     OW67690   0.184   5.347   4.771 -0.0113  0.5666 -0.1713
22176SOL    HW167691   0.229   5.318   4.692 -0.7933  1.1715 -0.8568
22176SOL    HW267692   0.176   5.442   4.761 -2.2516  0.3963 -0.5394
22177SOL     OW67693   3.428   4.521   7.197  0.4191 -0.2418 -0.0658
22177SOL    HW167694   3.410   4.612   7.173  0.1253 -0.5828 -1.1622
22177SOL    HW267695   3.381   4.469   7.132 -0.4769 -1.2053  1.2932
22178SOL     OW67696   0.712   6.554   3.593  0.2832 -0.2860 -0.0710
22178SOL    HW167697   0.804   6.570   3.569 -0.2306  2.3902 -0.5483
22178SOL    HW267698   0.689   6.627   3.649 -1.3769 -1.3427  0.6852
22179SOL     OW67699   7.586   4.698   5.365  0.0099 -0.3223  0.5557
22179SOL    HW167700   7.552   4.629   5.422  2.6381 -0.9614  1.5367
22179SOL    HW267701   7.596   4.774   5.422  2.6029 -0.9463  1.0614
22180SOL     OW67702   6.131   1.045   7.039 -0.1095 -0.1485 -0.0949
22180SOL    HW167703   6.152   1.079   7.126 -0.6428 -0.9406  0.3554
22180SOL    HW267704   6.185   1.097   6.979 -1.6086  2.2159  0.4443
22181SOL     OW67705   8.425   1.971   2.895 -0.1639 -0.5024  0.1487
22181SOL    HW167706   8.342   2.013   2.917 -0.2274 -0.7969  0.4782
22181SOL    HW267707   8.416   1.881   2.926  0.4291 -0.4300  0.5539
22182SOL     OW67708   6.427   8.084   0.816  0.0785  0.2260  0.1561
22182SOL    HW167709   6.441   8.102   0.724  0.4272 -1.2801 -0.1248
22182SOL    HW267710   6.515   8.085   0.854 -0.2158  3.3624  1.0595
22183SOL     OW67711   3.240   1.628   4.004  0.2689 -0.4909 -0.2175
22183SOL    HW167712   3.272   1.672   4.083 -0.6502 -0.4380  0.1341
22183SOL    HW267713   3.320   1.606   3.955  0.7676  1.2563 -0.2568
22184SOL     OW67714   4.909   7.818   8.090 -0.1713 -0.0572  0.0505
22184SOL    HW167715   4.878   7.876   8.160  1.9072 -0.1143  1.0833
22184SOL    HW267716   4.926   7.876   8.017 -1.7193  0.0899 -0.2401
22185SOL     OW67717   6.248   2.770   0.978  0.4625  0.3476 -0.3940
22185SOL    HW167718   6.179   2.736   0.921 -0.9316  1.4778  0.5381
22185SOL    HW267719   6.294   2.835   0.924  0.7692 -0.3578 -0.9977
22186SOL     OW67720   7.485   5.107   2.819 -0.0768 -0.3262  0.3511
22186SOL    HW167721   7.459   5.183   2.871 -1.2992  0.2879 -1.0793
22186SOL    HW267722   7.580   5.114   2.812 -0.1000  0.6668  0.8492
22187SOL     OW67723   8.796   2.106   0.205 -0.0477 -0.0420  0.1552
22187SOL    HW167724   8.767   2.188   0.164 -1.9214 -0.6051  0.2370
22187SOL    HW267725   8.804   2.127   0.298  0.3912  0.2618  0.0543
22188SOL     OW67726   2.113   2.610   6.265  0.0554 -0.1249 -0.4411
22188SOL    HW167727   2.037   2.652   6.307  0.5146  0.1543  0.1261
22188SOL    HW267728   2.112   2.520   6.299  0.6255  0.1974  0.4581
22189SOL     OW67729   8.239   8.359   6.646  0.9100 -0.2281  0.1264
22189SOL    HW167730   8.225   8.416   6.721  1.3053  0.2552 -0.1607
22189SOL    HW267731   8.190   8.279   6.667 -2.0631  1.2153 -0.6700
22190SOL     OW67732   7.986   5.187   6.981  0.0673  0.0114  0.1928
22190SOL    HW167733   8.075   5.164   6.953  1.3693  0.8844  3.2031
22190SOL    HW267734   7.970   5.273   6.943 -0.2467 -0.8368 -1.7347
22191SOL     OW67735   2.201   2.641   5.298  0.5083 -0.1907  0.3072
22191SOL    HW167736   2.290   2.641   5.333  0.7232  0.3910 -0.2175
22191SOL    HW267737   2.186   2.550   5.273 -0.3229 -1.0474  3.4767
22192SOL     OW67738   3.779   8.686   2.979  0.2569 -0.4477  0.2098
22192SOL    HW167739   3.721   8.674   3.054 -1.3858  0.5835 -0.8163
22192SOL    HW267740   3.725   8.664   2.903  0.5911  2.2006 -0.9101
22193SOL     OW67741   2.134   7.056   2.390 -0.1912 -0.2483 -0.5331
22193SOL    HW167742   2.189   7.132   2.369  1.1613 -1.0080  0.0807
22193SOL    HW267743   2.195   6.994   2.432 -1.4717 -1.2647 -0.1220
22194SOL     OW67744   8.553   1.527   7.667  0.1563 -0.2640  0.0449
22194SOL    HW167745   8.545   1.443   7.714  0.8950 -0.8019 -0.7603
22194SOL    HW267746   8.573   1.502   7.577 -0.0622  0.7827 -0.3033
22195SOL     OW67747   8.567   7.633   2.013  0.7024  0.5829 -0.3577
22195SOL    HW167748   8.600   7.654   1.926  0.0144  1.0577 -0.5147
22195SOL    HW267749   8.473   7.624   2.001  0.4358  1.8405  0.5326
22196SOL     OW67750   3.659   3.880   5.819 -0.3492  0.3487 -0.2554
22196SOL    HW167751   3.690   3.885   5.909 -2.6712 -0.1195  0.6573
22196SOL    HW267752   3.605   3.958   5.807 -0.5752  0.0909 -1.0090
22197SOL     OW67753   0.214   6.882   2.516  0.2043 -0.5990 -0.1087
22197SOL    HW167754   0.238   6.860   2.607  0.2485 -1.7148 -0.3801
22197SOL    HW267755   0.147   6.817   2.493 -1.2744  0.8951 -0.2305
22198SOL     OW67756   1.507   1.289   8.429  0.1947 -0.7450  0.0750
22198SOL    HW167757   1.538   1.363   8.482 -0.4419 -0.6035  0.2609
22198SOL    HW267758   1.412   1.287   8.445  0.1780 -1.4662 -0.0984
22199SOL     OW67759   4.623   0.974   6.754  0.0943  0.3962 -0.0495
22199SOL    HW167760   4.669   1.053   6.725  0.3429  0.0971 -0.4843
22199SOL    HW267761   4.693   0.916   6.784  0.0886 -0.3491 -1.3887
22200SOL     OW67762   1.414   1.927   8.197  0.1395 -0.1088  0.3536
22200SOL    HW167763   1.444   1.838   8.176  1.0965  0.3673 -0.3744
22200SOL    HW267764   1.320   1.925   8.179  0.0762 -1.0748  0.7199
22201SOL     OW67765   2.592   5.716   1.030 -0.3692 -0.2867 -0.0415
22201SOL    HW167766   2.645   5.786   0.992 -0.6850  0.4596  0.8582
22201SOL    HW267767   2.607   5.641   0.973  0.5685  0.3013 -0.5935
22202SOL     OW67768   7.729   5.731   0.481  0.1546 -0.1408  0.1442
22202SOL    HW167769   7.802   5.756   0.424  1.2927  0.3684  1.7543
22202SOL    HW267770   7.659   5.793   0.460  0.5755  0.0756 -0.6416
22203SOL     OW67771   1.731   8.125   4.729  0.3178  0.1250 -0.1273
22203SOL    HW167772   1.720   8.175   4.648 -0.3721 -1.1671 -0.8554
22203SOL    HW267773   1.732   8.034   4.701  0.6454 -0.3194  1.2700
22204SOL     OW67774   5.088   7.146   3.785  0.3875  0.6224  0.2979
22204SOL    HW167775   5.159   7.086   3.761  0.0169  0.7453 -1.2218
22204SOL    HW267776   5.098   7.220   3.725 -1.2577  0.4435 -0.2394
22205SOL     OW67777   8.555   4.701   8.397  0.0679  0.2646  0.9704
22205SOL    HW167778   8.531   4.755   8.472  0.4977  0.7537  0.7549
22205SOL    HW267779   8.508   4.618   8.412 -1.7319  1.1535  0.5892
22206SOL     OW67780   7.549   4.596   5.106  0.1866  0.3215 -0.3347
22206SOL    HW167781   7.557   4.630   5.196 -0.7524 -0.7790  0.2012
22206SOL    HW267782   7.614   4.526   5.101 -3.1759 -3.3790  1.4427
22207SOL     OW67783   2.623   6.701   4.848  0.1953 -0.7217 -0.5004
22207SOL    HW167784   2.588   6.765   4.786 -0.6160  0.6142  1.2483
22207SOL    HW267785   2.698   6.663   4.804 -0.8212 -0.4196 -2.6125
22208SOL     OW67786   4.325   4.491   3.440 -0.1374  0.3548 -0.3231
22208SOL    HW167787   4.288   4.558   3.383 -1.5370 -1.0313 -1.1048
22208SOL    HW267788   4.297   4.516   3.528 -0.6209  0.8022 -0.6018
22209SOL     OW67789   0.595   2.513   6.090  0.5743 -0.0699  0.1949
22209SOL    HW167790   0.586   2.490   6.182 -1.1203  2.7316  0.8550
22209SOL    HW267791   0.668   2.575   6.088 -1.0885  1.9823  0.1907
22210SOL     OW67792   4.944   6.368   5.522  0.2165 -0.4652  0.5946
22210SOL    HW167793   4.981   6.391   5.437  3.3366 -2.4215  1.2522
22210SOL    HW267794   4.849   6.368   5.508  0.6134 -0.7592 -2.9101
22211SOL     OW67795   0.050   5.513   5.884  1.0715  0.6127 -0.9394
22211SOL    HW167796  -0.041   5.521   5.914  1.3359  0.1475  0.0255
22211SOL    HW267797   0.096   5.473   5.958  1.9315  0.2454 -1.6611
22212SOL     OW67798   4.501   6.060   0.445 -0.4812 -0.0169 -0.0808
22212SOL    HW167799   4.432   6.015   0.494  0.2270  0.5090  1.4528
22212SOL    HW267800   4.542   5.990   0.394 -1.0674 -0.6415  0.2796
22213SOL     OW67801   4.938   0.346   4.414  0.1395 -0.5282 -0.1449
22213SOL    HW167802   4.967   0.437   4.416  0.8032 -0.7398  0.1601
22213SOL    HW267803   4.891   0.338   4.331 -1.2577  0.4816  0.5215
22214SOL     OW67804   4.423   6.202   8.495 -0.2972 -0.0222 -0.2288
22214SOL    HW167805   4.467   6.245   8.421 -1.5753 -0.0271 -1.0139
22214SOL    HW267806   4.442   6.109   8.483 -0.5672 -0.0313 -0.6070
22215SOL     OW67807   6.873   3.842   5.825  0.1675 -0.7169 -0.2160
22215SOL    HW167808   6.839   3.797   5.902 -0.2699  0.4589  0.2946
22215SOL    HW267809   6.803   3.901   5.799  0.6341 -0.5082 -1.0333
22216SOL     OW67810   7.531   5.107   5.477 -0.0543  0.4775  0.0590
22216SOL    HW167811   7.586   5.111   5.555 -0.6631  0.7583  0.4797
22216SOL    HW267812   7.473   5.032   5.492  2.0966 -1.7516 -1.6729
22217SOL     OW67813   2.979   6.429   1.649 -0.2792  0.1440 -0.5968
22217SOL    HW167814   3.055   6.484   1.631 -0.6260  1.1468  0.8239
22217SOL    HW267815   2.918   6.487   1.695 -0.1623 -1.7194  2.1317
22218SOL     OW67816   4.583   1.735   6.422 -0.1727  0.4455 -0.0124
22218SOL    HW167817   4.561   1.656   6.472 -0.2340  1.0423  0.9313
22218SOL    HW267818   4.668   1.717   6.383 -0.5091 -0.3564 -0.3887
22219SOL     OW67819   6.663   7.941   4.788 -0.1908 -0.1942 -0.5058
22219SOL    HW167820   6.689   7.869   4.730 -1.7782  0.4901 -2.1822
22219SOL    HW267821   6.679   7.908   4.876  3.3882 -0.8626 -1.2743
22220SOL     OW67822   6.132   6.975   8.074  0.2978  0.0608 -0.0926
22220SOL    HW167823   6.141   7.022   8.157  1.3079 -0.2014 -0.0352
22220SOL    HW267824   6.150   6.884   8.096  0.6741  0.0052 -0.6064
22221SOL     OW67825   8.591   0.349   7.061  0.7811  0.3284 -0.0808
22221SOL    HW167826   8.578   0.427   7.115  0.3580  0.5693 -0.5252
22221SOL    HW267827   8.642   0.290   7.117  0.1059  0.4562  0.6969
22222SOL     OW67828   8.570   2.914   8.417 -0.0385 -0.6703  0.2648
22222SOL    HW167829   8.618   2.873   8.345  1.4694 -0.6604  1.2190
22222SOL    HW267830   8.574   3.008   8.399 -1.1061 -0.7515 -0.4808
22223SOL     OW67831   5.220   0.743   0.120  0.2007 -0.3131  0.5421
22223SOL    HW167832   5.164   0.668   0.101  0.3726 -0.6585  1.3634
22223SOL    HW267833   5.281   0.746   0.047  0.8393 -1.6014  0.9863
22224SOL     OW67834   5.056   5.895   2.376  0.4090  0.4257  0.8653
22224SOL    HW167835   5.131   5.954   2.381  0.4471  0.4676 -0.0126
22224SOL    HW267836   5.064   5.854   2.290 -1.0654  1.0840  0.3779
22225SOL     OW67837   4.832   7.099   3.693  0.5151  0.1896  0.2970
22225SOL    HW167838   4.922   7.103   3.724  0.3203  0.5250  0.8457
22225SOL    HW267839   4.829   7.162   3.620  0.3349  1.4316  1.3413
22226SOL     OW67840   7.666   3.332   6.878 -0.6326  0.0669  0.4828
22226SOL    HW167841   7.688   3.240   6.895 -1.1083  0.1456  1.6325
22226SOL    HW267842   7.603   3.354   6.946 -0.0400  1.4481  0.6123
22227SOL     OW67843   5.545   3.491   8.826  0.6289  0.5436  0.8581
22227SOL    HW167844   5.613   3.429   8.800  0.6820  0.6867  0.6561
22227SOL    HW267845   5.512   3.457   8.909 -0.2952 -0.5168  0.0853
22228SOL     OW67846   2.225   2.140   0.873  0.1878  0.2022  0.2040
22228SOL    HW167847   2.275   2.219   0.894  0.5734  0.0143  0.0011
22228SOL    HW267848   2.253   2.118   0.784  0.0712 -0.1556  0.2566
22229SOL     OW67849   2.219   1.841   1.314 -0.5493  0.5178 -0.8028
22229SOL    HW167850   2.157   1.873   1.380  0.0055  0.4167 -0.2268
22229SOL    HW267851   2.174   1.766   1.273 -0.5722  0.0711  0.0252
22230SOL     OW67852   2.406   4.718   6.005  0.4984 -0.2004  0.9183
22230SOL    HW167853   2.435   4.629   5.986  0.3792 -0.3755  1.5160
22230SOL    HW267854   2.447   4.739   6.089 -0.6271 -0.2391  1.4944
22231SOL     OW67855   5.760   4.555   2.931  0.2275  0.9363 -0.4464
22231SOL    HW167856   5.765   4.507   3.013  1.8504  0.0594 -1.0050
22231SOL    HW267857   5.685   4.518   2.885  0.3323  0.2274 -0.0626
22232SOL     OW67858   1.698   1.120   4.945 -0.2065 -0.2255 -0.2028
22232SOL    HW167859   1.686   1.170   5.025 -0.9267  0.3720 -0.6699
22232SOL    HW267860   1.645   1.166   4.880 -2.0246 -2.3504 -0.3354
22233SOL     OW67861   7.467   4.974   2.382  0.3032 -0.1997  0.0051
22233SOL    HW167862   7.533   5.042   2.390  0.8966 -0.6368 -0.9289
22233SOL    HW267863   7.510   4.895   2.415  0.4778 -0.6174 -1.1855
22234SOL     OW67864   0.526   8.026   0.541 -0.6096  0.1380  0.0770
22234SOL    HW167865   0.438   7.993   0.526 -0.0852 -1.7013  0.7715
22234SOL    HW267866   0.547   8.076   0.462 -1.2998 -1.6389 -1.3056
22235SOL     OW67867   5.354   7.179   8.477 -0.1435 -0.2611 -0.0573
22235SOL    HW167868   5.428   7.196   8.536 -0.4304 -0.8693  0.4911
22235SOL    HW267869   5.384   7.108   8.421  0.6203  1.1772 -1.5639
22236SOL     OW67870   2.513   4.079   1.480 -0.0179 -0.4071 -0.1125
22236SOL    HW167871   2.467   4.003   1.444 -1.7166 -0.0094  1.0793
22236SOL    HW267872   2.502   4.147   1.413  0.6734 -0.9030 -0.7529
22237SOL     OW67873   3.379   1.454   8.809 -0.2709  0.1063  0.5481
22237SOL    HW167874   3.425   1.514   8.868  0.5591 -0.1543  0.1839
22237SOL    HW267875   3.355   1.508   8.734  0.9250 -0.0958 -0.0115
22238SOL     OW67876   3.924   7.392   3.040 -0.4307  0.0685 -0.2956
22238SOL    HW167877   3.891   7.480   3.060 -0.7092 -0.2951  0.9369
22238SOL    HW267878   3.887   7.372   2.954  0.7984  1.7079 -1.2861
22239SOL     OW67879   1.254   8.856   2.977  0.1072 -0.7563  0.6368
22239SOL    HW167880   1.200   8.779   2.997 -0.4559 -0.2563  1.0909
22239SOL    HW267881   1.317   8.825   2.912  0.8330 -1.9859  1.8673
22240SOL     OW67882   2.398   0.455   5.891  0.1504  0.0205 -0.3014
22240SOL    HW167883   2.328   0.391   5.885  0.2620 -0.1643  0.2504
22240SOL    HW267884   2.411   0.467   5.985 -1.5091  2.6574 -0.3187
22241SOL     OW67885   1.860   2.345   2.267  0.2847  0.1811 -0.2102
22241SOL    HW167886   1.947   2.384   2.260  0.7051 -0.7413 -0.2862
22241SOL    HW267887   1.820   2.388   2.342  0.2339  1.6905 -1.0798
22242SOL     OW67888   6.823   5.653   3.048  0.2878 -0.6650  0.2714
22242SOL    HW167889   6.775   5.726   3.087  0.3770  0.5588 -1.7853
22242SOL    HW267890   6.778   5.635   2.966 -0.7358 -4.0997  1.4319
22243SOL     OW67891   1.954   7.756   2.452 -0.6639 -0.2165  0.1078
22243SOL    HW167892   1.924   7.677   2.406 -1.8587 -0.6322  1.5256
22243SOL    HW267893   2.048   7.759   2.436 -0.8724 -0.9308 -1.4383
22244SOL     OW67894   1.326   2.242   5.357 -0.4366 -0.2780  0.0789
22244SOL    HW167895   1.416   2.213   5.372 -0.6823 -1.2106 -0.1907
22244SOL    HW267896   1.328   2.336   5.376  0.6501 -0.2354 -0.1729
22245SOL     OW67897   1.354   0.683   7.850 -0.4050 -0.1480  0.9267
22245SOL    HW167898   1.289   0.687   7.920 -0.7600 -1.7869  0.7349
22245SOL    HW267899   1.422   0.625   7.884 -0.0151 -0.0394  0.3420
22246SOL     OW67900   8.339   5.819   7.837 -0.0337 -0.2467  0.7663
22246SOL    HW167901   8.362   5.808   7.929  1.7467  2.0507  0.6920
22246SOL    HW267902   8.258   5.870   7.838  0.3459  0.3663  1.0985
22247SOL     OW67903   4.226   5.134   2.081  0.3411 -0.8479 -0.2899
22247SOL    HW167904   4.140   5.099   2.107 -0.5781  0.1873 -1.7572
22247SOL    HW267905   4.239   5.100   1.992 -0.4432  2.0683 -1.6585
22248SOL     OW67906   8.545   6.435   8.100  0.3546  1.0682  0.1235
22248SOL    HW167907   8.459   6.427   8.059  1.3598  1.2408 -2.1724
22248SOL    HW267908   8.529   6.484   8.181 -1.7259  0.7755 -0.0590
22249SOL     OW67909   8.774   3.700   7.741  0.2451  0.4662  0.0110
22249SOL    HW167910   8.812   3.756   7.809  0.2735  0.2577  0.1652
22249SOL    HW267911   8.739   3.762   7.677 -0.5410  0.6869  0.6299
22250SOL     OW67912   0.793   1.946   0.748  0.2616 -0.2069 -0.3708
22250SOL    HW167913   0.714   1.962   0.697  0.9648  2.8405 -0.7203
22250SOL    HW267914   0.853   1.903   0.686  0.0395  0.6276 -1.1861
22251SOL     OW67915   5.087   6.523   4.615  0.5510  0.0022 -0.1854
22251SOL    HW167916   5.004   6.475   4.617  1.2954 -1.3126 -0.0626
22251SOL    HW267917   5.069   6.604   4.665 -1.4003  1.0550 -2.4217
22252SOL     OW67918   3.818   4.292   8.785  0.3310  0.1332 -0.7561
22252SOL    HW167919   3.804   4.202   8.754 -0.7605  0.0875 -0.1721
22252SOL    HW267920   3.857   4.282   8.872 -1.5639  0.1508  0.1565
22253SOL     OW67921   7.878   7.398   5.099 -0.6607 -0.2212 -0.2366
22253SOL    HW167922   7.805   7.437   5.051  0.0949  0.3232 -0.9745
22253SOL    HW267923   7.836   7.337   5.160 -1.7796  0.7173 -0.0260
22254SOL     OW67924   6.330   2.353   7.048  0.4845  0.4100 -0.1199
22254SOL    HW167925   6.247   2.369   7.003  0.6503 -1.4999 -1.2120
22254SOL    HW267926   6.336   2.258   7.054  2.1443  0.5335  0.8466
22255SOL     OW67927   1.533   6.529   8.143  0.2021 -0.2042  0.6002
22255SOL    HW167928   1.533   6.624   8.155 -3.4721  0.1683 -0.9187
22255SOL    HW267929   1.543   6.494   8.232 -0.0097  1.6286  1.4000
22256SOL     OW67930   6.429   7.232   0.806 -0.4813 -0.2285  0.5753
22256SOL    HW167931   6.354   7.230   0.866 -0.3969  1.1681  0.7681
22256SOL    HW267932   6.397   7.282   0.731 -0.0820 -0.5999  0.1518
22257SOL     OW67933   8.852   3.313   7.272  0.2648  0.1347 -0.2228
22257SOL    HW167934   8.864   3.258   7.195  0.3995 -0.1936  0.0299
22257SOL    HW267935   8.880   3.258   7.345 -1.1907 -0.0727  0.2082
22258SOL     OW67936   0.536   8.683   5.465 -0.4161  0.8375  0.5715
22258SOL    HW167937   0.607   8.746   5.476 -0.8389  1.1346  1.7153
22258SOL    HW267938   0.475   8.726   5.405 -0.7538  1.5739  1.4302
22259SOL     OW67939   3.476   8.270   6.918  0.2504  0.4445  0.2694
22259SOL    HW167940   3.455   8.194   6.864 -0.3579  0.4974  0.4269
22259SOL    HW267941   3.551   8.311   6.874  0.4457 -0.1220  0.0671
22260SOL     OW67942   0.316   5.196   7.646  0.0568  0.0318  0.3746
22260SOL    HW167943   0.233   5.243   7.636  0.0263 -0.1273 -0.1580
22260SOL    HW267944   0.353   5.229   7.727  0.2085  1.2636 -0.1683
22261SOL     OW67945   7.254   1.659   4.889  0.1305 -0.1330  1.0313
22261SOL    HW167946   7.248   1.672   4.794 -0.1940 -0.9285  0.9330
22261SOL    HW267947   7.180   1.707   4.925  1.4104  1.9123  1.0868
22262SOL     OW67948   0.315   5.386   5.426 -0.2301  0.3033 -0.0597
22262SOL    HW167949   0.330   5.459   5.365 -0.3523  0.6990  0.3749
22262SOL    HW267950   0.226   5.355   5.406  0.0454 -0.1203 -0.6479
22263SOL     OW67951   7.423   0.646   1.983  0.4337 -0.3781 -0.1095
22263SOL    HW167952   7.474   0.679   2.057  0.3125  1.0279 -0.6372
22263SOL    HW267953   7.418   0.719   1.923 -1.7118 -0.6817 -0.3589
22264SOL     OW67954   8.545   1.455   5.684 -0.4033  0.2012  0.2000
22264SOL    HW167955   8.505   1.523   5.631 -0.9880  0.3502  0.8222
22264SOL    HW267956   8.479   1.433   5.750  0.4705  0.3391  1.1546
22265SOL     OW67957   4.758   7.323   5.037 -0.2704 -0.1450 -0.6433
22265SOL    HW167958   4.724   7.405   5.000 -0.8083 -0.1047 -0.0775
22265SOL    HW267959   4.790   7.274   4.962 -1.1494  0.0234 -1.1435
22266SOL     OW67960   4.195   3.721   6.729  0.1348  0.4828  0.5172
22266SOL    HW167961   4.134   3.649   6.713  0.0087  0.0223  2.6961
22266SOL    HW267962   4.248   3.726   6.650 -1.8872  0.0687 -0.9230
22267SOL     OW67963   2.128   6.954   6.846  0.0106 -0.5376 -0.3883
22267SOL    HW167964   2.160   6.993   6.764 -1.2435  1.1466 -0.1266
22267SOL    HW267965   2.102   7.029   6.899 -2.7418 -1.7136  0.0877
22268SOL     OW67966   3.397   5.004   6.398 -0.4939  0.6128 -0.4943
22268SOL    HW167967   3.316   4.957   6.418 -0.3094  1.1811  1.8883
22268SOL    HW267968   3.395   5.082   6.453  2.0633  0.2011  0.3531
22269SOL     OW67969   7.114   4.192   6.658 -0.4874 -0.1229  0.0961
22269SOL    HW167970   7.190   4.134   6.655 -0.6950 -0.3594 -1.4413
22269SOL    HW267971   7.045   4.143   6.613 -1.0005  0.8474 -0.2094
22270SOL     OW67972   0.452   3.074   7.225  0.1141 -0.3902  0.0650
22270SOL    HW167973   0.405   3.125   7.159  0.8482 -0.3953 -0.4788
22270SOL    HW267974   0.433   3.117   7.308  0.8665  0.9000 -0.4020
22271SOL     OW67975   7.200   2.930   5.487  0.2941 -0.0927 -0.3442
22271SOL    HW167976   7.128   2.875   5.519  0.3062 -0.2141 -0.5292
22271SOL    HW267977   7.249   2.953   5.566 -1.8336  2.7434  0.3513
22272SOL     OW67978   4.809   1.879   4.292 -0.1727  0.0491  0.0369
22272SOL    HW167979   4.762   1.962   4.283  0.5603  0.3153 -1.8783
22272SOL    HW267980   4.896   1.903   4.322  0.5897  0.2039 -2.1499
22273SOL     OW67981   0.407   3.721   0.446 -0.2852  0.7869  0.7897
22273SOL    HW167982   0.384   3.634   0.478 -1.0510  0.9591  0.7268
22273SOL    HW267983   0.431   3.708   0.355  0.6938  0.4797  1.0788
22274SOL     OW67984   8.176   7.022   0.557  0.0568 -0.0969  0.2594
22274SOL    HW167985   8.082   7.017   0.541  0.0957  1.0440 -0.4782
22274SOL    HW267986   8.191   7.113   0.582  1.2461  0.3461 -1.8067
22275SOL     OW67987   7.585   2.059   0.474  0.1701 -0.1293  0.1352
22275SOL    HW167988   7.529   2.100   0.409 -0.0721 -0.8514 -0.1202
22275SOL    HW267989   7.624   1.984   0.429  2.2754  0.9965 -0.0602
22276SOL     OW67990   8.533   6.563   1.309  0.2811 -0.3144  0.2470
22276SOL    HW167991   8.512   6.651   1.341 -0.7489 -1.0600  1.7262
22276SOL    HW267992   8.475   6.550   1.235  1.7392  0.9220 -1.1875
22277SOL     OW67993   1.558   2.501   5.332  0.0199  0.5184 -0.0236
22277SOL    HW167994   1.510   2.557   5.271 -1.0912  0.9871  1.2361
22277SOL    HW267995   1.492   2.473   5.395  0.5604 -2.0847 -0.4773
22278SOL     OW67996   3.860   6.779   6.208 -0.0267  0.1715  0.3874
22278SOL    HW167997   3.799   6.801   6.279 -0.1128  1.8302 -0.1595
22278SOL    HW267998   3.817   6.810   6.129  1.8485  2.2171  0.0691
22279SOL     OW67999   8.522   8.014   6.573  0.2296  0.0638  0.4971
22279SOL    HW168000   8.543   7.967   6.492  0.0504  0.0324  0.4676
22279SOL    HW268001   8.601   8.007   6.627  0.4187  0.2532  0.2446
22280SOL     OW68002   3.884   5.205   1.878  0.2377  0.2403 -0.1030
22280SOL    HW168003   3.824   5.248   1.939  0.3179  0.2344 -0.0195
22280SOL    HW268004   3.884   5.260   1.800  0.7189  0.6598  0.1877
22281SOL     OW68005   6.737   1.927   3.191 -0.1300  0.1709 -0.2696
22281SOL    HW168006   6.784   1.966   3.117 -1.9211  2.6800 -0.2054
22281SOL    HW268007   6.645   1.936   3.169 -0.6767 -0.9981  1.3496
22282SOL     OW68008   1.725   2.822   4.245 -0.2502 -0.2022  0.2746
22282SOL    HW168009   1.666   2.747   4.240  1.1264 -1.3024  0.1163
22282SOL    HW268010   1.678   2.892   4.199 -2.1572 -0.5182  1.6383
22283SOL     OW68011   6.357   4.526   7.861  0.4041 -0.7264 -0.4493
22283SOL    HW168012   6.265   4.548   7.874  0.0230 -2.6153  0.2984
22283SOL    HW268013   6.382   4.574   7.782 -1.7206 -1.5747 -1.6917
22284SOL     OW68014   8.717   2.809   6.080 -0.1709 -0.0621 -0.1403
22284SOL    HW168015   8.742   2.878   6.018  1.1715 -0.3053  0.0965
22284SOL    HW268016   8.773   2.735   6.057 -1.3559 -0.9800 -0.1752
22285SOL     OW68017   4.543   4.952   8.102  0.2688  0.1063 -0.3483
22285SOL    HW168018   4.464   4.913   8.139  1.0091  1.4378  2.9977
22285SOL    HW268019   4.514   5.033   8.062 -0.1310  0.6021  0.8875
22286SOL     OW68020   4.266   3.844   7.855 -0.3559 -0.2609  0.3772
22286SOL    HW168021   4.182   3.875   7.820 -0.3313 -0.6951 -0.0779
22286SOL    HW268022   4.332   3.888   7.802 -0.3050 -0.3791  0.3438
22287SOL     OW68023   3.398   0.827   1.451 -0.1318 -0.2270 -0.5271
22287SOL    HW168024   3.485   0.864   1.470 -0.4469 -0.2415  1.0884
22287SOL    HW268025   3.410   0.732   1.459 -0.3794 -0.2074  0.1558
22288SOL     OW68026   0.154   2.549   1.289 -0.1482 -0.2457  0.0140
22288SOL    HW168027   0.122   2.463   1.318 -0.0499 -0.3013 -0.0394
22288SOL    HW268028   0.078   2.589   1.246 -0.1161 -0.4267 -0.2201
22289SOL     OW68029   0.355   5.129   8.543 -0.5164 -0.2148  0.5691
22289SOL    HW168030   0.450   5.126   8.534 -0.4168  1.4381  0.6004
22289SOL    HW268031   0.340   5.175   8.625 -1.3012  0.8783 -0.1489
22290SOL     OW68032   7.521   1.075   3.672 -0.2467 -0.3399 -0.1196
22290SOL    HW168033   7.449   1.073   3.609 -1.9795  1.5059  1.6526
22290SOL    HW268034   7.557   1.164   3.665  0.2393 -0.4570  0.7154
22291SOL     OW68035   3.735   2.395   3.354 -0.0483  0.5657 -0.8579
22291SOL    HW168036   3.660   2.360   3.306  0.0415 -0.9878  0.0902
22291SOL    HW268037   3.706   2.400   3.445  2.1053 -3.9581  0.3607
22292SOL     OW68038   5.201   7.850   0.008 -0.6358 -0.1511 -0.7077
22292SOL    HW168039   5.203   7.943  -0.014 -2.7404  0.5442  1.5527
22292SOL    HW268040   5.200   7.805  -0.076 -0.3270  1.8980 -1.8729
22293SOL     OW68041   5.453   2.163   2.651 -0.5395  0.0559 -0.0693
22293SOL    HW168042   5.368   2.184   2.688 -0.4275  2.1340 -0.8451
22293SOL    HW268043   5.466   2.228   2.582  0.0646 -2.5218 -2.5445
22294SOL     OW68044   2.577   5.926   7.601  0.1694 -0.3198  0.7624
22294SOL    HW168045   2.652   5.869   7.586 -0.2612 -1.3462  2.2181
22294SOL    HW268046   2.615   6.010   7.627  0.8059 -0.2984 -0.1984
22295SOL     OW68047   6.392   5.348   3.666  0.1884 -0.1296 -0.1861
22295SOL    HW168048   6.307   5.308   3.685  0.3420 -1.3517 -1.9077
22295SOL    HW268049   6.394   5.359   3.571  1.4769  1.0253 -0.0636
22296SOL     OW68050   5.728   5.221   1.326  0.0817  0.0174  0.1180
22296SOL    HW168051   5.770   5.260   1.402  0.9602  1.4383 -1.0379
22296SOL    HW268052   5.661   5.285   1.300  1.2224  0.6090 -1.5313
22297SOL     OW68053   5.848   5.038   7.186 -0.3258 -0.1986  0.0770
22297SOL    HW168054   5.936   5.030   7.223 -0.8803  1.3855  1.9008
22297SOL    HW268055   5.830   5.132   7.185 -2.1352 -0.5047  0.0880
22298SOL     OW68056   8.428   5.035   7.700 -0.4228  0.0869  0.3862
22298SOL    HW168057   8.389   5.115   7.664  0.3700  0.8757  1.2291
22298SOL    HW268058   8.406   5.037   7.793 -1.2517 -1.2181  0.2506
22299SOL     OW68059   0.492   1.115   2.352  0.2561  0.2418  0.0685
22299SOL    HW168060   0.426   1.167   2.398  1.2000  0.9869  0.6082
22299SOL    HW268061   0.443   1.073   2.281 -0.1287  3.9752 -2.1194
22300SOL     OW68062   0.694   8.605   0.133  0.2217  0.0404  0.0244
22300SOL    HW168063   0.696   8.691   0.176  1.4125  0.5150 -0.9126
22300SOL    HW268064   0.624   8.611   0.069 -1.0390 -0.4046  1.3052
22301SOL     OW68065   6.347   6.551   3.686 -0.6330 -0.4153  0.0900
22301SOL    HW168066   6.367   6.566   3.778  0.8257  0.1828 -0.2973
22301SOL    HW268067   6.317   6.636   3.653  0.2125 -0.2499 -0.2948
22302SOL     OW68068   3.520   8.515   8.847 -0.4314  0.2454 -0.2270
22302SOL    HW168069   3.607   8.528   8.809 -0.6410 -0.1270 -0.8625
22302SOL    HW268070   3.530   8.439   8.905  0.2172  1.6465  1.5862
22303SOL     OW68071   2.408   6.987   5.399 -0.1726  0.3168 -0.0689
22303SOL    HW168072   2.411   7.052   5.468 -1.1435  0.4900 -0.1669
22303SOL    HW268073   2.416   6.903   5.444  0.3184  0.4690  0.1324
22304SOL     OW68074   6.799   6.064   0.255  1.0739  0.0799 -0.7980
22304SOL    HW168075   6.799   6.154   0.222 -0.7116  1.0330  1.5473
22304SOL    HW268076   6.876   6.060   0.312  0.3548  0.6501  0.2550
22305SOL     OW68077   7.711   0.142   7.023  0.2457  0.0165  0.1143
22305SOL    HW168078   7.794   0.166   6.983 -0.2234  1.8681  0.1412
22305SOL    HW268079   7.710   0.047   7.023  2.3361 -0.0355  0.0909
22306SOL     OW68080   6.088   7.131   4.098  0.4148 -0.2047 -0.3803
22306SOL    HW168081   6.152   7.141   4.026  0.4231 -1.4368 -0.5720
22306SOL    HW268082   6.115   7.050   4.142 -1.6624 -1.4229 -1.1763
22307SOL     OW68083   5.651   0.258   3.157 -0.1003  0.0760 -0.6001
22307SOL    HW168084   5.619   0.177   3.196  1.0489 -1.0644 -1.9166
22307SOL    HW268085   5.715   0.230   3.091  1.2313  2.0967 -0.2786
22308SOL     OW68086   0.767   5.793   3.170 -0.2493  0.1954  0.4807
22308SOL    HW168087   0.706   5.723   3.195 -1.0627  0.7055 -0.0278
22308SOL    HW268088   0.850   5.767   3.209 -0.4305 -1.2814 -0.0521
22309SOL     OW68089   7.986   0.072   0.495  0.1967  0.3504  0.2758
22309SOL    HW168090   8.079   0.088   0.515  0.6167 -0.2399 -1.0678
22309SOL    HW268091   7.947   0.159   0.490  1.2212  0.7794 -1.4375
22310SOL     OW68092   5.958   1.973   2.227  0.1714 -0.0775 -0.1229
22310SOL    HW168093   6.025   1.949   2.163 -1.4328 -0.1857 -1.8406
22310SOL    HW268094   5.960   2.068   2.229 -0.5097 -0.0161 -1.2270
22311SOL     OW68095   5.234   7.002   1.791 -0.1912 -0.5764  0.1223
22311SOL    HW168096   5.240   6.970   1.701 -1.8116 -3.1194  0.8048
22311SOL    HW268097   5.291   7.079   1.793  0.0339 -0.5244 -2.9999
22312SOL     OW68098   3.786   5.907   7.677  0.4090 -0.1493 -0.5852
22312SOL    HW168099   3.750   5.989   7.710 -0.9491 -1.3001  0.9538
22312SOL    HW268100   3.879   5.911   7.699  1.2190  2.4591 -3.7623
22313SOL     OW68101   7.809   2.529   6.601 -0.5505 -0.1498 -0.2682
22313SOL    HW168102   7.867   2.529   6.678  0.1718 -0.5484 -0.7979
22313SOL    HW268103   7.843   2.599   6.545  0.6228 -1.5812 -1.4371
22314SOL     OW68104   4.258   5.940   1.148  0.0764 -0.0022 -0.0017
22314SOL    HW168105   4.203   5.957   1.224 -1.5883 -2.5448 -0.5095
22314SOL    HW268106   4.347   5.949   1.180 -0.5877  0.2917  1.8807
22315SOL     OW68107   1.701   0.149   2.312  0.2779 -0.2198 -0.3557
22315SOL    HW168108   1.654   0.194   2.383 -0.9566 -1.0886 -0.5842
22315SOL    HW268109   1.674   0.195   2.233 -1.0171 -1.3243 -0.5941
22316SOL     OW68110   0.266   3.163   7.841  0.1179  0.5741 -0.3327
22316SOL    HW168111   0.346   3.189   7.887 -0.2056  1.2060 -0.1267
22316SOL    HW268112   0.283   3.073   7.813  0.4885  0.3277  0.6444
22317SOL     OW68113   3.087   7.213   7.979 -0.2230  0.3488 -0.2730
22317SOL    HW168114   2.998   7.182   7.998  0.0456 -0.5000 -0.3674
22317SOL    HW268115   3.121   7.243   8.063  0.0192 -0.9433  0.1029
22318SOL     OW68116   2.325   4.242   2.071 -0.0636  0.5372 -0.0414
22318SOL    HW168117   2.243   4.221   2.027 -0.1942  1.6296 -0.3373
22318SOL    HW268118   2.316   4.334   2.097  1.2946  0.8598 -0.6143
22319SOL     OW68119   5.244   6.155   6.224 -0.0861 -0.1115  0.5568
22319SOL    HW168120   5.331   6.125   6.200 -0.0272  1.3230 -1.2062
22319SOL    HW268121   5.192   6.145   6.145 -1.4112 -0.4316  1.4301
22320SOL     OW68122   7.412   2.805   7.459 -0.1721  0.1150  0.3122
22320SOL    HW168123   7.498   2.843   7.438 -0.0145  0.0738  0.8625
22320SOL    HW268124   7.372   2.868   7.519 -0.9942  0.6775 -0.7999
22321SOL     OW68125   8.143   8.422   8.274  0.1514 -0.0830 -0.6306
22321SOL    HW168126   8.209   8.419   8.344 -0.8170 -0.2775  0.3056
22321SOL    HW268127   8.088   8.498   8.296 -0.2474 -0.2346 -1.0899
22322SOL     OW68128   8.403   3.395   2.287 -0.1838 -0.2888  0.5285
22322SOL    HW168129   8.399   3.473   2.231  0.8301 -0.1592  0.6126
22322SOL    HW268130   8.452   3.423   2.364  0.4118 -1.0702  0.4487
22323SOL     OW68131   7.708   7.398   2.919 -1.2161 -0.4462 -0.1164
22323SOL    HW168132   7.658   7.317   2.911  0.0907 -1.1882 -1.2244
22323SOL    HW268133   7.722   7.426   2.829  0.1735 -0.1541  0.1728
22324SOL     OW68134   5.647   2.798   0.022  0.2173 -0.4954  0.3097
22324SOL    HW168135   5.589   2.805  -0.055 -1.3228  0.9094  1.5109
22324SOL    HW268136   5.589   2.817   0.096  2.2349  1.1218  1.5744
22325SOL     OW68137   7.065   0.473   7.161 -0.3072 -0.2589 -0.2573
22325SOL    HW168138   7.024   0.551   7.198  1.2877  0.9146 -0.8363
22325SOL    HW268139   7.156   0.477   7.190 -0.3201 -2.2892  0.2526
22326SOL     OW68140   2.479   1.226   8.022 -0.1949 -0.5780  0.0257
22326SOL    HW168141   2.428   1.307   8.031 -0.0275 -0.5613  0.9417
22326SOL    HW268142   2.430   1.174   7.959 -1.2715 -0.4962  0.7618
22327SOL     OW68143   2.956   7.097   8.549 -0.5964 -0.0322 -0.1068
22327SOL    HW168144   2.877   7.147   8.527 -0.2912  0.8155  0.6205
22327SOL    HW268145   2.934   7.055   8.632 -0.5549 -0.4341 -0.2993
22328SOL     OW68146   6.501   3.767   3.958  0.0775 -0.3627  0.0984
22328SOL    HW168147   6.405   3.762   3.964 -0.0997  1.5671 -0.1981
22328SOL    HW268148   6.532   3.717   4.033 -1.0992 -2.2545 -0.6167
22329SOL     OW68149   7.345   0.589   7.635 -0.1828 -0.6157 -0.5070
22329SOL    HW168150   7.412   0.647   7.599  0.0407 -0.3414  0.3134
22329SOL    HW268151   7.292   0.646   7.691  0.0197 -1.1762  0.2800
22330SOL     OW68152   3.078   8.266   0.946 -0.4462 -0.4863 -0.1697
22330SOL    HW168153   3.046   8.234   0.862 -0.2886 -0.5483 -0.2060
22330SOL    HW268154   3.173   8.256   0.941 -0.4947 -1.2286  0.3193
22331SOL     OW68155   0.482   2.440   8.661 -0.0255 -0.0750 -0.6548
22331SOL    HW168156   0.412   2.446   8.726 -0.3011 -2.3331 -0.6737
22331SOL    HW268157   0.436   2.426   8.578  0.3731 -2.4840 -0.5467
22332SOL     OW68158   1.270   7.973   2.030  0.3190  0.1636 -0.0929
22332SOL    HW168159   1.288   7.905   2.094 -0.3298 -1.0057 -1.1020
22332SOL    HW268160   1.357   8.008   2.007  0.7044 -0.5935  0.1715
22333SOL     OW68161   0.462   5.506   8.778  0.0835 -0.0916  0.2594
22333SOL    HW168162   0.418   5.495   8.694 -0.3641 -0.1271  0.4940
22333SOL    HW268163   0.555   5.494   8.758  0.4587  3.5180 -0.9347
22334SOL     OW68164   0.810   1.364   0.494 -0.6152  0.2495 -0.0179
22334SOL    HW168165   0.898   1.385   0.524  0.6537 -1.6475 -2.0781
22334SOL    HW268166   0.783   1.442   0.444  0.5454  0.2816 -0.6317
22335SOL     OW68167   5.146   6.561   1.093  0.1496 -0.1692  0.3293
22335SOL    HW168168   5.136   6.633   1.155 -0.4464  1.9322 -2.0609
22335SOL    HW268169   5.065   6.510   1.103 -0.6410  1.0263  0.2290
22336SOL     OW68170   0.786   3.738   3.095  0.6591 -0.1007 -0.2108
22336SOL    HW168171   0.705   3.782   3.070  0.9809  0.1014 -0.9248
22336SOL    HW268172   0.854   3.803   3.080  0.8764  0.0339  1.2288
22337SOL     OW68173   5.574   6.441   0.199 -0.9523  0.0625  0.7250
22337SOL    HW168174   5.582   6.352   0.164  0.8145  0.2491  0.5887
22337SOL    HW268175   5.509   6.483   0.142  0.1025 -0.3742 -0.8601
22338SOL     OW68176   2.546   4.563   3.604  0.2195 -0.0098 -0.7807
22338SOL    HW168177   2.499   4.567   3.520 -1.1862 -2.4959 -0.2096
22338SOL    HW268178   2.588   4.648   3.611 -1.5288  1.1608 -2.9175
22339SOL     OW68179   7.605   2.766   2.667  0.3144 -0.0434  0.2578
22339SOL    HW168180   7.602   2.683   2.619 -3.4441  0.0742 -0.0089
22339SOL    HW268181   7.609   2.833   2.599 -0.4688  0.0231  0.2637
22340SOL     OW68182   0.206   1.088   7.614 -0.0553 -0.2163 -0.2452
22340SOL    HW168183   0.264   1.028   7.661 -1.0891 -1.4594 -0.5028
22340SOL    HW268184   0.263   1.136   7.554  0.6809 -1.6131 -0.6935
22341SOL     OW68185   5.259   1.395   5.821  0.1174 -0.0308 -0.4459
22341SOL    HW168186   5.252   1.320   5.763 -0.1541 -0.3960  0.0535
22341SOL    HW268187   5.333   1.445   5.787 -0.5088  0.1700 -1.5675
22342SOL     OW68188   8.561   3.793   2.929  0.6947  0.6589  0.0596
22342SOL    HW168189   8.469   3.818   2.935  0.9353  1.3106  1.3076
22342SOL    HW268190   8.593   3.840   2.852  0.1309  0.9032 -0.0333
22343SOL     OW68191   7.680   2.938   7.452  0.1917  0.2226  0.1670
22343SOL    HW168192   7.726   2.933   7.536 -2.3048  0.8364  1.6565
22343SOL    HW268193   7.611   3.002   7.466 -1.0419 -0.5258 -2.0191
22344SOL     OW68194   7.208   0.219   6.964  0.3510 -0.1126 -0.1676
22344SOL    HW168195   7.277   0.266   7.011  0.6769  1.0231 -1.6939
22344SOL    HW268196   7.152   0.288   6.929 -0.8982 -0.9918  0.0704
22345SOL     OW68197   0.787   2.073   8.816  0.1926  0.3766 -0.6870
22345SOL    HW168198   0.872   2.115   8.828  0.7272 -1.1064  1.3737
22345SOL    HW268199   0.730   2.114   8.881  0.1969 -0.6507  0.0034
22346SOL     OW68200   3.586   3.806   0.153 -0.1239  0.1891  0.2618
22346SOL    HW168201   3.672   3.803   0.111 -0.2092  1.1626 -0.0179
22346SOL    HW268202   3.597   3.868   0.225 -0.4756 -0.0288  0.5056
22347SOL     OW68203   0.228   1.661   5.222 -0.3225 -0.1988 -0.3302
22347SOL    HW168204   0.225   1.627   5.132  1.0378 -2.2213  0.3052
22347SOL    HW268205   0.139   1.649   5.255 -0.2914 -1.6113 -0.7013
22348SOL     OW68206   7.531   2.460   1.664 -0.2508 -0.3175  0.1388
22348SOL    HW168207   7.451   2.408   1.650  0.4859 -1.7044  0.7880
22348SOL    HW268208   7.499   2.542   1.701 -1.4449 -0.4685 -0.4910
22349SOL     OW68209   4.613   6.804   0.477 -0.7242 -0.3713 -0.0415
22349SOL    HW168210   4.699   6.844   0.465 -1.3550  0.7059 -1.2144
22349SOL    HW268211   4.578   6.796   0.388 -2.0665 -0.2829  0.4578
22350SOL     OW68212   8.099   7.212   3.574  0.1552  0.1404  0.2062
22350SOL    HW168213   8.193   7.200   3.587  0.4065  0.7091 -0.9476
22350SOL    HW268214   8.086   7.200   3.479 -1.1708 -1.4140  0.5353
22351SOL     OW68215   7.288   3.608   6.754  0.1058  0.0417  0.2647
22351SOL    HW168216   7.270   3.649   6.670  0.0909 -0.9721 -0.2419
22351SOL    HW268217   7.361   3.549   6.737  0.2390 -0.0247  1.0139
22352SOL     OW68218   6.407   6.568   4.066 -0.2771 -0.0288  0.2205
22352SOL    HW168219   6.389   6.480   4.034 -0.1876 -0.3137  0.9434
22352SOL    HW268220   6.495   6.562   4.102 -0.3236  0.3258  0.3899
22353SOL     OW68221   7.580   8.475   3.987  0.2055  0.1429 -0.4110
22353SOL    HW168222   7.588   8.550   3.927  1.7277  0.0252 -0.4004
22353SOL    HW268223   7.566   8.400   3.929 -2.2092  0.4810 -0.3851
22354SOL     OW68224   8.251   8.747   1.709 -0.4517  0.0329  0.5689
22354SOL    HW168225   8.347   8.739   1.715 -0.4062 -0.7024 -0.6566
22354SOL    HW268226   8.236   8.784   1.622 -1.3549 -2.4236 -0.3985
22355SOL     OW68227   3.159   6.429   0.806 -0.2251  0.1851  0.0656
22355SOL    HW168228   3.124   6.444   0.894 -0.8368  1.6617 -0.3923
22355SOL    HW268229   3.146   6.513   0.761  1.2158 -0.1635 -1.0519
22356SOL     OW68230   2.724   8.393   4.848 -0.5330  0.4747 -0.2052
22356SOL    HW168231   2.659   8.354   4.791 -0.0216 -2.1049  0.8295
22356SOL    HW268232   2.692   8.375   4.937 -0.1614  2.3296  0.3437
22357SOL     OW68233   4.343   0.036   2.060 -0.2496 -0.3694  0.3432
22357SOL    HW168234   4.427  -0.011   2.066 -0.0866 -0.7298 -3.0167
22357SOL    HW268235   4.367   0.127   2.045 -0.5356 -0.0793  1.5218
22358SOL     OW68236   7.871   3.078   3.525  0.0304  0.1967 -0.2213
22358SOL    HW168237   7.824   3.017   3.582 -1.4845  1.4985  0.0046
22358SOL    HW268238   7.917   3.136   3.586  2.4919 -1.3724 -0.4375
22359SOL     OW68239   3.068   2.870   5.372  0.7765 -0.5235 -0.1317
22359SOL    HW168240   3.039   2.861   5.281 -3.5188  1.9669  0.7329
22359SOL    HW268241   3.139   2.934   5.368  0.9407 -0.7452 -1.6974
22360SOL     OW68242   8.098   7.440   8.226  0.1193 -0.3832 -0.0526
22360SOL    HW168243   8.121   7.497   8.152  0.3851  0.0276  0.3410
22360SOL    HW268244   8.082   7.355   8.186 -1.4814  0.2255 -0.8022
22361SOL     OW68245   0.673   4.105   0.115 -0.1435  0.1232  0.0632
22361SOL    HW168246   0.666   4.032   0.054  0.4573  0.8757 -0.9244
22361SOL    HW268247   0.582   4.123   0.141 -0.3886 -0.2657 -0.5126
22362SOL     OW68248   8.443   3.664   7.658 -0.1507  0.0350  0.1053
22362SOL    HW168249   8.515   3.614   7.695 -0.2488 -0.5025 -0.4225
22362SOL    HW268250   8.370   3.602   7.653  0.3984 -0.4953 -2.7840
22363SOL     OW68251   5.347   6.298   3.913  0.0414  0.0381  0.1900
22363SOL    HW168252   5.335   6.334   3.826  0.5987  1.3379  0.6195
22363SOL    HW268253   5.387   6.212   3.899  0.4497  0.3817 -0.8301
22364SOL     OW68254   4.021   7.931   8.390  0.5769  0.0877  0.3817
22364SOL    HW168255   3.945   7.876   8.407 -0.7360  0.7406 -2.6203
22364SOL    HW268256   3.996   8.018   8.421  0.2636  0.2000 -0.1724
22365SOL     OW68257   3.694   4.846   1.806 -0.1163  0.0101  0.2205
22365SOL    HW168258   3.677   4.788   1.880 -0.7222 -1.2938 -0.8986
22365SOL    HW268259   3.718   4.788   1.734  1.9373  1.3483 -0.2489
22366SOL     OW68260   5.457   4.480   7.293 -0.2614  0.4887 -0.2335
22366SOL    HW168261   5.412   4.412   7.343  1.1362 -0.5153 -0.2643
22366SOL    HW268262   5.522   4.432   7.241  0.0369  1.7582 -1.0741
22367SOL     OW68263   1.712   2.622   6.238  0.4657 -0.2868  0.0943
22367SOL    HW168264   1.784   2.594   6.181 -1.2949 -2.9955 -1.0403
22367SOL    HW268265   1.667   2.690   6.188  1.8868  1.1032  0.6192
22368SOL     OW68266   1.164   4.670   5.477 -0.3968  0.5523  0.3438
22368SOL    HW168267   1.186   4.683   5.569  1.4386 -0.0586  0.0358
22368SOL    HW268268   1.249   4.670   5.432 -1.2665  0.9972 -1.3719
22369SOL     OW68269   2.120   0.933   6.345 -0.2890 -0.0422 -0.0667
22369SOL    HW168270   2.025   0.942   6.334 -0.6265 -1.2589  1.4137
22369SOL    HW268271   2.133   0.938   6.440  1.3038  1.4054 -0.3196
22370SOL     OW68272   5.692   1.784   6.916 -0.5392  0.6019  0.6821
22370SOL    HW168273   5.753   1.800   6.843  0.8997 -1.6224  1.2853
22370SOL    HW268274   5.605   1.791   6.876  0.1815  0.5435 -0.9936
22371SOL     OW68275   1.638   6.635   6.910  0.2455  0.2320 -0.4802
22371SOL    HW168276   1.709   6.697   6.894  0.3687 -0.0559 -1.1058
22371SOL    HW268277   1.672   6.551   6.879  0.6155 -0.4508  1.6695
22372SOL     OW68278   8.712   7.569   0.550  0.1114  0.0576 -0.2059
22372SOL    HW168279   8.674   7.652   0.577  2.5478  1.0686  0.4043
22372SOL    HW268280   8.774   7.592   0.481  0.2986 -1.3611 -0.5468
22373SOL     OW68281   5.560   2.117   7.312 -0.0996 -0.3770 -0.1160
22373SOL    HW168282   5.587   2.084   7.397 -0.6924  0.7270  0.5136
22373SOL    HW268283   5.633   2.172   7.283 -1.1695  1.8494  1.1647
22374SOL     OW68284   5.775   6.389   1.458 -0.0064 -0.0752 -0.3399
22374SOL    HW168285   5.684   6.405   1.431 -0.1767 -1.1779 -0.4341
22374SOL    HW268286   5.775   6.300   1.493  1.6855 -1.3628 -3.2380
22375SOL     OW68287   5.846   8.797   8.737  0.5642  0.6392  0.1404
22375SOL    HW168288   5.764   8.805   8.689  0.6780  0.6777 -0.0487
22375SOL    HW268289   5.894   8.727   8.692 -0.6789 -1.6491  2.1498
22376SOL     OW68290   6.126   6.414   3.373  0.5254  0.0435  0.5361
22376SOL    HW168291   6.151   6.326   3.348 -0.4036 -0.0404 -0.1512
22376SOL    HW268292   6.110   6.409   3.467 -0.5081 -0.7759  0.3340
22377SOL     OW68293   3.596   0.670   5.419  0.0639  0.2187 -0.1783
22377SOL    HW168294   3.652   0.606   5.374  1.0303  1.0097 -0.1266
22377SOL    HW268295   3.654   0.744   5.437 -0.6018  0.4230  1.2752
22378SOL     OW68296   5.350   7.507   1.030 -0.1637  0.1928  0.3195
22378SOL    HW168297   5.349   7.412   1.036 -0.7255  0.1108 -0.7954
22378SOL    HW268298   5.426   7.527   0.975  0.9719  0.5125  1.9288
22379SOL     OW68299   8.221   1.746   3.347 -0.0907 -0.4651  0.6535
22379SOL    HW168300   8.302   1.794   3.365 -0.1466  0.4961 -1.4557
22379SOL    HW268301   8.151   1.807   3.369 -0.2356 -0.7868  1.1076
22380SOL     OW68302   8.182   7.050   7.657  0.8211 -0.0627  0.0755
22380SOL    HW168303   8.118   7.055   7.586  0.7045  0.7755  0.2336
22380SOL    HW268304   8.180   6.958   7.683 -1.3618  0.1696  1.0011
22381SOL     OW68305   1.374   7.384   6.145  0.1847 -0.5773  0.8552
22381SOL    HW168306   1.293   7.387   6.095  0.6998 -0.4682  0.0081
22381SOL    HW268307   1.413   7.470   6.134  0.6780 -0.8011  0.7928
22382SOL     OW68308   1.291   7.945   7.305 -0.2284  0.0915  0.1957
22382SOL    HW168309   1.320   7.968   7.217  2.8629  0.9765  1.2740
22382SOL    HW268310   1.196   7.938   7.299 -0.1841  0.7444 -3.0261
22383SOL     OW68311   3.790   1.172   1.026 -0.0769  0.7923  0.2874
22383SOL    HW168312   3.759   1.221   1.102  0.0019  2.2028 -0.5748
22383SOL    HW268313   3.844   1.102   1.064 -0.6208  1.0342  1.5569
22384SOL     OW68314   6.962   7.143   6.659  0.1270 -0.2495  0.0461
22384SOL    HW168315   7.005   7.059   6.677 -1.2346 -0.9207  0.2961
22384SOL    HW268316   7.008   7.178   6.583  0.5196 -1.3715 -0.2522
22385SOL     OW68317   2.220   3.645   6.701 -0.0894 -0.2056  0.1819
22385SOL    HW168318   2.213   3.550   6.690 -1.5565 -0.2081  0.8049
22385SOL    HW268319   2.203   3.681   6.614  0.4530 -0.5207 -0.0520
22386SOL     OW68320   5.624   4.803   1.445  0.3731  0.6864  0.3075
22386SOL    HW168321   5.660   4.716   1.426  1.9783  1.0447  1.5478
22386SOL    HW268322   5.657   4.859   1.375  1.3275  0.7776  0.8190
22387SOL     OW68323   7.680   0.707   4.907 -0.7628  0.1019 -0.0177
22387SOL    HW168324   7.649   0.624   4.944  0.6975 -1.0229 -1.2060
22387SOL    HW268325   7.715   0.683   4.822  0.3786  1.8337 -0.0675
22388SOL     OW68326   3.552   5.788   6.406  0.4091  0.5117  0.0488
22388SOL    HW168327   3.573   5.847   6.334  0.5298  0.1294 -0.2279
22388SOL    HW268328   3.636   5.773   6.450  0.5416 -0.1868 -0.4349
22389SOL     OW68329   1.889   5.771   1.841 -0.2573  0.2260 -0.2353
22389SOL    HW168330   1.903   5.702   1.775 -1.3015  1.0857 -1.4013
22389SOL    HW268331   1.883   5.852   1.790 -1.4965  0.8716  0.8820
22390SOL     OW68332   6.916   4.189   2.106 -0.3077  0.4145  1.0840
22390SOL    HW168333   6.830   4.158   2.079  0.0683 -0.1021  0.4335
22390SOL    HW268334   6.955   4.114   2.152  0.6902 -0.2284 -0.6856
22391SOL     OW68335   5.819   1.301   4.301  0.3437  0.2136 -0.6114
22391SOL    HW168336   5.797   1.211   4.324 -1.7323  0.7742 -0.2527
22391SOL    HW268337   5.851   1.295   4.211  1.8849 -1.0661 -0.0363
22392SOL     OW68338   0.740   2.406   7.907 -0.2670  0.1222  0.5645
22392SOL    HW168339   0.724   2.324   7.861  0.8945 -0.6241  1.4536
22392SOL    HW268340   0.661   2.421   7.959 -1.5944  0.9602 -1.5390
22393SOL     OW68341   6.152   7.757   8.400 -0.4002  0.0538  0.0664
22393SOL    HW168342   6.243   7.763   8.372 -0.2362 -1.5028  0.1594
22393SOL    HW268343   6.101   7.758   8.319 -0.1769 -0.6863 -0.0919
22394SOL     OW68344   4.465   5.874   1.318  0.3476  0.5149 -0.2345
22394SOL    HW168345   4.483   5.787   1.353 -2.0535  0.5090  1.1549
22394SOL    HW268346   4.552   5.908   1.294  1.7866 -0.8274  2.5755
22395SOL     OW68347   7.246   2.233   6.477 -0.0520 -0.3181  0.4498
22395SOL    HW168348   7.209   2.229   6.389  0.3148 -0.5582  0.3058
22395SOL    HW268349   7.326   2.182   6.472  1.9728  2.6599 -0.0638
22396SOL     OW68350   2.298   4.781   3.066  0.3784 -0.1613 -0.2009
22396SOL    HW168351   2.383   4.737   3.059  1.4151  1.2175  2.3965
22396SOL    HW268352   2.304   4.834   3.146 -1.4352  3.2242 -2.0456
22397SOL     OW68353   0.328   6.178   5.403 -0.3676 -0.0408  0.0409
22397SOL    HW168354   0.423   6.187   5.410 -0.5313  2.4693 -0.0824
22397SOL    HW268355   0.298   6.265   5.378 -2.8673 -0.2861  1.8555
22398SOL     OW68356   2.278   1.668   0.513  0.0256 -0.5350 -0.6804
22398SOL    HW168357   2.301   1.692   0.603 -1.3449  2.9638 -1.0983
22398SOL    HW268358   2.226   1.588   0.522 -0.6487  0.1020  1.7148
22399SOL     OW68359   0.026   0.438   2.336 -0.0505  0.4761 -0.1866
22399SOL    HW168360  -0.043   0.372   2.324  2.1010 -1.6840 -1.4804
22399SOL    HW268361   0.086   0.399   2.400  2.4226  0.0535 -2.6001
22400SOL     OW68362   6.966   1.514   2.494  0.1671 -0.0620 -0.4289
22400SOL    HW168363   7.029   1.446   2.469 -0.2889  0.0081 -1.8214
22400SOL    HW268364   6.908   1.470   2.556 -0.0387 -0.9301 -1.2099
22401SOL     OW68365   5.176   6.541   1.438  0.0541  0.4673  0.5438
22401SOL    HW168366   5.163   6.450   1.415  1.9769  0.4150 -0.5138
22401SOL    HW268367   5.095   6.566   1.483 -0.2630 -1.9041  1.4355
22402SOL     OW68368   1.748   0.671   6.376  0.2850  0.3466 -0.3332
22402SOL    HW168369   1.742   0.693   6.283  2.1543  0.3834 -0.4859
22402SOL    HW268370   1.706   0.586   6.384 -2.5427  1.6008 -0.6392
22403SOL     OW68371   8.052   6.589   4.165  0.2729  0.3876  0.4893
22403SOL    HW168372   7.992   6.516   4.153  0.4801  0.2954 -0.0335
22403SOL    HW268373   8.115   6.580   4.093  1.4147 -0.0150  1.5019
22404SOL     OW68374   4.286   3.478   5.500  0.5568  0.0590 -0.4273
22404SOL    HW168375   4.234   3.413   5.453 -1.9531  1.1325  0.6877
22404SOL    HW268376   4.326   3.430   5.572 -1.1878 -0.3128  0.3346
22405SOL     OW68377   3.134   2.694   0.369  0.0396  0.0105 -0.7556
22405SOL    HW168378   3.109   2.679   0.460  0.5963  1.5231 -0.3201
22405SOL    HW268379   3.056   2.731   0.327  0.1089  0.3290 -0.6061
22406SOL     OW68380   3.834   6.805   2.725  0.1748  0.2659  0.0410
22406SOL    HW168381   3.859   6.850   2.644 -0.0699  0.2469 -0.0461
22406SOL    HW268382   3.831   6.874   2.791  0.6219  0.2403  0.0865
22407SOL     OW68383   1.192   2.752   6.040  0.4016 -0.1091 -0.4308
22407SOL    HW168384   1.223   2.663   6.024  0.9063 -0.4502  2.1120
22407SOL    HW268385   1.159   2.782   5.955  0.7859 -2.4788 -1.4705
22408SOL     OW68386   6.973   7.535   8.578  0.6516  0.1410 -0.0838
22408SOL    HW168387   7.058   7.558   8.615  2.3143 -2.5738 -1.8914
22408SOL    HW268388   6.992   7.466   8.515 -3.0106 -1.2741  0.1192
22409SOL     OW68389   5.784   5.299   2.827 -0.5705 -0.3322 -0.2375
22409SOL    HW168390   5.691   5.278   2.828 -0.2630 -2.0923 -1.9081
22409SOL    HW268391   5.798   5.350   2.907 -3.0259  0.4043 -0.1786
22410SOL     OW68392   6.469   4.332   4.203 -0.6670 -0.1483 -0.0400
22410SOL    HW168393   6.490   4.242   4.227  0.8735  0.5754  1.6067
22410SOL    HW268394   6.432   4.326   4.115 -1.5476 -2.4660  0.4231
22411SOL     OW68395   2.493   2.450   0.560  0.3228 -0.1322  0.2562
22411SOL    HW168396   2.572   2.413   0.520 -1.1997 -0.2740 -2.8894
22411SOL    HW268397   2.426   2.383   0.548 -0.6296  0.5288  1.6479
22412SOL     OW68398   4.913   6.024   3.053 -0.0305 -0.6999  0.1161
22412SOL    HW168399   4.983   6.058   2.998 -1.1759 -2.5594 -2.7135
22412SOL    HW268400   4.891   6.097   3.111  2.6517  0.6837 -0.4687
22413SOL     OW68401   2.107   3.037   2.150  0.1229 -0.0009  0.2027
22413SOL    HW168402   2.077   3.055   2.060  0.8758  0.6522  0.0653
22413SOL    HW268403   2.203   3.033   2.142  0.2073  0.3155  1.0156
22414SOL     OW68404   0.380   6.960   2.180 -0.2151 -0.0291  0.0328
22414SOL    HW168405   0.437   7.023   2.136  0.8457  0.1364  1.5658
22414SOL    HW268406   0.440   6.898   2.222 -1.2155 -2.5226 -1.9603
22415SOL     OW68407   6.399   8.139   0.180  0.0712 -0.5080  0.1988
22415SOL    HW168408   6.367   8.224   0.210  0.6830 -0.3848  0.5157
22415SOL    HW268409   6.492   8.152   0.164  0.6855 -1.6657  2.4270
22416SOL     OW68410   7.917   1.752   1.064  0.0849 -0.5662  0.2141
22416SOL    HW168411   7.852   1.773   0.998 -0.0956 -1.0117  0.2450
22416SOL    HW268412   7.869   1.757   1.147  0.0004 -1.2329  0.2100
22417SOL     OW68413   1.407   6.027   2.364  0.7775 -0.1502  0.4565
22417SOL    HW168414   1.393   5.933   2.376  0.6606 -0.0727  0.9434
22417SOL    HW268415   1.481   6.047   2.422  0.7899  0.0609  0.3666
22418SOL     OW68416   6.764   6.867   2.208 -0.1862  0.4074 -0.0633
22418SOL    HW168417   6.724   6.781   2.197  1.3464 -0.3023 -0.3589
22418SOL    HW268418   6.804   6.886   2.123  1.3752  0.3811  0.6267
22419SOL     OW68419   7.955   3.091   5.035 -0.4287  0.1633  0.3370
22419SOL    HW168420   7.881   3.129   4.987 -0.6775 -0.4408  0.2325
22419SOL    HW268421   8.032   3.113   4.983 -0.4178  1.5931  0.9202
22420SOL     OW68422   8.098   7.816   8.582 -0.1512  0.0253  0.1441
22420SOL    HW168423   8.132   7.748   8.641 -2.0520  0.7619  2.2498
22420SOL    HW268424   8.051   7.767   8.514  0.6755 -0.8204  0.1610
22421SOL     OW68425   0.117   7.330   2.293  0.0825 -0.0648 -0.0963
22421SOL    HW168426   0.110   7.259   2.229 -0.4769 -0.0752 -0.0278
22421SOL    HW268427   0.209   7.357   2.289 -0.0420  0.2295 -1.2135
22422SOL     OW68428   1.939   6.059   6.156  0.1354 -0.5331 -0.0042
22422SOL    HW168429   2.008   6.002   6.123  0.2396 -0.3343 -0.1358
22422SOL    HW268430   1.983   6.111   6.224 -0.2646 -1.4765  1.0087
22423SOL     OW68431   0.431   7.536   1.668 -0.1335  0.5240  0.1374
22423SOL    HW168432   0.518   7.521   1.632 -0.3085  0.0834 -0.1144
22423SOL    HW268433   0.373   7.482   1.614 -0.0972 -2.5585  2.8897
22424SOL     OW68434   2.270   3.157   6.809  0.3005 -0.2000  0.5252
22424SOL    HW168435   2.278   3.240   6.854 -0.6964 -0.4580  1.1958
22424SOL    HW268436   2.193   3.167   6.753  0.8843 -0.2635 -0.3204
22425SOL     OW68437   2.892   3.132   0.461 -0.3632  0.2308 -0.1697
22425SOL    HW168438   2.797   3.134   0.464 -0.4181 -1.7215  0.1701
22425SOL    HW268439   2.919   3.161   0.549 -0.6627  0.0923 -0.0298
22426SOL     OW68440   6.593   5.551   8.562  0.8585  0.1294 -0.4996
22426SOL    HW168441   6.651   5.486   8.603 -0.3840 -1.3024 -0.8961
22426SOL    HW268442   6.505   5.523   8.588  0.2560  1.2919 -1.2355
22427SOL     OW68443   5.419   0.765   2.044  0.0656 -0.4920  0.9115
22427SOL    HW168444   5.378   0.795   2.126  0.3214  2.5485  0.0590
22427SOL    HW268445   5.503   0.812   2.041  0.2581 -0.8829 -0.8905
22428SOL     OW68446   4.862   6.940   0.519  0.0536 -0.0010 -0.2103
22428SOL    HW168447   4.901   6.942   0.607 -0.0990  1.2155 -0.1537
22428SOL    HW268448   4.880   7.026   0.483 -0.6208 -0.2001 -1.0594
22429SOL     OW68449   7.679   7.785   0.442 -0.5514 -0.5467 -0.6260
22429SOL    HW168450   7.775   7.786   0.439 -0.4322  3.2465 -0.9301
22429SOL    HW268451   7.658   7.735   0.521  1.5509 -2.6217 -1.2733
22430SOL     OW68452   3.246   0.104   6.357  0.3881 -0.1046 -0.5735
22430SOL    HW168453   3.168   0.087   6.411  1.2592  2.0958  1.5858
22430SOL    HW268454   3.213   0.154   6.283 -0.2164  1.9397  0.9715
22431SOL     OW68455   7.307   4.790   0.635 -0.4150  0.7394 -0.0336
22431SOL    HW168456   7.367   4.825   0.569  1.6137 -2.7756 -0.3091
22431SOL    HW268457   7.242   4.741   0.585  0.3465 -0.8232  0.4404
22432SOL     OW68458   5.414   7.822   8.524 -0.0124 -0.2913  0.2113
22432SOL    HW168459   5.449   7.767   8.594 -1.1011 -1.0054  0.2227
22432SOL    HW268460   5.492   7.860   8.482  0.6764 -0.3780  1.3683
22433SOL     OW68461   7.396   2.897   0.994 -0.1381 -0.4785 -0.7478
22433SOL    HW168462   7.308   2.930   1.009  0.0021 -0.5696  0.3167
22433SOL    HW268463   7.439   2.967   0.944 -0.9120 -0.5975 -1.6104
22434SOL     OW68464   8.067   3.242   0.012  0.1476 -0.7858  0.0208
22434SOL    HW168465   8.143   3.229  -0.044  0.6856  0.7638  0.3518
22434SOL    HW268466   8.088   3.319   0.064 -1.5363 -0.4923  0.3226
22435SOL     OW68467   4.132   8.828   4.625 -0.3028  0.7949  0.3222
22435SOL    HW168468   4.145   8.823   4.720 -2.8080  2.0837  0.8320
22435SOL    HW268469   4.059   8.768   4.608  2.2979 -2.1939 -1.4771
22436SOL     OW68470   0.864   6.780   8.823  0.0003 -0.0781  0.7531
22436SOL    HW168471   0.817   6.811   8.745 -1.7127 -0.3581  1.6167
22436SOL    HW268472   0.799   6.787   8.893  0.6485 -2.3062  1.6456
22437SOL     OW68473   2.809   8.193   0.174 -0.8265  0.2710 -0.2486
22437SOL    HW168474   2.828   8.185   0.267  0.0648 -1.6885 -0.5395
22437SOL    HW268475   2.878   8.141   0.131 -1.6689  0.4851 -1.9406
22438SOL     OW68476   4.400   2.677   3.194 -0.1487  0.3267 -0.2716
22438SOL    HW168477   4.372   2.628   3.271 -0.9824  0.3036 -0.5722
22438SOL    HW268478   4.318   2.694   3.146  0.4198 -0.2025 -1.4653
22439SOL     OW68479   8.599   4.243   7.056  0.1660  0.0445 -0.0451
22439SOL    HW168480   8.523   4.197   7.090 -1.0577  0.5715 -1.9406
22439SOL    HW268481   8.630   4.296   7.130 -1.9358  0.6125  0.4856
22440SOL     OW68482   5.922   8.849   3.514 -0.7449  0.2246  0.0218
22440SOL    HW168483   6.006   8.804   3.506 -0.5219  0.6726 -0.1823
22440SOL    HW268484   5.943   8.942   3.505 -1.2971  0.3231 -0.3475
22441SOL     OW68485   8.028   1.700   2.881 -0.3563  0.2063 -0.0584
22441SOL    HW168486   8.113   1.700   2.925  0.3626  0.6254 -1.3611
22441SOL    HW268487   8.016   1.791   2.852  0.3002 -0.4250 -2.6266
22442SOL     OW68488   0.964   2.559   6.120 -0.2087  0.2105 -0.1878
22442SOL    HW168489   0.959   2.621   6.192  1.3213  0.3905 -0.1867
22442SOL    HW268490   0.924   2.605   6.046 -0.1779  0.7310  0.1131
22443SOL     OW68491   2.148   1.682   7.196  0.0552  0.6905 -0.2415
22443SOL    HW168492   2.138   1.588   7.206  0.8497  0.6541  0.2120
22443SOL    HW268493   2.078   1.707   7.135 -1.6938  0.1785  1.4627
22444SOL     OW68494   8.263   8.697   5.458  0.2583  0.2162  0.1457
22444SOL    HW168495   8.267   8.735   5.546 -1.9172 -2.5362  1.6061
22444SOL    HW268496   8.272   8.603   5.473 -0.1626 -0.3355 -2.6164
22445SOL     OW68497   0.035   6.546   5.336  0.7471 -0.3104  0.4993
22445SOL    HW168498  -0.027   6.479   5.306  0.4291  0.2198 -0.0823
22445SOL    HW268499  -0.010   6.590   5.408  0.3058  0.2747 -0.1224
22446SOL     OW68500   6.272   2.033   7.750  0.0290 -0.1161  0.1629
22446SOL    HW168501   6.259   2.030   7.655  1.1564  2.0081 -0.1184
22446SOL    HW268502   6.184   2.026   7.786 -0.4459 -0.6774 -1.0375
22447SOL     OW68503   7.334   0.782   8.832  0.1288  0.0099 -0.8562
22447SOL    HW168504   7.354   0.838   8.907 -0.0253  2.1794 -2.3331
22447SOL    HW268505   7.418   0.744   8.808  0.1910 -0.6642  0.3386
22448SOL     OW68506   6.975   4.054   8.759 -0.3823 -0.0368  0.3376
22448SOL    HW168507   6.906   3.998   8.724  0.6086 -0.2264 -1.3921
22448SOL    HW268508   7.044   3.994   8.786 -0.8194  0.1558  2.0214
22449SOL     OW68509   0.658   2.577   1.057 -0.1743  0.1738 -0.0888
22449SOL    HW168510   0.684   2.516   0.988 -0.1671 -0.5302  0.5246
22449SOL    HW268511   0.605   2.643   1.011  1.0613  0.5718 -1.0200
22450SOL     OW68512   0.316   7.374   4.484 -0.4266 -0.2180  0.5056
22450SOL    HW168513   0.342   7.380   4.576 -0.1535 -0.5267  0.4492
22450SOL    HW268514   0.380   7.315   4.444 -0.2583  0.2873  0.0078
22451SOL     OW68515   4.209   4.773   1.118  0.1797  0.4087 -0.2107
22451SOL    HW168516   4.288   4.718   1.113  0.2406  0.5517 -0.8977
22451SOL    HW268517   4.235   4.847   1.174  0.5338  0.4494 -0.4231
22452SOL     OW68518   0.695   8.667   5.129  0.2539  0.2415  0.2088
22452SOL    HW168519   0.663   8.721   5.201  0.9249  2.0080 -0.7734
22452SOL    HW268520   0.789   8.662   5.143  0.5889  1.7249 -1.2218
22453SOL     OW68521   8.251   7.593   5.895  0.2628 -0.6328 -0.3417
22453SOL    HW168522   8.173   7.538   5.893  0.2840 -0.7547  1.2784
22453SOL    HW268523   8.303   7.559   5.968  0.3105  1.4726  0.6928
22454SOL     OW68524   1.674   6.626   1.042 -0.0141 -0.2631  0.0216
22454SOL    HW168525   1.655   6.532   1.041 -1.2944 -0.0980 -2.6058
22454SOL    HW268526   1.613   6.662   1.107 -1.2967 -1.0075 -0.7221
22455SOL     OW68527   0.768   5.343   7.034  0.0427 -0.0667 -0.0300
22455SOL    HW168528   0.764   5.391   7.116  0.4374  1.7672 -1.0493
22455SOL    HW268529   0.828   5.393   6.979  1.0501 -2.1217 -0.9090
22456SOL     OW68530   3.975   8.028   3.028 -0.4177 -0.6308  0.2509
22456SOL    HW168531   4.047   7.965   3.037 -0.9089 -1.2868 -0.2973
22456SOL    HW268532   3.990   8.069   2.943  1.0940  1.5655  1.4663
22457SOL     OW68533   0.217   4.562   6.781 -0.2820 -0.2008 -0.1693
22457SOL    HW168534   0.305   4.539   6.812  0.1283  0.3463 -0.8956
22457SOL    HW268535   0.185   4.626   6.844 -0.2710 -0.5857  0.2364
22458SOL     OW68536   5.424   2.948   3.606  0.4068 -0.2722 -0.0091
22458SOL    HW168537   5.513   2.982   3.605  0.4004 -0.1884  1.0490
22458SOL    HW268538   5.410   2.919   3.696 -1.1855  1.1906  0.2692
22459SOL     OW68539   7.738   1.178   2.224  0.1345 -0.7666  0.0392
22459SOL    HW168540   7.794   1.251   2.199 -0.4599 -0.3298 -0.0107
22459SOL    HW268541   7.651   1.216   2.235  0.2028 -1.0725  1.9956
22460SOL     OW68542   2.601   7.154   6.381 -0.6171  0.3303  0.6580
22460SOL    HW168543   2.551   7.103   6.446 -1.2919 -0.5447 -0.5109
22460SOL    HW268544   2.565   7.127   6.297 -1.0475  2.8178 -0.0408
22461SOL     OW68545   2.972   4.441   4.150  0.3272 -0.1904 -0.5117
22461SOL    HW168546   3.015   4.364   4.113  0.7834 -0.0415 -0.2988
22461SOL    HW268547   2.885   4.442   4.110  0.0104 -1.2856  0.1199
22462SOL     OW68548   5.386   6.714   0.585 -0.2366  0.0163  0.3567
22462SOL    HW168549   5.402   6.673   0.500 -2.7182  1.0025 -0.6739
22462SOL    HW268550   5.418   6.803   0.576 -0.6152  0.1608  0.4102
22463SOL     OW68551   5.744   0.103   7.172 -0.5906 -0.0706 -0.6445
22463SOL    HW168552   5.703   0.070   7.252  0.2557  0.0704 -0.1420
22463SOL    HW268553   5.829   0.136   7.201 -0.2732 -0.0318 -1.6097
22464SOL     OW68554   5.624   7.983   4.840 -0.1368  0.0869 -0.9611
22464SOL    HW168555   5.634   7.980   4.935  1.0250 -0.1360 -1.0671
22464SOL    HW268556   5.652   8.071   4.816  0.0625 -0.0225 -1.1351
22465SOL     OW68557   8.129   1.297   0.953  0.1402 -0.4431 -0.2065
22465SOL    HW168558   8.082   1.355   1.012  1.2831  1.6384 -1.2533
22465SOL    HW268559   8.168   1.231   1.011  1.4843  1.6816  1.4838
22466SOL     OW68560   5.089   2.680   2.265  0.1152 -0.1241  0.4261
22466SOL    HW168561   5.175   2.707   2.298 -0.3923  2.3691 -0.0853
22466SOL    HW268562   5.028   2.703   2.334 -0.3774  0.3336 -0.1455
22467SOL     OW68563   7.143   1.808   5.278 -0.4238 -0.0833 -0.0966
22467SOL    HW168564   7.140   1.778   5.368 -1.5520  0.5155  0.0747
22467SOL    HW268565   7.139   1.728   5.225 -1.4000 -0.3499  0.3669
22468SOL     OW68566   7.999   4.440   4.759  0.0978 -0.1664 -0.3100
22468SOL    HW168567   7.967   4.405   4.843  2.2992  0.8519  1.0373
22468SOL    HW268568   8.086   4.401   4.749  0.6484  1.2142 -1.1526
22469SOL     OW68569   0.432   3.830   2.409 -0.1449 -0.0389 -0.3616
22469SOL    HW168570   0.350   3.790   2.379 -0.2777  0.5983 -0.8729
22469SOL    HW268571   0.405   3.908   2.456  0.1244 -0.4043  0.4098
22470SOL     OW68572   3.007   3.355   8.321  0.2902  0.4511 -0.0346
22470SOL    HW168573   3.088   3.377   8.276  0.2027  0.1952 -0.3178
22470SOL    HW268574   2.940   3.409   8.279 -0.1213 -1.0666 -1.4574
22471SOL     OW68575   0.585   5.786   7.262  0.2419  0.2023  0.6363
22471SOL    HW168576   0.491   5.800   7.266 -0.0142 -1.1009 -0.1350
22471SOL    HW268577   0.607   5.800   7.169  0.8460  0.6962  0.8467
22472SOL     OW68578   5.119   3.238   4.383 -0.3687  0.3212  0.2804
22472SOL    HW168579   5.105   3.219   4.476 -0.8101 -1.8257 -0.1661
22472SOL    HW268580   5.186   3.175   4.356 -1.3698 -0.1616 -1.1892
22473SOL     OW68581   1.008   5.072   1.301 -0.4838  0.0781  0.4524
22473SOL    HW168582   1.043   5.036   1.220  0.2602  1.4919  0.1190
22473SOL    HW268583   0.936   5.128   1.273 -1.9678 -1.4522  1.0060
22474SOL     OW68584   7.302   0.638   6.267 -0.2386  0.5007 -0.3976
22474SOL    HW168585   7.392   0.629   6.297 -0.5272  0.1702  0.3917
22474SOL    HW268586   7.283   0.555   6.223 -0.4460  0.2079  0.2340
22475SOL     OW68587   7.291   5.659   5.566 -0.2340  0.6156  0.2743
22475SOL    HW168588   7.270   5.733   5.509  0.2563 -0.5241 -1.4897
22475SOL    HW268589   7.216   5.601   5.558 -0.4084  0.6936  1.2738
22476SOL     OW68590   3.167   4.939   6.954 -0.5157 -0.4167 -0.4552
22476SOL    HW168591   3.104   4.887   7.005 -1.5601  0.6669 -0.6070
22476SOL    HW268592   3.199   5.005   7.016 -2.5892  1.5907 -1.3772
22477SOL     OW68593   4.262   5.261   7.483  0.3417  0.0154 -0.4315
22477SOL    HW168594   4.209   5.317   7.427 -4.0652 -2.8825  0.3127
22477SOL    HW268595   4.261   5.304   7.569 -1.3336 -0.1487 -0.3317
22478SOL     OW68596   7.738   8.380   1.790  0.4303  0.2575  0.1038
22478SOL    HW168597   7.702   8.419   1.710 -0.2396 -0.9806 -0.2256
22478SOL    HW268598   7.701   8.432   1.861 -1.2647 -0.3433 -0.2799
22479SOL     OW68599   1.391   0.123   8.254 -0.3612  0.1296  0.0119
22479SOL    HW168600   1.425   0.116   8.164 -1.9832 -0.0170 -0.6328
22479SOL    HW268601   1.326   0.194   8.249 -1.3907 -0.7170  0.7446
22480SOL     OW68602   2.489   4.817   5.437 -0.5089  0.7033 -0.2957
22480SOL    HW168603   2.583   4.804   5.450 -0.3192  0.9625 -1.3255
22480SOL    HW268604   2.457   4.732   5.408 -0.2732  1.0182 -1.5637
22481SOL     OW68605   0.640   4.754   2.318 -0.2587 -0.5778 -0.1663
22481SOL    HW168606   0.611   4.825   2.261 -1.1068 -0.0942  0.8351
22481SOL    HW268607   0.585   4.679   2.294  0.6465 -0.9269 -1.2319
22482SOL     OW68608   7.919   5.102   7.225  0.0704  0.3665 -0.5026
22482SOL    HW168609   7.957   5.171   7.279  0.8737  0.1681 -0.7932
22482SOL    HW268610   7.942   5.125   7.136  0.5247 -0.3728 -0.5874
22483SOL     OW68611   3.580   0.424   4.479 -0.3403  0.1719  0.1046
22483SOL    HW168612   3.494   0.448   4.514  0.2785  1.7739  0.6311
22483SOL    HW268613   3.608   0.501   4.429  0.1750 -0.8803 -1.3254
22484SOL     OW68614   0.072   5.240   7.745 -0.2497 -0.4376 -0.1952
22484SOL    HW168615   0.002   5.192   7.700  0.3643 -1.3246 -0.2517
22484SOL    HW268616   0.069   5.208   7.835  0.2993 -0.7629 -0.2823
22485SOL     OW68617   7.852   6.734   0.134 -0.0323  0.2022 -0.3759
22485SOL    HW168618   7.789   6.718   0.063 -0.9348  2.8749 -0.2663
22485SOL    HW268619   7.867   6.828   0.132  0.8332  0.1839  2.2684
22486SOL     OW68620   8.659   4.826   5.964  0.0483  0.7944  0.0554
22486SOL    HW168621   8.661   4.798   6.056  0.0065 -1.3007 -0.5298
22486SOL    HW268622   8.627   4.916   5.968 -0.3557  0.6244  2.0665
22487SOL     OW68623   3.361   5.682   5.841  0.1138  0.0066  0.2772
22487SOL    HW168624   3.298   5.745   5.807  1.7410  1.1330 -0.7724
22487SOL    HW268625   3.386   5.629   5.765  1.0433  0.1357  0.4758
22488SOL     OW68626   7.214   5.966   3.944  0.4479  0.2188 -0.0294
22488SOL    HW168627   7.150   5.999   3.882  0.1384 -1.2333 -0.5177
22488SOL    HW268628   7.162   5.919   4.009  0.8686  0.7167  0.6857
22489SOL     OW68629   4.250   2.271   6.599 -0.4634 -0.3612 -0.1831
22489SOL    HW168630   4.275   2.297   6.511  1.3546 -0.7220  0.1833
22489SOL    HW268631   4.291   2.336   6.656  1.2089 -1.9350  0.5392
22490SOL     OW68632   3.620   6.692   5.547 -0.1589  0.0554 -0.2836
22490SOL    HW168633   3.713   6.685   5.567 -0.0325  1.2737 -0.3843
22490SOL    HW268634   3.587   6.603   5.559  1.2562 -0.6891 -1.4963
22491SOL     OW68635   3.751   1.349   0.064 -0.2503  0.4953  0.1523
22491SOL    HW168636   3.675   1.364   0.120 -0.5184  0.5204 -0.2125
22491SOL    HW268637   3.718   1.293  -0.006 -0.0230  0.8002 -0.2037
22492SOL     OW68638   4.241   6.891   8.591 -0.2516  0.2294  0.2146
22492SOL    HW168639   4.325   6.873   8.549 -0.2912  1.4559 -0.4481
22492SOL    HW268640   4.216   6.977   8.557 -1.1231  0.4803  1.4516
22493SOL     OW68641   1.746   6.418   2.753 -0.1930 -0.3901 -0.3293
22493SOL    HW168642   1.806   6.443   2.683  0.4119 -1.6229 -0.2918
22493SOL    HW268643   1.671   6.379   2.707 -0.2681 -0.2394 -0.3324
22494SOL     OW68644   0.224   5.475   6.121  0.3940 -0.1416 -0.5759
22494SOL    HW168645   0.254   5.407   6.181  1.3147  1.7983  1.3070
22494SOL    HW268646   0.299   5.534   6.112 -0.9367  1.6267 -0.6014
22495SOL     OW68647   0.473   1.764   7.496  0.5011  0.1748  0.3977
22495SOL    HW168648   0.547   1.820   7.519  2.1154 -1.4808 -0.5247
22495SOL    HW268649   0.458   1.782   7.403  0.9012 -0.7250  0.1444
22496SOL     OW68650   3.717   6.569   4.336  0.5357  0.6794  0.7247
22496SOL    HW168651   3.762   6.488   4.313  1.2469  0.1169  3.6235
22496SOL    HW268652   3.631   6.563   4.294  0.9081 -1.1668  0.1834
22497SOL     OW68653   8.786   3.150   5.575 -0.1750 -0.3291  0.2164
22497SOL    HW168654   8.812   3.196   5.655 -2.4900 -1.4891  1.7306
22497SOL    HW268655   8.697   3.179   5.557 -0.7211 -2.1633 -0.3116
22498SOL     OW68656   7.045   4.176   0.871  0.4673  0.1344  0.0735
22498SOL    HW168657   7.077   4.258   0.908  1.1422  0.2198 -0.6860
22498SOL    HW268658   6.980   4.145   0.935  0.6684  0.9272  0.6793
22499SOL     OW68659   7.250   8.843   6.518 -0.0985  0.3355  0.8286
22499SOL    HW168660   7.248   8.902   6.594 -0.1657 -1.6604  2.4648
22499SOL    HW268661   7.312   8.774   6.543  1.8883  0.9030 -2.0159
22500SOL     OW68662   2.212   6.051   4.305 -0.1713 -0.3878 -0.0894
22500SOL    HW168663   2.249   6.015   4.225  1.8303  0.3459  0.4465
22500SOL    HW268664   2.271   6.022   4.374 -0.2130  1.3631  0.7366
22501SOL     OW68665   8.298   4.849   4.367  0.1813 -0.2548  0.0741
22501SOL    HW168666   8.230   4.868   4.301  0.5628 -0.4826 -0.3892
22501SOL    HW268667   8.368   4.807   4.317  0.2116 -1.0022  0.7349
22502SOL     OW68668   0.453   8.413   1.451  0.6620  0.2007  0.1970
22502SOL    HW168669   0.519   8.356   1.491  0.5227  1.0377  1.6824
22502SOL    HW268670   0.371   8.386   1.491  0.2045 -0.2121 -0.9633
22503SOL     OW68671   8.688   2.077   3.550  0.1408 -1.0201 -0.5292
22503SOL    HW168672   8.765   2.087   3.495 -0.1254  1.8369 -0.5282
22503SOL    HW268673   8.627   2.143   3.518 -0.4800 -0.0167  2.4044
22504SOL     OW68674   2.844   4.083   1.798  0.2796 -0.0638  0.2149
22504SOL    HW168675   2.774   4.143   1.823 -1.0089 -0.7628 -1.5261
22504SOL    HW268676   2.889   4.127   1.726  0.4419 -0.4259  0.0916
22505SOL     OW68677   8.022   1.881   1.944 -0.5838 -0.4370  0.0179
22505SOL    HW168678   8.021   1.928   1.860 -0.7119 -0.3435  0.0709
22505SOL    HW268679   8.086   1.928   1.997 -0.3283 -0.6395 -0.1075
22506SOL     OW68680   7.311   6.013   5.587  0.2943  0.5844  0.1577
22506SOL    HW168681   7.287   5.955   5.514  0.8398  0.8284 -0.2232
22506SOL    HW268682   7.340   6.094   5.544  0.5354  0.7589  0.6503
22507SOL     OW68683   3.752   3.441   6.431  0.8196  0.0437 -0.3478
22507SOL    HW168684   3.782   3.403   6.514 -0.2090 -2.5645 -1.0836
22507SOL    HW268685   3.667   3.400   6.416 -0.4475  2.7997 -1.2181
22508SOL     OW68686   4.077   5.804   2.668  0.0516  0.2493  0.0509
22508SOL    HW168687   4.087   5.780   2.576  2.6445 -0.4285  0.4160
22508SOL    HW268688   4.011   5.873   2.669 -1.2696 -0.9015 -2.0902
22509SOL     OW68689   6.136   4.683   8.094 -0.8150  0.5603 -0.0586
22509SOL    HW168690   6.207   4.690   8.158  1.0993  0.4790 -2.0402
22509SOL    HW268691   6.130   4.770   8.055 -1.3982  0.4031 -0.3327
22510SOL     OW68692   0.437   4.616   4.852 -0.3577  0.0390 -0.1728
22510SOL    HW168693   0.490   4.689   4.884 -1.8631  0.1136  2.3725
22510SOL    HW268694   0.499   4.544   4.841  0.5151  0.4989  1.4669
22511SOL     OW68695   0.589   0.889   2.434 -0.0082 -0.1049 -0.4487
22511SOL    HW168696   0.566   0.826   2.365 -0.3343  0.2234 -0.6437
22511SOL    HW268697   0.544   0.969   2.409  1.1893  0.5092 -0.7289
22512SOL     OW68698   5.327   1.285   5.206 -0.5910 -0.1663  0.1344
22512SOL    HW168699   5.240   1.256   5.234 -1.6484  1.3771 -1.4146
22512SOL    HW268700   5.385   1.255   5.277 -2.3134 -1.3995  1.1173
22513SOL     OW68701   6.667   6.648   7.597 -0.0882 -0.2116  0.7125
22513SOL    HW168702   6.643   6.556   7.601  0.6618 -0.4332  0.2056
22513SOL    HW268703   6.753   6.649   7.556  0.0597  0.6908  1.0257
22514SOL     OW68704   3.903   2.536   6.932 -0.1579  0.0898  0.1964
22514SOL    HW168705   3.823   2.585   6.951  0.2290 -0.3168  3.5825
22514SOL    HW268706   3.972   2.583   6.978  0.5307 -2.4466  2.0107
22515SOL     OW68707   1.776   5.881   0.224  0.6162 -0.0814  0.1110
22515SOL    HW168708   1.692   5.872   0.179 -0.9369  1.0127  2.5156
22515SOL    HW268709   1.763   5.836   0.308  1.9905  1.1137  1.0166
22516SOL     OW68710   7.381   4.495   0.170  0.3137  0.0595  0.1329
22516SOL    HW168711   7.290   4.513   0.146 -0.3860  0.0429  2.5221
22516SOL    HW268712   7.411   4.432   0.104 -1.1936  0.5059 -1.0458
22517SOL     OW68713   2.911   7.640   7.266 -0.3246 -0.0369  0.3135
22517SOL    HW168714   2.912   7.566   7.327  1.5488  0.1700  0.5914
22517SOL    HW268715   2.818   7.660   7.253 -0.8341 -1.8632  0.9183
22518SOL     OW68716   4.433   6.875   1.644  0.0480  0.0014 -0.0350
22518SOL    HW168717   4.389   6.958   1.663  1.8857  0.9874  0.1733
22518SOL    HW268718   4.507   6.873   1.705  1.4820 -0.5806 -1.6996
22519SOL     OW68719   2.232   3.854   7.716 -0.1716 -0.1957  0.3319
22519SOL    HW168720   2.156   3.829   7.769  0.6722  0.9766  2.2092
22519SOL    HW268721   2.290   3.899   7.777  0.9269  1.1606 -1.5901
22520SOL     OW68722   0.837   0.753   2.154  0.4248  0.3511  0.0067
22520SOL    HW168723   0.849   0.835   2.105  0.8849 -0.6845 -1.6909
22520SOL    HW268724   0.756   0.716   2.118  0.7123 -0.3751  0.0917
22521SOL     OW68725   2.893   1.911   8.123  0.1605 -0.3255  0.0042
22521SOL    HW168726   2.927   1.929   8.211  2.1151 -0.5921 -0.6547
22521SOL    HW268727   2.910   1.991   8.074  0.2460 -0.6250 -0.4589
22522SOL     OW68728   4.791   7.194   3.970  0.0805  0.1473 -0.1684
22522SOL    HW168729   4.711   7.142   3.959 -0.0053  0.2937 -0.2315
22522SOL    HW268730   4.837   7.184   3.887 -0.0870  0.4302 -0.2955
22523SOL     OW68731   3.763   2.233   0.897 -0.0619  0.1836  0.6114
22523SOL    HW168732   3.841   2.216   0.951 -0.6063  2.9103  2.4517
22523SOL    HW268733   3.707   2.157   0.912  1.2266 -0.7218  1.1236
22524SOL     OW68734   7.508   4.502   1.542  0.0476 -0.3007  0.1334
22524SOL    HW168735   7.474   4.412   1.546 -0.2287 -0.1693  0.8702
22524SOL    HW268736   7.514   4.529   1.633  1.0403  0.0989 -0.0411
22525SOL     OW68737   0.814   4.846   5.422  0.3468  0.3796 -0.1501
22525SOL    HW168738   0.736   4.821   5.373 -1.2878  1.3766  1.7522
22525SOL    HW268739   0.880   4.867   5.355 -1.1802  0.0067 -1.8393
22526SOL     OW68740   6.656   2.135   1.403 -0.0197 -0.4622  0.7370
22526SOL    HW168741   6.638   2.225   1.376 -0.7965 -0.9566 -0.4780
22526SOL    HW268742   6.750   2.124   1.389 -0.3471 -0.6324 -1.6989
22527SOL     OW68743   5.888   4.965   5.556 -0.7358  0.6048  0.7270
22527SOL    HW168744   5.860   4.929   5.640  1.8703  2.7821  2.7306
22527SOL    HW268745   5.984   4.965   5.561 -0.4331  0.0767 -2.6601
22528SOL     OW68746   3.202   4.476   7.742  0.0192 -0.1646 -0.3097
22528SOL    HW168747   3.212   4.467   7.647  0.1591  0.5394 -0.3697
22528SOL    HW268748   3.288   4.505   7.772 -0.0261 -0.3794  0.0385
22529SOL     OW68749   4.840   1.478   1.863  0.3846  0.0761 -0.5188
22529SOL    HW168750   4.915   1.531   1.887  0.5449  0.1327 -1.1205
22529SOL    HW268751   4.863   1.389   1.891  0.1426  0.3098  0.4290
22530SOL     OW68752   3.212   5.954   3.490  0.6094  0.0439 -0.8729
22530SOL    HW168753   3.242   5.883   3.434 -0.4158 -0.6229 -0.6078
22530SOL    HW268754   3.267   5.948   3.568  0.9056 -0.0834 -1.0882
22531SOL     OW68755   1.562   7.011   2.807 -0.0615  0.3153  0.4849
22531SOL    HW168756   1.602   6.981   2.888  0.6446  1.0058  0.3989
22531SOL    HW268757   1.634   7.013   2.744 -0.3932  0.7776  0.1093
22532SOL     OW68758   0.362   7.974   8.031  0.0958 -0.1278 -0.1788
22532SOL    HW168759   0.379   8.043   7.967  2.0072  0.9800  1.4025
22532SOL    HW268760   0.267   7.966   8.033 -0.1742  2.2289 -0.6933
22533SOL     OW68761   6.751   3.214   0.226  0.1095 -0.6858 -0.3452
22533SOL    HW168762   6.723   3.132   0.266 -0.4245  0.0751  0.8869
22533SOL    HW268763   6.724   3.282   0.288  2.2057  0.2924 -0.4163
22534SOL     OW68764   0.971   0.585   7.302  0.2892  0.0563 -0.3580
22534SOL    HW168765   0.974   0.583   7.397 -0.7655 -0.2711 -0.3247
22534SOL    HW268766   1.040   0.647   7.277  0.2795  0.4782  0.6316
22535SOL     OW68767   8.696   0.581   2.892  0.6110 -0.3100 -0.1057
22535SOL    HW168768   8.771   0.571   2.834 -0.6001 -2.6109 -1.4613
22535SOL    HW268769   8.675   0.491   2.918 -1.6187  0.2548  0.2399
22536SOL     OW68770   6.544   5.064   6.737 -0.4339 -0.4934  0.2442
22536SOL    HW168771   6.465   5.077   6.684 -0.2527 -1.0571 -0.1664
22536SOL    HW268772   6.599   5.007   6.685 -0.1442 -0.8625  0.9406
22537SOL     OW68773   2.380   7.028   8.470  0.2095  0.0707  0.8554
22537SOL    HW168774   2.299   6.978   8.456  0.9398 -1.0542  0.5759
22537SOL    HW268775   2.375   7.099   8.405  0.6342 -1.5065 -0.9812
22538SOL     OW68776   6.831   7.338   5.694  0.4732 -0.1028  0.4359
22538SOL    HW168777   6.867   7.261   5.738  0.4760  0.1187  0.8206
22538SOL    HW268778   6.783   7.385   5.762  1.4896  0.8820  0.4947
22539SOL     OW68779   4.741   4.765   8.265  0.2591 -0.2945  0.0778
22539SOL    HW168780   4.754   4.802   8.352  2.6750  0.6643 -0.6134
22539SOL    HW268781   4.665   4.811   8.230 -0.0426  0.1120  1.2422
22540SOL     OW68782   1.342   8.164   1.230 -0.4260  0.4645  0.3994
22540SOL    HW168783   1.284   8.106   1.180  0.2969 -0.3930  0.5336
22540SOL    HW268784   1.430   8.142   1.199 -0.1247  1.3920  0.5659
22541SOL     OW68785   1.663   0.866   3.071 -0.0003  0.4225  0.6831
22541SOL    HW168786   1.581   0.862   3.120 -0.3180 -0.0891  0.1153
22541SOL    HW268787   1.729   0.834   3.133  0.3649  3.8384  2.3046
22542SOL     OW68788   3.869   8.371   1.850 -0.5812 -0.3147 -0.1474
22542SOL    HW168789   3.950   8.421   1.855 -1.2067  0.7949 -0.6311
22542SOL    HW268790   3.893   8.282   1.876  0.4679  0.3465  1.2696
22543SOL     OW68791   5.591   8.231   2.655  0.0915 -0.2660  0.6926
22543SOL    HW168792   5.540   8.232   2.574 -2.5517  0.9671  2.2740
22543SOL    HW268793   5.621   8.140   2.662  2.2775 -0.0171 -2.6366
22544SOL     OW68794   8.762   6.144   5.795 -0.1789 -0.4204 -0.0339
22544SOL    HW168795   8.763   6.209   5.724  2.2584  0.2737  0.5435
22544SOL    HW268796   8.781   6.061   5.751  1.4018  0.0183 -0.2462
22545SOL     OW68797   7.715   5.301   2.350 -1.0627 -0.3502 -0.6141
22545SOL    HW168798   7.746   5.278   2.263  0.1315  0.2884 -0.3808
22545SOL    HW268799   7.695   5.217   2.392  3.2021 -1.1499  0.2274
22546SOL     OW68800   7.157   4.901   7.519 -0.5798  0.5900 -0.1088
22546SOL    HW168801   7.220   4.894   7.591  3.2585  1.2804 -3.0614
22546SOL    HW268802   7.141   4.994   7.510 -1.0006  0.5083 -0.2434
22547SOL     OW68803   3.455   3.113   8.031  0.0241 -0.5006 -0.1262
22547SOL    HW168804   3.530   3.172   8.026 -0.6781  0.6668  1.9368
22547SOL    HW268805   3.392   3.149   7.969 -0.0425  0.3952  0.4483
22548SOL     OW68806   7.271   6.273   1.158 -0.3018  0.8254  0.1546
22548SOL    HW168807   7.258   6.367   1.146  0.3928  1.0063  0.7488
22548SOL    HW268808   7.222   6.232   1.087  2.5345  1.7670 -2.5442
22549SOL     OW68809   4.387   3.619   2.488  0.0442 -0.4580  0.0413
22549SOL    HW168810   4.414   3.594   2.400  1.9200  0.7641  0.2168
22549SOL    HW268811   4.463   3.599   2.543 -1.0622 -1.1306  1.4109
22550SOL     OW68812   5.381   7.846   3.525 -1.0164 -0.0926  0.1076
22550SOL    HW168813   5.472   7.815   3.520 -1.4428 -1.2167 -1.1263
22550SOL    HW268814   5.348   7.809   3.608 -1.5994 -3.4135 -1.4178
22551SOL     OW68815   5.535   0.173   4.679 -0.1331  0.6478  0.5400
22551SOL    HW168816   5.609   0.231   4.666  0.0355  0.0252 -1.7237
22551SOL    HW268817   5.462   0.231   4.700  0.7741  1.3313  1.9718
22552SOL     OW68818   5.997   6.598   7.397  0.4361 -0.2181 -0.3711
22552SOL    HW168819   6.077   6.644   7.425  0.7228 -0.0210 -1.4567
22552SOL    HW268820   6.026   6.544   7.324  0.0645 -2.0322  0.7569
22553SOL     OW68821   3.636   0.099   4.792 -0.1554  0.7518  1.0622
22553SOL    HW168822   3.581   0.048   4.732  2.8803 -1.6000  0.0061
22553SOL    HW268823   3.657   0.038   4.863  2.6227  0.7613  0.3740
22554SOL     OW68824   8.697   7.221   6.396 -0.6583  0.3352  0.6265
22554SOL    HW168825   8.717   7.136   6.357 -0.0582  0.5989  0.3505
22554SOL    HW268826   8.752   7.225   6.475  0.6039  1.1498 -0.2472
22555SOL     OW68827   1.526   1.992   1.735  0.0553 -0.2279  0.2654
22555SOL    HW168828   1.438   1.979   1.771 -0.0560  0.1288  0.1253
22555SOL    HW268829   1.519   1.962   1.644 -0.0167  0.1425  0.1486
22556SOL     OW68830   1.965   4.444   8.713  0.6097 -0.1080  0.3307
22556SOL    HW168831   2.056   4.472   8.705 -0.1265  2.7866  0.8189
22556SOL    HW268832   1.961   4.360   8.667  3.0661  0.7110 -1.5823
22557SOL     OW68833   1.388   2.924   3.639  0.1957  0.4503 -0.2706
22557SOL    HW168834   1.357   2.883   3.558 -1.6119  0.3199  0.4574
22557SOL    HW268835   1.450   2.862   3.675 -0.0274 -0.1233 -0.8603
22558SOL     OW68836   4.849   1.621   6.368 -0.1633 -0.0697 -0.2599
22558SOL    HW168837   4.945   1.620   6.361 -0.2147 -0.4398 -1.0129
22558SOL    HW268838   4.830   1.562   6.441  0.1647 -0.4574 -0.4809
22559SOL     OW68839   8.524   6.475   2.278 -0.2212  0.0404 -0.1590
22559SOL    HW168840   8.447   6.524   2.251 -1.2463 -1.2112  0.3943
22559SOL    HW268841   8.500   6.435   2.361  1.2771  0.1690  0.3658
22560SOL     OW68842   2.243   6.280   7.267  0.2108 -0.5081 -0.5725
22560SOL    HW168843   2.225   6.202   7.320  0.8137 -0.5100 -0.3518
22560SOL    HW268844   2.199   6.351   7.314  0.5433 -0.5491 -0.1890
22561SOL     OW68845   2.928   1.655   2.709  0.2506  0.1724  0.3550
22561SOL    HW168846   3.009   1.689   2.748  0.7223 -0.2487 -0.2332
22561SOL    HW268847   2.942   1.561   2.702 -0.2657  0.1054  0.1813
22562SOL     OW68848   7.785   0.854   0.096 -0.1701 -0.2836 -0.5329
22562SOL    HW168849   7.849   0.848   0.026 -1.8934  1.4813 -2.4052
22562SOL    HW268850   7.772   0.948   0.110 -0.3875 -0.5773  1.7283
22563SOL     OW68851   0.275   4.984   2.182 -0.6463 -0.4331 -0.3632
22563SOL    HW168852   0.218   4.955   2.112 -1.4280 -3.1448  1.2327
22563SOL    HW268853   0.235   4.948   2.262  0.7286  1.6426  1.3860
22564SOL     OW68854   1.552   1.718   2.663 -0.4935  0.0707  0.4687
22564SOL    HW168855   1.529   1.689   2.752  1.1286  0.5817  1.0914
22564SOL    HW268856   1.634   1.765   2.674 -0.4034  0.3778 -1.2881
22565SOL     OW68857   5.661   2.063   5.936  0.0560  0.6053 -0.1121
22565SOL    HW168858   5.755   2.055   5.916 -0.1994 -0.8084 -0.8745
22565SOL    HW268859   5.657   2.070   6.031  0.8587 -1.1130  0.0851
22566SOL     OW68860   5.942   1.524   4.898 -0.5187  0.6516 -0.2932
22566SOL    HW168861   5.914   1.439   4.862  3.3870 -0.0138 -2.2136
22566SOL    HW268862   5.942   1.583   4.823  0.3562  1.3413  0.2334
22567SOL     OW68863   2.027   5.067   8.827 -0.2485  0.0956  0.6196
22567SOL    HW168864   2.041   5.010   8.903  0.2366 -0.0393  0.4354
22567SOL    HW268865   2.004   5.006   8.756 -2.0631  0.3332  0.9723
22568SOL     OW68866   8.535   4.524   6.113 -0.6750  0.6713  0.3333
22568SOL    HW168867   8.569   4.446   6.157 -0.6079  1.1939  1.2163
22568SOL    HW268868   8.576   4.598   6.157 -1.8356  1.2686  0.4734
22569SOL     OW68869   3.561   5.612   4.371 -0.4208  0.5590  0.4524
22569SOL    HW168870   3.584   5.700   4.341 -0.8740  1.1864  1.8535
22569SOL    HW268871   3.643   5.577   4.408 -0.2064  0.3292 -0.2301
22570SOL     OW68872   8.794   5.665   8.609  0.4379  0.0288 -0.3902
22570SOL    HW168873   8.795   5.671   8.513  0.7399  0.1798 -0.3782
22570SOL    HW268874   8.876   5.705   8.637  0.4517 -0.2057 -0.0779
22571SOL     OW68875   4.423   0.954   2.600 -0.1394 -0.4259  0.3894
22571SOL    HW168876   4.423   0.929   2.508  0.2880 -2.6463  0.9528
22571SOL    HW268877   4.333   0.982   2.617  0.0599  1.2209 -0.9664
22572SOL     OW68878   7.402   8.467   3.514  0.5298 -0.3913 -0.1627
22572SOL    HW168879   7.356   8.550   3.500  0.3358 -0.1502  1.5829
22572SOL    HW268880   7.382   8.415   3.437 -0.5445  0.6628 -0.6366
22573SOL     OW68881   0.373   2.538   0.359  0.2879  0.3042 -0.5027
22573SOL    HW168882   0.357   2.520   0.452 -0.0255  2.1785 -0.1326
22573SOL    HW268883   0.378   2.452   0.318  0.2124 -0.5713  1.2133
22574SOL     OW68884   1.648   3.806   2.354 -0.2077  0.3147  0.4204
22574SOL    HW168885   1.667   3.734   2.413  0.2560 -0.9560 -1.2045
22574SOL    HW268886   1.684   3.883   2.398  2.2162 -0.9280  0.7918
22575SOL     OW68887   3.312   1.969   0.652  0.1885  0.0031 -0.0615
22575SOL    HW168888   3.236   1.918   0.681  0.4517 -1.4980 -1.8163
22575SOL    HW268889   3.342   2.014   0.731 -1.8349 -0.2483  0.9220
22576SOL     OW68890   1.334   0.888   3.934  0.1294  0.3700 -0.1230
22576SOL    HW168891   1.380   0.900   4.017 -0.2155  1.1246 -0.0355
22576SOL    HW268892   1.404   0.890   3.868  0.3670  0.1094  0.1167
22577SOL     OW68893   2.811   5.379   4.016  0.4018 -0.2797  0.4777
22577SOL    HW168894   2.717   5.365   4.011  0.2297  1.2245 -1.4350
22577SOL    HW268895   2.845   5.298   4.054 -1.6768 -0.6666  1.6611
22578SOL     OW68896   0.825   1.671   2.254 -0.5856 -0.0534 -0.3893
22578SOL    HW168897   0.791   1.601   2.198 -0.3373 -1.7985  1.4760
22578SOL    HW268898   0.919   1.672   2.237 -0.6861  0.2952 -0.9165
22579SOL     OW68899   6.545   1.557   7.840 -0.1931 -0.5635  0.4445
22579SOL    HW168900   6.501   1.568   7.924 -2.1506  0.0386 -0.5765
22579SOL    HW268901   6.488   1.602   7.778  2.5179  1.2616 -0.8757
22580SOL     OW68902   1.048   5.670   8.253  0.2144 -0.3756  0.0386
22580SOL    HW168903   0.968   5.674   8.306  0.9837  0.4555  1.1886
22580SOL    HW268904   1.107   5.613   8.303  0.7574 -0.0191 -0.1834
22581SOL     OW68905   3.570   8.694   8.380 -0.1033 -0.0613 -0.0871
22581SOL    HW168906   3.502   8.734   8.433 -0.3752  0.2505 -0.6683
22581SOL    HW268907   3.581   8.752   8.305  0.9666  0.0164  0.1031
22582SOL     OW68908   0.201   0.623   5.745 -0.1088 -0.3812 -0.5854
22582SOL    HW168909   0.190   0.528   5.741 -2.7062 -0.1016 -2.2414
22582SOL    HW268910   0.221   0.640   5.837  1.0734 -2.5481 -0.3739
22583SOL     OW68911   7.222   5.235   6.580 -0.3663 -0.0230  0.3842
22583SOL    HW168912   7.246   5.185   6.658 -1.8720  0.1091  0.9631
22583SOL    HW268913   7.294   5.218   6.518  2.9472  2.8751  2.9883
22584SOL     OW68914   7.112   7.995   0.651 -0.1074 -0.5238  0.6255
22584SOL    HW168915   7.126   8.081   0.611 -0.7388 -0.6905  0.0401
22584SOL    HW268916   7.200   7.967   0.679  0.3801 -0.4702 -0.7770
22585SOL     OW68917   4.460   4.443   5.847 -0.0723 -0.2390  0.3546
22585SOL    HW168918   4.446   4.530   5.884  0.6571  0.1044 -0.1339
22585SOL    HW268919   4.507   4.460   5.765  1.3335 -1.1598  0.9314
22586SOL     OW68920   2.991   1.381   5.899 -0.1112 -0.0904 -0.0676
22586SOL    HW168921   3.068   1.328   5.879 -0.6998 -1.5372  1.2577
22586SOL    HW268922   2.992   1.451   5.834  1.2025 -1.2128 -1.3163
22587SOL     OW68923   3.280   7.023   3.297 -0.2813 -0.7288  0.3431
22587SOL    HW168924   3.320   7.109   3.292 -0.5226 -0.6857 -2.4276
22587SOL    HW268925   3.186   7.041   3.304 -0.1660 -0.8366  3.1501
22588SOL     OW68926   7.359   7.967   5.087 -0.0958  0.1959  0.1980
22588SOL    HW168927   7.278   7.934   5.048 -1.0018  0.7857  1.4647
22588SOL    HW268928   7.398   7.891   5.130 -0.5967  0.1325  0.5557
22589SOL     OW68929   5.240   6.598   7.226  0.3307  0.0534 -0.3120
22589SOL    HW168930   5.290   6.660   7.174  1.1615 -0.4945 -0.1774
22589SOL    HW268931   5.168   6.571   7.169  0.8466 -0.0281 -0.9352
22590SOL     OW68932   4.321   7.282   7.175 -0.1023 -0.2314  0.5504
22590SOL    HW168933   4.354   7.324   7.254 -1.3056  1.6310  0.1074
22590SOL    HW268934   4.235   7.248   7.200  0.3015 -1.3179  0.5289
22591SOL     OW68935   5.653   0.437   0.068  0.1619 -0.2819  0.3202
22591SOL    HW168936   5.692   0.371   0.011 -0.5166 -0.2496 -0.1851
22591SOL    HW268937   5.584   0.391   0.116  0.1912 -0.1164  0.5243
22592SOL     OW68938   4.103   3.329   7.935 -0.9194  0.4033  0.2768
22592SOL    HW168939   4.081   3.241   7.904  0.5520  0.3775 -0.7902
22592SOL    HW268940   4.168   3.314   8.004  1.1813  0.6924 -1.5648
22593SOL     OW68941   7.373   4.299   6.474  0.2199  0.3892 -0.5944
22593SOL    HW168942   7.384   4.212   6.514  1.4014  1.1677  0.8839
22593SOL    HW268943   7.278   4.309   6.465  0.0913 -1.4991 -1.8625
22594SOL     OW68944   7.935   3.188   2.218 -0.1829 -0.2971  0.4186
22594SOL    HW168945   8.021   3.230   2.213 -0.3248 -0.0042  0.4425
22594SOL    HW268946   7.876   3.257   2.247 -0.3946 -0.5465  0.5890
22595SOL     OW68947   5.836   3.388   4.889 -0.5343 -0.3086 -0.0562
22595SOL    HW168948   5.815   3.344   4.971 -3.6028 -1.9747 -1.5273
22595SOL    HW268949   5.931   3.397   4.889 -0.2379 -2.3494  2.6030
22596SOL     OW68950   5.327   7.191   2.160  0.4625  0.4194  0.1236
22596SOL    HW168951   5.410   7.164   2.199  0.2514 -1.5280 -0.6552
22596SOL    HW268952   5.351   7.226   2.075  0.4624 -0.8747 -0.4335
22597SOL     OW68953   7.093   1.318   1.570 -0.2954 -0.3943  0.2501
22597SOL    HW168954   7.105   1.250   1.636 -2.7069 -2.0406 -0.8753
22597SOL    HW268955   7.000   1.340   1.575 -0.6367 -0.7601 -2.6964
22598SOL     OW68956   5.919   1.204   8.441  0.1847 -0.3995 -0.6264
22598SOL    HW168957   5.983   1.219   8.511  1.1557 -0.2820 -1.5075
22598SOL    HW268958   5.856   1.143   8.479  0.2220  0.2991  0.6184
22599SOL     OW68959   8.341   7.387   2.715 -0.0968  0.4158 -0.3349
22599SOL    HW168960   8.435   7.367   2.707  0.0636  0.5855  0.8906
22599SOL    HW268961   8.336   7.446   2.790 -0.9953  1.8752 -1.4897
22600SOL     OW68962   5.204   5.987   6.603 -0.1101  0.0078  0.3498
22600SOL    HW168963   5.152   5.924   6.652 -0.9721  0.1136 -0.3948
22600SOL    HW268964   5.254   5.934   6.541 -0.2470 -0.0010  0.2475
22601SOL     OW68965   7.188   0.691   8.623 -0.6372 -0.5119 -0.3016
22601SOL    HW168966   7.237   0.614   8.595 -1.4025 -0.2507 -2.5204
22601SOL    HW268967   7.239   0.726   8.696 -0.2154 -3.0253  0.7455
22602SOL     OW68968   8.071   1.013   2.290  0.0791  0.0583  0.5962
22602SOL    HW168969   8.068   0.945   2.357 -0.7535  0.6157  1.1381
22602SOL    HW268970   7.986   1.008   2.247  0.7297 -0.5216 -0.6631
22603SOL     OW68971   5.732   5.356   0.160 -0.7631  0.4627  0.0020
22603SOL    HW168972   5.766   5.400   0.238 -1.6933  0.8871  0.1747
22603SOL    HW268973   5.727   5.263   0.186  0.1531  0.4024  0.0039
22604SOL     OW68974   0.178   0.168   0.135 -0.3341 -0.5912 -0.1357
22604SOL    HW168975   0.172   0.196   0.227 -0.9573  1.6013 -0.7719
22604SOL    HW268976   0.272   0.166   0.116 -0.2356  1.1614 -0.0166
22605SOL     OW68977   1.419   7.838   7.612 -0.2618  0.0881  0.0042
22605SOL    HW168978   1.478   7.898   7.658  0.7330 -1.5511  0.9736
22605SOL    HW268979   1.334   7.851   7.654  0.7184 -1.7477  2.8958
22606SOL     OW68980   5.242   4.481   6.181 -0.3196 -0.3360  0.2227
22606SOL    HW168981   5.293   4.501   6.260 -0.6261 -0.3089  0.4180
22606SOL    HW268982   5.246   4.562   6.129 -2.0529  0.4972  1.2843
22607SOL     OW68983   5.958   3.365   0.014 -0.5775 -0.1940 -0.3142
22607SOL    HW168984   6.029   3.382  -0.048 -0.4103 -1.2498 -0.4366
22607SOL    HW268985   5.878   3.370  -0.037 -0.5990  0.9022 -0.1965
22608SOL     OW68986   4.411   7.967   0.576  0.5944  0.8005 -0.0309
22608SOL    HW168987   4.439   8.018   0.652 -1.3741 -0.6843  1.8584
22608SOL    HW268988   4.327   8.005   0.552  0.2913  0.0462 -0.1933
22609SOL     OW68989   6.779   3.406   3.309  0.2779  0.0151  0.3306
22609SOL    HW168990   6.828   3.355   3.245  0.4604  0.3732  0.1827
22609SOL    HW268991   6.696   3.427   3.264  0.9996  1.5390 -0.3693
22610SOL     OW68992   8.638   0.188   2.021  0.2845 -0.3997  0.2981
22610SOL    HW168993   8.682   0.187   2.106 -0.1806  1.2609  0.5806
22610SOL    HW268994   8.709   0.201   1.958  0.4776 -0.2902  0.5349
22611SOL     OW68995   8.028   8.386   5.701 -0.1451 -0.4494  0.2476
22611SOL    HW168996   7.970   8.450   5.659 -1.1464 -1.8726 -0.6103
22611SOL    HW268997   8.081   8.439   5.762  0.9284  1.6169 -2.2872
22612SOL     OW68998   7.145   0.672   4.741  0.3944  0.2418  0.5033
22612SOL    HW168999   7.071   0.729   4.720 -1.0417 -1.6714  0.0213
22612SOL    HW269000   7.141   0.661   4.836 -2.0715 -2.3878  0.2314
22613SOL     OW69001   8.758   5.994   2.392 -0.3186  0.5693 -0.2563
22613SOL    HW169002   8.815   5.937   2.339 -0.5529  0.2393 -0.1597
22613SOL    HW269003   8.735   6.066   2.333  0.0085  0.5834 -0.3709
22614SOL     OW69004   8.733   4.152   7.313  0.1268  0.0166 -0.0789
22614SOL    HW169005   8.739   4.112   7.226  1.2626 -0.7610  0.3278
22614SOL    HW269006   8.778   4.236   7.304  2.7952 -1.2438  0.3662
22615SOL     OW69007   0.421   6.019   4.222  0.0146 -0.3449  0.1472
22615SOL    HW169008   0.417   6.079   4.148  0.8247 -0.1689  0.2290
22615SOL    HW269009   0.508   5.978   4.215 -0.2213 -0.9271  0.5355
22616SOL     OW69010   3.061   8.607   2.998 -0.0485 -0.3173  0.2616
22616SOL    HW169011   3.060   8.571   2.909  0.8708 -1.3737  0.6441
22616SOL    HW269012   2.973   8.640   3.012 -0.7139 -1.7065 -0.4441
22617SOL     OW69013   6.628   3.327   4.074 -0.1639 -0.4102 -0.2334
22617SOL    HW169014   6.607   3.268   4.002 -2.6502  0.8144 -0.5968
22617SOL    HW269015   6.705   3.375   4.044 -1.5048  0.5308 -2.4312
22618SOL     OW69016   1.832   5.496   4.467  0.5605  0.3119 -0.4847
22618SOL    HW169017   1.763   5.454   4.519 -0.3114  1.0178 -1.0480
22618SOL    HW269018   1.844   5.582   4.509 -1.2270  1.5238 -2.2752
22619SOL     OW69019   0.069   8.703   4.467  0.5123  0.0742  0.1111
22619SOL    HW169020  -0.001   8.660   4.517  0.2347 -1.4955 -1.5160
22619SOL    HW269021   0.145   8.697   4.524 -0.5738  1.6420  1.8418
22620SOL     OW69022   4.771   3.995   6.877  0.0258  0.3007 -0.2946
22620SOL    HW169023   4.775   4.079   6.923  0.0299  0.0661  0.1432
22620SOL    HW269024   4.770   4.018   6.784 -1.3223  0.8476 -0.1716
22621SOL     OW69025   2.769   7.615   6.995  0.0217 -0.5415  0.2759
22621SOL    HW169026   2.755   7.527   7.032 -0.3007 -1.0780 -1.0508
22621SOL    HW269027   2.725   7.674   7.056 -0.2046 -1.3547  0.9182
22622SOL     OW69028   0.160   2.739   0.340  0.4420 -0.4139 -0.3467
22622SOL    HW169029   0.192   2.829   0.348  2.0297 -1.0677  1.6140
22622SOL    HW269030   0.239   2.685   0.342 -0.4666 -1.8867 -1.6451
22623SOL     OW69031   3.517   5.096   3.299 -0.4281 -0.0864  0.3107
22623SOL    HW169032   3.424   5.088   3.320 -0.6170  0.0881 -0.4408
22623SOL    HW269033   3.536   5.189   3.309 -0.2339 -0.1791  0.8477
22624SOL     OW69034   7.008   1.041   0.672 -0.0449 -0.4097  0.1808
22624SOL    HW169035   7.053   1.025   0.589 -1.8079  1.4050 -1.2453
22624SOL    HW269036   7.063   1.000   0.738  1.9537 -1.0660 -1.7795
22625SOL     OW69037   1.088   6.555   7.765 -0.2033  0.2127 -0.1447
22625SOL    HW169038   1.081   6.463   7.738  1.8011 -0.0953  0.2429
22625SOL    HW269039   1.138   6.553   7.846 -0.8037  1.6121  0.2963
22626SOL     OW69040   5.735   7.807   0.758  0.2725 -0.3750 -0.7361
22626SOL    HW169041   5.827   7.784   0.747 -0.0694 -1.1343 -2.3335
22626SOL    HW269042   5.690   7.758   0.689 -1.1315  1.2172 -1.0073
22627SOL     OW69043   5.314   4.837   4.445 -0.6893 -0.1053  0.3715
22627SOL    HW169044   5.383   4.772   4.455 -0.3278  0.4518  1.7887
22627SOL    HW269045   5.233   4.787   4.447 -0.4341 -0.5010  1.9249
22628SOL     OW69046   2.347   2.973   8.344  0.2019  0.2622  0.3890
22628SOL    HW169047   2.259   2.937   8.336 -0.8650  2.6957  0.3422
22628SOL    HW269048   2.399   2.925   8.280 -1.3030 -0.5660 -0.2482
22629SOL     OW69049   6.678   7.026   1.911  0.1191 -0.1112  0.3560
22629SOL    HW169050   6.633   7.066   1.986 -1.8143  1.0880 -1.3373
22629SOL    HW269051   6.746   7.090   1.887 -1.9588  1.5845 -1.3829
22630SOL     OW69052   7.172   4.018   1.122  0.5134  0.5917 -0.0222
22630SOL    HW169053   7.106   4.064   1.175  0.1067  0.3798 -0.3435
22630SOL    HW269054   7.175   4.067   1.040 -0.1050 -0.1069 -0.4621
22631SOL     OW69055   1.640   6.254   3.031  0.7708  0.2732 -0.2105
22631SOL    HW169056   1.621   6.208   3.113 -0.2151  2.2391  0.7355
22631SOL    HW269057   1.582   6.331   3.033  1.2496  0.7537 -2.4231
22632SOL     OW69058   3.056   6.001   3.155  0.2559 -0.3094 -0.6095
22632SOL    HW169059   3.016   6.083   3.183 -3.1909 -1.6145 -1.2301
22632SOL    HW269060   3.093   6.021   3.069  0.9171  0.9461 -0.0562
22633SOL     OW69061   4.143   2.778   6.680  0.0522 -0.0460  0.1036
22633SOL    HW169062   4.080   2.849   6.672 -0.4405 -0.4059  0.6357
22633SOL    HW269063   4.180   2.788   6.767 -0.8312 -1.0692  0.6229
22634SOL     OW69064   2.634   5.581   0.115  0.3915  0.2611  0.0529
22634SOL    HW169065   2.607   5.644   0.048 -0.9857 -1.1461 -0.7547
22634SOL    HW269066   2.560   5.576   0.175  0.5329 -0.5348  0.1671
22635SOL     OW69067   1.922   0.887   1.632 -0.1134  0.2894  0.1136
22635SOL    HW169068   1.899   0.856   1.545  0.4298  0.2322 -0.0170
22635SOL    HW269069   1.869   0.835   1.692  0.7674 -0.9020 -0.0943
22636SOL     OW69070   4.510   0.474   7.690 -0.5440 -0.3012  0.3001
22636SOL    HW169071   4.510   0.466   7.785  0.8572 -2.7173  0.1864
22636SOL    HW269072   4.457   0.401   7.659  1.0455 -1.0594 -0.7803
22637SOL     OW69073   4.242   2.868   6.909 -0.2007 -0.1730  0.2220
22637SOL    HW169074   4.309   2.815   6.952 -1.0575  0.4532  2.4634
22637SOL    HW269075   4.291   2.942   6.871  0.6893 -1.2203 -0.7394
22638SOL     OW69076   0.482   2.330   5.559  0.3593  0.0972 -0.2736
22638SOL    HW169077   0.504   2.352   5.649 -1.1064  0.2991  0.0550
22638SOL    HW269078   0.553   2.272   5.530 -0.4229 -2.0996  1.8541
22639SOL     OW69079   7.151   8.524   3.923  0.3172 -0.3412 -0.0229
22639SOL    HW169080   7.134   8.464   3.850 -1.2960 -0.4451  0.3975
22639SOL    HW269081   7.133   8.611   3.887 -0.1013 -0.3584  0.1454
22640SOL     OW69082   6.404   1.662   5.837 -0.2037 -0.0084  0.0220
22640SOL    HW169083   6.324   1.634   5.792  0.2026 -2.0163  0.4771
22640SOL    HW269084   6.414   1.754   5.812 -1.5209 -0.2824 -1.6925
22641SOL     OW69085   4.215   0.077   6.155  0.2077  1.0107 -0.3105
22641SOL    HW169086   4.240  -0.002   6.108  0.2764  1.1209 -0.4578
22641SOL    HW269087   4.165   0.045   6.230 -1.1672  0.9017 -1.2401
22642SOL     OW69088   4.423   2.958   0.197 -0.1472  0.6399  0.0465
22642SOL    HW169089   4.381   2.940   0.112  1.1477 -0.8806 -0.3205
22642SOL    HW269090   4.517   2.951   0.179  0.1322 -1.3254  1.9019
22643SOL     OW69091   7.977   0.161   5.430 -0.6916 -0.6812  0.3624
22643SOL    HW169092   7.901   0.131   5.381 -0.7701  0.5407 -0.2775
22643SOL    HW269093   7.981   0.102   5.506 -2.2746 -0.7528  0.4158
22644SOL     OW69094   0.944   8.216   2.435  0.2583 -0.9783 -0.4294
22644SOL    HW169095   0.974   8.264   2.512  0.8044 -0.0672 -1.1891
22644SOL    HW269096   0.852   8.240   2.425  0.0467 -1.4925  0.2168
22645SOL     OW69097   7.757   7.568   5.709 -0.5009 -0.8447 -0.3763
22645SOL    HW169098   7.769   7.645   5.654  1.0597 -0.1729  0.8040
22645SOL    HW269099   7.664   7.547   5.703 -0.6505  0.1772 -1.9473
22646SOL     OW69100   6.651   5.471   0.366 -0.4960 -0.1393 -0.4385
22646SOL    HW169101   6.610   5.387   0.345  1.1033 -1.4556  1.3569
22646SOL    HW269102   6.729   5.448   0.415  0.8243  2.3841 -1.1835
22647SOL     OW69103   2.097   3.089   1.860  0.0766  0.5450 -0.0340
22647SOL    HW169104   2.112   3.037   1.781  1.2836  0.4254  0.2474
22647SOL    HW269105   2.035   3.156   1.833 -2.0339 -1.3885 -0.2466
22648SOL     OW69106   3.684   5.955   4.620 -0.0427  0.0241 -0.1986
22648SOL    HW169107   3.631   6.034   4.610  1.6915  1.2810  0.0219
22648SOL    HW269108   3.644   5.909   4.694  0.4363  2.0857  1.4613
22649SOL     OW69109   2.332   1.611   2.131  0.9439  0.3983  0.4271
22649SOL    HW169110   2.364   1.548   2.066  0.8031  0.3966  0.3608
22649SOL    HW269111   2.286   1.678   2.080 -0.4204 -0.3472  0.6313
22650SOL     OW69112   3.972   4.444   2.798 -0.4808 -0.5835  0.2622
22650SOL    HW169113   3.944   4.366   2.750 -4.4424  0.6575  0.2243
22650SOL    HW269114   3.982   4.511   2.730  3.2150 -0.9239  0.2493
22651SOL     OW69115   8.629   7.640   5.205 -0.2050 -0.0100 -0.2650
22651SOL    HW169116   8.570   7.715   5.204  0.0107  0.1674 -1.6121
22651SOL    HW269117   8.589   7.579   5.267 -0.5433  1.0752  0.6109
22652SOL     OW69118   4.967   3.684   8.808 -0.1143 -0.8067  0.0215
22652SOL    HW169119   5.019   3.623   8.861  0.3327 -0.4018  0.0536
22652SOL    HW269120   5.002   3.675   8.719  2.1264  1.6323  0.5236
22653SOL     OW69121   0.186   7.045   3.971 -0.0531 -0.6737 -0.1085
22653SOL    HW169122   0.102   7.079   3.999 -0.4391 -1.4951 -0.2262
22653SOL    HW269123   0.229   7.017   4.051  0.5646  0.6998  0.0673
22654SOL     OW69124   0.254   5.465   7.448 -0.1111 -0.1262 -0.6090
22654SOL    HW169125   0.202   5.518   7.509  0.8685 -1.3852  1.4416
22654SOL    HW269126   0.344   5.494   7.463  0.1338 -0.3859 -1.5583
22655SOL     OW69127   1.602   2.290   8.587 -0.0927  0.4249 -0.2787
22655SOL    HW169128   1.644   2.208   8.615 -1.4371  0.0456  0.7502
22655SOL    HW269129   1.564   2.269   8.502 -1.6399 -0.5232  0.5864
22656SOL     OW69130   2.656   6.444   7.676 -0.1120 -0.4879 -0.3278
22656SOL    HW169131   2.612   6.371   7.720 -0.4106 -0.2351 -0.2037
22656SOL    HW269132   2.747   6.439   7.706 -0.5204  0.2825  1.1316
22657SOL     OW69133   7.602   5.510   6.413  0.4012 -0.2408 -0.0655
22657SOL    HW169134   7.548   5.530   6.489  1.7838  3.8468  0.0764
22657SOL    HW269135   7.545   5.528   6.338  0.1603 -0.6181  0.0245
22658SOL     OW69136   1.609   7.477   3.994  0.5604  0.3499 -0.2710
22658SOL    HW169137   1.685   7.530   4.017  0.9222 -0.0152 -0.6203
22658SOL    HW269138   1.637   7.387   4.008 -0.5086  0.2535  1.7730
22659SOL     OW69139   0.724   5.535   7.263 -0.0295 -0.4944  0.4079
22659SOL    HW169140   0.664   5.605   7.237  0.7242 -0.7684 -2.3841
22659SOL    HW269141   0.809   5.562   7.228  1.0760 -1.1005  2.4835
22660SOL     OW69142   5.158   6.426   7.455  0.2326 -0.0848 -0.2797
22660SOL    HW169143   5.185   6.359   7.392  0.1620  0.6739 -1.1384
22660SOL    HW269144   5.116   6.494   7.402  1.9600  1.5282  0.3258
22661SOL     OW69145   0.321   8.066   4.928  0.3767  0.1875  0.2601
22661SOL    HW169146   0.399   8.049   4.981  1.4439  1.8476 -0.6854
22661SOL    HW269147   0.255   8.094   4.992  1.0990  0.4732  0.9058
22662SOL     OW69148   2.805   2.619   4.620  0.3916  0.8619 -0.0865
22662SOL    HW169149   2.847   2.566   4.688  0.5576  0.4171 -0.5278
22662SOL    HW269150   2.843   2.587   4.538 -0.9907  0.2642 -0.5283
22663SOL     OW69151   0.171   0.335   4.575  0.4841  0.0760 -0.3416
22663SOL    HW169152   0.176   0.388   4.496  2.0365 -0.8036 -0.8642
22663SOL    HW269153   0.089   0.362   4.617  0.0477  1.1352 -1.8165
22664SOL     OW69154   3.320   1.575   8.564 -0.0473 -0.3932  0.2901
22664SOL    HW169155   3.258   1.642   8.594  0.5947 -0.0499  0.8743
22664SOL    HW269156   3.393   1.625   8.527 -0.5631 -0.7985 -1.3581
22665SOL     OW69157   0.420   2.029   2.369  0.1465  0.5892 -0.0848
22665SOL    HW169158   0.326   2.013   2.363  0.2286 -0.3856  1.0682
22665SOL    HW269159   0.461   1.950   2.333  0.5455  0.9317 -0.4117
22666SOL     OW69160   1.662   2.401   8.821 -0.5220 -0.2971 -0.2220
22666SOL    HW169161   1.721   2.333   8.854 -0.0641  0.7557  1.2199
22666SOL    HW269162   1.618   2.360   8.746 -0.1409 -2.1181  0.4919
22667SOL     OW69163   4.694   2.983   7.555  0.1924 -0.2546 -0.2304
22667SOL    HW169164   4.678   3.053   7.492  0.3988 -0.8680 -0.9772
22667SOL    HW269165   4.724   2.909   7.502  1.2498 -0.5040  0.6794
22668SOL     OW69166   4.700   7.845   6.498  0.1494 -0.2001 -0.2737
22668SOL    HW169167   4.751   7.924   6.512  1.3927 -1.1424  0.7933
22668SOL    HW269168   4.610   7.870   6.520  0.8286  0.4412  2.0938
22669SOL     OW69169   8.499   0.613   0.771 -0.0015  0.4936  0.2329
22669SOL    HW169170   8.541   0.645   0.691  1.9970 -1.1621  0.5331
22669SOL    HW269171   8.427   0.674   0.786 -0.5129  0.8375 -2.8566
22670SOL     OW69172   4.845   8.490   0.408 -0.5333  0.5453  0.0849
22670SOL    HW169173   4.873   8.466   0.497 -1.7871 -2.2389 -0.1659
22670SOL    HW269174   4.901   8.439   0.351 -0.0155  2.0118 -0.7726
22671SOL     OW69175   4.604   1.949   5.900  0.2473 -0.3520  0.1743
22671SOL    HW169176   4.681   1.900   5.928  1.6544  1.1310 -0.9966
22671SOL    HW269177   4.588   1.920   5.810 -0.4553 -0.5039  0.3410
22672SOL     OW69178   5.882   6.385   2.847  0.1558 -0.0780 -0.1199
22672SOL    HW169179   5.841   6.298   2.843  0.4366 -0.3108  1.4295
22672SOL    HW269180   5.955   6.380   2.785 -1.3289 -0.0837 -1.9423
22673SOL     OW69181   6.646   3.361   2.196 -0.2860 -0.2298  0.4639
22673SOL    HW169182   6.619   3.452   2.210 -0.3530 -0.1068 -0.4288
22673SOL    HW269183   6.630   3.318   2.280 -0.2452  0.5829  0.8979
22674SOL     OW69184   4.328   7.936   3.453 -0.6741 -0.0610  0.0484
22674SOL    HW169185   4.365   8.023   3.463  0.5426 -0.4525 -0.9059
22674SOL    HW269186   4.252   7.936   3.512 -0.6356  1.5893  0.1446
22675SOL     OW69187   6.553   3.730   1.163 -0.0032  0.3030 -0.5059
22675SOL    HW169188   6.644   3.732   1.133 -0.4959 -0.8097 -2.2481
22675SOL    HW269189   6.507   3.676   1.098 -1.0565 -3.1563  2.6820
22676SOL     OW69190   3.848   4.352   5.607 -0.1876  0.2829  0.2909
22676SOL    HW169191   3.779   4.287   5.616 -1.2100  1.0910 -1.3728
22676SOL    HW269192   3.929   4.301   5.610 -0.8549 -0.7806  1.3676
22677SOL     OW69193   7.872   7.716   0.690  0.2614 -0.4177 -0.0309
22677SOL    HW169194   7.960   7.680   0.680 -0.2452 -1.5241 -0.7355
22677SOL    HW269195   7.837   7.674   0.768 -0.2443 -1.2997 -0.7168
22678SOL     OW69196   4.666   1.085   6.001 -0.4754  0.3039  0.3596
22678SOL    HW169197   4.709   1.097   6.086  0.4095  0.4814 -0.1013
22678SOL    HW269198   4.573   1.073   6.023 -0.0942 -1.0383  1.4578
22679SOL     OW69199   7.432   3.503   2.564  0.0359  0.6098  0.0476
22679SOL    HW169200   7.382   3.422   2.572  0.1583  0.6256  1.0712
22679SOL    HW269201   7.487   3.505   2.642  2.8001 -0.1806 -1.7264
22680SOL     OW69202   7.994   2.026   2.351  0.3916 -0.0551  0.2433
22680SOL    HW169203   8.036   2.029   2.265 -0.9271  1.6241 -0.4025
22680SOL    HW269204   7.914   1.976   2.337  0.5989 -0.5155  0.6975
22681SOL     OW69205   2.730   0.820   2.263 -0.0259  0.1941  0.0938
22681SOL    HW169206   2.748   0.888   2.327  1.6813 -0.3558  0.2499
22681SOL    HW269207   2.766   0.740   2.302 -0.5033 -0.4841 -0.8133
22682SOL     OW69208   5.052   8.267   5.138  0.2889  0.5905  0.1336
22682SOL    HW169209   5.089   8.351   5.166  0.3292  0.7682 -0.4502
22682SOL    HW269210   5.102   8.243   5.060  0.0824  0.1605  0.1298
22683SOL     OW69211   4.706   4.138   7.921 -0.2040  0.3092  0.2433
22683SOL    HW169212   4.753   4.088   7.855  2.7285  1.8065  1.0471
22683SOL    HW269213   4.764   4.210   7.944 -2.2764  1.4436  2.4655
22684SOL     OW69214   1.149   0.699   1.084  0.4078 -0.1191  0.0858
22684SOL    HW169215   1.241   0.671   1.080  0.1144 -0.9950 -1.0821
22684SOL    HW269216   1.152   0.792   1.060  0.9707 -0.2130 -0.2572
22685SOL     OW69217   5.612   0.336   8.588  0.7408  0.5483  0.3168
22685SOL    HW169218   5.530   0.297   8.617  0.0980 -1.8494 -3.8822
22685SOL    HW269219   5.680   0.291   8.638 -0.3080 -2.4538 -0.7632
22686SOL     OW69220   8.264   5.984   2.972 -0.0618 -0.6652  0.2253
22686SOL    HW169221   8.310   5.913   2.928 -0.2310 -0.3582 -0.4506
22686SOL    HW269222   8.186   5.943   3.008  1.4034 -1.5437  2.7040
22687SOL     OW69223   3.083   8.766   2.623 -0.3570 -0.6521  0.0415
22687SOL    HW169224   3.128   8.837   2.667  1.4056 -1.9386  0.4127
22687SOL    HW269225   3.005   8.807   2.584  1.2982  1.7659 -0.9613
22688SOL     OW69226   4.652   5.133   5.045  0.2031 -0.0396 -0.1486
22688SOL    HW169227   4.705   5.182   5.108 -1.8896 -0.2514  1.9001
22688SOL    HW269228   4.633   5.050   5.088 -0.9059 -0.4029 -1.2660
22689SOL     OW69229   3.479   6.143   8.188  0.1658 -0.1610 -0.0449
22689SOL    HW169230   3.400   6.150   8.135 -0.9085 -0.5619  1.4320
22689SOL    HW269231   3.532   6.077   8.143 -0.4107 -0.0303 -0.9499
22690SOL     OW69232   3.501   0.890   8.730 -0.4751 -0.0789  0.5349
22690SOL    HW169233   3.557   0.817   8.705 -0.3771  0.4231 -0.8059
22690SOL    HW269234   3.518   0.903   8.823  1.9809  0.3225  0.1065
22691SOL     OW69235   7.003   8.538   5.841  0.1375  0.1292 -0.0893
22691SOL    HW169236   6.967   8.479   5.774  0.2741 -0.8582  0.6941
22691SOL    HW269237   7.088   8.564   5.807 -0.3904  0.7961 -0.9655
22692SOL     OW69238   8.343   3.085   2.809 -0.5054 -0.1115  0.1260
22692SOL    HW169239   8.266   3.082   2.866 -2.0036  2.9534 -1.4839
22692SOL    HW269240   8.316   3.036   2.731 -0.7597  0.7665 -0.3445
22693SOL     OW69241   8.075   8.007   2.327  0.0054  0.1092 -0.2351
22693SOL    HW169242   8.090   7.969   2.413  1.9131 -1.5753 -1.2213
22693SOL    HW269243   8.121   8.092   2.329  0.8666 -0.3551  0.1176
22694SOL     OW69244   7.853   8.610   5.455 -0.0121  0.2995  0.3025
22694SOL    HW169245   7.761   8.637   5.460 -0.9882 -2.9802  3.9319
22694SOL    HW269246   7.852   8.528   5.406  1.0270  0.1906  0.4332
22695SOL     OW69247   8.440   0.034   0.387 -0.3114 -0.0290  0.3478
22695SOL    HW169248   8.524   0.035   0.433 -0.7807  0.8885  1.2253
22695SOL    HW269249   8.462   0.007   0.298  1.0442  1.0808  0.3143
22696SOL     OW69250   0.925   7.848   4.574 -0.1332  0.2069  0.5418
22696SOL    HW169251   1.000   7.790   4.586 -0.8162 -0.9093 -0.3569
22696SOL    HW269252   0.853   7.790   4.549 -0.5508  1.5214 -1.5647
22697SOL     OW69253   2.321   7.273   8.790  0.1733  0.4898  0.1911
22697SOL    HW169254   2.308   7.179   8.781  0.9087  0.3880  0.1420
22697SOL    HW269255   2.294   7.292   8.880 -3.4000  0.8535 -0.8135
22698SOL     OW69256   1.399   1.937   6.937 -0.3633 -0.2795  0.0674
22698SOL    HW169257   1.488   1.970   6.945 -0.4459  0.1919 -0.8290
22698SOL    HW269258   1.344   2.015   6.934 -0.4384 -0.2918 -3.6671
22699SOL     OW69259   0.804   7.013   2.105  0.3967 -0.3875 -0.1487
22699SOL    HW169260   0.876   6.957   2.076  0.5839 -0.5081  0.5368
22699SOL    HW269261   0.791   6.991   2.197 -0.4770 -0.3195 -0.2421
22700SOL     OW69262   1.714   7.683   5.617  0.4485 -0.8537 -0.0213
22700SOL    HW169263   1.734   7.731   5.536 -0.6934 -1.5733 -0.7479
22700SOL    HW269264   1.732   7.592   5.595  2.6668 -0.8293  1.3742
22701SOL     OW69265   8.394   7.165   6.698 -0.6342 -0.1892  0.4701
22701SOL    HW169266   8.325   7.216   6.740 -1.9899 -0.8983 -0.7852
22701SOL    HW269267   8.421   7.218   6.623 -1.0963 -0.6831 -0.0598
22702SOL     OW69268   1.991   2.663   2.325  0.3369 -0.0582 -0.0619
22702SOL    HW169269   1.919   2.724   2.310  2.2827  2.1533 -0.9630
22702SOL    HW269270   2.026   2.687   2.410  2.3176  1.5047 -1.2315
22703SOL     OW69271   7.832   5.258   2.099 -0.6004  0.1584  0.1144
22703SOL    HW169272   7.861   5.342   2.136 -3.0526  0.5489  1.2796
22703SOL    HW269273   7.818   5.277   2.006 -2.7375  1.5811  0.6547
22704SOL     OW69274   4.500   4.543   7.205 -0.6321  0.1606  1.0852
22704SOL    HW169275   4.522   4.476   7.141 -2.1013  0.4109  0.2810
22704SOL    HW269276   4.455   4.610   7.155 -2.0432  0.2463  2.4005
22705SOL     OW69277   4.379   1.527   2.615  0.9906 -0.3450  0.2843
22705SOL    HW169278   4.335   1.470   2.677  0.4390 -0.5282 -0.2684
22705SOL    HW269279   4.416   1.597   2.669 -0.7303  0.2983  0.6888
22706SOL     OW69280   0.695   5.250   0.869 -0.6210 -0.0362 -0.1103
22706SOL    HW169281   0.721   5.261   0.778 -1.8465 -0.3434 -0.5128
22706SOL    HW269282   0.746   5.316   0.917  0.7711 -0.5122 -0.8568
22707SOL     OW69283   5.661   5.562   2.051  0.1832 -0.0896  0.6415
22707SOL    HW169284   5.739   5.521   2.088 -0.1794 -1.2705  0.1332
22707SOL    HW269285   5.695   5.625   1.988  0.9722  3.7980  4.4510
22708SOL     OW69286   0.120   1.807   4.109 -0.0800  0.0545  0.1416
22708SOL    HW169287   0.195   1.799   4.168 -2.0415 -1.1226  2.6887
22708SOL    HW269288   0.047   1.831   4.166 -2.2011 -1.4976 -1.7195
22709SOL     OW69289   3.177   1.022   0.110  0.1037  0.2721 -0.3642
22709SOL    HW169290   3.223   0.997   0.190  0.5456 -0.9365 -0.9826
22709SOL    HW269291   3.135   0.942   0.080 -1.5867  1.1139 -0.3821
22710SOL     OW69292   3.679   5.289   7.351  0.1717  0.1876 -0.4108
22710SOL    HW169293   3.699   5.250   7.436  0.7099 -0.1171 -0.6763
22710SOL    HW269294   3.613   5.356   7.371  0.7184  0.5257  0.3322
22711SOL     OW69295   4.346   3.683   5.747 -0.4963 -0.1357 -0.3053
22711SOL    HW169296   4.396   3.646   5.820 -0.1514  0.1897 -0.3752
22711SOL    HW269297   4.258   3.647   5.758 -0.4146 -0.1921  0.1934
22712SOL     OW69298   0.834   2.825   4.738  0.3621 -0.1700  0.2026
22712SOL    HW169299   0.796   2.756   4.792  0.8469 -0.0204  0.7436
22712SOL    HW269300   0.771   2.836   4.666  0.0921 -0.9071  0.3098
22713SOL     OW69301   5.194   0.249   2.013  0.3638  0.3743 -0.6749
22713SOL    HW169302   5.120   0.196   1.986  0.7147 -0.6654  0.3321
22713SOL    HW269303   5.213   0.304   1.937 -1.0792  0.2748 -1.1378
22714SOL     OW69304   2.288   3.097   4.601  0.4103  0.7840  0.3688
22714SOL    HW169305   2.305   3.154   4.677  2.6121 -0.1086  0.6334
22714SOL    HW269306   2.240   3.023   4.637  2.1274 -0.0234  1.1387
22715SOL     OW69307   4.217   4.636   0.566  0.1517  0.1445  0.0124
22715SOL    HW169308   4.307   4.620   0.538 -0.2693 -2.8064  0.0767
22715SOL    HW269309   4.223   4.649   0.660  0.4438 -1.0606  0.1761
22716SOL     OW69310   1.462   7.433   3.557  0.4712  0.0134 -0.3848
22716SOL    HW169311   1.374   7.472   3.560  0.5596  0.2206 -0.4325
22716SOL    HW269312   1.520   7.502   3.591  0.5747 -0.2465 -0.0359
22717SOL     OW69313   7.146   1.795   4.410 -0.2369 -0.5829  0.6073
22717SOL    HW169314   7.086   1.799   4.336 -0.1278 -0.8374  0.5046
22717SOL    HW269315   7.202   1.873   4.400 -0.3153 -0.5410  0.5022
22718SOL     OW69316   7.034   0.075   8.442  0.2519  0.1640 -0.0011
22718SOL    HW169317   7.032   0.089   8.347  0.2448  0.0528 -0.0165
22718SOL    HW269318   7.094   0.001   8.455  3.0063  2.2562  0.3004
22719SOL     OW69319   3.333   0.380   1.917 -0.4105 -0.2321 -0.1410
22719SOL    HW169320   3.286   0.305   1.954 -0.1267 -1.3202 -1.8853
22719SOL    HW269321   3.293   0.393   1.831  0.7567  0.4800 -0.5988
22720NA      NA69322   7.334   2.695   4.647 -0.3296  0.1158  0.3452
22721NA      NA69323   6.471   8.129   6.142 -0.1100 -0.3944 -0.4045
22722NA      NA69324   8.137   3.935   5.838 -0.1395  0.2555 -0.9724
22723NA      NA69325   0.905   1.812   7.815 -0.1180  0.1500  0.0597
22724NA      NA69326   2.689   6.830   2.687  0.0485  0.3173  0.6121
22725NA      NA69327   6.625   5.526   1.074  0.5483 -0.3182  0.3990
22726NA      NA69328   2.042   6.179   4.318 -0.5009  0.0422  0.1576
22727NA      NA69329   6.403   8.011   7.465  0.2417 -0.2383  0.0188
22728NA      NA69330   8.390   6.482   6.065 -0.0374  0.0215  0.2468
22729NA      NA69331   7.479   3.194   1.365  0.7459 -0.2888 -0.5450
22730NA      NA69332   0.765   7.840   8.187  0.3448  0.9438 -0.1396
22731NA      NA69333   7.936   5.916   2.523 -0.2153 -0.3033  0.0877
22732NA      NA69334   2.715   0.274   8.824 -0.6214 -0.4212 -0.1086
22733NA      NA69335   1.343   1.853   0.168  0.1206  0.6416 -0.5798
22734NA      NA69336   6.517   8.737   2.385 -0.3726 -0.2971  0.0363
22735NA      NA69337   4.176   7.516   3.472  0.3449 -0.1953 -0.5287
22736NA      NA69338   4.984   6.569   0.628  0.2669  0.4122  0.2550
22737NA      NA69339   5.259   1.177   7.688 -0.4711 -0.2427 -0.1366
22738NA      NA69340   4.260   1.172   6.733  0.2232  0.2885 -0.3425
22739NA      NA69341   5.653   7.872   0.956 -0.2863  0.0614 -0.0009
22740NA      NA69342   8.775   3.970   6.615 -0.4225 -0.0969 -0.0312
22741NA      NA69343   7.794   7.125   1.361 -0.0335 -0.0629 -0.0416
22742NA      NA69344   0.665   6.714   7.525  0.4888 -0.0594  0.5604
22743NA      NA69345   8.454   8.005   4.565 -0.1595  0.0203  0.4568
22744NA      NA69346   0.062   8.485   2.887  0.2541 -0.2105  0.1249
22745NA      NA69347   7.914   0.872   4.366  0.1916  0.1488 -0.0417
22746NA      NA69348   6.463   4.868   7.752 -0.0747 -0.3549  0.1832
22747NA      NA69349   7.515   7.833   0.320  0.3293 -0.1349 -0.0959
22748NA      NA69350   6.646   3.327   1.977 -0.2389 -0.1735  0.0637
22749NA      NA69351   1.086   6.648   0.693  0.5539 -0.5888  0.1959
22750NA      NA69352   1.134   8.547   0.980  0.0269 -0.1213  0.0339
22751NA      NA69353   0.778   0.903   6.797 -0.3492  0.3239 -0.5262
22752NA      NA69354   4.133   4.188   8.194 -0.4056 -0.3085  0.2826
22753NA      NA69355   1.681   5.230   5.101 -0.1777  0.1840  0.1768
22754NA      NA69356   1.593   1.861   4.575  0.1050  0.2292  0.0173
22755NA      NA69357   2.808   5.731   6.845  0.3906  0.0976  0.3201
22756NA      NA69358   2.692   0.311   5.405 -0.2138 -0.2663  0.0779
22757NA      NA69359   1.177   7.517   6.381  0.1464 -0.6541 -0.6812
22758NA      NA69360   6.680   2.800   2.225 -0.0606  0.0337  0.0181
22759NA      NA69361   2.540   1.694   2.462 -0.3585  0.7881 -0.2512
22760NA      NA69362   4.253   0.359   1.050  0.1795  0.5755 -0.0532
22761NA      NA69363   7.967   6.748   2.636  0.0046  0.2683 -0.2663
22762NA      NA69364   1.445   7.818   7.408  0.6687 -0.4147 -0.0457
22763NA      NA69365   4.888   7.171   6.447  0.2219  0.3904 -0.1279
22764NA      NA69366   5.679   6.829   3.199  0.4684 -0.1795  0.1000
22765NA      NA69367   6.754   3.195   0.011 -0.4939 -0.7789 -0.0010
22766NA      NA69368   8.431   0.143   2.006  0.0880 -0.0710  0.3478
22767NA      NA69369   6.384   8.134   4.264 -0.1474 -0.4585 -0.0549
22768NA      NA69370   6.680   0.731   1.989  0.1650  0.6197 -0.3675
22769NA      NA69371   2.616   0.874   6.223  0.0044 -0.8245  0.0867
22770NA      NA69372   0.417   7.590   5.500  0.0537 -0.0965  0.5183
22771NA      NA69373   0.109   1.703   5.753 -0.1790 -0.1160  0.1644
22772NA      NA69374   2.208   3.810   8.358  0.0524  0.5698 -0.4199
22773NA      NA69375   5.900   8.517   1.641 -0.2547 -0.1430  0.3646
22774NA      NA69376   1.437   1.035   5.944 -0.6727 -0.4278  0.5617
22775NA      NA69377   8.545   7.001   6.718 -0.0844  0.0170  0.0136
22776NA      NA69378   2.385   2.001   7.346 -0.1290  0.7594  0.4519
22777NA      NA69379   0.618   7.094   0.963 -0.0379  0.0062  0.4782
22778NA      NA69380   1.867   8.239   5.686  0.4346  0.1803 -0.0451
22779NA      NA69381   6.536   6.453   3.605 -0.0719 -0.3281  0.0680
22780NA      NA69382   6.625   5.596   0.143  0.3026  0.2661  0.0996
22781NA      NA69383   5.186   3.205   0.961  0.0341  0.0661 -0.6479
22782NA      NA69384   5.565   4.669   4.914 -0.4060 -0.3165  0.1952
22783NA      NA69385   7.689   6.716   7.531  0.0982  0.6988  0.4300
22784CL      CL69386   6.439   7.626   2.572  0.1120  0.2991  0.0465
22785CL      CL69387   3.364   5.921   3.776  0.1850 -0.1108  0.2854
22786CL      CL69388   1.527   2.135   0.815 -0.2320  0.2872 -0.0726
22787CL      CL69389   3.610   5.109   4.041 -0.0079 -0.1049  0.0477
22788CL      CL69390   5.353   2.802   0.179  0.0545 -0.4853  0.4376
22789CL      CL69391   8.789   2.855   4.304  0.2348  0.0421  0.0814
22790CL      CL69392   1.791   1.274   6.189 -0.0634 -0.2127  0.1217
22791CL      CL69393   2.791   5.272   1.223  0.1281 -0.0599  0.0274
22792CL      CL69394   1.593   1.084   7.737  0.2821 -0.1545  0.0445
22793CL      CL69395   4.845   1.889   2.832  0.0553  0.0141  0.3339
22794CL      CL69396   7.493   2.812   4.466  0.1422  0.1227 -0.1628
22795CL      CL69397   3.037   2.424   3.863  0.0628  0.3861 -0.2075
22796CL      CL69398   4.575   8.326   6.700 -0.2573 -0.2896  0.5262
22797CL      CL69399   3.792   2.484   1.285  0.5000  0.0334 -0.0321
22798CL      CL69400   0.164   0.793   1.945 -0.2245  0.0196  0.0890
22799CL      CL69401   4.189   6.201   5.046  0.3800 -0.1778 -0.2268
22800CL      CL69402   2.363   3.981   7.942 -0.4359 -0.2599  0.3166
22801CL      CL69403   5.943   2.373   3.567  0.1518 -0.0518  0.0858
22802CL      CL69404   0.832   5.706   8.469  0.3306  0.1728 -0.3689
22803CL      CL69405   1.848   3.490   2.787  0.1650  0.1662 -0.2157
22804CL      CL69406   3.639   0.955   7.852  0.2757 -0.0447  0.2916
22805CL      CL69407   1.685   7.985   7.769 -0.5575  0.2601  0.3058
22806CL      CL69408   2.905   3.196   3.401  0.0606 -0.2931 -0.2077
22807CL      CL69409   2.948   1.329   2.663  0.5644 -0.0772 -0.3523
22808CL      CL69410   1.841   3.525   6.383 -0.0366  0.0323 -0.2013
22809CL      CL69411   2.432   4.831   2.260 -0.1001  0.2352  0.1410
22810CL      CL69412   1.649   6.125   2.569 -0.5435 -0.1135 -0.1941
22811CL      CL69413   6.585   4.799   6.393  0.0099  0.1272  0.0391
22812CL      CL69414   0.018   4.077   3.378  0.3957 -0.0703  0.2188
22813CL      CL69415   4.573   5.048   1.667  0.1142 -0.4928 -0.0026
22814CL      CL69416   5.565   5.774   5.719 -0.0458  0.1104  0.2381
22815CL      CL69417   2.006   0.191   5.628 -0.2048 -0.3876  0.0505
22816CL      CL69418   2.933   6.862   2.713 -0.0994  0.4457  0.1234
22817CL      CL69419   5.711   2.693   0.838 -0.3067 -0.1343 -0.0262
22818CL      CL69420   3.970   7.116   1.744  0.1421  0.2514 -0.1802
22819CL      CL69421   2.936   4.730   0.902 -0.3016  0.4003  0.1484
22820CL      CL69422   2.583   4.648   3.082 -0.0623 -0.1797 -0.0269
22821CL      CL69423   2.145   0.530   1.651 -0.3551 -0.2052 -0.1239
22822CL      CL69424   4.582   8.679   1.801 -0.1272 -0.1453 -0.2635
22823CL      CL69425   7.840   6.031   2.734 -0.1123 -0.0193 -0.0165
22824CL      CL69426   4.823   6.819   6.987  0.2025  0.2370  0.4309
22825CL      CL69427   3.037   2.993   6.072  0.1289 -0.1531  0.0762
22826CL      CL69428   4.861   2.965   7.975 -0.1692  0.1786  0.0595
22827CL      CL69429   3.842   3.001   2.735 -0.0858 -0.3777 -0.2794
22828CL      CL69430   0.823   4.559   2.617  0.0379 -0.7201  0.1860
22829CL      CL69431   2.801   6.613   1.834 -0.0465  0.3781  0.0497
22830CL      CL69432   7.966   6.173   6.031  0.2691  0.2348 -0.0738
22831CL      CL69433   3.887   3.584   0.983 -0.0047 -0.6994 -0.1435
22832CL      CL69434   4.846   2.446   4.690  0.2701  0.3357  0.4342
22833CL      CL69435   4.281   4.759   2.713 -0.0023  0.2039 -0.0020
22834CL      CL69436   2.331   7.686   1.281  0.0038  0.0160 -0.1402
22835CL      CL69437   3.857   2.021   3.393  0.3922  0.3532 -0.0644
22836CL      CL69438   8.149   7.143   3.288 -0.1631  0.1664  0.0924
22837CL      CL69439   8.046   0.410   5.990  0.2148 -0.4918  0.3771
22838CL      CL69440   1.464   5.872   7.707  0.0930  0.4614  0.1908
22839CL      CL69441   3.925   1.610   1.355  0.2147 -0.1087 -0.0585
22840CL      CL69442   3.841   6.342   2.155 -0.0663 -0.0657  0.0184
22841CL      CL69443   3.544   2.901   4.822 -0.0685  0.0635 -0.3129
22842CL      CL69444   2.645   2.202   6.183 -0.4439 -0.2104  0.1569
22843CL      CL69445   5.672   6.710   4.102 -0.3350  0.0720  0.0142
22844CL      CL69446   2.102   4.290   4.281  0.1237 -0.0743  0.1266
22845CL      CL69447   2.828   4.917   5.438  0.0139  0.5362  0.1541
22846CL      CL69448   5.362   3.183   2.533  0.3159  0.0622  0.1469
22847CL      CL69449   1.106   6.479   0.892 -0.0100 -0.0900  0.2294
22848CL      CL69450   7.302   6.386   7.523  0.0471  0.1768 -0.1729
22849CL      CL69451   0.525   5.100   0.306  0.2818  0.1741 -0.0783
22850CL      CL69452   7.604   2.688   0.043 -0.0434 -0.1501 -0.2113
22851CL      CL69453   0.637   2.738   5.729 -0.1732  0.0471 -0.2789
22852CL      CL69454   8.721   0.091   0.533 -0.3365  0.4752  0.2299
22853CL      CL69455   8.145   2.941   2.604  0.4189  0.2505  0.6900
22854CL      CL69456   4.815   3.458   1.093 -0.1009  0.0640 -0.5499
22855CL      CL69457   0.668   5.099   4.804 -0.3198 -0.1861 -0.2846
22856CL      CL69458   6.671   6.126   3.384 -0.2082 -0.0336 -0.2500
22857CL      CL69459   0.818   6.057   4.478 -0.1865  0.2099 -0.0024
22858CL      CL69460   4.143   4.201   5.548  0.0881  0.2744 -0.3813
22859CL      CL69461   5.916   1.200   3.184 -0.2063 -0.2253  0.0923
22860CL      CL69462   0.541   8.450   6.254 -0.2423  0.3532 -0.0923
22861CL      CL69463   1.352   2.495   5.567  0.3253  0.1278  0.3052
22862CL      CL69464   1.909   4.359   1.667 -0.0393 -0.5772  0.1515
22863CL      CL69465   4.377   1.380   6.762 -0.1546 -0.2889  0.1058
22864CL      CL69466   4.154   7.574   2.588  0.2423  0.2545 -0.0831
22865CL      CL69467   8.008   1.509   0.214  0.0530 -0.3858  0.0398
22866CL      CL69468   3.241   6.090   2.396  0.1775 -0.1000  0.1153
22867CL      CL69469   3.260   3.739   0.655 -0.0632 -0.2068  0.3248
22868CL      CL69470   4.606   3.951   4.273  0.4956  0.0810 -0.3726
22869CL      CL69471   4.066   3.103   4.895  0.0946  0.3959  0.3777
22870CL      CL69472   0.577   1.823   0.361 -0.0553  0.4995  0.2596
22871CL      CL69473   6.880   2.737   2.105 -0.2624 -0.0426 -0.1663
22872CL      CL69474   5.400   6.542   2.291  0.1927  0.4163 -0.0530
22873CL      CL69475   3.833   0.428   8.643 -0.1633 -0.0101  0.0227
22874CL      CL69476   4.376   1.756   1.332  0.2986 -0.1235  0.5000
22875CL      CL69477   2.652   6.322   4.696 -0.0735  0.0436 -0.3754
22876CL      CL69478   2.261   2.110   1.830 -0.1215 -0.0865  0.0215
22877CL      CL69479   3.703   0.898   1.524 -0.1597 -0.4725 -0.2535
22878CL      CL69480   7.808   0.213   5.021  0.0226  0.1345  0.3229
22879CL      CL69481   1.144   4.307   8.075  0.0540  0.3798  0.3989
22880CL      CL69482   7.358   7.230   0.201 -0.0506  0.0219  0.0473
22881CL      CL69483   0.558   3.276   3.023  0.0777 -0.0472 -0.1287
22882CL      CL69484   4.606   5.973   2.452 -0.1228  0.3045 -0.0491
22883CL      CL69485   0.974   2.030   7.216 -0.0585  0.1537 -0.0364
22884CL      CL69486   3.940   3.024   6.666  0.5969  0.1167 -0.0236
22885CL      CL69487   6.123   7.761   8.085  0.0693  0.0627  0.1643
22886CL      CL69488   6.339   2.707   2.536 -0.2369 -0.0516  0.0761
22887CL      CL69489   5.477   8.268   1.171  0.4714 -0.1924 -0.4001
22888CL      CL69490   1.874   8.283   5.925 -0.0050  0.1934 -0.1622
22889CL      CL69491   5.111   0.106   3.773 -0.0254  0.4042 -0.5867
22890CL      CL69492   6.621   0.522   1.589  0.2574  0.2545  0.3691
22891CL      CL69493   8.505   6.046   1.143 -0.0913 -0.1646 -0.6572
22892CL      CL69494   4.698   5.314   5.646  0.2331 -0.0071  0.0038
22893CL      CL69495   6.911   4.216   8.334  0.0973  0.1597  0.3897
22894CL      CL69496   5.094   2.829   1.304  0.0447 -0.0493 -0.0567
22895CL      CL69497   7.901   0.513   0.678  0.0263  0.0630 -0.0836
22896CL      CL69498   6.155   8.633   3.522 -0.0263  0.1564 -0.0242
22897CL      CL69499   0.032   4.338   5.565 -0.2098  0.1894  0.2413
22898CL      CL69500   4.011   4.911   3.205 -0.1475  0.6034  0.6351
22899CL      CL69501   3.509   7.591   4.639 -0.3207 -0.1929 -0.1886
22900CL      CL69502   2.224   5.915   4.037  0.4074 -0.2364  0.1981
22901CL      CL69503   7.294   8.510   7.906 -0.1846  0.3513  0.2984
22902CL      CL69504   1.143   3.169   4.264 -0.2086  0.2930 -0.2333
22903CL      CL69505   1.654   7.899   6.839  0.3060  0.0606 -0.1097
22904CL      CL69506   7.277   2.107   7.618  0.1107  0.2446 -0.0037
22905CL      CL69507   3.320   4.981   0.884 -0.2342 -0.3475 -0.0071
22906CL      CL69508   3.132   2.920   2.546 -0.2467  0.4401  0.0401
22907CL      CL69509   2.531   4.211   0.123  0.0249  0.1194  0.0996
22908CL      CL69510   3.259   5.405   3.452 -0.1810 -0.2981  0.0574
22909CL      CL69511   7.656   3.285   1.210 -0.0204 -0.0585 -0.1367
   8.86309   8.86309   8.86309
