;
;   File g5.5dpOcore_cooh_petim.itp  was generated
;   By user: sairam (1000)
;   On host: sairam
;   At date: Mon. February  1 16:10:31 2025
;
;   This is a standalone topology file
;
;   Created by:
;   ParmEd:       amb2gro_top_gro.py, VERSION 3.4.1
;   Executable:   amb2gro_top_gro.py
;   Library dir:  /usr/local/gromacs/share/gromacs/top
;   Command line:
;     ./amb2gro_top_gro.py -p g5.5dpOcore_cooh_petim.prmtop -c g5.5dpOcore_cooh_petim.inpcrd -t g5.5dpOcore_cooh_petim.itp -g g5.5dpOcore_cooh_petim.gro -b g5.5dpOcore_cooh_petim.pdb
;

;[ defaults ]
;; nbfunc        comb-rule       gen-pairs       fudgeLJ fudgeQQ
;1               2               yes             0.5          0.83333333  
;
;[ atomtypes ]
;; name    at.num    mass    charge ptype  sigma      epsilon
;os             8  16.000000  0.00000000  A     0.30000123        0.71128
;c3             6  12.010000  0.00000000  A     0.33996695      0.4577296
;h1             1   1.008000  0.00000000  A      0.2471353      0.0656888
;hc             1   1.008000  0.00000000  A     0.26495328      0.0656888
;hx             1   1.008000  0.00000000  A     0.19599772      0.0656888
;n4             7  14.010000  0.00000000  A     0.32499985        0.71128
;hn             1   1.008000  0.00000000  A     0.10690785      0.0656888
;c              6  12.010000  0.00000000  A     0.33996695       0.359824
;o              8  16.000000  0.00000000  A     0.29599219        0.87864
;oh             8  16.000000  0.00000000  A     0.30664734      0.8803136
;ho             1   1.008000  0.00000000  A              0              0


[ moleculetype ]
; Name            nrexcl
g5.5dpOcore_cooh_petim          3

[ atoms ]
;   nr       type  resnr residue  atom   cgnr    charge       mass  typeB    chargeB      massB
; residue    1 aaa rtp aaa q 2.0
    1         os      1    aaa     O1      1 -0.58111400  16.000000   ; qtot -0.581114
    2         c3      1    aaa     C1      2 0.17711200  12.010000   ; qtot -0.404002
    3         h1      1    aaa     H1      3 0.04565000   1.008000   ; qtot -0.358352
    4         h1      1    aaa     H2      4 0.04565000   1.008000   ; qtot -0.312702
    5         c3      1    aaa     C2      5 0.17711200  12.010000   ; qtot -0.135590
    6         h1      1    aaa     H3      6 0.04565000   1.008000   ; qtot -0.089940
    7         h1      1    aaa     H4      7 0.04565000   1.008000   ; qtot -0.044290
    8         c3      1    aaa     C3      8 0.15102100  12.010000   ; qtot 0.106731
    9         hc      1    aaa     H5      9 0.02538500   1.008000   ; qtot 0.132116
   10         hc      1    aaa     H6     10 0.02538500   1.008000   ; qtot 0.157501
   11         c3      1    aaa     C4     11 0.15102100  12.010000   ; qtot 0.308522
   12         hc      1    aaa     H7     12 0.02538500   1.008000   ; qtot 0.333907
   13         hc      1    aaa     H8     13 0.02538500   1.008000   ; qtot 0.359292
   14         c3      1    aaa     C5     14 -0.29474300  12.010000   ; qtot 0.064549
   15         hx      1    aaa     H9     15 0.12534200   1.008000   ; qtot 0.189891
   16         hx      1    aaa    H10     16 0.12534200   1.008000   ; qtot 0.315233
   17         c3      1    aaa     C6     17 -0.29474300  12.010000   ; qtot 0.020490
   18         hx      1    aaa    H11     18 0.12534200   1.008000   ; qtot 0.145832
   19         hx      1    aaa    H12     19 0.12534200   1.008000   ; qtot 0.271174
   20         n4      1    aaa     N1     20 -0.11447800  14.010000   ; qtot 0.156696
   21         n4      1    aaa     N2     21 -0.11447800  14.010000   ; qtot 0.042218
   22         c3      1    aaa     C7     22 -0.03432800  12.010000   ; qtot 0.007890
   23         hx      1    aaa    H13     23 0.10515400   1.008000   ; qtot 0.113044
   24         hx      1    aaa    H14     24 0.10515400   1.008000   ; qtot 0.218198
   25         c3      1    aaa     C8     25 -0.03432800  12.010000   ; qtot 0.183870
   26         hx      1    aaa    H15     26 0.10515400   1.008000   ; qtot 0.289024
   27         hx      1    aaa    H16     27 0.10515400   1.008000   ; qtot 0.394178
   28         c3      1    aaa     C9     28 -0.03432800  12.010000   ; qtot 0.359850
   29         hx      1    aaa    H17     29 0.10515400   1.008000   ; qtot 0.465004
   30         hx      1    aaa    H18     30 0.10515400   1.008000   ; qtot 0.570158
   31         c3      1    aaa    C10     31 -0.03432800  12.010000   ; qtot 0.535830
   32         hx      1    aaa    H19     32 0.10515400   1.008000   ; qtot 0.640984
   33         hx      1    aaa    H20     33 0.10515400   1.008000   ; qtot 0.746138
   34         c3      1    aaa    C11     34 -0.06183200  12.010000   ; qtot 0.684306
   35         hc      1    aaa    H21     35 0.08865200   1.008000   ; qtot 0.772958
   36         hc      1    aaa    H22     36 0.08865200   1.008000   ; qtot 0.861610
   37         c3      1    aaa    C12     37 -0.06183200  12.010000   ; qtot 0.799778
   38         hc      1    aaa    H23     38 0.08865200   1.008000   ; qtot 0.888430
   39         hc      1    aaa    H24     39 0.08865200   1.008000   ; qtot 0.977082
   40         c3      1    aaa    C13     40 -0.06183200  12.010000   ; qtot 0.915250
   41         hc      1    aaa    H25     41 0.08865200   1.008000   ; qtot 1.003902
   42         hc      1    aaa    H26     42 0.08865200   1.008000   ; qtot 1.092554
   43         c3      1    aaa    C14     43 -0.06183200  12.010000   ; qtot 1.030722
   44         hc      1    aaa    H27     44 0.08865200   1.008000   ; qtot 1.119374
   45         hc      1    aaa    H28     45 0.08865200   1.008000   ; qtot 1.208026
   46         c3      1    aaa    C15     46 -0.22217300  12.010000   ; qtot 0.985853
   47         hc      1    aaa    H29     47 0.16441900   1.008000   ; qtot 1.150272
   48         hc      1    aaa    H30     48 0.16441900   1.008000   ; qtot 1.314691
   49         c3      1    aaa    C16     49 -0.22217300  12.010000   ; qtot 1.092518
   50         hc      1    aaa    H31     50 0.16441900   1.008000   ; qtot 1.256937
   51         hc      1    aaa    H32     51 0.16441900   1.008000   ; qtot 1.421356
   52         c3      1    aaa    C17     52 -0.22217300  12.010000   ; qtot 1.199183
   53         hc      1    aaa    H33     53 0.16441900   1.008000   ; qtot 1.363602
   54         hc      1    aaa    H34     54 0.16441900   1.008000   ; qtot 1.528021
   55         c3      1    aaa    C18     55 -0.22217300  12.010000   ; qtot 1.305848
   56         hc      1    aaa    H35     56 0.16441900   1.008000   ; qtot 1.470267
   57         hc      1    aaa    H36     57 0.16441900   1.008000   ; qtot 1.634686
   58         hn      1    aaa    H38     58 0.18266300   1.008000   ; qtot 1.817349
   59         hn      1    aaa    H37     59 0.18266300   1.008000   ; qtot 2.000012
; residue    2 bbb rtp bbb q 1.0
   60         n4      2    bbb     N1     60 0.03726400  14.010000   ; qtot 2.037276
   61         c3      2    bbb     C1     61 -0.07020100  12.010000   ; qtot 1.967075
   62         hx      2    bbb     H1     62 0.12219000   1.008000   ; qtot 2.089265
   63         hx      2    bbb     H2     63 0.12219000   1.008000   ; qtot 2.211455
   64         c3      2    bbb     C2     64 -0.07020100  12.010000   ; qtot 2.141254
   65         hx      2    bbb     H3     65 0.12219000   1.008000   ; qtot 2.263444
   66         hx      2    bbb     H4     66 0.12219000   1.008000   ; qtot 2.385634
   67         c3      2    bbb     C3     67 -0.39007700  12.010000   ; qtot 1.995557
   68         hx      2    bbb     H5     68 0.14940300   1.008000   ; qtot 2.144960
   69         hx      2    bbb     H6     69 0.14940300   1.008000   ; qtot 2.294363
   70         c3      2    bbb     C4     70 0.18057300  12.010000   ; qtot 2.474936
   71         hc      2    bbb     H7     71 0.01788900   1.008000   ; qtot 2.492825
   72         hc      2    bbb     H8     72 0.01788900   1.008000   ; qtot 2.510714
   73         c3      2    bbb     C5     73 -0.11337700  12.010000   ; qtot 2.397337
   74         hc      2    bbb     H9     74 0.09515400   1.008000   ; qtot 2.492491
   75         hc      2    bbb    H10     75 0.09515400   1.008000   ; qtot 2.587645
   76         c3      2    bbb     C6     76 -0.11337700  12.010000   ; qtot 2.474268
   77         hc      2    bbb    H11     77 0.09515400   1.008000   ; qtot 2.569422
   78         hc      2    bbb    H12     78 0.09515400   1.008000   ; qtot 2.664576
   79         c3      2    bbb     C7     79 0.21842400  12.010000   ; qtot 2.883000
   80         h1      2    bbb    H13     80 0.04500300   1.008000   ; qtot 2.928003
   81         h1      2    bbb    H14     81 0.04500300   1.008000   ; qtot 2.973006
   82         c3      2    bbb     C8     82 -0.06455200  12.010000   ; qtot 2.908454
   83         h1      2    bbb    H15     83 0.13554100   1.008000   ; qtot 3.043995
   84         h1      2    bbb    H16     84 0.13554100   1.008000   ; qtot 3.179536
   85         c3      2    bbb     C9     85 -0.06455200  12.010000   ; qtot 3.114984
   86         h1      2    bbb    H17     86 0.13554100   1.008000   ; qtot 3.250525
   87         h1      2    bbb    H18     87 0.13554100   1.008000   ; qtot 3.386066
   88         os      2    bbb     O1     88 -0.62587700  16.000000   ; qtot 2.760189
   89         hn      2    bbb    H19     89 0.23982500   1.008000   ; qtot 3.000014
; residue    3 bbb rtp bbb q 1.0
   90         n4      3    bbb     N1     90 0.03726400  14.010000   ; qtot 3.037278
   91         c3      3    bbb     C1     91 -0.07020100  12.010000   ; qtot 2.967077
   92         hx      3    bbb     H1     92 0.12219000   1.008000   ; qtot 3.089267
   93         hx      3    bbb     H2     93 0.12219000   1.008000   ; qtot 3.211457
   94         c3      3    bbb     C2     94 -0.07020100  12.010000   ; qtot 3.141256
   95         hx      3    bbb     H3     95 0.12219000   1.008000   ; qtot 3.263446
   96         hx      3    bbb     H4     96 0.12219000   1.008000   ; qtot 3.385636
   97         c3      3    bbb     C3     97 -0.39007700  12.010000   ; qtot 2.995559
   98         hx      3    bbb     H5     98 0.14940300   1.008000   ; qtot 3.144962
   99         hx      3    bbb     H6     99 0.14940300   1.008000   ; qtot 3.294365
  100         c3      3    bbb     C4    100 0.18057300  12.010000   ; qtot 3.474938
  101         hc      3    bbb     H7    101 0.01788900   1.008000   ; qtot 3.492827
  102         hc      3    bbb     H8    102 0.01788900   1.008000   ; qtot 3.510716
  103         c3      3    bbb     C5    103 -0.11337700  12.010000   ; qtot 3.397339
  104         hc      3    bbb     H9    104 0.09515400   1.008000   ; qtot 3.492493
  105         hc      3    bbb    H10    105 0.09515400   1.008000   ; qtot 3.587647
  106         c3      3    bbb     C6    106 -0.11337700  12.010000   ; qtot 3.474270
  107         hc      3    bbb    H11    107 0.09515400   1.008000   ; qtot 3.569424
  108         hc      3    bbb    H12    108 0.09515400   1.008000   ; qtot 3.664578
  109         c3      3    bbb     C7    109 0.21842400  12.010000   ; qtot 3.883002
  110         h1      3    bbb    H13    110 0.04500300   1.008000   ; qtot 3.928005
  111         h1      3    bbb    H14    111 0.04500300   1.008000   ; qtot 3.973008
  112         c3      3    bbb     C8    112 -0.06455200  12.010000   ; qtot 3.908456
  113         h1      3    bbb    H15    113 0.13554100   1.008000   ; qtot 4.043997
  114         h1      3    bbb    H16    114 0.13554100   1.008000   ; qtot 4.179538
  115         c3      3    bbb     C9    115 -0.06455200  12.010000   ; qtot 4.114986
  116         h1      3    bbb    H17    116 0.13554100   1.008000   ; qtot 4.250527
  117         h1      3    bbb    H18    117 0.13554100   1.008000   ; qtot 4.386068
  118         os      3    bbb     O1    118 -0.62587700  16.000000   ; qtot 3.760191
  119         hn      3    bbb    H19    119 0.23982500   1.008000   ; qtot 4.000016
; residue    4 bbb rtp bbb q 1.0
  120         n4      4    bbb     N1    120 0.03726400  14.010000   ; qtot 4.037280
  121         c3      4    bbb     C1    121 -0.07020100  12.010000   ; qtot 3.967079
  122         hx      4    bbb     H1    122 0.12219000   1.008000   ; qtot 4.089269
  123         hx      4    bbb     H2    123 0.12219000   1.008000   ; qtot 4.211459
  124         c3      4    bbb     C2    124 -0.07020100  12.010000   ; qtot 4.141258
  125         hx      4    bbb     H3    125 0.12219000   1.008000   ; qtot 4.263448
  126         hx      4    bbb     H4    126 0.12219000   1.008000   ; qtot 4.385638
  127         c3      4    bbb     C3    127 -0.39007700  12.010000   ; qtot 3.995561
  128         hx      4    bbb     H5    128 0.14940300   1.008000   ; qtot 4.144964
  129         hx      4    bbb     H6    129 0.14940300   1.008000   ; qtot 4.294367
  130         c3      4    bbb     C4    130 0.18057300  12.010000   ; qtot 4.474940
  131         hc      4    bbb     H7    131 0.01788900   1.008000   ; qtot 4.492829
  132         hc      4    bbb     H8    132 0.01788900   1.008000   ; qtot 4.510718
  133         c3      4    bbb     C5    133 -0.11337700  12.010000   ; qtot 4.397341
  134         hc      4    bbb     H9    134 0.09515400   1.008000   ; qtot 4.492495
  135         hc      4    bbb    H10    135 0.09515400   1.008000   ; qtot 4.587649
  136         c3      4    bbb     C6    136 -0.11337700  12.010000   ; qtot 4.474272
  137         hc      4    bbb    H11    137 0.09515400   1.008000   ; qtot 4.569426
  138         hc      4    bbb    H12    138 0.09515400   1.008000   ; qtot 4.664580
  139         c3      4    bbb     C7    139 0.21842400  12.010000   ; qtot 4.883004
  140         h1      4    bbb    H13    140 0.04500300   1.008000   ; qtot 4.928007
  141         h1      4    bbb    H14    141 0.04500300   1.008000   ; qtot 4.973010
  142         c3      4    bbb     C8    142 -0.06455200  12.010000   ; qtot 4.908458
  143         h1      4    bbb    H15    143 0.13554100   1.008000   ; qtot 5.043999
  144         h1      4    bbb    H16    144 0.13554100   1.008000   ; qtot 5.179540
  145         c3      4    bbb     C9    145 -0.06455200  12.010000   ; qtot 5.114988
  146         h1      4    bbb    H17    146 0.13554100   1.008000   ; qtot 5.250529
  147         h1      4    bbb    H18    147 0.13554100   1.008000   ; qtot 5.386070
  148         os      4    bbb     O1    148 -0.62587700  16.000000   ; qtot 4.760193
  149         hn      4    bbb    H19    149 0.23982500   1.008000   ; qtot 5.000018
; residue    5 bbb rtp bbb q 1.0
  150         n4      5    bbb     N1    150 0.03726400  14.010000   ; qtot 5.037282
  151         c3      5    bbb     C1    151 -0.07020100  12.010000   ; qtot 4.967081
  152         hx      5    bbb     H1    152 0.12219000   1.008000   ; qtot 5.089271
  153         hx      5    bbb     H2    153 0.12219000   1.008000   ; qtot 5.211461
  154         c3      5    bbb     C2    154 -0.07020100  12.010000   ; qtot 5.141260
  155         hx      5    bbb     H3    155 0.12219000   1.008000   ; qtot 5.263450
  156         hx      5    bbb     H4    156 0.12219000   1.008000   ; qtot 5.385640
  157         c3      5    bbb     C3    157 -0.39007700  12.010000   ; qtot 4.995563
  158         hx      5    bbb     H5    158 0.14940300   1.008000   ; qtot 5.144966
  159         hx      5    bbb     H6    159 0.14940300   1.008000   ; qtot 5.294369
  160         c3      5    bbb     C4    160 0.18057300  12.010000   ; qtot 5.474942
  161         hc      5    bbb     H7    161 0.01788900   1.008000   ; qtot 5.492831
  162         hc      5    bbb     H8    162 0.01788900   1.008000   ; qtot 5.510720
  163         c3      5    bbb     C5    163 -0.11337700  12.010000   ; qtot 5.397343
  164         hc      5    bbb     H9    164 0.09515400   1.008000   ; qtot 5.492497
  165         hc      5    bbb    H10    165 0.09515400   1.008000   ; qtot 5.587651
  166         c3      5    bbb     C6    166 -0.11337700  12.010000   ; qtot 5.474274
  167         hc      5    bbb    H11    167 0.09515400   1.008000   ; qtot 5.569428
  168         hc      5    bbb    H12    168 0.09515400   1.008000   ; qtot 5.664582
  169         c3      5    bbb     C7    169 0.21842400  12.010000   ; qtot 5.883006
  170         h1      5    bbb    H13    170 0.04500300   1.008000   ; qtot 5.928009
  171         h1      5    bbb    H14    171 0.04500300   1.008000   ; qtot 5.973012
  172         c3      5    bbb     C8    172 -0.06455200  12.010000   ; qtot 5.908460
  173         h1      5    bbb    H15    173 0.13554100   1.008000   ; qtot 6.044001
  174         h1      5    bbb    H16    174 0.13554100   1.008000   ; qtot 6.179542
  175         c3      5    bbb     C9    175 -0.06455200  12.010000   ; qtot 6.114990
  176         h1      5    bbb    H17    176 0.13554100   1.008000   ; qtot 6.250531
  177         h1      5    bbb    H18    177 0.13554100   1.008000   ; qtot 6.386072
  178         os      5    bbb     O1    178 -0.62587700  16.000000   ; qtot 5.760195
  179         hn      5    bbb    H19    179 0.23982500   1.008000   ; qtot 6.000020
; residue    6 bbb rtp bbb q 1.0
  180         n4      6    bbb     N1    180 0.03726400  14.010000   ; qtot 6.037284
  181         c3      6    bbb     C1    181 -0.07020100  12.010000   ; qtot 5.967083
  182         hx      6    bbb     H1    182 0.12219000   1.008000   ; qtot 6.089273
  183         hx      6    bbb     H2    183 0.12219000   1.008000   ; qtot 6.211463
  184         c3      6    bbb     C2    184 -0.07020100  12.010000   ; qtot 6.141262
  185         hx      6    bbb     H3    185 0.12219000   1.008000   ; qtot 6.263452
  186         hx      6    bbb     H4    186 0.12219000   1.008000   ; qtot 6.385642
  187         c3      6    bbb     C3    187 -0.39007700  12.010000   ; qtot 5.995565
  188         hx      6    bbb     H5    188 0.14940300   1.008000   ; qtot 6.144968
  189         hx      6    bbb     H6    189 0.14940300   1.008000   ; qtot 6.294371
  190         c3      6    bbb     C4    190 0.18057300  12.010000   ; qtot 6.474944
  191         hc      6    bbb     H7    191 0.01788900   1.008000   ; qtot 6.492833
  192         hc      6    bbb     H8    192 0.01788900   1.008000   ; qtot 6.510722
  193         c3      6    bbb     C5    193 -0.11337700  12.010000   ; qtot 6.397345
  194         hc      6    bbb     H9    194 0.09515400   1.008000   ; qtot 6.492499
  195         hc      6    bbb    H10    195 0.09515400   1.008000   ; qtot 6.587653
  196         c3      6    bbb     C6    196 -0.11337700  12.010000   ; qtot 6.474276
  197         hc      6    bbb    H11    197 0.09515400   1.008000   ; qtot 6.569430
  198         hc      6    bbb    H12    198 0.09515400   1.008000   ; qtot 6.664584
  199         c3      6    bbb     C7    199 0.21842400  12.010000   ; qtot 6.883008
  200         h1      6    bbb    H13    200 0.04500300   1.008000   ; qtot 6.928011
  201         h1      6    bbb    H14    201 0.04500300   1.008000   ; qtot 6.973014
  202         c3      6    bbb     C8    202 -0.06455200  12.010000   ; qtot 6.908462
  203         h1      6    bbb    H15    203 0.13554100   1.008000   ; qtot 7.044003
  204         h1      6    bbb    H16    204 0.13554100   1.008000   ; qtot 7.179544
  205         c3      6    bbb     C9    205 -0.06455200  12.010000   ; qtot 7.114992
  206         h1      6    bbb    H17    206 0.13554100   1.008000   ; qtot 7.250533
  207         h1      6    bbb    H18    207 0.13554100   1.008000   ; qtot 7.386074
  208         os      6    bbb     O1    208 -0.62587700  16.000000   ; qtot 6.760197
  209         hn      6    bbb    H19    209 0.23982500   1.008000   ; qtot 7.000022
; residue    7 bbb rtp bbb q 1.0
  210         n4      7    bbb     N1    210 0.03726400  14.010000   ; qtot 7.037286
  211         c3      7    bbb     C1    211 -0.07020100  12.010000   ; qtot 6.967085
  212         hx      7    bbb     H1    212 0.12219000   1.008000   ; qtot 7.089275
  213         hx      7    bbb     H2    213 0.12219000   1.008000   ; qtot 7.211465
  214         c3      7    bbb     C2    214 -0.07020100  12.010000   ; qtot 7.141264
  215         hx      7    bbb     H3    215 0.12219000   1.008000   ; qtot 7.263454
  216         hx      7    bbb     H4    216 0.12219000   1.008000   ; qtot 7.385644
  217         c3      7    bbb     C3    217 -0.39007700  12.010000   ; qtot 6.995567
  218         hx      7    bbb     H5    218 0.14940300   1.008000   ; qtot 7.144970
  219         hx      7    bbb     H6    219 0.14940300   1.008000   ; qtot 7.294373
  220         c3      7    bbb     C4    220 0.18057300  12.010000   ; qtot 7.474946
  221         hc      7    bbb     H7    221 0.01788900   1.008000   ; qtot 7.492835
  222         hc      7    bbb     H8    222 0.01788900   1.008000   ; qtot 7.510724
  223         c3      7    bbb     C5    223 -0.11337700  12.010000   ; qtot 7.397347
  224         hc      7    bbb     H9    224 0.09515400   1.008000   ; qtot 7.492501
  225         hc      7    bbb    H10    225 0.09515400   1.008000   ; qtot 7.587655
  226         c3      7    bbb     C6    226 -0.11337700  12.010000   ; qtot 7.474278
  227         hc      7    bbb    H11    227 0.09515400   1.008000   ; qtot 7.569432
  228         hc      7    bbb    H12    228 0.09515400   1.008000   ; qtot 7.664586
  229         c3      7    bbb     C7    229 0.21842400  12.010000   ; qtot 7.883010
  230         h1      7    bbb    H13    230 0.04500300   1.008000   ; qtot 7.928013
  231         h1      7    bbb    H14    231 0.04500300   1.008000   ; qtot 7.973016
  232         c3      7    bbb     C8    232 -0.06455200  12.010000   ; qtot 7.908464
  233         h1      7    bbb    H15    233 0.13554100   1.008000   ; qtot 8.044005
  234         h1      7    bbb    H16    234 0.13554100   1.008000   ; qtot 8.179546
  235         c3      7    bbb     C9    235 -0.06455200  12.010000   ; qtot 8.114994
  236         h1      7    bbb    H17    236 0.13554100   1.008000   ; qtot 8.250535
  237         h1      7    bbb    H18    237 0.13554100   1.008000   ; qtot 8.386076
  238         os      7    bbb     O1    238 -0.62587700  16.000000   ; qtot 7.760199
  239         hn      7    bbb    H19    239 0.23982500   1.008000   ; qtot 8.000024
; residue    8 bbb rtp bbb q 1.0
  240         n4      8    bbb     N1    240 0.03726400  14.010000   ; qtot 8.037288
  241         c3      8    bbb     C1    241 -0.07020100  12.010000   ; qtot 7.967087
  242         hx      8    bbb     H1    242 0.12219000   1.008000   ; qtot 8.089277
  243         hx      8    bbb     H2    243 0.12219000   1.008000   ; qtot 8.211467
  244         c3      8    bbb     C2    244 -0.07020100  12.010000   ; qtot 8.141266
  245         hx      8    bbb     H3    245 0.12219000   1.008000   ; qtot 8.263456
  246         hx      8    bbb     H4    246 0.12219000   1.008000   ; qtot 8.385646
  247         c3      8    bbb     C3    247 -0.39007700  12.010000   ; qtot 7.995569
  248         hx      8    bbb     H5    248 0.14940300   1.008000   ; qtot 8.144972
  249         hx      8    bbb     H6    249 0.14940300   1.008000   ; qtot 8.294375
  250         c3      8    bbb     C4    250 0.18057300  12.010000   ; qtot 8.474948
  251         hc      8    bbb     H7    251 0.01788900   1.008000   ; qtot 8.492837
  252         hc      8    bbb     H8    252 0.01788900   1.008000   ; qtot 8.510726
  253         c3      8    bbb     C5    253 -0.11337700  12.010000   ; qtot 8.397349
  254         hc      8    bbb     H9    254 0.09515400   1.008000   ; qtot 8.492503
  255         hc      8    bbb    H10    255 0.09515400   1.008000   ; qtot 8.587657
  256         c3      8    bbb     C6    256 -0.11337700  12.010000   ; qtot 8.474280
  257         hc      8    bbb    H11    257 0.09515400   1.008000   ; qtot 8.569434
  258         hc      8    bbb    H12    258 0.09515400   1.008000   ; qtot 8.664588
  259         c3      8    bbb     C7    259 0.21842400  12.010000   ; qtot 8.883012
  260         h1      8    bbb    H13    260 0.04500300   1.008000   ; qtot 8.928015
  261         h1      8    bbb    H14    261 0.04500300   1.008000   ; qtot 8.973018
  262         c3      8    bbb     C8    262 -0.06455200  12.010000   ; qtot 8.908466
  263         h1      8    bbb    H15    263 0.13554100   1.008000   ; qtot 9.044007
  264         h1      8    bbb    H16    264 0.13554100   1.008000   ; qtot 9.179548
  265         c3      8    bbb     C9    265 -0.06455200  12.010000   ; qtot 9.114996
  266         h1      8    bbb    H17    266 0.13554100   1.008000   ; qtot 9.250537
  267         h1      8    bbb    H18    267 0.13554100   1.008000   ; qtot 9.386078
  268         os      8    bbb     O1    268 -0.62587700  16.000000   ; qtot 8.760201
  269         hn      8    bbb    H19    269 0.23982500   1.008000   ; qtot 9.000026
; residue    9 bbb rtp bbb q 1.0
  270         n4      9    bbb     N1    270 0.03726400  14.010000   ; qtot 9.037290
  271         c3      9    bbb     C1    271 -0.07020100  12.010000   ; qtot 8.967089
  272         hx      9    bbb     H1    272 0.12219000   1.008000   ; qtot 9.089279
  273         hx      9    bbb     H2    273 0.12219000   1.008000   ; qtot 9.211469
  274         c3      9    bbb     C2    274 -0.07020100  12.010000   ; qtot 9.141268
  275         hx      9    bbb     H3    275 0.12219000   1.008000   ; qtot 9.263458
  276         hx      9    bbb     H4    276 0.12219000   1.008000   ; qtot 9.385648
  277         c3      9    bbb     C3    277 -0.39007700  12.010000   ; qtot 8.995571
  278         hx      9    bbb     H5    278 0.14940300   1.008000   ; qtot 9.144974
  279         hx      9    bbb     H6    279 0.14940300   1.008000   ; qtot 9.294377
  280         c3      9    bbb     C4    280 0.18057300  12.010000   ; qtot 9.474950
  281         hc      9    bbb     H7    281 0.01788900   1.008000   ; qtot 9.492839
  282         hc      9    bbb     H8    282 0.01788900   1.008000   ; qtot 9.510728
  283         c3      9    bbb     C5    283 -0.11337700  12.010000   ; qtot 9.397351
  284         hc      9    bbb     H9    284 0.09515400   1.008000   ; qtot 9.492505
  285         hc      9    bbb    H10    285 0.09515400   1.008000   ; qtot 9.587659
  286         c3      9    bbb     C6    286 -0.11337700  12.010000   ; qtot 9.474282
  287         hc      9    bbb    H11    287 0.09515400   1.008000   ; qtot 9.569436
  288         hc      9    bbb    H12    288 0.09515400   1.008000   ; qtot 9.664590
  289         c3      9    bbb     C7    289 0.21842400  12.010000   ; qtot 9.883014
  290         h1      9    bbb    H13    290 0.04500300   1.008000   ; qtot 9.928017
  291         h1      9    bbb    H14    291 0.04500300   1.008000   ; qtot 9.973020
  292         c3      9    bbb     C8    292 -0.06455200  12.010000   ; qtot 9.908468
  293         h1      9    bbb    H15    293 0.13554100   1.008000   ; qtot 10.044009
  294         h1      9    bbb    H16    294 0.13554100   1.008000   ; qtot 10.179550
  295         c3      9    bbb     C9    295 -0.06455200  12.010000   ; qtot 10.114998
  296         h1      9    bbb    H17    296 0.13554100   1.008000   ; qtot 10.250539
  297         h1      9    bbb    H18    297 0.13554100   1.008000   ; qtot 10.386080
  298         os      9    bbb     O1    298 -0.62587700  16.000000   ; qtot 9.760203
  299         hn      9    bbb    H19    299 0.23982500   1.008000   ; qtot 10.000028
; residue   10 bbb rtp bbb q 1.0
  300         n4     10    bbb     N1    300 0.03726400  14.010000   ; qtot 10.037292
  301         c3     10    bbb     C1    301 -0.07020100  12.010000   ; qtot 9.967091
  302         hx     10    bbb     H1    302 0.12219000   1.008000   ; qtot 10.089281
  303         hx     10    bbb     H2    303 0.12219000   1.008000   ; qtot 10.211471
  304         c3     10    bbb     C2    304 -0.07020100  12.010000   ; qtot 10.141270
  305         hx     10    bbb     H3    305 0.12219000   1.008000   ; qtot 10.263460
  306         hx     10    bbb     H4    306 0.12219000   1.008000   ; qtot 10.385650
  307         c3     10    bbb     C3    307 -0.39007700  12.010000   ; qtot 9.995573
  308         hx     10    bbb     H5    308 0.14940300   1.008000   ; qtot 10.144976
  309         hx     10    bbb     H6    309 0.14940300   1.008000   ; qtot 10.294379
  310         c3     10    bbb     C4    310 0.18057300  12.010000   ; qtot 10.474952
  311         hc     10    bbb     H7    311 0.01788900   1.008000   ; qtot 10.492841
  312         hc     10    bbb     H8    312 0.01788900   1.008000   ; qtot 10.510730
  313         c3     10    bbb     C5    313 -0.11337700  12.010000   ; qtot 10.397353
  314         hc     10    bbb     H9    314 0.09515400   1.008000   ; qtot 10.492507
  315         hc     10    bbb    H10    315 0.09515400   1.008000   ; qtot 10.587661
  316         c3     10    bbb     C6    316 -0.11337700  12.010000   ; qtot 10.474284
  317         hc     10    bbb    H11    317 0.09515400   1.008000   ; qtot 10.569438
  318         hc     10    bbb    H12    318 0.09515400   1.008000   ; qtot 10.664592
  319         c3     10    bbb     C7    319 0.21842400  12.010000   ; qtot 10.883016
  320         h1     10    bbb    H13    320 0.04500300   1.008000   ; qtot 10.928019
  321         h1     10    bbb    H14    321 0.04500300   1.008000   ; qtot 10.973022
  322         c3     10    bbb     C8    322 -0.06455200  12.010000   ; qtot 10.908470
  323         h1     10    bbb    H15    323 0.13554100   1.008000   ; qtot 11.044011
  324         h1     10    bbb    H16    324 0.13554100   1.008000   ; qtot 11.179552
  325         c3     10    bbb     C9    325 -0.06455200  12.010000   ; qtot 11.115000
  326         h1     10    bbb    H17    326 0.13554100   1.008000   ; qtot 11.250541
  327         h1     10    bbb    H18    327 0.13554100   1.008000   ; qtot 11.386082
  328         os     10    bbb     O1    328 -0.62587700  16.000000   ; qtot 10.760205
  329         hn     10    bbb    H19    329 0.23982500   1.008000   ; qtot 11.000030
; residue   11 bbb rtp bbb q 1.0
  330         n4     11    bbb     N1    330 0.03726400  14.010000   ; qtot 11.037294
  331         c3     11    bbb     C1    331 -0.07020100  12.010000   ; qtot 10.967093
  332         hx     11    bbb     H1    332 0.12219000   1.008000   ; qtot 11.089283
  333         hx     11    bbb     H2    333 0.12219000   1.008000   ; qtot 11.211473
  334         c3     11    bbb     C2    334 -0.07020100  12.010000   ; qtot 11.141272
  335         hx     11    bbb     H3    335 0.12219000   1.008000   ; qtot 11.263462
  336         hx     11    bbb     H4    336 0.12219000   1.008000   ; qtot 11.385652
  337         c3     11    bbb     C3    337 -0.39007700  12.010000   ; qtot 10.995575
  338         hx     11    bbb     H5    338 0.14940300   1.008000   ; qtot 11.144978
  339         hx     11    bbb     H6    339 0.14940300   1.008000   ; qtot 11.294381
  340         c3     11    bbb     C4    340 0.18057300  12.010000   ; qtot 11.474954
  341         hc     11    bbb     H7    341 0.01788900   1.008000   ; qtot 11.492843
  342         hc     11    bbb     H8    342 0.01788900   1.008000   ; qtot 11.510732
  343         c3     11    bbb     C5    343 -0.11337700  12.010000   ; qtot 11.397355
  344         hc     11    bbb     H9    344 0.09515400   1.008000   ; qtot 11.492509
  345         hc     11    bbb    H10    345 0.09515400   1.008000   ; qtot 11.587663
  346         c3     11    bbb     C6    346 -0.11337700  12.010000   ; qtot 11.474286
  347         hc     11    bbb    H11    347 0.09515400   1.008000   ; qtot 11.569440
  348         hc     11    bbb    H12    348 0.09515400   1.008000   ; qtot 11.664594
  349         c3     11    bbb     C7    349 0.21842400  12.010000   ; qtot 11.883018
  350         h1     11    bbb    H13    350 0.04500300   1.008000   ; qtot 11.928021
  351         h1     11    bbb    H14    351 0.04500300   1.008000   ; qtot 11.973024
  352         c3     11    bbb     C8    352 -0.06455200  12.010000   ; qtot 11.908472
  353         h1     11    bbb    H15    353 0.13554100   1.008000   ; qtot 12.044013
  354         h1     11    bbb    H16    354 0.13554100   1.008000   ; qtot 12.179554
  355         c3     11    bbb     C9    355 -0.06455200  12.010000   ; qtot 12.115002
  356         h1     11    bbb    H17    356 0.13554100   1.008000   ; qtot 12.250543
  357         h1     11    bbb    H18    357 0.13554100   1.008000   ; qtot 12.386084
  358         os     11    bbb     O1    358 -0.62587700  16.000000   ; qtot 11.760207
  359         hn     11    bbb    H19    359 0.23982500   1.008000   ; qtot 12.000032
; residue   12 bbb rtp bbb q 1.0
  360         n4     12    bbb     N1    360 0.03726400  14.010000   ; qtot 12.037296
  361         c3     12    bbb     C1    361 -0.07020100  12.010000   ; qtot 11.967095
  362         hx     12    bbb     H1    362 0.12219000   1.008000   ; qtot 12.089285
  363         hx     12    bbb     H2    363 0.12219000   1.008000   ; qtot 12.211475
  364         c3     12    bbb     C2    364 -0.07020100  12.010000   ; qtot 12.141274
  365         hx     12    bbb     H3    365 0.12219000   1.008000   ; qtot 12.263464
  366         hx     12    bbb     H4    366 0.12219000   1.008000   ; qtot 12.385654
  367         c3     12    bbb     C3    367 -0.39007700  12.010000   ; qtot 11.995577
  368         hx     12    bbb     H5    368 0.14940300   1.008000   ; qtot 12.144980
  369         hx     12    bbb     H6    369 0.14940300   1.008000   ; qtot 12.294383
  370         c3     12    bbb     C4    370 0.18057300  12.010000   ; qtot 12.474956
  371         hc     12    bbb     H7    371 0.01788900   1.008000   ; qtot 12.492845
  372         hc     12    bbb     H8    372 0.01788900   1.008000   ; qtot 12.510734
  373         c3     12    bbb     C5    373 -0.11337700  12.010000   ; qtot 12.397357
  374         hc     12    bbb     H9    374 0.09515400   1.008000   ; qtot 12.492511
  375         hc     12    bbb    H10    375 0.09515400   1.008000   ; qtot 12.587665
  376         c3     12    bbb     C6    376 -0.11337700  12.010000   ; qtot 12.474288
  377         hc     12    bbb    H11    377 0.09515400   1.008000   ; qtot 12.569442
  378         hc     12    bbb    H12    378 0.09515400   1.008000   ; qtot 12.664596
  379         c3     12    bbb     C7    379 0.21842400  12.010000   ; qtot 12.883020
  380         h1     12    bbb    H13    380 0.04500300   1.008000   ; qtot 12.928023
  381         h1     12    bbb    H14    381 0.04500300   1.008000   ; qtot 12.973026
  382         c3     12    bbb     C8    382 -0.06455200  12.010000   ; qtot 12.908474
  383         h1     12    bbb    H15    383 0.13554100   1.008000   ; qtot 13.044015
  384         h1     12    bbb    H16    384 0.13554100   1.008000   ; qtot 13.179556
  385         c3     12    bbb     C9    385 -0.06455200  12.010000   ; qtot 13.115004
  386         h1     12    bbb    H17    386 0.13554100   1.008000   ; qtot 13.250545
  387         h1     12    bbb    H18    387 0.13554100   1.008000   ; qtot 13.386086
  388         os     12    bbb     O1    388 -0.62587700  16.000000   ; qtot 12.760209
  389         hn     12    bbb    H19    389 0.23982500   1.008000   ; qtot 13.000034
; residue   13 bbb rtp bbb q 1.0
  390         n4     13    bbb     N1    390 0.03726400  14.010000   ; qtot 13.037298
  391         c3     13    bbb     C1    391 -0.07020100  12.010000   ; qtot 12.967097
  392         hx     13    bbb     H1    392 0.12219000   1.008000   ; qtot 13.089287
  393         hx     13    bbb     H2    393 0.12219000   1.008000   ; qtot 13.211477
  394         c3     13    bbb     C2    394 -0.07020100  12.010000   ; qtot 13.141276
  395         hx     13    bbb     H3    395 0.12219000   1.008000   ; qtot 13.263466
  396         hx     13    bbb     H4    396 0.12219000   1.008000   ; qtot 13.385656
  397         c3     13    bbb     C3    397 -0.39007700  12.010000   ; qtot 12.995579
  398         hx     13    bbb     H5    398 0.14940300   1.008000   ; qtot 13.144982
  399         hx     13    bbb     H6    399 0.14940300   1.008000   ; qtot 13.294385
  400         c3     13    bbb     C4    400 0.18057300  12.010000   ; qtot 13.474958
  401         hc     13    bbb     H7    401 0.01788900   1.008000   ; qtot 13.492847
  402         hc     13    bbb     H8    402 0.01788900   1.008000   ; qtot 13.510736
  403         c3     13    bbb     C5    403 -0.11337700  12.010000   ; qtot 13.397359
  404         hc     13    bbb     H9    404 0.09515400   1.008000   ; qtot 13.492513
  405         hc     13    bbb    H10    405 0.09515400   1.008000   ; qtot 13.587667
  406         c3     13    bbb     C6    406 -0.11337700  12.010000   ; qtot 13.474290
  407         hc     13    bbb    H11    407 0.09515400   1.008000   ; qtot 13.569444
  408         hc     13    bbb    H12    408 0.09515400   1.008000   ; qtot 13.664598
  409         c3     13    bbb     C7    409 0.21842400  12.010000   ; qtot 13.883022
  410         h1     13    bbb    H13    410 0.04500300   1.008000   ; qtot 13.928025
  411         h1     13    bbb    H14    411 0.04500300   1.008000   ; qtot 13.973028
  412         c3     13    bbb     C8    412 -0.06455200  12.010000   ; qtot 13.908476
  413         h1     13    bbb    H15    413 0.13554100   1.008000   ; qtot 14.044017
  414         h1     13    bbb    H16    414 0.13554100   1.008000   ; qtot 14.179558
  415         c3     13    bbb     C9    415 -0.06455200  12.010000   ; qtot 14.115006
  416         h1     13    bbb    H17    416 0.13554100   1.008000   ; qtot 14.250547
  417         h1     13    bbb    H18    417 0.13554100   1.008000   ; qtot 14.386088
  418         os     13    bbb     O1    418 -0.62587700  16.000000   ; qtot 13.760211
  419         hn     13    bbb    H19    419 0.23982500   1.008000   ; qtot 14.000036
; residue   14 bbb rtp bbb q 1.0
  420         n4     14    bbb     N1    420 0.03726400  14.010000   ; qtot 14.037300
  421         c3     14    bbb     C1    421 -0.07020100  12.010000   ; qtot 13.967099
  422         hx     14    bbb     H1    422 0.12219000   1.008000   ; qtot 14.089289
  423         hx     14    bbb     H2    423 0.12219000   1.008000   ; qtot 14.211479
  424         c3     14    bbb     C2    424 -0.07020100  12.010000   ; qtot 14.141278
  425         hx     14    bbb     H3    425 0.12219000   1.008000   ; qtot 14.263468
  426         hx     14    bbb     H4    426 0.12219000   1.008000   ; qtot 14.385658
  427         c3     14    bbb     C3    427 -0.39007700  12.010000   ; qtot 13.995581
  428         hx     14    bbb     H5    428 0.14940300   1.008000   ; qtot 14.144984
  429         hx     14    bbb     H6    429 0.14940300   1.008000   ; qtot 14.294387
  430         c3     14    bbb     C4    430 0.18057300  12.010000   ; qtot 14.474960
  431         hc     14    bbb     H7    431 0.01788900   1.008000   ; qtot 14.492849
  432         hc     14    bbb     H8    432 0.01788900   1.008000   ; qtot 14.510738
  433         c3     14    bbb     C5    433 -0.11337700  12.010000   ; qtot 14.397361
  434         hc     14    bbb     H9    434 0.09515400   1.008000   ; qtot 14.492515
  435         hc     14    bbb    H10    435 0.09515400   1.008000   ; qtot 14.587669
  436         c3     14    bbb     C6    436 -0.11337700  12.010000   ; qtot 14.474292
  437         hc     14    bbb    H11    437 0.09515400   1.008000   ; qtot 14.569446
  438         hc     14    bbb    H12    438 0.09515400   1.008000   ; qtot 14.664600
  439         c3     14    bbb     C7    439 0.21842400  12.010000   ; qtot 14.883024
  440         h1     14    bbb    H13    440 0.04500300   1.008000   ; qtot 14.928027
  441         h1     14    bbb    H14    441 0.04500300   1.008000   ; qtot 14.973030
  442         c3     14    bbb     C8    442 -0.06455200  12.010000   ; qtot 14.908478
  443         h1     14    bbb    H15    443 0.13554100   1.008000   ; qtot 15.044019
  444         h1     14    bbb    H16    444 0.13554100   1.008000   ; qtot 15.179560
  445         c3     14    bbb     C9    445 -0.06455200  12.010000   ; qtot 15.115008
  446         h1     14    bbb    H17    446 0.13554100   1.008000   ; qtot 15.250549
  447         h1     14    bbb    H18    447 0.13554100   1.008000   ; qtot 15.386090
  448         os     14    bbb     O1    448 -0.62587700  16.000000   ; qtot 14.760213
  449         hn     14    bbb    H19    449 0.23982500   1.008000   ; qtot 15.000038
; residue   15 bbb rtp bbb q 1.0
  450         n4     15    bbb     N1    450 0.03726400  14.010000   ; qtot 15.037302
  451         c3     15    bbb     C1    451 -0.07020100  12.010000   ; qtot 14.967101
  452         hx     15    bbb     H1    452 0.12219000   1.008000   ; qtot 15.089291
  453         hx     15    bbb     H2    453 0.12219000   1.008000   ; qtot 15.211481
  454         c3     15    bbb     C2    454 -0.07020100  12.010000   ; qtot 15.141280
  455         hx     15    bbb     H3    455 0.12219000   1.008000   ; qtot 15.263470
  456         hx     15    bbb     H4    456 0.12219000   1.008000   ; qtot 15.385660
  457         c3     15    bbb     C3    457 -0.39007700  12.010000   ; qtot 14.995583
  458         hx     15    bbb     H5    458 0.14940300   1.008000   ; qtot 15.144986
  459         hx     15    bbb     H6    459 0.14940300   1.008000   ; qtot 15.294389
  460         c3     15    bbb     C4    460 0.18057300  12.010000   ; qtot 15.474962
  461         hc     15    bbb     H7    461 0.01788900   1.008000   ; qtot 15.492851
  462         hc     15    bbb     H8    462 0.01788900   1.008000   ; qtot 15.510740
  463         c3     15    bbb     C5    463 -0.11337700  12.010000   ; qtot 15.397363
  464         hc     15    bbb     H9    464 0.09515400   1.008000   ; qtot 15.492517
  465         hc     15    bbb    H10    465 0.09515400   1.008000   ; qtot 15.587671
  466         c3     15    bbb     C6    466 -0.11337700  12.010000   ; qtot 15.474294
  467         hc     15    bbb    H11    467 0.09515400   1.008000   ; qtot 15.569448
  468         hc     15    bbb    H12    468 0.09515400   1.008000   ; qtot 15.664602
  469         c3     15    bbb     C7    469 0.21842400  12.010000   ; qtot 15.883026
  470         h1     15    bbb    H13    470 0.04500300   1.008000   ; qtot 15.928029
  471         h1     15    bbb    H14    471 0.04500300   1.008000   ; qtot 15.973032
  472         c3     15    bbb     C8    472 -0.06455200  12.010000   ; qtot 15.908480
  473         h1     15    bbb    H15    473 0.13554100   1.008000   ; qtot 16.044021
  474         h1     15    bbb    H16    474 0.13554100   1.008000   ; qtot 16.179562
  475         c3     15    bbb     C9    475 -0.06455200  12.010000   ; qtot 16.115010
  476         h1     15    bbb    H17    476 0.13554100   1.008000   ; qtot 16.250551
  477         h1     15    bbb    H18    477 0.13554100   1.008000   ; qtot 16.386092
  478         os     15    bbb     O1    478 -0.62587700  16.000000   ; qtot 15.760215
  479         hn     15    bbb    H19    479 0.23982500   1.008000   ; qtot 16.000040
; residue   16 bbb rtp bbb q 1.0
  480         n4     16    bbb     N1    480 0.03726400  14.010000   ; qtot 16.037304
  481         c3     16    bbb     C1    481 -0.07020100  12.010000   ; qtot 15.967103
  482         hx     16    bbb     H1    482 0.12219000   1.008000   ; qtot 16.089293
  483         hx     16    bbb     H2    483 0.12219000   1.008000   ; qtot 16.211483
  484         c3     16    bbb     C2    484 -0.07020100  12.010000   ; qtot 16.141282
  485         hx     16    bbb     H3    485 0.12219000   1.008000   ; qtot 16.263472
  486         hx     16    bbb     H4    486 0.12219000   1.008000   ; qtot 16.385662
  487         c3     16    bbb     C3    487 -0.39007700  12.010000   ; qtot 15.995585
  488         hx     16    bbb     H5    488 0.14940300   1.008000   ; qtot 16.144988
  489         hx     16    bbb     H6    489 0.14940300   1.008000   ; qtot 16.294391
  490         c3     16    bbb     C4    490 0.18057300  12.010000   ; qtot 16.474964
  491         hc     16    bbb     H7    491 0.01788900   1.008000   ; qtot 16.492853
  492         hc     16    bbb     H8    492 0.01788900   1.008000   ; qtot 16.510742
  493         c3     16    bbb     C5    493 -0.11337700  12.010000   ; qtot 16.397365
  494         hc     16    bbb     H9    494 0.09515400   1.008000   ; qtot 16.492519
  495         hc     16    bbb    H10    495 0.09515400   1.008000   ; qtot 16.587673
  496         c3     16    bbb     C6    496 -0.11337700  12.010000   ; qtot 16.474296
  497         hc     16    bbb    H11    497 0.09515400   1.008000   ; qtot 16.569450
  498         hc     16    bbb    H12    498 0.09515400   1.008000   ; qtot 16.664604
  499         c3     16    bbb     C7    499 0.21842400  12.010000   ; qtot 16.883028
  500         h1     16    bbb    H13    500 0.04500300   1.008000   ; qtot 16.928031
  501         h1     16    bbb    H14    501 0.04500300   1.008000   ; qtot 16.973034
  502         c3     16    bbb     C8    502 -0.06455200  12.010000   ; qtot 16.908482
  503         h1     16    bbb    H15    503 0.13554100   1.008000   ; qtot 17.044023
  504         h1     16    bbb    H16    504 0.13554100   1.008000   ; qtot 17.179564
  505         c3     16    bbb     C9    505 -0.06455200  12.010000   ; qtot 17.115012
  506         h1     16    bbb    H17    506 0.13554100   1.008000   ; qtot 17.250553
  507         h1     16    bbb    H18    507 0.13554100   1.008000   ; qtot 17.386094
  508         os     16    bbb     O1    508 -0.62587700  16.000000   ; qtot 16.760217
  509         hn     16    bbb    H19    509 0.23982500   1.008000   ; qtot 17.000042
; residue   17 bbb rtp bbb q 1.0
  510         n4     17    bbb     N1    510 0.03726400  14.010000   ; qtot 17.037306
  511         c3     17    bbb     C1    511 -0.07020100  12.010000   ; qtot 16.967105
  512         hx     17    bbb     H1    512 0.12219000   1.008000   ; qtot 17.089295
  513         hx     17    bbb     H2    513 0.12219000   1.008000   ; qtot 17.211485
  514         c3     17    bbb     C2    514 -0.07020100  12.010000   ; qtot 17.141284
  515         hx     17    bbb     H3    515 0.12219000   1.008000   ; qtot 17.263474
  516         hx     17    bbb     H4    516 0.12219000   1.008000   ; qtot 17.385664
  517         c3     17    bbb     C3    517 -0.39007700  12.010000   ; qtot 16.995587
  518         hx     17    bbb     H5    518 0.14940300   1.008000   ; qtot 17.144990
  519         hx     17    bbb     H6    519 0.14940300   1.008000   ; qtot 17.294393
  520         c3     17    bbb     C4    520 0.18057300  12.010000   ; qtot 17.474966
  521         hc     17    bbb     H7    521 0.01788900   1.008000   ; qtot 17.492855
  522         hc     17    bbb     H8    522 0.01788900   1.008000   ; qtot 17.510744
  523         c3     17    bbb     C5    523 -0.11337700  12.010000   ; qtot 17.397367
  524         hc     17    bbb     H9    524 0.09515400   1.008000   ; qtot 17.492521
  525         hc     17    bbb    H10    525 0.09515400   1.008000   ; qtot 17.587675
  526         c3     17    bbb     C6    526 -0.11337700  12.010000   ; qtot 17.474298
  527         hc     17    bbb    H11    527 0.09515400   1.008000   ; qtot 17.569452
  528         hc     17    bbb    H12    528 0.09515400   1.008000   ; qtot 17.664606
  529         c3     17    bbb     C7    529 0.21842400  12.010000   ; qtot 17.883030
  530         h1     17    bbb    H13    530 0.04500300   1.008000   ; qtot 17.928033
  531         h1     17    bbb    H14    531 0.04500300   1.008000   ; qtot 17.973036
  532         c3     17    bbb     C8    532 -0.06455200  12.010000   ; qtot 17.908484
  533         h1     17    bbb    H15    533 0.13554100   1.008000   ; qtot 18.044025
  534         h1     17    bbb    H16    534 0.13554100   1.008000   ; qtot 18.179566
  535         c3     17    bbb     C9    535 -0.06455200  12.010000   ; qtot 18.115014
  536         h1     17    bbb    H17    536 0.13554100   1.008000   ; qtot 18.250555
  537         h1     17    bbb    H18    537 0.13554100   1.008000   ; qtot 18.386096
  538         os     17    bbb     O1    538 -0.62587700  16.000000   ; qtot 17.760219
  539         hn     17    bbb    H19    539 0.23982500   1.008000   ; qtot 18.000044
; residue   18 bbb rtp bbb q 1.0
  540         n4     18    bbb     N1    540 0.03726400  14.010000   ; qtot 18.037308
  541         c3     18    bbb     C1    541 -0.07020100  12.010000   ; qtot 17.967107
  542         hx     18    bbb     H1    542 0.12219000   1.008000   ; qtot 18.089297
  543         hx     18    bbb     H2    543 0.12219000   1.008000   ; qtot 18.211487
  544         c3     18    bbb     C2    544 -0.07020100  12.010000   ; qtot 18.141286
  545         hx     18    bbb     H3    545 0.12219000   1.008000   ; qtot 18.263476
  546         hx     18    bbb     H4    546 0.12219000   1.008000   ; qtot 18.385666
  547         c3     18    bbb     C3    547 -0.39007700  12.010000   ; qtot 17.995589
  548         hx     18    bbb     H5    548 0.14940300   1.008000   ; qtot 18.144992
  549         hx     18    bbb     H6    549 0.14940300   1.008000   ; qtot 18.294395
  550         c3     18    bbb     C4    550 0.18057300  12.010000   ; qtot 18.474968
  551         hc     18    bbb     H7    551 0.01788900   1.008000   ; qtot 18.492857
  552         hc     18    bbb     H8    552 0.01788900   1.008000   ; qtot 18.510746
  553         c3     18    bbb     C5    553 -0.11337700  12.010000   ; qtot 18.397369
  554         hc     18    bbb     H9    554 0.09515400   1.008000   ; qtot 18.492523
  555         hc     18    bbb    H10    555 0.09515400   1.008000   ; qtot 18.587677
  556         c3     18    bbb     C6    556 -0.11337700  12.010000   ; qtot 18.474300
  557         hc     18    bbb    H11    557 0.09515400   1.008000   ; qtot 18.569454
  558         hc     18    bbb    H12    558 0.09515400   1.008000   ; qtot 18.664608
  559         c3     18    bbb     C7    559 0.21842400  12.010000   ; qtot 18.883032
  560         h1     18    bbb    H13    560 0.04500300   1.008000   ; qtot 18.928035
  561         h1     18    bbb    H14    561 0.04500300   1.008000   ; qtot 18.973038
  562         c3     18    bbb     C8    562 -0.06455200  12.010000   ; qtot 18.908486
  563         h1     18    bbb    H15    563 0.13554100   1.008000   ; qtot 19.044027
  564         h1     18    bbb    H16    564 0.13554100   1.008000   ; qtot 19.179568
  565         c3     18    bbb     C9    565 -0.06455200  12.010000   ; qtot 19.115016
  566         h1     18    bbb    H17    566 0.13554100   1.008000   ; qtot 19.250557
  567         h1     18    bbb    H18    567 0.13554100   1.008000   ; qtot 19.386098
  568         os     18    bbb     O1    568 -0.62587700  16.000000   ; qtot 18.760221
  569         hn     18    bbb    H19    569 0.23982500   1.008000   ; qtot 19.000046
; residue   19 bbb rtp bbb q 1.0
  570         n4     19    bbb     N1    570 0.03726400  14.010000   ; qtot 19.037310
  571         c3     19    bbb     C1    571 -0.07020100  12.010000   ; qtot 18.967109
  572         hx     19    bbb     H1    572 0.12219000   1.008000   ; qtot 19.089299
  573         hx     19    bbb     H2    573 0.12219000   1.008000   ; qtot 19.211489
  574         c3     19    bbb     C2    574 -0.07020100  12.010000   ; qtot 19.141288
  575         hx     19    bbb     H3    575 0.12219000   1.008000   ; qtot 19.263478
  576         hx     19    bbb     H4    576 0.12219000   1.008000   ; qtot 19.385668
  577         c3     19    bbb     C3    577 -0.39007700  12.010000   ; qtot 18.995591
  578         hx     19    bbb     H5    578 0.14940300   1.008000   ; qtot 19.144994
  579         hx     19    bbb     H6    579 0.14940300   1.008000   ; qtot 19.294397
  580         c3     19    bbb     C4    580 0.18057300  12.010000   ; qtot 19.474970
  581         hc     19    bbb     H7    581 0.01788900   1.008000   ; qtot 19.492859
  582         hc     19    bbb     H8    582 0.01788900   1.008000   ; qtot 19.510748
  583         c3     19    bbb     C5    583 -0.11337700  12.010000   ; qtot 19.397371
  584         hc     19    bbb     H9    584 0.09515400   1.008000   ; qtot 19.492525
  585         hc     19    bbb    H10    585 0.09515400   1.008000   ; qtot 19.587679
  586         c3     19    bbb     C6    586 -0.11337700  12.010000   ; qtot 19.474302
  587         hc     19    bbb    H11    587 0.09515400   1.008000   ; qtot 19.569456
  588         hc     19    bbb    H12    588 0.09515400   1.008000   ; qtot 19.664610
  589         c3     19    bbb     C7    589 0.21842400  12.010000   ; qtot 19.883034
  590         h1     19    bbb    H13    590 0.04500300   1.008000   ; qtot 19.928037
  591         h1     19    bbb    H14    591 0.04500300   1.008000   ; qtot 19.973040
  592         c3     19    bbb     C8    592 -0.06455200  12.010000   ; qtot 19.908488
  593         h1     19    bbb    H15    593 0.13554100   1.008000   ; qtot 20.044029
  594         h1     19    bbb    H16    594 0.13554100   1.008000   ; qtot 20.179570
  595         c3     19    bbb     C9    595 -0.06455200  12.010000   ; qtot 20.115018
  596         h1     19    bbb    H17    596 0.13554100   1.008000   ; qtot 20.250559
  597         h1     19    bbb    H18    597 0.13554100   1.008000   ; qtot 20.386100
  598         os     19    bbb     O1    598 -0.62587700  16.000000   ; qtot 19.760223
  599         hn     19    bbb    H19    599 0.23982500   1.008000   ; qtot 20.000048
; residue   20 bbb rtp bbb q 1.0
  600         n4     20    bbb     N1    600 0.03726400  14.010000   ; qtot 20.037312
  601         c3     20    bbb     C1    601 -0.07020100  12.010000   ; qtot 19.967111
  602         hx     20    bbb     H1    602 0.12219000   1.008000   ; qtot 20.089301
  603         hx     20    bbb     H2    603 0.12219000   1.008000   ; qtot 20.211491
  604         c3     20    bbb     C2    604 -0.07020100  12.010000   ; qtot 20.141290
  605         hx     20    bbb     H3    605 0.12219000   1.008000   ; qtot 20.263480
  606         hx     20    bbb     H4    606 0.12219000   1.008000   ; qtot 20.385670
  607         c3     20    bbb     C3    607 -0.39007700  12.010000   ; qtot 19.995593
  608         hx     20    bbb     H5    608 0.14940300   1.008000   ; qtot 20.144996
  609         hx     20    bbb     H6    609 0.14940300   1.008000   ; qtot 20.294399
  610         c3     20    bbb     C4    610 0.18057300  12.010000   ; qtot 20.474972
  611         hc     20    bbb     H7    611 0.01788900   1.008000   ; qtot 20.492861
  612         hc     20    bbb     H8    612 0.01788900   1.008000   ; qtot 20.510750
  613         c3     20    bbb     C5    613 -0.11337700  12.010000   ; qtot 20.397373
  614         hc     20    bbb     H9    614 0.09515400   1.008000   ; qtot 20.492527
  615         hc     20    bbb    H10    615 0.09515400   1.008000   ; qtot 20.587681
  616         c3     20    bbb     C6    616 -0.11337700  12.010000   ; qtot 20.474304
  617         hc     20    bbb    H11    617 0.09515400   1.008000   ; qtot 20.569458
  618         hc     20    bbb    H12    618 0.09515400   1.008000   ; qtot 20.664612
  619         c3     20    bbb     C7    619 0.21842400  12.010000   ; qtot 20.883036
  620         h1     20    bbb    H13    620 0.04500300   1.008000   ; qtot 20.928039
  621         h1     20    bbb    H14    621 0.04500300   1.008000   ; qtot 20.973042
  622         c3     20    bbb     C8    622 -0.06455200  12.010000   ; qtot 20.908490
  623         h1     20    bbb    H15    623 0.13554100   1.008000   ; qtot 21.044031
  624         h1     20    bbb    H16    624 0.13554100   1.008000   ; qtot 21.179572
  625         c3     20    bbb     C9    625 -0.06455200  12.010000   ; qtot 21.115020
  626         h1     20    bbb    H17    626 0.13554100   1.008000   ; qtot 21.250561
  627         h1     20    bbb    H18    627 0.13554100   1.008000   ; qtot 21.386102
  628         os     20    bbb     O1    628 -0.62587700  16.000000   ; qtot 20.760225
  629         hn     20    bbb    H19    629 0.23982500   1.008000   ; qtot 21.000050
; residue   21 bbb rtp bbb q 1.0
  630         n4     21    bbb     N1    630 0.03726400  14.010000   ; qtot 21.037314
  631         c3     21    bbb     C1    631 -0.07020100  12.010000   ; qtot 20.967113
  632         hx     21    bbb     H1    632 0.12219000   1.008000   ; qtot 21.089303
  633         hx     21    bbb     H2    633 0.12219000   1.008000   ; qtot 21.211493
  634         c3     21    bbb     C2    634 -0.07020100  12.010000   ; qtot 21.141292
  635         hx     21    bbb     H3    635 0.12219000   1.008000   ; qtot 21.263482
  636         hx     21    bbb     H4    636 0.12219000   1.008000   ; qtot 21.385672
  637         c3     21    bbb     C3    637 -0.39007700  12.010000   ; qtot 20.995595
  638         hx     21    bbb     H5    638 0.14940300   1.008000   ; qtot 21.144998
  639         hx     21    bbb     H6    639 0.14940300   1.008000   ; qtot 21.294401
  640         c3     21    bbb     C4    640 0.18057300  12.010000   ; qtot 21.474974
  641         hc     21    bbb     H7    641 0.01788900   1.008000   ; qtot 21.492863
  642         hc     21    bbb     H8    642 0.01788900   1.008000   ; qtot 21.510752
  643         c3     21    bbb     C5    643 -0.11337700  12.010000   ; qtot 21.397375
  644         hc     21    bbb     H9    644 0.09515400   1.008000   ; qtot 21.492529
  645         hc     21    bbb    H10    645 0.09515400   1.008000   ; qtot 21.587683
  646         c3     21    bbb     C6    646 -0.11337700  12.010000   ; qtot 21.474306
  647         hc     21    bbb    H11    647 0.09515400   1.008000   ; qtot 21.569460
  648         hc     21    bbb    H12    648 0.09515400   1.008000   ; qtot 21.664614
  649         c3     21    bbb     C7    649 0.21842400  12.010000   ; qtot 21.883038
  650         h1     21    bbb    H13    650 0.04500300   1.008000   ; qtot 21.928041
  651         h1     21    bbb    H14    651 0.04500300   1.008000   ; qtot 21.973044
  652         c3     21    bbb     C8    652 -0.06455200  12.010000   ; qtot 21.908492
  653         h1     21    bbb    H15    653 0.13554100   1.008000   ; qtot 22.044033
  654         h1     21    bbb    H16    654 0.13554100   1.008000   ; qtot 22.179574
  655         c3     21    bbb     C9    655 -0.06455200  12.010000   ; qtot 22.115022
  656         h1     21    bbb    H17    656 0.13554100   1.008000   ; qtot 22.250563
  657         h1     21    bbb    H18    657 0.13554100   1.008000   ; qtot 22.386104
  658         os     21    bbb     O1    658 -0.62587700  16.000000   ; qtot 21.760227
  659         hn     21    bbb    H19    659 0.23982500   1.008000   ; qtot 22.000052
; residue   22 bbb rtp bbb q 1.0
  660         n4     22    bbb     N1    660 0.03726400  14.010000   ; qtot 22.037316
  661         c3     22    bbb     C1    661 -0.07020100  12.010000   ; qtot 21.967115
  662         hx     22    bbb     H1    662 0.12219000   1.008000   ; qtot 22.089305
  663         hx     22    bbb     H2    663 0.12219000   1.008000   ; qtot 22.211495
  664         c3     22    bbb     C2    664 -0.07020100  12.010000   ; qtot 22.141294
  665         hx     22    bbb     H3    665 0.12219000   1.008000   ; qtot 22.263484
  666         hx     22    bbb     H4    666 0.12219000   1.008000   ; qtot 22.385674
  667         c3     22    bbb     C3    667 -0.39007700  12.010000   ; qtot 21.995597
  668         hx     22    bbb     H5    668 0.14940300   1.008000   ; qtot 22.145000
  669         hx     22    bbb     H6    669 0.14940300   1.008000   ; qtot 22.294403
  670         c3     22    bbb     C4    670 0.18057300  12.010000   ; qtot 22.474976
  671         hc     22    bbb     H7    671 0.01788900   1.008000   ; qtot 22.492865
  672         hc     22    bbb     H8    672 0.01788900   1.008000   ; qtot 22.510754
  673         c3     22    bbb     C5    673 -0.11337700  12.010000   ; qtot 22.397377
  674         hc     22    bbb     H9    674 0.09515400   1.008000   ; qtot 22.492531
  675         hc     22    bbb    H10    675 0.09515400   1.008000   ; qtot 22.587685
  676         c3     22    bbb     C6    676 -0.11337700  12.010000   ; qtot 22.474308
  677         hc     22    bbb    H11    677 0.09515400   1.008000   ; qtot 22.569462
  678         hc     22    bbb    H12    678 0.09515400   1.008000   ; qtot 22.664616
  679         c3     22    bbb     C7    679 0.21842400  12.010000   ; qtot 22.883040
  680         h1     22    bbb    H13    680 0.04500300   1.008000   ; qtot 22.928043
  681         h1     22    bbb    H14    681 0.04500300   1.008000   ; qtot 22.973046
  682         c3     22    bbb     C8    682 -0.06455200  12.010000   ; qtot 22.908494
  683         h1     22    bbb    H15    683 0.13554100   1.008000   ; qtot 23.044035
  684         h1     22    bbb    H16    684 0.13554100   1.008000   ; qtot 23.179576
  685         c3     22    bbb     C9    685 -0.06455200  12.010000   ; qtot 23.115024
  686         h1     22    bbb    H17    686 0.13554100   1.008000   ; qtot 23.250565
  687         h1     22    bbb    H18    687 0.13554100   1.008000   ; qtot 23.386106
  688         os     22    bbb     O1    688 -0.62587700  16.000000   ; qtot 22.760229
  689         hn     22    bbb    H19    689 0.23982500   1.008000   ; qtot 23.000054
; residue   23 bbb rtp bbb q 1.0
  690         n4     23    bbb     N1    690 0.03726400  14.010000   ; qtot 23.037318
  691         c3     23    bbb     C1    691 -0.07020100  12.010000   ; qtot 22.967117
  692         hx     23    bbb     H1    692 0.12219000   1.008000   ; qtot 23.089307
  693         hx     23    bbb     H2    693 0.12219000   1.008000   ; qtot 23.211497
  694         c3     23    bbb     C2    694 -0.07020100  12.010000   ; qtot 23.141296
  695         hx     23    bbb     H3    695 0.12219000   1.008000   ; qtot 23.263486
  696         hx     23    bbb     H4    696 0.12219000   1.008000   ; qtot 23.385676
  697         c3     23    bbb     C3    697 -0.39007700  12.010000   ; qtot 22.995599
  698         hx     23    bbb     H5    698 0.14940300   1.008000   ; qtot 23.145002
  699         hx     23    bbb     H6    699 0.14940300   1.008000   ; qtot 23.294405
  700         c3     23    bbb     C4    700 0.18057300  12.010000   ; qtot 23.474978
  701         hc     23    bbb     H7    701 0.01788900   1.008000   ; qtot 23.492867
  702         hc     23    bbb     H8    702 0.01788900   1.008000   ; qtot 23.510756
  703         c3     23    bbb     C5    703 -0.11337700  12.010000   ; qtot 23.397379
  704         hc     23    bbb     H9    704 0.09515400   1.008000   ; qtot 23.492533
  705         hc     23    bbb    H10    705 0.09515400   1.008000   ; qtot 23.587687
  706         c3     23    bbb     C6    706 -0.11337700  12.010000   ; qtot 23.474310
  707         hc     23    bbb    H11    707 0.09515400   1.008000   ; qtot 23.569464
  708         hc     23    bbb    H12    708 0.09515400   1.008000   ; qtot 23.664618
  709         c3     23    bbb     C7    709 0.21842400  12.010000   ; qtot 23.883042
  710         h1     23    bbb    H13    710 0.04500300   1.008000   ; qtot 23.928045
  711         h1     23    bbb    H14    711 0.04500300   1.008000   ; qtot 23.973048
  712         c3     23    bbb     C8    712 -0.06455200  12.010000   ; qtot 23.908496
  713         h1     23    bbb    H15    713 0.13554100   1.008000   ; qtot 24.044037
  714         h1     23    bbb    H16    714 0.13554100   1.008000   ; qtot 24.179578
  715         c3     23    bbb     C9    715 -0.06455200  12.010000   ; qtot 24.115026
  716         h1     23    bbb    H17    716 0.13554100   1.008000   ; qtot 24.250567
  717         h1     23    bbb    H18    717 0.13554100   1.008000   ; qtot 24.386108
  718         os     23    bbb     O1    718 -0.62587700  16.000000   ; qtot 23.760231
  719         hn     23    bbb    H19    719 0.23982500   1.008000   ; qtot 24.000056
; residue   24 bbb rtp bbb q 1.0
  720         n4     24    bbb     N1    720 0.03726400  14.010000   ; qtot 24.037320
  721         c3     24    bbb     C1    721 -0.07020100  12.010000   ; qtot 23.967119
  722         hx     24    bbb     H1    722 0.12219000   1.008000   ; qtot 24.089309
  723         hx     24    bbb     H2    723 0.12219000   1.008000   ; qtot 24.211499
  724         c3     24    bbb     C2    724 -0.07020100  12.010000   ; qtot 24.141298
  725         hx     24    bbb     H3    725 0.12219000   1.008000   ; qtot 24.263488
  726         hx     24    bbb     H4    726 0.12219000   1.008000   ; qtot 24.385678
  727         c3     24    bbb     C3    727 -0.39007700  12.010000   ; qtot 23.995601
  728         hx     24    bbb     H5    728 0.14940300   1.008000   ; qtot 24.145004
  729         hx     24    bbb     H6    729 0.14940300   1.008000   ; qtot 24.294407
  730         c3     24    bbb     C4    730 0.18057300  12.010000   ; qtot 24.474980
  731         hc     24    bbb     H7    731 0.01788900   1.008000   ; qtot 24.492869
  732         hc     24    bbb     H8    732 0.01788900   1.008000   ; qtot 24.510758
  733         c3     24    bbb     C5    733 -0.11337700  12.010000   ; qtot 24.397381
  734         hc     24    bbb     H9    734 0.09515400   1.008000   ; qtot 24.492535
  735         hc     24    bbb    H10    735 0.09515400   1.008000   ; qtot 24.587689
  736         c3     24    bbb     C6    736 -0.11337700  12.010000   ; qtot 24.474312
  737         hc     24    bbb    H11    737 0.09515400   1.008000   ; qtot 24.569466
  738         hc     24    bbb    H12    738 0.09515400   1.008000   ; qtot 24.664620
  739         c3     24    bbb     C7    739 0.21842400  12.010000   ; qtot 24.883044
  740         h1     24    bbb    H13    740 0.04500300   1.008000   ; qtot 24.928047
  741         h1     24    bbb    H14    741 0.04500300   1.008000   ; qtot 24.973050
  742         c3     24    bbb     C8    742 -0.06455200  12.010000   ; qtot 24.908498
  743         h1     24    bbb    H15    743 0.13554100   1.008000   ; qtot 25.044039
  744         h1     24    bbb    H16    744 0.13554100   1.008000   ; qtot 25.179580
  745         c3     24    bbb     C9    745 -0.06455200  12.010000   ; qtot 25.115028
  746         h1     24    bbb    H17    746 0.13554100   1.008000   ; qtot 25.250569
  747         h1     24    bbb    H18    747 0.13554100   1.008000   ; qtot 25.386110
  748         os     24    bbb     O1    748 -0.62587700  16.000000   ; qtot 24.760233
  749         hn     24    bbb    H19    749 0.23982500   1.008000   ; qtot 25.000058
; residue   25 bbb rtp bbb q 1.0
  750         n4     25    bbb     N1    750 0.03726400  14.010000   ; qtot 25.037322
  751         c3     25    bbb     C1    751 -0.07020100  12.010000   ; qtot 24.967121
  752         hx     25    bbb     H1    752 0.12219000   1.008000   ; qtot 25.089311
  753         hx     25    bbb     H2    753 0.12219000   1.008000   ; qtot 25.211501
  754         c3     25    bbb     C2    754 -0.07020100  12.010000   ; qtot 25.141300
  755         hx     25    bbb     H3    755 0.12219000   1.008000   ; qtot 25.263490
  756         hx     25    bbb     H4    756 0.12219000   1.008000   ; qtot 25.385680
  757         c3     25    bbb     C3    757 -0.39007700  12.010000   ; qtot 24.995603
  758         hx     25    bbb     H5    758 0.14940300   1.008000   ; qtot 25.145006
  759         hx     25    bbb     H6    759 0.14940300   1.008000   ; qtot 25.294409
  760         c3     25    bbb     C4    760 0.18057300  12.010000   ; qtot 25.474982
  761         hc     25    bbb     H7    761 0.01788900   1.008000   ; qtot 25.492871
  762         hc     25    bbb     H8    762 0.01788900   1.008000   ; qtot 25.510760
  763         c3     25    bbb     C5    763 -0.11337700  12.010000   ; qtot 25.397383
  764         hc     25    bbb     H9    764 0.09515400   1.008000   ; qtot 25.492537
  765         hc     25    bbb    H10    765 0.09515400   1.008000   ; qtot 25.587691
  766         c3     25    bbb     C6    766 -0.11337700  12.010000   ; qtot 25.474314
  767         hc     25    bbb    H11    767 0.09515400   1.008000   ; qtot 25.569468
  768         hc     25    bbb    H12    768 0.09515400   1.008000   ; qtot 25.664622
  769         c3     25    bbb     C7    769 0.21842400  12.010000   ; qtot 25.883046
  770         h1     25    bbb    H13    770 0.04500300   1.008000   ; qtot 25.928049
  771         h1     25    bbb    H14    771 0.04500300   1.008000   ; qtot 25.973052
  772         c3     25    bbb     C8    772 -0.06455200  12.010000   ; qtot 25.908500
  773         h1     25    bbb    H15    773 0.13554100   1.008000   ; qtot 26.044041
  774         h1     25    bbb    H16    774 0.13554100   1.008000   ; qtot 26.179582
  775         c3     25    bbb     C9    775 -0.06455200  12.010000   ; qtot 26.115030
  776         h1     25    bbb    H17    776 0.13554100   1.008000   ; qtot 26.250571
  777         h1     25    bbb    H18    777 0.13554100   1.008000   ; qtot 26.386112
  778         os     25    bbb     O1    778 -0.62587700  16.000000   ; qtot 25.760235
  779         hn     25    bbb    H19    779 0.23982500   1.008000   ; qtot 26.000060
; residue   26 bbb rtp bbb q 1.0
  780         n4     26    bbb     N1    780 0.03726400  14.010000   ; qtot 26.037324
  781         c3     26    bbb     C1    781 -0.07020100  12.010000   ; qtot 25.967123
  782         hx     26    bbb     H1    782 0.12219000   1.008000   ; qtot 26.089313
  783         hx     26    bbb     H2    783 0.12219000   1.008000   ; qtot 26.211503
  784         c3     26    bbb     C2    784 -0.07020100  12.010000   ; qtot 26.141302
  785         hx     26    bbb     H3    785 0.12219000   1.008000   ; qtot 26.263492
  786         hx     26    bbb     H4    786 0.12219000   1.008000   ; qtot 26.385682
  787         c3     26    bbb     C3    787 -0.39007700  12.010000   ; qtot 25.995605
  788         hx     26    bbb     H5    788 0.14940300   1.008000   ; qtot 26.145008
  789         hx     26    bbb     H6    789 0.14940300   1.008000   ; qtot 26.294411
  790         c3     26    bbb     C4    790 0.18057300  12.010000   ; qtot 26.474984
  791         hc     26    bbb     H7    791 0.01788900   1.008000   ; qtot 26.492873
  792         hc     26    bbb     H8    792 0.01788900   1.008000   ; qtot 26.510762
  793         c3     26    bbb     C5    793 -0.11337700  12.010000   ; qtot 26.397385
  794         hc     26    bbb     H9    794 0.09515400   1.008000   ; qtot 26.492539
  795         hc     26    bbb    H10    795 0.09515400   1.008000   ; qtot 26.587693
  796         c3     26    bbb     C6    796 -0.11337700  12.010000   ; qtot 26.474316
  797         hc     26    bbb    H11    797 0.09515400   1.008000   ; qtot 26.569470
  798         hc     26    bbb    H12    798 0.09515400   1.008000   ; qtot 26.664624
  799         c3     26    bbb     C7    799 0.21842400  12.010000   ; qtot 26.883048
  800         h1     26    bbb    H13    800 0.04500300   1.008000   ; qtot 26.928051
  801         h1     26    bbb    H14    801 0.04500300   1.008000   ; qtot 26.973054
  802         c3     26    bbb     C8    802 -0.06455200  12.010000   ; qtot 26.908502
  803         h1     26    bbb    H15    803 0.13554100   1.008000   ; qtot 27.044043
  804         h1     26    bbb    H16    804 0.13554100   1.008000   ; qtot 27.179584
  805         c3     26    bbb     C9    805 -0.06455200  12.010000   ; qtot 27.115032
  806         h1     26    bbb    H17    806 0.13554100   1.008000   ; qtot 27.250573
  807         h1     26    bbb    H18    807 0.13554100   1.008000   ; qtot 27.386114
  808         os     26    bbb     O1    808 -0.62587700  16.000000   ; qtot 26.760237
  809         hn     26    bbb    H19    809 0.23982500   1.008000   ; qtot 27.000062
; residue   27 bbb rtp bbb q 1.0
  810         n4     27    bbb     N1    810 0.03726400  14.010000   ; qtot 27.037326
  811         c3     27    bbb     C1    811 -0.07020100  12.010000   ; qtot 26.967125
  812         hx     27    bbb     H1    812 0.12219000   1.008000   ; qtot 27.089315
  813         hx     27    bbb     H2    813 0.12219000   1.008000   ; qtot 27.211505
  814         c3     27    bbb     C2    814 -0.07020100  12.010000   ; qtot 27.141304
  815         hx     27    bbb     H3    815 0.12219000   1.008000   ; qtot 27.263494
  816         hx     27    bbb     H4    816 0.12219000   1.008000   ; qtot 27.385684
  817         c3     27    bbb     C3    817 -0.39007700  12.010000   ; qtot 26.995607
  818         hx     27    bbb     H5    818 0.14940300   1.008000   ; qtot 27.145010
  819         hx     27    bbb     H6    819 0.14940300   1.008000   ; qtot 27.294413
  820         c3     27    bbb     C4    820 0.18057300  12.010000   ; qtot 27.474986
  821         hc     27    bbb     H7    821 0.01788900   1.008000   ; qtot 27.492875
  822         hc     27    bbb     H8    822 0.01788900   1.008000   ; qtot 27.510764
  823         c3     27    bbb     C5    823 -0.11337700  12.010000   ; qtot 27.397387
  824         hc     27    bbb     H9    824 0.09515400   1.008000   ; qtot 27.492541
  825         hc     27    bbb    H10    825 0.09515400   1.008000   ; qtot 27.587695
  826         c3     27    bbb     C6    826 -0.11337700  12.010000   ; qtot 27.474318
  827         hc     27    bbb    H11    827 0.09515400   1.008000   ; qtot 27.569472
  828         hc     27    bbb    H12    828 0.09515400   1.008000   ; qtot 27.664626
  829         c3     27    bbb     C7    829 0.21842400  12.010000   ; qtot 27.883050
  830         h1     27    bbb    H13    830 0.04500300   1.008000   ; qtot 27.928053
  831         h1     27    bbb    H14    831 0.04500300   1.008000   ; qtot 27.973056
  832         c3     27    bbb     C8    832 -0.06455200  12.010000   ; qtot 27.908504
  833         h1     27    bbb    H15    833 0.13554100   1.008000   ; qtot 28.044045
  834         h1     27    bbb    H16    834 0.13554100   1.008000   ; qtot 28.179586
  835         c3     27    bbb     C9    835 -0.06455200  12.010000   ; qtot 28.115034
  836         h1     27    bbb    H17    836 0.13554100   1.008000   ; qtot 28.250575
  837         h1     27    bbb    H18    837 0.13554100   1.008000   ; qtot 28.386116
  838         os     27    bbb     O1    838 -0.62587700  16.000000   ; qtot 27.760239
  839         hn     27    bbb    H19    839 0.23982500   1.008000   ; qtot 28.000064
; residue   28 bbb rtp bbb q 1.0
  840         n4     28    bbb     N1    840 0.03726400  14.010000   ; qtot 28.037328
  841         c3     28    bbb     C1    841 -0.07020100  12.010000   ; qtot 27.967127
  842         hx     28    bbb     H1    842 0.12219000   1.008000   ; qtot 28.089317
  843         hx     28    bbb     H2    843 0.12219000   1.008000   ; qtot 28.211507
  844         c3     28    bbb     C2    844 -0.07020100  12.010000   ; qtot 28.141306
  845         hx     28    bbb     H3    845 0.12219000   1.008000   ; qtot 28.263496
  846         hx     28    bbb     H4    846 0.12219000   1.008000   ; qtot 28.385686
  847         c3     28    bbb     C3    847 -0.39007700  12.010000   ; qtot 27.995609
  848         hx     28    bbb     H5    848 0.14940300   1.008000   ; qtot 28.145012
  849         hx     28    bbb     H6    849 0.14940300   1.008000   ; qtot 28.294415
  850         c3     28    bbb     C4    850 0.18057300  12.010000   ; qtot 28.474988
  851         hc     28    bbb     H7    851 0.01788900   1.008000   ; qtot 28.492877
  852         hc     28    bbb     H8    852 0.01788900   1.008000   ; qtot 28.510766
  853         c3     28    bbb     C5    853 -0.11337700  12.010000   ; qtot 28.397389
  854         hc     28    bbb     H9    854 0.09515400   1.008000   ; qtot 28.492543
  855         hc     28    bbb    H10    855 0.09515400   1.008000   ; qtot 28.587697
  856         c3     28    bbb     C6    856 -0.11337700  12.010000   ; qtot 28.474320
  857         hc     28    bbb    H11    857 0.09515400   1.008000   ; qtot 28.569474
  858         hc     28    bbb    H12    858 0.09515400   1.008000   ; qtot 28.664628
  859         c3     28    bbb     C7    859 0.21842400  12.010000   ; qtot 28.883052
  860         h1     28    bbb    H13    860 0.04500300   1.008000   ; qtot 28.928055
  861         h1     28    bbb    H14    861 0.04500300   1.008000   ; qtot 28.973058
  862         c3     28    bbb     C8    862 -0.06455200  12.010000   ; qtot 28.908506
  863         h1     28    bbb    H15    863 0.13554100   1.008000   ; qtot 29.044047
  864         h1     28    bbb    H16    864 0.13554100   1.008000   ; qtot 29.179588
  865         c3     28    bbb     C9    865 -0.06455200  12.010000   ; qtot 29.115036
  866         h1     28    bbb    H17    866 0.13554100   1.008000   ; qtot 29.250577
  867         h1     28    bbb    H18    867 0.13554100   1.008000   ; qtot 29.386118
  868         os     28    bbb     O1    868 -0.62587700  16.000000   ; qtot 28.760241
  869         hn     28    bbb    H19    869 0.23982500   1.008000   ; qtot 29.000066
; residue   29 bbb rtp bbb q 1.0
  870         n4     29    bbb     N1    870 0.03726400  14.010000   ; qtot 29.037330
  871         c3     29    bbb     C1    871 -0.07020100  12.010000   ; qtot 28.967129
  872         hx     29    bbb     H1    872 0.12219000   1.008000   ; qtot 29.089319
  873         hx     29    bbb     H2    873 0.12219000   1.008000   ; qtot 29.211509
  874         c3     29    bbb     C2    874 -0.07020100  12.010000   ; qtot 29.141308
  875         hx     29    bbb     H3    875 0.12219000   1.008000   ; qtot 29.263498
  876         hx     29    bbb     H4    876 0.12219000   1.008000   ; qtot 29.385688
  877         c3     29    bbb     C3    877 -0.39007700  12.010000   ; qtot 28.995611
  878         hx     29    bbb     H5    878 0.14940300   1.008000   ; qtot 29.145014
  879         hx     29    bbb     H6    879 0.14940300   1.008000   ; qtot 29.294417
  880         c3     29    bbb     C4    880 0.18057300  12.010000   ; qtot 29.474990
  881         hc     29    bbb     H7    881 0.01788900   1.008000   ; qtot 29.492879
  882         hc     29    bbb     H8    882 0.01788900   1.008000   ; qtot 29.510768
  883         c3     29    bbb     C5    883 -0.11337700  12.010000   ; qtot 29.397391
  884         hc     29    bbb     H9    884 0.09515400   1.008000   ; qtot 29.492545
  885         hc     29    bbb    H10    885 0.09515400   1.008000   ; qtot 29.587699
  886         c3     29    bbb     C6    886 -0.11337700  12.010000   ; qtot 29.474322
  887         hc     29    bbb    H11    887 0.09515400   1.008000   ; qtot 29.569476
  888         hc     29    bbb    H12    888 0.09515400   1.008000   ; qtot 29.664630
  889         c3     29    bbb     C7    889 0.21842400  12.010000   ; qtot 29.883054
  890         h1     29    bbb    H13    890 0.04500300   1.008000   ; qtot 29.928057
  891         h1     29    bbb    H14    891 0.04500300   1.008000   ; qtot 29.973060
  892         c3     29    bbb     C8    892 -0.06455200  12.010000   ; qtot 29.908508
  893         h1     29    bbb    H15    893 0.13554100   1.008000   ; qtot 30.044049
  894         h1     29    bbb    H16    894 0.13554100   1.008000   ; qtot 30.179590
  895         c3     29    bbb     C9    895 -0.06455200  12.010000   ; qtot 30.115038
  896         h1     29    bbb    H17    896 0.13554100   1.008000   ; qtot 30.250579
  897         h1     29    bbb    H18    897 0.13554100   1.008000   ; qtot 30.386120
  898         os     29    bbb     O1    898 -0.62587700  16.000000   ; qtot 29.760243
  899         hn     29    bbb    H19    899 0.23982500   1.008000   ; qtot 30.000068
; residue   30 bbb rtp bbb q 1.0
  900         n4     30    bbb     N1    900 0.03726400  14.010000   ; qtot 30.037332
  901         c3     30    bbb     C1    901 -0.07020100  12.010000   ; qtot 29.967131
  902         hx     30    bbb     H1    902 0.12219000   1.008000   ; qtot 30.089321
  903         hx     30    bbb     H2    903 0.12219000   1.008000   ; qtot 30.211511
  904         c3     30    bbb     C2    904 -0.07020100  12.010000   ; qtot 30.141310
  905         hx     30    bbb     H3    905 0.12219000   1.008000   ; qtot 30.263500
  906         hx     30    bbb     H4    906 0.12219000   1.008000   ; qtot 30.385690
  907         c3     30    bbb     C3    907 -0.39007700  12.010000   ; qtot 29.995613
  908         hx     30    bbb     H5    908 0.14940300   1.008000   ; qtot 30.145016
  909         hx     30    bbb     H6    909 0.14940300   1.008000   ; qtot 30.294419
  910         c3     30    bbb     C4    910 0.18057300  12.010000   ; qtot 30.474992
  911         hc     30    bbb     H7    911 0.01788900   1.008000   ; qtot 30.492881
  912         hc     30    bbb     H8    912 0.01788900   1.008000   ; qtot 30.510770
  913         c3     30    bbb     C5    913 -0.11337700  12.010000   ; qtot 30.397393
  914         hc     30    bbb     H9    914 0.09515400   1.008000   ; qtot 30.492547
  915         hc     30    bbb    H10    915 0.09515400   1.008000   ; qtot 30.587701
  916         c3     30    bbb     C6    916 -0.11337700  12.010000   ; qtot 30.474324
  917         hc     30    bbb    H11    917 0.09515400   1.008000   ; qtot 30.569478
  918         hc     30    bbb    H12    918 0.09515400   1.008000   ; qtot 30.664632
  919         c3     30    bbb     C7    919 0.21842400  12.010000   ; qtot 30.883056
  920         h1     30    bbb    H13    920 0.04500300   1.008000   ; qtot 30.928059
  921         h1     30    bbb    H14    921 0.04500300   1.008000   ; qtot 30.973062
  922         c3     30    bbb     C8    922 -0.06455200  12.010000   ; qtot 30.908510
  923         h1     30    bbb    H15    923 0.13554100   1.008000   ; qtot 31.044051
  924         h1     30    bbb    H16    924 0.13554100   1.008000   ; qtot 31.179592
  925         c3     30    bbb     C9    925 -0.06455200  12.010000   ; qtot 31.115040
  926         h1     30    bbb    H17    926 0.13554100   1.008000   ; qtot 31.250581
  927         h1     30    bbb    H18    927 0.13554100   1.008000   ; qtot 31.386122
  928         os     30    bbb     O1    928 -0.62587700  16.000000   ; qtot 30.760245
  929         hn     30    bbb    H19    929 0.23982500   1.008000   ; qtot 31.000070
; residue   31 bbb rtp bbb q 1.0
  930         n4     31    bbb     N1    930 0.03726400  14.010000   ; qtot 31.037334
  931         c3     31    bbb     C1    931 -0.07020100  12.010000   ; qtot 30.967133
  932         hx     31    bbb     H1    932 0.12219000   1.008000   ; qtot 31.089323
  933         hx     31    bbb     H2    933 0.12219000   1.008000   ; qtot 31.211513
  934         c3     31    bbb     C2    934 -0.07020100  12.010000   ; qtot 31.141312
  935         hx     31    bbb     H3    935 0.12219000   1.008000   ; qtot 31.263502
  936         hx     31    bbb     H4    936 0.12219000   1.008000   ; qtot 31.385692
  937         c3     31    bbb     C3    937 -0.39007700  12.010000   ; qtot 30.995615
  938         hx     31    bbb     H5    938 0.14940300   1.008000   ; qtot 31.145018
  939         hx     31    bbb     H6    939 0.14940300   1.008000   ; qtot 31.294421
  940         c3     31    bbb     C4    940 0.18057300  12.010000   ; qtot 31.474994
  941         hc     31    bbb     H7    941 0.01788900   1.008000   ; qtot 31.492883
  942         hc     31    bbb     H8    942 0.01788900   1.008000   ; qtot 31.510772
  943         c3     31    bbb     C5    943 -0.11337700  12.010000   ; qtot 31.397395
  944         hc     31    bbb     H9    944 0.09515400   1.008000   ; qtot 31.492549
  945         hc     31    bbb    H10    945 0.09515400   1.008000   ; qtot 31.587703
  946         c3     31    bbb     C6    946 -0.11337700  12.010000   ; qtot 31.474326
  947         hc     31    bbb    H11    947 0.09515400   1.008000   ; qtot 31.569480
  948         hc     31    bbb    H12    948 0.09515400   1.008000   ; qtot 31.664634
  949         c3     31    bbb     C7    949 0.21842400  12.010000   ; qtot 31.883058
  950         h1     31    bbb    H13    950 0.04500300   1.008000   ; qtot 31.928061
  951         h1     31    bbb    H14    951 0.04500300   1.008000   ; qtot 31.973064
  952         c3     31    bbb     C8    952 -0.06455200  12.010000   ; qtot 31.908512
  953         h1     31    bbb    H15    953 0.13554100   1.008000   ; qtot 32.044053
  954         h1     31    bbb    H16    954 0.13554100   1.008000   ; qtot 32.179594
  955         c3     31    bbb     C9    955 -0.06455200  12.010000   ; qtot 32.115042
  956         h1     31    bbb    H17    956 0.13554100   1.008000   ; qtot 32.250583
  957         h1     31    bbb    H18    957 0.13554100   1.008000   ; qtot 32.386124
  958         os     31    bbb     O1    958 -0.62587700  16.000000   ; qtot 31.760247
  959         hn     31    bbb    H19    959 0.23982500   1.008000   ; qtot 32.000072
; residue   32 bbb rtp bbb q 1.0
  960         n4     32    bbb     N1    960 0.03726400  14.010000   ; qtot 32.037336
  961         c3     32    bbb     C1    961 -0.07020100  12.010000   ; qtot 31.967135
  962         hx     32    bbb     H1    962 0.12219000   1.008000   ; qtot 32.089325
  963         hx     32    bbb     H2    963 0.12219000   1.008000   ; qtot 32.211515
  964         c3     32    bbb     C2    964 -0.07020100  12.010000   ; qtot 32.141314
  965         hx     32    bbb     H3    965 0.12219000   1.008000   ; qtot 32.263504
  966         hx     32    bbb     H4    966 0.12219000   1.008000   ; qtot 32.385694
  967         c3     32    bbb     C3    967 -0.39007700  12.010000   ; qtot 31.995617
  968         hx     32    bbb     H5    968 0.14940300   1.008000   ; qtot 32.145020
  969         hx     32    bbb     H6    969 0.14940300   1.008000   ; qtot 32.294423
  970         c3     32    bbb     C4    970 0.18057300  12.010000   ; qtot 32.474996
  971         hc     32    bbb     H7    971 0.01788900   1.008000   ; qtot 32.492885
  972         hc     32    bbb     H8    972 0.01788900   1.008000   ; qtot 32.510774
  973         c3     32    bbb     C5    973 -0.11337700  12.010000   ; qtot 32.397397
  974         hc     32    bbb     H9    974 0.09515400   1.008000   ; qtot 32.492551
  975         hc     32    bbb    H10    975 0.09515400   1.008000   ; qtot 32.587705
  976         c3     32    bbb     C6    976 -0.11337700  12.010000   ; qtot 32.474328
  977         hc     32    bbb    H11    977 0.09515400   1.008000   ; qtot 32.569482
  978         hc     32    bbb    H12    978 0.09515400   1.008000   ; qtot 32.664636
  979         c3     32    bbb     C7    979 0.21842400  12.010000   ; qtot 32.883060
  980         h1     32    bbb    H13    980 0.04500300   1.008000   ; qtot 32.928063
  981         h1     32    bbb    H14    981 0.04500300   1.008000   ; qtot 32.973066
  982         c3     32    bbb     C8    982 -0.06455200  12.010000   ; qtot 32.908514
  983         h1     32    bbb    H15    983 0.13554100   1.008000   ; qtot 33.044055
  984         h1     32    bbb    H16    984 0.13554100   1.008000   ; qtot 33.179596
  985         c3     32    bbb     C9    985 -0.06455200  12.010000   ; qtot 33.115044
  986         h1     32    bbb    H17    986 0.13554100   1.008000   ; qtot 33.250585
  987         h1     32    bbb    H18    987 0.13554100   1.008000   ; qtot 33.386126
  988         os     32    bbb     O1    988 -0.62587700  16.000000   ; qtot 32.760249
  989         hn     32    bbb    H19    989 0.23982500   1.008000   ; qtot 33.000074
; residue   33 bbb rtp bbb q 1.0
  990         n4     33    bbb     N1    990 0.03726400  14.010000   ; qtot 33.037338
  991         c3     33    bbb     C1    991 -0.07020100  12.010000   ; qtot 32.967137
  992         hx     33    bbb     H1    992 0.12219000   1.008000   ; qtot 33.089327
  993         hx     33    bbb     H2    993 0.12219000   1.008000   ; qtot 33.211517
  994         c3     33    bbb     C2    994 -0.07020100  12.010000   ; qtot 33.141316
  995         hx     33    bbb     H3    995 0.12219000   1.008000   ; qtot 33.263506
  996         hx     33    bbb     H4    996 0.12219000   1.008000   ; qtot 33.385696
  997         c3     33    bbb     C3    997 -0.39007700  12.010000   ; qtot 32.995619
  998         hx     33    bbb     H5    998 0.14940300   1.008000   ; qtot 33.145022
  999         hx     33    bbb     H6    999 0.14940300   1.008000   ; qtot 33.294425
 1000         c3     33    bbb     C4   1000 0.18057300  12.010000   ; qtot 33.474998
 1001         hc     33    bbb     H7   1001 0.01788900   1.008000   ; qtot 33.492887
 1002         hc     33    bbb     H8   1002 0.01788900   1.008000   ; qtot 33.510776
 1003         c3     33    bbb     C5   1003 -0.11337700  12.010000   ; qtot 33.397399
 1004         hc     33    bbb     H9   1004 0.09515400   1.008000   ; qtot 33.492553
 1005         hc     33    bbb    H10   1005 0.09515400   1.008000   ; qtot 33.587707
 1006         c3     33    bbb     C6   1006 -0.11337700  12.010000   ; qtot 33.474330
 1007         hc     33    bbb    H11   1007 0.09515400   1.008000   ; qtot 33.569484
 1008         hc     33    bbb    H12   1008 0.09515400   1.008000   ; qtot 33.664638
 1009         c3     33    bbb     C7   1009 0.21842400  12.010000   ; qtot 33.883062
 1010         h1     33    bbb    H13   1010 0.04500300   1.008000   ; qtot 33.928065
 1011         h1     33    bbb    H14   1011 0.04500300   1.008000   ; qtot 33.973068
 1012         c3     33    bbb     C8   1012 -0.06455200  12.010000   ; qtot 33.908516
 1013         h1     33    bbb    H15   1013 0.13554100   1.008000   ; qtot 34.044057
 1014         h1     33    bbb    H16   1014 0.13554100   1.008000   ; qtot 34.179598
 1015         c3     33    bbb     C9   1015 -0.06455200  12.010000   ; qtot 34.115046
 1016         h1     33    bbb    H17   1016 0.13554100   1.008000   ; qtot 34.250587
 1017         h1     33    bbb    H18   1017 0.13554100   1.008000   ; qtot 34.386128
 1018         os     33    bbb     O1   1018 -0.62587700  16.000000   ; qtot 33.760251
 1019         hn     33    bbb    H19   1019 0.23982500   1.008000   ; qtot 34.000076
; residue   34 bbb rtp bbb q 1.0
 1020         n4     34    bbb     N1   1020 0.03726400  14.010000   ; qtot 34.037340
 1021         c3     34    bbb     C1   1021 -0.07020100  12.010000   ; qtot 33.967139
 1022         hx     34    bbb     H1   1022 0.12219000   1.008000   ; qtot 34.089329
 1023         hx     34    bbb     H2   1023 0.12219000   1.008000   ; qtot 34.211519
 1024         c3     34    bbb     C2   1024 -0.07020100  12.010000   ; qtot 34.141318
 1025         hx     34    bbb     H3   1025 0.12219000   1.008000   ; qtot 34.263508
 1026         hx     34    bbb     H4   1026 0.12219000   1.008000   ; qtot 34.385698
 1027         c3     34    bbb     C3   1027 -0.39007700  12.010000   ; qtot 33.995621
 1028         hx     34    bbb     H5   1028 0.14940300   1.008000   ; qtot 34.145024
 1029         hx     34    bbb     H6   1029 0.14940300   1.008000   ; qtot 34.294427
 1030         c3     34    bbb     C4   1030 0.18057300  12.010000   ; qtot 34.475000
 1031         hc     34    bbb     H7   1031 0.01788900   1.008000   ; qtot 34.492889
 1032         hc     34    bbb     H8   1032 0.01788900   1.008000   ; qtot 34.510778
 1033         c3     34    bbb     C5   1033 -0.11337700  12.010000   ; qtot 34.397401
 1034         hc     34    bbb     H9   1034 0.09515400   1.008000   ; qtot 34.492555
 1035         hc     34    bbb    H10   1035 0.09515400   1.008000   ; qtot 34.587709
 1036         c3     34    bbb     C6   1036 -0.11337700  12.010000   ; qtot 34.474332
 1037         hc     34    bbb    H11   1037 0.09515400   1.008000   ; qtot 34.569486
 1038         hc     34    bbb    H12   1038 0.09515400   1.008000   ; qtot 34.664640
 1039         c3     34    bbb     C7   1039 0.21842400  12.010000   ; qtot 34.883064
 1040         h1     34    bbb    H13   1040 0.04500300   1.008000   ; qtot 34.928067
 1041         h1     34    bbb    H14   1041 0.04500300   1.008000   ; qtot 34.973070
 1042         c3     34    bbb     C8   1042 -0.06455200  12.010000   ; qtot 34.908518
 1043         h1     34    bbb    H15   1043 0.13554100   1.008000   ; qtot 35.044059
 1044         h1     34    bbb    H16   1044 0.13554100   1.008000   ; qtot 35.179600
 1045         c3     34    bbb     C9   1045 -0.06455200  12.010000   ; qtot 35.115048
 1046         h1     34    bbb    H17   1046 0.13554100   1.008000   ; qtot 35.250589
 1047         h1     34    bbb    H18   1047 0.13554100   1.008000   ; qtot 35.386130
 1048         os     34    bbb     O1   1048 -0.62587700  16.000000   ; qtot 34.760253
 1049         hn     34    bbb    H19   1049 0.23982500   1.008000   ; qtot 35.000078
; residue   35 bbb rtp bbb q 1.0
 1050         n4     35    bbb     N1   1050 0.03726400  14.010000   ; qtot 35.037342
 1051         c3     35    bbb     C1   1051 -0.07020100  12.010000   ; qtot 34.967141
 1052         hx     35    bbb     H1   1052 0.12219000   1.008000   ; qtot 35.089331
 1053         hx     35    bbb     H2   1053 0.12219000   1.008000   ; qtot 35.211521
 1054         c3     35    bbb     C2   1054 -0.07020100  12.010000   ; qtot 35.141320
 1055         hx     35    bbb     H3   1055 0.12219000   1.008000   ; qtot 35.263510
 1056         hx     35    bbb     H4   1056 0.12219000   1.008000   ; qtot 35.385700
 1057         c3     35    bbb     C3   1057 -0.39007700  12.010000   ; qtot 34.995623
 1058         hx     35    bbb     H5   1058 0.14940300   1.008000   ; qtot 35.145026
 1059         hx     35    bbb     H6   1059 0.14940300   1.008000   ; qtot 35.294429
 1060         c3     35    bbb     C4   1060 0.18057300  12.010000   ; qtot 35.475002
 1061         hc     35    bbb     H7   1061 0.01788900   1.008000   ; qtot 35.492891
 1062         hc     35    bbb     H8   1062 0.01788900   1.008000   ; qtot 35.510780
 1063         c3     35    bbb     C5   1063 -0.11337700  12.010000   ; qtot 35.397403
 1064         hc     35    bbb     H9   1064 0.09515400   1.008000   ; qtot 35.492557
 1065         hc     35    bbb    H10   1065 0.09515400   1.008000   ; qtot 35.587711
 1066         c3     35    bbb     C6   1066 -0.11337700  12.010000   ; qtot 35.474334
 1067         hc     35    bbb    H11   1067 0.09515400   1.008000   ; qtot 35.569488
 1068         hc     35    bbb    H12   1068 0.09515400   1.008000   ; qtot 35.664642
 1069         c3     35    bbb     C7   1069 0.21842400  12.010000   ; qtot 35.883066
 1070         h1     35    bbb    H13   1070 0.04500300   1.008000   ; qtot 35.928069
 1071         h1     35    bbb    H14   1071 0.04500300   1.008000   ; qtot 35.973072
 1072         c3     35    bbb     C8   1072 -0.06455200  12.010000   ; qtot 35.908520
 1073         h1     35    bbb    H15   1073 0.13554100   1.008000   ; qtot 36.044061
 1074         h1     35    bbb    H16   1074 0.13554100   1.008000   ; qtot 36.179602
 1075         c3     35    bbb     C9   1075 -0.06455200  12.010000   ; qtot 36.115050
 1076         h1     35    bbb    H17   1076 0.13554100   1.008000   ; qtot 36.250591
 1077         h1     35    bbb    H18   1077 0.13554100   1.008000   ; qtot 36.386132
 1078         os     35    bbb     O1   1078 -0.62587700  16.000000   ; qtot 35.760255
 1079         hn     35    bbb    H19   1079 0.23982500   1.008000   ; qtot 36.000080
; residue   36 bbb rtp bbb q 1.0
 1080         n4     36    bbb     N1   1080 0.03726400  14.010000   ; qtot 36.037344
 1081         c3     36    bbb     C1   1081 -0.07020100  12.010000   ; qtot 35.967143
 1082         hx     36    bbb     H1   1082 0.12219000   1.008000   ; qtot 36.089333
 1083         hx     36    bbb     H2   1083 0.12219000   1.008000   ; qtot 36.211523
 1084         c3     36    bbb     C2   1084 -0.07020100  12.010000   ; qtot 36.141322
 1085         hx     36    bbb     H3   1085 0.12219000   1.008000   ; qtot 36.263512
 1086         hx     36    bbb     H4   1086 0.12219000   1.008000   ; qtot 36.385702
 1087         c3     36    bbb     C3   1087 -0.39007700  12.010000   ; qtot 35.995625
 1088         hx     36    bbb     H5   1088 0.14940300   1.008000   ; qtot 36.145028
 1089         hx     36    bbb     H6   1089 0.14940300   1.008000   ; qtot 36.294431
 1090         c3     36    bbb     C4   1090 0.18057300  12.010000   ; qtot 36.475004
 1091         hc     36    bbb     H7   1091 0.01788900   1.008000   ; qtot 36.492893
 1092         hc     36    bbb     H8   1092 0.01788900   1.008000   ; qtot 36.510782
 1093         c3     36    bbb     C5   1093 -0.11337700  12.010000   ; qtot 36.397405
 1094         hc     36    bbb     H9   1094 0.09515400   1.008000   ; qtot 36.492559
 1095         hc     36    bbb    H10   1095 0.09515400   1.008000   ; qtot 36.587713
 1096         c3     36    bbb     C6   1096 -0.11337700  12.010000   ; qtot 36.474336
 1097         hc     36    bbb    H11   1097 0.09515400   1.008000   ; qtot 36.569490
 1098         hc     36    bbb    H12   1098 0.09515400   1.008000   ; qtot 36.664644
 1099         c3     36    bbb     C7   1099 0.21842400  12.010000   ; qtot 36.883068
 1100         h1     36    bbb    H13   1100 0.04500300   1.008000   ; qtot 36.928071
 1101         h1     36    bbb    H14   1101 0.04500300   1.008000   ; qtot 36.973074
 1102         c3     36    bbb     C8   1102 -0.06455200  12.010000   ; qtot 36.908522
 1103         h1     36    bbb    H15   1103 0.13554100   1.008000   ; qtot 37.044063
 1104         h1     36    bbb    H16   1104 0.13554100   1.008000   ; qtot 37.179604
 1105         c3     36    bbb     C9   1105 -0.06455200  12.010000   ; qtot 37.115052
 1106         h1     36    bbb    H17   1106 0.13554100   1.008000   ; qtot 37.250593
 1107         h1     36    bbb    H18   1107 0.13554100   1.008000   ; qtot 37.386134
 1108         os     36    bbb     O1   1108 -0.62587700  16.000000   ; qtot 36.760257
 1109         hn     36    bbb    H19   1109 0.23982500   1.008000   ; qtot 37.000082
; residue   37 bbb rtp bbb q 1.0
 1110         n4     37    bbb     N1   1110 0.03726400  14.010000   ; qtot 37.037346
 1111         c3     37    bbb     C1   1111 -0.07020100  12.010000   ; qtot 36.967145
 1112         hx     37    bbb     H1   1112 0.12219000   1.008000   ; qtot 37.089335
 1113         hx     37    bbb     H2   1113 0.12219000   1.008000   ; qtot 37.211525
 1114         c3     37    bbb     C2   1114 -0.07020100  12.010000   ; qtot 37.141324
 1115         hx     37    bbb     H3   1115 0.12219000   1.008000   ; qtot 37.263514
 1116         hx     37    bbb     H4   1116 0.12219000   1.008000   ; qtot 37.385704
 1117         c3     37    bbb     C3   1117 -0.39007700  12.010000   ; qtot 36.995627
 1118         hx     37    bbb     H5   1118 0.14940300   1.008000   ; qtot 37.145030
 1119         hx     37    bbb     H6   1119 0.14940300   1.008000   ; qtot 37.294433
 1120         c3     37    bbb     C4   1120 0.18057300  12.010000   ; qtot 37.475006
 1121         hc     37    bbb     H7   1121 0.01788900   1.008000   ; qtot 37.492895
 1122         hc     37    bbb     H8   1122 0.01788900   1.008000   ; qtot 37.510784
 1123         c3     37    bbb     C5   1123 -0.11337700  12.010000   ; qtot 37.397407
 1124         hc     37    bbb     H9   1124 0.09515400   1.008000   ; qtot 37.492561
 1125         hc     37    bbb    H10   1125 0.09515400   1.008000   ; qtot 37.587715
 1126         c3     37    bbb     C6   1126 -0.11337700  12.010000   ; qtot 37.474338
 1127         hc     37    bbb    H11   1127 0.09515400   1.008000   ; qtot 37.569492
 1128         hc     37    bbb    H12   1128 0.09515400   1.008000   ; qtot 37.664646
 1129         c3     37    bbb     C7   1129 0.21842400  12.010000   ; qtot 37.883070
 1130         h1     37    bbb    H13   1130 0.04500300   1.008000   ; qtot 37.928073
 1131         h1     37    bbb    H14   1131 0.04500300   1.008000   ; qtot 37.973076
 1132         c3     37    bbb     C8   1132 -0.06455200  12.010000   ; qtot 37.908524
 1133         h1     37    bbb    H15   1133 0.13554100   1.008000   ; qtot 38.044065
 1134         h1     37    bbb    H16   1134 0.13554100   1.008000   ; qtot 38.179606
 1135         c3     37    bbb     C9   1135 -0.06455200  12.010000   ; qtot 38.115054
 1136         h1     37    bbb    H17   1136 0.13554100   1.008000   ; qtot 38.250595
 1137         h1     37    bbb    H18   1137 0.13554100   1.008000   ; qtot 38.386136
 1138         os     37    bbb     O1   1138 -0.62587700  16.000000   ; qtot 37.760259
 1139         hn     37    bbb    H19   1139 0.23982500   1.008000   ; qtot 38.000084
; residue   38 bbb rtp bbb q 1.0
 1140         n4     38    bbb     N1   1140 0.03726400  14.010000   ; qtot 38.037348
 1141         c3     38    bbb     C1   1141 -0.07020100  12.010000   ; qtot 37.967147
 1142         hx     38    bbb     H1   1142 0.12219000   1.008000   ; qtot 38.089337
 1143         hx     38    bbb     H2   1143 0.12219000   1.008000   ; qtot 38.211527
 1144         c3     38    bbb     C2   1144 -0.07020100  12.010000   ; qtot 38.141326
 1145         hx     38    bbb     H3   1145 0.12219000   1.008000   ; qtot 38.263516
 1146         hx     38    bbb     H4   1146 0.12219000   1.008000   ; qtot 38.385706
 1147         c3     38    bbb     C3   1147 -0.39007700  12.010000   ; qtot 37.995629
 1148         hx     38    bbb     H5   1148 0.14940300   1.008000   ; qtot 38.145032
 1149         hx     38    bbb     H6   1149 0.14940300   1.008000   ; qtot 38.294435
 1150         c3     38    bbb     C4   1150 0.18057300  12.010000   ; qtot 38.475008
 1151         hc     38    bbb     H7   1151 0.01788900   1.008000   ; qtot 38.492897
 1152         hc     38    bbb     H8   1152 0.01788900   1.008000   ; qtot 38.510786
 1153         c3     38    bbb     C5   1153 -0.11337700  12.010000   ; qtot 38.397409
 1154         hc     38    bbb     H9   1154 0.09515400   1.008000   ; qtot 38.492563
 1155         hc     38    bbb    H10   1155 0.09515400   1.008000   ; qtot 38.587717
 1156         c3     38    bbb     C6   1156 -0.11337700  12.010000   ; qtot 38.474340
 1157         hc     38    bbb    H11   1157 0.09515400   1.008000   ; qtot 38.569494
 1158         hc     38    bbb    H12   1158 0.09515400   1.008000   ; qtot 38.664648
 1159         c3     38    bbb     C7   1159 0.21842400  12.010000   ; qtot 38.883072
 1160         h1     38    bbb    H13   1160 0.04500300   1.008000   ; qtot 38.928075
 1161         h1     38    bbb    H14   1161 0.04500300   1.008000   ; qtot 38.973078
 1162         c3     38    bbb     C8   1162 -0.06455200  12.010000   ; qtot 38.908526
 1163         h1     38    bbb    H15   1163 0.13554100   1.008000   ; qtot 39.044067
 1164         h1     38    bbb    H16   1164 0.13554100   1.008000   ; qtot 39.179608
 1165         c3     38    bbb     C9   1165 -0.06455200  12.010000   ; qtot 39.115056
 1166         h1     38    bbb    H17   1166 0.13554100   1.008000   ; qtot 39.250597
 1167         h1     38    bbb    H18   1167 0.13554100   1.008000   ; qtot 39.386138
 1168         os     38    bbb     O1   1168 -0.62587700  16.000000   ; qtot 38.760261
 1169         hn     38    bbb    H19   1169 0.23982500   1.008000   ; qtot 39.000086
; residue   39 bbb rtp bbb q 1.0
 1170         n4     39    bbb     N1   1170 0.03726400  14.010000   ; qtot 39.037350
 1171         c3     39    bbb     C1   1171 -0.07020100  12.010000   ; qtot 38.967149
 1172         hx     39    bbb     H1   1172 0.12219000   1.008000   ; qtot 39.089339
 1173         hx     39    bbb     H2   1173 0.12219000   1.008000   ; qtot 39.211529
 1174         c3     39    bbb     C2   1174 -0.07020100  12.010000   ; qtot 39.141328
 1175         hx     39    bbb     H3   1175 0.12219000   1.008000   ; qtot 39.263518
 1176         hx     39    bbb     H4   1176 0.12219000   1.008000   ; qtot 39.385708
 1177         c3     39    bbb     C3   1177 -0.39007700  12.010000   ; qtot 38.995631
 1178         hx     39    bbb     H5   1178 0.14940300   1.008000   ; qtot 39.145034
 1179         hx     39    bbb     H6   1179 0.14940300   1.008000   ; qtot 39.294437
 1180         c3     39    bbb     C4   1180 0.18057300  12.010000   ; qtot 39.475010
 1181         hc     39    bbb     H7   1181 0.01788900   1.008000   ; qtot 39.492899
 1182         hc     39    bbb     H8   1182 0.01788900   1.008000   ; qtot 39.510788
 1183         c3     39    bbb     C5   1183 -0.11337700  12.010000   ; qtot 39.397411
 1184         hc     39    bbb     H9   1184 0.09515400   1.008000   ; qtot 39.492565
 1185         hc     39    bbb    H10   1185 0.09515400   1.008000   ; qtot 39.587719
 1186         c3     39    bbb     C6   1186 -0.11337700  12.010000   ; qtot 39.474342
 1187         hc     39    bbb    H11   1187 0.09515400   1.008000   ; qtot 39.569496
 1188         hc     39    bbb    H12   1188 0.09515400   1.008000   ; qtot 39.664650
 1189         c3     39    bbb     C7   1189 0.21842400  12.010000   ; qtot 39.883074
 1190         h1     39    bbb    H13   1190 0.04500300   1.008000   ; qtot 39.928077
 1191         h1     39    bbb    H14   1191 0.04500300   1.008000   ; qtot 39.973080
 1192         c3     39    bbb     C8   1192 -0.06455200  12.010000   ; qtot 39.908528
 1193         h1     39    bbb    H15   1193 0.13554100   1.008000   ; qtot 40.044069
 1194         h1     39    bbb    H16   1194 0.13554100   1.008000   ; qtot 40.179610
 1195         c3     39    bbb     C9   1195 -0.06455200  12.010000   ; qtot 40.115058
 1196         h1     39    bbb    H17   1196 0.13554100   1.008000   ; qtot 40.250599
 1197         h1     39    bbb    H18   1197 0.13554100   1.008000   ; qtot 40.386140
 1198         os     39    bbb     O1   1198 -0.62587700  16.000000   ; qtot 39.760263
 1199         hn     39    bbb    H19   1199 0.23982500   1.008000   ; qtot 40.000088
; residue   40 bbb rtp bbb q 1.0
 1200         n4     40    bbb     N1   1200 0.03726400  14.010000   ; qtot 40.037352
 1201         c3     40    bbb     C1   1201 -0.07020100  12.010000   ; qtot 39.967151
 1202         hx     40    bbb     H1   1202 0.12219000   1.008000   ; qtot 40.089341
 1203         hx     40    bbb     H2   1203 0.12219000   1.008000   ; qtot 40.211531
 1204         c3     40    bbb     C2   1204 -0.07020100  12.010000   ; qtot 40.141330
 1205         hx     40    bbb     H3   1205 0.12219000   1.008000   ; qtot 40.263520
 1206         hx     40    bbb     H4   1206 0.12219000   1.008000   ; qtot 40.385710
 1207         c3     40    bbb     C3   1207 -0.39007700  12.010000   ; qtot 39.995633
 1208         hx     40    bbb     H5   1208 0.14940300   1.008000   ; qtot 40.145036
 1209         hx     40    bbb     H6   1209 0.14940300   1.008000   ; qtot 40.294439
 1210         c3     40    bbb     C4   1210 0.18057300  12.010000   ; qtot 40.475012
 1211         hc     40    bbb     H7   1211 0.01788900   1.008000   ; qtot 40.492901
 1212         hc     40    bbb     H8   1212 0.01788900   1.008000   ; qtot 40.510790
 1213         c3     40    bbb     C5   1213 -0.11337700  12.010000   ; qtot 40.397413
 1214         hc     40    bbb     H9   1214 0.09515400   1.008000   ; qtot 40.492567
 1215         hc     40    bbb    H10   1215 0.09515400   1.008000   ; qtot 40.587721
 1216         c3     40    bbb     C6   1216 -0.11337700  12.010000   ; qtot 40.474344
 1217         hc     40    bbb    H11   1217 0.09515400   1.008000   ; qtot 40.569498
 1218         hc     40    bbb    H12   1218 0.09515400   1.008000   ; qtot 40.664652
 1219         c3     40    bbb     C7   1219 0.21842400  12.010000   ; qtot 40.883076
 1220         h1     40    bbb    H13   1220 0.04500300   1.008000   ; qtot 40.928079
 1221         h1     40    bbb    H14   1221 0.04500300   1.008000   ; qtot 40.973082
 1222         c3     40    bbb     C8   1222 -0.06455200  12.010000   ; qtot 40.908530
 1223         h1     40    bbb    H15   1223 0.13554100   1.008000   ; qtot 41.044071
 1224         h1     40    bbb    H16   1224 0.13554100   1.008000   ; qtot 41.179612
 1225         c3     40    bbb     C9   1225 -0.06455200  12.010000   ; qtot 41.115060
 1226         h1     40    bbb    H17   1226 0.13554100   1.008000   ; qtot 41.250601
 1227         h1     40    bbb    H18   1227 0.13554100   1.008000   ; qtot 41.386142
 1228         os     40    bbb     O1   1228 -0.62587700  16.000000   ; qtot 40.760265
 1229         hn     40    bbb    H19   1229 0.23982500   1.008000   ; qtot 41.000090
; residue   41 bbb rtp bbb q 1.0
 1230         n4     41    bbb     N1   1230 0.03726400  14.010000   ; qtot 41.037354
 1231         c3     41    bbb     C1   1231 -0.07020100  12.010000   ; qtot 40.967153
 1232         hx     41    bbb     H1   1232 0.12219000   1.008000   ; qtot 41.089343
 1233         hx     41    bbb     H2   1233 0.12219000   1.008000   ; qtot 41.211533
 1234         c3     41    bbb     C2   1234 -0.07020100  12.010000   ; qtot 41.141332
 1235         hx     41    bbb     H3   1235 0.12219000   1.008000   ; qtot 41.263522
 1236         hx     41    bbb     H4   1236 0.12219000   1.008000   ; qtot 41.385712
 1237         c3     41    bbb     C3   1237 -0.39007700  12.010000   ; qtot 40.995635
 1238         hx     41    bbb     H5   1238 0.14940300   1.008000   ; qtot 41.145038
 1239         hx     41    bbb     H6   1239 0.14940300   1.008000   ; qtot 41.294441
 1240         c3     41    bbb     C4   1240 0.18057300  12.010000   ; qtot 41.475014
 1241         hc     41    bbb     H7   1241 0.01788900   1.008000   ; qtot 41.492903
 1242         hc     41    bbb     H8   1242 0.01788900   1.008000   ; qtot 41.510792
 1243         c3     41    bbb     C5   1243 -0.11337700  12.010000   ; qtot 41.397415
 1244         hc     41    bbb     H9   1244 0.09515400   1.008000   ; qtot 41.492569
 1245         hc     41    bbb    H10   1245 0.09515400   1.008000   ; qtot 41.587723
 1246         c3     41    bbb     C6   1246 -0.11337700  12.010000   ; qtot 41.474346
 1247         hc     41    bbb    H11   1247 0.09515400   1.008000   ; qtot 41.569500
 1248         hc     41    bbb    H12   1248 0.09515400   1.008000   ; qtot 41.664654
 1249         c3     41    bbb     C7   1249 0.21842400  12.010000   ; qtot 41.883078
 1250         h1     41    bbb    H13   1250 0.04500300   1.008000   ; qtot 41.928081
 1251         h1     41    bbb    H14   1251 0.04500300   1.008000   ; qtot 41.973084
 1252         c3     41    bbb     C8   1252 -0.06455200  12.010000   ; qtot 41.908532
 1253         h1     41    bbb    H15   1253 0.13554100   1.008000   ; qtot 42.044073
 1254         h1     41    bbb    H16   1254 0.13554100   1.008000   ; qtot 42.179614
 1255         c3     41    bbb     C9   1255 -0.06455200  12.010000   ; qtot 42.115062
 1256         h1     41    bbb    H17   1256 0.13554100   1.008000   ; qtot 42.250603
 1257         h1     41    bbb    H18   1257 0.13554100   1.008000   ; qtot 42.386144
 1258         os     41    bbb     O1   1258 -0.62587700  16.000000   ; qtot 41.760267
 1259         hn     41    bbb    H19   1259 0.23982500   1.008000   ; qtot 42.000092
; residue   42 bbb rtp bbb q 1.0
 1260         n4     42    bbb     N1   1260 0.03726400  14.010000   ; qtot 42.037356
 1261         c3     42    bbb     C1   1261 -0.07020100  12.010000   ; qtot 41.967155
 1262         hx     42    bbb     H1   1262 0.12219000   1.008000   ; qtot 42.089345
 1263         hx     42    bbb     H2   1263 0.12219000   1.008000   ; qtot 42.211535
 1264         c3     42    bbb     C2   1264 -0.07020100  12.010000   ; qtot 42.141334
 1265         hx     42    bbb     H3   1265 0.12219000   1.008000   ; qtot 42.263524
 1266         hx     42    bbb     H4   1266 0.12219000   1.008000   ; qtot 42.385714
 1267         c3     42    bbb     C3   1267 -0.39007700  12.010000   ; qtot 41.995637
 1268         hx     42    bbb     H5   1268 0.14940300   1.008000   ; qtot 42.145040
 1269         hx     42    bbb     H6   1269 0.14940300   1.008000   ; qtot 42.294443
 1270         c3     42    bbb     C4   1270 0.18057300  12.010000   ; qtot 42.475016
 1271         hc     42    bbb     H7   1271 0.01788900   1.008000   ; qtot 42.492905
 1272         hc     42    bbb     H8   1272 0.01788900   1.008000   ; qtot 42.510794
 1273         c3     42    bbb     C5   1273 -0.11337700  12.010000   ; qtot 42.397417
 1274         hc     42    bbb     H9   1274 0.09515400   1.008000   ; qtot 42.492571
 1275         hc     42    bbb    H10   1275 0.09515400   1.008000   ; qtot 42.587725
 1276         c3     42    bbb     C6   1276 -0.11337700  12.010000   ; qtot 42.474348
 1277         hc     42    bbb    H11   1277 0.09515400   1.008000   ; qtot 42.569502
 1278         hc     42    bbb    H12   1278 0.09515400   1.008000   ; qtot 42.664656
 1279         c3     42    bbb     C7   1279 0.21842400  12.010000   ; qtot 42.883080
 1280         h1     42    bbb    H13   1280 0.04500300   1.008000   ; qtot 42.928083
 1281         h1     42    bbb    H14   1281 0.04500300   1.008000   ; qtot 42.973086
 1282         c3     42    bbb     C8   1282 -0.06455200  12.010000   ; qtot 42.908534
 1283         h1     42    bbb    H15   1283 0.13554100   1.008000   ; qtot 43.044075
 1284         h1     42    bbb    H16   1284 0.13554100   1.008000   ; qtot 43.179616
 1285         c3     42    bbb     C9   1285 -0.06455200  12.010000   ; qtot 43.115064
 1286         h1     42    bbb    H17   1286 0.13554100   1.008000   ; qtot 43.250605
 1287         h1     42    bbb    H18   1287 0.13554100   1.008000   ; qtot 43.386146
 1288         os     42    bbb     O1   1288 -0.62587700  16.000000   ; qtot 42.760269
 1289         hn     42    bbb    H19   1289 0.23982500   1.008000   ; qtot 43.000094
; residue   43 bbb rtp bbb q 1.0
 1290         n4     43    bbb     N1   1290 0.03726400  14.010000   ; qtot 43.037358
 1291         c3     43    bbb     C1   1291 -0.07020100  12.010000   ; qtot 42.967157
 1292         hx     43    bbb     H1   1292 0.12219000   1.008000   ; qtot 43.089347
 1293         hx     43    bbb     H2   1293 0.12219000   1.008000   ; qtot 43.211537
 1294         c3     43    bbb     C2   1294 -0.07020100  12.010000   ; qtot 43.141336
 1295         hx     43    bbb     H3   1295 0.12219000   1.008000   ; qtot 43.263526
 1296         hx     43    bbb     H4   1296 0.12219000   1.008000   ; qtot 43.385716
 1297         c3     43    bbb     C3   1297 -0.39007700  12.010000   ; qtot 42.995639
 1298         hx     43    bbb     H5   1298 0.14940300   1.008000   ; qtot 43.145042
 1299         hx     43    bbb     H6   1299 0.14940300   1.008000   ; qtot 43.294445
 1300         c3     43    bbb     C4   1300 0.18057300  12.010000   ; qtot 43.475018
 1301         hc     43    bbb     H7   1301 0.01788900   1.008000   ; qtot 43.492907
 1302         hc     43    bbb     H8   1302 0.01788900   1.008000   ; qtot 43.510796
 1303         c3     43    bbb     C5   1303 -0.11337700  12.010000   ; qtot 43.397419
 1304         hc     43    bbb     H9   1304 0.09515400   1.008000   ; qtot 43.492573
 1305         hc     43    bbb    H10   1305 0.09515400   1.008000   ; qtot 43.587727
 1306         c3     43    bbb     C6   1306 -0.11337700  12.010000   ; qtot 43.474350
 1307         hc     43    bbb    H11   1307 0.09515400   1.008000   ; qtot 43.569504
 1308         hc     43    bbb    H12   1308 0.09515400   1.008000   ; qtot 43.664658
 1309         c3     43    bbb     C7   1309 0.21842400  12.010000   ; qtot 43.883082
 1310         h1     43    bbb    H13   1310 0.04500300   1.008000   ; qtot 43.928085
 1311         h1     43    bbb    H14   1311 0.04500300   1.008000   ; qtot 43.973088
 1312         c3     43    bbb     C8   1312 -0.06455200  12.010000   ; qtot 43.908536
 1313         h1     43    bbb    H15   1313 0.13554100   1.008000   ; qtot 44.044077
 1314         h1     43    bbb    H16   1314 0.13554100   1.008000   ; qtot 44.179618
 1315         c3     43    bbb     C9   1315 -0.06455200  12.010000   ; qtot 44.115066
 1316         h1     43    bbb    H17   1316 0.13554100   1.008000   ; qtot 44.250607
 1317         h1     43    bbb    H18   1317 0.13554100   1.008000   ; qtot 44.386148
 1318         os     43    bbb     O1   1318 -0.62587700  16.000000   ; qtot 43.760271
 1319         hn     43    bbb    H19   1319 0.23982500   1.008000   ; qtot 44.000096
; residue   44 bbb rtp bbb q 1.0
 1320         n4     44    bbb     N1   1320 0.03726400  14.010000   ; qtot 44.037360
 1321         c3     44    bbb     C1   1321 -0.07020100  12.010000   ; qtot 43.967159
 1322         hx     44    bbb     H1   1322 0.12219000   1.008000   ; qtot 44.089349
 1323         hx     44    bbb     H2   1323 0.12219000   1.008000   ; qtot 44.211539
 1324         c3     44    bbb     C2   1324 -0.07020100  12.010000   ; qtot 44.141338
 1325         hx     44    bbb     H3   1325 0.12219000   1.008000   ; qtot 44.263528
 1326         hx     44    bbb     H4   1326 0.12219000   1.008000   ; qtot 44.385718
 1327         c3     44    bbb     C3   1327 -0.39007700  12.010000   ; qtot 43.995641
 1328         hx     44    bbb     H5   1328 0.14940300   1.008000   ; qtot 44.145044
 1329         hx     44    bbb     H6   1329 0.14940300   1.008000   ; qtot 44.294447
 1330         c3     44    bbb     C4   1330 0.18057300  12.010000   ; qtot 44.475020
 1331         hc     44    bbb     H7   1331 0.01788900   1.008000   ; qtot 44.492909
 1332         hc     44    bbb     H8   1332 0.01788900   1.008000   ; qtot 44.510798
 1333         c3     44    bbb     C5   1333 -0.11337700  12.010000   ; qtot 44.397421
 1334         hc     44    bbb     H9   1334 0.09515400   1.008000   ; qtot 44.492575
 1335         hc     44    bbb    H10   1335 0.09515400   1.008000   ; qtot 44.587729
 1336         c3     44    bbb     C6   1336 -0.11337700  12.010000   ; qtot 44.474352
 1337         hc     44    bbb    H11   1337 0.09515400   1.008000   ; qtot 44.569506
 1338         hc     44    bbb    H12   1338 0.09515400   1.008000   ; qtot 44.664660
 1339         c3     44    bbb     C7   1339 0.21842400  12.010000   ; qtot 44.883084
 1340         h1     44    bbb    H13   1340 0.04500300   1.008000   ; qtot 44.928087
 1341         h1     44    bbb    H14   1341 0.04500300   1.008000   ; qtot 44.973090
 1342         c3     44    bbb     C8   1342 -0.06455200  12.010000   ; qtot 44.908538
 1343         h1     44    bbb    H15   1343 0.13554100   1.008000   ; qtot 45.044079
 1344         h1     44    bbb    H16   1344 0.13554100   1.008000   ; qtot 45.179620
 1345         c3     44    bbb     C9   1345 -0.06455200  12.010000   ; qtot 45.115068
 1346         h1     44    bbb    H17   1346 0.13554100   1.008000   ; qtot 45.250609
 1347         h1     44    bbb    H18   1347 0.13554100   1.008000   ; qtot 45.386150
 1348         os     44    bbb     O1   1348 -0.62587700  16.000000   ; qtot 44.760273
 1349         hn     44    bbb    H19   1349 0.23982500   1.008000   ; qtot 45.000098
; residue   45 bbb rtp bbb q 1.0
 1350         n4     45    bbb     N1   1350 0.03726400  14.010000   ; qtot 45.037362
 1351         c3     45    bbb     C1   1351 -0.07020100  12.010000   ; qtot 44.967161
 1352         hx     45    bbb     H1   1352 0.12219000   1.008000   ; qtot 45.089351
 1353         hx     45    bbb     H2   1353 0.12219000   1.008000   ; qtot 45.211541
 1354         c3     45    bbb     C2   1354 -0.07020100  12.010000   ; qtot 45.141340
 1355         hx     45    bbb     H3   1355 0.12219000   1.008000   ; qtot 45.263530
 1356         hx     45    bbb     H4   1356 0.12219000   1.008000   ; qtot 45.385720
 1357         c3     45    bbb     C3   1357 -0.39007700  12.010000   ; qtot 44.995643
 1358         hx     45    bbb     H5   1358 0.14940300   1.008000   ; qtot 45.145046
 1359         hx     45    bbb     H6   1359 0.14940300   1.008000   ; qtot 45.294449
 1360         c3     45    bbb     C4   1360 0.18057300  12.010000   ; qtot 45.475022
 1361         hc     45    bbb     H7   1361 0.01788900   1.008000   ; qtot 45.492911
 1362         hc     45    bbb     H8   1362 0.01788900   1.008000   ; qtot 45.510800
 1363         c3     45    bbb     C5   1363 -0.11337700  12.010000   ; qtot 45.397423
 1364         hc     45    bbb     H9   1364 0.09515400   1.008000   ; qtot 45.492577
 1365         hc     45    bbb    H10   1365 0.09515400   1.008000   ; qtot 45.587731
 1366         c3     45    bbb     C6   1366 -0.11337700  12.010000   ; qtot 45.474354
 1367         hc     45    bbb    H11   1367 0.09515400   1.008000   ; qtot 45.569508
 1368         hc     45    bbb    H12   1368 0.09515400   1.008000   ; qtot 45.664662
 1369         c3     45    bbb     C7   1369 0.21842400  12.010000   ; qtot 45.883086
 1370         h1     45    bbb    H13   1370 0.04500300   1.008000   ; qtot 45.928089
 1371         h1     45    bbb    H14   1371 0.04500300   1.008000   ; qtot 45.973092
 1372         c3     45    bbb     C8   1372 -0.06455200  12.010000   ; qtot 45.908540
 1373         h1     45    bbb    H15   1373 0.13554100   1.008000   ; qtot 46.044081
 1374         h1     45    bbb    H16   1374 0.13554100   1.008000   ; qtot 46.179622
 1375         c3     45    bbb     C9   1375 -0.06455200  12.010000   ; qtot 46.115070
 1376         h1     45    bbb    H17   1376 0.13554100   1.008000   ; qtot 46.250611
 1377         h1     45    bbb    H18   1377 0.13554100   1.008000   ; qtot 46.386152
 1378         os     45    bbb     O1   1378 -0.62587700  16.000000   ; qtot 45.760275
 1379         hn     45    bbb    H19   1379 0.23982500   1.008000   ; qtot 46.000100
; residue   46 bbb rtp bbb q 1.0
 1380         n4     46    bbb     N1   1380 0.03726400  14.010000   ; qtot 46.037364
 1381         c3     46    bbb     C1   1381 -0.07020100  12.010000   ; qtot 45.967163
 1382         hx     46    bbb     H1   1382 0.12219000   1.008000   ; qtot 46.089353
 1383         hx     46    bbb     H2   1383 0.12219000   1.008000   ; qtot 46.211543
 1384         c3     46    bbb     C2   1384 -0.07020100  12.010000   ; qtot 46.141342
 1385         hx     46    bbb     H3   1385 0.12219000   1.008000   ; qtot 46.263532
 1386         hx     46    bbb     H4   1386 0.12219000   1.008000   ; qtot 46.385722
 1387         c3     46    bbb     C3   1387 -0.39007700  12.010000   ; qtot 45.995645
 1388         hx     46    bbb     H5   1388 0.14940300   1.008000   ; qtot 46.145048
 1389         hx     46    bbb     H6   1389 0.14940300   1.008000   ; qtot 46.294451
 1390         c3     46    bbb     C4   1390 0.18057300  12.010000   ; qtot 46.475024
 1391         hc     46    bbb     H7   1391 0.01788900   1.008000   ; qtot 46.492913
 1392         hc     46    bbb     H8   1392 0.01788900   1.008000   ; qtot 46.510802
 1393         c3     46    bbb     C5   1393 -0.11337700  12.010000   ; qtot 46.397425
 1394         hc     46    bbb     H9   1394 0.09515400   1.008000   ; qtot 46.492579
 1395         hc     46    bbb    H10   1395 0.09515400   1.008000   ; qtot 46.587733
 1396         c3     46    bbb     C6   1396 -0.11337700  12.010000   ; qtot 46.474356
 1397         hc     46    bbb    H11   1397 0.09515400   1.008000   ; qtot 46.569510
 1398         hc     46    bbb    H12   1398 0.09515400   1.008000   ; qtot 46.664664
 1399         c3     46    bbb     C7   1399 0.21842400  12.010000   ; qtot 46.883088
 1400         h1     46    bbb    H13   1400 0.04500300   1.008000   ; qtot 46.928091
 1401         h1     46    bbb    H14   1401 0.04500300   1.008000   ; qtot 46.973094
 1402         c3     46    bbb     C8   1402 -0.06455200  12.010000   ; qtot 46.908542
 1403         h1     46    bbb    H15   1403 0.13554100   1.008000   ; qtot 47.044083
 1404         h1     46    bbb    H16   1404 0.13554100   1.008000   ; qtot 47.179624
 1405         c3     46    bbb     C9   1405 -0.06455200  12.010000   ; qtot 47.115072
 1406         h1     46    bbb    H17   1406 0.13554100   1.008000   ; qtot 47.250613
 1407         h1     46    bbb    H18   1407 0.13554100   1.008000   ; qtot 47.386154
 1408         os     46    bbb     O1   1408 -0.62587700  16.000000   ; qtot 46.760277
 1409         hn     46    bbb    H19   1409 0.23982500   1.008000   ; qtot 47.000102
; residue   47 bbb rtp bbb q 1.0
 1410         n4     47    bbb     N1   1410 0.03726400  14.010000   ; qtot 47.037366
 1411         c3     47    bbb     C1   1411 -0.07020100  12.010000   ; qtot 46.967165
 1412         hx     47    bbb     H1   1412 0.12219000   1.008000   ; qtot 47.089355
 1413         hx     47    bbb     H2   1413 0.12219000   1.008000   ; qtot 47.211545
 1414         c3     47    bbb     C2   1414 -0.07020100  12.010000   ; qtot 47.141344
 1415         hx     47    bbb     H3   1415 0.12219000   1.008000   ; qtot 47.263534
 1416         hx     47    bbb     H4   1416 0.12219000   1.008000   ; qtot 47.385724
 1417         c3     47    bbb     C3   1417 -0.39007700  12.010000   ; qtot 46.995647
 1418         hx     47    bbb     H5   1418 0.14940300   1.008000   ; qtot 47.145050
 1419         hx     47    bbb     H6   1419 0.14940300   1.008000   ; qtot 47.294453
 1420         c3     47    bbb     C4   1420 0.18057300  12.010000   ; qtot 47.475026
 1421         hc     47    bbb     H7   1421 0.01788900   1.008000   ; qtot 47.492915
 1422         hc     47    bbb     H8   1422 0.01788900   1.008000   ; qtot 47.510804
 1423         c3     47    bbb     C5   1423 -0.11337700  12.010000   ; qtot 47.397427
 1424         hc     47    bbb     H9   1424 0.09515400   1.008000   ; qtot 47.492581
 1425         hc     47    bbb    H10   1425 0.09515400   1.008000   ; qtot 47.587735
 1426         c3     47    bbb     C6   1426 -0.11337700  12.010000   ; qtot 47.474358
 1427         hc     47    bbb    H11   1427 0.09515400   1.008000   ; qtot 47.569512
 1428         hc     47    bbb    H12   1428 0.09515400   1.008000   ; qtot 47.664666
 1429         c3     47    bbb     C7   1429 0.21842400  12.010000   ; qtot 47.883090
 1430         h1     47    bbb    H13   1430 0.04500300   1.008000   ; qtot 47.928093
 1431         h1     47    bbb    H14   1431 0.04500300   1.008000   ; qtot 47.973096
 1432         c3     47    bbb     C8   1432 -0.06455200  12.010000   ; qtot 47.908544
 1433         h1     47    bbb    H15   1433 0.13554100   1.008000   ; qtot 48.044085
 1434         h1     47    bbb    H16   1434 0.13554100   1.008000   ; qtot 48.179626
 1435         c3     47    bbb     C9   1435 -0.06455200  12.010000   ; qtot 48.115074
 1436         h1     47    bbb    H17   1436 0.13554100   1.008000   ; qtot 48.250615
 1437         h1     47    bbb    H18   1437 0.13554100   1.008000   ; qtot 48.386156
 1438         os     47    bbb     O1   1438 -0.62587700  16.000000   ; qtot 47.760279
 1439         hn     47    bbb    H19   1439 0.23982500   1.008000   ; qtot 48.000104
; residue   48 bbb rtp bbb q 1.0
 1440         n4     48    bbb     N1   1440 0.03726400  14.010000   ; qtot 48.037368
 1441         c3     48    bbb     C1   1441 -0.07020100  12.010000   ; qtot 47.967167
 1442         hx     48    bbb     H1   1442 0.12219000   1.008000   ; qtot 48.089357
 1443         hx     48    bbb     H2   1443 0.12219000   1.008000   ; qtot 48.211547
 1444         c3     48    bbb     C2   1444 -0.07020100  12.010000   ; qtot 48.141346
 1445         hx     48    bbb     H3   1445 0.12219000   1.008000   ; qtot 48.263536
 1446         hx     48    bbb     H4   1446 0.12219000   1.008000   ; qtot 48.385726
 1447         c3     48    bbb     C3   1447 -0.39007700  12.010000   ; qtot 47.995649
 1448         hx     48    bbb     H5   1448 0.14940300   1.008000   ; qtot 48.145052
 1449         hx     48    bbb     H6   1449 0.14940300   1.008000   ; qtot 48.294455
 1450         c3     48    bbb     C4   1450 0.18057300  12.010000   ; qtot 48.475028
 1451         hc     48    bbb     H7   1451 0.01788900   1.008000   ; qtot 48.492917
 1452         hc     48    bbb     H8   1452 0.01788900   1.008000   ; qtot 48.510806
 1453         c3     48    bbb     C5   1453 -0.11337700  12.010000   ; qtot 48.397429
 1454         hc     48    bbb     H9   1454 0.09515400   1.008000   ; qtot 48.492583
 1455         hc     48    bbb    H10   1455 0.09515400   1.008000   ; qtot 48.587737
 1456         c3     48    bbb     C6   1456 -0.11337700  12.010000   ; qtot 48.474360
 1457         hc     48    bbb    H11   1457 0.09515400   1.008000   ; qtot 48.569514
 1458         hc     48    bbb    H12   1458 0.09515400   1.008000   ; qtot 48.664668
 1459         c3     48    bbb     C7   1459 0.21842400  12.010000   ; qtot 48.883092
 1460         h1     48    bbb    H13   1460 0.04500300   1.008000   ; qtot 48.928095
 1461         h1     48    bbb    H14   1461 0.04500300   1.008000   ; qtot 48.973098
 1462         c3     48    bbb     C8   1462 -0.06455200  12.010000   ; qtot 48.908546
 1463         h1     48    bbb    H15   1463 0.13554100   1.008000   ; qtot 49.044087
 1464         h1     48    bbb    H16   1464 0.13554100   1.008000   ; qtot 49.179628
 1465         c3     48    bbb     C9   1465 -0.06455200  12.010000   ; qtot 49.115076
 1466         h1     48    bbb    H17   1466 0.13554100   1.008000   ; qtot 49.250617
 1467         h1     48    bbb    H18   1467 0.13554100   1.008000   ; qtot 49.386158
 1468         os     48    bbb     O1   1468 -0.62587700  16.000000   ; qtot 48.760281
 1469         hn     48    bbb    H19   1469 0.23982500   1.008000   ; qtot 49.000106
; residue   49 bbb rtp bbb q 1.0
 1470         n4     49    bbb     N1   1470 0.03726400  14.010000   ; qtot 49.037370
 1471         c3     49    bbb     C1   1471 -0.07020100  12.010000   ; qtot 48.967169
 1472         hx     49    bbb     H1   1472 0.12219000   1.008000   ; qtot 49.089359
 1473         hx     49    bbb     H2   1473 0.12219000   1.008000   ; qtot 49.211549
 1474         c3     49    bbb     C2   1474 -0.07020100  12.010000   ; qtot 49.141348
 1475         hx     49    bbb     H3   1475 0.12219000   1.008000   ; qtot 49.263538
 1476         hx     49    bbb     H4   1476 0.12219000   1.008000   ; qtot 49.385728
 1477         c3     49    bbb     C3   1477 -0.39007700  12.010000   ; qtot 48.995651
 1478         hx     49    bbb     H5   1478 0.14940300   1.008000   ; qtot 49.145054
 1479         hx     49    bbb     H6   1479 0.14940300   1.008000   ; qtot 49.294457
 1480         c3     49    bbb     C4   1480 0.18057300  12.010000   ; qtot 49.475030
 1481         hc     49    bbb     H7   1481 0.01788900   1.008000   ; qtot 49.492919
 1482         hc     49    bbb     H8   1482 0.01788900   1.008000   ; qtot 49.510808
 1483         c3     49    bbb     C5   1483 -0.11337700  12.010000   ; qtot 49.397431
 1484         hc     49    bbb     H9   1484 0.09515400   1.008000   ; qtot 49.492585
 1485         hc     49    bbb    H10   1485 0.09515400   1.008000   ; qtot 49.587739
 1486         c3     49    bbb     C6   1486 -0.11337700  12.010000   ; qtot 49.474362
 1487         hc     49    bbb    H11   1487 0.09515400   1.008000   ; qtot 49.569516
 1488         hc     49    bbb    H12   1488 0.09515400   1.008000   ; qtot 49.664670
 1489         c3     49    bbb     C7   1489 0.21842400  12.010000   ; qtot 49.883094
 1490         h1     49    bbb    H13   1490 0.04500300   1.008000   ; qtot 49.928097
 1491         h1     49    bbb    H14   1491 0.04500300   1.008000   ; qtot 49.973100
 1492         c3     49    bbb     C8   1492 -0.06455200  12.010000   ; qtot 49.908548
 1493         h1     49    bbb    H15   1493 0.13554100   1.008000   ; qtot 50.044089
 1494         h1     49    bbb    H16   1494 0.13554100   1.008000   ; qtot 50.179630
 1495         c3     49    bbb     C9   1495 -0.06455200  12.010000   ; qtot 50.115078
 1496         h1     49    bbb    H17   1496 0.13554100   1.008000   ; qtot 50.250619
 1497         h1     49    bbb    H18   1497 0.13554100   1.008000   ; qtot 50.386160
 1498         os     49    bbb     O1   1498 -0.62587700  16.000000   ; qtot 49.760283
 1499         hn     49    bbb    H19   1499 0.23982500   1.008000   ; qtot 50.000108
; residue   50 bbb rtp bbb q 1.0
 1500         n4     50    bbb     N1   1500 0.03726400  14.010000   ; qtot 50.037372
 1501         c3     50    bbb     C1   1501 -0.07020100  12.010000   ; qtot 49.967171
 1502         hx     50    bbb     H1   1502 0.12219000   1.008000   ; qtot 50.089361
 1503         hx     50    bbb     H2   1503 0.12219000   1.008000   ; qtot 50.211551
 1504         c3     50    bbb     C2   1504 -0.07020100  12.010000   ; qtot 50.141350
 1505         hx     50    bbb     H3   1505 0.12219000   1.008000   ; qtot 50.263540
 1506         hx     50    bbb     H4   1506 0.12219000   1.008000   ; qtot 50.385730
 1507         c3     50    bbb     C3   1507 -0.39007700  12.010000   ; qtot 49.995653
 1508         hx     50    bbb     H5   1508 0.14940300   1.008000   ; qtot 50.145056
 1509         hx     50    bbb     H6   1509 0.14940300   1.008000   ; qtot 50.294459
 1510         c3     50    bbb     C4   1510 0.18057300  12.010000   ; qtot 50.475032
 1511         hc     50    bbb     H7   1511 0.01788900   1.008000   ; qtot 50.492921
 1512         hc     50    bbb     H8   1512 0.01788900   1.008000   ; qtot 50.510810
 1513         c3     50    bbb     C5   1513 -0.11337700  12.010000   ; qtot 50.397433
 1514         hc     50    bbb     H9   1514 0.09515400   1.008000   ; qtot 50.492587
 1515         hc     50    bbb    H10   1515 0.09515400   1.008000   ; qtot 50.587741
 1516         c3     50    bbb     C6   1516 -0.11337700  12.010000   ; qtot 50.474364
 1517         hc     50    bbb    H11   1517 0.09515400   1.008000   ; qtot 50.569518
 1518         hc     50    bbb    H12   1518 0.09515400   1.008000   ; qtot 50.664672
 1519         c3     50    bbb     C7   1519 0.21842400  12.010000   ; qtot 50.883096
 1520         h1     50    bbb    H13   1520 0.04500300   1.008000   ; qtot 50.928099
 1521         h1     50    bbb    H14   1521 0.04500300   1.008000   ; qtot 50.973102
 1522         c3     50    bbb     C8   1522 -0.06455200  12.010000   ; qtot 50.908550
 1523         h1     50    bbb    H15   1523 0.13554100   1.008000   ; qtot 51.044091
 1524         h1     50    bbb    H16   1524 0.13554100   1.008000   ; qtot 51.179632
 1525         c3     50    bbb     C9   1525 -0.06455200  12.010000   ; qtot 51.115080
 1526         h1     50    bbb    H17   1526 0.13554100   1.008000   ; qtot 51.250621
 1527         h1     50    bbb    H18   1527 0.13554100   1.008000   ; qtot 51.386162
 1528         os     50    bbb     O1   1528 -0.62587700  16.000000   ; qtot 50.760285
 1529         hn     50    bbb    H19   1529 0.23982500   1.008000   ; qtot 51.000110
; residue   51 bbb rtp bbb q 1.0
 1530         n4     51    bbb     N1   1530 0.03726400  14.010000   ; qtot 51.037374
 1531         c3     51    bbb     C1   1531 -0.07020100  12.010000   ; qtot 50.967173
 1532         hx     51    bbb     H1   1532 0.12219000   1.008000   ; qtot 51.089363
 1533         hx     51    bbb     H2   1533 0.12219000   1.008000   ; qtot 51.211553
 1534         c3     51    bbb     C2   1534 -0.07020100  12.010000   ; qtot 51.141352
 1535         hx     51    bbb     H3   1535 0.12219000   1.008000   ; qtot 51.263542
 1536         hx     51    bbb     H4   1536 0.12219000   1.008000   ; qtot 51.385732
 1537         c3     51    bbb     C3   1537 -0.39007700  12.010000   ; qtot 50.995655
 1538         hx     51    bbb     H5   1538 0.14940300   1.008000   ; qtot 51.145058
 1539         hx     51    bbb     H6   1539 0.14940300   1.008000   ; qtot 51.294461
 1540         c3     51    bbb     C4   1540 0.18057300  12.010000   ; qtot 51.475034
 1541         hc     51    bbb     H7   1541 0.01788900   1.008000   ; qtot 51.492923
 1542         hc     51    bbb     H8   1542 0.01788900   1.008000   ; qtot 51.510812
 1543         c3     51    bbb     C5   1543 -0.11337700  12.010000   ; qtot 51.397435
 1544         hc     51    bbb     H9   1544 0.09515400   1.008000   ; qtot 51.492589
 1545         hc     51    bbb    H10   1545 0.09515400   1.008000   ; qtot 51.587743
 1546         c3     51    bbb     C6   1546 -0.11337700  12.010000   ; qtot 51.474366
 1547         hc     51    bbb    H11   1547 0.09515400   1.008000   ; qtot 51.569520
 1548         hc     51    bbb    H12   1548 0.09515400   1.008000   ; qtot 51.664674
 1549         c3     51    bbb     C7   1549 0.21842400  12.010000   ; qtot 51.883098
 1550         h1     51    bbb    H13   1550 0.04500300   1.008000   ; qtot 51.928101
 1551         h1     51    bbb    H14   1551 0.04500300   1.008000   ; qtot 51.973104
 1552         c3     51    bbb     C8   1552 -0.06455200  12.010000   ; qtot 51.908552
 1553         h1     51    bbb    H15   1553 0.13554100   1.008000   ; qtot 52.044093
 1554         h1     51    bbb    H16   1554 0.13554100   1.008000   ; qtot 52.179634
 1555         c3     51    bbb     C9   1555 -0.06455200  12.010000   ; qtot 52.115082
 1556         h1     51    bbb    H17   1556 0.13554100   1.008000   ; qtot 52.250623
 1557         h1     51    bbb    H18   1557 0.13554100   1.008000   ; qtot 52.386164
 1558         os     51    bbb     O1   1558 -0.62587700  16.000000   ; qtot 51.760287
 1559         hn     51    bbb    H19   1559 0.23982500   1.008000   ; qtot 52.000112
; residue   52 bbb rtp bbb q 1.0
 1560         n4     52    bbb     N1   1560 0.03726400  14.010000   ; qtot 52.037376
 1561         c3     52    bbb     C1   1561 -0.07020100  12.010000   ; qtot 51.967175
 1562         hx     52    bbb     H1   1562 0.12219000   1.008000   ; qtot 52.089365
 1563         hx     52    bbb     H2   1563 0.12219000   1.008000   ; qtot 52.211555
 1564         c3     52    bbb     C2   1564 -0.07020100  12.010000   ; qtot 52.141354
 1565         hx     52    bbb     H3   1565 0.12219000   1.008000   ; qtot 52.263544
 1566         hx     52    bbb     H4   1566 0.12219000   1.008000   ; qtot 52.385734
 1567         c3     52    bbb     C3   1567 -0.39007700  12.010000   ; qtot 51.995657
 1568         hx     52    bbb     H5   1568 0.14940300   1.008000   ; qtot 52.145060
 1569         hx     52    bbb     H6   1569 0.14940300   1.008000   ; qtot 52.294463
 1570         c3     52    bbb     C4   1570 0.18057300  12.010000   ; qtot 52.475036
 1571         hc     52    bbb     H7   1571 0.01788900   1.008000   ; qtot 52.492925
 1572         hc     52    bbb     H8   1572 0.01788900   1.008000   ; qtot 52.510814
 1573         c3     52    bbb     C5   1573 -0.11337700  12.010000   ; qtot 52.397437
 1574         hc     52    bbb     H9   1574 0.09515400   1.008000   ; qtot 52.492591
 1575         hc     52    bbb    H10   1575 0.09515400   1.008000   ; qtot 52.587745
 1576         c3     52    bbb     C6   1576 -0.11337700  12.010000   ; qtot 52.474368
 1577         hc     52    bbb    H11   1577 0.09515400   1.008000   ; qtot 52.569522
 1578         hc     52    bbb    H12   1578 0.09515400   1.008000   ; qtot 52.664676
 1579         c3     52    bbb     C7   1579 0.21842400  12.010000   ; qtot 52.883100
 1580         h1     52    bbb    H13   1580 0.04500300   1.008000   ; qtot 52.928103
 1581         h1     52    bbb    H14   1581 0.04500300   1.008000   ; qtot 52.973106
 1582         c3     52    bbb     C8   1582 -0.06455200  12.010000   ; qtot 52.908554
 1583         h1     52    bbb    H15   1583 0.13554100   1.008000   ; qtot 53.044095
 1584         h1     52    bbb    H16   1584 0.13554100   1.008000   ; qtot 53.179636
 1585         c3     52    bbb     C9   1585 -0.06455200  12.010000   ; qtot 53.115084
 1586         h1     52    bbb    H17   1586 0.13554100   1.008000   ; qtot 53.250625
 1587         h1     52    bbb    H18   1587 0.13554100   1.008000   ; qtot 53.386166
 1588         os     52    bbb     O1   1588 -0.62587700  16.000000   ; qtot 52.760289
 1589         hn     52    bbb    H19   1589 0.23982500   1.008000   ; qtot 53.000114
; residue   53 bbb rtp bbb q 1.0
 1590         n4     53    bbb     N1   1590 0.03726400  14.010000   ; qtot 53.037378
 1591         c3     53    bbb     C1   1591 -0.07020100  12.010000   ; qtot 52.967177
 1592         hx     53    bbb     H1   1592 0.12219000   1.008000   ; qtot 53.089367
 1593         hx     53    bbb     H2   1593 0.12219000   1.008000   ; qtot 53.211557
 1594         c3     53    bbb     C2   1594 -0.07020100  12.010000   ; qtot 53.141356
 1595         hx     53    bbb     H3   1595 0.12219000   1.008000   ; qtot 53.263546
 1596         hx     53    bbb     H4   1596 0.12219000   1.008000   ; qtot 53.385736
 1597         c3     53    bbb     C3   1597 -0.39007700  12.010000   ; qtot 52.995659
 1598         hx     53    bbb     H5   1598 0.14940300   1.008000   ; qtot 53.145062
 1599         hx     53    bbb     H6   1599 0.14940300   1.008000   ; qtot 53.294465
 1600         c3     53    bbb     C4   1600 0.18057300  12.010000   ; qtot 53.475038
 1601         hc     53    bbb     H7   1601 0.01788900   1.008000   ; qtot 53.492927
 1602         hc     53    bbb     H8   1602 0.01788900   1.008000   ; qtot 53.510816
 1603         c3     53    bbb     C5   1603 -0.11337700  12.010000   ; qtot 53.397439
 1604         hc     53    bbb     H9   1604 0.09515400   1.008000   ; qtot 53.492593
 1605         hc     53    bbb    H10   1605 0.09515400   1.008000   ; qtot 53.587747
 1606         c3     53    bbb     C6   1606 -0.11337700  12.010000   ; qtot 53.474370
 1607         hc     53    bbb    H11   1607 0.09515400   1.008000   ; qtot 53.569524
 1608         hc     53    bbb    H12   1608 0.09515400   1.008000   ; qtot 53.664678
 1609         c3     53    bbb     C7   1609 0.21842400  12.010000   ; qtot 53.883102
 1610         h1     53    bbb    H13   1610 0.04500300   1.008000   ; qtot 53.928105
 1611         h1     53    bbb    H14   1611 0.04500300   1.008000   ; qtot 53.973108
 1612         c3     53    bbb     C8   1612 -0.06455200  12.010000   ; qtot 53.908556
 1613         h1     53    bbb    H15   1613 0.13554100   1.008000   ; qtot 54.044097
 1614         h1     53    bbb    H16   1614 0.13554100   1.008000   ; qtot 54.179638
 1615         c3     53    bbb     C9   1615 -0.06455200  12.010000   ; qtot 54.115086
 1616         h1     53    bbb    H17   1616 0.13554100   1.008000   ; qtot 54.250627
 1617         h1     53    bbb    H18   1617 0.13554100   1.008000   ; qtot 54.386168
 1618         os     53    bbb     O1   1618 -0.62587700  16.000000   ; qtot 53.760291
 1619         hn     53    bbb    H19   1619 0.23982500   1.008000   ; qtot 54.000116
; residue   54 bbb rtp bbb q 1.0
 1620         n4     54    bbb     N1   1620 0.03726400  14.010000   ; qtot 54.037380
 1621         c3     54    bbb     C1   1621 -0.07020100  12.010000   ; qtot 53.967179
 1622         hx     54    bbb     H1   1622 0.12219000   1.008000   ; qtot 54.089369
 1623         hx     54    bbb     H2   1623 0.12219000   1.008000   ; qtot 54.211559
 1624         c3     54    bbb     C2   1624 -0.07020100  12.010000   ; qtot 54.141358
 1625         hx     54    bbb     H3   1625 0.12219000   1.008000   ; qtot 54.263548
 1626         hx     54    bbb     H4   1626 0.12219000   1.008000   ; qtot 54.385738
 1627         c3     54    bbb     C3   1627 -0.39007700  12.010000   ; qtot 53.995661
 1628         hx     54    bbb     H5   1628 0.14940300   1.008000   ; qtot 54.145064
 1629         hx     54    bbb     H6   1629 0.14940300   1.008000   ; qtot 54.294467
 1630         c3     54    bbb     C4   1630 0.18057300  12.010000   ; qtot 54.475040
 1631         hc     54    bbb     H7   1631 0.01788900   1.008000   ; qtot 54.492929
 1632         hc     54    bbb     H8   1632 0.01788900   1.008000   ; qtot 54.510818
 1633         c3     54    bbb     C5   1633 -0.11337700  12.010000   ; qtot 54.397441
 1634         hc     54    bbb     H9   1634 0.09515400   1.008000   ; qtot 54.492595
 1635         hc     54    bbb    H10   1635 0.09515400   1.008000   ; qtot 54.587749
 1636         c3     54    bbb     C6   1636 -0.11337700  12.010000   ; qtot 54.474372
 1637         hc     54    bbb    H11   1637 0.09515400   1.008000   ; qtot 54.569526
 1638         hc     54    bbb    H12   1638 0.09515400   1.008000   ; qtot 54.664680
 1639         c3     54    bbb     C7   1639 0.21842400  12.010000   ; qtot 54.883104
 1640         h1     54    bbb    H13   1640 0.04500300   1.008000   ; qtot 54.928107
 1641         h1     54    bbb    H14   1641 0.04500300   1.008000   ; qtot 54.973110
 1642         c3     54    bbb     C8   1642 -0.06455200  12.010000   ; qtot 54.908558
 1643         h1     54    bbb    H15   1643 0.13554100   1.008000   ; qtot 55.044099
 1644         h1     54    bbb    H16   1644 0.13554100   1.008000   ; qtot 55.179640
 1645         c3     54    bbb     C9   1645 -0.06455200  12.010000   ; qtot 55.115088
 1646         h1     54    bbb    H17   1646 0.13554100   1.008000   ; qtot 55.250629
 1647         h1     54    bbb    H18   1647 0.13554100   1.008000   ; qtot 55.386170
 1648         os     54    bbb     O1   1648 -0.62587700  16.000000   ; qtot 54.760293
 1649         hn     54    bbb    H19   1649 0.23982500   1.008000   ; qtot 55.000118
; residue   55 bbb rtp bbb q 1.0
 1650         n4     55    bbb     N1   1650 0.03726400  14.010000   ; qtot 55.037382
 1651         c3     55    bbb     C1   1651 -0.07020100  12.010000   ; qtot 54.967181
 1652         hx     55    bbb     H1   1652 0.12219000   1.008000   ; qtot 55.089371
 1653         hx     55    bbb     H2   1653 0.12219000   1.008000   ; qtot 55.211561
 1654         c3     55    bbb     C2   1654 -0.07020100  12.010000   ; qtot 55.141360
 1655         hx     55    bbb     H3   1655 0.12219000   1.008000   ; qtot 55.263550
 1656         hx     55    bbb     H4   1656 0.12219000   1.008000   ; qtot 55.385740
 1657         c3     55    bbb     C3   1657 -0.39007700  12.010000   ; qtot 54.995663
 1658         hx     55    bbb     H5   1658 0.14940300   1.008000   ; qtot 55.145066
 1659         hx     55    bbb     H6   1659 0.14940300   1.008000   ; qtot 55.294469
 1660         c3     55    bbb     C4   1660 0.18057300  12.010000   ; qtot 55.475042
 1661         hc     55    bbb     H7   1661 0.01788900   1.008000   ; qtot 55.492931
 1662         hc     55    bbb     H8   1662 0.01788900   1.008000   ; qtot 55.510820
 1663         c3     55    bbb     C5   1663 -0.11337700  12.010000   ; qtot 55.397443
 1664         hc     55    bbb     H9   1664 0.09515400   1.008000   ; qtot 55.492597
 1665         hc     55    bbb    H10   1665 0.09515400   1.008000   ; qtot 55.587751
 1666         c3     55    bbb     C6   1666 -0.11337700  12.010000   ; qtot 55.474374
 1667         hc     55    bbb    H11   1667 0.09515400   1.008000   ; qtot 55.569528
 1668         hc     55    bbb    H12   1668 0.09515400   1.008000   ; qtot 55.664682
 1669         c3     55    bbb     C7   1669 0.21842400  12.010000   ; qtot 55.883106
 1670         h1     55    bbb    H13   1670 0.04500300   1.008000   ; qtot 55.928109
 1671         h1     55    bbb    H14   1671 0.04500300   1.008000   ; qtot 55.973112
 1672         c3     55    bbb     C8   1672 -0.06455200  12.010000   ; qtot 55.908560
 1673         h1     55    bbb    H15   1673 0.13554100   1.008000   ; qtot 56.044101
 1674         h1     55    bbb    H16   1674 0.13554100   1.008000   ; qtot 56.179642
 1675         c3     55    bbb     C9   1675 -0.06455200  12.010000   ; qtot 56.115090
 1676         h1     55    bbb    H17   1676 0.13554100   1.008000   ; qtot 56.250631
 1677         h1     55    bbb    H18   1677 0.13554100   1.008000   ; qtot 56.386172
 1678         os     55    bbb     O1   1678 -0.62587700  16.000000   ; qtot 55.760295
 1679         hn     55    bbb    H19   1679 0.23982500   1.008000   ; qtot 56.000120
; residue   56 bbb rtp bbb q 1.0
 1680         n4     56    bbb     N1   1680 0.03726400  14.010000   ; qtot 56.037384
 1681         c3     56    bbb     C1   1681 -0.07020100  12.010000   ; qtot 55.967183
 1682         hx     56    bbb     H1   1682 0.12219000   1.008000   ; qtot 56.089373
 1683         hx     56    bbb     H2   1683 0.12219000   1.008000   ; qtot 56.211563
 1684         c3     56    bbb     C2   1684 -0.07020100  12.010000   ; qtot 56.141362
 1685         hx     56    bbb     H3   1685 0.12219000   1.008000   ; qtot 56.263552
 1686         hx     56    bbb     H4   1686 0.12219000   1.008000   ; qtot 56.385742
 1687         c3     56    bbb     C3   1687 -0.39007700  12.010000   ; qtot 55.995665
 1688         hx     56    bbb     H5   1688 0.14940300   1.008000   ; qtot 56.145068
 1689         hx     56    bbb     H6   1689 0.14940300   1.008000   ; qtot 56.294471
 1690         c3     56    bbb     C4   1690 0.18057300  12.010000   ; qtot 56.475044
 1691         hc     56    bbb     H7   1691 0.01788900   1.008000   ; qtot 56.492933
 1692         hc     56    bbb     H8   1692 0.01788900   1.008000   ; qtot 56.510822
 1693         c3     56    bbb     C5   1693 -0.11337700  12.010000   ; qtot 56.397445
 1694         hc     56    bbb     H9   1694 0.09515400   1.008000   ; qtot 56.492599
 1695         hc     56    bbb    H10   1695 0.09515400   1.008000   ; qtot 56.587753
 1696         c3     56    bbb     C6   1696 -0.11337700  12.010000   ; qtot 56.474376
 1697         hc     56    bbb    H11   1697 0.09515400   1.008000   ; qtot 56.569530
 1698         hc     56    bbb    H12   1698 0.09515400   1.008000   ; qtot 56.664684
 1699         c3     56    bbb     C7   1699 0.21842400  12.010000   ; qtot 56.883108
 1700         h1     56    bbb    H13   1700 0.04500300   1.008000   ; qtot 56.928111
 1701         h1     56    bbb    H14   1701 0.04500300   1.008000   ; qtot 56.973114
 1702         c3     56    bbb     C8   1702 -0.06455200  12.010000   ; qtot 56.908562
 1703         h1     56    bbb    H15   1703 0.13554100   1.008000   ; qtot 57.044103
 1704         h1     56    bbb    H16   1704 0.13554100   1.008000   ; qtot 57.179644
 1705         c3     56    bbb     C9   1705 -0.06455200  12.010000   ; qtot 57.115092
 1706         h1     56    bbb    H17   1706 0.13554100   1.008000   ; qtot 57.250633
 1707         h1     56    bbb    H18   1707 0.13554100   1.008000   ; qtot 57.386174
 1708         os     56    bbb     O1   1708 -0.62587700  16.000000   ; qtot 56.760297
 1709         hn     56    bbb    H19   1709 0.23982500   1.008000   ; qtot 57.000122
; residue   57 bbb rtp bbb q 1.0
 1710         n4     57    bbb     N1   1710 0.03726400  14.010000   ; qtot 57.037386
 1711         c3     57    bbb     C1   1711 -0.07020100  12.010000   ; qtot 56.967185
 1712         hx     57    bbb     H1   1712 0.12219000   1.008000   ; qtot 57.089375
 1713         hx     57    bbb     H2   1713 0.12219000   1.008000   ; qtot 57.211565
 1714         c3     57    bbb     C2   1714 -0.07020100  12.010000   ; qtot 57.141364
 1715         hx     57    bbb     H3   1715 0.12219000   1.008000   ; qtot 57.263554
 1716         hx     57    bbb     H4   1716 0.12219000   1.008000   ; qtot 57.385744
 1717         c3     57    bbb     C3   1717 -0.39007700  12.010000   ; qtot 56.995667
 1718         hx     57    bbb     H5   1718 0.14940300   1.008000   ; qtot 57.145070
 1719         hx     57    bbb     H6   1719 0.14940300   1.008000   ; qtot 57.294473
 1720         c3     57    bbb     C4   1720 0.18057300  12.010000   ; qtot 57.475046
 1721         hc     57    bbb     H7   1721 0.01788900   1.008000   ; qtot 57.492935
 1722         hc     57    bbb     H8   1722 0.01788900   1.008000   ; qtot 57.510824
 1723         c3     57    bbb     C5   1723 -0.11337700  12.010000   ; qtot 57.397447
 1724         hc     57    bbb     H9   1724 0.09515400   1.008000   ; qtot 57.492601
 1725         hc     57    bbb    H10   1725 0.09515400   1.008000   ; qtot 57.587755
 1726         c3     57    bbb     C6   1726 -0.11337700  12.010000   ; qtot 57.474378
 1727         hc     57    bbb    H11   1727 0.09515400   1.008000   ; qtot 57.569532
 1728         hc     57    bbb    H12   1728 0.09515400   1.008000   ; qtot 57.664686
 1729         c3     57    bbb     C7   1729 0.21842400  12.010000   ; qtot 57.883110
 1730         h1     57    bbb    H13   1730 0.04500300   1.008000   ; qtot 57.928113
 1731         h1     57    bbb    H14   1731 0.04500300   1.008000   ; qtot 57.973116
 1732         c3     57    bbb     C8   1732 -0.06455200  12.010000   ; qtot 57.908564
 1733         h1     57    bbb    H15   1733 0.13554100   1.008000   ; qtot 58.044105
 1734         h1     57    bbb    H16   1734 0.13554100   1.008000   ; qtot 58.179646
 1735         c3     57    bbb     C9   1735 -0.06455200  12.010000   ; qtot 58.115094
 1736         h1     57    bbb    H17   1736 0.13554100   1.008000   ; qtot 58.250635
 1737         h1     57    bbb    H18   1737 0.13554100   1.008000   ; qtot 58.386176
 1738         os     57    bbb     O1   1738 -0.62587700  16.000000   ; qtot 57.760299
 1739         hn     57    bbb    H19   1739 0.23982500   1.008000   ; qtot 58.000124
; residue   58 bbb rtp bbb q 1.0
 1740         n4     58    bbb     N1   1740 0.03726400  14.010000   ; qtot 58.037388
 1741         c3     58    bbb     C1   1741 -0.07020100  12.010000   ; qtot 57.967187
 1742         hx     58    bbb     H1   1742 0.12219000   1.008000   ; qtot 58.089377
 1743         hx     58    bbb     H2   1743 0.12219000   1.008000   ; qtot 58.211567
 1744         c3     58    bbb     C2   1744 -0.07020100  12.010000   ; qtot 58.141366
 1745         hx     58    bbb     H3   1745 0.12219000   1.008000   ; qtot 58.263556
 1746         hx     58    bbb     H4   1746 0.12219000   1.008000   ; qtot 58.385746
 1747         c3     58    bbb     C3   1747 -0.39007700  12.010000   ; qtot 57.995669
 1748         hx     58    bbb     H5   1748 0.14940300   1.008000   ; qtot 58.145072
 1749         hx     58    bbb     H6   1749 0.14940300   1.008000   ; qtot 58.294475
 1750         c3     58    bbb     C4   1750 0.18057300  12.010000   ; qtot 58.475048
 1751         hc     58    bbb     H7   1751 0.01788900   1.008000   ; qtot 58.492937
 1752         hc     58    bbb     H8   1752 0.01788900   1.008000   ; qtot 58.510826
 1753         c3     58    bbb     C5   1753 -0.11337700  12.010000   ; qtot 58.397449
 1754         hc     58    bbb     H9   1754 0.09515400   1.008000   ; qtot 58.492603
 1755         hc     58    bbb    H10   1755 0.09515400   1.008000   ; qtot 58.587757
 1756         c3     58    bbb     C6   1756 -0.11337700  12.010000   ; qtot 58.474380
 1757         hc     58    bbb    H11   1757 0.09515400   1.008000   ; qtot 58.569534
 1758         hc     58    bbb    H12   1758 0.09515400   1.008000   ; qtot 58.664688
 1759         c3     58    bbb     C7   1759 0.21842400  12.010000   ; qtot 58.883112
 1760         h1     58    bbb    H13   1760 0.04500300   1.008000   ; qtot 58.928115
 1761         h1     58    bbb    H14   1761 0.04500300   1.008000   ; qtot 58.973118
 1762         c3     58    bbb     C8   1762 -0.06455200  12.010000   ; qtot 58.908566
 1763         h1     58    bbb    H15   1763 0.13554100   1.008000   ; qtot 59.044107
 1764         h1     58    bbb    H16   1764 0.13554100   1.008000   ; qtot 59.179648
 1765         c3     58    bbb     C9   1765 -0.06455200  12.010000   ; qtot 59.115096
 1766         h1     58    bbb    H17   1766 0.13554100   1.008000   ; qtot 59.250637
 1767         h1     58    bbb    H18   1767 0.13554100   1.008000   ; qtot 59.386178
 1768         os     58    bbb     O1   1768 -0.62587700  16.000000   ; qtot 58.760301
 1769         hn     58    bbb    H19   1769 0.23982500   1.008000   ; qtot 59.000126
; residue   59 bbb rtp bbb q 1.0
 1770         n4     59    bbb     N1   1770 0.03726400  14.010000   ; qtot 59.037390
 1771         c3     59    bbb     C1   1771 -0.07020100  12.010000   ; qtot 58.967189
 1772         hx     59    bbb     H1   1772 0.12219000   1.008000   ; qtot 59.089379
 1773         hx     59    bbb     H2   1773 0.12219000   1.008000   ; qtot 59.211569
 1774         c3     59    bbb     C2   1774 -0.07020100  12.010000   ; qtot 59.141368
 1775         hx     59    bbb     H3   1775 0.12219000   1.008000   ; qtot 59.263558
 1776         hx     59    bbb     H4   1776 0.12219000   1.008000   ; qtot 59.385748
 1777         c3     59    bbb     C3   1777 -0.39007700  12.010000   ; qtot 58.995671
 1778         hx     59    bbb     H5   1778 0.14940300   1.008000   ; qtot 59.145074
 1779         hx     59    bbb     H6   1779 0.14940300   1.008000   ; qtot 59.294477
 1780         c3     59    bbb     C4   1780 0.18057300  12.010000   ; qtot 59.475050
 1781         hc     59    bbb     H7   1781 0.01788900   1.008000   ; qtot 59.492939
 1782         hc     59    bbb     H8   1782 0.01788900   1.008000   ; qtot 59.510828
 1783         c3     59    bbb     C5   1783 -0.11337700  12.010000   ; qtot 59.397451
 1784         hc     59    bbb     H9   1784 0.09515400   1.008000   ; qtot 59.492605
 1785         hc     59    bbb    H10   1785 0.09515400   1.008000   ; qtot 59.587759
 1786         c3     59    bbb     C6   1786 -0.11337700  12.010000   ; qtot 59.474382
 1787         hc     59    bbb    H11   1787 0.09515400   1.008000   ; qtot 59.569536
 1788         hc     59    bbb    H12   1788 0.09515400   1.008000   ; qtot 59.664690
 1789         c3     59    bbb     C7   1789 0.21842400  12.010000   ; qtot 59.883114
 1790         h1     59    bbb    H13   1790 0.04500300   1.008000   ; qtot 59.928117
 1791         h1     59    bbb    H14   1791 0.04500300   1.008000   ; qtot 59.973120
 1792         c3     59    bbb     C8   1792 -0.06455200  12.010000   ; qtot 59.908568
 1793         h1     59    bbb    H15   1793 0.13554100   1.008000   ; qtot 60.044109
 1794         h1     59    bbb    H16   1794 0.13554100   1.008000   ; qtot 60.179650
 1795         c3     59    bbb     C9   1795 -0.06455200  12.010000   ; qtot 60.115098
 1796         h1     59    bbb    H17   1796 0.13554100   1.008000   ; qtot 60.250639
 1797         h1     59    bbb    H18   1797 0.13554100   1.008000   ; qtot 60.386180
 1798         os     59    bbb     O1   1798 -0.62587700  16.000000   ; qtot 59.760303
 1799         hn     59    bbb    H19   1799 0.23982500   1.008000   ; qtot 60.000128
; residue   60 bbb rtp bbb q 1.0
 1800         n4     60    bbb     N1   1800 0.03726400  14.010000   ; qtot 60.037392
 1801         c3     60    bbb     C1   1801 -0.07020100  12.010000   ; qtot 59.967191
 1802         hx     60    bbb     H1   1802 0.12219000   1.008000   ; qtot 60.089381
 1803         hx     60    bbb     H2   1803 0.12219000   1.008000   ; qtot 60.211571
 1804         c3     60    bbb     C2   1804 -0.07020100  12.010000   ; qtot 60.141370
 1805         hx     60    bbb     H3   1805 0.12219000   1.008000   ; qtot 60.263560
 1806         hx     60    bbb     H4   1806 0.12219000   1.008000   ; qtot 60.385750
 1807         c3     60    bbb     C3   1807 -0.39007700  12.010000   ; qtot 59.995673
 1808         hx     60    bbb     H5   1808 0.14940300   1.008000   ; qtot 60.145076
 1809         hx     60    bbb     H6   1809 0.14940300   1.008000   ; qtot 60.294479
 1810         c3     60    bbb     C4   1810 0.18057300  12.010000   ; qtot 60.475052
 1811         hc     60    bbb     H7   1811 0.01788900   1.008000   ; qtot 60.492941
 1812         hc     60    bbb     H8   1812 0.01788900   1.008000   ; qtot 60.510830
 1813         c3     60    bbb     C5   1813 -0.11337700  12.010000   ; qtot 60.397453
 1814         hc     60    bbb     H9   1814 0.09515400   1.008000   ; qtot 60.492607
 1815         hc     60    bbb    H10   1815 0.09515400   1.008000   ; qtot 60.587761
 1816         c3     60    bbb     C6   1816 -0.11337700  12.010000   ; qtot 60.474384
 1817         hc     60    bbb    H11   1817 0.09515400   1.008000   ; qtot 60.569538
 1818         hc     60    bbb    H12   1818 0.09515400   1.008000   ; qtot 60.664692
 1819         c3     60    bbb     C7   1819 0.21842400  12.010000   ; qtot 60.883116
 1820         h1     60    bbb    H13   1820 0.04500300   1.008000   ; qtot 60.928119
 1821         h1     60    bbb    H14   1821 0.04500300   1.008000   ; qtot 60.973122
 1822         c3     60    bbb     C8   1822 -0.06455200  12.010000   ; qtot 60.908570
 1823         h1     60    bbb    H15   1823 0.13554100   1.008000   ; qtot 61.044111
 1824         h1     60    bbb    H16   1824 0.13554100   1.008000   ; qtot 61.179652
 1825         c3     60    bbb     C9   1825 -0.06455200  12.010000   ; qtot 61.115100
 1826         h1     60    bbb    H17   1826 0.13554100   1.008000   ; qtot 61.250641
 1827         h1     60    bbb    H18   1827 0.13554100   1.008000   ; qtot 61.386182
 1828         os     60    bbb     O1   1828 -0.62587700  16.000000   ; qtot 60.760305
 1829         hn     60    bbb    H19   1829 0.23982500   1.008000   ; qtot 61.000130
; residue   61 bbb rtp bbb q 1.0
 1830         n4     61    bbb     N1   1830 0.03726400  14.010000   ; qtot 61.037394
 1831         c3     61    bbb     C1   1831 -0.07020100  12.010000   ; qtot 60.967193
 1832         hx     61    bbb     H1   1832 0.12219000   1.008000   ; qtot 61.089383
 1833         hx     61    bbb     H2   1833 0.12219000   1.008000   ; qtot 61.211573
 1834         c3     61    bbb     C2   1834 -0.07020100  12.010000   ; qtot 61.141372
 1835         hx     61    bbb     H3   1835 0.12219000   1.008000   ; qtot 61.263562
 1836         hx     61    bbb     H4   1836 0.12219000   1.008000   ; qtot 61.385752
 1837         c3     61    bbb     C3   1837 -0.39007700  12.010000   ; qtot 60.995675
 1838         hx     61    bbb     H5   1838 0.14940300   1.008000   ; qtot 61.145078
 1839         hx     61    bbb     H6   1839 0.14940300   1.008000   ; qtot 61.294481
 1840         c3     61    bbb     C4   1840 0.18057300  12.010000   ; qtot 61.475054
 1841         hc     61    bbb     H7   1841 0.01788900   1.008000   ; qtot 61.492943
 1842         hc     61    bbb     H8   1842 0.01788900   1.008000   ; qtot 61.510832
 1843         c3     61    bbb     C5   1843 -0.11337700  12.010000   ; qtot 61.397455
 1844         hc     61    bbb     H9   1844 0.09515400   1.008000   ; qtot 61.492609
 1845         hc     61    bbb    H10   1845 0.09515400   1.008000   ; qtot 61.587763
 1846         c3     61    bbb     C6   1846 -0.11337700  12.010000   ; qtot 61.474386
 1847         hc     61    bbb    H11   1847 0.09515400   1.008000   ; qtot 61.569540
 1848         hc     61    bbb    H12   1848 0.09515400   1.008000   ; qtot 61.664694
 1849         c3     61    bbb     C7   1849 0.21842400  12.010000   ; qtot 61.883118
 1850         h1     61    bbb    H13   1850 0.04500300   1.008000   ; qtot 61.928121
 1851         h1     61    bbb    H14   1851 0.04500300   1.008000   ; qtot 61.973124
 1852         c3     61    bbb     C8   1852 -0.06455200  12.010000   ; qtot 61.908572
 1853         h1     61    bbb    H15   1853 0.13554100   1.008000   ; qtot 62.044113
 1854         h1     61    bbb    H16   1854 0.13554100   1.008000   ; qtot 62.179654
 1855         c3     61    bbb     C9   1855 -0.06455200  12.010000   ; qtot 62.115102
 1856         h1     61    bbb    H17   1856 0.13554100   1.008000   ; qtot 62.250643
 1857         h1     61    bbb    H18   1857 0.13554100   1.008000   ; qtot 62.386184
 1858         os     61    bbb     O1   1858 -0.62587700  16.000000   ; qtot 61.760307
 1859         hn     61    bbb    H19   1859 0.23982500   1.008000   ; qtot 62.000132
; residue   62 ccc rtp ccc q 1.0
 1860         c3     62    ccc     C1   1860 0.14608100  12.010000   ; qtot 62.146213
 1861         h1     62    ccc     H1   1861 0.06738100   1.008000   ; qtot 62.213594
 1862         h1     62    ccc     H2   1862 0.06738100   1.008000   ; qtot 62.280975
 1863         c3     62    ccc     C2   1863 -0.14571900  12.010000   ; qtot 62.135256
 1864         hc     62    ccc     H3   1864 0.08688100   1.008000   ; qtot 62.222137
 1865         hc     62    ccc     H4   1865 0.08688100   1.008000   ; qtot 62.309018
 1866         c3     62    ccc     C3   1866 0.12348100  12.010000   ; qtot 62.432499
 1867         hx     62    ccc     H5   1867 0.10638100   1.008000   ; qtot 62.538880
 1868         hx     62    ccc     H6   1868 0.10638100   1.008000   ; qtot 62.645261
 1869         n4     62    ccc     N1   1869 -0.69071900  14.010000   ; qtot 61.954542
 1870         c3     62    ccc     C4   1870 0.12498100  12.010000   ; qtot 62.079523
 1871         hx     62    ccc     H7   1871 0.12238100   1.008000   ; qtot 62.201904
 1872         hx     62    ccc     H8   1872 0.12238100   1.008000   ; qtot 62.324285
 1873         c3     62    ccc     C5   1873 -0.20771900  12.010000   ; qtot 62.116566
 1874         hc     62    ccc     H9   1874 0.11463100   1.008000   ; qtot 62.231197
 1875         hc     62    ccc    H10   1875 0.11463100   1.008000   ; qtot 62.345828
 1876          c     62    ccc     C6   1876 0.64078100  12.010000   ; qtot 62.986609
 1877          o     62    ccc     O1   1877 -0.49231900  16.000000   ; qtot 62.494290
 1878         oh     62    ccc     O2   1878 -0.51841900  16.000000   ; qtot 61.975871
 1879         ho     62    ccc    H11   1879 0.45318100   1.008000   ; qtot 62.429052
 1880         c3     62    ccc     C7   1880 0.12498100  12.010000   ; qtot 62.554033
 1881         hx     62    ccc    H12   1881 0.12238100   1.008000   ; qtot 62.676414
 1882         hx     62    ccc    H13   1882 0.12238100   1.008000   ; qtot 62.798795
 1883         c3     62    ccc     C8   1883 -0.20771900  12.010000   ; qtot 62.591076
 1884         hc     62    ccc    H14   1884 0.11463100   1.008000   ; qtot 62.705707
 1885         hc     62    ccc    H15   1885 0.11463100   1.008000   ; qtot 62.820338
 1886          c     62    ccc     C9   1886 0.64078100  12.010000   ; qtot 63.461119
 1887          o     62    ccc     O3   1887 -0.49231900  16.000000   ; qtot 62.968800
 1888         oh     62    ccc     O4   1888 -0.51841900  16.000000   ; qtot 62.450381
 1889         ho     62    ccc    H16   1889 0.45318100   1.008000   ; qtot 62.903562
 1890         os     62    ccc     O5   1890 -0.39491900  16.000000   ; qtot 62.508643
 1891         hn     62    ccc    H17   1891 0.49148100   1.008000   ; qtot 63.000124
; residue   63 ccc rtp ccc q 1.0
 1892         c3     63    ccc     C1   1892 0.14608100  12.010000   ; qtot 63.146205
 1893         h1     63    ccc     H1   1893 0.06738100   1.008000   ; qtot 63.213586
 1894         h1     63    ccc     H2   1894 0.06738100   1.008000   ; qtot 63.280967
 1895         c3     63    ccc     C2   1895 -0.14571900  12.010000   ; qtot 63.135248
 1896         hc     63    ccc     H3   1896 0.08688100   1.008000   ; qtot 63.222129
 1897         hc     63    ccc     H4   1897 0.08688100   1.008000   ; qtot 63.309010
 1898         c3     63    ccc     C3   1898 0.12348100  12.010000   ; qtot 63.432491
 1899         hx     63    ccc     H5   1899 0.10638100   1.008000   ; qtot 63.538872
 1900         hx     63    ccc     H6   1900 0.10638100   1.008000   ; qtot 63.645253
 1901         n4     63    ccc     N1   1901 -0.69071900  14.010000   ; qtot 62.954534
 1902         c3     63    ccc     C4   1902 0.12498100  12.010000   ; qtot 63.079515
 1903         hx     63    ccc     H7   1903 0.12238100   1.008000   ; qtot 63.201896
 1904         hx     63    ccc     H8   1904 0.12238100   1.008000   ; qtot 63.324277
 1905         c3     63    ccc     C5   1905 -0.20771900  12.010000   ; qtot 63.116558
 1906         hc     63    ccc     H9   1906 0.11463100   1.008000   ; qtot 63.231189
 1907         hc     63    ccc    H10   1907 0.11463100   1.008000   ; qtot 63.345820
 1908          c     63    ccc     C6   1908 0.64078100  12.010000   ; qtot 63.986601
 1909          o     63    ccc     O1   1909 -0.49231900  16.000000   ; qtot 63.494282
 1910         oh     63    ccc     O2   1910 -0.51841900  16.000000   ; qtot 62.975863
 1911         ho     63    ccc    H11   1911 0.45318100   1.008000   ; qtot 63.429044
 1912         c3     63    ccc     C7   1912 0.12498100  12.010000   ; qtot 63.554025
 1913         hx     63    ccc    H12   1913 0.12238100   1.008000   ; qtot 63.676406
 1914         hx     63    ccc    H13   1914 0.12238100   1.008000   ; qtot 63.798787
 1915         c3     63    ccc     C8   1915 -0.20771900  12.010000   ; qtot 63.591068
 1916         hc     63    ccc    H14   1916 0.11463100   1.008000   ; qtot 63.705699
 1917         hc     63    ccc    H15   1917 0.11463100   1.008000   ; qtot 63.820330
 1918          c     63    ccc     C9   1918 0.64078100  12.010000   ; qtot 64.461111
 1919          o     63    ccc     O3   1919 -0.49231900  16.000000   ; qtot 63.968792
 1920         oh     63    ccc     O4   1920 -0.51841900  16.000000   ; qtot 63.450373
 1921         ho     63    ccc    H16   1921 0.45318100   1.008000   ; qtot 63.903554
 1922         os     63    ccc     O5   1922 -0.39491900  16.000000   ; qtot 63.508635
 1923         hn     63    ccc    H17   1923 0.49148100   1.008000   ; qtot 64.000116
; residue   64 ccc rtp ccc q 1.0
 1924         c3     64    ccc     C1   1924 0.14608100  12.010000   ; qtot 64.146197
 1925         h1     64    ccc     H1   1925 0.06738100   1.008000   ; qtot 64.213578
 1926         h1     64    ccc     H2   1926 0.06738100   1.008000   ; qtot 64.280959
 1927         c3     64    ccc     C2   1927 -0.14571900  12.010000   ; qtot 64.135240
 1928         hc     64    ccc     H3   1928 0.08688100   1.008000   ; qtot 64.222121
 1929         hc     64    ccc     H4   1929 0.08688100   1.008000   ; qtot 64.309002
 1930         c3     64    ccc     C3   1930 0.12348100  12.010000   ; qtot 64.432483
 1931         hx     64    ccc     H5   1931 0.10638100   1.008000   ; qtot 64.538864
 1932         hx     64    ccc     H6   1932 0.10638100   1.008000   ; qtot 64.645245
 1933         n4     64    ccc     N1   1933 -0.69071900  14.010000   ; qtot 63.954526
 1934         c3     64    ccc     C4   1934 0.12498100  12.010000   ; qtot 64.079507
 1935         hx     64    ccc     H7   1935 0.12238100   1.008000   ; qtot 64.201888
 1936         hx     64    ccc     H8   1936 0.12238100   1.008000   ; qtot 64.324269
 1937         c3     64    ccc     C5   1937 -0.20771900  12.010000   ; qtot 64.116550
 1938         hc     64    ccc     H9   1938 0.11463100   1.008000   ; qtot 64.231181
 1939         hc     64    ccc    H10   1939 0.11463100   1.008000   ; qtot 64.345812
 1940          c     64    ccc     C6   1940 0.64078100  12.010000   ; qtot 64.986593
 1941          o     64    ccc     O1   1941 -0.49231900  16.000000   ; qtot 64.494274
 1942         oh     64    ccc     O2   1942 -0.51841900  16.000000   ; qtot 63.975855
 1943         ho     64    ccc    H11   1943 0.45318100   1.008000   ; qtot 64.429036
 1944         c3     64    ccc     C7   1944 0.12498100  12.010000   ; qtot 64.554017
 1945         hx     64    ccc    H12   1945 0.12238100   1.008000   ; qtot 64.676398
 1946         hx     64    ccc    H13   1946 0.12238100   1.008000   ; qtot 64.798779
 1947         c3     64    ccc     C8   1947 -0.20771900  12.010000   ; qtot 64.591060
 1948         hc     64    ccc    H14   1948 0.11463100   1.008000   ; qtot 64.705691
 1949         hc     64    ccc    H15   1949 0.11463100   1.008000   ; qtot 64.820322
 1950          c     64    ccc     C9   1950 0.64078100  12.010000   ; qtot 65.461103
 1951          o     64    ccc     O3   1951 -0.49231900  16.000000   ; qtot 64.968784
 1952         oh     64    ccc     O4   1952 -0.51841900  16.000000   ; qtot 64.450365
 1953         ho     64    ccc    H16   1953 0.45318100   1.008000   ; qtot 64.903546
 1954         os     64    ccc     O5   1954 -0.39491900  16.000000   ; qtot 64.508627
 1955         hn     64    ccc    H17   1955 0.49148100   1.008000   ; qtot 65.000108
; residue   65 ccc rtp ccc q 1.0
 1956         c3     65    ccc     C1   1956 0.14608100  12.010000   ; qtot 65.146189
 1957         h1     65    ccc     H1   1957 0.06738100   1.008000   ; qtot 65.213570
 1958         h1     65    ccc     H2   1958 0.06738100   1.008000   ; qtot 65.280951
 1959         c3     65    ccc     C2   1959 -0.14571900  12.010000   ; qtot 65.135232
 1960         hc     65    ccc     H3   1960 0.08688100   1.008000   ; qtot 65.222113
 1961         hc     65    ccc     H4   1961 0.08688100   1.008000   ; qtot 65.308994
 1962         c3     65    ccc     C3   1962 0.12348100  12.010000   ; qtot 65.432475
 1963         hx     65    ccc     H5   1963 0.10638100   1.008000   ; qtot 65.538856
 1964         hx     65    ccc     H6   1964 0.10638100   1.008000   ; qtot 65.645237
 1965         n4     65    ccc     N1   1965 -0.69071900  14.010000   ; qtot 64.954518
 1966         c3     65    ccc     C4   1966 0.12498100  12.010000   ; qtot 65.079499
 1967         hx     65    ccc     H7   1967 0.12238100   1.008000   ; qtot 65.201880
 1968         hx     65    ccc     H8   1968 0.12238100   1.008000   ; qtot 65.324261
 1969         c3     65    ccc     C5   1969 -0.20771900  12.010000   ; qtot 65.116542
 1970         hc     65    ccc     H9   1970 0.11463100   1.008000   ; qtot 65.231173
 1971         hc     65    ccc    H10   1971 0.11463100   1.008000   ; qtot 65.345804
 1972          c     65    ccc     C6   1972 0.64078100  12.010000   ; qtot 65.986585
 1973          o     65    ccc     O1   1973 -0.49231900  16.000000   ; qtot 65.494266
 1974         oh     65    ccc     O2   1974 -0.51841900  16.000000   ; qtot 64.975847
 1975         ho     65    ccc    H11   1975 0.45318100   1.008000   ; qtot 65.429028
 1976         c3     65    ccc     C7   1976 0.12498100  12.010000   ; qtot 65.554009
 1977         hx     65    ccc    H12   1977 0.12238100   1.008000   ; qtot 65.676390
 1978         hx     65    ccc    H13   1978 0.12238100   1.008000   ; qtot 65.798771
 1979         c3     65    ccc     C8   1979 -0.20771900  12.010000   ; qtot 65.591052
 1980         hc     65    ccc    H14   1980 0.11463100   1.008000   ; qtot 65.705683
 1981         hc     65    ccc    H15   1981 0.11463100   1.008000   ; qtot 65.820314
 1982          c     65    ccc     C9   1982 0.64078100  12.010000   ; qtot 66.461095
 1983          o     65    ccc     O3   1983 -0.49231900  16.000000   ; qtot 65.968776
 1984         oh     65    ccc     O4   1984 -0.51841900  16.000000   ; qtot 65.450357
 1985         ho     65    ccc    H16   1985 0.45318100   1.008000   ; qtot 65.903538
 1986         os     65    ccc     O5   1986 -0.39491900  16.000000   ; qtot 65.508619
 1987         hn     65    ccc    H17   1987 0.49148100   1.008000   ; qtot 66.000100
; residue   66 ccc rtp ccc q 1.0
 1988         c3     66    ccc     C1   1988 0.14608100  12.010000   ; qtot 66.146181
 1989         h1     66    ccc     H1   1989 0.06738100   1.008000   ; qtot 66.213562
 1990         h1     66    ccc     H2   1990 0.06738100   1.008000   ; qtot 66.280943
 1991         c3     66    ccc     C2   1991 -0.14571900  12.010000   ; qtot 66.135224
 1992         hc     66    ccc     H3   1992 0.08688100   1.008000   ; qtot 66.222105
 1993         hc     66    ccc     H4   1993 0.08688100   1.008000   ; qtot 66.308986
 1994         c3     66    ccc     C3   1994 0.12348100  12.010000   ; qtot 66.432467
 1995         hx     66    ccc     H5   1995 0.10638100   1.008000   ; qtot 66.538848
 1996         hx     66    ccc     H6   1996 0.10638100   1.008000   ; qtot 66.645229
 1997         n4     66    ccc     N1   1997 -0.69071900  14.010000   ; qtot 65.954510
 1998         c3     66    ccc     C4   1998 0.12498100  12.010000   ; qtot 66.079491
 1999         hx     66    ccc     H7   1999 0.12238100   1.008000   ; qtot 66.201872
 2000         hx     66    ccc     H8   2000 0.12238100   1.008000   ; qtot 66.324253
 2001         c3     66    ccc     C5   2001 -0.20771900  12.010000   ; qtot 66.116534
 2002         hc     66    ccc     H9   2002 0.11463100   1.008000   ; qtot 66.231165
 2003         hc     66    ccc    H10   2003 0.11463100   1.008000   ; qtot 66.345796
 2004          c     66    ccc     C6   2004 0.64078100  12.010000   ; qtot 66.986577
 2005          o     66    ccc     O1   2005 -0.49231900  16.000000   ; qtot 66.494258
 2006         oh     66    ccc     O2   2006 -0.51841900  16.000000   ; qtot 65.975839
 2007         ho     66    ccc    H11   2007 0.45318100   1.008000   ; qtot 66.429020
 2008         c3     66    ccc     C7   2008 0.12498100  12.010000   ; qtot 66.554001
 2009         hx     66    ccc    H12   2009 0.12238100   1.008000   ; qtot 66.676382
 2010         hx     66    ccc    H13   2010 0.12238100   1.008000   ; qtot 66.798763
 2011         c3     66    ccc     C8   2011 -0.20771900  12.010000   ; qtot 66.591044
 2012         hc     66    ccc    H14   2012 0.11463100   1.008000   ; qtot 66.705675
 2013         hc     66    ccc    H15   2013 0.11463100   1.008000   ; qtot 66.820306
 2014          c     66    ccc     C9   2014 0.64078100  12.010000   ; qtot 67.461087
 2015          o     66    ccc     O3   2015 -0.49231900  16.000000   ; qtot 66.968768
 2016         oh     66    ccc     O4   2016 -0.51841900  16.000000   ; qtot 66.450349
 2017         ho     66    ccc    H16   2017 0.45318100   1.008000   ; qtot 66.903530
 2018         os     66    ccc     O5   2018 -0.39491900  16.000000   ; qtot 66.508611
 2019         hn     66    ccc    H17   2019 0.49148100   1.008000   ; qtot 67.000092
; residue   67 ccc rtp ccc q 1.0
 2020         c3     67    ccc     C1   2020 0.14608100  12.010000   ; qtot 67.146173
 2021         h1     67    ccc     H1   2021 0.06738100   1.008000   ; qtot 67.213554
 2022         h1     67    ccc     H2   2022 0.06738100   1.008000   ; qtot 67.280935
 2023         c3     67    ccc     C2   2023 -0.14571900  12.010000   ; qtot 67.135216
 2024         hc     67    ccc     H3   2024 0.08688100   1.008000   ; qtot 67.222097
 2025         hc     67    ccc     H4   2025 0.08688100   1.008000   ; qtot 67.308978
 2026         c3     67    ccc     C3   2026 0.12348100  12.010000   ; qtot 67.432459
 2027         hx     67    ccc     H5   2027 0.10638100   1.008000   ; qtot 67.538840
 2028         hx     67    ccc     H6   2028 0.10638100   1.008000   ; qtot 67.645221
 2029         n4     67    ccc     N1   2029 -0.69071900  14.010000   ; qtot 66.954502
 2030         c3     67    ccc     C4   2030 0.12498100  12.010000   ; qtot 67.079483
 2031         hx     67    ccc     H7   2031 0.12238100   1.008000   ; qtot 67.201864
 2032         hx     67    ccc     H8   2032 0.12238100   1.008000   ; qtot 67.324245
 2033         c3     67    ccc     C5   2033 -0.20771900  12.010000   ; qtot 67.116526
 2034         hc     67    ccc     H9   2034 0.11463100   1.008000   ; qtot 67.231157
 2035         hc     67    ccc    H10   2035 0.11463100   1.008000   ; qtot 67.345788
 2036          c     67    ccc     C6   2036 0.64078100  12.010000   ; qtot 67.986569
 2037          o     67    ccc     O1   2037 -0.49231900  16.000000   ; qtot 67.494250
 2038         oh     67    ccc     O2   2038 -0.51841900  16.000000   ; qtot 66.975831
 2039         ho     67    ccc    H11   2039 0.45318100   1.008000   ; qtot 67.429012
 2040         c3     67    ccc     C7   2040 0.12498100  12.010000   ; qtot 67.553993
 2041         hx     67    ccc    H12   2041 0.12238100   1.008000   ; qtot 67.676374
 2042         hx     67    ccc    H13   2042 0.12238100   1.008000   ; qtot 67.798755
 2043         c3     67    ccc     C8   2043 -0.20771900  12.010000   ; qtot 67.591036
 2044         hc     67    ccc    H14   2044 0.11463100   1.008000   ; qtot 67.705667
 2045         hc     67    ccc    H15   2045 0.11463100   1.008000   ; qtot 67.820298
 2046          c     67    ccc     C9   2046 0.64078100  12.010000   ; qtot 68.461079
 2047          o     67    ccc     O3   2047 -0.49231900  16.000000   ; qtot 67.968760
 2048         oh     67    ccc     O4   2048 -0.51841900  16.000000   ; qtot 67.450341
 2049         ho     67    ccc    H16   2049 0.45318100   1.008000   ; qtot 67.903522
 2050         os     67    ccc     O5   2050 -0.39491900  16.000000   ; qtot 67.508603
 2051         hn     67    ccc    H17   2051 0.49148100   1.008000   ; qtot 68.000084
; residue   68 ccc rtp ccc q 1.0
 2052         c3     68    ccc     C1   2052 0.14608100  12.010000   ; qtot 68.146165
 2053         h1     68    ccc     H1   2053 0.06738100   1.008000   ; qtot 68.213546
 2054         h1     68    ccc     H2   2054 0.06738100   1.008000   ; qtot 68.280927
 2055         c3     68    ccc     C2   2055 -0.14571900  12.010000   ; qtot 68.135208
 2056         hc     68    ccc     H3   2056 0.08688100   1.008000   ; qtot 68.222089
 2057         hc     68    ccc     H4   2057 0.08688100   1.008000   ; qtot 68.308970
 2058         c3     68    ccc     C3   2058 0.12348100  12.010000   ; qtot 68.432451
 2059         hx     68    ccc     H5   2059 0.10638100   1.008000   ; qtot 68.538832
 2060         hx     68    ccc     H6   2060 0.10638100   1.008000   ; qtot 68.645213
 2061         n4     68    ccc     N1   2061 -0.69071900  14.010000   ; qtot 67.954494
 2062         c3     68    ccc     C4   2062 0.12498100  12.010000   ; qtot 68.079475
 2063         hx     68    ccc     H7   2063 0.12238100   1.008000   ; qtot 68.201856
 2064         hx     68    ccc     H8   2064 0.12238100   1.008000   ; qtot 68.324237
 2065         c3     68    ccc     C5   2065 -0.20771900  12.010000   ; qtot 68.116518
 2066         hc     68    ccc     H9   2066 0.11463100   1.008000   ; qtot 68.231149
 2067         hc     68    ccc    H10   2067 0.11463100   1.008000   ; qtot 68.345780
 2068          c     68    ccc     C6   2068 0.64078100  12.010000   ; qtot 68.986561
 2069          o     68    ccc     O1   2069 -0.49231900  16.000000   ; qtot 68.494242
 2070         oh     68    ccc     O2   2070 -0.51841900  16.000000   ; qtot 67.975823
 2071         ho     68    ccc    H11   2071 0.45318100   1.008000   ; qtot 68.429004
 2072         c3     68    ccc     C7   2072 0.12498100  12.010000   ; qtot 68.553985
 2073         hx     68    ccc    H12   2073 0.12238100   1.008000   ; qtot 68.676366
 2074         hx     68    ccc    H13   2074 0.12238100   1.008000   ; qtot 68.798747
 2075         c3     68    ccc     C8   2075 -0.20771900  12.010000   ; qtot 68.591028
 2076         hc     68    ccc    H14   2076 0.11463100   1.008000   ; qtot 68.705659
 2077         hc     68    ccc    H15   2077 0.11463100   1.008000   ; qtot 68.820290
 2078          c     68    ccc     C9   2078 0.64078100  12.010000   ; qtot 69.461071
 2079          o     68    ccc     O3   2079 -0.49231900  16.000000   ; qtot 68.968752
 2080         oh     68    ccc     O4   2080 -0.51841900  16.000000   ; qtot 68.450333
 2081         ho     68    ccc    H16   2081 0.45318100   1.008000   ; qtot 68.903514
 2082         os     68    ccc     O5   2082 -0.39491900  16.000000   ; qtot 68.508595
 2083         hn     68    ccc    H17   2083 0.49148100   1.008000   ; qtot 69.000076
; residue   69 ccc rtp ccc q 1.0
 2084         c3     69    ccc     C1   2084 0.14608100  12.010000   ; qtot 69.146157
 2085         h1     69    ccc     H1   2085 0.06738100   1.008000   ; qtot 69.213538
 2086         h1     69    ccc     H2   2086 0.06738100   1.008000   ; qtot 69.280919
 2087         c3     69    ccc     C2   2087 -0.14571900  12.010000   ; qtot 69.135200
 2088         hc     69    ccc     H3   2088 0.08688100   1.008000   ; qtot 69.222081
 2089         hc     69    ccc     H4   2089 0.08688100   1.008000   ; qtot 69.308962
 2090         c3     69    ccc     C3   2090 0.12348100  12.010000   ; qtot 69.432443
 2091         hx     69    ccc     H5   2091 0.10638100   1.008000   ; qtot 69.538824
 2092         hx     69    ccc     H6   2092 0.10638100   1.008000   ; qtot 69.645205
 2093         n4     69    ccc     N1   2093 -0.69071900  14.010000   ; qtot 68.954486
 2094         c3     69    ccc     C4   2094 0.12498100  12.010000   ; qtot 69.079467
 2095         hx     69    ccc     H7   2095 0.12238100   1.008000   ; qtot 69.201848
 2096         hx     69    ccc     H8   2096 0.12238100   1.008000   ; qtot 69.324229
 2097         c3     69    ccc     C5   2097 -0.20771900  12.010000   ; qtot 69.116510
 2098         hc     69    ccc     H9   2098 0.11463100   1.008000   ; qtot 69.231141
 2099         hc     69    ccc    H10   2099 0.11463100   1.008000   ; qtot 69.345772
 2100          c     69    ccc     C6   2100 0.64078100  12.010000   ; qtot 69.986553
 2101          o     69    ccc     O1   2101 -0.49231900  16.000000   ; qtot 69.494234
 2102         oh     69    ccc     O2   2102 -0.51841900  16.000000   ; qtot 68.975815
 2103         ho     69    ccc    H11   2103 0.45318100   1.008000   ; qtot 69.428996
 2104         c3     69    ccc     C7   2104 0.12498100  12.010000   ; qtot 69.553977
 2105         hx     69    ccc    H12   2105 0.12238100   1.008000   ; qtot 69.676358
 2106         hx     69    ccc    H13   2106 0.12238100   1.008000   ; qtot 69.798739
 2107         c3     69    ccc     C8   2107 -0.20771900  12.010000   ; qtot 69.591020
 2108         hc     69    ccc    H14   2108 0.11463100   1.008000   ; qtot 69.705651
 2109         hc     69    ccc    H15   2109 0.11463100   1.008000   ; qtot 69.820282
 2110          c     69    ccc     C9   2110 0.64078100  12.010000   ; qtot 70.461063
 2111          o     69    ccc     O3   2111 -0.49231900  16.000000   ; qtot 69.968744
 2112         oh     69    ccc     O4   2112 -0.51841900  16.000000   ; qtot 69.450325
 2113         ho     69    ccc    H16   2113 0.45318100   1.008000   ; qtot 69.903506
 2114         os     69    ccc     O5   2114 -0.39491900  16.000000   ; qtot 69.508587
 2115         hn     69    ccc    H17   2115 0.49148100   1.008000   ; qtot 70.000068
; residue   70 ccc rtp ccc q 1.0
 2116         c3     70    ccc     C1   2116 0.14608100  12.010000   ; qtot 70.146149
 2117         h1     70    ccc     H1   2117 0.06738100   1.008000   ; qtot 70.213530
 2118         h1     70    ccc     H2   2118 0.06738100   1.008000   ; qtot 70.280911
 2119         c3     70    ccc     C2   2119 -0.14571900  12.010000   ; qtot 70.135192
 2120         hc     70    ccc     H3   2120 0.08688100   1.008000   ; qtot 70.222073
 2121         hc     70    ccc     H4   2121 0.08688100   1.008000   ; qtot 70.308954
 2122         c3     70    ccc     C3   2122 0.12348100  12.010000   ; qtot 70.432435
 2123         hx     70    ccc     H5   2123 0.10638100   1.008000   ; qtot 70.538816
 2124         hx     70    ccc     H6   2124 0.10638100   1.008000   ; qtot 70.645197
 2125         n4     70    ccc     N1   2125 -0.69071900  14.010000   ; qtot 69.954478
 2126         c3     70    ccc     C4   2126 0.12498100  12.010000   ; qtot 70.079459
 2127         hx     70    ccc     H7   2127 0.12238100   1.008000   ; qtot 70.201840
 2128         hx     70    ccc     H8   2128 0.12238100   1.008000   ; qtot 70.324221
 2129         c3     70    ccc     C5   2129 -0.20771900  12.010000   ; qtot 70.116502
 2130         hc     70    ccc     H9   2130 0.11463100   1.008000   ; qtot 70.231133
 2131         hc     70    ccc    H10   2131 0.11463100   1.008000   ; qtot 70.345764
 2132          c     70    ccc     C6   2132 0.64078100  12.010000   ; qtot 70.986545
 2133          o     70    ccc     O1   2133 -0.49231900  16.000000   ; qtot 70.494226
 2134         oh     70    ccc     O2   2134 -0.51841900  16.000000   ; qtot 69.975807
 2135         ho     70    ccc    H11   2135 0.45318100   1.008000   ; qtot 70.428988
 2136         c3     70    ccc     C7   2136 0.12498100  12.010000   ; qtot 70.553969
 2137         hx     70    ccc    H12   2137 0.12238100   1.008000   ; qtot 70.676350
 2138         hx     70    ccc    H13   2138 0.12238100   1.008000   ; qtot 70.798731
 2139         c3     70    ccc     C8   2139 -0.20771900  12.010000   ; qtot 70.591012
 2140         hc     70    ccc    H14   2140 0.11463100   1.008000   ; qtot 70.705643
 2141         hc     70    ccc    H15   2141 0.11463100   1.008000   ; qtot 70.820274
 2142          c     70    ccc     C9   2142 0.64078100  12.010000   ; qtot 71.461055
 2143          o     70    ccc     O3   2143 -0.49231900  16.000000   ; qtot 70.968736
 2144         oh     70    ccc     O4   2144 -0.51841900  16.000000   ; qtot 70.450317
 2145         ho     70    ccc    H16   2145 0.45318100   1.008000   ; qtot 70.903498
 2146         os     70    ccc     O5   2146 -0.39491900  16.000000   ; qtot 70.508579
 2147         hn     70    ccc    H17   2147 0.49148100   1.008000   ; qtot 71.000060
; residue   71 ccc rtp ccc q 1.0
 2148         c3     71    ccc     C1   2148 0.14608100  12.010000   ; qtot 71.146141
 2149         h1     71    ccc     H1   2149 0.06738100   1.008000   ; qtot 71.213522
 2150         h1     71    ccc     H2   2150 0.06738100   1.008000   ; qtot 71.280903
 2151         c3     71    ccc     C2   2151 -0.14571900  12.010000   ; qtot 71.135184
 2152         hc     71    ccc     H3   2152 0.08688100   1.008000   ; qtot 71.222065
 2153         hc     71    ccc     H4   2153 0.08688100   1.008000   ; qtot 71.308946
 2154         c3     71    ccc     C3   2154 0.12348100  12.010000   ; qtot 71.432427
 2155         hx     71    ccc     H5   2155 0.10638100   1.008000   ; qtot 71.538808
 2156         hx     71    ccc     H6   2156 0.10638100   1.008000   ; qtot 71.645189
 2157         n4     71    ccc     N1   2157 -0.69071900  14.010000   ; qtot 70.954470
 2158         c3     71    ccc     C4   2158 0.12498100  12.010000   ; qtot 71.079451
 2159         hx     71    ccc     H7   2159 0.12238100   1.008000   ; qtot 71.201832
 2160         hx     71    ccc     H8   2160 0.12238100   1.008000   ; qtot 71.324213
 2161         c3     71    ccc     C5   2161 -0.20771900  12.010000   ; qtot 71.116494
 2162         hc     71    ccc     H9   2162 0.11463100   1.008000   ; qtot 71.231125
 2163         hc     71    ccc    H10   2163 0.11463100   1.008000   ; qtot 71.345756
 2164          c     71    ccc     C6   2164 0.64078100  12.010000   ; qtot 71.986537
 2165          o     71    ccc     O1   2165 -0.49231900  16.000000   ; qtot 71.494218
 2166         oh     71    ccc     O2   2166 -0.51841900  16.000000   ; qtot 70.975799
 2167         ho     71    ccc    H11   2167 0.45318100   1.008000   ; qtot 71.428980
 2168         c3     71    ccc     C7   2168 0.12498100  12.010000   ; qtot 71.553961
 2169         hx     71    ccc    H12   2169 0.12238100   1.008000   ; qtot 71.676342
 2170         hx     71    ccc    H13   2170 0.12238100   1.008000   ; qtot 71.798723
 2171         c3     71    ccc     C8   2171 -0.20771900  12.010000   ; qtot 71.591004
 2172         hc     71    ccc    H14   2172 0.11463100   1.008000   ; qtot 71.705635
 2173         hc     71    ccc    H15   2173 0.11463100   1.008000   ; qtot 71.820266
 2174          c     71    ccc     C9   2174 0.64078100  12.010000   ; qtot 72.461047
 2175          o     71    ccc     O3   2175 -0.49231900  16.000000   ; qtot 71.968728
 2176         oh     71    ccc     O4   2176 -0.51841900  16.000000   ; qtot 71.450309
 2177         ho     71    ccc    H16   2177 0.45318100   1.008000   ; qtot 71.903490
 2178         os     71    ccc     O5   2178 -0.39491900  16.000000   ; qtot 71.508571
 2179         hn     71    ccc    H17   2179 0.49148100   1.008000   ; qtot 72.000052
; residue   72 ccc rtp ccc q 1.0
 2180         c3     72    ccc     C1   2180 0.14608100  12.010000   ; qtot 72.146133
 2181         h1     72    ccc     H1   2181 0.06738100   1.008000   ; qtot 72.213514
 2182         h1     72    ccc     H2   2182 0.06738100   1.008000   ; qtot 72.280895
 2183         c3     72    ccc     C2   2183 -0.14571900  12.010000   ; qtot 72.135176
 2184         hc     72    ccc     H3   2184 0.08688100   1.008000   ; qtot 72.222057
 2185         hc     72    ccc     H4   2185 0.08688100   1.008000   ; qtot 72.308938
 2186         c3     72    ccc     C3   2186 0.12348100  12.010000   ; qtot 72.432419
 2187         hx     72    ccc     H5   2187 0.10638100   1.008000   ; qtot 72.538800
 2188         hx     72    ccc     H6   2188 0.10638100   1.008000   ; qtot 72.645181
 2189         n4     72    ccc     N1   2189 -0.69071900  14.010000   ; qtot 71.954462
 2190         c3     72    ccc     C4   2190 0.12498100  12.010000   ; qtot 72.079443
 2191         hx     72    ccc     H7   2191 0.12238100   1.008000   ; qtot 72.201824
 2192         hx     72    ccc     H8   2192 0.12238100   1.008000   ; qtot 72.324205
 2193         c3     72    ccc     C5   2193 -0.20771900  12.010000   ; qtot 72.116486
 2194         hc     72    ccc     H9   2194 0.11463100   1.008000   ; qtot 72.231117
 2195         hc     72    ccc    H10   2195 0.11463100   1.008000   ; qtot 72.345748
 2196          c     72    ccc     C6   2196 0.64078100  12.010000   ; qtot 72.986529
 2197          o     72    ccc     O1   2197 -0.49231900  16.000000   ; qtot 72.494210
 2198         oh     72    ccc     O2   2198 -0.51841900  16.000000   ; qtot 71.975791
 2199         ho     72    ccc    H11   2199 0.45318100   1.008000   ; qtot 72.428972
 2200         c3     72    ccc     C7   2200 0.12498100  12.010000   ; qtot 72.553953
 2201         hx     72    ccc    H12   2201 0.12238100   1.008000   ; qtot 72.676334
 2202         hx     72    ccc    H13   2202 0.12238100   1.008000   ; qtot 72.798715
 2203         c3     72    ccc     C8   2203 -0.20771900  12.010000   ; qtot 72.590996
 2204         hc     72    ccc    H14   2204 0.11463100   1.008000   ; qtot 72.705627
 2205         hc     72    ccc    H15   2205 0.11463100   1.008000   ; qtot 72.820258
 2206          c     72    ccc     C9   2206 0.64078100  12.010000   ; qtot 73.461039
 2207          o     72    ccc     O3   2207 -0.49231900  16.000000   ; qtot 72.968720
 2208         oh     72    ccc     O4   2208 -0.51841900  16.000000   ; qtot 72.450301
 2209         ho     72    ccc    H16   2209 0.45318100   1.008000   ; qtot 72.903482
 2210         os     72    ccc     O5   2210 -0.39491900  16.000000   ; qtot 72.508563
 2211         hn     72    ccc    H17   2211 0.49148100   1.008000   ; qtot 73.000044
; residue   73 ccc rtp ccc q 1.0
 2212         c3     73    ccc     C1   2212 0.14608100  12.010000   ; qtot 73.146125
 2213         h1     73    ccc     H1   2213 0.06738100   1.008000   ; qtot 73.213506
 2214         h1     73    ccc     H2   2214 0.06738100   1.008000   ; qtot 73.280887
 2215         c3     73    ccc     C2   2215 -0.14571900  12.010000   ; qtot 73.135168
 2216         hc     73    ccc     H3   2216 0.08688100   1.008000   ; qtot 73.222049
 2217         hc     73    ccc     H4   2217 0.08688100   1.008000   ; qtot 73.308930
 2218         c3     73    ccc     C3   2218 0.12348100  12.010000   ; qtot 73.432411
 2219         hx     73    ccc     H5   2219 0.10638100   1.008000   ; qtot 73.538792
 2220         hx     73    ccc     H6   2220 0.10638100   1.008000   ; qtot 73.645173
 2221         n4     73    ccc     N1   2221 -0.69071900  14.010000   ; qtot 72.954454
 2222         c3     73    ccc     C4   2222 0.12498100  12.010000   ; qtot 73.079435
 2223         hx     73    ccc     H7   2223 0.12238100   1.008000   ; qtot 73.201816
 2224         hx     73    ccc     H8   2224 0.12238100   1.008000   ; qtot 73.324197
 2225         c3     73    ccc     C5   2225 -0.20771900  12.010000   ; qtot 73.116478
 2226         hc     73    ccc     H9   2226 0.11463100   1.008000   ; qtot 73.231109
 2227         hc     73    ccc    H10   2227 0.11463100   1.008000   ; qtot 73.345740
 2228          c     73    ccc     C6   2228 0.64078100  12.010000   ; qtot 73.986521
 2229          o     73    ccc     O1   2229 -0.49231900  16.000000   ; qtot 73.494202
 2230         oh     73    ccc     O2   2230 -0.51841900  16.000000   ; qtot 72.975783
 2231         ho     73    ccc    H11   2231 0.45318100   1.008000   ; qtot 73.428964
 2232         c3     73    ccc     C7   2232 0.12498100  12.010000   ; qtot 73.553945
 2233         hx     73    ccc    H12   2233 0.12238100   1.008000   ; qtot 73.676326
 2234         hx     73    ccc    H13   2234 0.12238100   1.008000   ; qtot 73.798707
 2235         c3     73    ccc     C8   2235 -0.20771900  12.010000   ; qtot 73.590988
 2236         hc     73    ccc    H14   2236 0.11463100   1.008000   ; qtot 73.705619
 2237         hc     73    ccc    H15   2237 0.11463100   1.008000   ; qtot 73.820250
 2238          c     73    ccc     C9   2238 0.64078100  12.010000   ; qtot 74.461031
 2239          o     73    ccc     O3   2239 -0.49231900  16.000000   ; qtot 73.968712
 2240         oh     73    ccc     O4   2240 -0.51841900  16.000000   ; qtot 73.450293
 2241         ho     73    ccc    H16   2241 0.45318100   1.008000   ; qtot 73.903474
 2242         os     73    ccc     O5   2242 -0.39491900  16.000000   ; qtot 73.508555
 2243         hn     73    ccc    H17   2243 0.49148100   1.008000   ; qtot 74.000036
; residue   74 ccc rtp ccc q 1.0
 2244         c3     74    ccc     C1   2244 0.14608100  12.010000   ; qtot 74.146117
 2245         h1     74    ccc     H1   2245 0.06738100   1.008000   ; qtot 74.213498
 2246         h1     74    ccc     H2   2246 0.06738100   1.008000   ; qtot 74.280879
 2247         c3     74    ccc     C2   2247 -0.14571900  12.010000   ; qtot 74.135160
 2248         hc     74    ccc     H3   2248 0.08688100   1.008000   ; qtot 74.222041
 2249         hc     74    ccc     H4   2249 0.08688100   1.008000   ; qtot 74.308922
 2250         c3     74    ccc     C3   2250 0.12348100  12.010000   ; qtot 74.432403
 2251         hx     74    ccc     H5   2251 0.10638100   1.008000   ; qtot 74.538784
 2252         hx     74    ccc     H6   2252 0.10638100   1.008000   ; qtot 74.645165
 2253         n4     74    ccc     N1   2253 -0.69071900  14.010000   ; qtot 73.954446
 2254         c3     74    ccc     C4   2254 0.12498100  12.010000   ; qtot 74.079427
 2255         hx     74    ccc     H7   2255 0.12238100   1.008000   ; qtot 74.201808
 2256         hx     74    ccc     H8   2256 0.12238100   1.008000   ; qtot 74.324189
 2257         c3     74    ccc     C5   2257 -0.20771900  12.010000   ; qtot 74.116470
 2258         hc     74    ccc     H9   2258 0.11463100   1.008000   ; qtot 74.231101
 2259         hc     74    ccc    H10   2259 0.11463100   1.008000   ; qtot 74.345732
 2260          c     74    ccc     C6   2260 0.64078100  12.010000   ; qtot 74.986513
 2261          o     74    ccc     O1   2261 -0.49231900  16.000000   ; qtot 74.494194
 2262         oh     74    ccc     O2   2262 -0.51841900  16.000000   ; qtot 73.975775
 2263         ho     74    ccc    H11   2263 0.45318100   1.008000   ; qtot 74.428956
 2264         c3     74    ccc     C7   2264 0.12498100  12.010000   ; qtot 74.553937
 2265         hx     74    ccc    H12   2265 0.12238100   1.008000   ; qtot 74.676318
 2266         hx     74    ccc    H13   2266 0.12238100   1.008000   ; qtot 74.798699
 2267         c3     74    ccc     C8   2267 -0.20771900  12.010000   ; qtot 74.590980
 2268         hc     74    ccc    H14   2268 0.11463100   1.008000   ; qtot 74.705611
 2269         hc     74    ccc    H15   2269 0.11463100   1.008000   ; qtot 74.820242
 2270          c     74    ccc     C9   2270 0.64078100  12.010000   ; qtot 75.461023
 2271          o     74    ccc     O3   2271 -0.49231900  16.000000   ; qtot 74.968704
 2272         oh     74    ccc     O4   2272 -0.51841900  16.000000   ; qtot 74.450285
 2273         ho     74    ccc    H16   2273 0.45318100   1.008000   ; qtot 74.903466
 2274         os     74    ccc     O5   2274 -0.39491900  16.000000   ; qtot 74.508547
 2275         hn     74    ccc    H17   2275 0.49148100   1.008000   ; qtot 75.000028
; residue   75 ccc rtp ccc q 1.0
 2276         c3     75    ccc     C1   2276 0.14608100  12.010000   ; qtot 75.146109
 2277         h1     75    ccc     H1   2277 0.06738100   1.008000   ; qtot 75.213490
 2278         h1     75    ccc     H2   2278 0.06738100   1.008000   ; qtot 75.280871
 2279         c3     75    ccc     C2   2279 -0.14571900  12.010000   ; qtot 75.135152
 2280         hc     75    ccc     H3   2280 0.08688100   1.008000   ; qtot 75.222033
 2281         hc     75    ccc     H4   2281 0.08688100   1.008000   ; qtot 75.308914
 2282         c3     75    ccc     C3   2282 0.12348100  12.010000   ; qtot 75.432395
 2283         hx     75    ccc     H5   2283 0.10638100   1.008000   ; qtot 75.538776
 2284         hx     75    ccc     H6   2284 0.10638100   1.008000   ; qtot 75.645157
 2285         n4     75    ccc     N1   2285 -0.69071900  14.010000   ; qtot 74.954438
 2286         c3     75    ccc     C4   2286 0.12498100  12.010000   ; qtot 75.079419
 2287         hx     75    ccc     H7   2287 0.12238100   1.008000   ; qtot 75.201800
 2288         hx     75    ccc     H8   2288 0.12238100   1.008000   ; qtot 75.324181
 2289         c3     75    ccc     C5   2289 -0.20771900  12.010000   ; qtot 75.116462
 2290         hc     75    ccc     H9   2290 0.11463100   1.008000   ; qtot 75.231093
 2291         hc     75    ccc    H10   2291 0.11463100   1.008000   ; qtot 75.345724
 2292          c     75    ccc     C6   2292 0.64078100  12.010000   ; qtot 75.986505
 2293          o     75    ccc     O1   2293 -0.49231900  16.000000   ; qtot 75.494186
 2294         oh     75    ccc     O2   2294 -0.51841900  16.000000   ; qtot 74.975767
 2295         ho     75    ccc    H11   2295 0.45318100   1.008000   ; qtot 75.428948
 2296         c3     75    ccc     C7   2296 0.12498100  12.010000   ; qtot 75.553929
 2297         hx     75    ccc    H12   2297 0.12238100   1.008000   ; qtot 75.676310
 2298         hx     75    ccc    H13   2298 0.12238100   1.008000   ; qtot 75.798691
 2299         c3     75    ccc     C8   2299 -0.20771900  12.010000   ; qtot 75.590972
 2300         hc     75    ccc    H14   2300 0.11463100   1.008000   ; qtot 75.705603
 2301         hc     75    ccc    H15   2301 0.11463100   1.008000   ; qtot 75.820234
 2302          c     75    ccc     C9   2302 0.64078100  12.010000   ; qtot 76.461015
 2303          o     75    ccc     O3   2303 -0.49231900  16.000000   ; qtot 75.968696
 2304         oh     75    ccc     O4   2304 -0.51841900  16.000000   ; qtot 75.450277
 2305         ho     75    ccc    H16   2305 0.45318100   1.008000   ; qtot 75.903458
 2306         os     75    ccc     O5   2306 -0.39491900  16.000000   ; qtot 75.508539
 2307         hn     75    ccc    H17   2307 0.49148100   1.008000   ; qtot 76.000020
; residue   76 ccc rtp ccc q 1.0
 2308         c3     76    ccc     C1   2308 0.14608100  12.010000   ; qtot 76.146101
 2309         h1     76    ccc     H1   2309 0.06738100   1.008000   ; qtot 76.213482
 2310         h1     76    ccc     H2   2310 0.06738100   1.008000   ; qtot 76.280863
 2311         c3     76    ccc     C2   2311 -0.14571900  12.010000   ; qtot 76.135144
 2312         hc     76    ccc     H3   2312 0.08688100   1.008000   ; qtot 76.222025
 2313         hc     76    ccc     H4   2313 0.08688100   1.008000   ; qtot 76.308906
 2314         c3     76    ccc     C3   2314 0.12348100  12.010000   ; qtot 76.432387
 2315         hx     76    ccc     H5   2315 0.10638100   1.008000   ; qtot 76.538768
 2316         hx     76    ccc     H6   2316 0.10638100   1.008000   ; qtot 76.645149
 2317         n4     76    ccc     N1   2317 -0.69071900  14.010000   ; qtot 75.954430
 2318         c3     76    ccc     C4   2318 0.12498100  12.010000   ; qtot 76.079411
 2319         hx     76    ccc     H7   2319 0.12238100   1.008000   ; qtot 76.201792
 2320         hx     76    ccc     H8   2320 0.12238100   1.008000   ; qtot 76.324173
 2321         c3     76    ccc     C5   2321 -0.20771900  12.010000   ; qtot 76.116454
 2322         hc     76    ccc     H9   2322 0.11463100   1.008000   ; qtot 76.231085
 2323         hc     76    ccc    H10   2323 0.11463100   1.008000   ; qtot 76.345716
 2324          c     76    ccc     C6   2324 0.64078100  12.010000   ; qtot 76.986497
 2325          o     76    ccc     O1   2325 -0.49231900  16.000000   ; qtot 76.494178
 2326         oh     76    ccc     O2   2326 -0.51841900  16.000000   ; qtot 75.975759
 2327         ho     76    ccc    H11   2327 0.45318100   1.008000   ; qtot 76.428940
 2328         c3     76    ccc     C7   2328 0.12498100  12.010000   ; qtot 76.553921
 2329         hx     76    ccc    H12   2329 0.12238100   1.008000   ; qtot 76.676302
 2330         hx     76    ccc    H13   2330 0.12238100   1.008000   ; qtot 76.798683
 2331         c3     76    ccc     C8   2331 -0.20771900  12.010000   ; qtot 76.590964
 2332         hc     76    ccc    H14   2332 0.11463100   1.008000   ; qtot 76.705595
 2333         hc     76    ccc    H15   2333 0.11463100   1.008000   ; qtot 76.820226
 2334          c     76    ccc     C9   2334 0.64078100  12.010000   ; qtot 77.461007
 2335          o     76    ccc     O3   2335 -0.49231900  16.000000   ; qtot 76.968688
 2336         oh     76    ccc     O4   2336 -0.51841900  16.000000   ; qtot 76.450269
 2337         ho     76    ccc    H16   2337 0.45318100   1.008000   ; qtot 76.903450
 2338         os     76    ccc     O5   2338 -0.39491900  16.000000   ; qtot 76.508531
 2339         hn     76    ccc    H17   2339 0.49148100   1.008000   ; qtot 77.000012
; residue   77 ccc rtp ccc q 1.0
 2340         c3     77    ccc     C1   2340 0.14608100  12.010000   ; qtot 77.146093
 2341         h1     77    ccc     H1   2341 0.06738100   1.008000   ; qtot 77.213474
 2342         h1     77    ccc     H2   2342 0.06738100   1.008000   ; qtot 77.280855
 2343         c3     77    ccc     C2   2343 -0.14571900  12.010000   ; qtot 77.135136
 2344         hc     77    ccc     H3   2344 0.08688100   1.008000   ; qtot 77.222017
 2345         hc     77    ccc     H4   2345 0.08688100   1.008000   ; qtot 77.308898
 2346         c3     77    ccc     C3   2346 0.12348100  12.010000   ; qtot 77.432379
 2347         hx     77    ccc     H5   2347 0.10638100   1.008000   ; qtot 77.538760
 2348         hx     77    ccc     H6   2348 0.10638100   1.008000   ; qtot 77.645141
 2349         n4     77    ccc     N1   2349 -0.69071900  14.010000   ; qtot 76.954422
 2350         c3     77    ccc     C4   2350 0.12498100  12.010000   ; qtot 77.079403
 2351         hx     77    ccc     H7   2351 0.12238100   1.008000   ; qtot 77.201784
 2352         hx     77    ccc     H8   2352 0.12238100   1.008000   ; qtot 77.324165
 2353         c3     77    ccc     C5   2353 -0.20771900  12.010000   ; qtot 77.116446
 2354         hc     77    ccc     H9   2354 0.11463100   1.008000   ; qtot 77.231077
 2355         hc     77    ccc    H10   2355 0.11463100   1.008000   ; qtot 77.345708
 2356          c     77    ccc     C6   2356 0.64078100  12.010000   ; qtot 77.986489
 2357          o     77    ccc     O1   2357 -0.49231900  16.000000   ; qtot 77.494170
 2358         oh     77    ccc     O2   2358 -0.51841900  16.000000   ; qtot 76.975751
 2359         ho     77    ccc    H11   2359 0.45318100   1.008000   ; qtot 77.428932
 2360         c3     77    ccc     C7   2360 0.12498100  12.010000   ; qtot 77.553913
 2361         hx     77    ccc    H12   2361 0.12238100   1.008000   ; qtot 77.676294
 2362         hx     77    ccc    H13   2362 0.12238100   1.008000   ; qtot 77.798675
 2363         c3     77    ccc     C8   2363 -0.20771900  12.010000   ; qtot 77.590956
 2364         hc     77    ccc    H14   2364 0.11463100   1.008000   ; qtot 77.705587
 2365         hc     77    ccc    H15   2365 0.11463100   1.008000   ; qtot 77.820218
 2366          c     77    ccc     C9   2366 0.64078100  12.010000   ; qtot 78.460999
 2367          o     77    ccc     O3   2367 -0.49231900  16.000000   ; qtot 77.968680
 2368         oh     77    ccc     O4   2368 -0.51841900  16.000000   ; qtot 77.450261
 2369         ho     77    ccc    H16   2369 0.45318100   1.008000   ; qtot 77.903442
 2370         os     77    ccc     O5   2370 -0.39491900  16.000000   ; qtot 77.508523
 2371         hn     77    ccc    H17   2371 0.49148100   1.008000   ; qtot 78.000004
; residue   78 ccc rtp ccc q 1.0
 2372         c3     78    ccc     C1   2372 0.14608100  12.010000   ; qtot 78.146085
 2373         h1     78    ccc     H1   2373 0.06738100   1.008000   ; qtot 78.213466
 2374         h1     78    ccc     H2   2374 0.06738100   1.008000   ; qtot 78.280847
 2375         c3     78    ccc     C2   2375 -0.14571900  12.010000   ; qtot 78.135128
 2376         hc     78    ccc     H3   2376 0.08688100   1.008000   ; qtot 78.222009
 2377         hc     78    ccc     H4   2377 0.08688100   1.008000   ; qtot 78.308890
 2378         c3     78    ccc     C3   2378 0.12348100  12.010000   ; qtot 78.432371
 2379         hx     78    ccc     H5   2379 0.10638100   1.008000   ; qtot 78.538752
 2380         hx     78    ccc     H6   2380 0.10638100   1.008000   ; qtot 78.645133
 2381         n4     78    ccc     N1   2381 -0.69071900  14.010000   ; qtot 77.954414
 2382         c3     78    ccc     C4   2382 0.12498100  12.010000   ; qtot 78.079395
 2383         hx     78    ccc     H7   2383 0.12238100   1.008000   ; qtot 78.201776
 2384         hx     78    ccc     H8   2384 0.12238100   1.008000   ; qtot 78.324157
 2385         c3     78    ccc     C5   2385 -0.20771900  12.010000   ; qtot 78.116438
 2386         hc     78    ccc     H9   2386 0.11463100   1.008000   ; qtot 78.231069
 2387         hc     78    ccc    H10   2387 0.11463100   1.008000   ; qtot 78.345700
 2388          c     78    ccc     C6   2388 0.64078100  12.010000   ; qtot 78.986481
 2389          o     78    ccc     O1   2389 -0.49231900  16.000000   ; qtot 78.494162
 2390         oh     78    ccc     O2   2390 -0.51841900  16.000000   ; qtot 77.975743
 2391         ho     78    ccc    H11   2391 0.45318100   1.008000   ; qtot 78.428924
 2392         c3     78    ccc     C7   2392 0.12498100  12.010000   ; qtot 78.553905
 2393         hx     78    ccc    H12   2393 0.12238100   1.008000   ; qtot 78.676286
 2394         hx     78    ccc    H13   2394 0.12238100   1.008000   ; qtot 78.798667
 2395         c3     78    ccc     C8   2395 -0.20771900  12.010000   ; qtot 78.590948
 2396         hc     78    ccc    H14   2396 0.11463100   1.008000   ; qtot 78.705579
 2397         hc     78    ccc    H15   2397 0.11463100   1.008000   ; qtot 78.820210
 2398          c     78    ccc     C9   2398 0.64078100  12.010000   ; qtot 79.460991
 2399          o     78    ccc     O3   2399 -0.49231900  16.000000   ; qtot 78.968672
 2400         oh     78    ccc     O4   2400 -0.51841900  16.000000   ; qtot 78.450253
 2401         ho     78    ccc    H16   2401 0.45318100   1.008000   ; qtot 78.903434
 2402         os     78    ccc     O5   2402 -0.39491900  16.000000   ; qtot 78.508515
 2403         hn     78    ccc    H17   2403 0.49148100   1.008000   ; qtot 78.999996
; residue   79 ccc rtp ccc q 1.0
 2404         c3     79    ccc     C1   2404 0.14608100  12.010000   ; qtot 79.146077
 2405         h1     79    ccc     H1   2405 0.06738100   1.008000   ; qtot 79.213458
 2406         h1     79    ccc     H2   2406 0.06738100   1.008000   ; qtot 79.280839
 2407         c3     79    ccc     C2   2407 -0.14571900  12.010000   ; qtot 79.135120
 2408         hc     79    ccc     H3   2408 0.08688100   1.008000   ; qtot 79.222001
 2409         hc     79    ccc     H4   2409 0.08688100   1.008000   ; qtot 79.308882
 2410         c3     79    ccc     C3   2410 0.12348100  12.010000   ; qtot 79.432363
 2411         hx     79    ccc     H5   2411 0.10638100   1.008000   ; qtot 79.538744
 2412         hx     79    ccc     H6   2412 0.10638100   1.008000   ; qtot 79.645125
 2413         n4     79    ccc     N1   2413 -0.69071900  14.010000   ; qtot 78.954406
 2414         c3     79    ccc     C4   2414 0.12498100  12.010000   ; qtot 79.079387
 2415         hx     79    ccc     H7   2415 0.12238100   1.008000   ; qtot 79.201768
 2416         hx     79    ccc     H8   2416 0.12238100   1.008000   ; qtot 79.324149
 2417         c3     79    ccc     C5   2417 -0.20771900  12.010000   ; qtot 79.116430
 2418         hc     79    ccc     H9   2418 0.11463100   1.008000   ; qtot 79.231061
 2419         hc     79    ccc    H10   2419 0.11463100   1.008000   ; qtot 79.345692
 2420          c     79    ccc     C6   2420 0.64078100  12.010000   ; qtot 79.986473
 2421          o     79    ccc     O1   2421 -0.49231900  16.000000   ; qtot 79.494154
 2422         oh     79    ccc     O2   2422 -0.51841900  16.000000   ; qtot 78.975735
 2423         ho     79    ccc    H11   2423 0.45318100   1.008000   ; qtot 79.428916
 2424         c3     79    ccc     C7   2424 0.12498100  12.010000   ; qtot 79.553897
 2425         hx     79    ccc    H12   2425 0.12238100   1.008000   ; qtot 79.676278
 2426         hx     79    ccc    H13   2426 0.12238100   1.008000   ; qtot 79.798659
 2427         c3     79    ccc     C8   2427 -0.20771900  12.010000   ; qtot 79.590940
 2428         hc     79    ccc    H14   2428 0.11463100   1.008000   ; qtot 79.705571
 2429         hc     79    ccc    H15   2429 0.11463100   1.008000   ; qtot 79.820202
 2430          c     79    ccc     C9   2430 0.64078100  12.010000   ; qtot 80.460983
 2431          o     79    ccc     O3   2431 -0.49231900  16.000000   ; qtot 79.968664
 2432         oh     79    ccc     O4   2432 -0.51841900  16.000000   ; qtot 79.450245
 2433         ho     79    ccc    H16   2433 0.45318100   1.008000   ; qtot 79.903426
 2434         os     79    ccc     O5   2434 -0.39491900  16.000000   ; qtot 79.508507
 2435         hn     79    ccc    H17   2435 0.49148100   1.008000   ; qtot 79.999988
; residue   80 ccc rtp ccc q 1.0
 2436         c3     80    ccc     C1   2436 0.14608100  12.010000   ; qtot 80.146069
 2437         h1     80    ccc     H1   2437 0.06738100   1.008000   ; qtot 80.213450
 2438         h1     80    ccc     H2   2438 0.06738100   1.008000   ; qtot 80.280831
 2439         c3     80    ccc     C2   2439 -0.14571900  12.010000   ; qtot 80.135112
 2440         hc     80    ccc     H3   2440 0.08688100   1.008000   ; qtot 80.221993
 2441         hc     80    ccc     H4   2441 0.08688100   1.008000   ; qtot 80.308874
 2442         c3     80    ccc     C3   2442 0.12348100  12.010000   ; qtot 80.432355
 2443         hx     80    ccc     H5   2443 0.10638100   1.008000   ; qtot 80.538736
 2444         hx     80    ccc     H6   2444 0.10638100   1.008000   ; qtot 80.645117
 2445         n4     80    ccc     N1   2445 -0.69071900  14.010000   ; qtot 79.954398
 2446         c3     80    ccc     C4   2446 0.12498100  12.010000   ; qtot 80.079379
 2447         hx     80    ccc     H7   2447 0.12238100   1.008000   ; qtot 80.201760
 2448         hx     80    ccc     H8   2448 0.12238100   1.008000   ; qtot 80.324141
 2449         c3     80    ccc     C5   2449 -0.20771900  12.010000   ; qtot 80.116422
 2450         hc     80    ccc     H9   2450 0.11463100   1.008000   ; qtot 80.231053
 2451         hc     80    ccc    H10   2451 0.11463100   1.008000   ; qtot 80.345684
 2452          c     80    ccc     C6   2452 0.64078100  12.010000   ; qtot 80.986465
 2453          o     80    ccc     O1   2453 -0.49231900  16.000000   ; qtot 80.494146
 2454         oh     80    ccc     O2   2454 -0.51841900  16.000000   ; qtot 79.975727
 2455         ho     80    ccc    H11   2455 0.45318100   1.008000   ; qtot 80.428908
 2456         c3     80    ccc     C7   2456 0.12498100  12.010000   ; qtot 80.553889
 2457         hx     80    ccc    H12   2457 0.12238100   1.008000   ; qtot 80.676270
 2458         hx     80    ccc    H13   2458 0.12238100   1.008000   ; qtot 80.798651
 2459         c3     80    ccc     C8   2459 -0.20771900  12.010000   ; qtot 80.590932
 2460         hc     80    ccc    H14   2460 0.11463100   1.008000   ; qtot 80.705563
 2461         hc     80    ccc    H15   2461 0.11463100   1.008000   ; qtot 80.820194
 2462          c     80    ccc     C9   2462 0.64078100  12.010000   ; qtot 81.460975
 2463          o     80    ccc     O3   2463 -0.49231900  16.000000   ; qtot 80.968656
 2464         oh     80    ccc     O4   2464 -0.51841900  16.000000   ; qtot 80.450237
 2465         ho     80    ccc    H16   2465 0.45318100   1.008000   ; qtot 80.903418
 2466         os     80    ccc     O5   2466 -0.39491900  16.000000   ; qtot 80.508499
 2467         hn     80    ccc    H17   2467 0.49148100   1.008000   ; qtot 80.999980
; residue   81 ccc rtp ccc q 1.0
 2468         c3     81    ccc     C1   2468 0.14608100  12.010000   ; qtot 81.146061
 2469         h1     81    ccc     H1   2469 0.06738100   1.008000   ; qtot 81.213442
 2470         h1     81    ccc     H2   2470 0.06738100   1.008000   ; qtot 81.280823
 2471         c3     81    ccc     C2   2471 -0.14571900  12.010000   ; qtot 81.135104
 2472         hc     81    ccc     H3   2472 0.08688100   1.008000   ; qtot 81.221985
 2473         hc     81    ccc     H4   2473 0.08688100   1.008000   ; qtot 81.308866
 2474         c3     81    ccc     C3   2474 0.12348100  12.010000   ; qtot 81.432347
 2475         hx     81    ccc     H5   2475 0.10638100   1.008000   ; qtot 81.538728
 2476         hx     81    ccc     H6   2476 0.10638100   1.008000   ; qtot 81.645109
 2477         n4     81    ccc     N1   2477 -0.69071900  14.010000   ; qtot 80.954390
 2478         c3     81    ccc     C4   2478 0.12498100  12.010000   ; qtot 81.079371
 2479         hx     81    ccc     H7   2479 0.12238100   1.008000   ; qtot 81.201752
 2480         hx     81    ccc     H8   2480 0.12238100   1.008000   ; qtot 81.324133
 2481         c3     81    ccc     C5   2481 -0.20771900  12.010000   ; qtot 81.116414
 2482         hc     81    ccc     H9   2482 0.11463100   1.008000   ; qtot 81.231045
 2483         hc     81    ccc    H10   2483 0.11463100   1.008000   ; qtot 81.345676
 2484          c     81    ccc     C6   2484 0.64078100  12.010000   ; qtot 81.986457
 2485          o     81    ccc     O1   2485 -0.49231900  16.000000   ; qtot 81.494138
 2486         oh     81    ccc     O2   2486 -0.51841900  16.000000   ; qtot 80.975719
 2487         ho     81    ccc    H11   2487 0.45318100   1.008000   ; qtot 81.428900
 2488         c3     81    ccc     C7   2488 0.12498100  12.010000   ; qtot 81.553881
 2489         hx     81    ccc    H12   2489 0.12238100   1.008000   ; qtot 81.676262
 2490         hx     81    ccc    H13   2490 0.12238100   1.008000   ; qtot 81.798643
 2491         c3     81    ccc     C8   2491 -0.20771900  12.010000   ; qtot 81.590924
 2492         hc     81    ccc    H14   2492 0.11463100   1.008000   ; qtot 81.705555
 2493         hc     81    ccc    H15   2493 0.11463100   1.008000   ; qtot 81.820186
 2494          c     81    ccc     C9   2494 0.64078100  12.010000   ; qtot 82.460967
 2495          o     81    ccc     O3   2495 -0.49231900  16.000000   ; qtot 81.968648
 2496         oh     81    ccc     O4   2496 -0.51841900  16.000000   ; qtot 81.450229
 2497         ho     81    ccc    H16   2497 0.45318100   1.008000   ; qtot 81.903410
 2498         os     81    ccc     O5   2498 -0.39491900  16.000000   ; qtot 81.508491
 2499         hn     81    ccc    H17   2499 0.49148100   1.008000   ; qtot 81.999972
; residue   82 ccc rtp ccc q 1.0
 2500         c3     82    ccc     C1   2500 0.14608100  12.010000   ; qtot 82.146053
 2501         h1     82    ccc     H1   2501 0.06738100   1.008000   ; qtot 82.213434
 2502         h1     82    ccc     H2   2502 0.06738100   1.008000   ; qtot 82.280815
 2503         c3     82    ccc     C2   2503 -0.14571900  12.010000   ; qtot 82.135096
 2504         hc     82    ccc     H3   2504 0.08688100   1.008000   ; qtot 82.221977
 2505         hc     82    ccc     H4   2505 0.08688100   1.008000   ; qtot 82.308858
 2506         c3     82    ccc     C3   2506 0.12348100  12.010000   ; qtot 82.432339
 2507         hx     82    ccc     H5   2507 0.10638100   1.008000   ; qtot 82.538720
 2508         hx     82    ccc     H6   2508 0.10638100   1.008000   ; qtot 82.645101
 2509         n4     82    ccc     N1   2509 -0.69071900  14.010000   ; qtot 81.954382
 2510         c3     82    ccc     C4   2510 0.12498100  12.010000   ; qtot 82.079363
 2511         hx     82    ccc     H7   2511 0.12238100   1.008000   ; qtot 82.201744
 2512         hx     82    ccc     H8   2512 0.12238100   1.008000   ; qtot 82.324125
 2513         c3     82    ccc     C5   2513 -0.20771900  12.010000   ; qtot 82.116406
 2514         hc     82    ccc     H9   2514 0.11463100   1.008000   ; qtot 82.231037
 2515         hc     82    ccc    H10   2515 0.11463100   1.008000   ; qtot 82.345668
 2516          c     82    ccc     C6   2516 0.64078100  12.010000   ; qtot 82.986449
 2517          o     82    ccc     O1   2517 -0.49231900  16.000000   ; qtot 82.494130
 2518         oh     82    ccc     O2   2518 -0.51841900  16.000000   ; qtot 81.975711
 2519         ho     82    ccc    H11   2519 0.45318100   1.008000   ; qtot 82.428892
 2520         c3     82    ccc     C7   2520 0.12498100  12.010000   ; qtot 82.553873
 2521         hx     82    ccc    H12   2521 0.12238100   1.008000   ; qtot 82.676254
 2522         hx     82    ccc    H13   2522 0.12238100   1.008000   ; qtot 82.798635
 2523         c3     82    ccc     C8   2523 -0.20771900  12.010000   ; qtot 82.590916
 2524         hc     82    ccc    H14   2524 0.11463100   1.008000   ; qtot 82.705547
 2525         hc     82    ccc    H15   2525 0.11463100   1.008000   ; qtot 82.820178
 2526          c     82    ccc     C9   2526 0.64078100  12.010000   ; qtot 83.460959
 2527          o     82    ccc     O3   2527 -0.49231900  16.000000   ; qtot 82.968640
 2528         oh     82    ccc     O4   2528 -0.51841900  16.000000   ; qtot 82.450221
 2529         ho     82    ccc    H16   2529 0.45318100   1.008000   ; qtot 82.903402
 2530         os     82    ccc     O5   2530 -0.39491900  16.000000   ; qtot 82.508483
 2531         hn     82    ccc    H17   2531 0.49148100   1.008000   ; qtot 82.999964
; residue   83 ccc rtp ccc q 1.0
 2532         c3     83    ccc     C1   2532 0.14608100  12.010000   ; qtot 83.146045
 2533         h1     83    ccc     H1   2533 0.06738100   1.008000   ; qtot 83.213426
 2534         h1     83    ccc     H2   2534 0.06738100   1.008000   ; qtot 83.280807
 2535         c3     83    ccc     C2   2535 -0.14571900  12.010000   ; qtot 83.135088
 2536         hc     83    ccc     H3   2536 0.08688100   1.008000   ; qtot 83.221969
 2537         hc     83    ccc     H4   2537 0.08688100   1.008000   ; qtot 83.308850
 2538         c3     83    ccc     C3   2538 0.12348100  12.010000   ; qtot 83.432331
 2539         hx     83    ccc     H5   2539 0.10638100   1.008000   ; qtot 83.538712
 2540         hx     83    ccc     H6   2540 0.10638100   1.008000   ; qtot 83.645093
 2541         n4     83    ccc     N1   2541 -0.69071900  14.010000   ; qtot 82.954374
 2542         c3     83    ccc     C4   2542 0.12498100  12.010000   ; qtot 83.079355
 2543         hx     83    ccc     H7   2543 0.12238100   1.008000   ; qtot 83.201736
 2544         hx     83    ccc     H8   2544 0.12238100   1.008000   ; qtot 83.324117
 2545         c3     83    ccc     C5   2545 -0.20771900  12.010000   ; qtot 83.116398
 2546         hc     83    ccc     H9   2546 0.11463100   1.008000   ; qtot 83.231029
 2547         hc     83    ccc    H10   2547 0.11463100   1.008000   ; qtot 83.345660
 2548          c     83    ccc     C6   2548 0.64078100  12.010000   ; qtot 83.986441
 2549          o     83    ccc     O1   2549 -0.49231900  16.000000   ; qtot 83.494122
 2550         oh     83    ccc     O2   2550 -0.51841900  16.000000   ; qtot 82.975703
 2551         ho     83    ccc    H11   2551 0.45318100   1.008000   ; qtot 83.428884
 2552         c3     83    ccc     C7   2552 0.12498100  12.010000   ; qtot 83.553865
 2553         hx     83    ccc    H12   2553 0.12238100   1.008000   ; qtot 83.676246
 2554         hx     83    ccc    H13   2554 0.12238100   1.008000   ; qtot 83.798627
 2555         c3     83    ccc     C8   2555 -0.20771900  12.010000   ; qtot 83.590908
 2556         hc     83    ccc    H14   2556 0.11463100   1.008000   ; qtot 83.705539
 2557         hc     83    ccc    H15   2557 0.11463100   1.008000   ; qtot 83.820170
 2558          c     83    ccc     C9   2558 0.64078100  12.010000   ; qtot 84.460951
 2559          o     83    ccc     O3   2559 -0.49231900  16.000000   ; qtot 83.968632
 2560         oh     83    ccc     O4   2560 -0.51841900  16.000000   ; qtot 83.450213
 2561         ho     83    ccc    H16   2561 0.45318100   1.008000   ; qtot 83.903394
 2562         os     83    ccc     O5   2562 -0.39491900  16.000000   ; qtot 83.508475
 2563         hn     83    ccc    H17   2563 0.49148100   1.008000   ; qtot 83.999956
; residue   84 ccc rtp ccc q 1.0
 2564         c3     84    ccc     C1   2564 0.14608100  12.010000   ; qtot 84.146037
 2565         h1     84    ccc     H1   2565 0.06738100   1.008000   ; qtot 84.213418
 2566         h1     84    ccc     H2   2566 0.06738100   1.008000   ; qtot 84.280799
 2567         c3     84    ccc     C2   2567 -0.14571900  12.010000   ; qtot 84.135080
 2568         hc     84    ccc     H3   2568 0.08688100   1.008000   ; qtot 84.221961
 2569         hc     84    ccc     H4   2569 0.08688100   1.008000   ; qtot 84.308842
 2570         c3     84    ccc     C3   2570 0.12348100  12.010000   ; qtot 84.432323
 2571         hx     84    ccc     H5   2571 0.10638100   1.008000   ; qtot 84.538704
 2572         hx     84    ccc     H6   2572 0.10638100   1.008000   ; qtot 84.645085
 2573         n4     84    ccc     N1   2573 -0.69071900  14.010000   ; qtot 83.954366
 2574         c3     84    ccc     C4   2574 0.12498100  12.010000   ; qtot 84.079347
 2575         hx     84    ccc     H7   2575 0.12238100   1.008000   ; qtot 84.201728
 2576         hx     84    ccc     H8   2576 0.12238100   1.008000   ; qtot 84.324109
 2577         c3     84    ccc     C5   2577 -0.20771900  12.010000   ; qtot 84.116390
 2578         hc     84    ccc     H9   2578 0.11463100   1.008000   ; qtot 84.231021
 2579         hc     84    ccc    H10   2579 0.11463100   1.008000   ; qtot 84.345652
 2580          c     84    ccc     C6   2580 0.64078100  12.010000   ; qtot 84.986433
 2581          o     84    ccc     O1   2581 -0.49231900  16.000000   ; qtot 84.494114
 2582         oh     84    ccc     O2   2582 -0.51841900  16.000000   ; qtot 83.975695
 2583         ho     84    ccc    H11   2583 0.45318100   1.008000   ; qtot 84.428876
 2584         c3     84    ccc     C7   2584 0.12498100  12.010000   ; qtot 84.553857
 2585         hx     84    ccc    H12   2585 0.12238100   1.008000   ; qtot 84.676238
 2586         hx     84    ccc    H13   2586 0.12238100   1.008000   ; qtot 84.798619
 2587         c3     84    ccc     C8   2587 -0.20771900  12.010000   ; qtot 84.590900
 2588         hc     84    ccc    H14   2588 0.11463100   1.008000   ; qtot 84.705531
 2589         hc     84    ccc    H15   2589 0.11463100   1.008000   ; qtot 84.820162
 2590          c     84    ccc     C9   2590 0.64078100  12.010000   ; qtot 85.460943
 2591          o     84    ccc     O3   2591 -0.49231900  16.000000   ; qtot 84.968624
 2592         oh     84    ccc     O4   2592 -0.51841900  16.000000   ; qtot 84.450205
 2593         ho     84    ccc    H16   2593 0.45318100   1.008000   ; qtot 84.903386
 2594         os     84    ccc     O5   2594 -0.39491900  16.000000   ; qtot 84.508467
 2595         hn     84    ccc    H17   2595 0.49148100   1.008000   ; qtot 84.999948
; residue   85 ccc rtp ccc q 1.0
 2596         c3     85    ccc     C1   2596 0.14608100  12.010000   ; qtot 85.146029
 2597         h1     85    ccc     H1   2597 0.06738100   1.008000   ; qtot 85.213410
 2598         h1     85    ccc     H2   2598 0.06738100   1.008000   ; qtot 85.280791
 2599         c3     85    ccc     C2   2599 -0.14571900  12.010000   ; qtot 85.135072
 2600         hc     85    ccc     H3   2600 0.08688100   1.008000   ; qtot 85.221953
 2601         hc     85    ccc     H4   2601 0.08688100   1.008000   ; qtot 85.308834
 2602         c3     85    ccc     C3   2602 0.12348100  12.010000   ; qtot 85.432315
 2603         hx     85    ccc     H5   2603 0.10638100   1.008000   ; qtot 85.538696
 2604         hx     85    ccc     H6   2604 0.10638100   1.008000   ; qtot 85.645077
 2605         n4     85    ccc     N1   2605 -0.69071900  14.010000   ; qtot 84.954358
 2606         c3     85    ccc     C4   2606 0.12498100  12.010000   ; qtot 85.079339
 2607         hx     85    ccc     H7   2607 0.12238100   1.008000   ; qtot 85.201720
 2608         hx     85    ccc     H8   2608 0.12238100   1.008000   ; qtot 85.324101
 2609         c3     85    ccc     C5   2609 -0.20771900  12.010000   ; qtot 85.116382
 2610         hc     85    ccc     H9   2610 0.11463100   1.008000   ; qtot 85.231013
 2611         hc     85    ccc    H10   2611 0.11463100   1.008000   ; qtot 85.345644
 2612          c     85    ccc     C6   2612 0.64078100  12.010000   ; qtot 85.986425
 2613          o     85    ccc     O1   2613 -0.49231900  16.000000   ; qtot 85.494106
 2614         oh     85    ccc     O2   2614 -0.51841900  16.000000   ; qtot 84.975687
 2615         ho     85    ccc    H11   2615 0.45318100   1.008000   ; qtot 85.428868
 2616         c3     85    ccc     C7   2616 0.12498100  12.010000   ; qtot 85.553849
 2617         hx     85    ccc    H12   2617 0.12238100   1.008000   ; qtot 85.676230
 2618         hx     85    ccc    H13   2618 0.12238100   1.008000   ; qtot 85.798611
 2619         c3     85    ccc     C8   2619 -0.20771900  12.010000   ; qtot 85.590892
 2620         hc     85    ccc    H14   2620 0.11463100   1.008000   ; qtot 85.705523
 2621         hc     85    ccc    H15   2621 0.11463100   1.008000   ; qtot 85.820154
 2622          c     85    ccc     C9   2622 0.64078100  12.010000   ; qtot 86.460935
 2623          o     85    ccc     O3   2623 -0.49231900  16.000000   ; qtot 85.968616
 2624         oh     85    ccc     O4   2624 -0.51841900  16.000000   ; qtot 85.450197
 2625         ho     85    ccc    H16   2625 0.45318100   1.008000   ; qtot 85.903378
 2626         os     85    ccc     O5   2626 -0.39491900  16.000000   ; qtot 85.508459
 2627         hn     85    ccc    H17   2627 0.49148100   1.008000   ; qtot 85.999940
; residue   86 ccc rtp ccc q 1.0
 2628         c3     86    ccc     C1   2628 0.14608100  12.010000   ; qtot 86.146021
 2629         h1     86    ccc     H1   2629 0.06738100   1.008000   ; qtot 86.213402
 2630         h1     86    ccc     H2   2630 0.06738100   1.008000   ; qtot 86.280783
 2631         c3     86    ccc     C2   2631 -0.14571900  12.010000   ; qtot 86.135064
 2632         hc     86    ccc     H3   2632 0.08688100   1.008000   ; qtot 86.221945
 2633         hc     86    ccc     H4   2633 0.08688100   1.008000   ; qtot 86.308826
 2634         c3     86    ccc     C3   2634 0.12348100  12.010000   ; qtot 86.432307
 2635         hx     86    ccc     H5   2635 0.10638100   1.008000   ; qtot 86.538688
 2636         hx     86    ccc     H6   2636 0.10638100   1.008000   ; qtot 86.645069
 2637         n4     86    ccc     N1   2637 -0.69071900  14.010000   ; qtot 85.954350
 2638         c3     86    ccc     C4   2638 0.12498100  12.010000   ; qtot 86.079331
 2639         hx     86    ccc     H7   2639 0.12238100   1.008000   ; qtot 86.201712
 2640         hx     86    ccc     H8   2640 0.12238100   1.008000   ; qtot 86.324093
 2641         c3     86    ccc     C5   2641 -0.20771900  12.010000   ; qtot 86.116374
 2642         hc     86    ccc     H9   2642 0.11463100   1.008000   ; qtot 86.231005
 2643         hc     86    ccc    H10   2643 0.11463100   1.008000   ; qtot 86.345636
 2644          c     86    ccc     C6   2644 0.64078100  12.010000   ; qtot 86.986417
 2645          o     86    ccc     O1   2645 -0.49231900  16.000000   ; qtot 86.494098
 2646         oh     86    ccc     O2   2646 -0.51841900  16.000000   ; qtot 85.975679
 2647         ho     86    ccc    H11   2647 0.45318100   1.008000   ; qtot 86.428860
 2648         c3     86    ccc     C7   2648 0.12498100  12.010000   ; qtot 86.553841
 2649         hx     86    ccc    H12   2649 0.12238100   1.008000   ; qtot 86.676222
 2650         hx     86    ccc    H13   2650 0.12238100   1.008000   ; qtot 86.798603
 2651         c3     86    ccc     C8   2651 -0.20771900  12.010000   ; qtot 86.590884
 2652         hc     86    ccc    H14   2652 0.11463100   1.008000   ; qtot 86.705515
 2653         hc     86    ccc    H15   2653 0.11463100   1.008000   ; qtot 86.820146
 2654          c     86    ccc     C9   2654 0.64078100  12.010000   ; qtot 87.460927
 2655          o     86    ccc     O3   2655 -0.49231900  16.000000   ; qtot 86.968608
 2656         oh     86    ccc     O4   2656 -0.51841900  16.000000   ; qtot 86.450189
 2657         ho     86    ccc    H16   2657 0.45318100   1.008000   ; qtot 86.903370
 2658         os     86    ccc     O5   2658 -0.39491900  16.000000   ; qtot 86.508451
 2659         hn     86    ccc    H17   2659 0.49148100   1.008000   ; qtot 86.999932
; residue   87 ccc rtp ccc q 1.0
 2660         c3     87    ccc     C1   2660 0.14608100  12.010000   ; qtot 87.146013
 2661         h1     87    ccc     H1   2661 0.06738100   1.008000   ; qtot 87.213394
 2662         h1     87    ccc     H2   2662 0.06738100   1.008000   ; qtot 87.280775
 2663         c3     87    ccc     C2   2663 -0.14571900  12.010000   ; qtot 87.135056
 2664         hc     87    ccc     H3   2664 0.08688100   1.008000   ; qtot 87.221937
 2665         hc     87    ccc     H4   2665 0.08688100   1.008000   ; qtot 87.308818
 2666         c3     87    ccc     C3   2666 0.12348100  12.010000   ; qtot 87.432299
 2667         hx     87    ccc     H5   2667 0.10638100   1.008000   ; qtot 87.538680
 2668         hx     87    ccc     H6   2668 0.10638100   1.008000   ; qtot 87.645061
 2669         n4     87    ccc     N1   2669 -0.69071900  14.010000   ; qtot 86.954342
 2670         c3     87    ccc     C4   2670 0.12498100  12.010000   ; qtot 87.079323
 2671         hx     87    ccc     H7   2671 0.12238100   1.008000   ; qtot 87.201704
 2672         hx     87    ccc     H8   2672 0.12238100   1.008000   ; qtot 87.324085
 2673         c3     87    ccc     C5   2673 -0.20771900  12.010000   ; qtot 87.116366
 2674         hc     87    ccc     H9   2674 0.11463100   1.008000   ; qtot 87.230997
 2675         hc     87    ccc    H10   2675 0.11463100   1.008000   ; qtot 87.345628
 2676          c     87    ccc     C6   2676 0.64078100  12.010000   ; qtot 87.986409
 2677          o     87    ccc     O1   2677 -0.49231900  16.000000   ; qtot 87.494090
 2678         oh     87    ccc     O2   2678 -0.51841900  16.000000   ; qtot 86.975671
 2679         ho     87    ccc    H11   2679 0.45318100   1.008000   ; qtot 87.428852
 2680         c3     87    ccc     C7   2680 0.12498100  12.010000   ; qtot 87.553833
 2681         hx     87    ccc    H12   2681 0.12238100   1.008000   ; qtot 87.676214
 2682         hx     87    ccc    H13   2682 0.12238100   1.008000   ; qtot 87.798595
 2683         c3     87    ccc     C8   2683 -0.20771900  12.010000   ; qtot 87.590876
 2684         hc     87    ccc    H14   2684 0.11463100   1.008000   ; qtot 87.705507
 2685         hc     87    ccc    H15   2685 0.11463100   1.008000   ; qtot 87.820138
 2686          c     87    ccc     C9   2686 0.64078100  12.010000   ; qtot 88.460919
 2687          o     87    ccc     O3   2687 -0.49231900  16.000000   ; qtot 87.968600
 2688         oh     87    ccc     O4   2688 -0.51841900  16.000000   ; qtot 87.450181
 2689         ho     87    ccc    H16   2689 0.45318100   1.008000   ; qtot 87.903362
 2690         os     87    ccc     O5   2690 -0.39491900  16.000000   ; qtot 87.508443
 2691         hn     87    ccc    H17   2691 0.49148100   1.008000   ; qtot 87.999924
; residue   88 ccc rtp ccc q 1.0
 2692         c3     88    ccc     C1   2692 0.14608100  12.010000   ; qtot 88.146005
 2693         h1     88    ccc     H1   2693 0.06738100   1.008000   ; qtot 88.213386
 2694         h1     88    ccc     H2   2694 0.06738100   1.008000   ; qtot 88.280767
 2695         c3     88    ccc     C2   2695 -0.14571900  12.010000   ; qtot 88.135048
 2696         hc     88    ccc     H3   2696 0.08688100   1.008000   ; qtot 88.221929
 2697         hc     88    ccc     H4   2697 0.08688100   1.008000   ; qtot 88.308810
 2698         c3     88    ccc     C3   2698 0.12348100  12.010000   ; qtot 88.432291
 2699         hx     88    ccc     H5   2699 0.10638100   1.008000   ; qtot 88.538672
 2700         hx     88    ccc     H6   2700 0.10638100   1.008000   ; qtot 88.645053
 2701         n4     88    ccc     N1   2701 -0.69071900  14.010000   ; qtot 87.954334
 2702         c3     88    ccc     C4   2702 0.12498100  12.010000   ; qtot 88.079315
 2703         hx     88    ccc     H7   2703 0.12238100   1.008000   ; qtot 88.201696
 2704         hx     88    ccc     H8   2704 0.12238100   1.008000   ; qtot 88.324077
 2705         c3     88    ccc     C5   2705 -0.20771900  12.010000   ; qtot 88.116358
 2706         hc     88    ccc     H9   2706 0.11463100   1.008000   ; qtot 88.230989
 2707         hc     88    ccc    H10   2707 0.11463100   1.008000   ; qtot 88.345620
 2708          c     88    ccc     C6   2708 0.64078100  12.010000   ; qtot 88.986401
 2709          o     88    ccc     O1   2709 -0.49231900  16.000000   ; qtot 88.494082
 2710         oh     88    ccc     O2   2710 -0.51841900  16.000000   ; qtot 87.975663
 2711         ho     88    ccc    H11   2711 0.45318100   1.008000   ; qtot 88.428844
 2712         c3     88    ccc     C7   2712 0.12498100  12.010000   ; qtot 88.553825
 2713         hx     88    ccc    H12   2713 0.12238100   1.008000   ; qtot 88.676206
 2714         hx     88    ccc    H13   2714 0.12238100   1.008000   ; qtot 88.798587
 2715         c3     88    ccc     C8   2715 -0.20771900  12.010000   ; qtot 88.590868
 2716         hc     88    ccc    H14   2716 0.11463100   1.008000   ; qtot 88.705499
 2717         hc     88    ccc    H15   2717 0.11463100   1.008000   ; qtot 88.820130
 2718          c     88    ccc     C9   2718 0.64078100  12.010000   ; qtot 89.460911
 2719          o     88    ccc     O3   2719 -0.49231900  16.000000   ; qtot 88.968592
 2720         oh     88    ccc     O4   2720 -0.51841900  16.000000   ; qtot 88.450173
 2721         ho     88    ccc    H16   2721 0.45318100   1.008000   ; qtot 88.903354
 2722         os     88    ccc     O5   2722 -0.39491900  16.000000   ; qtot 88.508435
 2723         hn     88    ccc    H17   2723 0.49148100   1.008000   ; qtot 88.999916
; residue   89 ccc rtp ccc q 1.0
 2724         c3     89    ccc     C1   2724 0.14608100  12.010000   ; qtot 89.145997
 2725         h1     89    ccc     H1   2725 0.06738100   1.008000   ; qtot 89.213378
 2726         h1     89    ccc     H2   2726 0.06738100   1.008000   ; qtot 89.280759
 2727         c3     89    ccc     C2   2727 -0.14571900  12.010000   ; qtot 89.135040
 2728         hc     89    ccc     H3   2728 0.08688100   1.008000   ; qtot 89.221921
 2729         hc     89    ccc     H4   2729 0.08688100   1.008000   ; qtot 89.308802
 2730         c3     89    ccc     C3   2730 0.12348100  12.010000   ; qtot 89.432283
 2731         hx     89    ccc     H5   2731 0.10638100   1.008000   ; qtot 89.538664
 2732         hx     89    ccc     H6   2732 0.10638100   1.008000   ; qtot 89.645045
 2733         n4     89    ccc     N1   2733 -0.69071900  14.010000   ; qtot 88.954326
 2734         c3     89    ccc     C4   2734 0.12498100  12.010000   ; qtot 89.079307
 2735         hx     89    ccc     H7   2735 0.12238100   1.008000   ; qtot 89.201688
 2736         hx     89    ccc     H8   2736 0.12238100   1.008000   ; qtot 89.324069
 2737         c3     89    ccc     C5   2737 -0.20771900  12.010000   ; qtot 89.116350
 2738         hc     89    ccc     H9   2738 0.11463100   1.008000   ; qtot 89.230981
 2739         hc     89    ccc    H10   2739 0.11463100   1.008000   ; qtot 89.345612
 2740          c     89    ccc     C6   2740 0.64078100  12.010000   ; qtot 89.986393
 2741          o     89    ccc     O1   2741 -0.49231900  16.000000   ; qtot 89.494074
 2742         oh     89    ccc     O2   2742 -0.51841900  16.000000   ; qtot 88.975655
 2743         ho     89    ccc    H11   2743 0.45318100   1.008000   ; qtot 89.428836
 2744         c3     89    ccc     C7   2744 0.12498100  12.010000   ; qtot 89.553817
 2745         hx     89    ccc    H12   2745 0.12238100   1.008000   ; qtot 89.676198
 2746         hx     89    ccc    H13   2746 0.12238100   1.008000   ; qtot 89.798579
 2747         c3     89    ccc     C8   2747 -0.20771900  12.010000   ; qtot 89.590860
 2748         hc     89    ccc    H14   2748 0.11463100   1.008000   ; qtot 89.705491
 2749         hc     89    ccc    H15   2749 0.11463100   1.008000   ; qtot 89.820122
 2750          c     89    ccc     C9   2750 0.64078100  12.010000   ; qtot 90.460903
 2751          o     89    ccc     O3   2751 -0.49231900  16.000000   ; qtot 89.968584
 2752         oh     89    ccc     O4   2752 -0.51841900  16.000000   ; qtot 89.450165
 2753         ho     89    ccc    H16   2753 0.45318100   1.008000   ; qtot 89.903346
 2754         os     89    ccc     O5   2754 -0.39491900  16.000000   ; qtot 89.508427
 2755         hn     89    ccc    H17   2755 0.49148100   1.008000   ; qtot 89.999908
; residue   90 ccc rtp ccc q 1.0
 2756         c3     90    ccc     C1   2756 0.14608100  12.010000   ; qtot 90.145989
 2757         h1     90    ccc     H1   2757 0.06738100   1.008000   ; qtot 90.213370
 2758         h1     90    ccc     H2   2758 0.06738100   1.008000   ; qtot 90.280751
 2759         c3     90    ccc     C2   2759 -0.14571900  12.010000   ; qtot 90.135032
 2760         hc     90    ccc     H3   2760 0.08688100   1.008000   ; qtot 90.221913
 2761         hc     90    ccc     H4   2761 0.08688100   1.008000   ; qtot 90.308794
 2762         c3     90    ccc     C3   2762 0.12348100  12.010000   ; qtot 90.432275
 2763         hx     90    ccc     H5   2763 0.10638100   1.008000   ; qtot 90.538656
 2764         hx     90    ccc     H6   2764 0.10638100   1.008000   ; qtot 90.645037
 2765         n4     90    ccc     N1   2765 -0.69071900  14.010000   ; qtot 89.954318
 2766         c3     90    ccc     C4   2766 0.12498100  12.010000   ; qtot 90.079299
 2767         hx     90    ccc     H7   2767 0.12238100   1.008000   ; qtot 90.201680
 2768         hx     90    ccc     H8   2768 0.12238100   1.008000   ; qtot 90.324061
 2769         c3     90    ccc     C5   2769 -0.20771900  12.010000   ; qtot 90.116342
 2770         hc     90    ccc     H9   2770 0.11463100   1.008000   ; qtot 90.230973
 2771         hc     90    ccc    H10   2771 0.11463100   1.008000   ; qtot 90.345604
 2772          c     90    ccc     C6   2772 0.64078100  12.010000   ; qtot 90.986385
 2773          o     90    ccc     O1   2773 -0.49231900  16.000000   ; qtot 90.494066
 2774         oh     90    ccc     O2   2774 -0.51841900  16.000000   ; qtot 89.975647
 2775         ho     90    ccc    H11   2775 0.45318100   1.008000   ; qtot 90.428828
 2776         c3     90    ccc     C7   2776 0.12498100  12.010000   ; qtot 90.553809
 2777         hx     90    ccc    H12   2777 0.12238100   1.008000   ; qtot 90.676190
 2778         hx     90    ccc    H13   2778 0.12238100   1.008000   ; qtot 90.798571
 2779         c3     90    ccc     C8   2779 -0.20771900  12.010000   ; qtot 90.590852
 2780         hc     90    ccc    H14   2780 0.11463100   1.008000   ; qtot 90.705483
 2781         hc     90    ccc    H15   2781 0.11463100   1.008000   ; qtot 90.820114
 2782          c     90    ccc     C9   2782 0.64078100  12.010000   ; qtot 91.460895
 2783          o     90    ccc     O3   2783 -0.49231900  16.000000   ; qtot 90.968576
 2784         oh     90    ccc     O4   2784 -0.51841900  16.000000   ; qtot 90.450157
 2785         ho     90    ccc    H16   2785 0.45318100   1.008000   ; qtot 90.903338
 2786         os     90    ccc     O5   2786 -0.39491900  16.000000   ; qtot 90.508419
 2787         hn     90    ccc    H17   2787 0.49148100   1.008000   ; qtot 90.999900
; residue   91 ccc rtp ccc q 1.0
 2788         c3     91    ccc     C1   2788 0.14608100  12.010000   ; qtot 91.145981
 2789         h1     91    ccc     H1   2789 0.06738100   1.008000   ; qtot 91.213362
 2790         h1     91    ccc     H2   2790 0.06738100   1.008000   ; qtot 91.280743
 2791         c3     91    ccc     C2   2791 -0.14571900  12.010000   ; qtot 91.135024
 2792         hc     91    ccc     H3   2792 0.08688100   1.008000   ; qtot 91.221905
 2793         hc     91    ccc     H4   2793 0.08688100   1.008000   ; qtot 91.308786
 2794         c3     91    ccc     C3   2794 0.12348100  12.010000   ; qtot 91.432267
 2795         hx     91    ccc     H5   2795 0.10638100   1.008000   ; qtot 91.538648
 2796         hx     91    ccc     H6   2796 0.10638100   1.008000   ; qtot 91.645029
 2797         n4     91    ccc     N1   2797 -0.69071900  14.010000   ; qtot 90.954310
 2798         c3     91    ccc     C4   2798 0.12498100  12.010000   ; qtot 91.079291
 2799         hx     91    ccc     H7   2799 0.12238100   1.008000   ; qtot 91.201672
 2800         hx     91    ccc     H8   2800 0.12238100   1.008000   ; qtot 91.324053
 2801         c3     91    ccc     C5   2801 -0.20771900  12.010000   ; qtot 91.116334
 2802         hc     91    ccc     H9   2802 0.11463100   1.008000   ; qtot 91.230965
 2803         hc     91    ccc    H10   2803 0.11463100   1.008000   ; qtot 91.345596
 2804          c     91    ccc     C6   2804 0.64078100  12.010000   ; qtot 91.986377
 2805          o     91    ccc     O1   2805 -0.49231900  16.000000   ; qtot 91.494058
 2806         oh     91    ccc     O2   2806 -0.51841900  16.000000   ; qtot 90.975639
 2807         ho     91    ccc    H11   2807 0.45318100   1.008000   ; qtot 91.428820
 2808         c3     91    ccc     C7   2808 0.12498100  12.010000   ; qtot 91.553801
 2809         hx     91    ccc    H12   2809 0.12238100   1.008000   ; qtot 91.676182
 2810         hx     91    ccc    H13   2810 0.12238100   1.008000   ; qtot 91.798563
 2811         c3     91    ccc     C8   2811 -0.20771900  12.010000   ; qtot 91.590844
 2812         hc     91    ccc    H14   2812 0.11463100   1.008000   ; qtot 91.705475
 2813         hc     91    ccc    H15   2813 0.11463100   1.008000   ; qtot 91.820106
 2814          c     91    ccc     C9   2814 0.64078100  12.010000   ; qtot 92.460887
 2815          o     91    ccc     O3   2815 -0.49231900  16.000000   ; qtot 91.968568
 2816         oh     91    ccc     O4   2816 -0.51841900  16.000000   ; qtot 91.450149
 2817         ho     91    ccc    H16   2817 0.45318100   1.008000   ; qtot 91.903330
 2818         os     91    ccc     O5   2818 -0.39491900  16.000000   ; qtot 91.508411
 2819         hn     91    ccc    H17   2819 0.49148100   1.008000   ; qtot 91.999892
; residue   92 ccc rtp ccc q 1.0
 2820         c3     92    ccc     C1   2820 0.14608100  12.010000   ; qtot 92.145973
 2821         h1     92    ccc     H1   2821 0.06738100   1.008000   ; qtot 92.213354
 2822         h1     92    ccc     H2   2822 0.06738100   1.008000   ; qtot 92.280735
 2823         c3     92    ccc     C2   2823 -0.14571900  12.010000   ; qtot 92.135016
 2824         hc     92    ccc     H3   2824 0.08688100   1.008000   ; qtot 92.221897
 2825         hc     92    ccc     H4   2825 0.08688100   1.008000   ; qtot 92.308778
 2826         c3     92    ccc     C3   2826 0.12348100  12.010000   ; qtot 92.432259
 2827         hx     92    ccc     H5   2827 0.10638100   1.008000   ; qtot 92.538640
 2828         hx     92    ccc     H6   2828 0.10638100   1.008000   ; qtot 92.645021
 2829         n4     92    ccc     N1   2829 -0.69071900  14.010000   ; qtot 91.954302
 2830         c3     92    ccc     C4   2830 0.12498100  12.010000   ; qtot 92.079283
 2831         hx     92    ccc     H7   2831 0.12238100   1.008000   ; qtot 92.201664
 2832         hx     92    ccc     H8   2832 0.12238100   1.008000   ; qtot 92.324045
 2833         c3     92    ccc     C5   2833 -0.20771900  12.010000   ; qtot 92.116326
 2834         hc     92    ccc     H9   2834 0.11463100   1.008000   ; qtot 92.230957
 2835         hc     92    ccc    H10   2835 0.11463100   1.008000   ; qtot 92.345588
 2836          c     92    ccc     C6   2836 0.64078100  12.010000   ; qtot 92.986369
 2837          o     92    ccc     O1   2837 -0.49231900  16.000000   ; qtot 92.494050
 2838         oh     92    ccc     O2   2838 -0.51841900  16.000000   ; qtot 91.975631
 2839         ho     92    ccc    H11   2839 0.45318100   1.008000   ; qtot 92.428812
 2840         c3     92    ccc     C7   2840 0.12498100  12.010000   ; qtot 92.553793
 2841         hx     92    ccc    H12   2841 0.12238100   1.008000   ; qtot 92.676174
 2842         hx     92    ccc    H13   2842 0.12238100   1.008000   ; qtot 92.798555
 2843         c3     92    ccc     C8   2843 -0.20771900  12.010000   ; qtot 92.590836
 2844         hc     92    ccc    H14   2844 0.11463100   1.008000   ; qtot 92.705467
 2845         hc     92    ccc    H15   2845 0.11463100   1.008000   ; qtot 92.820098
 2846          c     92    ccc     C9   2846 0.64078100  12.010000   ; qtot 93.460879
 2847          o     92    ccc     O3   2847 -0.49231900  16.000000   ; qtot 92.968560
 2848         oh     92    ccc     O4   2848 -0.51841900  16.000000   ; qtot 92.450141
 2849         ho     92    ccc    H16   2849 0.45318100   1.008000   ; qtot 92.903322
 2850         os     92    ccc     O5   2850 -0.39491900  16.000000   ; qtot 92.508403
 2851         hn     92    ccc    H17   2851 0.49148100   1.008000   ; qtot 92.999884
; residue   93 ccc rtp ccc q 1.0
 2852         c3     93    ccc     C1   2852 0.14608100  12.010000   ; qtot 93.145965
 2853         h1     93    ccc     H1   2853 0.06738100   1.008000   ; qtot 93.213346
 2854         h1     93    ccc     H2   2854 0.06738100   1.008000   ; qtot 93.280727
 2855         c3     93    ccc     C2   2855 -0.14571900  12.010000   ; qtot 93.135008
 2856         hc     93    ccc     H3   2856 0.08688100   1.008000   ; qtot 93.221889
 2857         hc     93    ccc     H4   2857 0.08688100   1.008000   ; qtot 93.308770
 2858         c3     93    ccc     C3   2858 0.12348100  12.010000   ; qtot 93.432251
 2859         hx     93    ccc     H5   2859 0.10638100   1.008000   ; qtot 93.538632
 2860         hx     93    ccc     H6   2860 0.10638100   1.008000   ; qtot 93.645013
 2861         n4     93    ccc     N1   2861 -0.69071900  14.010000   ; qtot 92.954294
 2862         c3     93    ccc     C4   2862 0.12498100  12.010000   ; qtot 93.079275
 2863         hx     93    ccc     H7   2863 0.12238100   1.008000   ; qtot 93.201656
 2864         hx     93    ccc     H8   2864 0.12238100   1.008000   ; qtot 93.324037
 2865         c3     93    ccc     C5   2865 -0.20771900  12.010000   ; qtot 93.116318
 2866         hc     93    ccc     H9   2866 0.11463100   1.008000   ; qtot 93.230949
 2867         hc     93    ccc    H10   2867 0.11463100   1.008000   ; qtot 93.345580
 2868          c     93    ccc     C6   2868 0.64078100  12.010000   ; qtot 93.986361
 2869          o     93    ccc     O1   2869 -0.49231900  16.000000   ; qtot 93.494042
 2870         oh     93    ccc     O2   2870 -0.51841900  16.000000   ; qtot 92.975623
 2871         ho     93    ccc    H11   2871 0.45318100   1.008000   ; qtot 93.428804
 2872         c3     93    ccc     C7   2872 0.12498100  12.010000   ; qtot 93.553785
 2873         hx     93    ccc    H12   2873 0.12238100   1.008000   ; qtot 93.676166
 2874         hx     93    ccc    H13   2874 0.12238100   1.008000   ; qtot 93.798547
 2875         c3     93    ccc     C8   2875 -0.20771900  12.010000   ; qtot 93.590828
 2876         hc     93    ccc    H14   2876 0.11463100   1.008000   ; qtot 93.705459
 2877         hc     93    ccc    H15   2877 0.11463100   1.008000   ; qtot 93.820090
 2878          c     93    ccc     C9   2878 0.64078100  12.010000   ; qtot 94.460871
 2879          o     93    ccc     O3   2879 -0.49231900  16.000000   ; qtot 93.968552
 2880         oh     93    ccc     O4   2880 -0.51841900  16.000000   ; qtot 93.450133
 2881         ho     93    ccc    H16   2881 0.45318100   1.008000   ; qtot 93.903314
 2882         os     93    ccc     O5   2882 -0.39491900  16.000000   ; qtot 93.508395
 2883         hn     93    ccc    H17   2883 0.49148100   1.008000   ; qtot 93.999876
; residue   94 ccc rtp ccc q 1.0
 2884         c3     94    ccc     C1   2884 0.14608100  12.010000   ; qtot 94.145957
 2885         h1     94    ccc     H1   2885 0.06738100   1.008000   ; qtot 94.213338
 2886         h1     94    ccc     H2   2886 0.06738100   1.008000   ; qtot 94.280719
 2887         c3     94    ccc     C2   2887 -0.14571900  12.010000   ; qtot 94.135000
 2888         hc     94    ccc     H3   2888 0.08688100   1.008000   ; qtot 94.221881
 2889         hc     94    ccc     H4   2889 0.08688100   1.008000   ; qtot 94.308762
 2890         c3     94    ccc     C3   2890 0.12348100  12.010000   ; qtot 94.432243
 2891         hx     94    ccc     H5   2891 0.10638100   1.008000   ; qtot 94.538624
 2892         hx     94    ccc     H6   2892 0.10638100   1.008000   ; qtot 94.645005
 2893         n4     94    ccc     N1   2893 -0.69071900  14.010000   ; qtot 93.954286
 2894         c3     94    ccc     C4   2894 0.12498100  12.010000   ; qtot 94.079267
 2895         hx     94    ccc     H7   2895 0.12238100   1.008000   ; qtot 94.201648
 2896         hx     94    ccc     H8   2896 0.12238100   1.008000   ; qtot 94.324029
 2897         c3     94    ccc     C5   2897 -0.20771900  12.010000   ; qtot 94.116310
 2898         hc     94    ccc     H9   2898 0.11463100   1.008000   ; qtot 94.230941
 2899         hc     94    ccc    H10   2899 0.11463100   1.008000   ; qtot 94.345572
 2900          c     94    ccc     C6   2900 0.64078100  12.010000   ; qtot 94.986353
 2901          o     94    ccc     O1   2901 -0.49231900  16.000000   ; qtot 94.494034
 2902         oh     94    ccc     O2   2902 -0.51841900  16.000000   ; qtot 93.975615
 2903         ho     94    ccc    H11   2903 0.45318100   1.008000   ; qtot 94.428796
 2904         c3     94    ccc     C7   2904 0.12498100  12.010000   ; qtot 94.553777
 2905         hx     94    ccc    H12   2905 0.12238100   1.008000   ; qtot 94.676158
 2906         hx     94    ccc    H13   2906 0.12238100   1.008000   ; qtot 94.798539
 2907         c3     94    ccc     C8   2907 -0.20771900  12.010000   ; qtot 94.590820
 2908         hc     94    ccc    H14   2908 0.11463100   1.008000   ; qtot 94.705451
 2909         hc     94    ccc    H15   2909 0.11463100   1.008000   ; qtot 94.820082
 2910          c     94    ccc     C9   2910 0.64078100  12.010000   ; qtot 95.460863
 2911          o     94    ccc     O3   2911 -0.49231900  16.000000   ; qtot 94.968544
 2912         oh     94    ccc     O4   2912 -0.51841900  16.000000   ; qtot 94.450125
 2913         ho     94    ccc    H16   2913 0.45318100   1.008000   ; qtot 94.903306
 2914         os     94    ccc     O5   2914 -0.39491900  16.000000   ; qtot 94.508387
 2915         hn     94    ccc    H17   2915 0.49148100   1.008000   ; qtot 94.999868
; residue   95 ccc rtp ccc q 1.0
 2916         c3     95    ccc     C1   2916 0.14608100  12.010000   ; qtot 95.145949
 2917         h1     95    ccc     H1   2917 0.06738100   1.008000   ; qtot 95.213330
 2918         h1     95    ccc     H2   2918 0.06738100   1.008000   ; qtot 95.280711
 2919         c3     95    ccc     C2   2919 -0.14571900  12.010000   ; qtot 95.134992
 2920         hc     95    ccc     H3   2920 0.08688100   1.008000   ; qtot 95.221873
 2921         hc     95    ccc     H4   2921 0.08688100   1.008000   ; qtot 95.308754
 2922         c3     95    ccc     C3   2922 0.12348100  12.010000   ; qtot 95.432235
 2923         hx     95    ccc     H5   2923 0.10638100   1.008000   ; qtot 95.538616
 2924         hx     95    ccc     H6   2924 0.10638100   1.008000   ; qtot 95.644997
 2925         n4     95    ccc     N1   2925 -0.69071900  14.010000   ; qtot 94.954278
 2926         c3     95    ccc     C4   2926 0.12498100  12.010000   ; qtot 95.079259
 2927         hx     95    ccc     H7   2927 0.12238100   1.008000   ; qtot 95.201640
 2928         hx     95    ccc     H8   2928 0.12238100   1.008000   ; qtot 95.324021
 2929         c3     95    ccc     C5   2929 -0.20771900  12.010000   ; qtot 95.116302
 2930         hc     95    ccc     H9   2930 0.11463100   1.008000   ; qtot 95.230933
 2931         hc     95    ccc    H10   2931 0.11463100   1.008000   ; qtot 95.345564
 2932          c     95    ccc     C6   2932 0.64078100  12.010000   ; qtot 95.986345
 2933          o     95    ccc     O1   2933 -0.49231900  16.000000   ; qtot 95.494026
 2934         oh     95    ccc     O2   2934 -0.51841900  16.000000   ; qtot 94.975607
 2935         ho     95    ccc    H11   2935 0.45318100   1.008000   ; qtot 95.428788
 2936         c3     95    ccc     C7   2936 0.12498100  12.010000   ; qtot 95.553769
 2937         hx     95    ccc    H12   2937 0.12238100   1.008000   ; qtot 95.676150
 2938         hx     95    ccc    H13   2938 0.12238100   1.008000   ; qtot 95.798531
 2939         c3     95    ccc     C8   2939 -0.20771900  12.010000   ; qtot 95.590812
 2940         hc     95    ccc    H14   2940 0.11463100   1.008000   ; qtot 95.705443
 2941         hc     95    ccc    H15   2941 0.11463100   1.008000   ; qtot 95.820074
 2942          c     95    ccc     C9   2942 0.64078100  12.010000   ; qtot 96.460855
 2943          o     95    ccc     O3   2943 -0.49231900  16.000000   ; qtot 95.968536
 2944         oh     95    ccc     O4   2944 -0.51841900  16.000000   ; qtot 95.450117
 2945         ho     95    ccc    H16   2945 0.45318100   1.008000   ; qtot 95.903298
 2946         os     95    ccc     O5   2946 -0.39491900  16.000000   ; qtot 95.508379
 2947         hn     95    ccc    H17   2947 0.49148100   1.008000   ; qtot 95.999860
; residue   96 ccc rtp ccc q 1.0
 2948         c3     96    ccc     C1   2948 0.14608100  12.010000   ; qtot 96.145941
 2949         h1     96    ccc     H1   2949 0.06738100   1.008000   ; qtot 96.213322
 2950         h1     96    ccc     H2   2950 0.06738100   1.008000   ; qtot 96.280703
 2951         c3     96    ccc     C2   2951 -0.14571900  12.010000   ; qtot 96.134984
 2952         hc     96    ccc     H3   2952 0.08688100   1.008000   ; qtot 96.221865
 2953         hc     96    ccc     H4   2953 0.08688100   1.008000   ; qtot 96.308746
 2954         c3     96    ccc     C3   2954 0.12348100  12.010000   ; qtot 96.432227
 2955         hx     96    ccc     H5   2955 0.10638100   1.008000   ; qtot 96.538608
 2956         hx     96    ccc     H6   2956 0.10638100   1.008000   ; qtot 96.644989
 2957         n4     96    ccc     N1   2957 -0.69071900  14.010000   ; qtot 95.954270
 2958         c3     96    ccc     C4   2958 0.12498100  12.010000   ; qtot 96.079251
 2959         hx     96    ccc     H7   2959 0.12238100   1.008000   ; qtot 96.201632
 2960         hx     96    ccc     H8   2960 0.12238100   1.008000   ; qtot 96.324013
 2961         c3     96    ccc     C5   2961 -0.20771900  12.010000   ; qtot 96.116294
 2962         hc     96    ccc     H9   2962 0.11463100   1.008000   ; qtot 96.230925
 2963         hc     96    ccc    H10   2963 0.11463100   1.008000   ; qtot 96.345556
 2964          c     96    ccc     C6   2964 0.64078100  12.010000   ; qtot 96.986337
 2965          o     96    ccc     O1   2965 -0.49231900  16.000000   ; qtot 96.494018
 2966         oh     96    ccc     O2   2966 -0.51841900  16.000000   ; qtot 95.975599
 2967         ho     96    ccc    H11   2967 0.45318100   1.008000   ; qtot 96.428780
 2968         c3     96    ccc     C7   2968 0.12498100  12.010000   ; qtot 96.553761
 2969         hx     96    ccc    H12   2969 0.12238100   1.008000   ; qtot 96.676142
 2970         hx     96    ccc    H13   2970 0.12238100   1.008000   ; qtot 96.798523
 2971         c3     96    ccc     C8   2971 -0.20771900  12.010000   ; qtot 96.590804
 2972         hc     96    ccc    H14   2972 0.11463100   1.008000   ; qtot 96.705435
 2973         hc     96    ccc    H15   2973 0.11463100   1.008000   ; qtot 96.820066
 2974          c     96    ccc     C9   2974 0.64078100  12.010000   ; qtot 97.460847
 2975          o     96    ccc     O3   2975 -0.49231900  16.000000   ; qtot 96.968528
 2976         oh     96    ccc     O4   2976 -0.51841900  16.000000   ; qtot 96.450109
 2977         ho     96    ccc    H16   2977 0.45318100   1.008000   ; qtot 96.903290
 2978         os     96    ccc     O5   2978 -0.39491900  16.000000   ; qtot 96.508371
 2979         hn     96    ccc    H17   2979 0.49148100   1.008000   ; qtot 96.999852
; residue   97 ccc rtp ccc q 1.0
 2980         c3     97    ccc     C1   2980 0.14608100  12.010000   ; qtot 97.145933
 2981         h1     97    ccc     H1   2981 0.06738100   1.008000   ; qtot 97.213314
 2982         h1     97    ccc     H2   2982 0.06738100   1.008000   ; qtot 97.280695
 2983         c3     97    ccc     C2   2983 -0.14571900  12.010000   ; qtot 97.134976
 2984         hc     97    ccc     H3   2984 0.08688100   1.008000   ; qtot 97.221857
 2985         hc     97    ccc     H4   2985 0.08688100   1.008000   ; qtot 97.308738
 2986         c3     97    ccc     C3   2986 0.12348100  12.010000   ; qtot 97.432219
 2987         hx     97    ccc     H5   2987 0.10638100   1.008000   ; qtot 97.538600
 2988         hx     97    ccc     H6   2988 0.10638100   1.008000   ; qtot 97.644981
 2989         n4     97    ccc     N1   2989 -0.69071900  14.010000   ; qtot 96.954262
 2990         c3     97    ccc     C4   2990 0.12498100  12.010000   ; qtot 97.079243
 2991         hx     97    ccc     H7   2991 0.12238100   1.008000   ; qtot 97.201624
 2992         hx     97    ccc     H8   2992 0.12238100   1.008000   ; qtot 97.324005
 2993         c3     97    ccc     C5   2993 -0.20771900  12.010000   ; qtot 97.116286
 2994         hc     97    ccc     H9   2994 0.11463100   1.008000   ; qtot 97.230917
 2995         hc     97    ccc    H10   2995 0.11463100   1.008000   ; qtot 97.345548
 2996          c     97    ccc     C6   2996 0.64078100  12.010000   ; qtot 97.986329
 2997          o     97    ccc     O1   2997 -0.49231900  16.000000   ; qtot 97.494010
 2998         oh     97    ccc     O2   2998 -0.51841900  16.000000   ; qtot 96.975591
 2999         ho     97    ccc    H11   2999 0.45318100   1.008000   ; qtot 97.428772
 3000         c3     97    ccc     C7   3000 0.12498100  12.010000   ; qtot 97.553753
 3001         hx     97    ccc    H12   3001 0.12238100   1.008000   ; qtot 97.676134
 3002         hx     97    ccc    H13   3002 0.12238100   1.008000   ; qtot 97.798515
 3003         c3     97    ccc     C8   3003 -0.20771900  12.010000   ; qtot 97.590796
 3004         hc     97    ccc    H14   3004 0.11463100   1.008000   ; qtot 97.705427
 3005         hc     97    ccc    H15   3005 0.11463100   1.008000   ; qtot 97.820058
 3006          c     97    ccc     C9   3006 0.64078100  12.010000   ; qtot 98.460839
 3007          o     97    ccc     O3   3007 -0.49231900  16.000000   ; qtot 97.968520
 3008         oh     97    ccc     O4   3008 -0.51841900  16.000000   ; qtot 97.450101
 3009         ho     97    ccc    H16   3009 0.45318100   1.008000   ; qtot 97.903282
 3010         os     97    ccc     O5   3010 -0.39491900  16.000000   ; qtot 97.508363
 3011         hn     97    ccc    H17   3011 0.49148100   1.008000   ; qtot 97.999844
; residue   98 ccc rtp ccc q 1.0
 3012         c3     98    ccc     C1   3012 0.14608100  12.010000   ; qtot 98.145925
 3013         h1     98    ccc     H1   3013 0.06738100   1.008000   ; qtot 98.213306
 3014         h1     98    ccc     H2   3014 0.06738100   1.008000   ; qtot 98.280687
 3015         c3     98    ccc     C2   3015 -0.14571900  12.010000   ; qtot 98.134968
 3016         hc     98    ccc     H3   3016 0.08688100   1.008000   ; qtot 98.221849
 3017         hc     98    ccc     H4   3017 0.08688100   1.008000   ; qtot 98.308730
 3018         c3     98    ccc     C3   3018 0.12348100  12.010000   ; qtot 98.432211
 3019         hx     98    ccc     H5   3019 0.10638100   1.008000   ; qtot 98.538592
 3020         hx     98    ccc     H6   3020 0.10638100   1.008000   ; qtot 98.644973
 3021         n4     98    ccc     N1   3021 -0.69071900  14.010000   ; qtot 97.954254
 3022         c3     98    ccc     C4   3022 0.12498100  12.010000   ; qtot 98.079235
 3023         hx     98    ccc     H7   3023 0.12238100   1.008000   ; qtot 98.201616
 3024         hx     98    ccc     H8   3024 0.12238100   1.008000   ; qtot 98.323997
 3025         c3     98    ccc     C5   3025 -0.20771900  12.010000   ; qtot 98.116278
 3026         hc     98    ccc     H9   3026 0.11463100   1.008000   ; qtot 98.230909
 3027         hc     98    ccc    H10   3027 0.11463100   1.008000   ; qtot 98.345540
 3028          c     98    ccc     C6   3028 0.64078100  12.010000   ; qtot 98.986321
 3029          o     98    ccc     O1   3029 -0.49231900  16.000000   ; qtot 98.494002
 3030         oh     98    ccc     O2   3030 -0.51841900  16.000000   ; qtot 97.975583
 3031         ho     98    ccc    H11   3031 0.45318100   1.008000   ; qtot 98.428764
 3032         c3     98    ccc     C7   3032 0.12498100  12.010000   ; qtot 98.553745
 3033         hx     98    ccc    H12   3033 0.12238100   1.008000   ; qtot 98.676126
 3034         hx     98    ccc    H13   3034 0.12238100   1.008000   ; qtot 98.798507
 3035         c3     98    ccc     C8   3035 -0.20771900  12.010000   ; qtot 98.590788
 3036         hc     98    ccc    H14   3036 0.11463100   1.008000   ; qtot 98.705419
 3037         hc     98    ccc    H15   3037 0.11463100   1.008000   ; qtot 98.820050
 3038          c     98    ccc     C9   3038 0.64078100  12.010000   ; qtot 99.460831
 3039          o     98    ccc     O3   3039 -0.49231900  16.000000   ; qtot 98.968512
 3040         oh     98    ccc     O4   3040 -0.51841900  16.000000   ; qtot 98.450093
 3041         ho     98    ccc    H16   3041 0.45318100   1.008000   ; qtot 98.903274
 3042         os     98    ccc     O5   3042 -0.39491900  16.000000   ; qtot 98.508355
 3043         hn     98    ccc    H17   3043 0.49148100   1.008000   ; qtot 98.999836
; residue   99 ccc rtp ccc q 1.0
 3044         c3     99    ccc     C1   3044 0.14608100  12.010000   ; qtot 99.145917
 3045         h1     99    ccc     H1   3045 0.06738100   1.008000   ; qtot 99.213298
 3046         h1     99    ccc     H2   3046 0.06738100   1.008000   ; qtot 99.280679
 3047         c3     99    ccc     C2   3047 -0.14571900  12.010000   ; qtot 99.134960
 3048         hc     99    ccc     H3   3048 0.08688100   1.008000   ; qtot 99.221841
 3049         hc     99    ccc     H4   3049 0.08688100   1.008000   ; qtot 99.308722
 3050         c3     99    ccc     C3   3050 0.12348100  12.010000   ; qtot 99.432203
 3051         hx     99    ccc     H5   3051 0.10638100   1.008000   ; qtot 99.538584
 3052         hx     99    ccc     H6   3052 0.10638100   1.008000   ; qtot 99.644965
 3053         n4     99    ccc     N1   3053 -0.69071900  14.010000   ; qtot 98.954246
 3054         c3     99    ccc     C4   3054 0.12498100  12.010000   ; qtot 99.079227
 3055         hx     99    ccc     H7   3055 0.12238100   1.008000   ; qtot 99.201608
 3056         hx     99    ccc     H8   3056 0.12238100   1.008000   ; qtot 99.323989
 3057         c3     99    ccc     C5   3057 -0.20771900  12.010000   ; qtot 99.116270
 3058         hc     99    ccc     H9   3058 0.11463100   1.008000   ; qtot 99.230901
 3059         hc     99    ccc    H10   3059 0.11463100   1.008000   ; qtot 99.345532
 3060          c     99    ccc     C6   3060 0.64078100  12.010000   ; qtot 99.986313
 3061          o     99    ccc     O1   3061 -0.49231900  16.000000   ; qtot 99.493994
 3062         oh     99    ccc     O2   3062 -0.51841900  16.000000   ; qtot 98.975575
 3063         ho     99    ccc    H11   3063 0.45318100   1.008000   ; qtot 99.428756
 3064         c3     99    ccc     C7   3064 0.12498100  12.010000   ; qtot 99.553737
 3065         hx     99    ccc    H12   3065 0.12238100   1.008000   ; qtot 99.676118
 3066         hx     99    ccc    H13   3066 0.12238100   1.008000   ; qtot 99.798499
 3067         c3     99    ccc     C8   3067 -0.20771900  12.010000   ; qtot 99.590780
 3068         hc     99    ccc    H14   3068 0.11463100   1.008000   ; qtot 99.705411
 3069         hc     99    ccc    H15   3069 0.11463100   1.008000   ; qtot 99.820042
 3070          c     99    ccc     C9   3070 0.64078100  12.010000   ; qtot 100.460823
 3071          o     99    ccc     O3   3071 -0.49231900  16.000000   ; qtot 99.968504
 3072         oh     99    ccc     O4   3072 -0.51841900  16.000000   ; qtot 99.450085
 3073         ho     99    ccc    H16   3073 0.45318100   1.008000   ; qtot 99.903266
 3074         os     99    ccc     O5   3074 -0.39491900  16.000000   ; qtot 99.508347
 3075         hn     99    ccc    H17   3075 0.49148100   1.008000   ; qtot 99.999828
; residue  100 ccc rtp ccc q 1.0
 3076         c3    100    ccc     C1   3076 0.14608100  12.010000   ; qtot 100.145909
 3077         h1    100    ccc     H1   3077 0.06738100   1.008000   ; qtot 100.213290
 3078         h1    100    ccc     H2   3078 0.06738100   1.008000   ; qtot 100.280671
 3079         c3    100    ccc     C2   3079 -0.14571900  12.010000   ; qtot 100.134952
 3080         hc    100    ccc     H3   3080 0.08688100   1.008000   ; qtot 100.221833
 3081         hc    100    ccc     H4   3081 0.08688100   1.008000   ; qtot 100.308714
 3082         c3    100    ccc     C3   3082 0.12348100  12.010000   ; qtot 100.432195
 3083         hx    100    ccc     H5   3083 0.10638100   1.008000   ; qtot 100.538576
 3084         hx    100    ccc     H6   3084 0.10638100   1.008000   ; qtot 100.644957
 3085         n4    100    ccc     N1   3085 -0.69071900  14.010000   ; qtot 99.954238
 3086         c3    100    ccc     C4   3086 0.12498100  12.010000   ; qtot 100.079219
 3087         hx    100    ccc     H7   3087 0.12238100   1.008000   ; qtot 100.201600
 3088         hx    100    ccc     H8   3088 0.12238100   1.008000   ; qtot 100.323981
 3089         c3    100    ccc     C5   3089 -0.20771900  12.010000   ; qtot 100.116262
 3090         hc    100    ccc     H9   3090 0.11463100   1.008000   ; qtot 100.230893
 3091         hc    100    ccc    H10   3091 0.11463100   1.008000   ; qtot 100.345524
 3092          c    100    ccc     C6   3092 0.64078100  12.010000   ; qtot 100.986305
 3093          o    100    ccc     O1   3093 -0.49231900  16.000000   ; qtot 100.493986
 3094         oh    100    ccc     O2   3094 -0.51841900  16.000000   ; qtot 99.975567
 3095         ho    100    ccc    H11   3095 0.45318100   1.008000   ; qtot 100.428748
 3096         c3    100    ccc     C7   3096 0.12498100  12.010000   ; qtot 100.553729
 3097         hx    100    ccc    H12   3097 0.12238100   1.008000   ; qtot 100.676110
 3098         hx    100    ccc    H13   3098 0.12238100   1.008000   ; qtot 100.798491
 3099         c3    100    ccc     C8   3099 -0.20771900  12.010000   ; qtot 100.590772
 3100         hc    100    ccc    H14   3100 0.11463100   1.008000   ; qtot 100.705403
 3101         hc    100    ccc    H15   3101 0.11463100   1.008000   ; qtot 100.820034
 3102          c    100    ccc     C9   3102 0.64078100  12.010000   ; qtot 101.460815
 3103          o    100    ccc     O3   3103 -0.49231900  16.000000   ; qtot 100.968496
 3104         oh    100    ccc     O4   3104 -0.51841900  16.000000   ; qtot 100.450077
 3105         ho    100    ccc    H16   3105 0.45318100   1.008000   ; qtot 100.903258
 3106         os    100    ccc     O5   3106 -0.39491900  16.000000   ; qtot 100.508339
 3107         hn    100    ccc    H17   3107 0.49148100   1.008000   ; qtot 100.999820
; residue  101 ccc rtp ccc q 1.0
 3108         c3    101    ccc     C1   3108 0.14608100  12.010000   ; qtot 101.145901
 3109         h1    101    ccc     H1   3109 0.06738100   1.008000   ; qtot 101.213282
 3110         h1    101    ccc     H2   3110 0.06738100   1.008000   ; qtot 101.280663
 3111         c3    101    ccc     C2   3111 -0.14571900  12.010000   ; qtot 101.134944
 3112         hc    101    ccc     H3   3112 0.08688100   1.008000   ; qtot 101.221825
 3113         hc    101    ccc     H4   3113 0.08688100   1.008000   ; qtot 101.308706
 3114         c3    101    ccc     C3   3114 0.12348100  12.010000   ; qtot 101.432187
 3115         hx    101    ccc     H5   3115 0.10638100   1.008000   ; qtot 101.538568
 3116         hx    101    ccc     H6   3116 0.10638100   1.008000   ; qtot 101.644949
 3117         n4    101    ccc     N1   3117 -0.69071900  14.010000   ; qtot 100.954230
 3118         c3    101    ccc     C4   3118 0.12498100  12.010000   ; qtot 101.079211
 3119         hx    101    ccc     H7   3119 0.12238100   1.008000   ; qtot 101.201592
 3120         hx    101    ccc     H8   3120 0.12238100   1.008000   ; qtot 101.323973
 3121         c3    101    ccc     C5   3121 -0.20771900  12.010000   ; qtot 101.116254
 3122         hc    101    ccc     H9   3122 0.11463100   1.008000   ; qtot 101.230885
 3123         hc    101    ccc    H10   3123 0.11463100   1.008000   ; qtot 101.345516
 3124          c    101    ccc     C6   3124 0.64078100  12.010000   ; qtot 101.986297
 3125          o    101    ccc     O1   3125 -0.49231900  16.000000   ; qtot 101.493978
 3126         oh    101    ccc     O2   3126 -0.51841900  16.000000   ; qtot 100.975559
 3127         ho    101    ccc    H11   3127 0.45318100   1.008000   ; qtot 101.428740
 3128         c3    101    ccc     C7   3128 0.12498100  12.010000   ; qtot 101.553721
 3129         hx    101    ccc    H12   3129 0.12238100   1.008000   ; qtot 101.676102
 3130         hx    101    ccc    H13   3130 0.12238100   1.008000   ; qtot 101.798483
 3131         c3    101    ccc     C8   3131 -0.20771900  12.010000   ; qtot 101.590764
 3132         hc    101    ccc    H14   3132 0.11463100   1.008000   ; qtot 101.705395
 3133         hc    101    ccc    H15   3133 0.11463100   1.008000   ; qtot 101.820026
 3134          c    101    ccc     C9   3134 0.64078100  12.010000   ; qtot 102.460807
 3135          o    101    ccc     O3   3135 -0.49231900  16.000000   ; qtot 101.968488
 3136         oh    101    ccc     O4   3136 -0.51841900  16.000000   ; qtot 101.450069
 3137         ho    101    ccc    H16   3137 0.45318100   1.008000   ; qtot 101.903250
 3138         os    101    ccc     O5   3138 -0.39491900  16.000000   ; qtot 101.508331
 3139         hn    101    ccc    H17   3139 0.49148100   1.008000   ; qtot 101.999812
; residue  102 ccc rtp ccc q 1.0
 3140         c3    102    ccc     C1   3140 0.14608100  12.010000   ; qtot 102.145893
 3141         h1    102    ccc     H1   3141 0.06738100   1.008000   ; qtot 102.213274
 3142         h1    102    ccc     H2   3142 0.06738100   1.008000   ; qtot 102.280655
 3143         c3    102    ccc     C2   3143 -0.14571900  12.010000   ; qtot 102.134936
 3144         hc    102    ccc     H3   3144 0.08688100   1.008000   ; qtot 102.221817
 3145         hc    102    ccc     H4   3145 0.08688100   1.008000   ; qtot 102.308698
 3146         c3    102    ccc     C3   3146 0.12348100  12.010000   ; qtot 102.432179
 3147         hx    102    ccc     H5   3147 0.10638100   1.008000   ; qtot 102.538560
 3148         hx    102    ccc     H6   3148 0.10638100   1.008000   ; qtot 102.644941
 3149         n4    102    ccc     N1   3149 -0.69071900  14.010000   ; qtot 101.954222
 3150         c3    102    ccc     C4   3150 0.12498100  12.010000   ; qtot 102.079203
 3151         hx    102    ccc     H7   3151 0.12238100   1.008000   ; qtot 102.201584
 3152         hx    102    ccc     H8   3152 0.12238100   1.008000   ; qtot 102.323965
 3153         c3    102    ccc     C5   3153 -0.20771900  12.010000   ; qtot 102.116246
 3154         hc    102    ccc     H9   3154 0.11463100   1.008000   ; qtot 102.230877
 3155         hc    102    ccc    H10   3155 0.11463100   1.008000   ; qtot 102.345508
 3156          c    102    ccc     C6   3156 0.64078100  12.010000   ; qtot 102.986289
 3157          o    102    ccc     O1   3157 -0.49231900  16.000000   ; qtot 102.493970
 3158         oh    102    ccc     O2   3158 -0.51841900  16.000000   ; qtot 101.975551
 3159         ho    102    ccc    H11   3159 0.45318100   1.008000   ; qtot 102.428732
 3160         c3    102    ccc     C7   3160 0.12498100  12.010000   ; qtot 102.553713
 3161         hx    102    ccc    H12   3161 0.12238100   1.008000   ; qtot 102.676094
 3162         hx    102    ccc    H13   3162 0.12238100   1.008000   ; qtot 102.798475
 3163         c3    102    ccc     C8   3163 -0.20771900  12.010000   ; qtot 102.590756
 3164         hc    102    ccc    H14   3164 0.11463100   1.008000   ; qtot 102.705387
 3165         hc    102    ccc    H15   3165 0.11463100   1.008000   ; qtot 102.820018
 3166          c    102    ccc     C9   3166 0.64078100  12.010000   ; qtot 103.460799
 3167          o    102    ccc     O3   3167 -0.49231900  16.000000   ; qtot 102.968480
 3168         oh    102    ccc     O4   3168 -0.51841900  16.000000   ; qtot 102.450061
 3169         ho    102    ccc    H16   3169 0.45318100   1.008000   ; qtot 102.903242
 3170         os    102    ccc     O5   3170 -0.39491900  16.000000   ; qtot 102.508323
 3171         hn    102    ccc    H17   3171 0.49148100   1.008000   ; qtot 102.999804
; residue  103 ccc rtp ccc q 1.0
 3172         c3    103    ccc     C1   3172 0.14608100  12.010000   ; qtot 103.145885
 3173         h1    103    ccc     H1   3173 0.06738100   1.008000   ; qtot 103.213266
 3174         h1    103    ccc     H2   3174 0.06738100   1.008000   ; qtot 103.280647
 3175         c3    103    ccc     C2   3175 -0.14571900  12.010000   ; qtot 103.134928
 3176         hc    103    ccc     H3   3176 0.08688100   1.008000   ; qtot 103.221809
 3177         hc    103    ccc     H4   3177 0.08688100   1.008000   ; qtot 103.308690
 3178         c3    103    ccc     C3   3178 0.12348100  12.010000   ; qtot 103.432171
 3179         hx    103    ccc     H5   3179 0.10638100   1.008000   ; qtot 103.538552
 3180         hx    103    ccc     H6   3180 0.10638100   1.008000   ; qtot 103.644933
 3181         n4    103    ccc     N1   3181 -0.69071900  14.010000   ; qtot 102.954214
 3182         c3    103    ccc     C4   3182 0.12498100  12.010000   ; qtot 103.079195
 3183         hx    103    ccc     H7   3183 0.12238100   1.008000   ; qtot 103.201576
 3184         hx    103    ccc     H8   3184 0.12238100   1.008000   ; qtot 103.323957
 3185         c3    103    ccc     C5   3185 -0.20771900  12.010000   ; qtot 103.116238
 3186         hc    103    ccc     H9   3186 0.11463100   1.008000   ; qtot 103.230869
 3187         hc    103    ccc    H10   3187 0.11463100   1.008000   ; qtot 103.345500
 3188          c    103    ccc     C6   3188 0.64078100  12.010000   ; qtot 103.986281
 3189          o    103    ccc     O1   3189 -0.49231900  16.000000   ; qtot 103.493962
 3190         oh    103    ccc     O2   3190 -0.51841900  16.000000   ; qtot 102.975543
 3191         ho    103    ccc    H11   3191 0.45318100   1.008000   ; qtot 103.428724
 3192         c3    103    ccc     C7   3192 0.12498100  12.010000   ; qtot 103.553705
 3193         hx    103    ccc    H12   3193 0.12238100   1.008000   ; qtot 103.676086
 3194         hx    103    ccc    H13   3194 0.12238100   1.008000   ; qtot 103.798467
 3195         c3    103    ccc     C8   3195 -0.20771900  12.010000   ; qtot 103.590748
 3196         hc    103    ccc    H14   3196 0.11463100   1.008000   ; qtot 103.705379
 3197         hc    103    ccc    H15   3197 0.11463100   1.008000   ; qtot 103.820010
 3198          c    103    ccc     C9   3198 0.64078100  12.010000   ; qtot 104.460791
 3199          o    103    ccc     O3   3199 -0.49231900  16.000000   ; qtot 103.968472
 3200         oh    103    ccc     O4   3200 -0.51841900  16.000000   ; qtot 103.450053
 3201         ho    103    ccc    H16   3201 0.45318100   1.008000   ; qtot 103.903234
 3202         os    103    ccc     O5   3202 -0.39491900  16.000000   ; qtot 103.508315
 3203         hn    103    ccc    H17   3203 0.49148100   1.008000   ; qtot 103.999796
; residue  104 ccc rtp ccc q 1.0
 3204         c3    104    ccc     C1   3204 0.14608100  12.010000   ; qtot 104.145877
 3205         h1    104    ccc     H1   3205 0.06738100   1.008000   ; qtot 104.213258
 3206         h1    104    ccc     H2   3206 0.06738100   1.008000   ; qtot 104.280639
 3207         c3    104    ccc     C2   3207 -0.14571900  12.010000   ; qtot 104.134920
 3208         hc    104    ccc     H3   3208 0.08688100   1.008000   ; qtot 104.221801
 3209         hc    104    ccc     H4   3209 0.08688100   1.008000   ; qtot 104.308682
 3210         c3    104    ccc     C3   3210 0.12348100  12.010000   ; qtot 104.432163
 3211         hx    104    ccc     H5   3211 0.10638100   1.008000   ; qtot 104.538544
 3212         hx    104    ccc     H6   3212 0.10638100   1.008000   ; qtot 104.644925
 3213         n4    104    ccc     N1   3213 -0.69071900  14.010000   ; qtot 103.954206
 3214         c3    104    ccc     C4   3214 0.12498100  12.010000   ; qtot 104.079187
 3215         hx    104    ccc     H7   3215 0.12238100   1.008000   ; qtot 104.201568
 3216         hx    104    ccc     H8   3216 0.12238100   1.008000   ; qtot 104.323949
 3217         c3    104    ccc     C5   3217 -0.20771900  12.010000   ; qtot 104.116230
 3218         hc    104    ccc     H9   3218 0.11463100   1.008000   ; qtot 104.230861
 3219         hc    104    ccc    H10   3219 0.11463100   1.008000   ; qtot 104.345492
 3220          c    104    ccc     C6   3220 0.64078100  12.010000   ; qtot 104.986273
 3221          o    104    ccc     O1   3221 -0.49231900  16.000000   ; qtot 104.493954
 3222         oh    104    ccc     O2   3222 -0.51841900  16.000000   ; qtot 103.975535
 3223         ho    104    ccc    H11   3223 0.45318100   1.008000   ; qtot 104.428716
 3224         c3    104    ccc     C7   3224 0.12498100  12.010000   ; qtot 104.553697
 3225         hx    104    ccc    H12   3225 0.12238100   1.008000   ; qtot 104.676078
 3226         hx    104    ccc    H13   3226 0.12238100   1.008000   ; qtot 104.798459
 3227         c3    104    ccc     C8   3227 -0.20771900  12.010000   ; qtot 104.590740
 3228         hc    104    ccc    H14   3228 0.11463100   1.008000   ; qtot 104.705371
 3229         hc    104    ccc    H15   3229 0.11463100   1.008000   ; qtot 104.820002
 3230          c    104    ccc     C9   3230 0.64078100  12.010000   ; qtot 105.460783
 3231          o    104    ccc     O3   3231 -0.49231900  16.000000   ; qtot 104.968464
 3232         oh    104    ccc     O4   3232 -0.51841900  16.000000   ; qtot 104.450045
 3233         ho    104    ccc    H16   3233 0.45318100   1.008000   ; qtot 104.903226
 3234         os    104    ccc     O5   3234 -0.39491900  16.000000   ; qtot 104.508307
 3235         hn    104    ccc    H17   3235 0.49148100   1.008000   ; qtot 104.999788
; residue  105 ccc rtp ccc q 1.0
 3236         c3    105    ccc     C1   3236 0.14608100  12.010000   ; qtot 105.145869
 3237         h1    105    ccc     H1   3237 0.06738100   1.008000   ; qtot 105.213250
 3238         h1    105    ccc     H2   3238 0.06738100   1.008000   ; qtot 105.280631
 3239         c3    105    ccc     C2   3239 -0.14571900  12.010000   ; qtot 105.134912
 3240         hc    105    ccc     H3   3240 0.08688100   1.008000   ; qtot 105.221793
 3241         hc    105    ccc     H4   3241 0.08688100   1.008000   ; qtot 105.308674
 3242         c3    105    ccc     C3   3242 0.12348100  12.010000   ; qtot 105.432155
 3243         hx    105    ccc     H5   3243 0.10638100   1.008000   ; qtot 105.538536
 3244         hx    105    ccc     H6   3244 0.10638100   1.008000   ; qtot 105.644917
 3245         n4    105    ccc     N1   3245 -0.69071900  14.010000   ; qtot 104.954198
 3246         c3    105    ccc     C4   3246 0.12498100  12.010000   ; qtot 105.079179
 3247         hx    105    ccc     H7   3247 0.12238100   1.008000   ; qtot 105.201560
 3248         hx    105    ccc     H8   3248 0.12238100   1.008000   ; qtot 105.323941
 3249         c3    105    ccc     C5   3249 -0.20771900  12.010000   ; qtot 105.116222
 3250         hc    105    ccc     H9   3250 0.11463100   1.008000   ; qtot 105.230853
 3251         hc    105    ccc    H10   3251 0.11463100   1.008000   ; qtot 105.345484
 3252          c    105    ccc     C6   3252 0.64078100  12.010000   ; qtot 105.986265
 3253          o    105    ccc     O1   3253 -0.49231900  16.000000   ; qtot 105.493946
 3254         oh    105    ccc     O2   3254 -0.51841900  16.000000   ; qtot 104.975527
 3255         ho    105    ccc    H11   3255 0.45318100   1.008000   ; qtot 105.428708
 3256         c3    105    ccc     C7   3256 0.12498100  12.010000   ; qtot 105.553689
 3257         hx    105    ccc    H12   3257 0.12238100   1.008000   ; qtot 105.676070
 3258         hx    105    ccc    H13   3258 0.12238100   1.008000   ; qtot 105.798451
 3259         c3    105    ccc     C8   3259 -0.20771900  12.010000   ; qtot 105.590732
 3260         hc    105    ccc    H14   3260 0.11463100   1.008000   ; qtot 105.705363
 3261         hc    105    ccc    H15   3261 0.11463100   1.008000   ; qtot 105.819994
 3262          c    105    ccc     C9   3262 0.64078100  12.010000   ; qtot 106.460775
 3263          o    105    ccc     O3   3263 -0.49231900  16.000000   ; qtot 105.968456
 3264         oh    105    ccc     O4   3264 -0.51841900  16.000000   ; qtot 105.450037
 3265         ho    105    ccc    H16   3265 0.45318100   1.008000   ; qtot 105.903218
 3266         os    105    ccc     O5   3266 -0.39491900  16.000000   ; qtot 105.508299
 3267         hn    105    ccc    H17   3267 0.49148100   1.008000   ; qtot 105.999780
; residue  106 ccc rtp ccc q 1.0
 3268         c3    106    ccc     C1   3268 0.14608100  12.010000   ; qtot 106.145861
 3269         h1    106    ccc     H1   3269 0.06738100   1.008000   ; qtot 106.213242
 3270         h1    106    ccc     H2   3270 0.06738100   1.008000   ; qtot 106.280623
 3271         c3    106    ccc     C2   3271 -0.14571900  12.010000   ; qtot 106.134904
 3272         hc    106    ccc     H3   3272 0.08688100   1.008000   ; qtot 106.221785
 3273         hc    106    ccc     H4   3273 0.08688100   1.008000   ; qtot 106.308666
 3274         c3    106    ccc     C3   3274 0.12348100  12.010000   ; qtot 106.432147
 3275         hx    106    ccc     H5   3275 0.10638100   1.008000   ; qtot 106.538528
 3276         hx    106    ccc     H6   3276 0.10638100   1.008000   ; qtot 106.644909
 3277         n4    106    ccc     N1   3277 -0.69071900  14.010000   ; qtot 105.954190
 3278         c3    106    ccc     C4   3278 0.12498100  12.010000   ; qtot 106.079171
 3279         hx    106    ccc     H7   3279 0.12238100   1.008000   ; qtot 106.201552
 3280         hx    106    ccc     H8   3280 0.12238100   1.008000   ; qtot 106.323933
 3281         c3    106    ccc     C5   3281 -0.20771900  12.010000   ; qtot 106.116214
 3282         hc    106    ccc     H9   3282 0.11463100   1.008000   ; qtot 106.230845
 3283         hc    106    ccc    H10   3283 0.11463100   1.008000   ; qtot 106.345476
 3284          c    106    ccc     C6   3284 0.64078100  12.010000   ; qtot 106.986257
 3285          o    106    ccc     O1   3285 -0.49231900  16.000000   ; qtot 106.493938
 3286         oh    106    ccc     O2   3286 -0.51841900  16.000000   ; qtot 105.975519
 3287         ho    106    ccc    H11   3287 0.45318100   1.008000   ; qtot 106.428700
 3288         c3    106    ccc     C7   3288 0.12498100  12.010000   ; qtot 106.553681
 3289         hx    106    ccc    H12   3289 0.12238100   1.008000   ; qtot 106.676062
 3290         hx    106    ccc    H13   3290 0.12238100   1.008000   ; qtot 106.798443
 3291         c3    106    ccc     C8   3291 -0.20771900  12.010000   ; qtot 106.590724
 3292         hc    106    ccc    H14   3292 0.11463100   1.008000   ; qtot 106.705355
 3293         hc    106    ccc    H15   3293 0.11463100   1.008000   ; qtot 106.819986
 3294          c    106    ccc     C9   3294 0.64078100  12.010000   ; qtot 107.460767
 3295          o    106    ccc     O3   3295 -0.49231900  16.000000   ; qtot 106.968448
 3296         oh    106    ccc     O4   3296 -0.51841900  16.000000   ; qtot 106.450029
 3297         ho    106    ccc    H16   3297 0.45318100   1.008000   ; qtot 106.903210
 3298         os    106    ccc     O5   3298 -0.39491900  16.000000   ; qtot 106.508291
 3299         hn    106    ccc    H17   3299 0.49148100   1.008000   ; qtot 106.999772
; residue  107 ccc rtp ccc q 1.0
 3300         c3    107    ccc     C1   3300 0.14608100  12.010000   ; qtot 107.145853
 3301         h1    107    ccc     H1   3301 0.06738100   1.008000   ; qtot 107.213234
 3302         h1    107    ccc     H2   3302 0.06738100   1.008000   ; qtot 107.280615
 3303         c3    107    ccc     C2   3303 -0.14571900  12.010000   ; qtot 107.134896
 3304         hc    107    ccc     H3   3304 0.08688100   1.008000   ; qtot 107.221777
 3305         hc    107    ccc     H4   3305 0.08688100   1.008000   ; qtot 107.308658
 3306         c3    107    ccc     C3   3306 0.12348100  12.010000   ; qtot 107.432139
 3307         hx    107    ccc     H5   3307 0.10638100   1.008000   ; qtot 107.538520
 3308         hx    107    ccc     H6   3308 0.10638100   1.008000   ; qtot 107.644901
 3309         n4    107    ccc     N1   3309 -0.69071900  14.010000   ; qtot 106.954182
 3310         c3    107    ccc     C4   3310 0.12498100  12.010000   ; qtot 107.079163
 3311         hx    107    ccc     H7   3311 0.12238100   1.008000   ; qtot 107.201544
 3312         hx    107    ccc     H8   3312 0.12238100   1.008000   ; qtot 107.323925
 3313         c3    107    ccc     C5   3313 -0.20771900  12.010000   ; qtot 107.116206
 3314         hc    107    ccc     H9   3314 0.11463100   1.008000   ; qtot 107.230837
 3315         hc    107    ccc    H10   3315 0.11463100   1.008000   ; qtot 107.345468
 3316          c    107    ccc     C6   3316 0.64078100  12.010000   ; qtot 107.986249
 3317          o    107    ccc     O1   3317 -0.49231900  16.000000   ; qtot 107.493930
 3318         oh    107    ccc     O2   3318 -0.51841900  16.000000   ; qtot 106.975511
 3319         ho    107    ccc    H11   3319 0.45318100   1.008000   ; qtot 107.428692
 3320         c3    107    ccc     C7   3320 0.12498100  12.010000   ; qtot 107.553673
 3321         hx    107    ccc    H12   3321 0.12238100   1.008000   ; qtot 107.676054
 3322         hx    107    ccc    H13   3322 0.12238100   1.008000   ; qtot 107.798435
 3323         c3    107    ccc     C8   3323 -0.20771900  12.010000   ; qtot 107.590716
 3324         hc    107    ccc    H14   3324 0.11463100   1.008000   ; qtot 107.705347
 3325         hc    107    ccc    H15   3325 0.11463100   1.008000   ; qtot 107.819978
 3326          c    107    ccc     C9   3326 0.64078100  12.010000   ; qtot 108.460759
 3327          o    107    ccc     O3   3327 -0.49231900  16.000000   ; qtot 107.968440
 3328         oh    107    ccc     O4   3328 -0.51841900  16.000000   ; qtot 107.450021
 3329         ho    107    ccc    H16   3329 0.45318100   1.008000   ; qtot 107.903202
 3330         os    107    ccc     O5   3330 -0.39491900  16.000000   ; qtot 107.508283
 3331         hn    107    ccc    H17   3331 0.49148100   1.008000   ; qtot 107.999764
; residue  108 ccc rtp ccc q 1.0
 3332         c3    108    ccc     C1   3332 0.14608100  12.010000   ; qtot 108.145845
 3333         h1    108    ccc     H1   3333 0.06738100   1.008000   ; qtot 108.213226
 3334         h1    108    ccc     H2   3334 0.06738100   1.008000   ; qtot 108.280607
 3335         c3    108    ccc     C2   3335 -0.14571900  12.010000   ; qtot 108.134888
 3336         hc    108    ccc     H3   3336 0.08688100   1.008000   ; qtot 108.221769
 3337         hc    108    ccc     H4   3337 0.08688100   1.008000   ; qtot 108.308650
 3338         c3    108    ccc     C3   3338 0.12348100  12.010000   ; qtot 108.432131
 3339         hx    108    ccc     H5   3339 0.10638100   1.008000   ; qtot 108.538512
 3340         hx    108    ccc     H6   3340 0.10638100   1.008000   ; qtot 108.644893
 3341         n4    108    ccc     N1   3341 -0.69071900  14.010000   ; qtot 107.954174
 3342         c3    108    ccc     C4   3342 0.12498100  12.010000   ; qtot 108.079155
 3343         hx    108    ccc     H7   3343 0.12238100   1.008000   ; qtot 108.201536
 3344         hx    108    ccc     H8   3344 0.12238100   1.008000   ; qtot 108.323917
 3345         c3    108    ccc     C5   3345 -0.20771900  12.010000   ; qtot 108.116198
 3346         hc    108    ccc     H9   3346 0.11463100   1.008000   ; qtot 108.230829
 3347         hc    108    ccc    H10   3347 0.11463100   1.008000   ; qtot 108.345460
 3348          c    108    ccc     C6   3348 0.64078100  12.010000   ; qtot 108.986241
 3349          o    108    ccc     O1   3349 -0.49231900  16.000000   ; qtot 108.493922
 3350         oh    108    ccc     O2   3350 -0.51841900  16.000000   ; qtot 107.975503
 3351         ho    108    ccc    H11   3351 0.45318100   1.008000   ; qtot 108.428684
 3352         c3    108    ccc     C7   3352 0.12498100  12.010000   ; qtot 108.553665
 3353         hx    108    ccc    H12   3353 0.12238100   1.008000   ; qtot 108.676046
 3354         hx    108    ccc    H13   3354 0.12238100   1.008000   ; qtot 108.798427
 3355         c3    108    ccc     C8   3355 -0.20771900  12.010000   ; qtot 108.590708
 3356         hc    108    ccc    H14   3356 0.11463100   1.008000   ; qtot 108.705339
 3357         hc    108    ccc    H15   3357 0.11463100   1.008000   ; qtot 108.819970
 3358          c    108    ccc     C9   3358 0.64078100  12.010000   ; qtot 109.460751
 3359          o    108    ccc     O3   3359 -0.49231900  16.000000   ; qtot 108.968432
 3360         oh    108    ccc     O4   3360 -0.51841900  16.000000   ; qtot 108.450013
 3361         ho    108    ccc    H16   3361 0.45318100   1.008000   ; qtot 108.903194
 3362         os    108    ccc     O5   3362 -0.39491900  16.000000   ; qtot 108.508275
 3363         hn    108    ccc    H17   3363 0.49148100   1.008000   ; qtot 108.999756
; residue  109 ccc rtp ccc q 1.0
 3364         c3    109    ccc     C1   3364 0.14608100  12.010000   ; qtot 109.145837
 3365         h1    109    ccc     H1   3365 0.06738100   1.008000   ; qtot 109.213218
 3366         h1    109    ccc     H2   3366 0.06738100   1.008000   ; qtot 109.280599
 3367         c3    109    ccc     C2   3367 -0.14571900  12.010000   ; qtot 109.134880
 3368         hc    109    ccc     H3   3368 0.08688100   1.008000   ; qtot 109.221761
 3369         hc    109    ccc     H4   3369 0.08688100   1.008000   ; qtot 109.308642
 3370         c3    109    ccc     C3   3370 0.12348100  12.010000   ; qtot 109.432123
 3371         hx    109    ccc     H5   3371 0.10638100   1.008000   ; qtot 109.538504
 3372         hx    109    ccc     H6   3372 0.10638100   1.008000   ; qtot 109.644885
 3373         n4    109    ccc     N1   3373 -0.69071900  14.010000   ; qtot 108.954166
 3374         c3    109    ccc     C4   3374 0.12498100  12.010000   ; qtot 109.079147
 3375         hx    109    ccc     H7   3375 0.12238100   1.008000   ; qtot 109.201528
 3376         hx    109    ccc     H8   3376 0.12238100   1.008000   ; qtot 109.323909
 3377         c3    109    ccc     C5   3377 -0.20771900  12.010000   ; qtot 109.116190
 3378         hc    109    ccc     H9   3378 0.11463100   1.008000   ; qtot 109.230821
 3379         hc    109    ccc    H10   3379 0.11463100   1.008000   ; qtot 109.345452
 3380          c    109    ccc     C6   3380 0.64078100  12.010000   ; qtot 109.986233
 3381          o    109    ccc     O1   3381 -0.49231900  16.000000   ; qtot 109.493914
 3382         oh    109    ccc     O2   3382 -0.51841900  16.000000   ; qtot 108.975495
 3383         ho    109    ccc    H11   3383 0.45318100   1.008000   ; qtot 109.428676
 3384         c3    109    ccc     C7   3384 0.12498100  12.010000   ; qtot 109.553657
 3385         hx    109    ccc    H12   3385 0.12238100   1.008000   ; qtot 109.676038
 3386         hx    109    ccc    H13   3386 0.12238100   1.008000   ; qtot 109.798419
 3387         c3    109    ccc     C8   3387 -0.20771900  12.010000   ; qtot 109.590700
 3388         hc    109    ccc    H14   3388 0.11463100   1.008000   ; qtot 109.705331
 3389         hc    109    ccc    H15   3389 0.11463100   1.008000   ; qtot 109.819962
 3390          c    109    ccc     C9   3390 0.64078100  12.010000   ; qtot 110.460743
 3391          o    109    ccc     O3   3391 -0.49231900  16.000000   ; qtot 109.968424
 3392         oh    109    ccc     O4   3392 -0.51841900  16.000000   ; qtot 109.450005
 3393         ho    109    ccc    H16   3393 0.45318100   1.008000   ; qtot 109.903186
 3394         os    109    ccc     O5   3394 -0.39491900  16.000000   ; qtot 109.508267
 3395         hn    109    ccc    H17   3395 0.49148100   1.008000   ; qtot 109.999748
; residue  110 ccc rtp ccc q 1.0
 3396         c3    110    ccc     C1   3396 0.14608100  12.010000   ; qtot 110.145829
 3397         h1    110    ccc     H1   3397 0.06738100   1.008000   ; qtot 110.213210
 3398         h1    110    ccc     H2   3398 0.06738100   1.008000   ; qtot 110.280591
 3399         c3    110    ccc     C2   3399 -0.14571900  12.010000   ; qtot 110.134872
 3400         hc    110    ccc     H3   3400 0.08688100   1.008000   ; qtot 110.221753
 3401         hc    110    ccc     H4   3401 0.08688100   1.008000   ; qtot 110.308634
 3402         c3    110    ccc     C3   3402 0.12348100  12.010000   ; qtot 110.432115
 3403         hx    110    ccc     H5   3403 0.10638100   1.008000   ; qtot 110.538496
 3404         hx    110    ccc     H6   3404 0.10638100   1.008000   ; qtot 110.644877
 3405         n4    110    ccc     N1   3405 -0.69071900  14.010000   ; qtot 109.954158
 3406         c3    110    ccc     C4   3406 0.12498100  12.010000   ; qtot 110.079139
 3407         hx    110    ccc     H7   3407 0.12238100   1.008000   ; qtot 110.201520
 3408         hx    110    ccc     H8   3408 0.12238100   1.008000   ; qtot 110.323901
 3409         c3    110    ccc     C5   3409 -0.20771900  12.010000   ; qtot 110.116182
 3410         hc    110    ccc     H9   3410 0.11463100   1.008000   ; qtot 110.230813
 3411         hc    110    ccc    H10   3411 0.11463100   1.008000   ; qtot 110.345444
 3412          c    110    ccc     C6   3412 0.64078100  12.010000   ; qtot 110.986225
 3413          o    110    ccc     O1   3413 -0.49231900  16.000000   ; qtot 110.493906
 3414         oh    110    ccc     O2   3414 -0.51841900  16.000000   ; qtot 109.975487
 3415         ho    110    ccc    H11   3415 0.45318100   1.008000   ; qtot 110.428668
 3416         c3    110    ccc     C7   3416 0.12498100  12.010000   ; qtot 110.553649
 3417         hx    110    ccc    H12   3417 0.12238100   1.008000   ; qtot 110.676030
 3418         hx    110    ccc    H13   3418 0.12238100   1.008000   ; qtot 110.798411
 3419         c3    110    ccc     C8   3419 -0.20771900  12.010000   ; qtot 110.590692
 3420         hc    110    ccc    H14   3420 0.11463100   1.008000   ; qtot 110.705323
 3421         hc    110    ccc    H15   3421 0.11463100   1.008000   ; qtot 110.819954
 3422          c    110    ccc     C9   3422 0.64078100  12.010000   ; qtot 111.460735
 3423          o    110    ccc     O3   3423 -0.49231900  16.000000   ; qtot 110.968416
 3424         oh    110    ccc     O4   3424 -0.51841900  16.000000   ; qtot 110.449997
 3425         ho    110    ccc    H16   3425 0.45318100   1.008000   ; qtot 110.903178
 3426         os    110    ccc     O5   3426 -0.39491900  16.000000   ; qtot 110.508259
 3427         hn    110    ccc    H17   3427 0.49148100   1.008000   ; qtot 110.999740
; residue  111 ccc rtp ccc q 1.0
 3428         c3    111    ccc     C1   3428 0.14608100  12.010000   ; qtot 111.145821
 3429         h1    111    ccc     H1   3429 0.06738100   1.008000   ; qtot 111.213202
 3430         h1    111    ccc     H2   3430 0.06738100   1.008000   ; qtot 111.280583
 3431         c3    111    ccc     C2   3431 -0.14571900  12.010000   ; qtot 111.134864
 3432         hc    111    ccc     H3   3432 0.08688100   1.008000   ; qtot 111.221745
 3433         hc    111    ccc     H4   3433 0.08688100   1.008000   ; qtot 111.308626
 3434         c3    111    ccc     C3   3434 0.12348100  12.010000   ; qtot 111.432107
 3435         hx    111    ccc     H5   3435 0.10638100   1.008000   ; qtot 111.538488
 3436         hx    111    ccc     H6   3436 0.10638100   1.008000   ; qtot 111.644869
 3437         n4    111    ccc     N1   3437 -0.69071900  14.010000   ; qtot 110.954150
 3438         c3    111    ccc     C4   3438 0.12498100  12.010000   ; qtot 111.079131
 3439         hx    111    ccc     H7   3439 0.12238100   1.008000   ; qtot 111.201512
 3440         hx    111    ccc     H8   3440 0.12238100   1.008000   ; qtot 111.323893
 3441         c3    111    ccc     C5   3441 -0.20771900  12.010000   ; qtot 111.116174
 3442         hc    111    ccc     H9   3442 0.11463100   1.008000   ; qtot 111.230805
 3443         hc    111    ccc    H10   3443 0.11463100   1.008000   ; qtot 111.345436
 3444          c    111    ccc     C6   3444 0.64078100  12.010000   ; qtot 111.986217
 3445          o    111    ccc     O1   3445 -0.49231900  16.000000   ; qtot 111.493898
 3446         oh    111    ccc     O2   3446 -0.51841900  16.000000   ; qtot 110.975479
 3447         ho    111    ccc    H11   3447 0.45318100   1.008000   ; qtot 111.428660
 3448         c3    111    ccc     C7   3448 0.12498100  12.010000   ; qtot 111.553641
 3449         hx    111    ccc    H12   3449 0.12238100   1.008000   ; qtot 111.676022
 3450         hx    111    ccc    H13   3450 0.12238100   1.008000   ; qtot 111.798403
 3451         c3    111    ccc     C8   3451 -0.20771900  12.010000   ; qtot 111.590684
 3452         hc    111    ccc    H14   3452 0.11463100   1.008000   ; qtot 111.705315
 3453         hc    111    ccc    H15   3453 0.11463100   1.008000   ; qtot 111.819946
 3454          c    111    ccc     C9   3454 0.64078100  12.010000   ; qtot 112.460727
 3455          o    111    ccc     O3   3455 -0.49231900  16.000000   ; qtot 111.968408
 3456         oh    111    ccc     O4   3456 -0.51841900  16.000000   ; qtot 111.449989
 3457         ho    111    ccc    H16   3457 0.45318100   1.008000   ; qtot 111.903170
 3458         os    111    ccc     O5   3458 -0.39491900  16.000000   ; qtot 111.508251
 3459         hn    111    ccc    H17   3459 0.49148100   1.008000   ; qtot 111.999732
; residue  112 ccc rtp ccc q 1.0
 3460         c3    112    ccc     C1   3460 0.14608100  12.010000   ; qtot 112.145813
 3461         h1    112    ccc     H1   3461 0.06738100   1.008000   ; qtot 112.213194
 3462         h1    112    ccc     H2   3462 0.06738100   1.008000   ; qtot 112.280575
 3463         c3    112    ccc     C2   3463 -0.14571900  12.010000   ; qtot 112.134856
 3464         hc    112    ccc     H3   3464 0.08688100   1.008000   ; qtot 112.221737
 3465         hc    112    ccc     H4   3465 0.08688100   1.008000   ; qtot 112.308618
 3466         c3    112    ccc     C3   3466 0.12348100  12.010000   ; qtot 112.432099
 3467         hx    112    ccc     H5   3467 0.10638100   1.008000   ; qtot 112.538480
 3468         hx    112    ccc     H6   3468 0.10638100   1.008000   ; qtot 112.644861
 3469         n4    112    ccc     N1   3469 -0.69071900  14.010000   ; qtot 111.954142
 3470         c3    112    ccc     C4   3470 0.12498100  12.010000   ; qtot 112.079123
 3471         hx    112    ccc     H7   3471 0.12238100   1.008000   ; qtot 112.201504
 3472         hx    112    ccc     H8   3472 0.12238100   1.008000   ; qtot 112.323885
 3473         c3    112    ccc     C5   3473 -0.20771900  12.010000   ; qtot 112.116166
 3474         hc    112    ccc     H9   3474 0.11463100   1.008000   ; qtot 112.230797
 3475         hc    112    ccc    H10   3475 0.11463100   1.008000   ; qtot 112.345428
 3476          c    112    ccc     C6   3476 0.64078100  12.010000   ; qtot 112.986209
 3477          o    112    ccc     O1   3477 -0.49231900  16.000000   ; qtot 112.493890
 3478         oh    112    ccc     O2   3478 -0.51841900  16.000000   ; qtot 111.975471
 3479         ho    112    ccc    H11   3479 0.45318100   1.008000   ; qtot 112.428652
 3480         c3    112    ccc     C7   3480 0.12498100  12.010000   ; qtot 112.553633
 3481         hx    112    ccc    H12   3481 0.12238100   1.008000   ; qtot 112.676014
 3482         hx    112    ccc    H13   3482 0.12238100   1.008000   ; qtot 112.798395
 3483         c3    112    ccc     C8   3483 -0.20771900  12.010000   ; qtot 112.590676
 3484         hc    112    ccc    H14   3484 0.11463100   1.008000   ; qtot 112.705307
 3485         hc    112    ccc    H15   3485 0.11463100   1.008000   ; qtot 112.819938
 3486          c    112    ccc     C9   3486 0.64078100  12.010000   ; qtot 113.460719
 3487          o    112    ccc     O3   3487 -0.49231900  16.000000   ; qtot 112.968400
 3488         oh    112    ccc     O4   3488 -0.51841900  16.000000   ; qtot 112.449981
 3489         ho    112    ccc    H16   3489 0.45318100   1.008000   ; qtot 112.903162
 3490         os    112    ccc     O5   3490 -0.39491900  16.000000   ; qtot 112.508243
 3491         hn    112    ccc    H17   3491 0.49148100   1.008000   ; qtot 112.999724
; residue  113 ccc rtp ccc q 1.0
 3492         c3    113    ccc     C1   3492 0.14608100  12.010000   ; qtot 113.145805
 3493         h1    113    ccc     H1   3493 0.06738100   1.008000   ; qtot 113.213186
 3494         h1    113    ccc     H2   3494 0.06738100   1.008000   ; qtot 113.280567
 3495         c3    113    ccc     C2   3495 -0.14571900  12.010000   ; qtot 113.134848
 3496         hc    113    ccc     H3   3496 0.08688100   1.008000   ; qtot 113.221729
 3497         hc    113    ccc     H4   3497 0.08688100   1.008000   ; qtot 113.308610
 3498         c3    113    ccc     C3   3498 0.12348100  12.010000   ; qtot 113.432091
 3499         hx    113    ccc     H5   3499 0.10638100   1.008000   ; qtot 113.538472
 3500         hx    113    ccc     H6   3500 0.10638100   1.008000   ; qtot 113.644853
 3501         n4    113    ccc     N1   3501 -0.69071900  14.010000   ; qtot 112.954134
 3502         c3    113    ccc     C4   3502 0.12498100  12.010000   ; qtot 113.079115
 3503         hx    113    ccc     H7   3503 0.12238100   1.008000   ; qtot 113.201496
 3504         hx    113    ccc     H8   3504 0.12238100   1.008000   ; qtot 113.323877
 3505         c3    113    ccc     C5   3505 -0.20771900  12.010000   ; qtot 113.116158
 3506         hc    113    ccc     H9   3506 0.11463100   1.008000   ; qtot 113.230789
 3507         hc    113    ccc    H10   3507 0.11463100   1.008000   ; qtot 113.345420
 3508          c    113    ccc     C6   3508 0.64078100  12.010000   ; qtot 113.986201
 3509          o    113    ccc     O1   3509 -0.49231900  16.000000   ; qtot 113.493882
 3510         oh    113    ccc     O2   3510 -0.51841900  16.000000   ; qtot 112.975463
 3511         ho    113    ccc    H11   3511 0.45318100   1.008000   ; qtot 113.428644
 3512         c3    113    ccc     C7   3512 0.12498100  12.010000   ; qtot 113.553625
 3513         hx    113    ccc    H12   3513 0.12238100   1.008000   ; qtot 113.676006
 3514         hx    113    ccc    H13   3514 0.12238100   1.008000   ; qtot 113.798387
 3515         c3    113    ccc     C8   3515 -0.20771900  12.010000   ; qtot 113.590668
 3516         hc    113    ccc    H14   3516 0.11463100   1.008000   ; qtot 113.705299
 3517         hc    113    ccc    H15   3517 0.11463100   1.008000   ; qtot 113.819930
 3518          c    113    ccc     C9   3518 0.64078100  12.010000   ; qtot 114.460711
 3519          o    113    ccc     O3   3519 -0.49231900  16.000000   ; qtot 113.968392
 3520         oh    113    ccc     O4   3520 -0.51841900  16.000000   ; qtot 113.449973
 3521         ho    113    ccc    H16   3521 0.45318100   1.008000   ; qtot 113.903154
 3522         os    113    ccc     O5   3522 -0.39491900  16.000000   ; qtot 113.508235
 3523         hn    113    ccc    H17   3523 0.49148100   1.008000   ; qtot 113.999716
; residue  114 ccc rtp ccc q 1.0
 3524         c3    114    ccc     C1   3524 0.14608100  12.010000   ; qtot 114.145797
 3525         h1    114    ccc     H1   3525 0.06738100   1.008000   ; qtot 114.213178
 3526         h1    114    ccc     H2   3526 0.06738100   1.008000   ; qtot 114.280559
 3527         c3    114    ccc     C2   3527 -0.14571900  12.010000   ; qtot 114.134840
 3528         hc    114    ccc     H3   3528 0.08688100   1.008000   ; qtot 114.221721
 3529         hc    114    ccc     H4   3529 0.08688100   1.008000   ; qtot 114.308602
 3530         c3    114    ccc     C3   3530 0.12348100  12.010000   ; qtot 114.432083
 3531         hx    114    ccc     H5   3531 0.10638100   1.008000   ; qtot 114.538464
 3532         hx    114    ccc     H6   3532 0.10638100   1.008000   ; qtot 114.644845
 3533         n4    114    ccc     N1   3533 -0.69071900  14.010000   ; qtot 113.954126
 3534         c3    114    ccc     C4   3534 0.12498100  12.010000   ; qtot 114.079107
 3535         hx    114    ccc     H7   3535 0.12238100   1.008000   ; qtot 114.201488
 3536         hx    114    ccc     H8   3536 0.12238100   1.008000   ; qtot 114.323869
 3537         c3    114    ccc     C5   3537 -0.20771900  12.010000   ; qtot 114.116150
 3538         hc    114    ccc     H9   3538 0.11463100   1.008000   ; qtot 114.230781
 3539         hc    114    ccc    H10   3539 0.11463100   1.008000   ; qtot 114.345412
 3540          c    114    ccc     C6   3540 0.64078100  12.010000   ; qtot 114.986193
 3541          o    114    ccc     O1   3541 -0.49231900  16.000000   ; qtot 114.493874
 3542         oh    114    ccc     O2   3542 -0.51841900  16.000000   ; qtot 113.975455
 3543         ho    114    ccc    H11   3543 0.45318100   1.008000   ; qtot 114.428636
 3544         c3    114    ccc     C7   3544 0.12498100  12.010000   ; qtot 114.553617
 3545         hx    114    ccc    H12   3545 0.12238100   1.008000   ; qtot 114.675998
 3546         hx    114    ccc    H13   3546 0.12238100   1.008000   ; qtot 114.798379
 3547         c3    114    ccc     C8   3547 -0.20771900  12.010000   ; qtot 114.590660
 3548         hc    114    ccc    H14   3548 0.11463100   1.008000   ; qtot 114.705291
 3549         hc    114    ccc    H15   3549 0.11463100   1.008000   ; qtot 114.819922
 3550          c    114    ccc     C9   3550 0.64078100  12.010000   ; qtot 115.460703
 3551          o    114    ccc     O3   3551 -0.49231900  16.000000   ; qtot 114.968384
 3552         oh    114    ccc     O4   3552 -0.51841900  16.000000   ; qtot 114.449965
 3553         ho    114    ccc    H16   3553 0.45318100   1.008000   ; qtot 114.903146
 3554         os    114    ccc     O5   3554 -0.39491900  16.000000   ; qtot 114.508227
 3555         hn    114    ccc    H17   3555 0.49148100   1.008000   ; qtot 114.999708
; residue  115 ccc rtp ccc q 1.0
 3556         c3    115    ccc     C1   3556 0.14608100  12.010000   ; qtot 115.145789
 3557         h1    115    ccc     H1   3557 0.06738100   1.008000   ; qtot 115.213170
 3558         h1    115    ccc     H2   3558 0.06738100   1.008000   ; qtot 115.280551
 3559         c3    115    ccc     C2   3559 -0.14571900  12.010000   ; qtot 115.134832
 3560         hc    115    ccc     H3   3560 0.08688100   1.008000   ; qtot 115.221713
 3561         hc    115    ccc     H4   3561 0.08688100   1.008000   ; qtot 115.308594
 3562         c3    115    ccc     C3   3562 0.12348100  12.010000   ; qtot 115.432075
 3563         hx    115    ccc     H5   3563 0.10638100   1.008000   ; qtot 115.538456
 3564         hx    115    ccc     H6   3564 0.10638100   1.008000   ; qtot 115.644837
 3565         n4    115    ccc     N1   3565 -0.69071900  14.010000   ; qtot 114.954118
 3566         c3    115    ccc     C4   3566 0.12498100  12.010000   ; qtot 115.079099
 3567         hx    115    ccc     H7   3567 0.12238100   1.008000   ; qtot 115.201480
 3568         hx    115    ccc     H8   3568 0.12238100   1.008000   ; qtot 115.323861
 3569         c3    115    ccc     C5   3569 -0.20771900  12.010000   ; qtot 115.116142
 3570         hc    115    ccc     H9   3570 0.11463100   1.008000   ; qtot 115.230773
 3571         hc    115    ccc    H10   3571 0.11463100   1.008000   ; qtot 115.345404
 3572          c    115    ccc     C6   3572 0.64078100  12.010000   ; qtot 115.986185
 3573          o    115    ccc     O1   3573 -0.49231900  16.000000   ; qtot 115.493866
 3574         oh    115    ccc     O2   3574 -0.51841900  16.000000   ; qtot 114.975447
 3575         ho    115    ccc    H11   3575 0.45318100   1.008000   ; qtot 115.428628
 3576         c3    115    ccc     C7   3576 0.12498100  12.010000   ; qtot 115.553609
 3577         hx    115    ccc    H12   3577 0.12238100   1.008000   ; qtot 115.675990
 3578         hx    115    ccc    H13   3578 0.12238100   1.008000   ; qtot 115.798371
 3579         c3    115    ccc     C8   3579 -0.20771900  12.010000   ; qtot 115.590652
 3580         hc    115    ccc    H14   3580 0.11463100   1.008000   ; qtot 115.705283
 3581         hc    115    ccc    H15   3581 0.11463100   1.008000   ; qtot 115.819914
 3582          c    115    ccc     C9   3582 0.64078100  12.010000   ; qtot 116.460695
 3583          o    115    ccc     O3   3583 -0.49231900  16.000000   ; qtot 115.968376
 3584         oh    115    ccc     O4   3584 -0.51841900  16.000000   ; qtot 115.449957
 3585         ho    115    ccc    H16   3585 0.45318100   1.008000   ; qtot 115.903138
 3586         os    115    ccc     O5   3586 -0.39491900  16.000000   ; qtot 115.508219
 3587         hn    115    ccc    H17   3587 0.49148100   1.008000   ; qtot 115.999700
; residue  116 ccc rtp ccc q 1.0
 3588         c3    116    ccc     C1   3588 0.14608100  12.010000   ; qtot 116.145781
 3589         h1    116    ccc     H1   3589 0.06738100   1.008000   ; qtot 116.213162
 3590         h1    116    ccc     H2   3590 0.06738100   1.008000   ; qtot 116.280543
 3591         c3    116    ccc     C2   3591 -0.14571900  12.010000   ; qtot 116.134824
 3592         hc    116    ccc     H3   3592 0.08688100   1.008000   ; qtot 116.221705
 3593         hc    116    ccc     H4   3593 0.08688100   1.008000   ; qtot 116.308586
 3594         c3    116    ccc     C3   3594 0.12348100  12.010000   ; qtot 116.432067
 3595         hx    116    ccc     H5   3595 0.10638100   1.008000   ; qtot 116.538448
 3596         hx    116    ccc     H6   3596 0.10638100   1.008000   ; qtot 116.644829
 3597         n4    116    ccc     N1   3597 -0.69071900  14.010000   ; qtot 115.954110
 3598         c3    116    ccc     C4   3598 0.12498100  12.010000   ; qtot 116.079091
 3599         hx    116    ccc     H7   3599 0.12238100   1.008000   ; qtot 116.201472
 3600         hx    116    ccc     H8   3600 0.12238100   1.008000   ; qtot 116.323853
 3601         c3    116    ccc     C5   3601 -0.20771900  12.010000   ; qtot 116.116134
 3602         hc    116    ccc     H9   3602 0.11463100   1.008000   ; qtot 116.230765
 3603         hc    116    ccc    H10   3603 0.11463100   1.008000   ; qtot 116.345396
 3604          c    116    ccc     C6   3604 0.64078100  12.010000   ; qtot 116.986177
 3605          o    116    ccc     O1   3605 -0.49231900  16.000000   ; qtot 116.493858
 3606         oh    116    ccc     O2   3606 -0.51841900  16.000000   ; qtot 115.975439
 3607         ho    116    ccc    H11   3607 0.45318100   1.008000   ; qtot 116.428620
 3608         c3    116    ccc     C7   3608 0.12498100  12.010000   ; qtot 116.553601
 3609         hx    116    ccc    H12   3609 0.12238100   1.008000   ; qtot 116.675982
 3610         hx    116    ccc    H13   3610 0.12238100   1.008000   ; qtot 116.798363
 3611         c3    116    ccc     C8   3611 -0.20771900  12.010000   ; qtot 116.590644
 3612         hc    116    ccc    H14   3612 0.11463100   1.008000   ; qtot 116.705275
 3613         hc    116    ccc    H15   3613 0.11463100   1.008000   ; qtot 116.819906
 3614          c    116    ccc     C9   3614 0.64078100  12.010000   ; qtot 117.460687
 3615          o    116    ccc     O3   3615 -0.49231900  16.000000   ; qtot 116.968368
 3616         oh    116    ccc     O4   3616 -0.51841900  16.000000   ; qtot 116.449949
 3617         ho    116    ccc    H16   3617 0.45318100   1.008000   ; qtot 116.903130
 3618         os    116    ccc     O5   3618 -0.39491900  16.000000   ; qtot 116.508211
 3619         hn    116    ccc    H17   3619 0.49148100   1.008000   ; qtot 116.999692
; residue  117 ccc rtp ccc q 1.0
 3620         c3    117    ccc     C1   3620 0.14608100  12.010000   ; qtot 117.145773
 3621         h1    117    ccc     H1   3621 0.06738100   1.008000   ; qtot 117.213154
 3622         h1    117    ccc     H2   3622 0.06738100   1.008000   ; qtot 117.280535
 3623         c3    117    ccc     C2   3623 -0.14571900  12.010000   ; qtot 117.134816
 3624         hc    117    ccc     H3   3624 0.08688100   1.008000   ; qtot 117.221697
 3625         hc    117    ccc     H4   3625 0.08688100   1.008000   ; qtot 117.308578
 3626         c3    117    ccc     C3   3626 0.12348100  12.010000   ; qtot 117.432059
 3627         hx    117    ccc     H5   3627 0.10638100   1.008000   ; qtot 117.538440
 3628         hx    117    ccc     H6   3628 0.10638100   1.008000   ; qtot 117.644821
 3629         n4    117    ccc     N1   3629 -0.69071900  14.010000   ; qtot 116.954102
 3630         c3    117    ccc     C4   3630 0.12498100  12.010000   ; qtot 117.079083
 3631         hx    117    ccc     H7   3631 0.12238100   1.008000   ; qtot 117.201464
 3632         hx    117    ccc     H8   3632 0.12238100   1.008000   ; qtot 117.323845
 3633         c3    117    ccc     C5   3633 -0.20771900  12.010000   ; qtot 117.116126
 3634         hc    117    ccc     H9   3634 0.11463100   1.008000   ; qtot 117.230757
 3635         hc    117    ccc    H10   3635 0.11463100   1.008000   ; qtot 117.345388
 3636          c    117    ccc     C6   3636 0.64078100  12.010000   ; qtot 117.986169
 3637          o    117    ccc     O1   3637 -0.49231900  16.000000   ; qtot 117.493850
 3638         oh    117    ccc     O2   3638 -0.51841900  16.000000   ; qtot 116.975431
 3639         ho    117    ccc    H11   3639 0.45318100   1.008000   ; qtot 117.428612
 3640         c3    117    ccc     C7   3640 0.12498100  12.010000   ; qtot 117.553593
 3641         hx    117    ccc    H12   3641 0.12238100   1.008000   ; qtot 117.675974
 3642         hx    117    ccc    H13   3642 0.12238100   1.008000   ; qtot 117.798355
 3643         c3    117    ccc     C8   3643 -0.20771900  12.010000   ; qtot 117.590636
 3644         hc    117    ccc    H14   3644 0.11463100   1.008000   ; qtot 117.705267
 3645         hc    117    ccc    H15   3645 0.11463100   1.008000   ; qtot 117.819898
 3646          c    117    ccc     C9   3646 0.64078100  12.010000   ; qtot 118.460679
 3647          o    117    ccc     O3   3647 -0.49231900  16.000000   ; qtot 117.968360
 3648         oh    117    ccc     O4   3648 -0.51841900  16.000000   ; qtot 117.449941
 3649         ho    117    ccc    H16   3649 0.45318100   1.008000   ; qtot 117.903122
 3650         os    117    ccc     O5   3650 -0.39491900  16.000000   ; qtot 117.508203
 3651         hn    117    ccc    H17   3651 0.49148100   1.008000   ; qtot 117.999684
; residue  118 ccc rtp ccc q 1.0
 3652         c3    118    ccc     C1   3652 0.14608100  12.010000   ; qtot 118.145765
 3653         h1    118    ccc     H1   3653 0.06738100   1.008000   ; qtot 118.213146
 3654         h1    118    ccc     H2   3654 0.06738100   1.008000   ; qtot 118.280527
 3655         c3    118    ccc     C2   3655 -0.14571900  12.010000   ; qtot 118.134808
 3656         hc    118    ccc     H3   3656 0.08688100   1.008000   ; qtot 118.221689
 3657         hc    118    ccc     H4   3657 0.08688100   1.008000   ; qtot 118.308570
 3658         c3    118    ccc     C3   3658 0.12348100  12.010000   ; qtot 118.432051
 3659         hx    118    ccc     H5   3659 0.10638100   1.008000   ; qtot 118.538432
 3660         hx    118    ccc     H6   3660 0.10638100   1.008000   ; qtot 118.644813
 3661         n4    118    ccc     N1   3661 -0.69071900  14.010000   ; qtot 117.954094
 3662         c3    118    ccc     C4   3662 0.12498100  12.010000   ; qtot 118.079075
 3663         hx    118    ccc     H7   3663 0.12238100   1.008000   ; qtot 118.201456
 3664         hx    118    ccc     H8   3664 0.12238100   1.008000   ; qtot 118.323837
 3665         c3    118    ccc     C5   3665 -0.20771900  12.010000   ; qtot 118.116118
 3666         hc    118    ccc     H9   3666 0.11463100   1.008000   ; qtot 118.230749
 3667         hc    118    ccc    H10   3667 0.11463100   1.008000   ; qtot 118.345380
 3668          c    118    ccc     C6   3668 0.64078100  12.010000   ; qtot 118.986161
 3669          o    118    ccc     O1   3669 -0.49231900  16.000000   ; qtot 118.493842
 3670         oh    118    ccc     O2   3670 -0.51841900  16.000000   ; qtot 117.975423
 3671         ho    118    ccc    H11   3671 0.45318100   1.008000   ; qtot 118.428604
 3672         c3    118    ccc     C7   3672 0.12498100  12.010000   ; qtot 118.553585
 3673         hx    118    ccc    H12   3673 0.12238100   1.008000   ; qtot 118.675966
 3674         hx    118    ccc    H13   3674 0.12238100   1.008000   ; qtot 118.798347
 3675         c3    118    ccc     C8   3675 -0.20771900  12.010000   ; qtot 118.590628
 3676         hc    118    ccc    H14   3676 0.11463100   1.008000   ; qtot 118.705259
 3677         hc    118    ccc    H15   3677 0.11463100   1.008000   ; qtot 118.819890
 3678          c    118    ccc     C9   3678 0.64078100  12.010000   ; qtot 119.460671
 3679          o    118    ccc     O3   3679 -0.49231900  16.000000   ; qtot 118.968352
 3680         oh    118    ccc     O4   3680 -0.51841900  16.000000   ; qtot 118.449933
 3681         ho    118    ccc    H16   3681 0.45318100   1.008000   ; qtot 118.903114
 3682         os    118    ccc     O5   3682 -0.39491900  16.000000   ; qtot 118.508195
 3683         hn    118    ccc    H17   3683 0.49148100   1.008000   ; qtot 118.999676
; residue  119 ccc rtp ccc q 1.0
 3684         c3    119    ccc     C1   3684 0.14608100  12.010000   ; qtot 119.145757
 3685         h1    119    ccc     H1   3685 0.06738100   1.008000   ; qtot 119.213138
 3686         h1    119    ccc     H2   3686 0.06738100   1.008000   ; qtot 119.280519
 3687         c3    119    ccc     C2   3687 -0.14571900  12.010000   ; qtot 119.134800
 3688         hc    119    ccc     H3   3688 0.08688100   1.008000   ; qtot 119.221681
 3689         hc    119    ccc     H4   3689 0.08688100   1.008000   ; qtot 119.308562
 3690         c3    119    ccc     C3   3690 0.12348100  12.010000   ; qtot 119.432043
 3691         hx    119    ccc     H5   3691 0.10638100   1.008000   ; qtot 119.538424
 3692         hx    119    ccc     H6   3692 0.10638100   1.008000   ; qtot 119.644805
 3693         n4    119    ccc     N1   3693 -0.69071900  14.010000   ; qtot 118.954086
 3694         c3    119    ccc     C4   3694 0.12498100  12.010000   ; qtot 119.079067
 3695         hx    119    ccc     H7   3695 0.12238100   1.008000   ; qtot 119.201448
 3696         hx    119    ccc     H8   3696 0.12238100   1.008000   ; qtot 119.323829
 3697         c3    119    ccc     C5   3697 -0.20771900  12.010000   ; qtot 119.116110
 3698         hc    119    ccc     H9   3698 0.11463100   1.008000   ; qtot 119.230741
 3699         hc    119    ccc    H10   3699 0.11463100   1.008000   ; qtot 119.345372
 3700          c    119    ccc     C6   3700 0.64078100  12.010000   ; qtot 119.986153
 3701          o    119    ccc     O1   3701 -0.49231900  16.000000   ; qtot 119.493834
 3702         oh    119    ccc     O2   3702 -0.51841900  16.000000   ; qtot 118.975415
 3703         ho    119    ccc    H11   3703 0.45318100   1.008000   ; qtot 119.428596
 3704         c3    119    ccc     C7   3704 0.12498100  12.010000   ; qtot 119.553577
 3705         hx    119    ccc    H12   3705 0.12238100   1.008000   ; qtot 119.675958
 3706         hx    119    ccc    H13   3706 0.12238100   1.008000   ; qtot 119.798339
 3707         c3    119    ccc     C8   3707 -0.20771900  12.010000   ; qtot 119.590620
 3708         hc    119    ccc    H14   3708 0.11463100   1.008000   ; qtot 119.705251
 3709         hc    119    ccc    H15   3709 0.11463100   1.008000   ; qtot 119.819882
 3710          c    119    ccc     C9   3710 0.64078100  12.010000   ; qtot 120.460663
 3711          o    119    ccc     O3   3711 -0.49231900  16.000000   ; qtot 119.968344
 3712         oh    119    ccc     O4   3712 -0.51841900  16.000000   ; qtot 119.449925
 3713         ho    119    ccc    H16   3713 0.45318100   1.008000   ; qtot 119.903106
 3714         os    119    ccc     O5   3714 -0.39491900  16.000000   ; qtot 119.508187
 3715         hn    119    ccc    H17   3715 0.49148100   1.008000   ; qtot 119.999668
; residue  120 ccc rtp ccc q 1.0
 3716         c3    120    ccc     C1   3716 0.14608100  12.010000   ; qtot 120.145749
 3717         h1    120    ccc     H1   3717 0.06738100   1.008000   ; qtot 120.213130
 3718         h1    120    ccc     H2   3718 0.06738100   1.008000   ; qtot 120.280511
 3719         c3    120    ccc     C2   3719 -0.14571900  12.010000   ; qtot 120.134792
 3720         hc    120    ccc     H3   3720 0.08688100   1.008000   ; qtot 120.221673
 3721         hc    120    ccc     H4   3721 0.08688100   1.008000   ; qtot 120.308554
 3722         c3    120    ccc     C3   3722 0.12348100  12.010000   ; qtot 120.432035
 3723         hx    120    ccc     H5   3723 0.10638100   1.008000   ; qtot 120.538416
 3724         hx    120    ccc     H6   3724 0.10638100   1.008000   ; qtot 120.644797
 3725         n4    120    ccc     N1   3725 -0.69071900  14.010000   ; qtot 119.954078
 3726         c3    120    ccc     C4   3726 0.12498100  12.010000   ; qtot 120.079059
 3727         hx    120    ccc     H7   3727 0.12238100   1.008000   ; qtot 120.201440
 3728         hx    120    ccc     H8   3728 0.12238100   1.008000   ; qtot 120.323821
 3729         c3    120    ccc     C5   3729 -0.20771900  12.010000   ; qtot 120.116102
 3730         hc    120    ccc     H9   3730 0.11463100   1.008000   ; qtot 120.230733
 3731         hc    120    ccc    H10   3731 0.11463100   1.008000   ; qtot 120.345364
 3732          c    120    ccc     C6   3732 0.64078100  12.010000   ; qtot 120.986145
 3733          o    120    ccc     O1   3733 -0.49231900  16.000000   ; qtot 120.493826
 3734         oh    120    ccc     O2   3734 -0.51841900  16.000000   ; qtot 119.975407
 3735         ho    120    ccc    H11   3735 0.45318100   1.008000   ; qtot 120.428588
 3736         c3    120    ccc     C7   3736 0.12498100  12.010000   ; qtot 120.553569
 3737         hx    120    ccc    H12   3737 0.12238100   1.008000   ; qtot 120.675950
 3738         hx    120    ccc    H13   3738 0.12238100   1.008000   ; qtot 120.798331
 3739         c3    120    ccc     C8   3739 -0.20771900  12.010000   ; qtot 120.590612
 3740         hc    120    ccc    H14   3740 0.11463100   1.008000   ; qtot 120.705243
 3741         hc    120    ccc    H15   3741 0.11463100   1.008000   ; qtot 120.819874
 3742          c    120    ccc     C9   3742 0.64078100  12.010000   ; qtot 121.460655
 3743          o    120    ccc     O3   3743 -0.49231900  16.000000   ; qtot 120.968336
 3744         oh    120    ccc     O4   3744 -0.51841900  16.000000   ; qtot 120.449917
 3745         ho    120    ccc    H16   3745 0.45318100   1.008000   ; qtot 120.903098
 3746         os    120    ccc     O5   3746 -0.39491900  16.000000   ; qtot 120.508179
 3747         hn    120    ccc    H17   3747 0.49148100   1.008000   ; qtot 120.999660
; residue  121 ccc rtp ccc q 1.0
 3748         c3    121    ccc     C1   3748 0.14608100  12.010000   ; qtot 121.145741
 3749         h1    121    ccc     H1   3749 0.06738100   1.008000   ; qtot 121.213122
 3750         h1    121    ccc     H2   3750 0.06738100   1.008000   ; qtot 121.280503
 3751         c3    121    ccc     C2   3751 -0.14571900  12.010000   ; qtot 121.134784
 3752         hc    121    ccc     H3   3752 0.08688100   1.008000   ; qtot 121.221665
 3753         hc    121    ccc     H4   3753 0.08688100   1.008000   ; qtot 121.308546
 3754         c3    121    ccc     C3   3754 0.12348100  12.010000   ; qtot 121.432027
 3755         hx    121    ccc     H5   3755 0.10638100   1.008000   ; qtot 121.538408
 3756         hx    121    ccc     H6   3756 0.10638100   1.008000   ; qtot 121.644789
 3757         n4    121    ccc     N1   3757 -0.69071900  14.010000   ; qtot 120.954070
 3758         c3    121    ccc     C4   3758 0.12498100  12.010000   ; qtot 121.079051
 3759         hx    121    ccc     H7   3759 0.12238100   1.008000   ; qtot 121.201432
 3760         hx    121    ccc     H8   3760 0.12238100   1.008000   ; qtot 121.323813
 3761         c3    121    ccc     C5   3761 -0.20771900  12.010000   ; qtot 121.116094
 3762         hc    121    ccc     H9   3762 0.11463100   1.008000   ; qtot 121.230725
 3763         hc    121    ccc    H10   3763 0.11463100   1.008000   ; qtot 121.345356
 3764          c    121    ccc     C6   3764 0.64078100  12.010000   ; qtot 121.986137
 3765          o    121    ccc     O1   3765 -0.49231900  16.000000   ; qtot 121.493818
 3766         oh    121    ccc     O2   3766 -0.51841900  16.000000   ; qtot 120.975399
 3767         ho    121    ccc    H11   3767 0.45318100   1.008000   ; qtot 121.428580
 3768         c3    121    ccc     C7   3768 0.12498100  12.010000   ; qtot 121.553561
 3769         hx    121    ccc    H12   3769 0.12238100   1.008000   ; qtot 121.675942
 3770         hx    121    ccc    H13   3770 0.12238100   1.008000   ; qtot 121.798323
 3771         c3    121    ccc     C8   3771 -0.20771900  12.010000   ; qtot 121.590604
 3772         hc    121    ccc    H14   3772 0.11463100   1.008000   ; qtot 121.705235
 3773         hc    121    ccc    H15   3773 0.11463100   1.008000   ; qtot 121.819866
 3774          c    121    ccc     C9   3774 0.64078100  12.010000   ; qtot 122.460647
 3775          o    121    ccc     O3   3775 -0.49231900  16.000000   ; qtot 121.968328
 3776         oh    121    ccc     O4   3776 -0.51841900  16.000000   ; qtot 121.449909
 3777         ho    121    ccc    H16   3777 0.45318100   1.008000   ; qtot 121.903090
 3778         os    121    ccc     O5   3778 -0.39491900  16.000000   ; qtot 121.508171
 3779         hn    121    ccc    H17   3779 0.49148100   1.008000   ; qtot 121.999652
; residue  122 ccc rtp ccc q 1.0
 3780         c3    122    ccc     C1   3780 0.14608100  12.010000   ; qtot 122.145733
 3781         h1    122    ccc     H1   3781 0.06738100   1.008000   ; qtot 122.213114
 3782         h1    122    ccc     H2   3782 0.06738100   1.008000   ; qtot 122.280495
 3783         c3    122    ccc     C2   3783 -0.14571900  12.010000   ; qtot 122.134776
 3784         hc    122    ccc     H3   3784 0.08688100   1.008000   ; qtot 122.221657
 3785         hc    122    ccc     H4   3785 0.08688100   1.008000   ; qtot 122.308538
 3786         c3    122    ccc     C3   3786 0.12348100  12.010000   ; qtot 122.432019
 3787         hx    122    ccc     H5   3787 0.10638100   1.008000   ; qtot 122.538400
 3788         hx    122    ccc     H6   3788 0.10638100   1.008000   ; qtot 122.644781
 3789         n4    122    ccc     N1   3789 -0.69071900  14.010000   ; qtot 121.954062
 3790         c3    122    ccc     C4   3790 0.12498100  12.010000   ; qtot 122.079043
 3791         hx    122    ccc     H7   3791 0.12238100   1.008000   ; qtot 122.201424
 3792         hx    122    ccc     H8   3792 0.12238100   1.008000   ; qtot 122.323805
 3793         c3    122    ccc     C5   3793 -0.20771900  12.010000   ; qtot 122.116086
 3794         hc    122    ccc     H9   3794 0.11463100   1.008000   ; qtot 122.230717
 3795         hc    122    ccc    H10   3795 0.11463100   1.008000   ; qtot 122.345348
 3796          c    122    ccc     C6   3796 0.64078100  12.010000   ; qtot 122.986129
 3797          o    122    ccc     O1   3797 -0.49231900  16.000000   ; qtot 122.493810
 3798         oh    122    ccc     O2   3798 -0.51841900  16.000000   ; qtot 121.975391
 3799         ho    122    ccc    H11   3799 0.45318100   1.008000   ; qtot 122.428572
 3800         c3    122    ccc     C7   3800 0.12498100  12.010000   ; qtot 122.553553
 3801         hx    122    ccc    H12   3801 0.12238100   1.008000   ; qtot 122.675934
 3802         hx    122    ccc    H13   3802 0.12238100   1.008000   ; qtot 122.798315
 3803         c3    122    ccc     C8   3803 -0.20771900  12.010000   ; qtot 122.590596
 3804         hc    122    ccc    H14   3804 0.11463100   1.008000   ; qtot 122.705227
 3805         hc    122    ccc    H15   3805 0.11463100   1.008000   ; qtot 122.819858
 3806          c    122    ccc     C9   3806 0.64078100  12.010000   ; qtot 123.460639
 3807          o    122    ccc     O3   3807 -0.49231900  16.000000   ; qtot 122.968320
 3808         oh    122    ccc     O4   3808 -0.51841900  16.000000   ; qtot 122.449901
 3809         ho    122    ccc    H16   3809 0.45318100   1.008000   ; qtot 122.903082
 3810         os    122    ccc     O5   3810 -0.39491900  16.000000   ; qtot 122.508163
 3811         hn    122    ccc    H17   3811 0.49148100   1.008000   ; qtot 122.999644
; residue  123 ccc rtp ccc q 1.0
 3812         c3    123    ccc     C1   3812 0.14608100  12.010000   ; qtot 123.145725
 3813         h1    123    ccc     H1   3813 0.06738100   1.008000   ; qtot 123.213106
 3814         h1    123    ccc     H2   3814 0.06738100   1.008000   ; qtot 123.280487
 3815         c3    123    ccc     C2   3815 -0.14571900  12.010000   ; qtot 123.134768
 3816         hc    123    ccc     H3   3816 0.08688100   1.008000   ; qtot 123.221649
 3817         hc    123    ccc     H4   3817 0.08688100   1.008000   ; qtot 123.308530
 3818         c3    123    ccc     C3   3818 0.12348100  12.010000   ; qtot 123.432011
 3819         hx    123    ccc     H5   3819 0.10638100   1.008000   ; qtot 123.538392
 3820         hx    123    ccc     H6   3820 0.10638100   1.008000   ; qtot 123.644773
 3821         n4    123    ccc     N1   3821 -0.69071900  14.010000   ; qtot 122.954054
 3822         c3    123    ccc     C4   3822 0.12498100  12.010000   ; qtot 123.079035
 3823         hx    123    ccc     H7   3823 0.12238100   1.008000   ; qtot 123.201416
 3824         hx    123    ccc     H8   3824 0.12238100   1.008000   ; qtot 123.323797
 3825         c3    123    ccc     C5   3825 -0.20771900  12.010000   ; qtot 123.116078
 3826         hc    123    ccc     H9   3826 0.11463100   1.008000   ; qtot 123.230709
 3827         hc    123    ccc    H10   3827 0.11463100   1.008000   ; qtot 123.345340
 3828          c    123    ccc     C6   3828 0.64078100  12.010000   ; qtot 123.986121
 3829          o    123    ccc     O1   3829 -0.49231900  16.000000   ; qtot 123.493802
 3830         oh    123    ccc     O2   3830 -0.51841900  16.000000   ; qtot 122.975383
 3831         ho    123    ccc    H11   3831 0.45318100   1.008000   ; qtot 123.428564
 3832         c3    123    ccc     C7   3832 0.12498100  12.010000   ; qtot 123.553545
 3833         hx    123    ccc    H12   3833 0.12238100   1.008000   ; qtot 123.675926
 3834         hx    123    ccc    H13   3834 0.12238100   1.008000   ; qtot 123.798307
 3835         c3    123    ccc     C8   3835 -0.20771900  12.010000   ; qtot 123.590588
 3836         hc    123    ccc    H14   3836 0.11463100   1.008000   ; qtot 123.705219
 3837         hc    123    ccc    H15   3837 0.11463100   1.008000   ; qtot 123.819850
 3838          c    123    ccc     C9   3838 0.64078100  12.010000   ; qtot 124.460631
 3839          o    123    ccc     O3   3839 -0.49231900  16.000000   ; qtot 123.968312
 3840         oh    123    ccc     O4   3840 -0.51841900  16.000000   ; qtot 123.449893
 3841         ho    123    ccc    H16   3841 0.45318100   1.008000   ; qtot 123.903074
 3842         os    123    ccc     O5   3842 -0.39491900  16.000000   ; qtot 123.508155
 3843         hn    123    ccc    H17   3843 0.49148100   1.008000   ; qtot 123.999636
; residue  124 ccc rtp ccc q 1.0
 3844         c3    124    ccc     C1   3844 0.14608100  12.010000   ; qtot 124.145717
 3845         h1    124    ccc     H1   3845 0.06738100   1.008000   ; qtot 124.213098
 3846         h1    124    ccc     H2   3846 0.06738100   1.008000   ; qtot 124.280479
 3847         c3    124    ccc     C2   3847 -0.14571900  12.010000   ; qtot 124.134760
 3848         hc    124    ccc     H3   3848 0.08688100   1.008000   ; qtot 124.221641
 3849         hc    124    ccc     H4   3849 0.08688100   1.008000   ; qtot 124.308522
 3850         c3    124    ccc     C3   3850 0.12348100  12.010000   ; qtot 124.432003
 3851         hx    124    ccc     H5   3851 0.10638100   1.008000   ; qtot 124.538384
 3852         hx    124    ccc     H6   3852 0.10638100   1.008000   ; qtot 124.644765
 3853         n4    124    ccc     N1   3853 -0.69071900  14.010000   ; qtot 123.954046
 3854         c3    124    ccc     C4   3854 0.12498100  12.010000   ; qtot 124.079027
 3855         hx    124    ccc     H7   3855 0.12238100   1.008000   ; qtot 124.201408
 3856         hx    124    ccc     H8   3856 0.12238100   1.008000   ; qtot 124.323789
 3857         c3    124    ccc     C5   3857 -0.20771900  12.010000   ; qtot 124.116070
 3858         hc    124    ccc     H9   3858 0.11463100   1.008000   ; qtot 124.230701
 3859         hc    124    ccc    H10   3859 0.11463100   1.008000   ; qtot 124.345332
 3860          c    124    ccc     C6   3860 0.64078100  12.010000   ; qtot 124.986113
 3861          o    124    ccc     O1   3861 -0.49231900  16.000000   ; qtot 124.493794
 3862         oh    124    ccc     O2   3862 -0.51841900  16.000000   ; qtot 123.975375
 3863         ho    124    ccc    H11   3863 0.45318100   1.008000   ; qtot 124.428556
 3864         c3    124    ccc     C7   3864 0.12498100  12.010000   ; qtot 124.553537
 3865         hx    124    ccc    H12   3865 0.12238100   1.008000   ; qtot 124.675918
 3866         hx    124    ccc    H13   3866 0.12238100   1.008000   ; qtot 124.798299
 3867         c3    124    ccc     C8   3867 -0.20771900  12.010000   ; qtot 124.590580
 3868         hc    124    ccc    H14   3868 0.11463100   1.008000   ; qtot 124.705211
 3869         hc    124    ccc    H15   3869 0.11463100   1.008000   ; qtot 124.819842
 3870          c    124    ccc     C9   3870 0.64078100  12.010000   ; qtot 125.460623
 3871          o    124    ccc     O3   3871 -0.49231900  16.000000   ; qtot 124.968304
 3872         oh    124    ccc     O4   3872 -0.51841900  16.000000   ; qtot 124.449885
 3873         ho    124    ccc    H16   3873 0.45318100   1.008000   ; qtot 124.903066
 3874         os    124    ccc     O5   3874 -0.39491900  16.000000   ; qtot 124.508147
 3875         hn    124    ccc    H17   3875 0.49148100   1.008000   ; qtot 124.999628
; residue  125 ccc rtp ccc q 1.0
 3876         c3    125    ccc     C1   3876 0.14608100  12.010000   ; qtot 125.145709
 3877         h1    125    ccc     H1   3877 0.06738100   1.008000   ; qtot 125.213090
 3878         h1    125    ccc     H2   3878 0.06738100   1.008000   ; qtot 125.280471
 3879         c3    125    ccc     C2   3879 -0.14571900  12.010000   ; qtot 125.134752
 3880         hc    125    ccc     H3   3880 0.08688100   1.008000   ; qtot 125.221633
 3881         hc    125    ccc     H4   3881 0.08688100   1.008000   ; qtot 125.308514
 3882         c3    125    ccc     C3   3882 0.12348100  12.010000   ; qtot 125.431995
 3883         hx    125    ccc     H5   3883 0.10638100   1.008000   ; qtot 125.538376
 3884         hx    125    ccc     H6   3884 0.10638100   1.008000   ; qtot 125.644757
 3885         n4    125    ccc     N1   3885 -0.69071900  14.010000   ; qtot 124.954038
 3886         c3    125    ccc     C4   3886 0.12498100  12.010000   ; qtot 125.079019
 3887         hx    125    ccc     H7   3887 0.12238100   1.008000   ; qtot 125.201400
 3888         hx    125    ccc     H8   3888 0.12238100   1.008000   ; qtot 125.323781
 3889         c3    125    ccc     C5   3889 -0.20771900  12.010000   ; qtot 125.116062
 3890         hc    125    ccc     H9   3890 0.11463100   1.008000   ; qtot 125.230693
 3891         hc    125    ccc    H10   3891 0.11463100   1.008000   ; qtot 125.345324
 3892          c    125    ccc     C6   3892 0.64078100  12.010000   ; qtot 125.986105
 3893          o    125    ccc     O1   3893 -0.49231900  16.000000   ; qtot 125.493786
 3894         oh    125    ccc     O2   3894 -0.51841900  16.000000   ; qtot 124.975367
 3895         ho    125    ccc    H11   3895 0.45318100   1.008000   ; qtot 125.428548
 3896         c3    125    ccc     C7   3896 0.12498100  12.010000   ; qtot 125.553529
 3897         hx    125    ccc    H12   3897 0.12238100   1.008000   ; qtot 125.675910
 3898         hx    125    ccc    H13   3898 0.12238100   1.008000   ; qtot 125.798291
 3899         c3    125    ccc     C8   3899 -0.20771900  12.010000   ; qtot 125.590572
 3900         hc    125    ccc    H14   3900 0.11463100   1.008000   ; qtot 125.705203
 3901         hc    125    ccc    H15   3901 0.11463100   1.008000   ; qtot 125.819834
 3902          c    125    ccc     C9   3902 0.64078100  12.010000   ; qtot 126.460615
 3903          o    125    ccc     O3   3903 -0.49231900  16.000000   ; qtot 125.968296
 3904         oh    125    ccc     O4   3904 -0.51841900  16.000000   ; qtot 125.449877
 3905         ho    125    ccc    H16   3905 0.45318100   1.008000   ; qtot 125.903058
 3906         os    125    ccc     O5   3906 -0.39491900  16.000000   ; qtot 125.508139
 3907         hn    125    ccc    H17   3907 0.49148100   1.008000   ; qtot 125.999620

[ bonds ]
;    ai     aj funct         c0         c1         c2         c3
      1      2     1   0.14316 258236.480000
      1      5     1   0.14316 258236.480000
      2      8     1   0.15375 251793.120000
      5     11     1   0.15375 251793.120000
      8     14     1   0.15375 251793.120000
     11     17     1   0.15375 251793.120000
     14     20     1   0.15110 237065.440000
     17     21     1   0.15110 237065.440000
     20     28     1   0.15110 237065.440000
     20     31     1   0.15110 237065.440000
     21     22     1   0.15110 237065.440000
     21     25     1   0.15110 237065.440000
     22     34     1   0.15375 251793.120000
     25     37     1   0.15375 251793.120000
     28     40     1   0.15375 251793.120000
     31     43     1   0.15375 251793.120000
     34     55     1   0.15375 251793.120000
     37     52     1   0.15375 251793.120000
     40     49     1   0.15375 251793.120000
     43     46     1   0.15375 251793.120000
     46     88     1   0.14316 258236.480000
     49    118     1   0.14316 258236.480000
     52    148     1   0.14316 258236.480000
     55    178     1   0.14316 258236.480000
     60     61     1   0.15110 237065.440000
     60     64     1   0.15110 237065.440000
     60     67     1   0.15110 237065.440000
     61     73     1   0.15375 251793.120000
     64     76     1   0.15375 251793.120000
     67     70     1   0.15375 251793.120000
     70     79     1   0.15375 251793.120000
     73     85     1   0.15375 251793.120000
     76     82     1   0.15375 251793.120000
     79     88     1   0.14316 258236.480000
     82    208     1   0.14316 258236.480000
     85    238     1   0.14316 258236.480000
     90     91     1   0.15110 237065.440000
     90     94     1   0.15110 237065.440000
     90     97     1   0.15110 237065.440000
     91    103     1   0.15375 251793.120000
     94    106     1   0.15375 251793.120000
     97    100     1   0.15375 251793.120000
    100    109     1   0.15375 251793.120000
    103    115     1   0.15375 251793.120000
    106    112     1   0.15375 251793.120000
    109    118     1   0.14316 258236.480000
    112    268     1   0.14316 258236.480000
    115    298     1   0.14316 258236.480000
    120    121     1   0.15110 237065.440000
    120    124     1   0.15110 237065.440000
    120    127     1   0.15110 237065.440000
    121    133     1   0.15375 251793.120000
    124    136     1   0.15375 251793.120000
    127    130     1   0.15375 251793.120000
    130    139     1   0.15375 251793.120000
    133    145     1   0.15375 251793.120000
    136    142     1   0.15375 251793.120000
    139    148     1   0.14316 258236.480000
    142    328     1   0.14316 258236.480000
    145    358     1   0.14316 258236.480000
    150    151     1   0.15110 237065.440000
    150    154     1   0.15110 237065.440000
    150    157     1   0.15110 237065.440000
    151    163     1   0.15375 251793.120000
    154    166     1   0.15375 251793.120000
    157    160     1   0.15375 251793.120000
    160    169     1   0.15375 251793.120000
    163    175     1   0.15375 251793.120000
    166    172     1   0.15375 251793.120000
    169    178     1   0.14316 258236.480000
    172    388     1   0.14316 258236.480000
    175    418     1   0.14316 258236.480000
    180    181     1   0.15110 237065.440000
    180    184     1   0.15110 237065.440000
    180    187     1   0.15110 237065.440000
    181    193     1   0.15375 251793.120000
    184    196     1   0.15375 251793.120000
    187    190     1   0.15375 251793.120000
    190    199     1   0.15375 251793.120000
    193    205     1   0.15375 251793.120000
    196    202     1   0.15375 251793.120000
    199    208     1   0.14316 258236.480000
    202    448     1   0.14316 258236.480000
    205    478     1   0.14316 258236.480000
    210    211     1   0.15110 237065.440000
    210    214     1   0.15110 237065.440000
    210    217     1   0.15110 237065.440000
    211    223     1   0.15375 251793.120000
    214    226     1   0.15375 251793.120000
    217    220     1   0.15375 251793.120000
    220    229     1   0.15375 251793.120000
    223    235     1   0.15375 251793.120000
    226    232     1   0.15375 251793.120000
    229    238     1   0.14316 258236.480000
    232    508     1   0.14316 258236.480000
    235    538     1   0.14316 258236.480000
    240    241     1   0.15110 237065.440000
    240    244     1   0.15110 237065.440000
    240    247     1   0.15110 237065.440000
    241    253     1   0.15375 251793.120000
    244    256     1   0.15375 251793.120000
    247    250     1   0.15375 251793.120000
    250    259     1   0.15375 251793.120000
    253    265     1   0.15375 251793.120000
    256    262     1   0.15375 251793.120000
    259    268     1   0.14316 258236.480000
    262    568     1   0.14316 258236.480000
    265    598     1   0.14316 258236.480000
    270    271     1   0.15110 237065.440000
    270    274     1   0.15110 237065.440000
    270    277     1   0.15110 237065.440000
    271    283     1   0.15375 251793.120000
    274    286     1   0.15375 251793.120000
    277    280     1   0.15375 251793.120000
    280    289     1   0.15375 251793.120000
    283    295     1   0.15375 251793.120000
    286    292     1   0.15375 251793.120000
    289    298     1   0.14316 258236.480000
    292    628     1   0.14316 258236.480000
    295    658     1   0.14316 258236.480000
    300    301     1   0.15110 237065.440000
    300    304     1   0.15110 237065.440000
    300    307     1   0.15110 237065.440000
    301    313     1   0.15375 251793.120000
    304    316     1   0.15375 251793.120000
    307    310     1   0.15375 251793.120000
    310    319     1   0.15375 251793.120000
    313    325     1   0.15375 251793.120000
    316    322     1   0.15375 251793.120000
    319    328     1   0.14316 258236.480000
    322    688     1   0.14316 258236.480000
    325    718     1   0.14316 258236.480000
    330    331     1   0.15110 237065.440000
    330    334     1   0.15110 237065.440000
    330    337     1   0.15110 237065.440000
    331    343     1   0.15375 251793.120000
    334    346     1   0.15375 251793.120000
    337    340     1   0.15375 251793.120000
    340    349     1   0.15375 251793.120000
    343    355     1   0.15375 251793.120000
    346    352     1   0.15375 251793.120000
    349    358     1   0.14316 258236.480000
    352    748     1   0.14316 258236.480000
    355    778     1   0.14316 258236.480000
    360    361     1   0.15110 237065.440000
    360    364     1   0.15110 237065.440000
    360    367     1   0.15110 237065.440000
    361    373     1   0.15375 251793.120000
    364    376     1   0.15375 251793.120000
    367    370     1   0.15375 251793.120000
    370    379     1   0.15375 251793.120000
    373    385     1   0.15375 251793.120000
    376    382     1   0.15375 251793.120000
    379    388     1   0.14316 258236.480000
    382    808     1   0.14316 258236.480000
    385    838     1   0.14316 258236.480000
    390    391     1   0.15110 237065.440000
    390    394     1   0.15110 237065.440000
    390    397     1   0.15110 237065.440000
    391    403     1   0.15375 251793.120000
    394    406     1   0.15375 251793.120000
    397    400     1   0.15375 251793.120000
    400    409     1   0.15375 251793.120000
    403    415     1   0.15375 251793.120000
    406    412     1   0.15375 251793.120000
    409    418     1   0.14316 258236.480000
    412    868     1   0.14316 258236.480000
    415    898     1   0.14316 258236.480000
    420    421     1   0.15110 237065.440000
    420    424     1   0.15110 237065.440000
    420    427     1   0.15110 237065.440000
    421    433     1   0.15375 251793.120000
    424    436     1   0.15375 251793.120000
    427    430     1   0.15375 251793.120000
    430    439     1   0.15375 251793.120000
    433    445     1   0.15375 251793.120000
    436    442     1   0.15375 251793.120000
    439    448     1   0.14316 258236.480000
    442    928     1   0.14316 258236.480000
    445    958     1   0.14316 258236.480000
    450    451     1   0.15110 237065.440000
    450    454     1   0.15110 237065.440000
    450    457     1   0.15110 237065.440000
    451    463     1   0.15375 251793.120000
    454    466     1   0.15375 251793.120000
    457    460     1   0.15375 251793.120000
    460    469     1   0.15375 251793.120000
    463    475     1   0.15375 251793.120000
    466    472     1   0.15375 251793.120000
    469    478     1   0.14316 258236.480000
    472    988     1   0.14316 258236.480000
    475   1018     1   0.14316 258236.480000
    480    481     1   0.15110 237065.440000
    480    484     1   0.15110 237065.440000
    480    487     1   0.15110 237065.440000
    481    493     1   0.15375 251793.120000
    484    496     1   0.15375 251793.120000
    487    490     1   0.15375 251793.120000
    490    499     1   0.15375 251793.120000
    493    505     1   0.15375 251793.120000
    496    502     1   0.15375 251793.120000
    499    508     1   0.14316 258236.480000
    502   1048     1   0.14316 258236.480000
    505   1078     1   0.14316 258236.480000
    510    511     1   0.15110 237065.440000
    510    514     1   0.15110 237065.440000
    510    517     1   0.15110 237065.440000
    511    523     1   0.15375 251793.120000
    514    526     1   0.15375 251793.120000
    517    520     1   0.15375 251793.120000
    520    529     1   0.15375 251793.120000
    523    535     1   0.15375 251793.120000
    526    532     1   0.15375 251793.120000
    529    538     1   0.14316 258236.480000
    532   1108     1   0.14316 258236.480000
    535   1138     1   0.14316 258236.480000
    540    541     1   0.15110 237065.440000
    540    544     1   0.15110 237065.440000
    540    547     1   0.15110 237065.440000
    541    553     1   0.15375 251793.120000
    544    556     1   0.15375 251793.120000
    547    550     1   0.15375 251793.120000
    550    559     1   0.15375 251793.120000
    553    565     1   0.15375 251793.120000
    556    562     1   0.15375 251793.120000
    559    568     1   0.14316 258236.480000
    562   1168     1   0.14316 258236.480000
    565   1198     1   0.14316 258236.480000
    570    571     1   0.15110 237065.440000
    570    574     1   0.15110 237065.440000
    570    577     1   0.15110 237065.440000
    571    583     1   0.15375 251793.120000
    574    586     1   0.15375 251793.120000
    577    580     1   0.15375 251793.120000
    580    589     1   0.15375 251793.120000
    583    595     1   0.15375 251793.120000
    586    592     1   0.15375 251793.120000
    589    598     1   0.14316 258236.480000
    592   1228     1   0.14316 258236.480000
    595   1258     1   0.14316 258236.480000
    600    601     1   0.15110 237065.440000
    600    604     1   0.15110 237065.440000
    600    607     1   0.15110 237065.440000
    601    613     1   0.15375 251793.120000
    604    616     1   0.15375 251793.120000
    607    610     1   0.15375 251793.120000
    610    619     1   0.15375 251793.120000
    613    625     1   0.15375 251793.120000
    616    622     1   0.15375 251793.120000
    619    628     1   0.14316 258236.480000
    622   1288     1   0.14316 258236.480000
    625   1318     1   0.14316 258236.480000
    630    631     1   0.15110 237065.440000
    630    634     1   0.15110 237065.440000
    630    637     1   0.15110 237065.440000
    631    643     1   0.15375 251793.120000
    634    646     1   0.15375 251793.120000
    637    640     1   0.15375 251793.120000
    640    649     1   0.15375 251793.120000
    643    655     1   0.15375 251793.120000
    646    652     1   0.15375 251793.120000
    649    658     1   0.14316 258236.480000
    652   1348     1   0.14316 258236.480000
    655   1378     1   0.14316 258236.480000
    660    661     1   0.15110 237065.440000
    660    664     1   0.15110 237065.440000
    660    667     1   0.15110 237065.440000
    661    673     1   0.15375 251793.120000
    664    676     1   0.15375 251793.120000
    667    670     1   0.15375 251793.120000
    670    679     1   0.15375 251793.120000
    673    685     1   0.15375 251793.120000
    676    682     1   0.15375 251793.120000
    679    688     1   0.14316 258236.480000
    682   1408     1   0.14316 258236.480000
    685   1438     1   0.14316 258236.480000
    690    691     1   0.15110 237065.440000
    690    694     1   0.15110 237065.440000
    690    697     1   0.15110 237065.440000
    691    703     1   0.15375 251793.120000
    694    706     1   0.15375 251793.120000
    697    700     1   0.15375 251793.120000
    700    709     1   0.15375 251793.120000
    703    715     1   0.15375 251793.120000
    706    712     1   0.15375 251793.120000
    709    718     1   0.14316 258236.480000
    712   1468     1   0.14316 258236.480000
    715   1498     1   0.14316 258236.480000
    720    721     1   0.15110 237065.440000
    720    724     1   0.15110 237065.440000
    720    727     1   0.15110 237065.440000
    721    733     1   0.15375 251793.120000
    724    736     1   0.15375 251793.120000
    727    730     1   0.15375 251793.120000
    730    739     1   0.15375 251793.120000
    733    745     1   0.15375 251793.120000
    736    742     1   0.15375 251793.120000
    739    748     1   0.14316 258236.480000
    742   1528     1   0.14316 258236.480000
    745   1558     1   0.14316 258236.480000
    750    751     1   0.15110 237065.440000
    750    754     1   0.15110 237065.440000
    750    757     1   0.15110 237065.440000
    751    763     1   0.15375 251793.120000
    754    766     1   0.15375 251793.120000
    757    760     1   0.15375 251793.120000
    760    769     1   0.15375 251793.120000
    763    775     1   0.15375 251793.120000
    766    772     1   0.15375 251793.120000
    769    778     1   0.14316 258236.480000
    772   1588     1   0.14316 258236.480000
    775   1618     1   0.14316 258236.480000
    780    781     1   0.15110 237065.440000
    780    784     1   0.15110 237065.440000
    780    787     1   0.15110 237065.440000
    781    793     1   0.15375 251793.120000
    784    796     1   0.15375 251793.120000
    787    790     1   0.15375 251793.120000
    790    799     1   0.15375 251793.120000
    793    805     1   0.15375 251793.120000
    796    802     1   0.15375 251793.120000
    799    808     1   0.14316 258236.480000
    802   1648     1   0.14316 258236.480000
    805   1678     1   0.14316 258236.480000
    810    811     1   0.15110 237065.440000
    810    814     1   0.15110 237065.440000
    810    817     1   0.15110 237065.440000
    811    823     1   0.15375 251793.120000
    814    826     1   0.15375 251793.120000
    817    820     1   0.15375 251793.120000
    820    829     1   0.15375 251793.120000
    823    835     1   0.15375 251793.120000
    826    832     1   0.15375 251793.120000
    829    838     1   0.14316 258236.480000
    832   1708     1   0.14316 258236.480000
    835   1738     1   0.14316 258236.480000
    840    841     1   0.15110 237065.440000
    840    844     1   0.15110 237065.440000
    840    847     1   0.15110 237065.440000
    841    853     1   0.15375 251793.120000
    844    856     1   0.15375 251793.120000
    847    850     1   0.15375 251793.120000
    850    859     1   0.15375 251793.120000
    853    865     1   0.15375 251793.120000
    856    862     1   0.15375 251793.120000
    859    868     1   0.14316 258236.480000
    862   1768     1   0.14316 258236.480000
    865   1798     1   0.14316 258236.480000
    870    871     1   0.15110 237065.440000
    870    874     1   0.15110 237065.440000
    870    877     1   0.15110 237065.440000
    871    883     1   0.15375 251793.120000
    874    886     1   0.15375 251793.120000
    877    880     1   0.15375 251793.120000
    880    889     1   0.15375 251793.120000
    883    895     1   0.15375 251793.120000
    886    892     1   0.15375 251793.120000
    889    898     1   0.14316 258236.480000
    892   1828     1   0.14316 258236.480000
    895   1858     1   0.14316 258236.480000
    900    901     1   0.15110 237065.440000
    900    904     1   0.15110 237065.440000
    900    907     1   0.15110 237065.440000
    901    913     1   0.15375 251793.120000
    904    916     1   0.15375 251793.120000
    907    910     1   0.15375 251793.120000
    910    919     1   0.15375 251793.120000
    913    925     1   0.15375 251793.120000
    916    922     1   0.15375 251793.120000
    919    928     1   0.14316 258236.480000
    922   1890     1   0.14316 258236.480000
    925   1922     1   0.14316 258236.480000
    930    931     1   0.15110 237065.440000
    930    934     1   0.15110 237065.440000
    930    937     1   0.15110 237065.440000
    931    943     1   0.15375 251793.120000
    934    946     1   0.15375 251793.120000
    937    940     1   0.15375 251793.120000
    940    949     1   0.15375 251793.120000
    943    955     1   0.15375 251793.120000
    946    952     1   0.15375 251793.120000
    949    958     1   0.14316 258236.480000
    952   1954     1   0.14316 258236.480000
    955   1986     1   0.14316 258236.480000
    960    961     1   0.15110 237065.440000
    960    964     1   0.15110 237065.440000
    960    967     1   0.15110 237065.440000
    961    973     1   0.15375 251793.120000
    964    976     1   0.15375 251793.120000
    967    970     1   0.15375 251793.120000
    970    979     1   0.15375 251793.120000
    973    985     1   0.15375 251793.120000
    976    982     1   0.15375 251793.120000
    979    988     1   0.14316 258236.480000
    982   2018     1   0.14316 258236.480000
    985   2050     1   0.14316 258236.480000
    990    991     1   0.15110 237065.440000
    990    994     1   0.15110 237065.440000
    990    997     1   0.15110 237065.440000
    991   1003     1   0.15375 251793.120000
    994   1006     1   0.15375 251793.120000
    997   1000     1   0.15375 251793.120000
   1000   1009     1   0.15375 251793.120000
   1003   1015     1   0.15375 251793.120000
   1006   1012     1   0.15375 251793.120000
   1009   1018     1   0.14316 258236.480000
   1012   2082     1   0.14316 258236.480000
   1015   2114     1   0.14316 258236.480000
   1020   1021     1   0.15110 237065.440000
   1020   1024     1   0.15110 237065.440000
   1020   1027     1   0.15110 237065.440000
   1021   1033     1   0.15375 251793.120000
   1024   1036     1   0.15375 251793.120000
   1027   1030     1   0.15375 251793.120000
   1030   1039     1   0.15375 251793.120000
   1033   1045     1   0.15375 251793.120000
   1036   1042     1   0.15375 251793.120000
   1039   1048     1   0.14316 258236.480000
   1042   2146     1   0.14316 258236.480000
   1045   2178     1   0.14316 258236.480000
   1050   1051     1   0.15110 237065.440000
   1050   1054     1   0.15110 237065.440000
   1050   1057     1   0.15110 237065.440000
   1051   1063     1   0.15375 251793.120000
   1054   1066     1   0.15375 251793.120000
   1057   1060     1   0.15375 251793.120000
   1060   1069     1   0.15375 251793.120000
   1063   1075     1   0.15375 251793.120000
   1066   1072     1   0.15375 251793.120000
   1069   1078     1   0.14316 258236.480000
   1072   2210     1   0.14316 258236.480000
   1075   2242     1   0.14316 258236.480000
   1080   1081     1   0.15110 237065.440000
   1080   1084     1   0.15110 237065.440000
   1080   1087     1   0.15110 237065.440000
   1081   1093     1   0.15375 251793.120000
   1084   1096     1   0.15375 251793.120000
   1087   1090     1   0.15375 251793.120000
   1090   1099     1   0.15375 251793.120000
   1093   1105     1   0.15375 251793.120000
   1096   1102     1   0.15375 251793.120000
   1099   1108     1   0.14316 258236.480000
   1102   2274     1   0.14316 258236.480000
   1105   2306     1   0.14316 258236.480000
   1110   1111     1   0.15110 237065.440000
   1110   1114     1   0.15110 237065.440000
   1110   1117     1   0.15110 237065.440000
   1111   1123     1   0.15375 251793.120000
   1114   1126     1   0.15375 251793.120000
   1117   1120     1   0.15375 251793.120000
   1120   1129     1   0.15375 251793.120000
   1123   1135     1   0.15375 251793.120000
   1126   1132     1   0.15375 251793.120000
   1129   1138     1   0.14316 258236.480000
   1132   2338     1   0.14316 258236.480000
   1135   2370     1   0.14316 258236.480000
   1140   1141     1   0.15110 237065.440000
   1140   1144     1   0.15110 237065.440000
   1140   1147     1   0.15110 237065.440000
   1141   1153     1   0.15375 251793.120000
   1144   1156     1   0.15375 251793.120000
   1147   1150     1   0.15375 251793.120000
   1150   1159     1   0.15375 251793.120000
   1153   1165     1   0.15375 251793.120000
   1156   1162     1   0.15375 251793.120000
   1159   1168     1   0.14316 258236.480000
   1162   2402     1   0.14316 258236.480000
   1165   2434     1   0.14316 258236.480000
   1170   1171     1   0.15110 237065.440000
   1170   1174     1   0.15110 237065.440000
   1170   1177     1   0.15110 237065.440000
   1171   1183     1   0.15375 251793.120000
   1174   1186     1   0.15375 251793.120000
   1177   1180     1   0.15375 251793.120000
   1180   1189     1   0.15375 251793.120000
   1183   1195     1   0.15375 251793.120000
   1186   1192     1   0.15375 251793.120000
   1189   1198     1   0.14316 258236.480000
   1192   2466     1   0.14316 258236.480000
   1195   2498     1   0.14316 258236.480000
   1200   1201     1   0.15110 237065.440000
   1200   1204     1   0.15110 237065.440000
   1200   1207     1   0.15110 237065.440000
   1201   1213     1   0.15375 251793.120000
   1204   1216     1   0.15375 251793.120000
   1207   1210     1   0.15375 251793.120000
   1210   1219     1   0.15375 251793.120000
   1213   1225     1   0.15375 251793.120000
   1216   1222     1   0.15375 251793.120000
   1219   1228     1   0.14316 258236.480000
   1222   2530     1   0.14316 258236.480000
   1225   2562     1   0.14316 258236.480000
   1230   1231     1   0.15110 237065.440000
   1230   1234     1   0.15110 237065.440000
   1230   1237     1   0.15110 237065.440000
   1231   1243     1   0.15375 251793.120000
   1234   1246     1   0.15375 251793.120000
   1237   1240     1   0.15375 251793.120000
   1240   1249     1   0.15375 251793.120000
   1243   1255     1   0.15375 251793.120000
   1246   1252     1   0.15375 251793.120000
   1249   1258     1   0.14316 258236.480000
   1252   2594     1   0.14316 258236.480000
   1255   2626     1   0.14316 258236.480000
   1260   1261     1   0.15110 237065.440000
   1260   1264     1   0.15110 237065.440000
   1260   1267     1   0.15110 237065.440000
   1261   1273     1   0.15375 251793.120000
   1264   1276     1   0.15375 251793.120000
   1267   1270     1   0.15375 251793.120000
   1270   1279     1   0.15375 251793.120000
   1273   1285     1   0.15375 251793.120000
   1276   1282     1   0.15375 251793.120000
   1279   1288     1   0.14316 258236.480000
   1282   2658     1   0.14316 258236.480000
   1285   2690     1   0.14316 258236.480000
   1290   1291     1   0.15110 237065.440000
   1290   1294     1   0.15110 237065.440000
   1290   1297     1   0.15110 237065.440000
   1291   1303     1   0.15375 251793.120000
   1294   1306     1   0.15375 251793.120000
   1297   1300     1   0.15375 251793.120000
   1300   1309     1   0.15375 251793.120000
   1303   1315     1   0.15375 251793.120000
   1306   1312     1   0.15375 251793.120000
   1309   1318     1   0.14316 258236.480000
   1312   2722     1   0.14316 258236.480000
   1315   2754     1   0.14316 258236.480000
   1320   1321     1   0.15110 237065.440000
   1320   1324     1   0.15110 237065.440000
   1320   1327     1   0.15110 237065.440000
   1321   1333     1   0.15375 251793.120000
   1324   1336     1   0.15375 251793.120000
   1327   1330     1   0.15375 251793.120000
   1330   1339     1   0.15375 251793.120000
   1333   1345     1   0.15375 251793.120000
   1336   1342     1   0.15375 251793.120000
   1339   1348     1   0.14316 258236.480000
   1342   2786     1   0.14316 258236.480000
   1345   2818     1   0.14316 258236.480000
   1350   1351     1   0.15110 237065.440000
   1350   1354     1   0.15110 237065.440000
   1350   1357     1   0.15110 237065.440000
   1351   1363     1   0.15375 251793.120000
   1354   1366     1   0.15375 251793.120000
   1357   1360     1   0.15375 251793.120000
   1360   1369     1   0.15375 251793.120000
   1363   1375     1   0.15375 251793.120000
   1366   1372     1   0.15375 251793.120000
   1369   1378     1   0.14316 258236.480000
   1372   2850     1   0.14316 258236.480000
   1375   2882     1   0.14316 258236.480000
   1380   1381     1   0.15110 237065.440000
   1380   1384     1   0.15110 237065.440000
   1380   1387     1   0.15110 237065.440000
   1381   1393     1   0.15375 251793.120000
   1384   1396     1   0.15375 251793.120000
   1387   1390     1   0.15375 251793.120000
   1390   1399     1   0.15375 251793.120000
   1393   1405     1   0.15375 251793.120000
   1396   1402     1   0.15375 251793.120000
   1399   1408     1   0.14316 258236.480000
   1402   2914     1   0.14316 258236.480000
   1405   2946     1   0.14316 258236.480000
   1410   1411     1   0.15110 237065.440000
   1410   1414     1   0.15110 237065.440000
   1410   1417     1   0.15110 237065.440000
   1411   1423     1   0.15375 251793.120000
   1414   1426     1   0.15375 251793.120000
   1417   1420     1   0.15375 251793.120000
   1420   1429     1   0.15375 251793.120000
   1423   1435     1   0.15375 251793.120000
   1426   1432     1   0.15375 251793.120000
   1429   1438     1   0.14316 258236.480000
   1432   2978     1   0.14316 258236.480000
   1435   3010     1   0.14316 258236.480000
   1440   1441     1   0.15110 237065.440000
   1440   1444     1   0.15110 237065.440000
   1440   1447     1   0.15110 237065.440000
   1441   1453     1   0.15375 251793.120000
   1444   1456     1   0.15375 251793.120000
   1447   1450     1   0.15375 251793.120000
   1450   1459     1   0.15375 251793.120000
   1453   1465     1   0.15375 251793.120000
   1456   1462     1   0.15375 251793.120000
   1459   1468     1   0.14316 258236.480000
   1462   3042     1   0.14316 258236.480000
   1465   3074     1   0.14316 258236.480000
   1470   1471     1   0.15110 237065.440000
   1470   1474     1   0.15110 237065.440000
   1470   1477     1   0.15110 237065.440000
   1471   1483     1   0.15375 251793.120000
   1474   1486     1   0.15375 251793.120000
   1477   1480     1   0.15375 251793.120000
   1480   1489     1   0.15375 251793.120000
   1483   1495     1   0.15375 251793.120000
   1486   1492     1   0.15375 251793.120000
   1489   1498     1   0.14316 258236.480000
   1492   3106     1   0.14316 258236.480000
   1495   3138     1   0.14316 258236.480000
   1500   1501     1   0.15110 237065.440000
   1500   1504     1   0.15110 237065.440000
   1500   1507     1   0.15110 237065.440000
   1501   1513     1   0.15375 251793.120000
   1504   1516     1   0.15375 251793.120000
   1507   1510     1   0.15375 251793.120000
   1510   1519     1   0.15375 251793.120000
   1513   1525     1   0.15375 251793.120000
   1516   1522     1   0.15375 251793.120000
   1519   1528     1   0.14316 258236.480000
   1522   3170     1   0.14316 258236.480000
   1525   3202     1   0.14316 258236.480000
   1530   1531     1   0.15110 237065.440000
   1530   1534     1   0.15110 237065.440000
   1530   1537     1   0.15110 237065.440000
   1531   1543     1   0.15375 251793.120000
   1534   1546     1   0.15375 251793.120000
   1537   1540     1   0.15375 251793.120000
   1540   1549     1   0.15375 251793.120000
   1543   1555     1   0.15375 251793.120000
   1546   1552     1   0.15375 251793.120000
   1549   1558     1   0.14316 258236.480000
   1552   3234     1   0.14316 258236.480000
   1555   3266     1   0.14316 258236.480000
   1560   1561     1   0.15110 237065.440000
   1560   1564     1   0.15110 237065.440000
   1560   1567     1   0.15110 237065.440000
   1561   1573     1   0.15375 251793.120000
   1564   1576     1   0.15375 251793.120000
   1567   1570     1   0.15375 251793.120000
   1570   1579     1   0.15375 251793.120000
   1573   1585     1   0.15375 251793.120000
   1576   1582     1   0.15375 251793.120000
   1579   1588     1   0.14316 258236.480000
   1582   3298     1   0.14316 258236.480000
   1585   3330     1   0.14316 258236.480000
   1590   1591     1   0.15110 237065.440000
   1590   1594     1   0.15110 237065.440000
   1590   1597     1   0.15110 237065.440000
   1591   1603     1   0.15375 251793.120000
   1594   1606     1   0.15375 251793.120000
   1597   1600     1   0.15375 251793.120000
   1600   1609     1   0.15375 251793.120000
   1603   1615     1   0.15375 251793.120000
   1606   1612     1   0.15375 251793.120000
   1609   1618     1   0.14316 258236.480000
   1612   3362     1   0.14316 258236.480000
   1615   3394     1   0.14316 258236.480000
   1620   1621     1   0.15110 237065.440000
   1620   1624     1   0.15110 237065.440000
   1620   1627     1   0.15110 237065.440000
   1621   1633     1   0.15375 251793.120000
   1624   1636     1   0.15375 251793.120000
   1627   1630     1   0.15375 251793.120000
   1630   1639     1   0.15375 251793.120000
   1633   1645     1   0.15375 251793.120000
   1636   1642     1   0.15375 251793.120000
   1639   1648     1   0.14316 258236.480000
   1642   3426     1   0.14316 258236.480000
   1645   3458     1   0.14316 258236.480000
   1650   1651     1   0.15110 237065.440000
   1650   1654     1   0.15110 237065.440000
   1650   1657     1   0.15110 237065.440000
   1651   1663     1   0.15375 251793.120000
   1654   1666     1   0.15375 251793.120000
   1657   1660     1   0.15375 251793.120000
   1660   1669     1   0.15375 251793.120000
   1663   1675     1   0.15375 251793.120000
   1666   1672     1   0.15375 251793.120000
   1669   1678     1   0.14316 258236.480000
   1672   3490     1   0.14316 258236.480000
   1675   3522     1   0.14316 258236.480000
   1680   1681     1   0.15110 237065.440000
   1680   1684     1   0.15110 237065.440000
   1680   1687     1   0.15110 237065.440000
   1681   1693     1   0.15375 251793.120000
   1684   1696     1   0.15375 251793.120000
   1687   1690     1   0.15375 251793.120000
   1690   1699     1   0.15375 251793.120000
   1693   1705     1   0.15375 251793.120000
   1696   1702     1   0.15375 251793.120000
   1699   1708     1   0.14316 258236.480000
   1702   3554     1   0.14316 258236.480000
   1705   3586     1   0.14316 258236.480000
   1710   1711     1   0.15110 237065.440000
   1710   1714     1   0.15110 237065.440000
   1710   1717     1   0.15110 237065.440000
   1711   1723     1   0.15375 251793.120000
   1714   1726     1   0.15375 251793.120000
   1717   1720     1   0.15375 251793.120000
   1720   1729     1   0.15375 251793.120000
   1723   1735     1   0.15375 251793.120000
   1726   1732     1   0.15375 251793.120000
   1729   1738     1   0.14316 258236.480000
   1732   3618     1   0.14316 258236.480000
   1735   3650     1   0.14316 258236.480000
   1740   1741     1   0.15110 237065.440000
   1740   1744     1   0.15110 237065.440000
   1740   1747     1   0.15110 237065.440000
   1741   1753     1   0.15375 251793.120000
   1744   1756     1   0.15375 251793.120000
   1747   1750     1   0.15375 251793.120000
   1750   1759     1   0.15375 251793.120000
   1753   1765     1   0.15375 251793.120000
   1756   1762     1   0.15375 251793.120000
   1759   1768     1   0.14316 258236.480000
   1762   3682     1   0.14316 258236.480000
   1765   3714     1   0.14316 258236.480000
   1770   1771     1   0.15110 237065.440000
   1770   1774     1   0.15110 237065.440000
   1770   1777     1   0.15110 237065.440000
   1771   1783     1   0.15375 251793.120000
   1774   1786     1   0.15375 251793.120000
   1777   1780     1   0.15375 251793.120000
   1780   1789     1   0.15375 251793.120000
   1783   1795     1   0.15375 251793.120000
   1786   1792     1   0.15375 251793.120000
   1789   1798     1   0.14316 258236.480000
   1792   3746     1   0.14316 258236.480000
   1795   3778     1   0.14316 258236.480000
   1800   1801     1   0.15110 237065.440000
   1800   1804     1   0.15110 237065.440000
   1800   1807     1   0.15110 237065.440000
   1801   1813     1   0.15375 251793.120000
   1804   1816     1   0.15375 251793.120000
   1807   1810     1   0.15375 251793.120000
   1810   1819     1   0.15375 251793.120000
   1813   1825     1   0.15375 251793.120000
   1816   1822     1   0.15375 251793.120000
   1819   1828     1   0.14316 258236.480000
   1822   3810     1   0.14316 258236.480000
   1825   3842     1   0.14316 258236.480000
   1830   1831     1   0.15110 237065.440000
   1830   1834     1   0.15110 237065.440000
   1830   1837     1   0.15110 237065.440000
   1831   1843     1   0.15375 251793.120000
   1834   1846     1   0.15375 251793.120000
   1837   1840     1   0.15375 251793.120000
   1840   1849     1   0.15375 251793.120000
   1843   1855     1   0.15375 251793.120000
   1846   1852     1   0.15375 251793.120000
   1849   1858     1   0.14316 258236.480000
   1852   3874     1   0.14316 258236.480000
   1855   3906     1   0.14316 258236.480000
   1860   1863     1   0.15375 251793.120000
   1860   1890     1   0.14316 258236.480000
   1863   1866     1   0.15375 251793.120000
   1866   1869     1   0.15110 237065.440000
   1869   1870     1   0.15110 237065.440000
   1869   1880     1   0.15110 237065.440000
   1870   1873     1   0.15375 251793.120000
   1873   1876     1   0.15241 261918.400000
   1876   1877     1   0.12183 533627.360000
   1876   1878     1   0.13513 334803.680000
   1880   1883     1   0.15375 251793.120000
   1883   1886     1   0.15241 261918.400000
   1886   1887     1   0.12183 533627.360000
   1886   1888     1   0.13513 334803.680000
   1892   1895     1   0.15375 251793.120000
   1892   1922     1   0.14316 258236.480000
   1895   1898     1   0.15375 251793.120000
   1898   1901     1   0.15110 237065.440000
   1901   1902     1   0.15110 237065.440000
   1901   1912     1   0.15110 237065.440000
   1902   1905     1   0.15375 251793.120000
   1905   1908     1   0.15241 261918.400000
   1908   1909     1   0.12183 533627.360000
   1908   1910     1   0.13513 334803.680000
   1912   1915     1   0.15375 251793.120000
   1915   1918     1   0.15241 261918.400000
   1918   1919     1   0.12183 533627.360000
   1918   1920     1   0.13513 334803.680000
   1924   1927     1   0.15375 251793.120000
   1924   1954     1   0.14316 258236.480000
   1927   1930     1   0.15375 251793.120000
   1930   1933     1   0.15110 237065.440000
   1933   1934     1   0.15110 237065.440000
   1933   1944     1   0.15110 237065.440000
   1934   1937     1   0.15375 251793.120000
   1937   1940     1   0.15241 261918.400000
   1940   1941     1   0.12183 533627.360000
   1940   1942     1   0.13513 334803.680000
   1944   1947     1   0.15375 251793.120000
   1947   1950     1   0.15241 261918.400000
   1950   1951     1   0.12183 533627.360000
   1950   1952     1   0.13513 334803.680000
   1956   1959     1   0.15375 251793.120000
   1956   1986     1   0.14316 258236.480000
   1959   1962     1   0.15375 251793.120000
   1962   1965     1   0.15110 237065.440000
   1965   1966     1   0.15110 237065.440000
   1965   1976     1   0.15110 237065.440000
   1966   1969     1   0.15375 251793.120000
   1969   1972     1   0.15241 261918.400000
   1972   1973     1   0.12183 533627.360000
   1972   1974     1   0.13513 334803.680000
   1976   1979     1   0.15375 251793.120000
   1979   1982     1   0.15241 261918.400000
   1982   1983     1   0.12183 533627.360000
   1982   1984     1   0.13513 334803.680000
   1988   1991     1   0.15375 251793.120000
   1988   2018     1   0.14316 258236.480000
   1991   1994     1   0.15375 251793.120000
   1994   1997     1   0.15110 237065.440000
   1997   1998     1   0.15110 237065.440000
   1997   2008     1   0.15110 237065.440000
   1998   2001     1   0.15375 251793.120000
   2001   2004     1   0.15241 261918.400000
   2004   2005     1   0.12183 533627.360000
   2004   2006     1   0.13513 334803.680000
   2008   2011     1   0.15375 251793.120000
   2011   2014     1   0.15241 261918.400000
   2014   2015     1   0.12183 533627.360000
   2014   2016     1   0.13513 334803.680000
   2020   2023     1   0.15375 251793.120000
   2020   2050     1   0.14316 258236.480000
   2023   2026     1   0.15375 251793.120000
   2026   2029     1   0.15110 237065.440000
   2029   2030     1   0.15110 237065.440000
   2029   2040     1   0.15110 237065.440000
   2030   2033     1   0.15375 251793.120000
   2033   2036     1   0.15241 261918.400000
   2036   2037     1   0.12183 533627.360000
   2036   2038     1   0.13513 334803.680000
   2040   2043     1   0.15375 251793.120000
   2043   2046     1   0.15241 261918.400000
   2046   2047     1   0.12183 533627.360000
   2046   2048     1   0.13513 334803.680000
   2052   2055     1   0.15375 251793.120000
   2052   2082     1   0.14316 258236.480000
   2055   2058     1   0.15375 251793.120000
   2058   2061     1   0.15110 237065.440000
   2061   2062     1   0.15110 237065.440000
   2061   2072     1   0.15110 237065.440000
   2062   2065     1   0.15375 251793.120000
   2065   2068     1   0.15241 261918.400000
   2068   2069     1   0.12183 533627.360000
   2068   2070     1   0.13513 334803.680000
   2072   2075     1   0.15375 251793.120000
   2075   2078     1   0.15241 261918.400000
   2078   2079     1   0.12183 533627.360000
   2078   2080     1   0.13513 334803.680000
   2084   2087     1   0.15375 251793.120000
   2084   2114     1   0.14316 258236.480000
   2087   2090     1   0.15375 251793.120000
   2090   2093     1   0.15110 237065.440000
   2093   2094     1   0.15110 237065.440000
   2093   2104     1   0.15110 237065.440000
   2094   2097     1   0.15375 251793.120000
   2097   2100     1   0.15241 261918.400000
   2100   2101     1   0.12183 533627.360000
   2100   2102     1   0.13513 334803.680000
   2104   2107     1   0.15375 251793.120000
   2107   2110     1   0.15241 261918.400000
   2110   2111     1   0.12183 533627.360000
   2110   2112     1   0.13513 334803.680000
   2116   2119     1   0.15375 251793.120000
   2116   2146     1   0.14316 258236.480000
   2119   2122     1   0.15375 251793.120000
   2122   2125     1   0.15110 237065.440000
   2125   2126     1   0.15110 237065.440000
   2125   2136     1   0.15110 237065.440000
   2126   2129     1   0.15375 251793.120000
   2129   2132     1   0.15241 261918.400000
   2132   2133     1   0.12183 533627.360000
   2132   2134     1   0.13513 334803.680000
   2136   2139     1   0.15375 251793.120000
   2139   2142     1   0.15241 261918.400000
   2142   2143     1   0.12183 533627.360000
   2142   2144     1   0.13513 334803.680000
   2148   2151     1   0.15375 251793.120000
   2148   2178     1   0.14316 258236.480000
   2151   2154     1   0.15375 251793.120000
   2154   2157     1   0.15110 237065.440000
   2157   2158     1   0.15110 237065.440000
   2157   2168     1   0.15110 237065.440000
   2158   2161     1   0.15375 251793.120000
   2161   2164     1   0.15241 261918.400000
   2164   2165     1   0.12183 533627.360000
   2164   2166     1   0.13513 334803.680000
   2168   2171     1   0.15375 251793.120000
   2171   2174     1   0.15241 261918.400000
   2174   2175     1   0.12183 533627.360000
   2174   2176     1   0.13513 334803.680000
   2180   2183     1   0.15375 251793.120000
   2180   2210     1   0.14316 258236.480000
   2183   2186     1   0.15375 251793.120000
   2186   2189     1   0.15110 237065.440000
   2189   2190     1   0.15110 237065.440000
   2189   2200     1   0.15110 237065.440000
   2190   2193     1   0.15375 251793.120000
   2193   2196     1   0.15241 261918.400000
   2196   2197     1   0.12183 533627.360000
   2196   2198     1   0.13513 334803.680000
   2200   2203     1   0.15375 251793.120000
   2203   2206     1   0.15241 261918.400000
   2206   2207     1   0.12183 533627.360000
   2206   2208     1   0.13513 334803.680000
   2212   2215     1   0.15375 251793.120000
   2212   2242     1   0.14316 258236.480000
   2215   2218     1   0.15375 251793.120000
   2218   2221     1   0.15110 237065.440000
   2221   2222     1   0.15110 237065.440000
   2221   2232     1   0.15110 237065.440000
   2222   2225     1   0.15375 251793.120000
   2225   2228     1   0.15241 261918.400000
   2228   2229     1   0.12183 533627.360000
   2228   2230     1   0.13513 334803.680000
   2232   2235     1   0.15375 251793.120000
   2235   2238     1   0.15241 261918.400000
   2238   2239     1   0.12183 533627.360000
   2238   2240     1   0.13513 334803.680000
   2244   2247     1   0.15375 251793.120000
   2244   2274     1   0.14316 258236.480000
   2247   2250     1   0.15375 251793.120000
   2250   2253     1   0.15110 237065.440000
   2253   2254     1   0.15110 237065.440000
   2253   2264     1   0.15110 237065.440000
   2254   2257     1   0.15375 251793.120000
   2257   2260     1   0.15241 261918.400000
   2260   2261     1   0.12183 533627.360000
   2260   2262     1   0.13513 334803.680000
   2264   2267     1   0.15375 251793.120000
   2267   2270     1   0.15241 261918.400000
   2270   2271     1   0.12183 533627.360000
   2270   2272     1   0.13513 334803.680000
   2276   2279     1   0.15375 251793.120000
   2276   2306     1   0.14316 258236.480000
   2279   2282     1   0.15375 251793.120000
   2282   2285     1   0.15110 237065.440000
   2285   2286     1   0.15110 237065.440000
   2285   2296     1   0.15110 237065.440000
   2286   2289     1   0.15375 251793.120000
   2289   2292     1   0.15241 261918.400000
   2292   2293     1   0.12183 533627.360000
   2292   2294     1   0.13513 334803.680000
   2296   2299     1   0.15375 251793.120000
   2299   2302     1   0.15241 261918.400000
   2302   2303     1   0.12183 533627.360000
   2302   2304     1   0.13513 334803.680000
   2308   2311     1   0.15375 251793.120000
   2308   2338     1   0.14316 258236.480000
   2311   2314     1   0.15375 251793.120000
   2314   2317     1   0.15110 237065.440000
   2317   2318     1   0.15110 237065.440000
   2317   2328     1   0.15110 237065.440000
   2318   2321     1   0.15375 251793.120000
   2321   2324     1   0.15241 261918.400000
   2324   2325     1   0.12183 533627.360000
   2324   2326     1   0.13513 334803.680000
   2328   2331     1   0.15375 251793.120000
   2331   2334     1   0.15241 261918.400000
   2334   2335     1   0.12183 533627.360000
   2334   2336     1   0.13513 334803.680000
   2340   2343     1   0.15375 251793.120000
   2340   2370     1   0.14316 258236.480000
   2343   2346     1   0.15375 251793.120000
   2346   2349     1   0.15110 237065.440000
   2349   2350     1   0.15110 237065.440000
   2349   2360     1   0.15110 237065.440000
   2350   2353     1   0.15375 251793.120000
   2353   2356     1   0.15241 261918.400000
   2356   2357     1   0.12183 533627.360000
   2356   2358     1   0.13513 334803.680000
   2360   2363     1   0.15375 251793.120000
   2363   2366     1   0.15241 261918.400000
   2366   2367     1   0.12183 533627.360000
   2366   2368     1   0.13513 334803.680000
   2372   2375     1   0.15375 251793.120000
   2372   2402     1   0.14316 258236.480000
   2375   2378     1   0.15375 251793.120000
   2378   2381     1   0.15110 237065.440000
   2381   2382     1   0.15110 237065.440000
   2381   2392     1   0.15110 237065.440000
   2382   2385     1   0.15375 251793.120000
   2385   2388     1   0.15241 261918.400000
   2388   2389     1   0.12183 533627.360000
   2388   2390     1   0.13513 334803.680000
   2392   2395     1   0.15375 251793.120000
   2395   2398     1   0.15241 261918.400000
   2398   2399     1   0.12183 533627.360000
   2398   2400     1   0.13513 334803.680000
   2404   2407     1   0.15375 251793.120000
   2404   2434     1   0.14316 258236.480000
   2407   2410     1   0.15375 251793.120000
   2410   2413     1   0.15110 237065.440000
   2413   2414     1   0.15110 237065.440000
   2413   2424     1   0.15110 237065.440000
   2414   2417     1   0.15375 251793.120000
   2417   2420     1   0.15241 261918.400000
   2420   2421     1   0.12183 533627.360000
   2420   2422     1   0.13513 334803.680000
   2424   2427     1   0.15375 251793.120000
   2427   2430     1   0.15241 261918.400000
   2430   2431     1   0.12183 533627.360000
   2430   2432     1   0.13513 334803.680000
   2436   2439     1   0.15375 251793.120000
   2436   2466     1   0.14316 258236.480000
   2439   2442     1   0.15375 251793.120000
   2442   2445     1   0.15110 237065.440000
   2445   2446     1   0.15110 237065.440000
   2445   2456     1   0.15110 237065.440000
   2446   2449     1   0.15375 251793.120000
   2449   2452     1   0.15241 261918.400000
   2452   2453     1   0.12183 533627.360000
   2452   2454     1   0.13513 334803.680000
   2456   2459     1   0.15375 251793.120000
   2459   2462     1   0.15241 261918.400000
   2462   2463     1   0.12183 533627.360000
   2462   2464     1   0.13513 334803.680000
   2468   2471     1   0.15375 251793.120000
   2468   2498     1   0.14316 258236.480000
   2471   2474     1   0.15375 251793.120000
   2474   2477     1   0.15110 237065.440000
   2477   2478     1   0.15110 237065.440000
   2477   2488     1   0.15110 237065.440000
   2478   2481     1   0.15375 251793.120000
   2481   2484     1   0.15241 261918.400000
   2484   2485     1   0.12183 533627.360000
   2484   2486     1   0.13513 334803.680000
   2488   2491     1   0.15375 251793.120000
   2491   2494     1   0.15241 261918.400000
   2494   2495     1   0.12183 533627.360000
   2494   2496     1   0.13513 334803.680000
   2500   2503     1   0.15375 251793.120000
   2500   2530     1   0.14316 258236.480000
   2503   2506     1   0.15375 251793.120000
   2506   2509     1   0.15110 237065.440000
   2509   2510     1   0.15110 237065.440000
   2509   2520     1   0.15110 237065.440000
   2510   2513     1   0.15375 251793.120000
   2513   2516     1   0.15241 261918.400000
   2516   2517     1   0.12183 533627.360000
   2516   2518     1   0.13513 334803.680000
   2520   2523     1   0.15375 251793.120000
   2523   2526     1   0.15241 261918.400000
   2526   2527     1   0.12183 533627.360000
   2526   2528     1   0.13513 334803.680000
   2532   2535     1   0.15375 251793.120000
   2532   2562     1   0.14316 258236.480000
   2535   2538     1   0.15375 251793.120000
   2538   2541     1   0.15110 237065.440000
   2541   2542     1   0.15110 237065.440000
   2541   2552     1   0.15110 237065.440000
   2542   2545     1   0.15375 251793.120000
   2545   2548     1   0.15241 261918.400000
   2548   2549     1   0.12183 533627.360000
   2548   2550     1   0.13513 334803.680000
   2552   2555     1   0.15375 251793.120000
   2555   2558     1   0.15241 261918.400000
   2558   2559     1   0.12183 533627.360000
   2558   2560     1   0.13513 334803.680000
   2564   2567     1   0.15375 251793.120000
   2564   2594     1   0.14316 258236.480000
   2567   2570     1   0.15375 251793.120000
   2570   2573     1   0.15110 237065.440000
   2573   2574     1   0.15110 237065.440000
   2573   2584     1   0.15110 237065.440000
   2574   2577     1   0.15375 251793.120000
   2577   2580     1   0.15241 261918.400000
   2580   2581     1   0.12183 533627.360000
   2580   2582     1   0.13513 334803.680000
   2584   2587     1   0.15375 251793.120000
   2587   2590     1   0.15241 261918.400000
   2590   2591     1   0.12183 533627.360000
   2590   2592     1   0.13513 334803.680000
   2596   2599     1   0.15375 251793.120000
   2596   2626     1   0.14316 258236.480000
   2599   2602     1   0.15375 251793.120000
   2602   2605     1   0.15110 237065.440000
   2605   2606     1   0.15110 237065.440000
   2605   2616     1   0.15110 237065.440000
   2606   2609     1   0.15375 251793.120000
   2609   2612     1   0.15241 261918.400000
   2612   2613     1   0.12183 533627.360000
   2612   2614     1   0.13513 334803.680000
   2616   2619     1   0.15375 251793.120000
   2619   2622     1   0.15241 261918.400000
   2622   2623     1   0.12183 533627.360000
   2622   2624     1   0.13513 334803.680000
   2628   2631     1   0.15375 251793.120000
   2628   2658     1   0.14316 258236.480000
   2631   2634     1   0.15375 251793.120000
   2634   2637     1   0.15110 237065.440000
   2637   2638     1   0.15110 237065.440000
   2637   2648     1   0.15110 237065.440000
   2638   2641     1   0.15375 251793.120000
   2641   2644     1   0.15241 261918.400000
   2644   2645     1   0.12183 533627.360000
   2644   2646     1   0.13513 334803.680000
   2648   2651     1   0.15375 251793.120000
   2651   2654     1   0.15241 261918.400000
   2654   2655     1   0.12183 533627.360000
   2654   2656     1   0.13513 334803.680000
   2660   2663     1   0.15375 251793.120000
   2660   2690     1   0.14316 258236.480000
   2663   2666     1   0.15375 251793.120000
   2666   2669     1   0.15110 237065.440000
   2669   2670     1   0.15110 237065.440000
   2669   2680     1   0.15110 237065.440000
   2670   2673     1   0.15375 251793.120000
   2673   2676     1   0.15241 261918.400000
   2676   2677     1   0.12183 533627.360000
   2676   2678     1   0.13513 334803.680000
   2680   2683     1   0.15375 251793.120000
   2683   2686     1   0.15241 261918.400000
   2686   2687     1   0.12183 533627.360000
   2686   2688     1   0.13513 334803.680000
   2692   2695     1   0.15375 251793.120000
   2692   2722     1   0.14316 258236.480000
   2695   2698     1   0.15375 251793.120000
   2698   2701     1   0.15110 237065.440000
   2701   2702     1   0.15110 237065.440000
   2701   2712     1   0.15110 237065.440000
   2702   2705     1   0.15375 251793.120000
   2705   2708     1   0.15241 261918.400000
   2708   2709     1   0.12183 533627.360000
   2708   2710     1   0.13513 334803.680000
   2712   2715     1   0.15375 251793.120000
   2715   2718     1   0.15241 261918.400000
   2718   2719     1   0.12183 533627.360000
   2718   2720     1   0.13513 334803.680000
   2724   2727     1   0.15375 251793.120000
   2724   2754     1   0.14316 258236.480000
   2727   2730     1   0.15375 251793.120000
   2730   2733     1   0.15110 237065.440000
   2733   2734     1   0.15110 237065.440000
   2733   2744     1   0.15110 237065.440000
   2734   2737     1   0.15375 251793.120000
   2737   2740     1   0.15241 261918.400000
   2740   2741     1   0.12183 533627.360000
   2740   2742     1   0.13513 334803.680000
   2744   2747     1   0.15375 251793.120000
   2747   2750     1   0.15241 261918.400000
   2750   2751     1   0.12183 533627.360000
   2750   2752     1   0.13513 334803.680000
   2756   2759     1   0.15375 251793.120000
   2756   2786     1   0.14316 258236.480000
   2759   2762     1   0.15375 251793.120000
   2762   2765     1   0.15110 237065.440000
   2765   2766     1   0.15110 237065.440000
   2765   2776     1   0.15110 237065.440000
   2766   2769     1   0.15375 251793.120000
   2769   2772     1   0.15241 261918.400000
   2772   2773     1   0.12183 533627.360000
   2772   2774     1   0.13513 334803.680000
   2776   2779     1   0.15375 251793.120000
   2779   2782     1   0.15241 261918.400000
   2782   2783     1   0.12183 533627.360000
   2782   2784     1   0.13513 334803.680000
   2788   2791     1   0.15375 251793.120000
   2788   2818     1   0.14316 258236.480000
   2791   2794     1   0.15375 251793.120000
   2794   2797     1   0.15110 237065.440000
   2797   2798     1   0.15110 237065.440000
   2797   2808     1   0.15110 237065.440000
   2798   2801     1   0.15375 251793.120000
   2801   2804     1   0.15241 261918.400000
   2804   2805     1   0.12183 533627.360000
   2804   2806     1   0.13513 334803.680000
   2808   2811     1   0.15375 251793.120000
   2811   2814     1   0.15241 261918.400000
   2814   2815     1   0.12183 533627.360000
   2814   2816     1   0.13513 334803.680000
   2820   2823     1   0.15375 251793.120000
   2820   2850     1   0.14316 258236.480000
   2823   2826     1   0.15375 251793.120000
   2826   2829     1   0.15110 237065.440000
   2829   2830     1   0.15110 237065.440000
   2829   2840     1   0.15110 237065.440000
   2830   2833     1   0.15375 251793.120000
   2833   2836     1   0.15241 261918.400000
   2836   2837     1   0.12183 533627.360000
   2836   2838     1   0.13513 334803.680000
   2840   2843     1   0.15375 251793.120000
   2843   2846     1   0.15241 261918.400000
   2846   2847     1   0.12183 533627.360000
   2846   2848     1   0.13513 334803.680000
   2852   2855     1   0.15375 251793.120000
   2852   2882     1   0.14316 258236.480000
   2855   2858     1   0.15375 251793.120000
   2858   2861     1   0.15110 237065.440000
   2861   2862     1   0.15110 237065.440000
   2861   2872     1   0.15110 237065.440000
   2862   2865     1   0.15375 251793.120000
   2865   2868     1   0.15241 261918.400000
   2868   2869     1   0.12183 533627.360000
   2868   2870     1   0.13513 334803.680000
   2872   2875     1   0.15375 251793.120000
   2875   2878     1   0.15241 261918.400000
   2878   2879     1   0.12183 533627.360000
   2878   2880     1   0.13513 334803.680000
   2884   2887     1   0.15375 251793.120000
   2884   2914     1   0.14316 258236.480000
   2887   2890     1   0.15375 251793.120000
   2890   2893     1   0.15110 237065.440000
   2893   2894     1   0.15110 237065.440000
   2893   2904     1   0.15110 237065.440000
   2894   2897     1   0.15375 251793.120000
   2897   2900     1   0.15241 261918.400000
   2900   2901     1   0.12183 533627.360000
   2900   2902     1   0.13513 334803.680000
   2904   2907     1   0.15375 251793.120000
   2907   2910     1   0.15241 261918.400000
   2910   2911     1   0.12183 533627.360000
   2910   2912     1   0.13513 334803.680000
   2916   2919     1   0.15375 251793.120000
   2916   2946     1   0.14316 258236.480000
   2919   2922     1   0.15375 251793.120000
   2922   2925     1   0.15110 237065.440000
   2925   2926     1   0.15110 237065.440000
   2925   2936     1   0.15110 237065.440000
   2926   2929     1   0.15375 251793.120000
   2929   2932     1   0.15241 261918.400000
   2932   2933     1   0.12183 533627.360000
   2932   2934     1   0.13513 334803.680000
   2936   2939     1   0.15375 251793.120000
   2939   2942     1   0.15241 261918.400000
   2942   2943     1   0.12183 533627.360000
   2942   2944     1   0.13513 334803.680000
   2948   2951     1   0.15375 251793.120000
   2948   2978     1   0.14316 258236.480000
   2951   2954     1   0.15375 251793.120000
   2954   2957     1   0.15110 237065.440000
   2957   2958     1   0.15110 237065.440000
   2957   2968     1   0.15110 237065.440000
   2958   2961     1   0.15375 251793.120000
   2961   2964     1   0.15241 261918.400000
   2964   2965     1   0.12183 533627.360000
   2964   2966     1   0.13513 334803.680000
   2968   2971     1   0.15375 251793.120000
   2971   2974     1   0.15241 261918.400000
   2974   2975     1   0.12183 533627.360000
   2974   2976     1   0.13513 334803.680000
   2980   2983     1   0.15375 251793.120000
   2980   3010     1   0.14316 258236.480000
   2983   2986     1   0.15375 251793.120000
   2986   2989     1   0.15110 237065.440000
   2989   2990     1   0.15110 237065.440000
   2989   3000     1   0.15110 237065.440000
   2990   2993     1   0.15375 251793.120000
   2993   2996     1   0.15241 261918.400000
   2996   2997     1   0.12183 533627.360000
   2996   2998     1   0.13513 334803.680000
   3000   3003     1   0.15375 251793.120000
   3003   3006     1   0.15241 261918.400000
   3006   3007     1   0.12183 533627.360000
   3006   3008     1   0.13513 334803.680000
   3012   3015     1   0.15375 251793.120000
   3012   3042     1   0.14316 258236.480000
   3015   3018     1   0.15375 251793.120000
   3018   3021     1   0.15110 237065.440000
   3021   3022     1   0.15110 237065.440000
   3021   3032     1   0.15110 237065.440000
   3022   3025     1   0.15375 251793.120000
   3025   3028     1   0.15241 261918.400000
   3028   3029     1   0.12183 533627.360000
   3028   3030     1   0.13513 334803.680000
   3032   3035     1   0.15375 251793.120000
   3035   3038     1   0.15241 261918.400000
   3038   3039     1   0.12183 533627.360000
   3038   3040     1   0.13513 334803.680000
   3044   3047     1   0.15375 251793.120000
   3044   3074     1   0.14316 258236.480000
   3047   3050     1   0.15375 251793.120000
   3050   3053     1   0.15110 237065.440000
   3053   3054     1   0.15110 237065.440000
   3053   3064     1   0.15110 237065.440000
   3054   3057     1   0.15375 251793.120000
   3057   3060     1   0.15241 261918.400000
   3060   3061     1   0.12183 533627.360000
   3060   3062     1   0.13513 334803.680000
   3064   3067     1   0.15375 251793.120000
   3067   3070     1   0.15241 261918.400000
   3070   3071     1   0.12183 533627.360000
   3070   3072     1   0.13513 334803.680000
   3076   3079     1   0.15375 251793.120000
   3076   3106     1   0.14316 258236.480000
   3079   3082     1   0.15375 251793.120000
   3082   3085     1   0.15110 237065.440000
   3085   3086     1   0.15110 237065.440000
   3085   3096     1   0.15110 237065.440000
   3086   3089     1   0.15375 251793.120000
   3089   3092     1   0.15241 261918.400000
   3092   3093     1   0.12183 533627.360000
   3092   3094     1   0.13513 334803.680000
   3096   3099     1   0.15375 251793.120000
   3099   3102     1   0.15241 261918.400000
   3102   3103     1   0.12183 533627.360000
   3102   3104     1   0.13513 334803.680000
   3108   3111     1   0.15375 251793.120000
   3108   3138     1   0.14316 258236.480000
   3111   3114     1   0.15375 251793.120000
   3114   3117     1   0.15110 237065.440000
   3117   3118     1   0.15110 237065.440000
   3117   3128     1   0.15110 237065.440000
   3118   3121     1   0.15375 251793.120000
   3121   3124     1   0.15241 261918.400000
   3124   3125     1   0.12183 533627.360000
   3124   3126     1   0.13513 334803.680000
   3128   3131     1   0.15375 251793.120000
   3131   3134     1   0.15241 261918.400000
   3134   3135     1   0.12183 533627.360000
   3134   3136     1   0.13513 334803.680000
   3140   3143     1   0.15375 251793.120000
   3140   3170     1   0.14316 258236.480000
   3143   3146     1   0.15375 251793.120000
   3146   3149     1   0.15110 237065.440000
   3149   3150     1   0.15110 237065.440000
   3149   3160     1   0.15110 237065.440000
   3150   3153     1   0.15375 251793.120000
   3153   3156     1   0.15241 261918.400000
   3156   3157     1   0.12183 533627.360000
   3156   3158     1   0.13513 334803.680000
   3160   3163     1   0.15375 251793.120000
   3163   3166     1   0.15241 261918.400000
   3166   3167     1   0.12183 533627.360000
   3166   3168     1   0.13513 334803.680000
   3172   3175     1   0.15375 251793.120000
   3172   3202     1   0.14316 258236.480000
   3175   3178     1   0.15375 251793.120000
   3178   3181     1   0.15110 237065.440000
   3181   3182     1   0.15110 237065.440000
   3181   3192     1   0.15110 237065.440000
   3182   3185     1   0.15375 251793.120000
   3185   3188     1   0.15241 261918.400000
   3188   3189     1   0.12183 533627.360000
   3188   3190     1   0.13513 334803.680000
   3192   3195     1   0.15375 251793.120000
   3195   3198     1   0.15241 261918.400000
   3198   3199     1   0.12183 533627.360000
   3198   3200     1   0.13513 334803.680000
   3204   3207     1   0.15375 251793.120000
   3204   3234     1   0.14316 258236.480000
   3207   3210     1   0.15375 251793.120000
   3210   3213     1   0.15110 237065.440000
   3213   3214     1   0.15110 237065.440000
   3213   3224     1   0.15110 237065.440000
   3214   3217     1   0.15375 251793.120000
   3217   3220     1   0.15241 261918.400000
   3220   3221     1   0.12183 533627.360000
   3220   3222     1   0.13513 334803.680000
   3224   3227     1   0.15375 251793.120000
   3227   3230     1   0.15241 261918.400000
   3230   3231     1   0.12183 533627.360000
   3230   3232     1   0.13513 334803.680000
   3236   3239     1   0.15375 251793.120000
   3236   3266     1   0.14316 258236.480000
   3239   3242     1   0.15375 251793.120000
   3242   3245     1   0.15110 237065.440000
   3245   3246     1   0.15110 237065.440000
   3245   3256     1   0.15110 237065.440000
   3246   3249     1   0.15375 251793.120000
   3249   3252     1   0.15241 261918.400000
   3252   3253     1   0.12183 533627.360000
   3252   3254     1   0.13513 334803.680000
   3256   3259     1   0.15375 251793.120000
   3259   3262     1   0.15241 261918.400000
   3262   3263     1   0.12183 533627.360000
   3262   3264     1   0.13513 334803.680000
   3268   3271     1   0.15375 251793.120000
   3268   3298     1   0.14316 258236.480000
   3271   3274     1   0.15375 251793.120000
   3274   3277     1   0.15110 237065.440000
   3277   3278     1   0.15110 237065.440000
   3277   3288     1   0.15110 237065.440000
   3278   3281     1   0.15375 251793.120000
   3281   3284     1   0.15241 261918.400000
   3284   3285     1   0.12183 533627.360000
   3284   3286     1   0.13513 334803.680000
   3288   3291     1   0.15375 251793.120000
   3291   3294     1   0.15241 261918.400000
   3294   3295     1   0.12183 533627.360000
   3294   3296     1   0.13513 334803.680000
   3300   3303     1   0.15375 251793.120000
   3300   3330     1   0.14316 258236.480000
   3303   3306     1   0.15375 251793.120000
   3306   3309     1   0.15110 237065.440000
   3309   3310     1   0.15110 237065.440000
   3309   3320     1   0.15110 237065.440000
   3310   3313     1   0.15375 251793.120000
   3313   3316     1   0.15241 261918.400000
   3316   3317     1   0.12183 533627.360000
   3316   3318     1   0.13513 334803.680000
   3320   3323     1   0.15375 251793.120000
   3323   3326     1   0.15241 261918.400000
   3326   3327     1   0.12183 533627.360000
   3326   3328     1   0.13513 334803.680000
   3332   3335     1   0.15375 251793.120000
   3332   3362     1   0.14316 258236.480000
   3335   3338     1   0.15375 251793.120000
   3338   3341     1   0.15110 237065.440000
   3341   3342     1   0.15110 237065.440000
   3341   3352     1   0.15110 237065.440000
   3342   3345     1   0.15375 251793.120000
   3345   3348     1   0.15241 261918.400000
   3348   3349     1   0.12183 533627.360000
   3348   3350     1   0.13513 334803.680000
   3352   3355     1   0.15375 251793.120000
   3355   3358     1   0.15241 261918.400000
   3358   3359     1   0.12183 533627.360000
   3358   3360     1   0.13513 334803.680000
   3364   3367     1   0.15375 251793.120000
   3364   3394     1   0.14316 258236.480000
   3367   3370     1   0.15375 251793.120000
   3370   3373     1   0.15110 237065.440000
   3373   3374     1   0.15110 237065.440000
   3373   3384     1   0.15110 237065.440000
   3374   3377     1   0.15375 251793.120000
   3377   3380     1   0.15241 261918.400000
   3380   3381     1   0.12183 533627.360000
   3380   3382     1   0.13513 334803.680000
   3384   3387     1   0.15375 251793.120000
   3387   3390     1   0.15241 261918.400000
   3390   3391     1   0.12183 533627.360000
   3390   3392     1   0.13513 334803.680000
   3396   3399     1   0.15375 251793.120000
   3396   3426     1   0.14316 258236.480000
   3399   3402     1   0.15375 251793.120000
   3402   3405     1   0.15110 237065.440000
   3405   3406     1   0.15110 237065.440000
   3405   3416     1   0.15110 237065.440000
   3406   3409     1   0.15375 251793.120000
   3409   3412     1   0.15241 261918.400000
   3412   3413     1   0.12183 533627.360000
   3412   3414     1   0.13513 334803.680000
   3416   3419     1   0.15375 251793.120000
   3419   3422     1   0.15241 261918.400000
   3422   3423     1   0.12183 533627.360000
   3422   3424     1   0.13513 334803.680000
   3428   3431     1   0.15375 251793.120000
   3428   3458     1   0.14316 258236.480000
   3431   3434     1   0.15375 251793.120000
   3434   3437     1   0.15110 237065.440000
   3437   3438     1   0.15110 237065.440000
   3437   3448     1   0.15110 237065.440000
   3438   3441     1   0.15375 251793.120000
   3441   3444     1   0.15241 261918.400000
   3444   3445     1   0.12183 533627.360000
   3444   3446     1   0.13513 334803.680000
   3448   3451     1   0.15375 251793.120000
   3451   3454     1   0.15241 261918.400000
   3454   3455     1   0.12183 533627.360000
   3454   3456     1   0.13513 334803.680000
   3460   3463     1   0.15375 251793.120000
   3460   3490     1   0.14316 258236.480000
   3463   3466     1   0.15375 251793.120000
   3466   3469     1   0.15110 237065.440000
   3469   3470     1   0.15110 237065.440000
   3469   3480     1   0.15110 237065.440000
   3470   3473     1   0.15375 251793.120000
   3473   3476     1   0.15241 261918.400000
   3476   3477     1   0.12183 533627.360000
   3476   3478     1   0.13513 334803.680000
   3480   3483     1   0.15375 251793.120000
   3483   3486     1   0.15241 261918.400000
   3486   3487     1   0.12183 533627.360000
   3486   3488     1   0.13513 334803.680000
   3492   3495     1   0.15375 251793.120000
   3492   3522     1   0.14316 258236.480000
   3495   3498     1   0.15375 251793.120000
   3498   3501     1   0.15110 237065.440000
   3501   3502     1   0.15110 237065.440000
   3501   3512     1   0.15110 237065.440000
   3502   3505     1   0.15375 251793.120000
   3505   3508     1   0.15241 261918.400000
   3508   3509     1   0.12183 533627.360000
   3508   3510     1   0.13513 334803.680000
   3512   3515     1   0.15375 251793.120000
   3515   3518     1   0.15241 261918.400000
   3518   3519     1   0.12183 533627.360000
   3518   3520     1   0.13513 334803.680000
   3524   3527     1   0.15375 251793.120000
   3524   3554     1   0.14316 258236.480000
   3527   3530     1   0.15375 251793.120000
   3530   3533     1   0.15110 237065.440000
   3533   3534     1   0.15110 237065.440000
   3533   3544     1   0.15110 237065.440000
   3534   3537     1   0.15375 251793.120000
   3537   3540     1   0.15241 261918.400000
   3540   3541     1   0.12183 533627.360000
   3540   3542     1   0.13513 334803.680000
   3544   3547     1   0.15375 251793.120000
   3547   3550     1   0.15241 261918.400000
   3550   3551     1   0.12183 533627.360000
   3550   3552     1   0.13513 334803.680000
   3556   3559     1   0.15375 251793.120000
   3556   3586     1   0.14316 258236.480000
   3559   3562     1   0.15375 251793.120000
   3562   3565     1   0.15110 237065.440000
   3565   3566     1   0.15110 237065.440000
   3565   3576     1   0.15110 237065.440000
   3566   3569     1   0.15375 251793.120000
   3569   3572     1   0.15241 261918.400000
   3572   3573     1   0.12183 533627.360000
   3572   3574     1   0.13513 334803.680000
   3576   3579     1   0.15375 251793.120000
   3579   3582     1   0.15241 261918.400000
   3582   3583     1   0.12183 533627.360000
   3582   3584     1   0.13513 334803.680000
   3588   3591     1   0.15375 251793.120000
   3588   3618     1   0.14316 258236.480000
   3591   3594     1   0.15375 251793.120000
   3594   3597     1   0.15110 237065.440000
   3597   3598     1   0.15110 237065.440000
   3597   3608     1   0.15110 237065.440000
   3598   3601     1   0.15375 251793.120000
   3601   3604     1   0.15241 261918.400000
   3604   3605     1   0.12183 533627.360000
   3604   3606     1   0.13513 334803.680000
   3608   3611     1   0.15375 251793.120000
   3611   3614     1   0.15241 261918.400000
   3614   3615     1   0.12183 533627.360000
   3614   3616     1   0.13513 334803.680000
   3620   3623     1   0.15375 251793.120000
   3620   3650     1   0.14316 258236.480000
   3623   3626     1   0.15375 251793.120000
   3626   3629     1   0.15110 237065.440000
   3629   3630     1   0.15110 237065.440000
   3629   3640     1   0.15110 237065.440000
   3630   3633     1   0.15375 251793.120000
   3633   3636     1   0.15241 261918.400000
   3636   3637     1   0.12183 533627.360000
   3636   3638     1   0.13513 334803.680000
   3640   3643     1   0.15375 251793.120000
   3643   3646     1   0.15241 261918.400000
   3646   3647     1   0.12183 533627.360000
   3646   3648     1   0.13513 334803.680000
   3652   3655     1   0.15375 251793.120000
   3652   3682     1   0.14316 258236.480000
   3655   3658     1   0.15375 251793.120000
   3658   3661     1   0.15110 237065.440000
   3661   3662     1   0.15110 237065.440000
   3661   3672     1   0.15110 237065.440000
   3662   3665     1   0.15375 251793.120000
   3665   3668     1   0.15241 261918.400000
   3668   3669     1   0.12183 533627.360000
   3668   3670     1   0.13513 334803.680000
   3672   3675     1   0.15375 251793.120000
   3675   3678     1   0.15241 261918.400000
   3678   3679     1   0.12183 533627.360000
   3678   3680     1   0.13513 334803.680000
   3684   3687     1   0.15375 251793.120000
   3684   3714     1   0.14316 258236.480000
   3687   3690     1   0.15375 251793.120000
   3690   3693     1   0.15110 237065.440000
   3693   3694     1   0.15110 237065.440000
   3693   3704     1   0.15110 237065.440000
   3694   3697     1   0.15375 251793.120000
   3697   3700     1   0.15241 261918.400000
   3700   3701     1   0.12183 533627.360000
   3700   3702     1   0.13513 334803.680000
   3704   3707     1   0.15375 251793.120000
   3707   3710     1   0.15241 261918.400000
   3710   3711     1   0.12183 533627.360000
   3710   3712     1   0.13513 334803.680000
   3716   3719     1   0.15375 251793.120000
   3716   3746     1   0.14316 258236.480000
   3719   3722     1   0.15375 251793.120000
   3722   3725     1   0.15110 237065.440000
   3725   3726     1   0.15110 237065.440000
   3725   3736     1   0.15110 237065.440000
   3726   3729     1   0.15375 251793.120000
   3729   3732     1   0.15241 261918.400000
   3732   3733     1   0.12183 533627.360000
   3732   3734     1   0.13513 334803.680000
   3736   3739     1   0.15375 251793.120000
   3739   3742     1   0.15241 261918.400000
   3742   3743     1   0.12183 533627.360000
   3742   3744     1   0.13513 334803.680000
   3748   3751     1   0.15375 251793.120000
   3748   3778     1   0.14316 258236.480000
   3751   3754     1   0.15375 251793.120000
   3754   3757     1   0.15110 237065.440000
   3757   3758     1   0.15110 237065.440000
   3757   3768     1   0.15110 237065.440000
   3758   3761     1   0.15375 251793.120000
   3761   3764     1   0.15241 261918.400000
   3764   3765     1   0.12183 533627.360000
   3764   3766     1   0.13513 334803.680000
   3768   3771     1   0.15375 251793.120000
   3771   3774     1   0.15241 261918.400000
   3774   3775     1   0.12183 533627.360000
   3774   3776     1   0.13513 334803.680000
   3780   3783     1   0.15375 251793.120000
   3780   3810     1   0.14316 258236.480000
   3783   3786     1   0.15375 251793.120000
   3786   3789     1   0.15110 237065.440000
   3789   3790     1   0.15110 237065.440000
   3789   3800     1   0.15110 237065.440000
   3790   3793     1   0.15375 251793.120000
   3793   3796     1   0.15241 261918.400000
   3796   3797     1   0.12183 533627.360000
   3796   3798     1   0.13513 334803.680000
   3800   3803     1   0.15375 251793.120000
   3803   3806     1   0.15241 261918.400000
   3806   3807     1   0.12183 533627.360000
   3806   3808     1   0.13513 334803.680000
   3812   3815     1   0.15375 251793.120000
   3812   3842     1   0.14316 258236.480000
   3815   3818     1   0.15375 251793.120000
   3818   3821     1   0.15110 237065.440000
   3821   3822     1   0.15110 237065.440000
   3821   3832     1   0.15110 237065.440000
   3822   3825     1   0.15375 251793.120000
   3825   3828     1   0.15241 261918.400000
   3828   3829     1   0.12183 533627.360000
   3828   3830     1   0.13513 334803.680000
   3832   3835     1   0.15375 251793.120000
   3835   3838     1   0.15241 261918.400000
   3838   3839     1   0.12183 533627.360000
   3838   3840     1   0.13513 334803.680000
   3844   3847     1   0.15375 251793.120000
   3844   3874     1   0.14316 258236.480000
   3847   3850     1   0.15375 251793.120000
   3850   3853     1   0.15110 237065.440000
   3853   3854     1   0.15110 237065.440000
   3853   3864     1   0.15110 237065.440000
   3854   3857     1   0.15375 251793.120000
   3857   3860     1   0.15241 261918.400000
   3860   3861     1   0.12183 533627.360000
   3860   3862     1   0.13513 334803.680000
   3864   3867     1   0.15375 251793.120000
   3867   3870     1   0.15241 261918.400000
   3870   3871     1   0.12183 533627.360000
   3870   3872     1   0.13513 334803.680000
   3876   3879     1   0.15375 251793.120000
   3876   3906     1   0.14316 258236.480000
   3879   3882     1   0.15375 251793.120000
   3882   3885     1   0.15110 237065.440000
   3885   3886     1   0.15110 237065.440000
   3885   3896     1   0.15110 237065.440000
   3886   3889     1   0.15375 251793.120000
   3889   3892     1   0.15241 261918.400000
   3892   3893     1   0.12183 533627.360000
   3892   3894     1   0.13513 334803.680000
   3896   3899     1   0.15375 251793.120000
   3899   3902     1   0.15241 261918.400000
   3902   3903     1   0.12183 533627.360000
   3902   3904     1   0.13513 334803.680000
      2      3     1   0.10969 276646.080000
      2      4     1   0.10969 276646.080000
      5      6     1   0.10969 276646.080000
      5      7     1   0.10969 276646.080000
      8      9     1   0.10969 276646.080000
      8     10     1   0.10969 276646.080000
     11     12     1   0.10969 276646.080000
     11     13     1   0.10969 276646.080000
     14     15     1   0.10910 283424.160000
     14     16     1   0.10910 283424.160000
     17     18     1   0.10910 283424.160000
     17     19     1   0.10910 283424.160000
     20     58     1   0.10304 312293.760000
     21     59     1   0.10304 312293.760000
     22     23     1   0.10910 283424.160000
     22     24     1   0.10910 283424.160000
     25     26     1   0.10910 283424.160000
     25     27     1   0.10910 283424.160000
     28     29     1   0.10910 283424.160000
     28     30     1   0.10910 283424.160000
     31     32     1   0.10910 283424.160000
     31     33     1   0.10910 283424.160000
     34     35     1   0.10969 276646.080000
     34     36     1   0.10969 276646.080000
     37     38     1   0.10969 276646.080000
     37     39     1   0.10969 276646.080000
     40     41     1   0.10969 276646.080000
     40     42     1   0.10969 276646.080000
     43     44     1   0.10969 276646.080000
     43     45     1   0.10969 276646.080000
     46     47     1   0.10969 276646.080000
     46     48     1   0.10969 276646.080000
     49     50     1   0.10969 276646.080000
     49     51     1   0.10969 276646.080000
     52     53     1   0.10969 276646.080000
     52     54     1   0.10969 276646.080000
     55     56     1   0.10969 276646.080000
     55     57     1   0.10969 276646.080000
     60     89     1   0.10304 312293.760000
     61     62     1   0.10910 283424.160000
     61     63     1   0.10910 283424.160000
     64     65     1   0.10910 283424.160000
     64     66     1   0.10910 283424.160000
     67     68     1   0.10910 283424.160000
     67     69     1   0.10910 283424.160000
     70     71     1   0.10969 276646.080000
     70     72     1   0.10969 276646.080000
     73     74     1   0.10969 276646.080000
     73     75     1   0.10969 276646.080000
     76     77     1   0.10969 276646.080000
     76     78     1   0.10969 276646.080000
     79     80     1   0.10969 276646.080000
     79     81     1   0.10969 276646.080000
     82     83     1   0.10969 276646.080000
     82     84     1   0.10969 276646.080000
     85     86     1   0.10969 276646.080000
     85     87     1   0.10969 276646.080000
     90    119     1   0.10304 312293.760000
     91     92     1   0.10910 283424.160000
     91     93     1   0.10910 283424.160000
     94     95     1   0.10910 283424.160000
     94     96     1   0.10910 283424.160000
     97     98     1   0.10910 283424.160000
     97     99     1   0.10910 283424.160000
    100    101     1   0.10969 276646.080000
    100    102     1   0.10969 276646.080000
    103    104     1   0.10969 276646.080000
    103    105     1   0.10969 276646.080000
    106    107     1   0.10969 276646.080000
    106    108     1   0.10969 276646.080000
    109    110     1   0.10969 276646.080000
    109    111     1   0.10969 276646.080000
    112    113     1   0.10969 276646.080000
    112    114     1   0.10969 276646.080000
    115    116     1   0.10969 276646.080000
    115    117     1   0.10969 276646.080000
    120    149     1   0.10304 312293.760000
    121    122     1   0.10910 283424.160000
    121    123     1   0.10910 283424.160000
    124    125     1   0.10910 283424.160000
    124    126     1   0.10910 283424.160000
    127    128     1   0.10910 283424.160000
    127    129     1   0.10910 283424.160000
    130    131     1   0.10969 276646.080000
    130    132     1   0.10969 276646.080000
    133    134     1   0.10969 276646.080000
    133    135     1   0.10969 276646.080000
    136    137     1   0.10969 276646.080000
    136    138     1   0.10969 276646.080000
    139    140     1   0.10969 276646.080000
    139    141     1   0.10969 276646.080000
    142    143     1   0.10969 276646.080000
    142    144     1   0.10969 276646.080000
    145    146     1   0.10969 276646.080000
    145    147     1   0.10969 276646.080000
    150    179     1   0.10304 312293.760000
    151    152     1   0.10910 283424.160000
    151    153     1   0.10910 283424.160000
    154    155     1   0.10910 283424.160000
    154    156     1   0.10910 283424.160000
    157    158     1   0.10910 283424.160000
    157    159     1   0.10910 283424.160000
    160    161     1   0.10969 276646.080000
    160    162     1   0.10969 276646.080000
    163    164     1   0.10969 276646.080000
    163    165     1   0.10969 276646.080000
    166    167     1   0.10969 276646.080000
    166    168     1   0.10969 276646.080000
    169    170     1   0.10969 276646.080000
    169    171     1   0.10969 276646.080000
    172    173     1   0.10969 276646.080000
    172    174     1   0.10969 276646.080000
    175    176     1   0.10969 276646.080000
    175    177     1   0.10969 276646.080000
    180    209     1   0.10304 312293.760000
    181    182     1   0.10910 283424.160000
    181    183     1   0.10910 283424.160000
    184    185     1   0.10910 283424.160000
    184    186     1   0.10910 283424.160000
    187    188     1   0.10910 283424.160000
    187    189     1   0.10910 283424.160000
    190    191     1   0.10969 276646.080000
    190    192     1   0.10969 276646.080000
    193    194     1   0.10969 276646.080000
    193    195     1   0.10969 276646.080000
    196    197     1   0.10969 276646.080000
    196    198     1   0.10969 276646.080000
    199    200     1   0.10969 276646.080000
    199    201     1   0.10969 276646.080000
    202    203     1   0.10969 276646.080000
    202    204     1   0.10969 276646.080000
    205    206     1   0.10969 276646.080000
    205    207     1   0.10969 276646.080000
    210    239     1   0.10304 312293.760000
    211    212     1   0.10910 283424.160000
    211    213     1   0.10910 283424.160000
    214    215     1   0.10910 283424.160000
    214    216     1   0.10910 283424.160000
    217    218     1   0.10910 283424.160000
    217    219     1   0.10910 283424.160000
    220    221     1   0.10969 276646.080000
    220    222     1   0.10969 276646.080000
    223    224     1   0.10969 276646.080000
    223    225     1   0.10969 276646.080000
    226    227     1   0.10969 276646.080000
    226    228     1   0.10969 276646.080000
    229    230     1   0.10969 276646.080000
    229    231     1   0.10969 276646.080000
    232    233     1   0.10969 276646.080000
    232    234     1   0.10969 276646.080000
    235    236     1   0.10969 276646.080000
    235    237     1   0.10969 276646.080000
    240    269     1   0.10304 312293.760000
    241    242     1   0.10910 283424.160000
    241    243     1   0.10910 283424.160000
    244    245     1   0.10910 283424.160000
    244    246     1   0.10910 283424.160000
    247    248     1   0.10910 283424.160000
    247    249     1   0.10910 283424.160000
    250    251     1   0.10969 276646.080000
    250    252     1   0.10969 276646.080000
    253    254     1   0.10969 276646.080000
    253    255     1   0.10969 276646.080000
    256    257     1   0.10969 276646.080000
    256    258     1   0.10969 276646.080000
    259    260     1   0.10969 276646.080000
    259    261     1   0.10969 276646.080000
    262    263     1   0.10969 276646.080000
    262    264     1   0.10969 276646.080000
    265    266     1   0.10969 276646.080000
    265    267     1   0.10969 276646.080000
    270    299     1   0.10304 312293.760000
    271    272     1   0.10910 283424.160000
    271    273     1   0.10910 283424.160000
    274    275     1   0.10910 283424.160000
    274    276     1   0.10910 283424.160000
    277    278     1   0.10910 283424.160000
    277    279     1   0.10910 283424.160000
    280    281     1   0.10969 276646.080000
    280    282     1   0.10969 276646.080000
    283    284     1   0.10969 276646.080000
    283    285     1   0.10969 276646.080000
    286    287     1   0.10969 276646.080000
    286    288     1   0.10969 276646.080000
    289    290     1   0.10969 276646.080000
    289    291     1   0.10969 276646.080000
    292    293     1   0.10969 276646.080000
    292    294     1   0.10969 276646.080000
    295    296     1   0.10969 276646.080000
    295    297     1   0.10969 276646.080000
    300    329     1   0.10304 312293.760000
    301    302     1   0.10910 283424.160000
    301    303     1   0.10910 283424.160000
    304    305     1   0.10910 283424.160000
    304    306     1   0.10910 283424.160000
    307    308     1   0.10910 283424.160000
    307    309     1   0.10910 283424.160000
    310    311     1   0.10969 276646.080000
    310    312     1   0.10969 276646.080000
    313    314     1   0.10969 276646.080000
    313    315     1   0.10969 276646.080000
    316    317     1   0.10969 276646.080000
    316    318     1   0.10969 276646.080000
    319    320     1   0.10969 276646.080000
    319    321     1   0.10969 276646.080000
    322    323     1   0.10969 276646.080000
    322    324     1   0.10969 276646.080000
    325    326     1   0.10969 276646.080000
    325    327     1   0.10969 276646.080000
    330    359     1   0.10304 312293.760000
    331    332     1   0.10910 283424.160000
    331    333     1   0.10910 283424.160000
    334    335     1   0.10910 283424.160000
    334    336     1   0.10910 283424.160000
    337    338     1   0.10910 283424.160000
    337    339     1   0.10910 283424.160000
    340    341     1   0.10969 276646.080000
    340    342     1   0.10969 276646.080000
    343    344     1   0.10969 276646.080000
    343    345     1   0.10969 276646.080000
    346    347     1   0.10969 276646.080000
    346    348     1   0.10969 276646.080000
    349    350     1   0.10969 276646.080000
    349    351     1   0.10969 276646.080000
    352    353     1   0.10969 276646.080000
    352    354     1   0.10969 276646.080000
    355    356     1   0.10969 276646.080000
    355    357     1   0.10969 276646.080000
    360    389     1   0.10304 312293.760000
    361    362     1   0.10910 283424.160000
    361    363     1   0.10910 283424.160000
    364    365     1   0.10910 283424.160000
    364    366     1   0.10910 283424.160000
    367    368     1   0.10910 283424.160000
    367    369     1   0.10910 283424.160000
    370    371     1   0.10969 276646.080000
    370    372     1   0.10969 276646.080000
    373    374     1   0.10969 276646.080000
    373    375     1   0.10969 276646.080000
    376    377     1   0.10969 276646.080000
    376    378     1   0.10969 276646.080000
    379    380     1   0.10969 276646.080000
    379    381     1   0.10969 276646.080000
    382    383     1   0.10969 276646.080000
    382    384     1   0.10969 276646.080000
    385    386     1   0.10969 276646.080000
    385    387     1   0.10969 276646.080000
    390    419     1   0.10304 312293.760000
    391    392     1   0.10910 283424.160000
    391    393     1   0.10910 283424.160000
    394    395     1   0.10910 283424.160000
    394    396     1   0.10910 283424.160000
    397    398     1   0.10910 283424.160000
    397    399     1   0.10910 283424.160000
    400    401     1   0.10969 276646.080000
    400    402     1   0.10969 276646.080000
    403    404     1   0.10969 276646.080000
    403    405     1   0.10969 276646.080000
    406    407     1   0.10969 276646.080000
    406    408     1   0.10969 276646.080000
    409    410     1   0.10969 276646.080000
    409    411     1   0.10969 276646.080000
    412    413     1   0.10969 276646.080000
    412    414     1   0.10969 276646.080000
    415    416     1   0.10969 276646.080000
    415    417     1   0.10969 276646.080000
    420    449     1   0.10304 312293.760000
    421    422     1   0.10910 283424.160000
    421    423     1   0.10910 283424.160000
    424    425     1   0.10910 283424.160000
    424    426     1   0.10910 283424.160000
    427    428     1   0.10910 283424.160000
    427    429     1   0.10910 283424.160000
    430    431     1   0.10969 276646.080000
    430    432     1   0.10969 276646.080000
    433    434     1   0.10969 276646.080000
    433    435     1   0.10969 276646.080000
    436    437     1   0.10969 276646.080000
    436    438     1   0.10969 276646.080000
    439    440     1   0.10969 276646.080000
    439    441     1   0.10969 276646.080000
    442    443     1   0.10969 276646.080000
    442    444     1   0.10969 276646.080000
    445    446     1   0.10969 276646.080000
    445    447     1   0.10969 276646.080000
    450    479     1   0.10304 312293.760000
    451    452     1   0.10910 283424.160000
    451    453     1   0.10910 283424.160000
    454    455     1   0.10910 283424.160000
    454    456     1   0.10910 283424.160000
    457    458     1   0.10910 283424.160000
    457    459     1   0.10910 283424.160000
    460    461     1   0.10969 276646.080000
    460    462     1   0.10969 276646.080000
    463    464     1   0.10969 276646.080000
    463    465     1   0.10969 276646.080000
    466    467     1   0.10969 276646.080000
    466    468     1   0.10969 276646.080000
    469    470     1   0.10969 276646.080000
    469    471     1   0.10969 276646.080000
    472    473     1   0.10969 276646.080000
    472    474     1   0.10969 276646.080000
    475    476     1   0.10969 276646.080000
    475    477     1   0.10969 276646.080000
    480    509     1   0.10304 312293.760000
    481    482     1   0.10910 283424.160000
    481    483     1   0.10910 283424.160000
    484    485     1   0.10910 283424.160000
    484    486     1   0.10910 283424.160000
    487    488     1   0.10910 283424.160000
    487    489     1   0.10910 283424.160000
    490    491     1   0.10969 276646.080000
    490    492     1   0.10969 276646.080000
    493    494     1   0.10969 276646.080000
    493    495     1   0.10969 276646.080000
    496    497     1   0.10969 276646.080000
    496    498     1   0.10969 276646.080000
    499    500     1   0.10969 276646.080000
    499    501     1   0.10969 276646.080000
    502    503     1   0.10969 276646.080000
    502    504     1   0.10969 276646.080000
    505    506     1   0.10969 276646.080000
    505    507     1   0.10969 276646.080000
    510    539     1   0.10304 312293.760000
    511    512     1   0.10910 283424.160000
    511    513     1   0.10910 283424.160000
    514    515     1   0.10910 283424.160000
    514    516     1   0.10910 283424.160000
    517    518     1   0.10910 283424.160000
    517    519     1   0.10910 283424.160000
    520    521     1   0.10969 276646.080000
    520    522     1   0.10969 276646.080000
    523    524     1   0.10969 276646.080000
    523    525     1   0.10969 276646.080000
    526    527     1   0.10969 276646.080000
    526    528     1   0.10969 276646.080000
    529    530     1   0.10969 276646.080000
    529    531     1   0.10969 276646.080000
    532    533     1   0.10969 276646.080000
    532    534     1   0.10969 276646.080000
    535    536     1   0.10969 276646.080000
    535    537     1   0.10969 276646.080000
    540    569     1   0.10304 312293.760000
    541    542     1   0.10910 283424.160000
    541    543     1   0.10910 283424.160000
    544    545     1   0.10910 283424.160000
    544    546     1   0.10910 283424.160000
    547    548     1   0.10910 283424.160000
    547    549     1   0.10910 283424.160000
    550    551     1   0.10969 276646.080000
    550    552     1   0.10969 276646.080000
    553    554     1   0.10969 276646.080000
    553    555     1   0.10969 276646.080000
    556    557     1   0.10969 276646.080000
    556    558     1   0.10969 276646.080000
    559    560     1   0.10969 276646.080000
    559    561     1   0.10969 276646.080000
    562    563     1   0.10969 276646.080000
    562    564     1   0.10969 276646.080000
    565    566     1   0.10969 276646.080000
    565    567     1   0.10969 276646.080000
    570    599     1   0.10304 312293.760000
    571    572     1   0.10910 283424.160000
    571    573     1   0.10910 283424.160000
    574    575     1   0.10910 283424.160000
    574    576     1   0.10910 283424.160000
    577    578     1   0.10910 283424.160000
    577    579     1   0.10910 283424.160000
    580    581     1   0.10969 276646.080000
    580    582     1   0.10969 276646.080000
    583    584     1   0.10969 276646.080000
    583    585     1   0.10969 276646.080000
    586    587     1   0.10969 276646.080000
    586    588     1   0.10969 276646.080000
    589    590     1   0.10969 276646.080000
    589    591     1   0.10969 276646.080000
    592    593     1   0.10969 276646.080000
    592    594     1   0.10969 276646.080000
    595    596     1   0.10969 276646.080000
    595    597     1   0.10969 276646.080000
    600    629     1   0.10304 312293.760000
    601    602     1   0.10910 283424.160000
    601    603     1   0.10910 283424.160000
    604    605     1   0.10910 283424.160000
    604    606     1   0.10910 283424.160000
    607    608     1   0.10910 283424.160000
    607    609     1   0.10910 283424.160000
    610    611     1   0.10969 276646.080000
    610    612     1   0.10969 276646.080000
    613    614     1   0.10969 276646.080000
    613    615     1   0.10969 276646.080000
    616    617     1   0.10969 276646.080000
    616    618     1   0.10969 276646.080000
    619    620     1   0.10969 276646.080000
    619    621     1   0.10969 276646.080000
    622    623     1   0.10969 276646.080000
    622    624     1   0.10969 276646.080000
    625    626     1   0.10969 276646.080000
    625    627     1   0.10969 276646.080000
    630    659     1   0.10304 312293.760000
    631    632     1   0.10910 283424.160000
    631    633     1   0.10910 283424.160000
    634    635     1   0.10910 283424.160000
    634    636     1   0.10910 283424.160000
    637    638     1   0.10910 283424.160000
    637    639     1   0.10910 283424.160000
    640    641     1   0.10969 276646.080000
    640    642     1   0.10969 276646.080000
    643    644     1   0.10969 276646.080000
    643    645     1   0.10969 276646.080000
    646    647     1   0.10969 276646.080000
    646    648     1   0.10969 276646.080000
    649    650     1   0.10969 276646.080000
    649    651     1   0.10969 276646.080000
    652    653     1   0.10969 276646.080000
    652    654     1   0.10969 276646.080000
    655    656     1   0.10969 276646.080000
    655    657     1   0.10969 276646.080000
    660    689     1   0.10304 312293.760000
    661    662     1   0.10910 283424.160000
    661    663     1   0.10910 283424.160000
    664    665     1   0.10910 283424.160000
    664    666     1   0.10910 283424.160000
    667    668     1   0.10910 283424.160000
    667    669     1   0.10910 283424.160000
    670    671     1   0.10969 276646.080000
    670    672     1   0.10969 276646.080000
    673    674     1   0.10969 276646.080000
    673    675     1   0.10969 276646.080000
    676    677     1   0.10969 276646.080000
    676    678     1   0.10969 276646.080000
    679    680     1   0.10969 276646.080000
    679    681     1   0.10969 276646.080000
    682    683     1   0.10969 276646.080000
    682    684     1   0.10969 276646.080000
    685    686     1   0.10969 276646.080000
    685    687     1   0.10969 276646.080000
    690    719     1   0.10304 312293.760000
    691    692     1   0.10910 283424.160000
    691    693     1   0.10910 283424.160000
    694    695     1   0.10910 283424.160000
    694    696     1   0.10910 283424.160000
    697    698     1   0.10910 283424.160000
    697    699     1   0.10910 283424.160000
    700    701     1   0.10969 276646.080000
    700    702     1   0.10969 276646.080000
    703    704     1   0.10969 276646.080000
    703    705     1   0.10969 276646.080000
    706    707     1   0.10969 276646.080000
    706    708     1   0.10969 276646.080000
    709    710     1   0.10969 276646.080000
    709    711     1   0.10969 276646.080000
    712    713     1   0.10969 276646.080000
    712    714     1   0.10969 276646.080000
    715    716     1   0.10969 276646.080000
    715    717     1   0.10969 276646.080000
    720    749     1   0.10304 312293.760000
    721    722     1   0.10910 283424.160000
    721    723     1   0.10910 283424.160000
    724    725     1   0.10910 283424.160000
    724    726     1   0.10910 283424.160000
    727    728     1   0.10910 283424.160000
    727    729     1   0.10910 283424.160000
    730    731     1   0.10969 276646.080000
    730    732     1   0.10969 276646.080000
    733    734     1   0.10969 276646.080000
    733    735     1   0.10969 276646.080000
    736    737     1   0.10969 276646.080000
    736    738     1   0.10969 276646.080000
    739    740     1   0.10969 276646.080000
    739    741     1   0.10969 276646.080000
    742    743     1   0.10969 276646.080000
    742    744     1   0.10969 276646.080000
    745    746     1   0.10969 276646.080000
    745    747     1   0.10969 276646.080000
    750    779     1   0.10304 312293.760000
    751    752     1   0.10910 283424.160000
    751    753     1   0.10910 283424.160000
    754    755     1   0.10910 283424.160000
    754    756     1   0.10910 283424.160000
    757    758     1   0.10910 283424.160000
    757    759     1   0.10910 283424.160000
    760    761     1   0.10969 276646.080000
    760    762     1   0.10969 276646.080000
    763    764     1   0.10969 276646.080000
    763    765     1   0.10969 276646.080000
    766    767     1   0.10969 276646.080000
    766    768     1   0.10969 276646.080000
    769    770     1   0.10969 276646.080000
    769    771     1   0.10969 276646.080000
    772    773     1   0.10969 276646.080000
    772    774     1   0.10969 276646.080000
    775    776     1   0.10969 276646.080000
    775    777     1   0.10969 276646.080000
    780    809     1   0.10304 312293.760000
    781    782     1   0.10910 283424.160000
    781    783     1   0.10910 283424.160000
    784    785     1   0.10910 283424.160000
    784    786     1   0.10910 283424.160000
    787    788     1   0.10910 283424.160000
    787    789     1   0.10910 283424.160000
    790    791     1   0.10969 276646.080000
    790    792     1   0.10969 276646.080000
    793    794     1   0.10969 276646.080000
    793    795     1   0.10969 276646.080000
    796    797     1   0.10969 276646.080000
    796    798     1   0.10969 276646.080000
    799    800     1   0.10969 276646.080000
    799    801     1   0.10969 276646.080000
    802    803     1   0.10969 276646.080000
    802    804     1   0.10969 276646.080000
    805    806     1   0.10969 276646.080000
    805    807     1   0.10969 276646.080000
    810    839     1   0.10304 312293.760000
    811    812     1   0.10910 283424.160000
    811    813     1   0.10910 283424.160000
    814    815     1   0.10910 283424.160000
    814    816     1   0.10910 283424.160000
    817    818     1   0.10910 283424.160000
    817    819     1   0.10910 283424.160000
    820    821     1   0.10969 276646.080000
    820    822     1   0.10969 276646.080000
    823    824     1   0.10969 276646.080000
    823    825     1   0.10969 276646.080000
    826    827     1   0.10969 276646.080000
    826    828     1   0.10969 276646.080000
    829    830     1   0.10969 276646.080000
    829    831     1   0.10969 276646.080000
    832    833     1   0.10969 276646.080000
    832    834     1   0.10969 276646.080000
    835    836     1   0.10969 276646.080000
    835    837     1   0.10969 276646.080000
    840    869     1   0.10304 312293.760000
    841    842     1   0.10910 283424.160000
    841    843     1   0.10910 283424.160000
    844    845     1   0.10910 283424.160000
    844    846     1   0.10910 283424.160000
    847    848     1   0.10910 283424.160000
    847    849     1   0.10910 283424.160000
    850    851     1   0.10969 276646.080000
    850    852     1   0.10969 276646.080000
    853    854     1   0.10969 276646.080000
    853    855     1   0.10969 276646.080000
    856    857     1   0.10969 276646.080000
    856    858     1   0.10969 276646.080000
    859    860     1   0.10969 276646.080000
    859    861     1   0.10969 276646.080000
    862    863     1   0.10969 276646.080000
    862    864     1   0.10969 276646.080000
    865    866     1   0.10969 276646.080000
    865    867     1   0.10969 276646.080000
    870    899     1   0.10304 312293.760000
    871    872     1   0.10910 283424.160000
    871    873     1   0.10910 283424.160000
    874    875     1   0.10910 283424.160000
    874    876     1   0.10910 283424.160000
    877    878     1   0.10910 283424.160000
    877    879     1   0.10910 283424.160000
    880    881     1   0.10969 276646.080000
    880    882     1   0.10969 276646.080000
    883    884     1   0.10969 276646.080000
    883    885     1   0.10969 276646.080000
    886    887     1   0.10969 276646.080000
    886    888     1   0.10969 276646.080000
    889    890     1   0.10969 276646.080000
    889    891     1   0.10969 276646.080000
    892    893     1   0.10969 276646.080000
    892    894     1   0.10969 276646.080000
    895    896     1   0.10969 276646.080000
    895    897     1   0.10969 276646.080000
    900    929     1   0.10304 312293.760000
    901    902     1   0.10910 283424.160000
    901    903     1   0.10910 283424.160000
    904    905     1   0.10910 283424.160000
    904    906     1   0.10910 283424.160000
    907    908     1   0.10910 283424.160000
    907    909     1   0.10910 283424.160000
    910    911     1   0.10969 276646.080000
    910    912     1   0.10969 276646.080000
    913    914     1   0.10969 276646.080000
    913    915     1   0.10969 276646.080000
    916    917     1   0.10969 276646.080000
    916    918     1   0.10969 276646.080000
    919    920     1   0.10969 276646.080000
    919    921     1   0.10969 276646.080000
    922    923     1   0.10969 276646.080000
    922    924     1   0.10969 276646.080000
    925    926     1   0.10969 276646.080000
    925    927     1   0.10969 276646.080000
    930    959     1   0.10304 312293.760000
    931    932     1   0.10910 283424.160000
    931    933     1   0.10910 283424.160000
    934    935     1   0.10910 283424.160000
    934    936     1   0.10910 283424.160000
    937    938     1   0.10910 283424.160000
    937    939     1   0.10910 283424.160000
    940    941     1   0.10969 276646.080000
    940    942     1   0.10969 276646.080000
    943    944     1   0.10969 276646.080000
    943    945     1   0.10969 276646.080000
    946    947     1   0.10969 276646.080000
    946    948     1   0.10969 276646.080000
    949    950     1   0.10969 276646.080000
    949    951     1   0.10969 276646.080000
    952    953     1   0.10969 276646.080000
    952    954     1   0.10969 276646.080000
    955    956     1   0.10969 276646.080000
    955    957     1   0.10969 276646.080000
    960    989     1   0.10304 312293.760000
    961    962     1   0.10910 283424.160000
    961    963     1   0.10910 283424.160000
    964    965     1   0.10910 283424.160000
    964    966     1   0.10910 283424.160000
    967    968     1   0.10910 283424.160000
    967    969     1   0.10910 283424.160000
    970    971     1   0.10969 276646.080000
    970    972     1   0.10969 276646.080000
    973    974     1   0.10969 276646.080000
    973    975     1   0.10969 276646.080000
    976    977     1   0.10969 276646.080000
    976    978     1   0.10969 276646.080000
    979    980     1   0.10969 276646.080000
    979    981     1   0.10969 276646.080000
    982    983     1   0.10969 276646.080000
    982    984     1   0.10969 276646.080000
    985    986     1   0.10969 276646.080000
    985    987     1   0.10969 276646.080000
    990   1019     1   0.10304 312293.760000
    991    992     1   0.10910 283424.160000
    991    993     1   0.10910 283424.160000
    994    995     1   0.10910 283424.160000
    994    996     1   0.10910 283424.160000
    997    998     1   0.10910 283424.160000
    997    999     1   0.10910 283424.160000
   1000   1001     1   0.10969 276646.080000
   1000   1002     1   0.10969 276646.080000
   1003   1004     1   0.10969 276646.080000
   1003   1005     1   0.10969 276646.080000
   1006   1007     1   0.10969 276646.080000
   1006   1008     1   0.10969 276646.080000
   1009   1010     1   0.10969 276646.080000
   1009   1011     1   0.10969 276646.080000
   1012   1013     1   0.10969 276646.080000
   1012   1014     1   0.10969 276646.080000
   1015   1016     1   0.10969 276646.080000
   1015   1017     1   0.10969 276646.080000
   1020   1049     1   0.10304 312293.760000
   1021   1022     1   0.10910 283424.160000
   1021   1023     1   0.10910 283424.160000
   1024   1025     1   0.10910 283424.160000
   1024   1026     1   0.10910 283424.160000
   1027   1028     1   0.10910 283424.160000
   1027   1029     1   0.10910 283424.160000
   1030   1031     1   0.10969 276646.080000
   1030   1032     1   0.10969 276646.080000
   1033   1034     1   0.10969 276646.080000
   1033   1035     1   0.10969 276646.080000
   1036   1037     1   0.10969 276646.080000
   1036   1038     1   0.10969 276646.080000
   1039   1040     1   0.10969 276646.080000
   1039   1041     1   0.10969 276646.080000
   1042   1043     1   0.10969 276646.080000
   1042   1044     1   0.10969 276646.080000
   1045   1046     1   0.10969 276646.080000
   1045   1047     1   0.10969 276646.080000
   1050   1079     1   0.10304 312293.760000
   1051   1052     1   0.10910 283424.160000
   1051   1053     1   0.10910 283424.160000
   1054   1055     1   0.10910 283424.160000
   1054   1056     1   0.10910 283424.160000
   1057   1058     1   0.10910 283424.160000
   1057   1059     1   0.10910 283424.160000
   1060   1061     1   0.10969 276646.080000
   1060   1062     1   0.10969 276646.080000
   1063   1064     1   0.10969 276646.080000
   1063   1065     1   0.10969 276646.080000
   1066   1067     1   0.10969 276646.080000
   1066   1068     1   0.10969 276646.080000
   1069   1070     1   0.10969 276646.080000
   1069   1071     1   0.10969 276646.080000
   1072   1073     1   0.10969 276646.080000
   1072   1074     1   0.10969 276646.080000
   1075   1076     1   0.10969 276646.080000
   1075   1077     1   0.10969 276646.080000
   1080   1109     1   0.10304 312293.760000
   1081   1082     1   0.10910 283424.160000
   1081   1083     1   0.10910 283424.160000
   1084   1085     1   0.10910 283424.160000
   1084   1086     1   0.10910 283424.160000
   1087   1088     1   0.10910 283424.160000
   1087   1089     1   0.10910 283424.160000
   1090   1091     1   0.10969 276646.080000
   1090   1092     1   0.10969 276646.080000
   1093   1094     1   0.10969 276646.080000
   1093   1095     1   0.10969 276646.080000
   1096   1097     1   0.10969 276646.080000
   1096   1098     1   0.10969 276646.080000
   1099   1100     1   0.10969 276646.080000
   1099   1101     1   0.10969 276646.080000
   1102   1103     1   0.10969 276646.080000
   1102   1104     1   0.10969 276646.080000
   1105   1106     1   0.10969 276646.080000
   1105   1107     1   0.10969 276646.080000
   1110   1139     1   0.10304 312293.760000
   1111   1112     1   0.10910 283424.160000
   1111   1113     1   0.10910 283424.160000
   1114   1115     1   0.10910 283424.160000
   1114   1116     1   0.10910 283424.160000
   1117   1118     1   0.10910 283424.160000
   1117   1119     1   0.10910 283424.160000
   1120   1121     1   0.10969 276646.080000
   1120   1122     1   0.10969 276646.080000
   1123   1124     1   0.10969 276646.080000
   1123   1125     1   0.10969 276646.080000
   1126   1127     1   0.10969 276646.080000
   1126   1128     1   0.10969 276646.080000
   1129   1130     1   0.10969 276646.080000
   1129   1131     1   0.10969 276646.080000
   1132   1133     1   0.10969 276646.080000
   1132   1134     1   0.10969 276646.080000
   1135   1136     1   0.10969 276646.080000
   1135   1137     1   0.10969 276646.080000
   1140   1169     1   0.10304 312293.760000
   1141   1142     1   0.10910 283424.160000
   1141   1143     1   0.10910 283424.160000
   1144   1145     1   0.10910 283424.160000
   1144   1146     1   0.10910 283424.160000
   1147   1148     1   0.10910 283424.160000
   1147   1149     1   0.10910 283424.160000
   1150   1151     1   0.10969 276646.080000
   1150   1152     1   0.10969 276646.080000
   1153   1154     1   0.10969 276646.080000
   1153   1155     1   0.10969 276646.080000
   1156   1157     1   0.10969 276646.080000
   1156   1158     1   0.10969 276646.080000
   1159   1160     1   0.10969 276646.080000
   1159   1161     1   0.10969 276646.080000
   1162   1163     1   0.10969 276646.080000
   1162   1164     1   0.10969 276646.080000
   1165   1166     1   0.10969 276646.080000
   1165   1167     1   0.10969 276646.080000
   1170   1199     1   0.10304 312293.760000
   1171   1172     1   0.10910 283424.160000
   1171   1173     1   0.10910 283424.160000
   1174   1175     1   0.10910 283424.160000
   1174   1176     1   0.10910 283424.160000
   1177   1178     1   0.10910 283424.160000
   1177   1179     1   0.10910 283424.160000
   1180   1181     1   0.10969 276646.080000
   1180   1182     1   0.10969 276646.080000
   1183   1184     1   0.10969 276646.080000
   1183   1185     1   0.10969 276646.080000
   1186   1187     1   0.10969 276646.080000
   1186   1188     1   0.10969 276646.080000
   1189   1190     1   0.10969 276646.080000
   1189   1191     1   0.10969 276646.080000
   1192   1193     1   0.10969 276646.080000
   1192   1194     1   0.10969 276646.080000
   1195   1196     1   0.10969 276646.080000
   1195   1197     1   0.10969 276646.080000
   1200   1229     1   0.10304 312293.760000
   1201   1202     1   0.10910 283424.160000
   1201   1203     1   0.10910 283424.160000
   1204   1205     1   0.10910 283424.160000
   1204   1206     1   0.10910 283424.160000
   1207   1208     1   0.10910 283424.160000
   1207   1209     1   0.10910 283424.160000
   1210   1211     1   0.10969 276646.080000
   1210   1212     1   0.10969 276646.080000
   1213   1214     1   0.10969 276646.080000
   1213   1215     1   0.10969 276646.080000
   1216   1217     1   0.10969 276646.080000
   1216   1218     1   0.10969 276646.080000
   1219   1220     1   0.10969 276646.080000
   1219   1221     1   0.10969 276646.080000
   1222   1223     1   0.10969 276646.080000
   1222   1224     1   0.10969 276646.080000
   1225   1226     1   0.10969 276646.080000
   1225   1227     1   0.10969 276646.080000
   1230   1259     1   0.10304 312293.760000
   1231   1232     1   0.10910 283424.160000
   1231   1233     1   0.10910 283424.160000
   1234   1235     1   0.10910 283424.160000
   1234   1236     1   0.10910 283424.160000
   1237   1238     1   0.10910 283424.160000
   1237   1239     1   0.10910 283424.160000
   1240   1241     1   0.10969 276646.080000
   1240   1242     1   0.10969 276646.080000
   1243   1244     1   0.10969 276646.080000
   1243   1245     1   0.10969 276646.080000
   1246   1247     1   0.10969 276646.080000
   1246   1248     1   0.10969 276646.080000
   1249   1250     1   0.10969 276646.080000
   1249   1251     1   0.10969 276646.080000
   1252   1253     1   0.10969 276646.080000
   1252   1254     1   0.10969 276646.080000
   1255   1256     1   0.10969 276646.080000
   1255   1257     1   0.10969 276646.080000
   1260   1289     1   0.10304 312293.760000
   1261   1262     1   0.10910 283424.160000
   1261   1263     1   0.10910 283424.160000
   1264   1265     1   0.10910 283424.160000
   1264   1266     1   0.10910 283424.160000
   1267   1268     1   0.10910 283424.160000
   1267   1269     1   0.10910 283424.160000
   1270   1271     1   0.10969 276646.080000
   1270   1272     1   0.10969 276646.080000
   1273   1274     1   0.10969 276646.080000
   1273   1275     1   0.10969 276646.080000
   1276   1277     1   0.10969 276646.080000
   1276   1278     1   0.10969 276646.080000
   1279   1280     1   0.10969 276646.080000
   1279   1281     1   0.10969 276646.080000
   1282   1283     1   0.10969 276646.080000
   1282   1284     1   0.10969 276646.080000
   1285   1286     1   0.10969 276646.080000
   1285   1287     1   0.10969 276646.080000
   1290   1319     1   0.10304 312293.760000
   1291   1292     1   0.10910 283424.160000
   1291   1293     1   0.10910 283424.160000
   1294   1295     1   0.10910 283424.160000
   1294   1296     1   0.10910 283424.160000
   1297   1298     1   0.10910 283424.160000
   1297   1299     1   0.10910 283424.160000
   1300   1301     1   0.10969 276646.080000
   1300   1302     1   0.10969 276646.080000
   1303   1304     1   0.10969 276646.080000
   1303   1305     1   0.10969 276646.080000
   1306   1307     1   0.10969 276646.080000
   1306   1308     1   0.10969 276646.080000
   1309   1310     1   0.10969 276646.080000
   1309   1311     1   0.10969 276646.080000
   1312   1313     1   0.10969 276646.080000
   1312   1314     1   0.10969 276646.080000
   1315   1316     1   0.10969 276646.080000
   1315   1317     1   0.10969 276646.080000
   1320   1349     1   0.10304 312293.760000
   1321   1322     1   0.10910 283424.160000
   1321   1323     1   0.10910 283424.160000
   1324   1325     1   0.10910 283424.160000
   1324   1326     1   0.10910 283424.160000
   1327   1328     1   0.10910 283424.160000
   1327   1329     1   0.10910 283424.160000
   1330   1331     1   0.10969 276646.080000
   1330   1332     1   0.10969 276646.080000
   1333   1334     1   0.10969 276646.080000
   1333   1335     1   0.10969 276646.080000
   1336   1337     1   0.10969 276646.080000
   1336   1338     1   0.10969 276646.080000
   1339   1340     1   0.10969 276646.080000
   1339   1341     1   0.10969 276646.080000
   1342   1343     1   0.10969 276646.080000
   1342   1344     1   0.10969 276646.080000
   1345   1346     1   0.10969 276646.080000
   1345   1347     1   0.10969 276646.080000
   1350   1379     1   0.10304 312293.760000
   1351   1352     1   0.10910 283424.160000
   1351   1353     1   0.10910 283424.160000
   1354   1355     1   0.10910 283424.160000
   1354   1356     1   0.10910 283424.160000
   1357   1358     1   0.10910 283424.160000
   1357   1359     1   0.10910 283424.160000
   1360   1361     1   0.10969 276646.080000
   1360   1362     1   0.10969 276646.080000
   1363   1364     1   0.10969 276646.080000
   1363   1365     1   0.10969 276646.080000
   1366   1367     1   0.10969 276646.080000
   1366   1368     1   0.10969 276646.080000
   1369   1370     1   0.10969 276646.080000
   1369   1371     1   0.10969 276646.080000
   1372   1373     1   0.10969 276646.080000
   1372   1374     1   0.10969 276646.080000
   1375   1376     1   0.10969 276646.080000
   1375   1377     1   0.10969 276646.080000
   1380   1409     1   0.10304 312293.760000
   1381   1382     1   0.10910 283424.160000
   1381   1383     1   0.10910 283424.160000
   1384   1385     1   0.10910 283424.160000
   1384   1386     1   0.10910 283424.160000
   1387   1388     1   0.10910 283424.160000
   1387   1389     1   0.10910 283424.160000
   1390   1391     1   0.10969 276646.080000
   1390   1392     1   0.10969 276646.080000
   1393   1394     1   0.10969 276646.080000
   1393   1395     1   0.10969 276646.080000
   1396   1397     1   0.10969 276646.080000
   1396   1398     1   0.10969 276646.080000
   1399   1400     1   0.10969 276646.080000
   1399   1401     1   0.10969 276646.080000
   1402   1403     1   0.10969 276646.080000
   1402   1404     1   0.10969 276646.080000
   1405   1406     1   0.10969 276646.080000
   1405   1407     1   0.10969 276646.080000
   1410   1439     1   0.10304 312293.760000
   1411   1412     1   0.10910 283424.160000
   1411   1413     1   0.10910 283424.160000
   1414   1415     1   0.10910 283424.160000
   1414   1416     1   0.10910 283424.160000
   1417   1418     1   0.10910 283424.160000
   1417   1419     1   0.10910 283424.160000
   1420   1421     1   0.10969 276646.080000
   1420   1422     1   0.10969 276646.080000
   1423   1424     1   0.10969 276646.080000
   1423   1425     1   0.10969 276646.080000
   1426   1427     1   0.10969 276646.080000
   1426   1428     1   0.10969 276646.080000
   1429   1430     1   0.10969 276646.080000
   1429   1431     1   0.10969 276646.080000
   1432   1433     1   0.10969 276646.080000
   1432   1434     1   0.10969 276646.080000
   1435   1436     1   0.10969 276646.080000
   1435   1437     1   0.10969 276646.080000
   1440   1469     1   0.10304 312293.760000
   1441   1442     1   0.10910 283424.160000
   1441   1443     1   0.10910 283424.160000
   1444   1445     1   0.10910 283424.160000
   1444   1446     1   0.10910 283424.160000
   1447   1448     1   0.10910 283424.160000
   1447   1449     1   0.10910 283424.160000
   1450   1451     1   0.10969 276646.080000
   1450   1452     1   0.10969 276646.080000
   1453   1454     1   0.10969 276646.080000
   1453   1455     1   0.10969 276646.080000
   1456   1457     1   0.10969 276646.080000
   1456   1458     1   0.10969 276646.080000
   1459   1460     1   0.10969 276646.080000
   1459   1461     1   0.10969 276646.080000
   1462   1463     1   0.10969 276646.080000
   1462   1464     1   0.10969 276646.080000
   1465   1466     1   0.10969 276646.080000
   1465   1467     1   0.10969 276646.080000
   1470   1499     1   0.10304 312293.760000
   1471   1472     1   0.10910 283424.160000
   1471   1473     1   0.10910 283424.160000
   1474   1475     1   0.10910 283424.160000
   1474   1476     1   0.10910 283424.160000
   1477   1478     1   0.10910 283424.160000
   1477   1479     1   0.10910 283424.160000
   1480   1481     1   0.10969 276646.080000
   1480   1482     1   0.10969 276646.080000
   1483   1484     1   0.10969 276646.080000
   1483   1485     1   0.10969 276646.080000
   1486   1487     1   0.10969 276646.080000
   1486   1488     1   0.10969 276646.080000
   1489   1490     1   0.10969 276646.080000
   1489   1491     1   0.10969 276646.080000
   1492   1493     1   0.10969 276646.080000
   1492   1494     1   0.10969 276646.080000
   1495   1496     1   0.10969 276646.080000
   1495   1497     1   0.10969 276646.080000
   1500   1529     1   0.10304 312293.760000
   1501   1502     1   0.10910 283424.160000
   1501   1503     1   0.10910 283424.160000
   1504   1505     1   0.10910 283424.160000
   1504   1506     1   0.10910 283424.160000
   1507   1508     1   0.10910 283424.160000
   1507   1509     1   0.10910 283424.160000
   1510   1511     1   0.10969 276646.080000
   1510   1512     1   0.10969 276646.080000
   1513   1514     1   0.10969 276646.080000
   1513   1515     1   0.10969 276646.080000
   1516   1517     1   0.10969 276646.080000
   1516   1518     1   0.10969 276646.080000
   1519   1520     1   0.10969 276646.080000
   1519   1521     1   0.10969 276646.080000
   1522   1523     1   0.10969 276646.080000
   1522   1524     1   0.10969 276646.080000
   1525   1526     1   0.10969 276646.080000
   1525   1527     1   0.10969 276646.080000
   1530   1559     1   0.10304 312293.760000
   1531   1532     1   0.10910 283424.160000
   1531   1533     1   0.10910 283424.160000
   1534   1535     1   0.10910 283424.160000
   1534   1536     1   0.10910 283424.160000
   1537   1538     1   0.10910 283424.160000
   1537   1539     1   0.10910 283424.160000
   1540   1541     1   0.10969 276646.080000
   1540   1542     1   0.10969 276646.080000
   1543   1544     1   0.10969 276646.080000
   1543   1545     1   0.10969 276646.080000
   1546   1547     1   0.10969 276646.080000
   1546   1548     1   0.10969 276646.080000
   1549   1550     1   0.10969 276646.080000
   1549   1551     1   0.10969 276646.080000
   1552   1553     1   0.10969 276646.080000
   1552   1554     1   0.10969 276646.080000
   1555   1556     1   0.10969 276646.080000
   1555   1557     1   0.10969 276646.080000
   1560   1589     1   0.10304 312293.760000
   1561   1562     1   0.10910 283424.160000
   1561   1563     1   0.10910 283424.160000
   1564   1565     1   0.10910 283424.160000
   1564   1566     1   0.10910 283424.160000
   1567   1568     1   0.10910 283424.160000
   1567   1569     1   0.10910 283424.160000
   1570   1571     1   0.10969 276646.080000
   1570   1572     1   0.10969 276646.080000
   1573   1574     1   0.10969 276646.080000
   1573   1575     1   0.10969 276646.080000
   1576   1577     1   0.10969 276646.080000
   1576   1578     1   0.10969 276646.080000
   1579   1580     1   0.10969 276646.080000
   1579   1581     1   0.10969 276646.080000
   1582   1583     1   0.10969 276646.080000
   1582   1584     1   0.10969 276646.080000
   1585   1586     1   0.10969 276646.080000
   1585   1587     1   0.10969 276646.080000
   1590   1619     1   0.10304 312293.760000
   1591   1592     1   0.10910 283424.160000
   1591   1593     1   0.10910 283424.160000
   1594   1595     1   0.10910 283424.160000
   1594   1596     1   0.10910 283424.160000
   1597   1598     1   0.10910 283424.160000
   1597   1599     1   0.10910 283424.160000
   1600   1601     1   0.10969 276646.080000
   1600   1602     1   0.10969 276646.080000
   1603   1604     1   0.10969 276646.080000
   1603   1605     1   0.10969 276646.080000
   1606   1607     1   0.10969 276646.080000
   1606   1608     1   0.10969 276646.080000
   1609   1610     1   0.10969 276646.080000
   1609   1611     1   0.10969 276646.080000
   1612   1613     1   0.10969 276646.080000
   1612   1614     1   0.10969 276646.080000
   1615   1616     1   0.10969 276646.080000
   1615   1617     1   0.10969 276646.080000
   1620   1649     1   0.10304 312293.760000
   1621   1622     1   0.10910 283424.160000
   1621   1623     1   0.10910 283424.160000
   1624   1625     1   0.10910 283424.160000
   1624   1626     1   0.10910 283424.160000
   1627   1628     1   0.10910 283424.160000
   1627   1629     1   0.10910 283424.160000
   1630   1631     1   0.10969 276646.080000
   1630   1632     1   0.10969 276646.080000
   1633   1634     1   0.10969 276646.080000
   1633   1635     1   0.10969 276646.080000
   1636   1637     1   0.10969 276646.080000
   1636   1638     1   0.10969 276646.080000
   1639   1640     1   0.10969 276646.080000
   1639   1641     1   0.10969 276646.080000
   1642   1643     1   0.10969 276646.080000
   1642   1644     1   0.10969 276646.080000
   1645   1646     1   0.10969 276646.080000
   1645   1647     1   0.10969 276646.080000
   1650   1679     1   0.10304 312293.760000
   1651   1652     1   0.10910 283424.160000
   1651   1653     1   0.10910 283424.160000
   1654   1655     1   0.10910 283424.160000
   1654   1656     1   0.10910 283424.160000
   1657   1658     1   0.10910 283424.160000
   1657   1659     1   0.10910 283424.160000
   1660   1661     1   0.10969 276646.080000
   1660   1662     1   0.10969 276646.080000
   1663   1664     1   0.10969 276646.080000
   1663   1665     1   0.10969 276646.080000
   1666   1667     1   0.10969 276646.080000
   1666   1668     1   0.10969 276646.080000
   1669   1670     1   0.10969 276646.080000
   1669   1671     1   0.10969 276646.080000
   1672   1673     1   0.10969 276646.080000
   1672   1674     1   0.10969 276646.080000
   1675   1676     1   0.10969 276646.080000
   1675   1677     1   0.10969 276646.080000
   1680   1709     1   0.10304 312293.760000
   1681   1682     1   0.10910 283424.160000
   1681   1683     1   0.10910 283424.160000
   1684   1685     1   0.10910 283424.160000
   1684   1686     1   0.10910 283424.160000
   1687   1688     1   0.10910 283424.160000
   1687   1689     1   0.10910 283424.160000
   1690   1691     1   0.10969 276646.080000
   1690   1692     1   0.10969 276646.080000
   1693   1694     1   0.10969 276646.080000
   1693   1695     1   0.10969 276646.080000
   1696   1697     1   0.10969 276646.080000
   1696   1698     1   0.10969 276646.080000
   1699   1700     1   0.10969 276646.080000
   1699   1701     1   0.10969 276646.080000
   1702   1703     1   0.10969 276646.080000
   1702   1704     1   0.10969 276646.080000
   1705   1706     1   0.10969 276646.080000
   1705   1707     1   0.10969 276646.080000
   1710   1739     1   0.10304 312293.760000
   1711   1712     1   0.10910 283424.160000
   1711   1713     1   0.10910 283424.160000
   1714   1715     1   0.10910 283424.160000
   1714   1716     1   0.10910 283424.160000
   1717   1718     1   0.10910 283424.160000
   1717   1719     1   0.10910 283424.160000
   1720   1721     1   0.10969 276646.080000
   1720   1722     1   0.10969 276646.080000
   1723   1724     1   0.10969 276646.080000
   1723   1725     1   0.10969 276646.080000
   1726   1727     1   0.10969 276646.080000
   1726   1728     1   0.10969 276646.080000
   1729   1730     1   0.10969 276646.080000
   1729   1731     1   0.10969 276646.080000
   1732   1733     1   0.10969 276646.080000
   1732   1734     1   0.10969 276646.080000
   1735   1736     1   0.10969 276646.080000
   1735   1737     1   0.10969 276646.080000
   1740   1769     1   0.10304 312293.760000
   1741   1742     1   0.10910 283424.160000
   1741   1743     1   0.10910 283424.160000
   1744   1745     1   0.10910 283424.160000
   1744   1746     1   0.10910 283424.160000
   1747   1748     1   0.10910 283424.160000
   1747   1749     1   0.10910 283424.160000
   1750   1751     1   0.10969 276646.080000
   1750   1752     1   0.10969 276646.080000
   1753   1754     1   0.10969 276646.080000
   1753   1755     1   0.10969 276646.080000
   1756   1757     1   0.10969 276646.080000
   1756   1758     1   0.10969 276646.080000
   1759   1760     1   0.10969 276646.080000
   1759   1761     1   0.10969 276646.080000
   1762   1763     1   0.10969 276646.080000
   1762   1764     1   0.10969 276646.080000
   1765   1766     1   0.10969 276646.080000
   1765   1767     1   0.10969 276646.080000
   1770   1799     1   0.10304 312293.760000
   1771   1772     1   0.10910 283424.160000
   1771   1773     1   0.10910 283424.160000
   1774   1775     1   0.10910 283424.160000
   1774   1776     1   0.10910 283424.160000
   1777   1778     1   0.10910 283424.160000
   1777   1779     1   0.10910 283424.160000
   1780   1781     1   0.10969 276646.080000
   1780   1782     1   0.10969 276646.080000
   1783   1784     1   0.10969 276646.080000
   1783   1785     1   0.10969 276646.080000
   1786   1787     1   0.10969 276646.080000
   1786   1788     1   0.10969 276646.080000
   1789   1790     1   0.10969 276646.080000
   1789   1791     1   0.10969 276646.080000
   1792   1793     1   0.10969 276646.080000
   1792   1794     1   0.10969 276646.080000
   1795   1796     1   0.10969 276646.080000
   1795   1797     1   0.10969 276646.080000
   1800   1829     1   0.10304 312293.760000
   1801   1802     1   0.10910 283424.160000
   1801   1803     1   0.10910 283424.160000
   1804   1805     1   0.10910 283424.160000
   1804   1806     1   0.10910 283424.160000
   1807   1808     1   0.10910 283424.160000
   1807   1809     1   0.10910 283424.160000
   1810   1811     1   0.10969 276646.080000
   1810   1812     1   0.10969 276646.080000
   1813   1814     1   0.10969 276646.080000
   1813   1815     1   0.10969 276646.080000
   1816   1817     1   0.10969 276646.080000
   1816   1818     1   0.10969 276646.080000
   1819   1820     1   0.10969 276646.080000
   1819   1821     1   0.10969 276646.080000
   1822   1823     1   0.10969 276646.080000
   1822   1824     1   0.10969 276646.080000
   1825   1826     1   0.10969 276646.080000
   1825   1827     1   0.10969 276646.080000
   1830   1859     1   0.10304 312293.760000
   1831   1832     1   0.10910 283424.160000
   1831   1833     1   0.10910 283424.160000
   1834   1835     1   0.10910 283424.160000
   1834   1836     1   0.10910 283424.160000
   1837   1838     1   0.10910 283424.160000
   1837   1839     1   0.10910 283424.160000
   1840   1841     1   0.10969 276646.080000
   1840   1842     1   0.10969 276646.080000
   1843   1844     1   0.10969 276646.080000
   1843   1845     1   0.10969 276646.080000
   1846   1847     1   0.10969 276646.080000
   1846   1848     1   0.10969 276646.080000
   1849   1850     1   0.10969 276646.080000
   1849   1851     1   0.10969 276646.080000
   1852   1853     1   0.10969 276646.080000
   1852   1854     1   0.10969 276646.080000
   1855   1856     1   0.10969 276646.080000
   1855   1857     1   0.10969 276646.080000
   1860   1861     1   0.10969 276646.080000
   1860   1862     1   0.10969 276646.080000
   1863   1864     1   0.10969 276646.080000
   1863   1865     1   0.10969 276646.080000
   1866   1867     1   0.10910 283424.160000
   1866   1868     1   0.10910 283424.160000
   1869   1891     1   0.10304 312293.760000
   1870   1871     1   0.10910 283424.160000
   1870   1872     1   0.10910 283424.160000
   1873   1874     1   0.10969 276646.080000
   1873   1875     1   0.10969 276646.080000
   1878   1879     1   0.09730 310787.520000
   1880   1881     1   0.10910 283424.160000
   1880   1882     1   0.10910 283424.160000
   1883   1884     1   0.10969 276646.080000
   1883   1885     1   0.10969 276646.080000
   1888   1889     1   0.09730 310787.520000
   1892   1893     1   0.10969 276646.080000
   1892   1894     1   0.10969 276646.080000
   1895   1896     1   0.10969 276646.080000
   1895   1897     1   0.10969 276646.080000
   1898   1899     1   0.10910 283424.160000
   1898   1900     1   0.10910 283424.160000
   1901   1923     1   0.10304 312293.760000
   1902   1903     1   0.10910 283424.160000
   1902   1904     1   0.10910 283424.160000
   1905   1906     1   0.10969 276646.080000
   1905   1907     1   0.10969 276646.080000
   1910   1911     1   0.09730 310787.520000
   1912   1913     1   0.10910 283424.160000
   1912   1914     1   0.10910 283424.160000
   1915   1916     1   0.10969 276646.080000
   1915   1917     1   0.10969 276646.080000
   1920   1921     1   0.09730 310787.520000
   1924   1925     1   0.10969 276646.080000
   1924   1926     1   0.10969 276646.080000
   1927   1928     1   0.10969 276646.080000
   1927   1929     1   0.10969 276646.080000
   1930   1931     1   0.10910 283424.160000
   1930   1932     1   0.10910 283424.160000
   1933   1955     1   0.10304 312293.760000
   1934   1935     1   0.10910 283424.160000
   1934   1936     1   0.10910 283424.160000
   1937   1938     1   0.10969 276646.080000
   1937   1939     1   0.10969 276646.080000
   1942   1943     1   0.09730 310787.520000
   1944   1945     1   0.10910 283424.160000
   1944   1946     1   0.10910 283424.160000
   1947   1948     1   0.10969 276646.080000
   1947   1949     1   0.10969 276646.080000
   1952   1953     1   0.09730 310787.520000
   1956   1957     1   0.10969 276646.080000
   1956   1958     1   0.10969 276646.080000
   1959   1960     1   0.10969 276646.080000
   1959   1961     1   0.10969 276646.080000
   1962   1963     1   0.10910 283424.160000
   1962   1964     1   0.10910 283424.160000
   1965   1987     1   0.10304 312293.760000
   1966   1967     1   0.10910 283424.160000
   1966   1968     1   0.10910 283424.160000
   1969   1970     1   0.10969 276646.080000
   1969   1971     1   0.10969 276646.080000
   1974   1975     1   0.09730 310787.520000
   1976   1977     1   0.10910 283424.160000
   1976   1978     1   0.10910 283424.160000
   1979   1980     1   0.10969 276646.080000
   1979   1981     1   0.10969 276646.080000
   1984   1985     1   0.09730 310787.520000
   1988   1989     1   0.10969 276646.080000
   1988   1990     1   0.10969 276646.080000
   1991   1992     1   0.10969 276646.080000
   1991   1993     1   0.10969 276646.080000
   1994   1995     1   0.10910 283424.160000
   1994   1996     1   0.10910 283424.160000
   1997   2019     1   0.10304 312293.760000
   1998   1999     1   0.10910 283424.160000
   1998   2000     1   0.10910 283424.160000
   2001   2002     1   0.10969 276646.080000
   2001   2003     1   0.10969 276646.080000
   2006   2007     1   0.09730 310787.520000
   2008   2009     1   0.10910 283424.160000
   2008   2010     1   0.10910 283424.160000
   2011   2012     1   0.10969 276646.080000
   2011   2013     1   0.10969 276646.080000
   2016   2017     1   0.09730 310787.520000
   2020   2021     1   0.10969 276646.080000
   2020   2022     1   0.10969 276646.080000
   2023   2024     1   0.10969 276646.080000
   2023   2025     1   0.10969 276646.080000
   2026   2027     1   0.10910 283424.160000
   2026   2028     1   0.10910 283424.160000
   2029   2051     1   0.10304 312293.760000
   2030   2031     1   0.10910 283424.160000
   2030   2032     1   0.10910 283424.160000
   2033   2034     1   0.10969 276646.080000
   2033   2035     1   0.10969 276646.080000
   2038   2039     1   0.09730 310787.520000
   2040   2041     1   0.10910 283424.160000
   2040   2042     1   0.10910 283424.160000
   2043   2044     1   0.10969 276646.080000
   2043   2045     1   0.10969 276646.080000
   2048   2049     1   0.09730 310787.520000
   2052   2053     1   0.10969 276646.080000
   2052   2054     1   0.10969 276646.080000
   2055   2056     1   0.10969 276646.080000
   2055   2057     1   0.10969 276646.080000
   2058   2059     1   0.10910 283424.160000
   2058   2060     1   0.10910 283424.160000
   2061   2083     1   0.10304 312293.760000
   2062   2063     1   0.10910 283424.160000
   2062   2064     1   0.10910 283424.160000
   2065   2066     1   0.10969 276646.080000
   2065   2067     1   0.10969 276646.080000
   2070   2071     1   0.09730 310787.520000
   2072   2073     1   0.10910 283424.160000
   2072   2074     1   0.10910 283424.160000
   2075   2076     1   0.10969 276646.080000
   2075   2077     1   0.10969 276646.080000
   2080   2081     1   0.09730 310787.520000
   2084   2085     1   0.10969 276646.080000
   2084   2086     1   0.10969 276646.080000
   2087   2088     1   0.10969 276646.080000
   2087   2089     1   0.10969 276646.080000
   2090   2091     1   0.10910 283424.160000
   2090   2092     1   0.10910 283424.160000
   2093   2115     1   0.10304 312293.760000
   2094   2095     1   0.10910 283424.160000
   2094   2096     1   0.10910 283424.160000
   2097   2098     1   0.10969 276646.080000
   2097   2099     1   0.10969 276646.080000
   2102   2103     1   0.09730 310787.520000
   2104   2105     1   0.10910 283424.160000
   2104   2106     1   0.10910 283424.160000
   2107   2108     1   0.10969 276646.080000
   2107   2109     1   0.10969 276646.080000
   2112   2113     1   0.09730 310787.520000
   2116   2117     1   0.10969 276646.080000
   2116   2118     1   0.10969 276646.080000
   2119   2120     1   0.10969 276646.080000
   2119   2121     1   0.10969 276646.080000
   2122   2123     1   0.10910 283424.160000
   2122   2124     1   0.10910 283424.160000
   2125   2147     1   0.10304 312293.760000
   2126   2127     1   0.10910 283424.160000
   2126   2128     1   0.10910 283424.160000
   2129   2130     1   0.10969 276646.080000
   2129   2131     1   0.10969 276646.080000
   2134   2135     1   0.09730 310787.520000
   2136   2137     1   0.10910 283424.160000
   2136   2138     1   0.10910 283424.160000
   2139   2140     1   0.10969 276646.080000
   2139   2141     1   0.10969 276646.080000
   2144   2145     1   0.09730 310787.520000
   2148   2149     1   0.10969 276646.080000
   2148   2150     1   0.10969 276646.080000
   2151   2152     1   0.10969 276646.080000
   2151   2153     1   0.10969 276646.080000
   2154   2155     1   0.10910 283424.160000
   2154   2156     1   0.10910 283424.160000
   2157   2179     1   0.10304 312293.760000
   2158   2159     1   0.10910 283424.160000
   2158   2160     1   0.10910 283424.160000
   2161   2162     1   0.10969 276646.080000
   2161   2163     1   0.10969 276646.080000
   2166   2167     1   0.09730 310787.520000
   2168   2169     1   0.10910 283424.160000
   2168   2170     1   0.10910 283424.160000
   2171   2172     1   0.10969 276646.080000
   2171   2173     1   0.10969 276646.080000
   2176   2177     1   0.09730 310787.520000
   2180   2181     1   0.10969 276646.080000
   2180   2182     1   0.10969 276646.080000
   2183   2184     1   0.10969 276646.080000
   2183   2185     1   0.10969 276646.080000
   2186   2187     1   0.10910 283424.160000
   2186   2188     1   0.10910 283424.160000
   2189   2211     1   0.10304 312293.760000
   2190   2191     1   0.10910 283424.160000
   2190   2192     1   0.10910 283424.160000
   2193   2194     1   0.10969 276646.080000
   2193   2195     1   0.10969 276646.080000
   2198   2199     1   0.09730 310787.520000
   2200   2201     1   0.10910 283424.160000
   2200   2202     1   0.10910 283424.160000
   2203   2204     1   0.10969 276646.080000
   2203   2205     1   0.10969 276646.080000
   2208   2209     1   0.09730 310787.520000
   2212   2213     1   0.10969 276646.080000
   2212   2214     1   0.10969 276646.080000
   2215   2216     1   0.10969 276646.080000
   2215   2217     1   0.10969 276646.080000
   2218   2219     1   0.10910 283424.160000
   2218   2220     1   0.10910 283424.160000
   2221   2243     1   0.10304 312293.760000
   2222   2223     1   0.10910 283424.160000
   2222   2224     1   0.10910 283424.160000
   2225   2226     1   0.10969 276646.080000
   2225   2227     1   0.10969 276646.080000
   2230   2231     1   0.09730 310787.520000
   2232   2233     1   0.10910 283424.160000
   2232   2234     1   0.10910 283424.160000
   2235   2236     1   0.10969 276646.080000
   2235   2237     1   0.10969 276646.080000
   2240   2241     1   0.09730 310787.520000
   2244   2245     1   0.10969 276646.080000
   2244   2246     1   0.10969 276646.080000
   2247   2248     1   0.10969 276646.080000
   2247   2249     1   0.10969 276646.080000
   2250   2251     1   0.10910 283424.160000
   2250   2252     1   0.10910 283424.160000
   2253   2275     1   0.10304 312293.760000
   2254   2255     1   0.10910 283424.160000
   2254   2256     1   0.10910 283424.160000
   2257   2258     1   0.10969 276646.080000
   2257   2259     1   0.10969 276646.080000
   2262   2263     1   0.09730 310787.520000
   2264   2265     1   0.10910 283424.160000
   2264   2266     1   0.10910 283424.160000
   2267   2268     1   0.10969 276646.080000
   2267   2269     1   0.10969 276646.080000
   2272   2273     1   0.09730 310787.520000
   2276   2277     1   0.10969 276646.080000
   2276   2278     1   0.10969 276646.080000
   2279   2280     1   0.10969 276646.080000
   2279   2281     1   0.10969 276646.080000
   2282   2283     1   0.10910 283424.160000
   2282   2284     1   0.10910 283424.160000
   2285   2307     1   0.10304 312293.760000
   2286   2287     1   0.10910 283424.160000
   2286   2288     1   0.10910 283424.160000
   2289   2290     1   0.10969 276646.080000
   2289   2291     1   0.10969 276646.080000
   2294   2295     1   0.09730 310787.520000
   2296   2297     1   0.10910 283424.160000
   2296   2298     1   0.10910 283424.160000
   2299   2300     1   0.10969 276646.080000
   2299   2301     1   0.10969 276646.080000
   2304   2305     1   0.09730 310787.520000
   2308   2309     1   0.10969 276646.080000
   2308   2310     1   0.10969 276646.080000
   2311   2312     1   0.10969 276646.080000
   2311   2313     1   0.10969 276646.080000
   2314   2315     1   0.10910 283424.160000
   2314   2316     1   0.10910 283424.160000
   2317   2339     1   0.10304 312293.760000
   2318   2319     1   0.10910 283424.160000
   2318   2320     1   0.10910 283424.160000
   2321   2322     1   0.10969 276646.080000
   2321   2323     1   0.10969 276646.080000
   2326   2327     1   0.09730 310787.520000
   2328   2329     1   0.10910 283424.160000
   2328   2330     1   0.10910 283424.160000
   2331   2332     1   0.10969 276646.080000
   2331   2333     1   0.10969 276646.080000
   2336   2337     1   0.09730 310787.520000
   2340   2341     1   0.10969 276646.080000
   2340   2342     1   0.10969 276646.080000
   2343   2344     1   0.10969 276646.080000
   2343   2345     1   0.10969 276646.080000
   2346   2347     1   0.10910 283424.160000
   2346   2348     1   0.10910 283424.160000
   2349   2371     1   0.10304 312293.760000
   2350   2351     1   0.10910 283424.160000
   2350   2352     1   0.10910 283424.160000
   2353   2354     1   0.10969 276646.080000
   2353   2355     1   0.10969 276646.080000
   2358   2359     1   0.09730 310787.520000
   2360   2361     1   0.10910 283424.160000
   2360   2362     1   0.10910 283424.160000
   2363   2364     1   0.10969 276646.080000
   2363   2365     1   0.10969 276646.080000
   2368   2369     1   0.09730 310787.520000
   2372   2373     1   0.10969 276646.080000
   2372   2374     1   0.10969 276646.080000
   2375   2376     1   0.10969 276646.080000
   2375   2377     1   0.10969 276646.080000
   2378   2379     1   0.10910 283424.160000
   2378   2380     1   0.10910 283424.160000
   2381   2403     1   0.10304 312293.760000
   2382   2383     1   0.10910 283424.160000
   2382   2384     1   0.10910 283424.160000
   2385   2386     1   0.10969 276646.080000
   2385   2387     1   0.10969 276646.080000
   2390   2391     1   0.09730 310787.520000
   2392   2393     1   0.10910 283424.160000
   2392   2394     1   0.10910 283424.160000
   2395   2396     1   0.10969 276646.080000
   2395   2397     1   0.10969 276646.080000
   2400   2401     1   0.09730 310787.520000
   2404   2405     1   0.10969 276646.080000
   2404   2406     1   0.10969 276646.080000
   2407   2408     1   0.10969 276646.080000
   2407   2409     1   0.10969 276646.080000
   2410   2411     1   0.10910 283424.160000
   2410   2412     1   0.10910 283424.160000
   2413   2435     1   0.10304 312293.760000
   2414   2415     1   0.10910 283424.160000
   2414   2416     1   0.10910 283424.160000
   2417   2418     1   0.10969 276646.080000
   2417   2419     1   0.10969 276646.080000
   2422   2423     1   0.09730 310787.520000
   2424   2425     1   0.10910 283424.160000
   2424   2426     1   0.10910 283424.160000
   2427   2428     1   0.10969 276646.080000
   2427   2429     1   0.10969 276646.080000
   2432   2433     1   0.09730 310787.520000
   2436   2437     1   0.10969 276646.080000
   2436   2438     1   0.10969 276646.080000
   2439   2440     1   0.10969 276646.080000
   2439   2441     1   0.10969 276646.080000
   2442   2443     1   0.10910 283424.160000
   2442   2444     1   0.10910 283424.160000
   2445   2467     1   0.10304 312293.760000
   2446   2447     1   0.10910 283424.160000
   2446   2448     1   0.10910 283424.160000
   2449   2450     1   0.10969 276646.080000
   2449   2451     1   0.10969 276646.080000
   2454   2455     1   0.09730 310787.520000
   2456   2457     1   0.10910 283424.160000
   2456   2458     1   0.10910 283424.160000
   2459   2460     1   0.10969 276646.080000
   2459   2461     1   0.10969 276646.080000
   2464   2465     1   0.09730 310787.520000
   2468   2469     1   0.10969 276646.080000
   2468   2470     1   0.10969 276646.080000
   2471   2472     1   0.10969 276646.080000
   2471   2473     1   0.10969 276646.080000
   2474   2475     1   0.10910 283424.160000
   2474   2476     1   0.10910 283424.160000
   2477   2499     1   0.10304 312293.760000
   2478   2479     1   0.10910 283424.160000
   2478   2480     1   0.10910 283424.160000
   2481   2482     1   0.10969 276646.080000
   2481   2483     1   0.10969 276646.080000
   2486   2487     1   0.09730 310787.520000
   2488   2489     1   0.10910 283424.160000
   2488   2490     1   0.10910 283424.160000
   2491   2492     1   0.10969 276646.080000
   2491   2493     1   0.10969 276646.080000
   2496   2497     1   0.09730 310787.520000
   2500   2501     1   0.10969 276646.080000
   2500   2502     1   0.10969 276646.080000
   2503   2504     1   0.10969 276646.080000
   2503   2505     1   0.10969 276646.080000
   2506   2507     1   0.10910 283424.160000
   2506   2508     1   0.10910 283424.160000
   2509   2531     1   0.10304 312293.760000
   2510   2511     1   0.10910 283424.160000
   2510   2512     1   0.10910 283424.160000
   2513   2514     1   0.10969 276646.080000
   2513   2515     1   0.10969 276646.080000
   2518   2519     1   0.09730 310787.520000
   2520   2521     1   0.10910 283424.160000
   2520   2522     1   0.10910 283424.160000
   2523   2524     1   0.10969 276646.080000
   2523   2525     1   0.10969 276646.080000
   2528   2529     1   0.09730 310787.520000
   2532   2533     1   0.10969 276646.080000
   2532   2534     1   0.10969 276646.080000
   2535   2536     1   0.10969 276646.080000
   2535   2537     1   0.10969 276646.080000
   2538   2539     1   0.10910 283424.160000
   2538   2540     1   0.10910 283424.160000
   2541   2563     1   0.10304 312293.760000
   2542   2543     1   0.10910 283424.160000
   2542   2544     1   0.10910 283424.160000
   2545   2546     1   0.10969 276646.080000
   2545   2547     1   0.10969 276646.080000
   2550   2551     1   0.09730 310787.520000
   2552   2553     1   0.10910 283424.160000
   2552   2554     1   0.10910 283424.160000
   2555   2556     1   0.10969 276646.080000
   2555   2557     1   0.10969 276646.080000
   2560   2561     1   0.09730 310787.520000
   2564   2565     1   0.10969 276646.080000
   2564   2566     1   0.10969 276646.080000
   2567   2568     1   0.10969 276646.080000
   2567   2569     1   0.10969 276646.080000
   2570   2571     1   0.10910 283424.160000
   2570   2572     1   0.10910 283424.160000
   2573   2595     1   0.10304 312293.760000
   2574   2575     1   0.10910 283424.160000
   2574   2576     1   0.10910 283424.160000
   2577   2578     1   0.10969 276646.080000
   2577   2579     1   0.10969 276646.080000
   2582   2583     1   0.09730 310787.520000
   2584   2585     1   0.10910 283424.160000
   2584   2586     1   0.10910 283424.160000
   2587   2588     1   0.10969 276646.080000
   2587   2589     1   0.10969 276646.080000
   2592   2593     1   0.09730 310787.520000
   2596   2597     1   0.10969 276646.080000
   2596   2598     1   0.10969 276646.080000
   2599   2600     1   0.10969 276646.080000
   2599   2601     1   0.10969 276646.080000
   2602   2603     1   0.10910 283424.160000
   2602   2604     1   0.10910 283424.160000
   2605   2627     1   0.10304 312293.760000
   2606   2607     1   0.10910 283424.160000
   2606   2608     1   0.10910 283424.160000
   2609   2610     1   0.10969 276646.080000
   2609   2611     1   0.10969 276646.080000
   2614   2615     1   0.09730 310787.520000
   2616   2617     1   0.10910 283424.160000
   2616   2618     1   0.10910 283424.160000
   2619   2620     1   0.10969 276646.080000
   2619   2621     1   0.10969 276646.080000
   2624   2625     1   0.09730 310787.520000
   2628   2629     1   0.10969 276646.080000
   2628   2630     1   0.10969 276646.080000
   2631   2632     1   0.10969 276646.080000
   2631   2633     1   0.10969 276646.080000
   2634   2635     1   0.10910 283424.160000
   2634   2636     1   0.10910 283424.160000
   2637   2659     1   0.10304 312293.760000
   2638   2639     1   0.10910 283424.160000
   2638   2640     1   0.10910 283424.160000
   2641   2642     1   0.10969 276646.080000
   2641   2643     1   0.10969 276646.080000
   2646   2647     1   0.09730 310787.520000
   2648   2649     1   0.10910 283424.160000
   2648   2650     1   0.10910 283424.160000
   2651   2652     1   0.10969 276646.080000
   2651   2653     1   0.10969 276646.080000
   2656   2657     1   0.09730 310787.520000
   2660   2661     1   0.10969 276646.080000
   2660   2662     1   0.10969 276646.080000
   2663   2664     1   0.10969 276646.080000
   2663   2665     1   0.10969 276646.080000
   2666   2667     1   0.10910 283424.160000
   2666   2668     1   0.10910 283424.160000
   2669   2691     1   0.10304 312293.760000
   2670   2671     1   0.10910 283424.160000
   2670   2672     1   0.10910 283424.160000
   2673   2674     1   0.10969 276646.080000
   2673   2675     1   0.10969 276646.080000
   2678   2679     1   0.09730 310787.520000
   2680   2681     1   0.10910 283424.160000
   2680   2682     1   0.10910 283424.160000
   2683   2684     1   0.10969 276646.080000
   2683   2685     1   0.10969 276646.080000
   2688   2689     1   0.09730 310787.520000
   2692   2693     1   0.10969 276646.080000
   2692   2694     1   0.10969 276646.080000
   2695   2696     1   0.10969 276646.080000
   2695   2697     1   0.10969 276646.080000
   2698   2699     1   0.10910 283424.160000
   2698   2700     1   0.10910 283424.160000
   2701   2723     1   0.10304 312293.760000
   2702   2703     1   0.10910 283424.160000
   2702   2704     1   0.10910 283424.160000
   2705   2706     1   0.10969 276646.080000
   2705   2707     1   0.10969 276646.080000
   2710   2711     1   0.09730 310787.520000
   2712   2713     1   0.10910 283424.160000
   2712   2714     1   0.10910 283424.160000
   2715   2716     1   0.10969 276646.080000
   2715   2717     1   0.10969 276646.080000
   2720   2721     1   0.09730 310787.520000
   2724   2725     1   0.10969 276646.080000
   2724   2726     1   0.10969 276646.080000
   2727   2728     1   0.10969 276646.080000
   2727   2729     1   0.10969 276646.080000
   2730   2731     1   0.10910 283424.160000
   2730   2732     1   0.10910 283424.160000
   2733   2755     1   0.10304 312293.760000
   2734   2735     1   0.10910 283424.160000
   2734   2736     1   0.10910 283424.160000
   2737   2738     1   0.10969 276646.080000
   2737   2739     1   0.10969 276646.080000
   2742   2743     1   0.09730 310787.520000
   2744   2745     1   0.10910 283424.160000
   2744   2746     1   0.10910 283424.160000
   2747   2748     1   0.10969 276646.080000
   2747   2749     1   0.10969 276646.080000
   2752   2753     1   0.09730 310787.520000
   2756   2757     1   0.10969 276646.080000
   2756   2758     1   0.10969 276646.080000
   2759   2760     1   0.10969 276646.080000
   2759   2761     1   0.10969 276646.080000
   2762   2763     1   0.10910 283424.160000
   2762   2764     1   0.10910 283424.160000
   2765   2787     1   0.10304 312293.760000
   2766   2767     1   0.10910 283424.160000
   2766   2768     1   0.10910 283424.160000
   2769   2770     1   0.10969 276646.080000
   2769   2771     1   0.10969 276646.080000
   2774   2775     1   0.09730 310787.520000
   2776   2777     1   0.10910 283424.160000
   2776   2778     1   0.10910 283424.160000
   2779   2780     1   0.10969 276646.080000
   2779   2781     1   0.10969 276646.080000
   2784   2785     1   0.09730 310787.520000
   2788   2789     1   0.10969 276646.080000
   2788   2790     1   0.10969 276646.080000
   2791   2792     1   0.10969 276646.080000
   2791   2793     1   0.10969 276646.080000
   2794   2795     1   0.10910 283424.160000
   2794   2796     1   0.10910 283424.160000
   2797   2819     1   0.10304 312293.760000
   2798   2799     1   0.10910 283424.160000
   2798   2800     1   0.10910 283424.160000
   2801   2802     1   0.10969 276646.080000
   2801   2803     1   0.10969 276646.080000
   2806   2807     1   0.09730 310787.520000
   2808   2809     1   0.10910 283424.160000
   2808   2810     1   0.10910 283424.160000
   2811   2812     1   0.10969 276646.080000
   2811   2813     1   0.10969 276646.080000
   2816   2817     1   0.09730 310787.520000
   2820   2821     1   0.10969 276646.080000
   2820   2822     1   0.10969 276646.080000
   2823   2824     1   0.10969 276646.080000
   2823   2825     1   0.10969 276646.080000
   2826   2827     1   0.10910 283424.160000
   2826   2828     1   0.10910 283424.160000
   2829   2851     1   0.10304 312293.760000
   2830   2831     1   0.10910 283424.160000
   2830   2832     1   0.10910 283424.160000
   2833   2834     1   0.10969 276646.080000
   2833   2835     1   0.10969 276646.080000
   2838   2839     1   0.09730 310787.520000
   2840   2841     1   0.10910 283424.160000
   2840   2842     1   0.10910 283424.160000
   2843   2844     1   0.10969 276646.080000
   2843   2845     1   0.10969 276646.080000
   2848   2849     1   0.09730 310787.520000
   2852   2853     1   0.10969 276646.080000
   2852   2854     1   0.10969 276646.080000
   2855   2856     1   0.10969 276646.080000
   2855   2857     1   0.10969 276646.080000
   2858   2859     1   0.10910 283424.160000
   2858   2860     1   0.10910 283424.160000
   2861   2883     1   0.10304 312293.760000
   2862   2863     1   0.10910 283424.160000
   2862   2864     1   0.10910 283424.160000
   2865   2866     1   0.10969 276646.080000
   2865   2867     1   0.10969 276646.080000
   2870   2871     1   0.09730 310787.520000
   2872   2873     1   0.10910 283424.160000
   2872   2874     1   0.10910 283424.160000
   2875   2876     1   0.10969 276646.080000
   2875   2877     1   0.10969 276646.080000
   2880   2881     1   0.09730 310787.520000
   2884   2885     1   0.10969 276646.080000
   2884   2886     1   0.10969 276646.080000
   2887   2888     1   0.10969 276646.080000
   2887   2889     1   0.10969 276646.080000
   2890   2891     1   0.10910 283424.160000
   2890   2892     1   0.10910 283424.160000
   2893   2915     1   0.10304 312293.760000
   2894   2895     1   0.10910 283424.160000
   2894   2896     1   0.10910 283424.160000
   2897   2898     1   0.10969 276646.080000
   2897   2899     1   0.10969 276646.080000
   2902   2903     1   0.09730 310787.520000
   2904   2905     1   0.10910 283424.160000
   2904   2906     1   0.10910 283424.160000
   2907   2908     1   0.10969 276646.080000
   2907   2909     1   0.10969 276646.080000
   2912   2913     1   0.09730 310787.520000
   2916   2917     1   0.10969 276646.080000
   2916   2918     1   0.10969 276646.080000
   2919   2920     1   0.10969 276646.080000
   2919   2921     1   0.10969 276646.080000
   2922   2923     1   0.10910 283424.160000
   2922   2924     1   0.10910 283424.160000
   2925   2947     1   0.10304 312293.760000
   2926   2927     1   0.10910 283424.160000
   2926   2928     1   0.10910 283424.160000
   2929   2930     1   0.10969 276646.080000
   2929   2931     1   0.10969 276646.080000
   2934   2935     1   0.09730 310787.520000
   2936   2937     1   0.10910 283424.160000
   2936   2938     1   0.10910 283424.160000
   2939   2940     1   0.10969 276646.080000
   2939   2941     1   0.10969 276646.080000
   2944   2945     1   0.09730 310787.520000
   2948   2949     1   0.10969 276646.080000
   2948   2950     1   0.10969 276646.080000
   2951   2952     1   0.10969 276646.080000
   2951   2953     1   0.10969 276646.080000
   2954   2955     1   0.10910 283424.160000
   2954   2956     1   0.10910 283424.160000
   2957   2979     1   0.10304 312293.760000
   2958   2959     1   0.10910 283424.160000
   2958   2960     1   0.10910 283424.160000
   2961   2962     1   0.10969 276646.080000
   2961   2963     1   0.10969 276646.080000
   2966   2967     1   0.09730 310787.520000
   2968   2969     1   0.10910 283424.160000
   2968   2970     1   0.10910 283424.160000
   2971   2972     1   0.10969 276646.080000
   2971   2973     1   0.10969 276646.080000
   2976   2977     1   0.09730 310787.520000
   2980   2981     1   0.10969 276646.080000
   2980   2982     1   0.10969 276646.080000
   2983   2984     1   0.10969 276646.080000
   2983   2985     1   0.10969 276646.080000
   2986   2987     1   0.10910 283424.160000
   2986   2988     1   0.10910 283424.160000
   2989   3011     1   0.10304 312293.760000
   2990   2991     1   0.10910 283424.160000
   2990   2992     1   0.10910 283424.160000
   2993   2994     1   0.10969 276646.080000
   2993   2995     1   0.10969 276646.080000
   2998   2999     1   0.09730 310787.520000
   3000   3001     1   0.10910 283424.160000
   3000   3002     1   0.10910 283424.160000
   3003   3004     1   0.10969 276646.080000
   3003   3005     1   0.10969 276646.080000
   3008   3009     1   0.09730 310787.520000
   3012   3013     1   0.10969 276646.080000
   3012   3014     1   0.10969 276646.080000
   3015   3016     1   0.10969 276646.080000
   3015   3017     1   0.10969 276646.080000
   3018   3019     1   0.10910 283424.160000
   3018   3020     1   0.10910 283424.160000
   3021   3043     1   0.10304 312293.760000
   3022   3023     1   0.10910 283424.160000
   3022   3024     1   0.10910 283424.160000
   3025   3026     1   0.10969 276646.080000
   3025   3027     1   0.10969 276646.080000
   3030   3031     1   0.09730 310787.520000
   3032   3033     1   0.10910 283424.160000
   3032   3034     1   0.10910 283424.160000
   3035   3036     1   0.10969 276646.080000
   3035   3037     1   0.10969 276646.080000
   3040   3041     1   0.09730 310787.520000
   3044   3045     1   0.10969 276646.080000
   3044   3046     1   0.10969 276646.080000
   3047   3048     1   0.10969 276646.080000
   3047   3049     1   0.10969 276646.080000
   3050   3051     1   0.10910 283424.160000
   3050   3052     1   0.10910 283424.160000
   3053   3075     1   0.10304 312293.760000
   3054   3055     1   0.10910 283424.160000
   3054   3056     1   0.10910 283424.160000
   3057   3058     1   0.10969 276646.080000
   3057   3059     1   0.10969 276646.080000
   3062   3063     1   0.09730 310787.520000
   3064   3065     1   0.10910 283424.160000
   3064   3066     1   0.10910 283424.160000
   3067   3068     1   0.10969 276646.080000
   3067   3069     1   0.10969 276646.080000
   3072   3073     1   0.09730 310787.520000
   3076   3077     1   0.10969 276646.080000
   3076   3078     1   0.10969 276646.080000
   3079   3080     1   0.10969 276646.080000
   3079   3081     1   0.10969 276646.080000
   3082   3083     1   0.10910 283424.160000
   3082   3084     1   0.10910 283424.160000
   3085   3107     1   0.10304 312293.760000
   3086   3087     1   0.10910 283424.160000
   3086   3088     1   0.10910 283424.160000
   3089   3090     1   0.10969 276646.080000
   3089   3091     1   0.10969 276646.080000
   3094   3095     1   0.09730 310787.520000
   3096   3097     1   0.10910 283424.160000
   3096   3098     1   0.10910 283424.160000
   3099   3100     1   0.10969 276646.080000
   3099   3101     1   0.10969 276646.080000
   3104   3105     1   0.09730 310787.520000
   3108   3109     1   0.10969 276646.080000
   3108   3110     1   0.10969 276646.080000
   3111   3112     1   0.10969 276646.080000
   3111   3113     1   0.10969 276646.080000
   3114   3115     1   0.10910 283424.160000
   3114   3116     1   0.10910 283424.160000
   3117   3139     1   0.10304 312293.760000
   3118   3119     1   0.10910 283424.160000
   3118   3120     1   0.10910 283424.160000
   3121   3122     1   0.10969 276646.080000
   3121   3123     1   0.10969 276646.080000
   3126   3127     1   0.09730 310787.520000
   3128   3129     1   0.10910 283424.160000
   3128   3130     1   0.10910 283424.160000
   3131   3132     1   0.10969 276646.080000
   3131   3133     1   0.10969 276646.080000
   3136   3137     1   0.09730 310787.520000
   3140   3141     1   0.10969 276646.080000
   3140   3142     1   0.10969 276646.080000
   3143   3144     1   0.10969 276646.080000
   3143   3145     1   0.10969 276646.080000
   3146   3147     1   0.10910 283424.160000
   3146   3148     1   0.10910 283424.160000
   3149   3171     1   0.10304 312293.760000
   3150   3151     1   0.10910 283424.160000
   3150   3152     1   0.10910 283424.160000
   3153   3154     1   0.10969 276646.080000
   3153   3155     1   0.10969 276646.080000
   3158   3159     1   0.09730 310787.520000
   3160   3161     1   0.10910 283424.160000
   3160   3162     1   0.10910 283424.160000
   3163   3164     1   0.10969 276646.080000
   3163   3165     1   0.10969 276646.080000
   3168   3169     1   0.09730 310787.520000
   3172   3173     1   0.10969 276646.080000
   3172   3174     1   0.10969 276646.080000
   3175   3176     1   0.10969 276646.080000
   3175   3177     1   0.10969 276646.080000
   3178   3179     1   0.10910 283424.160000
   3178   3180     1   0.10910 283424.160000
   3181   3203     1   0.10304 312293.760000
   3182   3183     1   0.10910 283424.160000
   3182   3184     1   0.10910 283424.160000
   3185   3186     1   0.10969 276646.080000
   3185   3187     1   0.10969 276646.080000
   3190   3191     1   0.09730 310787.520000
   3192   3193     1   0.10910 283424.160000
   3192   3194     1   0.10910 283424.160000
   3195   3196     1   0.10969 276646.080000
   3195   3197     1   0.10969 276646.080000
   3200   3201     1   0.09730 310787.520000
   3204   3205     1   0.10969 276646.080000
   3204   3206     1   0.10969 276646.080000
   3207   3208     1   0.10969 276646.080000
   3207   3209     1   0.10969 276646.080000
   3210   3211     1   0.10910 283424.160000
   3210   3212     1   0.10910 283424.160000
   3213   3235     1   0.10304 312293.760000
   3214   3215     1   0.10910 283424.160000
   3214   3216     1   0.10910 283424.160000
   3217   3218     1   0.10969 276646.080000
   3217   3219     1   0.10969 276646.080000
   3222   3223     1   0.09730 310787.520000
   3224   3225     1   0.10910 283424.160000
   3224   3226     1   0.10910 283424.160000
   3227   3228     1   0.10969 276646.080000
   3227   3229     1   0.10969 276646.080000
   3232   3233     1   0.09730 310787.520000
   3236   3237     1   0.10969 276646.080000
   3236   3238     1   0.10969 276646.080000
   3239   3240     1   0.10969 276646.080000
   3239   3241     1   0.10969 276646.080000
   3242   3243     1   0.10910 283424.160000
   3242   3244     1   0.10910 283424.160000
   3245   3267     1   0.10304 312293.760000
   3246   3247     1   0.10910 283424.160000
   3246   3248     1   0.10910 283424.160000
   3249   3250     1   0.10969 276646.080000
   3249   3251     1   0.10969 276646.080000
   3254   3255     1   0.09730 310787.520000
   3256   3257     1   0.10910 283424.160000
   3256   3258     1   0.10910 283424.160000
   3259   3260     1   0.10969 276646.080000
   3259   3261     1   0.10969 276646.080000
   3264   3265     1   0.09730 310787.520000
   3268   3269     1   0.10969 276646.080000
   3268   3270     1   0.10969 276646.080000
   3271   3272     1   0.10969 276646.080000
   3271   3273     1   0.10969 276646.080000
   3274   3275     1   0.10910 283424.160000
   3274   3276     1   0.10910 283424.160000
   3277   3299     1   0.10304 312293.760000
   3278   3279     1   0.10910 283424.160000
   3278   3280     1   0.10910 283424.160000
   3281   3282     1   0.10969 276646.080000
   3281   3283     1   0.10969 276646.080000
   3286   3287     1   0.09730 310787.520000
   3288   3289     1   0.10910 283424.160000
   3288   3290     1   0.10910 283424.160000
   3291   3292     1   0.10969 276646.080000
   3291   3293     1   0.10969 276646.080000
   3296   3297     1   0.09730 310787.520000
   3300   3301     1   0.10969 276646.080000
   3300   3302     1   0.10969 276646.080000
   3303   3304     1   0.10969 276646.080000
   3303   3305     1   0.10969 276646.080000
   3306   3307     1   0.10910 283424.160000
   3306   3308     1   0.10910 283424.160000
   3309   3331     1   0.10304 312293.760000
   3310   3311     1   0.10910 283424.160000
   3310   3312     1   0.10910 283424.160000
   3313   3314     1   0.10969 276646.080000
   3313   3315     1   0.10969 276646.080000
   3318   3319     1   0.09730 310787.520000
   3320   3321     1   0.10910 283424.160000
   3320   3322     1   0.10910 283424.160000
   3323   3324     1   0.10969 276646.080000
   3323   3325     1   0.10969 276646.080000
   3328   3329     1   0.09730 310787.520000
   3332   3333     1   0.10969 276646.080000
   3332   3334     1   0.10969 276646.080000
   3335   3336     1   0.10969 276646.080000
   3335   3337     1   0.10969 276646.080000
   3338   3339     1   0.10910 283424.160000
   3338   3340     1   0.10910 283424.160000
   3341   3363     1   0.10304 312293.760000
   3342   3343     1   0.10910 283424.160000
   3342   3344     1   0.10910 283424.160000
   3345   3346     1   0.10969 276646.080000
   3345   3347     1   0.10969 276646.080000
   3350   3351     1   0.09730 310787.520000
   3352   3353     1   0.10910 283424.160000
   3352   3354     1   0.10910 283424.160000
   3355   3356     1   0.10969 276646.080000
   3355   3357     1   0.10969 276646.080000
   3360   3361     1   0.09730 310787.520000
   3364   3365     1   0.10969 276646.080000
   3364   3366     1   0.10969 276646.080000
   3367   3368     1   0.10969 276646.080000
   3367   3369     1   0.10969 276646.080000
   3370   3371     1   0.10910 283424.160000
   3370   3372     1   0.10910 283424.160000
   3373   3395     1   0.10304 312293.760000
   3374   3375     1   0.10910 283424.160000
   3374   3376     1   0.10910 283424.160000
   3377   3378     1   0.10969 276646.080000
   3377   3379     1   0.10969 276646.080000
   3382   3383     1   0.09730 310787.520000
   3384   3385     1   0.10910 283424.160000
   3384   3386     1   0.10910 283424.160000
   3387   3388     1   0.10969 276646.080000
   3387   3389     1   0.10969 276646.080000
   3392   3393     1   0.09730 310787.520000
   3396   3397     1   0.10969 276646.080000
   3396   3398     1   0.10969 276646.080000
   3399   3400     1   0.10969 276646.080000
   3399   3401     1   0.10969 276646.080000
   3402   3403     1   0.10910 283424.160000
   3402   3404     1   0.10910 283424.160000
   3405   3427     1   0.10304 312293.760000
   3406   3407     1   0.10910 283424.160000
   3406   3408     1   0.10910 283424.160000
   3409   3410     1   0.10969 276646.080000
   3409   3411     1   0.10969 276646.080000
   3414   3415     1   0.09730 310787.520000
   3416   3417     1   0.10910 283424.160000
   3416   3418     1   0.10910 283424.160000
   3419   3420     1   0.10969 276646.080000
   3419   3421     1   0.10969 276646.080000
   3424   3425     1   0.09730 310787.520000
   3428   3429     1   0.10969 276646.080000
   3428   3430     1   0.10969 276646.080000
   3431   3432     1   0.10969 276646.080000
   3431   3433     1   0.10969 276646.080000
   3434   3435     1   0.10910 283424.160000
   3434   3436     1   0.10910 283424.160000
   3437   3459     1   0.10304 312293.760000
   3438   3439     1   0.10910 283424.160000
   3438   3440     1   0.10910 283424.160000
   3441   3442     1   0.10969 276646.080000
   3441   3443     1   0.10969 276646.080000
   3446   3447     1   0.09730 310787.520000
   3448   3449     1   0.10910 283424.160000
   3448   3450     1   0.10910 283424.160000
   3451   3452     1   0.10969 276646.080000
   3451   3453     1   0.10969 276646.080000
   3456   3457     1   0.09730 310787.520000
   3460   3461     1   0.10969 276646.080000
   3460   3462     1   0.10969 276646.080000
   3463   3464     1   0.10969 276646.080000
   3463   3465     1   0.10969 276646.080000
   3466   3467     1   0.10910 283424.160000
   3466   3468     1   0.10910 283424.160000
   3469   3491     1   0.10304 312293.760000
   3470   3471     1   0.10910 283424.160000
   3470   3472     1   0.10910 283424.160000
   3473   3474     1   0.10969 276646.080000
   3473   3475     1   0.10969 276646.080000
   3478   3479     1   0.09730 310787.520000
   3480   3481     1   0.10910 283424.160000
   3480   3482     1   0.10910 283424.160000
   3483   3484     1   0.10969 276646.080000
   3483   3485     1   0.10969 276646.080000
   3488   3489     1   0.09730 310787.520000
   3492   3493     1   0.10969 276646.080000
   3492   3494     1   0.10969 276646.080000
   3495   3496     1   0.10969 276646.080000
   3495   3497     1   0.10969 276646.080000
   3498   3499     1   0.10910 283424.160000
   3498   3500     1   0.10910 283424.160000
   3501   3523     1   0.10304 312293.760000
   3502   3503     1   0.10910 283424.160000
   3502   3504     1   0.10910 283424.160000
   3505   3506     1   0.10969 276646.080000
   3505   3507     1   0.10969 276646.080000
   3510   3511     1   0.09730 310787.520000
   3512   3513     1   0.10910 283424.160000
   3512   3514     1   0.10910 283424.160000
   3515   3516     1   0.10969 276646.080000
   3515   3517     1   0.10969 276646.080000
   3520   3521     1   0.09730 310787.520000
   3524   3525     1   0.10969 276646.080000
   3524   3526     1   0.10969 276646.080000
   3527   3528     1   0.10969 276646.080000
   3527   3529     1   0.10969 276646.080000
   3530   3531     1   0.10910 283424.160000
   3530   3532     1   0.10910 283424.160000
   3533   3555     1   0.10304 312293.760000
   3534   3535     1   0.10910 283424.160000
   3534   3536     1   0.10910 283424.160000
   3537   3538     1   0.10969 276646.080000
   3537   3539     1   0.10969 276646.080000
   3542   3543     1   0.09730 310787.520000
   3544   3545     1   0.10910 283424.160000
   3544   3546     1   0.10910 283424.160000
   3547   3548     1   0.10969 276646.080000
   3547   3549     1   0.10969 276646.080000
   3552   3553     1   0.09730 310787.520000
   3556   3557     1   0.10969 276646.080000
   3556   3558     1   0.10969 276646.080000
   3559   3560     1   0.10969 276646.080000
   3559   3561     1   0.10969 276646.080000
   3562   3563     1   0.10910 283424.160000
   3562   3564     1   0.10910 283424.160000
   3565   3587     1   0.10304 312293.760000
   3566   3567     1   0.10910 283424.160000
   3566   3568     1   0.10910 283424.160000
   3569   3570     1   0.10969 276646.080000
   3569   3571     1   0.10969 276646.080000
   3574   3575     1   0.09730 310787.520000
   3576   3577     1   0.10910 283424.160000
   3576   3578     1   0.10910 283424.160000
   3579   3580     1   0.10969 276646.080000
   3579   3581     1   0.10969 276646.080000
   3584   3585     1   0.09730 310787.520000
   3588   3589     1   0.10969 276646.080000
   3588   3590     1   0.10969 276646.080000
   3591   3592     1   0.10969 276646.080000
   3591   3593     1   0.10969 276646.080000
   3594   3595     1   0.10910 283424.160000
   3594   3596     1   0.10910 283424.160000
   3597   3619     1   0.10304 312293.760000
   3598   3599     1   0.10910 283424.160000
   3598   3600     1   0.10910 283424.160000
   3601   3602     1   0.10969 276646.080000
   3601   3603     1   0.10969 276646.080000
   3606   3607     1   0.09730 310787.520000
   3608   3609     1   0.10910 283424.160000
   3608   3610     1   0.10910 283424.160000
   3611   3612     1   0.10969 276646.080000
   3611   3613     1   0.10969 276646.080000
   3616   3617     1   0.09730 310787.520000
   3620   3621     1   0.10969 276646.080000
   3620   3622     1   0.10969 276646.080000
   3623   3624     1   0.10969 276646.080000
   3623   3625     1   0.10969 276646.080000
   3626   3627     1   0.10910 283424.160000
   3626   3628     1   0.10910 283424.160000
   3629   3651     1   0.10304 312293.760000
   3630   3631     1   0.10910 283424.160000
   3630   3632     1   0.10910 283424.160000
   3633   3634     1   0.10969 276646.080000
   3633   3635     1   0.10969 276646.080000
   3638   3639     1   0.09730 310787.520000
   3640   3641     1   0.10910 283424.160000
   3640   3642     1   0.10910 283424.160000
   3643   3644     1   0.10969 276646.080000
   3643   3645     1   0.10969 276646.080000
   3648   3649     1   0.09730 310787.520000
   3652   3653     1   0.10969 276646.080000
   3652   3654     1   0.10969 276646.080000
   3655   3656     1   0.10969 276646.080000
   3655   3657     1   0.10969 276646.080000
   3658   3659     1   0.10910 283424.160000
   3658   3660     1   0.10910 283424.160000
   3661   3683     1   0.10304 312293.760000
   3662   3663     1   0.10910 283424.160000
   3662   3664     1   0.10910 283424.160000
   3665   3666     1   0.10969 276646.080000
   3665   3667     1   0.10969 276646.080000
   3670   3671     1   0.09730 310787.520000
   3672   3673     1   0.10910 283424.160000
   3672   3674     1   0.10910 283424.160000
   3675   3676     1   0.10969 276646.080000
   3675   3677     1   0.10969 276646.080000
   3680   3681     1   0.09730 310787.520000
   3684   3685     1   0.10969 276646.080000
   3684   3686     1   0.10969 276646.080000
   3687   3688     1   0.10969 276646.080000
   3687   3689     1   0.10969 276646.080000
   3690   3691     1   0.10910 283424.160000
   3690   3692     1   0.10910 283424.160000
   3693   3715     1   0.10304 312293.760000
   3694   3695     1   0.10910 283424.160000
   3694   3696     1   0.10910 283424.160000
   3697   3698     1   0.10969 276646.080000
   3697   3699     1   0.10969 276646.080000
   3702   3703     1   0.09730 310787.520000
   3704   3705     1   0.10910 283424.160000
   3704   3706     1   0.10910 283424.160000
   3707   3708     1   0.10969 276646.080000
   3707   3709     1   0.10969 276646.080000
   3712   3713     1   0.09730 310787.520000
   3716   3717     1   0.10969 276646.080000
   3716   3718     1   0.10969 276646.080000
   3719   3720     1   0.10969 276646.080000
   3719   3721     1   0.10969 276646.080000
   3722   3723     1   0.10910 283424.160000
   3722   3724     1   0.10910 283424.160000
   3725   3747     1   0.10304 312293.760000
   3726   3727     1   0.10910 283424.160000
   3726   3728     1   0.10910 283424.160000
   3729   3730     1   0.10969 276646.080000
   3729   3731     1   0.10969 276646.080000
   3734   3735     1   0.09730 310787.520000
   3736   3737     1   0.10910 283424.160000
   3736   3738     1   0.10910 283424.160000
   3739   3740     1   0.10969 276646.080000
   3739   3741     1   0.10969 276646.080000
   3744   3745     1   0.09730 310787.520000
   3748   3749     1   0.10969 276646.080000
   3748   3750     1   0.10969 276646.080000
   3751   3752     1   0.10969 276646.080000
   3751   3753     1   0.10969 276646.080000
   3754   3755     1   0.10910 283424.160000
   3754   3756     1   0.10910 283424.160000
   3757   3779     1   0.10304 312293.760000
   3758   3759     1   0.10910 283424.160000
   3758   3760     1   0.10910 283424.160000
   3761   3762     1   0.10969 276646.080000
   3761   3763     1   0.10969 276646.080000
   3766   3767     1   0.09730 310787.520000
   3768   3769     1   0.10910 283424.160000
   3768   3770     1   0.10910 283424.160000
   3771   3772     1   0.10969 276646.080000
   3771   3773     1   0.10969 276646.080000
   3776   3777     1   0.09730 310787.520000
   3780   3781     1   0.10969 276646.080000
   3780   3782     1   0.10969 276646.080000
   3783   3784     1   0.10969 276646.080000
   3783   3785     1   0.10969 276646.080000
   3786   3787     1   0.10910 283424.160000
   3786   3788     1   0.10910 283424.160000
   3789   3811     1   0.10304 312293.760000
   3790   3791     1   0.10910 283424.160000
   3790   3792     1   0.10910 283424.160000
   3793   3794     1   0.10969 276646.080000
   3793   3795     1   0.10969 276646.080000
   3798   3799     1   0.09730 310787.520000
   3800   3801     1   0.10910 283424.160000
   3800   3802     1   0.10910 283424.160000
   3803   3804     1   0.10969 276646.080000
   3803   3805     1   0.10969 276646.080000
   3808   3809     1   0.09730 310787.520000
   3812   3813     1   0.10969 276646.080000
   3812   3814     1   0.10969 276646.080000
   3815   3816     1   0.10969 276646.080000
   3815   3817     1   0.10969 276646.080000
   3818   3819     1   0.10910 283424.160000
   3818   3820     1   0.10910 283424.160000
   3821   3843     1   0.10304 312293.760000
   3822   3823     1   0.10910 283424.160000
   3822   3824     1   0.10910 283424.160000
   3825   3826     1   0.10969 276646.080000
   3825   3827     1   0.10969 276646.080000
   3830   3831     1   0.09730 310787.520000
   3832   3833     1   0.10910 283424.160000
   3832   3834     1   0.10910 283424.160000
   3835   3836     1   0.10969 276646.080000
   3835   3837     1   0.10969 276646.080000
   3840   3841     1   0.09730 310787.520000
   3844   3845     1   0.10969 276646.080000
   3844   3846     1   0.10969 276646.080000
   3847   3848     1   0.10969 276646.080000
   3847   3849     1   0.10969 276646.080000
   3850   3851     1   0.10910 283424.160000
   3850   3852     1   0.10910 283424.160000
   3853   3875     1   0.10304 312293.760000
   3854   3855     1   0.10910 283424.160000
   3854   3856     1   0.10910 283424.160000
   3857   3858     1   0.10969 276646.080000
   3857   3859     1   0.10969 276646.080000
   3862   3863     1   0.09730 310787.520000
   3864   3865     1   0.10910 283424.160000
   3864   3866     1   0.10910 283424.160000
   3867   3868     1   0.10969 276646.080000
   3867   3869     1   0.10969 276646.080000
   3872   3873     1   0.09730 310787.520000
   3876   3877     1   0.10969 276646.080000
   3876   3878     1   0.10969 276646.080000
   3879   3880     1   0.10969 276646.080000
   3879   3881     1   0.10969 276646.080000
   3882   3883     1   0.10910 283424.160000
   3882   3884     1   0.10910 283424.160000
   3885   3907     1   0.10304 312293.760000
   3886   3887     1   0.10910 283424.160000
   3886   3888     1   0.10910 283424.160000
   3889   3890     1   0.10969 276646.080000
   3889   3891     1   0.10969 276646.080000
   3894   3895     1   0.09730 310787.520000
   3896   3897     1   0.10910 283424.160000
   3896   3898     1   0.10910 283424.160000
   3899   3900     1   0.10969 276646.080000
   3899   3901     1   0.10969 276646.080000
   3904   3905     1   0.09730 310787.520000

[ pairs ]
;    ai     aj funct         c0         c1         c2         c3
      1     14     1
      1     17     1
      2     11     1
      2     20     1
      5      8     1
      5     21     1
      8     28     1
      8     31     1
     11     22     1
     11     25     1
     14     40     1
     14     43     1
     17     34     1
     17     37     1
     20     49     1
     20     46     1
     21     55     1
     21     52     1
     22     37     1
     22    178     1
     25     34     1
     25    148     1
     28     43     1
     28    118     1
     31     40     1
     31     88     1
     34    169     1
     37    139     1
     40    109     1
     43     79     1
     46     70     1
     49    100     1
     52    130     1
     55    160     1
     60     85     1
     60     82     1
     60     79     1
     61     76     1
     61     70     1
     61    238     1
     64     73     1
     64     70     1
     64    208     1
     67     73     1
     67     76     1
     67     88     1
     73    229     1
     76    199     1
     82    190     1
     85    220     1
     90    115     1
     90    112     1
     90    109     1
     91    106     1
     91    100     1
     91    298     1
     94    103     1
     94    100     1
     94    268     1
     97    103     1
     97    106     1
     97    118     1
    103    289     1
    106    259     1
    112    250     1
    115    280     1
    120    145     1
    120    142     1
    120    139     1
    121    136     1
    121    130     1
    121    358     1
    124    133     1
    124    130     1
    124    328     1
    127    133     1
    127    136     1
    127    148     1
    133    349     1
    136    319     1
    142    310     1
    145    340     1
    150    175     1
    150    172     1
    150    169     1
    151    166     1
    151    160     1
    151    418     1
    154    163     1
    154    160     1
    154    388     1
    157    163     1
    157    166     1
    157    178     1
    163    409     1
    166    379     1
    172    370     1
    175    400     1
    180    205     1
    180    202     1
    180    199     1
    181    196     1
    181    190     1
    181    478     1
    184    193     1
    184    190     1
    184    448     1
    187    193     1
    187    196     1
    187    208     1
    193    469     1
    196    439     1
    202    430     1
    205    460     1
    210    235     1
    210    232     1
    210    229     1
    211    226     1
    211    220     1
    211    538     1
    214    223     1
    214    220     1
    214    508     1
    217    223     1
    217    226     1
    217    238     1
    223    529     1
    226    499     1
    232    490     1
    235    520     1
    240    265     1
    240    262     1
    240    259     1
    241    256     1
    241    250     1
    241    598     1
    244    253     1
    244    250     1
    244    568     1
    247    253     1
    247    256     1
    247    268     1
    253    589     1
    256    559     1
    262    550     1
    265    580     1
    270    295     1
    270    292     1
    270    289     1
    271    286     1
    271    280     1
    271    658     1
    274    283     1
    274    280     1
    274    628     1
    277    283     1
    277    286     1
    277    298     1
    283    649     1
    286    619     1
    292    610     1
    295    640     1
    300    325     1
    300    322     1
    300    319     1
    301    316     1
    301    310     1
    301    718     1
    304    313     1
    304    310     1
    304    688     1
    307    313     1
    307    316     1
    307    328     1
    313    709     1
    316    679     1
    322    670     1
    325    700     1
    330    355     1
    330    352     1
    330    349     1
    331    346     1
    331    340     1
    331    778     1
    334    343     1
    334    340     1
    334    748     1
    337    343     1
    337    346     1
    337    358     1
    343    769     1
    346    739     1
    352    730     1
    355    760     1
    360    385     1
    360    382     1
    360    379     1
    361    376     1
    361    370     1
    361    838     1
    364    373     1
    364    370     1
    364    808     1
    367    373     1
    367    376     1
    367    388     1
    373    829     1
    376    799     1
    382    790     1
    385    820     1
    390    415     1
    390    412     1
    390    409     1
    391    406     1
    391    400     1
    391    898     1
    394    403     1
    394    400     1
    394    868     1
    397    403     1
    397    406     1
    397    418     1
    403    889     1
    406    859     1
    412    850     1
    415    880     1
    420    445     1
    420    442     1
    420    439     1
    421    436     1
    421    430     1
    421    958     1
    424    433     1
    424    430     1
    424    928     1
    427    433     1
    427    436     1
    427    448     1
    433    949     1
    436    919     1
    442    910     1
    445    940     1
    450    475     1
    450    472     1
    450    469     1
    451    466     1
    451    460     1
    451   1018     1
    454    463     1
    454    460     1
    454    988     1
    457    463     1
    457    466     1
    457    478     1
    463   1009     1
    466    979     1
    472    970     1
    475   1000     1
    480    505     1
    480    502     1
    480    499     1
    481    496     1
    481    490     1
    481   1078     1
    484    493     1
    484    490     1
    484   1048     1
    487    493     1
    487    496     1
    487    508     1
    493   1069     1
    496   1039     1
    502   1030     1
    505   1060     1
    510    535     1
    510    532     1
    510    529     1
    511    526     1
    511    520     1
    511   1138     1
    514    523     1
    514    520     1
    514   1108     1
    517    523     1
    517    526     1
    517    538     1
    523   1129     1
    526   1099     1
    532   1090     1
    535   1120     1
    540    565     1
    540    562     1
    540    559     1
    541    556     1
    541    550     1
    541   1198     1
    544    553     1
    544    550     1
    544   1168     1
    547    553     1
    547    556     1
    547    568     1
    553   1189     1
    556   1159     1
    562   1150     1
    565   1180     1
    570    595     1
    570    592     1
    570    589     1
    571    586     1
    571    580     1
    571   1258     1
    574    583     1
    574    580     1
    574   1228     1
    577    583     1
    577    586     1
    577    598     1
    583   1249     1
    586   1219     1
    592   1210     1
    595   1240     1
    600    625     1
    600    622     1
    600    619     1
    601    616     1
    601    610     1
    601   1318     1
    604    613     1
    604    610     1
    604   1288     1
    607    613     1
    607    616     1
    607    628     1
    613   1309     1
    616   1279     1
    622   1270     1
    625   1300     1
    630    655     1
    630    652     1
    630    649     1
    631    646     1
    631    640     1
    631   1378     1
    634    643     1
    634    640     1
    634   1348     1
    637    643     1
    637    646     1
    637    658     1
    643   1369     1
    646   1339     1
    652   1330     1
    655   1360     1
    660    685     1
    660    682     1
    660    679     1
    661    676     1
    661    670     1
    661   1438     1
    664    673     1
    664    670     1
    664   1408     1
    667    673     1
    667    676     1
    667    688     1
    673   1429     1
    676   1399     1
    682   1390     1
    685   1420     1
    690    715     1
    690    712     1
    690    709     1
    691    706     1
    691    700     1
    691   1498     1
    694    703     1
    694    700     1
    694   1468     1
    697    703     1
    697    706     1
    697    718     1
    703   1489     1
    706   1459     1
    712   1450     1
    715   1480     1
    720    745     1
    720    742     1
    720    739     1
    721    736     1
    721    730     1
    721   1558     1
    724    733     1
    724    730     1
    724   1528     1
    727    733     1
    727    736     1
    727    748     1
    733   1549     1
    736   1519     1
    742   1510     1
    745   1540     1
    750    775     1
    750    772     1
    750    769     1
    751    766     1
    751    760     1
    751   1618     1
    754    763     1
    754    760     1
    754   1588     1
    757    763     1
    757    766     1
    757    778     1
    763   1609     1
    766   1579     1
    772   1570     1
    775   1600     1
    780    805     1
    780    802     1
    780    799     1
    781    796     1
    781    790     1
    781   1678     1
    784    793     1
    784    790     1
    784   1648     1
    787    793     1
    787    796     1
    787    808     1
    793   1669     1
    796   1639     1
    802   1630     1
    805   1660     1
    810    835     1
    810    832     1
    810    829     1
    811    826     1
    811    820     1
    811   1738     1
    814    823     1
    814    820     1
    814   1708     1
    817    823     1
    817    826     1
    817    838     1
    823   1729     1
    826   1699     1
    832   1690     1
    835   1720     1
    840    865     1
    840    862     1
    840    859     1
    841    856     1
    841    850     1
    841   1798     1
    844    853     1
    844    850     1
    844   1768     1
    847    853     1
    847    856     1
    847    868     1
    853   1789     1
    856   1759     1
    862   1750     1
    865   1780     1
    870    895     1
    870    892     1
    870    889     1
    871    886     1
    871    880     1
    871   1858     1
    874    883     1
    874    880     1
    874   1828     1
    877    883     1
    877    886     1
    877    898     1
    883   1849     1
    886   1819     1
    892   1810     1
    895   1840     1
    900    925     1
    900    922     1
    900    919     1
    901    916     1
    901    910     1
    901   1922     1
    904    913     1
    904    910     1
    904   1890     1
    907    913     1
    907    916     1
    907    928     1
    913   1892     1
    916   1860     1
    922   1863     1
    925   1895     1
    930    955     1
    930    952     1
    930    949     1
    931    946     1
    931    940     1
    931   1986     1
    934    943     1
    934    940     1
    934   1954     1
    937    943     1
    937    946     1
    937    958     1
    943   1956     1
    946   1924     1
    952   1927     1
    955   1959     1
    960    985     1
    960    982     1
    960    979     1
    961    976     1
    961    970     1
    961   2050     1
    964    973     1
    964    970     1
    964   2018     1
    967    973     1
    967    976     1
    967    988     1
    973   2020     1
    976   1988     1
    982   1991     1
    985   2023     1
    990   1015     1
    990   1012     1
    990   1009     1
    991   1006     1
    991   1000     1
    991   2114     1
    994   1003     1
    994   1000     1
    994   2082     1
    997   1003     1
    997   1006     1
    997   1018     1
   1003   2084     1
   1006   2052     1
   1012   2055     1
   1015   2087     1
   1020   1045     1
   1020   1042     1
   1020   1039     1
   1021   1036     1
   1021   1030     1
   1021   2178     1
   1024   1033     1
   1024   1030     1
   1024   2146     1
   1027   1033     1
   1027   1036     1
   1027   1048     1
   1033   2148     1
   1036   2116     1
   1042   2119     1
   1045   2151     1
   1050   1075     1
   1050   1072     1
   1050   1069     1
   1051   1066     1
   1051   1060     1
   1051   2242     1
   1054   1063     1
   1054   1060     1
   1054   2210     1
   1057   1063     1
   1057   1066     1
   1057   1078     1
   1063   2212     1
   1066   2180     1
   1072   2183     1
   1075   2215     1
   1080   1105     1
   1080   1102     1
   1080   1099     1
   1081   1096     1
   1081   1090     1
   1081   2306     1
   1084   1093     1
   1084   1090     1
   1084   2274     1
   1087   1093     1
   1087   1096     1
   1087   1108     1
   1093   2276     1
   1096   2244     1
   1102   2247     1
   1105   2279     1
   1110   1135     1
   1110   1132     1
   1110   1129     1
   1111   1126     1
   1111   1120     1
   1111   2370     1
   1114   1123     1
   1114   1120     1
   1114   2338     1
   1117   1123     1
   1117   1126     1
   1117   1138     1
   1123   2340     1
   1126   2308     1
   1132   2311     1
   1135   2343     1
   1140   1165     1
   1140   1162     1
   1140   1159     1
   1141   1156     1
   1141   1150     1
   1141   2434     1
   1144   1153     1
   1144   1150     1
   1144   2402     1
   1147   1153     1
   1147   1156     1
   1147   1168     1
   1153   2404     1
   1156   2372     1
   1162   2375     1
   1165   2407     1
   1170   1195     1
   1170   1192     1
   1170   1189     1
   1171   1186     1
   1171   1180     1
   1171   2498     1
   1174   1183     1
   1174   1180     1
   1174   2466     1
   1177   1183     1
   1177   1186     1
   1177   1198     1
   1183   2468     1
   1186   2436     1
   1192   2439     1
   1195   2471     1
   1200   1225     1
   1200   1222     1
   1200   1219     1
   1201   1216     1
   1201   1210     1
   1201   2562     1
   1204   1213     1
   1204   1210     1
   1204   2530     1
   1207   1213     1
   1207   1216     1
   1207   1228     1
   1213   2532     1
   1216   2500     1
   1222   2503     1
   1225   2535     1
   1230   1255     1
   1230   1252     1
   1230   1249     1
   1231   1246     1
   1231   1240     1
   1231   2626     1
   1234   1243     1
   1234   1240     1
   1234   2594     1
   1237   1243     1
   1237   1246     1
   1237   1258     1
   1243   2596     1
   1246   2564     1
   1252   2567     1
   1255   2599     1
   1260   1285     1
   1260   1282     1
   1260   1279     1
   1261   1276     1
   1261   1270     1
   1261   2690     1
   1264   1273     1
   1264   1270     1
   1264   2658     1
   1267   1273     1
   1267   1276     1
   1267   1288     1
   1273   2660     1
   1276   2628     1
   1282   2631     1
   1285   2663     1
   1290   1315     1
   1290   1312     1
   1290   1309     1
   1291   1306     1
   1291   1300     1
   1291   2754     1
   1294   1303     1
   1294   1300     1
   1294   2722     1
   1297   1303     1
   1297   1306     1
   1297   1318     1
   1303   2724     1
   1306   2692     1
   1312   2695     1
   1315   2727     1
   1320   1345     1
   1320   1342     1
   1320   1339     1
   1321   1336     1
   1321   1330     1
   1321   2818     1
   1324   1333     1
   1324   1330     1
   1324   2786     1
   1327   1333     1
   1327   1336     1
   1327   1348     1
   1333   2788     1
   1336   2756     1
   1342   2759     1
   1345   2791     1
   1350   1375     1
   1350   1372     1
   1350   1369     1
   1351   1366     1
   1351   1360     1
   1351   2882     1
   1354   1363     1
   1354   1360     1
   1354   2850     1
   1357   1363     1
   1357   1366     1
   1357   1378     1
   1363   2852     1
   1366   2820     1
   1372   2823     1
   1375   2855     1
   1380   1405     1
   1380   1402     1
   1380   1399     1
   1381   1396     1
   1381   1390     1
   1381   2946     1
   1384   1393     1
   1384   1390     1
   1384   2914     1
   1387   1393     1
   1387   1396     1
   1387   1408     1
   1393   2916     1
   1396   2884     1
   1402   2887     1
   1405   2919     1
   1410   1435     1
   1410   1432     1
   1410   1429     1
   1411   1426     1
   1411   1420     1
   1411   3010     1
   1414   1423     1
   1414   1420     1
   1414   2978     1
   1417   1423     1
   1417   1426     1
   1417   1438     1
   1423   2980     1
   1426   2948     1
   1432   2951     1
   1435   2983     1
   1440   1465     1
   1440   1462     1
   1440   1459     1
   1441   1456     1
   1441   1450     1
   1441   3074     1
   1444   1453     1
   1444   1450     1
   1444   3042     1
   1447   1453     1
   1447   1456     1
   1447   1468     1
   1453   3044     1
   1456   3012     1
   1462   3015     1
   1465   3047     1
   1470   1495     1
   1470   1492     1
   1470   1489     1
   1471   1486     1
   1471   1480     1
   1471   3138     1
   1474   1483     1
   1474   1480     1
   1474   3106     1
   1477   1483     1
   1477   1486     1
   1477   1498     1
   1483   3108     1
   1486   3076     1
   1492   3079     1
   1495   3111     1
   1500   1525     1
   1500   1522     1
   1500   1519     1
   1501   1516     1
   1501   1510     1
   1501   3202     1
   1504   1513     1
   1504   1510     1
   1504   3170     1
   1507   1513     1
   1507   1516     1
   1507   1528     1
   1513   3172     1
   1516   3140     1
   1522   3143     1
   1525   3175     1
   1530   1555     1
   1530   1552     1
   1530   1549     1
   1531   1546     1
   1531   1540     1
   1531   3266     1
   1534   1543     1
   1534   1540     1
   1534   3234     1
   1537   1543     1
   1537   1546     1
   1537   1558     1
   1543   3236     1
   1546   3204     1
   1552   3207     1
   1555   3239     1
   1560   1585     1
   1560   1582     1
   1560   1579     1
   1561   1576     1
   1561   1570     1
   1561   3330     1
   1564   1573     1
   1564   1570     1
   1564   3298     1
   1567   1573     1
   1567   1576     1
   1567   1588     1
   1573   3300     1
   1576   3268     1
   1582   3271     1
   1585   3303     1
   1590   1615     1
   1590   1612     1
   1590   1609     1
   1591   1606     1
   1591   1600     1
   1591   3394     1
   1594   1603     1
   1594   1600     1
   1594   3362     1
   1597   1603     1
   1597   1606     1
   1597   1618     1
   1603   3364     1
   1606   3332     1
   1612   3335     1
   1615   3367     1
   1620   1645     1
   1620   1642     1
   1620   1639     1
   1621   1636     1
   1621   1630     1
   1621   3458     1
   1624   1633     1
   1624   1630     1
   1624   3426     1
   1627   1633     1
   1627   1636     1
   1627   1648     1
   1633   3428     1
   1636   3396     1
   1642   3399     1
   1645   3431     1
   1650   1675     1
   1650   1672     1
   1650   1669     1
   1651   1666     1
   1651   1660     1
   1651   3522     1
   1654   1663     1
   1654   1660     1
   1654   3490     1
   1657   1663     1
   1657   1666     1
   1657   1678     1
   1663   3492     1
   1666   3460     1
   1672   3463     1
   1675   3495     1
   1680   1705     1
   1680   1702     1
   1680   1699     1
   1681   1696     1
   1681   1690     1
   1681   3586     1
   1684   1693     1
   1684   1690     1
   1684   3554     1
   1687   1693     1
   1687   1696     1
   1687   1708     1
   1693   3556     1
   1696   3524     1
   1702   3527     1
   1705   3559     1
   1710   1735     1
   1710   1732     1
   1710   1729     1
   1711   1726     1
   1711   1720     1
   1711   3650     1
   1714   1723     1
   1714   1720     1
   1714   3618     1
   1717   1723     1
   1717   1726     1
   1717   1738     1
   1723   3620     1
   1726   3588     1
   1732   3591     1
   1735   3623     1
   1740   1765     1
   1740   1762     1
   1740   1759     1
   1741   1756     1
   1741   1750     1
   1741   3714     1
   1744   1753     1
   1744   1750     1
   1744   3682     1
   1747   1753     1
   1747   1756     1
   1747   1768     1
   1753   3684     1
   1756   3652     1
   1762   3655     1
   1765   3687     1
   1770   1795     1
   1770   1792     1
   1770   1789     1
   1771   1786     1
   1771   1780     1
   1771   3778     1
   1774   1783     1
   1774   1780     1
   1774   3746     1
   1777   1783     1
   1777   1786     1
   1777   1798     1
   1783   3748     1
   1786   3716     1
   1792   3719     1
   1795   3751     1
   1800   1825     1
   1800   1822     1
   1800   1819     1
   1801   1816     1
   1801   1810     1
   1801   3842     1
   1804   1813     1
   1804   1810     1
   1804   3810     1
   1807   1813     1
   1807   1816     1
   1807   1828     1
   1813   3812     1
   1816   3780     1
   1822   3783     1
   1825   3815     1
   1830   1855     1
   1830   1852     1
   1830   1849     1
   1831   1846     1
   1831   1840     1
   1831   3906     1
   1834   1843     1
   1834   1840     1
   1834   3874     1
   1837   1843     1
   1837   1846     1
   1837   1858     1
   1843   3876     1
   1846   3844     1
   1852   3847     1
   1855   3879     1
   1860   1869     1
   1863   1870     1
   1863   1880     1
   1866   1890     1
   1866   1873     1
   1866   1883     1
   1869   1876     1
   1869   1886     1
   1870   1883     1
   1870   1877     1
   1870   1878     1
   1873   1880     1
   1880   1887     1
   1880   1888     1
   1892   1901     1
   1895   1902     1
   1895   1912     1
   1898   1905     1
   1898   1915     1
   1898   1922     1
   1901   1908     1
   1901   1918     1
   1902   1909     1
   1902   1910     1
   1902   1915     1
   1905   1912     1
   1912   1919     1
   1912   1920     1
   1924   1933     1
   1927   1934     1
   1927   1944     1
   1930   1954     1
   1930   1937     1
   1930   1947     1
   1933   1940     1
   1933   1950     1
   1934   1947     1
   1934   1941     1
   1934   1942     1
   1937   1944     1
   1944   1951     1
   1944   1952     1
   1956   1965     1
   1959   1966     1
   1959   1976     1
   1962   1969     1
   1962   1979     1
   1962   1986     1
   1965   1972     1
   1965   1982     1
   1966   1973     1
   1966   1974     1
   1966   1979     1
   1969   1976     1
   1976   1983     1
   1976   1984     1
   1988   1997     1
   1991   1998     1
   1991   2008     1
   1994   2018     1
   1994   2001     1
   1994   2011     1
   1997   2004     1
   1997   2014     1
   1998   2011     1
   1998   2005     1
   1998   2006     1
   2001   2008     1
   2008   2015     1
   2008   2016     1
   2020   2029     1
   2023   2030     1
   2023   2040     1
   2026   2033     1
   2026   2043     1
   2026   2050     1
   2029   2036     1
   2029   2046     1
   2030   2037     1
   2030   2038     1
   2030   2043     1
   2033   2040     1
   2040   2047     1
   2040   2048     1
   2052   2061     1
   2055   2062     1
   2055   2072     1
   2058   2082     1
   2058   2065     1
   2058   2075     1
   2061   2068     1
   2061   2078     1
   2062   2075     1
   2062   2069     1
   2062   2070     1
   2065   2072     1
   2072   2079     1
   2072   2080     1
   2084   2093     1
   2087   2094     1
   2087   2104     1
   2090   2097     1
   2090   2107     1
   2090   2114     1
   2093   2100     1
   2093   2110     1
   2094   2101     1
   2094   2102     1
   2094   2107     1
   2097   2104     1
   2104   2111     1
   2104   2112     1
   2116   2125     1
   2119   2126     1
   2119   2136     1
   2122   2146     1
   2122   2129     1
   2122   2139     1
   2125   2132     1
   2125   2142     1
   2126   2139     1
   2126   2133     1
   2126   2134     1
   2129   2136     1
   2136   2143     1
   2136   2144     1
   2148   2157     1
   2151   2158     1
   2151   2168     1
   2154   2161     1
   2154   2171     1
   2154   2178     1
   2157   2164     1
   2157   2174     1
   2158   2165     1
   2158   2166     1
   2158   2171     1
   2161   2168     1
   2168   2175     1
   2168   2176     1
   2180   2189     1
   2183   2190     1
   2183   2200     1
   2186   2210     1
   2186   2193     1
   2186   2203     1
   2189   2196     1
   2189   2206     1
   2190   2203     1
   2190   2197     1
   2190   2198     1
   2193   2200     1
   2200   2207     1
   2200   2208     1
   2212   2221     1
   2215   2222     1
   2215   2232     1
   2218   2225     1
   2218   2235     1
   2218   2242     1
   2221   2228     1
   2221   2238     1
   2222   2229     1
   2222   2230     1
   2222   2235     1
   2225   2232     1
   2232   2239     1
   2232   2240     1
   2244   2253     1
   2247   2254     1
   2247   2264     1
   2250   2274     1
   2250   2257     1
   2250   2267     1
   2253   2260     1
   2253   2270     1
   2254   2267     1
   2254   2261     1
   2254   2262     1
   2257   2264     1
   2264   2271     1
   2264   2272     1
   2276   2285     1
   2279   2286     1
   2279   2296     1
   2282   2289     1
   2282   2299     1
   2282   2306     1
   2285   2292     1
   2285   2302     1
   2286   2293     1
   2286   2294     1
   2286   2299     1
   2289   2296     1
   2296   2303     1
   2296   2304     1
   2308   2317     1
   2311   2318     1
   2311   2328     1
   2314   2338     1
   2314   2321     1
   2314   2331     1
   2317   2324     1
   2317   2334     1
   2318   2331     1
   2318   2325     1
   2318   2326     1
   2321   2328     1
   2328   2335     1
   2328   2336     1
   2340   2349     1
   2343   2350     1
   2343   2360     1
   2346   2353     1
   2346   2363     1
   2346   2370     1
   2349   2356     1
   2349   2366     1
   2350   2357     1
   2350   2358     1
   2350   2363     1
   2353   2360     1
   2360   2367     1
   2360   2368     1
   2372   2381     1
   2375   2382     1
   2375   2392     1
   2378   2402     1
   2378   2385     1
   2378   2395     1
   2381   2388     1
   2381   2398     1
   2382   2395     1
   2382   2389     1
   2382   2390     1
   2385   2392     1
   2392   2399     1
   2392   2400     1
   2404   2413     1
   2407   2414     1
   2407   2424     1
   2410   2417     1
   2410   2427     1
   2410   2434     1
   2413   2420     1
   2413   2430     1
   2414   2421     1
   2414   2422     1
   2414   2427     1
   2417   2424     1
   2424   2431     1
   2424   2432     1
   2436   2445     1
   2439   2446     1
   2439   2456     1
   2442   2466     1
   2442   2449     1
   2442   2459     1
   2445   2452     1
   2445   2462     1
   2446   2459     1
   2446   2453     1
   2446   2454     1
   2449   2456     1
   2456   2463     1
   2456   2464     1
   2468   2477     1
   2471   2478     1
   2471   2488     1
   2474   2481     1
   2474   2491     1
   2474   2498     1
   2477   2484     1
   2477   2494     1
   2478   2485     1
   2478   2486     1
   2478   2491     1
   2481   2488     1
   2488   2495     1
   2488   2496     1
   2500   2509     1
   2503   2510     1
   2503   2520     1
   2506   2530     1
   2506   2513     1
   2506   2523     1
   2509   2516     1
   2509   2526     1
   2510   2523     1
   2510   2517     1
   2510   2518     1
   2513   2520     1
   2520   2527     1
   2520   2528     1
   2532   2541     1
   2535   2542     1
   2535   2552     1
   2538   2545     1
   2538   2555     1
   2538   2562     1
   2541   2548     1
   2541   2558     1
   2542   2549     1
   2542   2550     1
   2542   2555     1
   2545   2552     1
   2552   2559     1
   2552   2560     1
   2564   2573     1
   2567   2574     1
   2567   2584     1
   2570   2594     1
   2570   2577     1
   2570   2587     1
   2573   2580     1
   2573   2590     1
   2574   2587     1
   2574   2581     1
   2574   2582     1
   2577   2584     1
   2584   2591     1
   2584   2592     1
   2596   2605     1
   2599   2606     1
   2599   2616     1
   2602   2609     1
   2602   2619     1
   2602   2626     1
   2605   2612     1
   2605   2622     1
   2606   2613     1
   2606   2614     1
   2606   2619     1
   2609   2616     1
   2616   2623     1
   2616   2624     1
   2628   2637     1
   2631   2638     1
   2631   2648     1
   2634   2658     1
   2634   2641     1
   2634   2651     1
   2637   2644     1
   2637   2654     1
   2638   2651     1
   2638   2645     1
   2638   2646     1
   2641   2648     1
   2648   2655     1
   2648   2656     1
   2660   2669     1
   2663   2670     1
   2663   2680     1
   2666   2673     1
   2666   2683     1
   2666   2690     1
   2669   2676     1
   2669   2686     1
   2670   2677     1
   2670   2678     1
   2670   2683     1
   2673   2680     1
   2680   2687     1
   2680   2688     1
   2692   2701     1
   2695   2702     1
   2695   2712     1
   2698   2722     1
   2698   2705     1
   2698   2715     1
   2701   2708     1
   2701   2718     1
   2702   2715     1
   2702   2709     1
   2702   2710     1
   2705   2712     1
   2712   2719     1
   2712   2720     1
   2724   2733     1
   2727   2734     1
   2727   2744     1
   2730   2737     1
   2730   2747     1
   2730   2754     1
   2733   2740     1
   2733   2750     1
   2734   2741     1
   2734   2742     1
   2734   2747     1
   2737   2744     1
   2744   2751     1
   2744   2752     1
   2756   2765     1
   2759   2766     1
   2759   2776     1
   2762   2786     1
   2762   2769     1
   2762   2779     1
   2765   2772     1
   2765   2782     1
   2766   2779     1
   2766   2773     1
   2766   2774     1
   2769   2776     1
   2776   2783     1
   2776   2784     1
   2788   2797     1
   2791   2798     1
   2791   2808     1
   2794   2801     1
   2794   2811     1
   2794   2818     1
   2797   2804     1
   2797   2814     1
   2798   2805     1
   2798   2806     1
   2798   2811     1
   2801   2808     1
   2808   2815     1
   2808   2816     1
   2820   2829     1
   2823   2830     1
   2823   2840     1
   2826   2850     1
   2826   2833     1
   2826   2843     1
   2829   2836     1
   2829   2846     1
   2830   2843     1
   2830   2837     1
   2830   2838     1
   2833   2840     1
   2840   2847     1
   2840   2848     1
   2852   2861     1
   2855   2862     1
   2855   2872     1
   2858   2865     1
   2858   2875     1
   2858   2882     1
   2861   2868     1
   2861   2878     1
   2862   2869     1
   2862   2870     1
   2862   2875     1
   2865   2872     1
   2872   2879     1
   2872   2880     1
   2884   2893     1
   2887   2894     1
   2887   2904     1
   2890   2914     1
   2890   2897     1
   2890   2907     1
   2893   2900     1
   2893   2910     1
   2894   2907     1
   2894   2901     1
   2894   2902     1
   2897   2904     1
   2904   2911     1
   2904   2912     1
   2916   2925     1
   2919   2926     1
   2919   2936     1
   2922   2929     1
   2922   2939     1
   2922   2946     1
   2925   2932     1
   2925   2942     1
   2926   2933     1
   2926   2934     1
   2926   2939     1
   2929   2936     1
   2936   2943     1
   2936   2944     1
   2948   2957     1
   2951   2958     1
   2951   2968     1
   2954   2978     1
   2954   2961     1
   2954   2971     1
   2957   2964     1
   2957   2974     1
   2958   2971     1
   2958   2965     1
   2958   2966     1
   2961   2968     1
   2968   2975     1
   2968   2976     1
   2980   2989     1
   2983   2990     1
   2983   3000     1
   2986   2993     1
   2986   3003     1
   2986   3010     1
   2989   2996     1
   2989   3006     1
   2990   2997     1
   2990   2998     1
   2990   3003     1
   2993   3000     1
   3000   3007     1
   3000   3008     1
   3012   3021     1
   3015   3022     1
   3015   3032     1
   3018   3042     1
   3018   3025     1
   3018   3035     1
   3021   3028     1
   3021   3038     1
   3022   3035     1
   3022   3029     1
   3022   3030     1
   3025   3032     1
   3032   3039     1
   3032   3040     1
   3044   3053     1
   3047   3054     1
   3047   3064     1
   3050   3057     1
   3050   3067     1
   3050   3074     1
   3053   3060     1
   3053   3070     1
   3054   3061     1
   3054   3062     1
   3054   3067     1
   3057   3064     1
   3064   3071     1
   3064   3072     1
   3076   3085     1
   3079   3086     1
   3079   3096     1
   3082   3106     1
   3082   3089     1
   3082   3099     1
   3085   3092     1
   3085   3102     1
   3086   3099     1
   3086   3093     1
   3086   3094     1
   3089   3096     1
   3096   3103     1
   3096   3104     1
   3108   3117     1
   3111   3118     1
   3111   3128     1
   3114   3121     1
   3114   3131     1
   3114   3138     1
   3117   3124     1
   3117   3134     1
   3118   3125     1
   3118   3126     1
   3118   3131     1
   3121   3128     1
   3128   3135     1
   3128   3136     1
   3140   3149     1
   3143   3150     1
   3143   3160     1
   3146   3170     1
   3146   3153     1
   3146   3163     1
   3149   3156     1
   3149   3166     1
   3150   3163     1
   3150   3157     1
   3150   3158     1
   3153   3160     1
   3160   3167     1
   3160   3168     1
   3172   3181     1
   3175   3182     1
   3175   3192     1
   3178   3185     1
   3178   3195     1
   3178   3202     1
   3181   3188     1
   3181   3198     1
   3182   3189     1
   3182   3190     1
   3182   3195     1
   3185   3192     1
   3192   3199     1
   3192   3200     1
   3204   3213     1
   3207   3214     1
   3207   3224     1
   3210   3234     1
   3210   3217     1
   3210   3227     1
   3213   3220     1
   3213   3230     1
   3214   3227     1
   3214   3221     1
   3214   3222     1
   3217   3224     1
   3224   3231     1
   3224   3232     1
   3236   3245     1
   3239   3246     1
   3239   3256     1
   3242   3249     1
   3242   3259     1
   3242   3266     1
   3245   3252     1
   3245   3262     1
   3246   3253     1
   3246   3254     1
   3246   3259     1
   3249   3256     1
   3256   3263     1
   3256   3264     1
   3268   3277     1
   3271   3278     1
   3271   3288     1
   3274   3298     1
   3274   3281     1
   3274   3291     1
   3277   3284     1
   3277   3294     1
   3278   3291     1
   3278   3285     1
   3278   3286     1
   3281   3288     1
   3288   3295     1
   3288   3296     1
   3300   3309     1
   3303   3310     1
   3303   3320     1
   3306   3313     1
   3306   3323     1
   3306   3330     1
   3309   3316     1
   3309   3326     1
   3310   3317     1
   3310   3318     1
   3310   3323     1
   3313   3320     1
   3320   3327     1
   3320   3328     1
   3332   3341     1
   3335   3342     1
   3335   3352     1
   3338   3362     1
   3338   3345     1
   3338   3355     1
   3341   3348     1
   3341   3358     1
   3342   3355     1
   3342   3349     1
   3342   3350     1
   3345   3352     1
   3352   3359     1
   3352   3360     1
   3364   3373     1
   3367   3374     1
   3367   3384     1
   3370   3377     1
   3370   3387     1
   3370   3394     1
   3373   3380     1
   3373   3390     1
   3374   3381     1
   3374   3382     1
   3374   3387     1
   3377   3384     1
   3384   3391     1
   3384   3392     1
   3396   3405     1
   3399   3406     1
   3399   3416     1
   3402   3426     1
   3402   3409     1
   3402   3419     1
   3405   3412     1
   3405   3422     1
   3406   3419     1
   3406   3413     1
   3406   3414     1
   3409   3416     1
   3416   3423     1
   3416   3424     1
   3428   3437     1
   3431   3438     1
   3431   3448     1
   3434   3441     1
   3434   3451     1
   3434   3458     1
   3437   3444     1
   3437   3454     1
   3438   3445     1
   3438   3446     1
   3438   3451     1
   3441   3448     1
   3448   3455     1
   3448   3456     1
   3460   3469     1
   3463   3470     1
   3463   3480     1
   3466   3490     1
   3466   3473     1
   3466   3483     1
   3469   3476     1
   3469   3486     1
   3470   3483     1
   3470   3477     1
   3470   3478     1
   3473   3480     1
   3480   3487     1
   3480   3488     1
   3492   3501     1
   3495   3502     1
   3495   3512     1
   3498   3505     1
   3498   3515     1
   3498   3522     1
   3501   3508     1
   3501   3518     1
   3502   3509     1
   3502   3510     1
   3502   3515     1
   3505   3512     1
   3512   3519     1
   3512   3520     1
   3524   3533     1
   3527   3534     1
   3527   3544     1
   3530   3554     1
   3530   3537     1
   3530   3547     1
   3533   3540     1
   3533   3550     1
   3534   3547     1
   3534   3541     1
   3534   3542     1
   3537   3544     1
   3544   3551     1
   3544   3552     1
   3556   3565     1
   3559   3566     1
   3559   3576     1
   3562   3569     1
   3562   3579     1
   3562   3586     1
   3565   3572     1
   3565   3582     1
   3566   3573     1
   3566   3574     1
   3566   3579     1
   3569   3576     1
   3576   3583     1
   3576   3584     1
   3588   3597     1
   3591   3598     1
   3591   3608     1
   3594   3618     1
   3594   3601     1
   3594   3611     1
   3597   3604     1
   3597   3614     1
   3598   3611     1
   3598   3605     1
   3598   3606     1
   3601   3608     1
   3608   3615     1
   3608   3616     1
   3620   3629     1
   3623   3630     1
   3623   3640     1
   3626   3633     1
   3626   3643     1
   3626   3650     1
   3629   3636     1
   3629   3646     1
   3630   3637     1
   3630   3638     1
   3630   3643     1
   3633   3640     1
   3640   3647     1
   3640   3648     1
   3652   3661     1
   3655   3662     1
   3655   3672     1
   3658   3682     1
   3658   3665     1
   3658   3675     1
   3661   3668     1
   3661   3678     1
   3662   3675     1
   3662   3669     1
   3662   3670     1
   3665   3672     1
   3672   3679     1
   3672   3680     1
   3684   3693     1
   3687   3694     1
   3687   3704     1
   3690   3697     1
   3690   3707     1
   3690   3714     1
   3693   3700     1
   3693   3710     1
   3694   3701     1
   3694   3702     1
   3694   3707     1
   3697   3704     1
   3704   3711     1
   3704   3712     1
   3716   3725     1
   3719   3726     1
   3719   3736     1
   3722   3746     1
   3722   3729     1
   3722   3739     1
   3725   3732     1
   3725   3742     1
   3726   3739     1
   3726   3733     1
   3726   3734     1
   3729   3736     1
   3736   3743     1
   3736   3744     1
   3748   3757     1
   3751   3758     1
   3751   3768     1
   3754   3761     1
   3754   3771     1
   3754   3778     1
   3757   3764     1
   3757   3774     1
   3758   3765     1
   3758   3766     1
   3758   3771     1
   3761   3768     1
   3768   3775     1
   3768   3776     1
   3780   3789     1
   3783   3790     1
   3783   3800     1
   3786   3810     1
   3786   3793     1
   3786   3803     1
   3789   3796     1
   3789   3806     1
   3790   3803     1
   3790   3797     1
   3790   3798     1
   3793   3800     1
   3800   3807     1
   3800   3808     1
   3812   3821     1
   3815   3822     1
   3815   3832     1
   3818   3825     1
   3818   3835     1
   3818   3842     1
   3821   3828     1
   3821   3838     1
   3822   3829     1
   3822   3830     1
   3822   3835     1
   3825   3832     1
   3832   3839     1
   3832   3840     1
   3844   3853     1
   3847   3854     1
   3847   3864     1
   3850   3874     1
   3850   3857     1
   3850   3867     1
   3853   3860     1
   3853   3870     1
   3854   3867     1
   3854   3861     1
   3854   3862     1
   3857   3864     1
   3864   3871     1
   3864   3872     1
   3876   3885     1
   3879   3886     1
   3879   3896     1
   3882   3889     1
   3882   3899     1
   3882   3906     1
   3885   3892     1
   3885   3902     1
   3886   3893     1
   3886   3894     1
   3886   3899     1
   3889   3896     1
   3896   3903     1
   3896   3904     1
      1      9     1
      1     10     1
      1     12     1
      1     13     1
      2      6     1
      2      7     1
      2     15     1
      2     16     1
      5      3     1
      3     14     1
      3      9     1
      3     10     1
      5      4     1
      4     14     1
      4      9     1
      4     10     1
      5     18     1
      5     19     1
      6     17     1
      6     12     1
      6     13     1
      7     17     1
      7     12     1
      7     13     1
      8     58     1
      9     20     1
      9     15     1
      9     16     1
     10     20     1
     10     15     1
     10     16     1
     11     59     1
     12     21     1
     12     18     1
     12     19     1
     13     21     1
     13     18     1
     13     19     1
     14     29     1
     14     30     1
     14     32     1
     14     33     1
     15     28     1
     15     31     1
     15     58     1
     16     28     1
     16     31     1
     16     58     1
     17     23     1
     17     24     1
     17     26     1
     17     27     1
     18     22     1
     18     25     1
     18     59     1
     19     22     1
     19     25     1
     19     59     1
     20     41     1
     20     42     1
     20     44     1
     20     45     1
     21     35     1
     21     36     1
     21     38     1
     21     39     1
     22     26     1
     22     27     1
     22     56     1
     22     57     1
     23     25     1
     23     59     1
     23     55     1
     23     35     1
     23     36     1
     24     25     1
     24     59     1
     24     55     1
     24     35     1
     24     36     1
     25     53     1
     25     54     1
     26     59     1
     26     52     1
     26     38     1
     26     39     1
     27     59     1
     27     52     1
     27     38     1
     27     39     1
     28     32     1
     28     33     1
     28     50     1
     28     51     1
     29     31     1
     29     58     1
     29     49     1
     29     41     1
     29     42     1
     30     31     1
     30     58     1
     30     49     1
     30     41     1
     30     42     1
     31     47     1
     31     48     1
     32     58     1
     32     46     1
     32     44     1
     32     45     1
     33     58     1
     33     46     1
     33     44     1
     33     45     1
     34     59     1
     35    178     1
     35     56     1
     35     57     1
     36    178     1
     36     56     1
     36     57     1
     37     59     1
     38    148     1
     38     53     1
     38     54     1
     39    148     1
     39     53     1
     39     54     1
     40     58     1
     41    118     1
     41     50     1
     41     51     1
     42    118     1
     42     50     1
     42     51     1
     43     58     1
     44     88     1
     44     47     1
     44     48     1
     45     88     1
     45     47     1
     45     48     1
     46     80     1
     46     81     1
     47     79     1
     48     79     1
     49    110     1
     49    111     1
     50    109     1
     51    109     1
     52    140     1
     52    141     1
     53    139     1
     54    139     1
     55    170     1
     55    171     1
     56    169     1
     57    169     1
     60     74     1
     60     75     1
     60     77     1
     60     78     1
     60     71     1
     60     72     1
     61     65     1
     61     66     1
     61     68     1
     61     69     1
     61     86     1
     61     87     1
     62     64     1
     62     67     1
     62     89     1
     62     85     1
     62     74     1
     62     75     1
     63     64     1
     63     67     1
     63     89     1
     63     85     1
     63     74     1
     63     75     1
     64     68     1
     64     69     1
     64     83     1
     64     84     1
     65     67     1
     65     89     1
     65     82     1
     65     77     1
     65     78     1
     66     67     1
     66     89     1
     66     82     1
     66     77     1
     66     78     1
     67     80     1
     67     81     1
     68     89     1
     68     79     1
     68     71     1
     68     72     1
     69     89     1
     69     79     1
     69     71     1
     69     72     1
     70     89     1
     71     88     1
     71     80     1
     71     81     1
     72     88     1
     72     80     1
     72     81     1
     73     89     1
     74    238     1
     74     86     1
     74     87     1
     75    238     1
     75     86     1
     75     87     1
     76     89     1
     77    208     1
     77     83     1
     77     84     1
     78    208     1
     78     83     1
     78     84     1
     82    200     1
     82    201     1
     83    199     1
     84    199     1
     85    230     1
     85    231     1
     86    229     1
     87    229     1
     90    104     1
     90    105     1
     90    107     1
     90    108     1
     90    101     1
     90    102     1
     91     95     1
     91     96     1
     91     98     1
     91     99     1
     91    116     1
     91    117     1
     92     94     1
     92     97     1
     92    119     1
     92    115     1
     92    104     1
     92    105     1
     93     94     1
     93     97     1
     93    119     1
     93    115     1
     93    104     1
     93    105     1
     94     98     1
     94     99     1
     94    113     1
     94    114     1
     95     97     1
     95    119     1
     95    112     1
     95    107     1
     95    108     1
     96     97     1
     96    119     1
     96    112     1
     96    107     1
     96    108     1
     97    110     1
     97    111     1
     98    119     1
     98    109     1
     98    101     1
     98    102     1
     99    119     1
     99    109     1
     99    101     1
     99    102     1
    100    119     1
    101    118     1
    101    110     1
    101    111     1
    102    118     1
    102    110     1
    102    111     1
    103    119     1
    104    298     1
    104    116     1
    104    117     1
    105    298     1
    105    116     1
    105    117     1
    106    119     1
    107    268     1
    107    113     1
    107    114     1
    108    268     1
    108    113     1
    108    114     1
    112    260     1
    112    261     1
    113    259     1
    114    259     1
    115    290     1
    115    291     1
    116    289     1
    117    289     1
    120    134     1
    120    135     1
    120    137     1
    120    138     1
    120    131     1
    120    132     1
    121    125     1
    121    126     1
    121    128     1
    121    129     1
    121    146     1
    121    147     1
    122    124     1
    122    127     1
    122    149     1
    122    145     1
    122    134     1
    122    135     1
    123    124     1
    123    127     1
    123    149     1
    123    145     1
    123    134     1
    123    135     1
    124    128     1
    124    129     1
    124    143     1
    124    144     1
    125    127     1
    125    149     1
    125    142     1
    125    137     1
    125    138     1
    126    127     1
    126    149     1
    126    142     1
    126    137     1
    126    138     1
    127    140     1
    127    141     1
    128    149     1
    128    139     1
    128    131     1
    128    132     1
    129    149     1
    129    139     1
    129    131     1
    129    132     1
    130    149     1
    131    148     1
    131    140     1
    131    141     1
    132    148     1
    132    140     1
    132    141     1
    133    149     1
    134    358     1
    134    146     1
    134    147     1
    135    358     1
    135    146     1
    135    147     1
    136    149     1
    137    328     1
    137    143     1
    137    144     1
    138    328     1
    138    143     1
    138    144     1
    142    320     1
    142    321     1
    143    319     1
    144    319     1
    145    350     1
    145    351     1
    146    349     1
    147    349     1
    150    164     1
    150    165     1
    150    167     1
    150    168     1
    150    161     1
    150    162     1
    151    155     1
    151    156     1
    151    158     1
    151    159     1
    151    176     1
    151    177     1
    152    154     1
    152    157     1
    152    179     1
    152    175     1
    152    164     1
    152    165     1
    153    154     1
    153    157     1
    153    179     1
    153    175     1
    153    164     1
    153    165     1
    154    158     1
    154    159     1
    154    173     1
    154    174     1
    155    157     1
    155    179     1
    155    172     1
    155    167     1
    155    168     1
    156    157     1
    156    179     1
    156    172     1
    156    167     1
    156    168     1
    157    170     1
    157    171     1
    158    179     1
    158    169     1
    158    161     1
    158    162     1
    159    179     1
    159    169     1
    159    161     1
    159    162     1
    160    179     1
    161    178     1
    161    170     1
    161    171     1
    162    178     1
    162    170     1
    162    171     1
    163    179     1
    164    418     1
    164    176     1
    164    177     1
    165    418     1
    165    176     1
    165    177     1
    166    179     1
    167    388     1
    167    173     1
    167    174     1
    168    388     1
    168    173     1
    168    174     1
    172    380     1
    172    381     1
    173    379     1
    174    379     1
    175    410     1
    175    411     1
    176    409     1
    177    409     1
    180    194     1
    180    195     1
    180    197     1
    180    198     1
    180    191     1
    180    192     1
    181    185     1
    181    186     1
    181    188     1
    181    189     1
    181    206     1
    181    207     1
    182    184     1
    182    187     1
    182    209     1
    182    205     1
    182    194     1
    182    195     1
    183    184     1
    183    187     1
    183    209     1
    183    205     1
    183    194     1
    183    195     1
    184    188     1
    184    189     1
    184    203     1
    184    204     1
    185    187     1
    185    209     1
    185    202     1
    185    197     1
    185    198     1
    186    187     1
    186    209     1
    186    202     1
    186    197     1
    186    198     1
    187    200     1
    187    201     1
    188    209     1
    188    199     1
    188    191     1
    188    192     1
    189    209     1
    189    199     1
    189    191     1
    189    192     1
    190    209     1
    191    208     1
    191    200     1
    191    201     1
    192    208     1
    192    200     1
    192    201     1
    193    209     1
    194    478     1
    194    206     1
    194    207     1
    195    478     1
    195    206     1
    195    207     1
    196    209     1
    197    448     1
    197    203     1
    197    204     1
    198    448     1
    198    203     1
    198    204     1
    202    440     1
    202    441     1
    203    439     1
    204    439     1
    205    470     1
    205    471     1
    206    469     1
    207    469     1
    210    224     1
    210    225     1
    210    227     1
    210    228     1
    210    221     1
    210    222     1
    211    215     1
    211    216     1
    211    218     1
    211    219     1
    211    236     1
    211    237     1
    212    214     1
    212    217     1
    212    239     1
    212    235     1
    212    224     1
    212    225     1
    213    214     1
    213    217     1
    213    239     1
    213    235     1
    213    224     1
    213    225     1
    214    218     1
    214    219     1
    214    233     1
    214    234     1
    215    217     1
    215    239     1
    215    232     1
    215    227     1
    215    228     1
    216    217     1
    216    239     1
    216    232     1
    216    227     1
    216    228     1
    217    230     1
    217    231     1
    218    239     1
    218    229     1
    218    221     1
    218    222     1
    219    239     1
    219    229     1
    219    221     1
    219    222     1
    220    239     1
    221    238     1
    221    230     1
    221    231     1
    222    238     1
    222    230     1
    222    231     1
    223    239     1
    224    538     1
    224    236     1
    224    237     1
    225    538     1
    225    236     1
    225    237     1
    226    239     1
    227    508     1
    227    233     1
    227    234     1
    228    508     1
    228    233     1
    228    234     1
    232    500     1
    232    501     1
    233    499     1
    234    499     1
    235    530     1
    235    531     1
    236    529     1
    237    529     1
    240    254     1
    240    255     1
    240    257     1
    240    258     1
    240    251     1
    240    252     1
    241    245     1
    241    246     1
    241    248     1
    241    249     1
    241    266     1
    241    267     1
    242    244     1
    242    247     1
    242    269     1
    242    265     1
    242    254     1
    242    255     1
    243    244     1
    243    247     1
    243    269     1
    243    265     1
    243    254     1
    243    255     1
    244    248     1
    244    249     1
    244    263     1
    244    264     1
    245    247     1
    245    269     1
    245    262     1
    245    257     1
    245    258     1
    246    247     1
    246    269     1
    246    262     1
    246    257     1
    246    258     1
    247    260     1
    247    261     1
    248    269     1
    248    259     1
    248    251     1
    248    252     1
    249    269     1
    249    259     1
    249    251     1
    249    252     1
    250    269     1
    251    268     1
    251    260     1
    251    261     1
    252    268     1
    252    260     1
    252    261     1
    253    269     1
    254    598     1
    254    266     1
    254    267     1
    255    598     1
    255    266     1
    255    267     1
    256    269     1
    257    568     1
    257    263     1
    257    264     1
    258    568     1
    258    263     1
    258    264     1
    262    560     1
    262    561     1
    263    559     1
    264    559     1
    265    590     1
    265    591     1
    266    589     1
    267    589     1
    270    284     1
    270    285     1
    270    287     1
    270    288     1
    270    281     1
    270    282     1
    271    275     1
    271    276     1
    271    278     1
    271    279     1
    271    296     1
    271    297     1
    272    274     1
    272    277     1
    272    299     1
    272    295     1
    272    284     1
    272    285     1
    273    274     1
    273    277     1
    273    299     1
    273    295     1
    273    284     1
    273    285     1
    274    278     1
    274    279     1
    274    293     1
    274    294     1
    275    277     1
    275    299     1
    275    292     1
    275    287     1
    275    288     1
    276    277     1
    276    299     1
    276    292     1
    276    287     1
    276    288     1
    277    290     1
    277    291     1
    278    299     1
    278    289     1
    278    281     1
    278    282     1
    279    299     1
    279    289     1
    279    281     1
    279    282     1
    280    299     1
    281    298     1
    281    290     1
    281    291     1
    282    298     1
    282    290     1
    282    291     1
    283    299     1
    284    658     1
    284    296     1
    284    297     1
    285    658     1
    285    296     1
    285    297     1
    286    299     1
    287    628     1
    287    293     1
    287    294     1
    288    628     1
    288    293     1
    288    294     1
    292    620     1
    292    621     1
    293    619     1
    294    619     1
    295    650     1
    295    651     1
    296    649     1
    297    649     1
    300    314     1
    300    315     1
    300    317     1
    300    318     1
    300    311     1
    300    312     1
    301    305     1
    301    306     1
    301    308     1
    301    309     1
    301    326     1
    301    327     1
    302    304     1
    302    307     1
    302    329     1
    302    325     1
    302    314     1
    302    315     1
    303    304     1
    303    307     1
    303    329     1
    303    325     1
    303    314     1
    303    315     1
    304    308     1
    304    309     1
    304    323     1
    304    324     1
    305    307     1
    305    329     1
    305    322     1
    305    317     1
    305    318     1
    306    307     1
    306    329     1
    306    322     1
    306    317     1
    306    318     1
    307    320     1
    307    321     1
    308    329     1
    308    319     1
    308    311     1
    308    312     1
    309    329     1
    309    319     1
    309    311     1
    309    312     1
    310    329     1
    311    328     1
    311    320     1
    311    321     1
    312    328     1
    312    320     1
    312    321     1
    313    329     1
    314    718     1
    314    326     1
    314    327     1
    315    718     1
    315    326     1
    315    327     1
    316    329     1
    317    688     1
    317    323     1
    317    324     1
    318    688     1
    318    323     1
    318    324     1
    322    680     1
    322    681     1
    323    679     1
    324    679     1
    325    710     1
    325    711     1
    326    709     1
    327    709     1
    330    344     1
    330    345     1
    330    347     1
    330    348     1
    330    341     1
    330    342     1
    331    335     1
    331    336     1
    331    338     1
    331    339     1
    331    356     1
    331    357     1
    332    334     1
    332    337     1
    332    359     1
    332    355     1
    332    344     1
    332    345     1
    333    334     1
    333    337     1
    333    359     1
    333    355     1
    333    344     1
    333    345     1
    334    338     1
    334    339     1
    334    353     1
    334    354     1
    335    337     1
    335    359     1
    335    352     1
    335    347     1
    335    348     1
    336    337     1
    336    359     1
    336    352     1
    336    347     1
    336    348     1
    337    350     1
    337    351     1
    338    359     1
    338    349     1
    338    341     1
    338    342     1
    339    359     1
    339    349     1
    339    341     1
    339    342     1
    340    359     1
    341    358     1
    341    350     1
    341    351     1
    342    358     1
    342    350     1
    342    351     1
    343    359     1
    344    778     1
    344    356     1
    344    357     1
    345    778     1
    345    356     1
    345    357     1
    346    359     1
    347    748     1
    347    353     1
    347    354     1
    348    748     1
    348    353     1
    348    354     1
    352    740     1
    352    741     1
    353    739     1
    354    739     1
    355    770     1
    355    771     1
    356    769     1
    357    769     1
    360    374     1
    360    375     1
    360    377     1
    360    378     1
    360    371     1
    360    372     1
    361    365     1
    361    366     1
    361    368     1
    361    369     1
    361    386     1
    361    387     1
    362    364     1
    362    367     1
    362    389     1
    362    385     1
    362    374     1
    362    375     1
    363    364     1
    363    367     1
    363    389     1
    363    385     1
    363    374     1
    363    375     1
    364    368     1
    364    369     1
    364    383     1
    364    384     1
    365    367     1
    365    389     1
    365    382     1
    365    377     1
    365    378     1
    366    367     1
    366    389     1
    366    382     1
    366    377     1
    366    378     1
    367    380     1
    367    381     1
    368    389     1
    368    379     1
    368    371     1
    368    372     1
    369    389     1
    369    379     1
    369    371     1
    369    372     1
    370    389     1
    371    388     1
    371    380     1
    371    381     1
    372    388     1
    372    380     1
    372    381     1
    373    389     1
    374    838     1
    374    386     1
    374    387     1
    375    838     1
    375    386     1
    375    387     1
    376    389     1
    377    808     1
    377    383     1
    377    384     1
    378    808     1
    378    383     1
    378    384     1
    382    800     1
    382    801     1
    383    799     1
    384    799     1
    385    830     1
    385    831     1
    386    829     1
    387    829     1
    390    404     1
    390    405     1
    390    407     1
    390    408     1
    390    401     1
    390    402     1
    391    395     1
    391    396     1
    391    398     1
    391    399     1
    391    416     1
    391    417     1
    392    394     1
    392    397     1
    392    419     1
    392    415     1
    392    404     1
    392    405     1
    393    394     1
    393    397     1
    393    419     1
    393    415     1
    393    404     1
    393    405     1
    394    398     1
    394    399     1
    394    413     1
    394    414     1
    395    397     1
    395    419     1
    395    412     1
    395    407     1
    395    408     1
    396    397     1
    396    419     1
    396    412     1
    396    407     1
    396    408     1
    397    410     1
    397    411     1
    398    419     1
    398    409     1
    398    401     1
    398    402     1
    399    419     1
    399    409     1
    399    401     1
    399    402     1
    400    419     1
    401    418     1
    401    410     1
    401    411     1
    402    418     1
    402    410     1
    402    411     1
    403    419     1
    404    898     1
    404    416     1
    404    417     1
    405    898     1
    405    416     1
    405    417     1
    406    419     1
    407    868     1
    407    413     1
    407    414     1
    408    868     1
    408    413     1
    408    414     1
    412    860     1
    412    861     1
    413    859     1
    414    859     1
    415    890     1
    415    891     1
    416    889     1
    417    889     1
    420    434     1
    420    435     1
    420    437     1
    420    438     1
    420    431     1
    420    432     1
    421    425     1
    421    426     1
    421    428     1
    421    429     1
    421    446     1
    421    447     1
    422    424     1
    422    427     1
    422    449     1
    422    445     1
    422    434     1
    422    435     1
    423    424     1
    423    427     1
    423    449     1
    423    445     1
    423    434     1
    423    435     1
    424    428     1
    424    429     1
    424    443     1
    424    444     1
    425    427     1
    425    449     1
    425    442     1
    425    437     1
    425    438     1
    426    427     1
    426    449     1
    426    442     1
    426    437     1
    426    438     1
    427    440     1
    427    441     1
    428    449     1
    428    439     1
    428    431     1
    428    432     1
    429    449     1
    429    439     1
    429    431     1
    429    432     1
    430    449     1
    431    448     1
    431    440     1
    431    441     1
    432    448     1
    432    440     1
    432    441     1
    433    449     1
    434    958     1
    434    446     1
    434    447     1
    435    958     1
    435    446     1
    435    447     1
    436    449     1
    437    928     1
    437    443     1
    437    444     1
    438    928     1
    438    443     1
    438    444     1
    442    920     1
    442    921     1
    443    919     1
    444    919     1
    445    950     1
    445    951     1
    446    949     1
    447    949     1
    450    464     1
    450    465     1
    450    467     1
    450    468     1
    450    461     1
    450    462     1
    451    455     1
    451    456     1
    451    458     1
    451    459     1
    451    476     1
    451    477     1
    452    454     1
    452    457     1
    452    479     1
    452    475     1
    452    464     1
    452    465     1
    453    454     1
    453    457     1
    453    479     1
    453    475     1
    453    464     1
    453    465     1
    454    458     1
    454    459     1
    454    473     1
    454    474     1
    455    457     1
    455    479     1
    455    472     1
    455    467     1
    455    468     1
    456    457     1
    456    479     1
    456    472     1
    456    467     1
    456    468     1
    457    470     1
    457    471     1
    458    479     1
    458    469     1
    458    461     1
    458    462     1
    459    479     1
    459    469     1
    459    461     1
    459    462     1
    460    479     1
    461    478     1
    461    470     1
    461    471     1
    462    478     1
    462    470     1
    462    471     1
    463    479     1
    464   1018     1
    464    476     1
    464    477     1
    465   1018     1
    465    476     1
    465    477     1
    466    479     1
    467    988     1
    467    473     1
    467    474     1
    468    988     1
    468    473     1
    468    474     1
    472    980     1
    472    981     1
    473    979     1
    474    979     1
    475   1010     1
    475   1011     1
    476   1009     1
    477   1009     1
    480    494     1
    480    495     1
    480    497     1
    480    498     1
    480    491     1
    480    492     1
    481    485     1
    481    486     1
    481    488     1
    481    489     1
    481    506     1
    481    507     1
    482    484     1
    482    487     1
    482    509     1
    482    505     1
    482    494     1
    482    495     1
    483    484     1
    483    487     1
    483    509     1
    483    505     1
    483    494     1
    483    495     1
    484    488     1
    484    489     1
    484    503     1
    484    504     1
    485    487     1
    485    509     1
    485    502     1
    485    497     1
    485    498     1
    486    487     1
    486    509     1
    486    502     1
    486    497     1
    486    498     1
    487    500     1
    487    501     1
    488    509     1
    488    499     1
    488    491     1
    488    492     1
    489    509     1
    489    499     1
    489    491     1
    489    492     1
    490    509     1
    491    508     1
    491    500     1
    491    501     1
    492    508     1
    492    500     1
    492    501     1
    493    509     1
    494   1078     1
    494    506     1
    494    507     1
    495   1078     1
    495    506     1
    495    507     1
    496    509     1
    497   1048     1
    497    503     1
    497    504     1
    498   1048     1
    498    503     1
    498    504     1
    502   1040     1
    502   1041     1
    503   1039     1
    504   1039     1
    505   1070     1
    505   1071     1
    506   1069     1
    507   1069     1
    510    524     1
    510    525     1
    510    527     1
    510    528     1
    510    521     1
    510    522     1
    511    515     1
    511    516     1
    511    518     1
    511    519     1
    511    536     1
    511    537     1
    512    514     1
    512    517     1
    512    539     1
    512    535     1
    512    524     1
    512    525     1
    513    514     1
    513    517     1
    513    539     1
    513    535     1
    513    524     1
    513    525     1
    514    518     1
    514    519     1
    514    533     1
    514    534     1
    515    517     1
    515    539     1
    515    532     1
    515    527     1
    515    528     1
    516    517     1
    516    539     1
    516    532     1
    516    527     1
    516    528     1
    517    530     1
    517    531     1
    518    539     1
    518    529     1
    518    521     1
    518    522     1
    519    539     1
    519    529     1
    519    521     1
    519    522     1
    520    539     1
    521    538     1
    521    530     1
    521    531     1
    522    538     1
    522    530     1
    522    531     1
    523    539     1
    524   1138     1
    524    536     1
    524    537     1
    525   1138     1
    525    536     1
    525    537     1
    526    539     1
    527   1108     1
    527    533     1
    527    534     1
    528   1108     1
    528    533     1
    528    534     1
    532   1100     1
    532   1101     1
    533   1099     1
    534   1099     1
    535   1130     1
    535   1131     1
    536   1129     1
    537   1129     1
    540    554     1
    540    555     1
    540    557     1
    540    558     1
    540    551     1
    540    552     1
    541    545     1
    541    546     1
    541    548     1
    541    549     1
    541    566     1
    541    567     1
    542    544     1
    542    547     1
    542    569     1
    542    565     1
    542    554     1
    542    555     1
    543    544     1
    543    547     1
    543    569     1
    543    565     1
    543    554     1
    543    555     1
    544    548     1
    544    549     1
    544    563     1
    544    564     1
    545    547     1
    545    569     1
    545    562     1
    545    557     1
    545    558     1
    546    547     1
    546    569     1
    546    562     1
    546    557     1
    546    558     1
    547    560     1
    547    561     1
    548    569     1
    548    559     1
    548    551     1
    548    552     1
    549    569     1
    549    559     1
    549    551     1
    549    552     1
    550    569     1
    551    568     1
    551    560     1
    551    561     1
    552    568     1
    552    560     1
    552    561     1
    553    569     1
    554   1198     1
    554    566     1
    554    567     1
    555   1198     1
    555    566     1
    555    567     1
    556    569     1
    557   1168     1
    557    563     1
    557    564     1
    558   1168     1
    558    563     1
    558    564     1
    562   1160     1
    562   1161     1
    563   1159     1
    564   1159     1
    565   1190     1
    565   1191     1
    566   1189     1
    567   1189     1
    570    584     1
    570    585     1
    570    587     1
    570    588     1
    570    581     1
    570    582     1
    571    575     1
    571    576     1
    571    578     1
    571    579     1
    571    596     1
    571    597     1
    572    574     1
    572    577     1
    572    599     1
    572    595     1
    572    584     1
    572    585     1
    573    574     1
    573    577     1
    573    599     1
    573    595     1
    573    584     1
    573    585     1
    574    578     1
    574    579     1
    574    593     1
    574    594     1
    575    577     1
    575    599     1
    575    592     1
    575    587     1
    575    588     1
    576    577     1
    576    599     1
    576    592     1
    576    587     1
    576    588     1
    577    590     1
    577    591     1
    578    599     1
    578    589     1
    578    581     1
    578    582     1
    579    599     1
    579    589     1
    579    581     1
    579    582     1
    580    599     1
    581    598     1
    581    590     1
    581    591     1
    582    598     1
    582    590     1
    582    591     1
    583    599     1
    584   1258     1
    584    596     1
    584    597     1
    585   1258     1
    585    596     1
    585    597     1
    586    599     1
    587   1228     1
    587    593     1
    587    594     1
    588   1228     1
    588    593     1
    588    594     1
    592   1220     1
    592   1221     1
    593   1219     1
    594   1219     1
    595   1250     1
    595   1251     1
    596   1249     1
    597   1249     1
    600    614     1
    600    615     1
    600    617     1
    600    618     1
    600    611     1
    600    612     1
    601    605     1
    601    606     1
    601    608     1
    601    609     1
    601    626     1
    601    627     1
    602    604     1
    602    607     1
    602    629     1
    602    625     1
    602    614     1
    602    615     1
    603    604     1
    603    607     1
    603    629     1
    603    625     1
    603    614     1
    603    615     1
    604    608     1
    604    609     1
    604    623     1
    604    624     1
    605    607     1
    605    629     1
    605    622     1
    605    617     1
    605    618     1
    606    607     1
    606    629     1
    606    622     1
    606    617     1
    606    618     1
    607    620     1
    607    621     1
    608    629     1
    608    619     1
    608    611     1
    608    612     1
    609    629     1
    609    619     1
    609    611     1
    609    612     1
    610    629     1
    611    628     1
    611    620     1
    611    621     1
    612    628     1
    612    620     1
    612    621     1
    613    629     1
    614   1318     1
    614    626     1
    614    627     1
    615   1318     1
    615    626     1
    615    627     1
    616    629     1
    617   1288     1
    617    623     1
    617    624     1
    618   1288     1
    618    623     1
    618    624     1
    622   1280     1
    622   1281     1
    623   1279     1
    624   1279     1
    625   1310     1
    625   1311     1
    626   1309     1
    627   1309     1
    630    644     1
    630    645     1
    630    647     1
    630    648     1
    630    641     1
    630    642     1
    631    635     1
    631    636     1
    631    638     1
    631    639     1
    631    656     1
    631    657     1
    632    634     1
    632    637     1
    632    659     1
    632    655     1
    632    644     1
    632    645     1
    633    634     1
    633    637     1
    633    659     1
    633    655     1
    633    644     1
    633    645     1
    634    638     1
    634    639     1
    634    653     1
    634    654     1
    635    637     1
    635    659     1
    635    652     1
    635    647     1
    635    648     1
    636    637     1
    636    659     1
    636    652     1
    636    647     1
    636    648     1
    637    650     1
    637    651     1
    638    659     1
    638    649     1
    638    641     1
    638    642     1
    639    659     1
    639    649     1
    639    641     1
    639    642     1
    640    659     1
    641    658     1
    641    650     1
    641    651     1
    642    658     1
    642    650     1
    642    651     1
    643    659     1
    644   1378     1
    644    656     1
    644    657     1
    645   1378     1
    645    656     1
    645    657     1
    646    659     1
    647   1348     1
    647    653     1
    647    654     1
    648   1348     1
    648    653     1
    648    654     1
    652   1340     1
    652   1341     1
    653   1339     1
    654   1339     1
    655   1370     1
    655   1371     1
    656   1369     1
    657   1369     1
    660    674     1
    660    675     1
    660    677     1
    660    678     1
    660    671     1
    660    672     1
    661    665     1
    661    666     1
    661    668     1
    661    669     1
    661    686     1
    661    687     1
    662    664     1
    662    667     1
    662    689     1
    662    685     1
    662    674     1
    662    675     1
    663    664     1
    663    667     1
    663    689     1
    663    685     1
    663    674     1
    663    675     1
    664    668     1
    664    669     1
    664    683     1
    664    684     1
    665    667     1
    665    689     1
    665    682     1
    665    677     1
    665    678     1
    666    667     1
    666    689     1
    666    682     1
    666    677     1
    666    678     1
    667    680     1
    667    681     1
    668    689     1
    668    679     1
    668    671     1
    668    672     1
    669    689     1
    669    679     1
    669    671     1
    669    672     1
    670    689     1
    671    688     1
    671    680     1
    671    681     1
    672    688     1
    672    680     1
    672    681     1
    673    689     1
    674   1438     1
    674    686     1
    674    687     1
    675   1438     1
    675    686     1
    675    687     1
    676    689     1
    677   1408     1
    677    683     1
    677    684     1
    678   1408     1
    678    683     1
    678    684     1
    682   1400     1
    682   1401     1
    683   1399     1
    684   1399     1
    685   1430     1
    685   1431     1
    686   1429     1
    687   1429     1
    690    704     1
    690    705     1
    690    707     1
    690    708     1
    690    701     1
    690    702     1
    691    695     1
    691    696     1
    691    698     1
    691    699     1
    691    716     1
    691    717     1
    692    694     1
    692    697     1
    692    719     1
    692    715     1
    692    704     1
    692    705     1
    693    694     1
    693    697     1
    693    719     1
    693    715     1
    693    704     1
    693    705     1
    694    698     1
    694    699     1
    694    713     1
    694    714     1
    695    697     1
    695    719     1
    695    712     1
    695    707     1
    695    708     1
    696    697     1
    696    719     1
    696    712     1
    696    707     1
    696    708     1
    697    710     1
    697    711     1
    698    719     1
    698    709     1
    698    701     1
    698    702     1
    699    719     1
    699    709     1
    699    701     1
    699    702     1
    700    719     1
    701    718     1
    701    710     1
    701    711     1
    702    718     1
    702    710     1
    702    711     1
    703    719     1
    704   1498     1
    704    716     1
    704    717     1
    705   1498     1
    705    716     1
    705    717     1
    706    719     1
    707   1468     1
    707    713     1
    707    714     1
    708   1468     1
    708    713     1
    708    714     1
    712   1460     1
    712   1461     1
    713   1459     1
    714   1459     1
    715   1490     1
    715   1491     1
    716   1489     1
    717   1489     1
    720    734     1
    720    735     1
    720    737     1
    720    738     1
    720    731     1
    720    732     1
    721    725     1
    721    726     1
    721    728     1
    721    729     1
    721    746     1
    721    747     1
    722    724     1
    722    727     1
    722    749     1
    722    745     1
    722    734     1
    722    735     1
    723    724     1
    723    727     1
    723    749     1
    723    745     1
    723    734     1
    723    735     1
    724    728     1
    724    729     1
    724    743     1
    724    744     1
    725    727     1
    725    749     1
    725    742     1
    725    737     1
    725    738     1
    726    727     1
    726    749     1
    726    742     1
    726    737     1
    726    738     1
    727    740     1
    727    741     1
    728    749     1
    728    739     1
    728    731     1
    728    732     1
    729    749     1
    729    739     1
    729    731     1
    729    732     1
    730    749     1
    731    748     1
    731    740     1
    731    741     1
    732    748     1
    732    740     1
    732    741     1
    733    749     1
    734   1558     1
    734    746     1
    734    747     1
    735   1558     1
    735    746     1
    735    747     1
    736    749     1
    737   1528     1
    737    743     1
    737    744     1
    738   1528     1
    738    743     1
    738    744     1
    742   1520     1
    742   1521     1
    743   1519     1
    744   1519     1
    745   1550     1
    745   1551     1
    746   1549     1
    747   1549     1
    750    764     1
    750    765     1
    750    767     1
    750    768     1
    750    761     1
    750    762     1
    751    755     1
    751    756     1
    751    758     1
    751    759     1
    751    776     1
    751    777     1
    752    754     1
    752    757     1
    752    779     1
    752    775     1
    752    764     1
    752    765     1
    753    754     1
    753    757     1
    753    779     1
    753    775     1
    753    764     1
    753    765     1
    754    758     1
    754    759     1
    754    773     1
    754    774     1
    755    757     1
    755    779     1
    755    772     1
    755    767     1
    755    768     1
    756    757     1
    756    779     1
    756    772     1
    756    767     1
    756    768     1
    757    770     1
    757    771     1
    758    779     1
    758    769     1
    758    761     1
    758    762     1
    759    779     1
    759    769     1
    759    761     1
    759    762     1
    760    779     1
    761    778     1
    761    770     1
    761    771     1
    762    778     1
    762    770     1
    762    771     1
    763    779     1
    764   1618     1
    764    776     1
    764    777     1
    765   1618     1
    765    776     1
    765    777     1
    766    779     1
    767   1588     1
    767    773     1
    767    774     1
    768   1588     1
    768    773     1
    768    774     1
    772   1580     1
    772   1581     1
    773   1579     1
    774   1579     1
    775   1610     1
    775   1611     1
    776   1609     1
    777   1609     1
    780    794     1
    780    795     1
    780    797     1
    780    798     1
    780    791     1
    780    792     1
    781    785     1
    781    786     1
    781    788     1
    781    789     1
    781    806     1
    781    807     1
    782    784     1
    782    787     1
    782    809     1
    782    805     1
    782    794     1
    782    795     1
    783    784     1
    783    787     1
    783    809     1
    783    805     1
    783    794     1
    783    795     1
    784    788     1
    784    789     1
    784    803     1
    784    804     1
    785    787     1
    785    809     1
    785    802     1
    785    797     1
    785    798     1
    786    787     1
    786    809     1
    786    802     1
    786    797     1
    786    798     1
    787    800     1
    787    801     1
    788    809     1
    788    799     1
    788    791     1
    788    792     1
    789    809     1
    789    799     1
    789    791     1
    789    792     1
    790    809     1
    791    808     1
    791    800     1
    791    801     1
    792    808     1
    792    800     1
    792    801     1
    793    809     1
    794   1678     1
    794    806     1
    794    807     1
    795   1678     1
    795    806     1
    795    807     1
    796    809     1
    797   1648     1
    797    803     1
    797    804     1
    798   1648     1
    798    803     1
    798    804     1
    802   1640     1
    802   1641     1
    803   1639     1
    804   1639     1
    805   1670     1
    805   1671     1
    806   1669     1
    807   1669     1
    810    824     1
    810    825     1
    810    827     1
    810    828     1
    810    821     1
    810    822     1
    811    815     1
    811    816     1
    811    818     1
    811    819     1
    811    836     1
    811    837     1
    812    814     1
    812    817     1
    812    839     1
    812    835     1
    812    824     1
    812    825     1
    813    814     1
    813    817     1
    813    839     1
    813    835     1
    813    824     1
    813    825     1
    814    818     1
    814    819     1
    814    833     1
    814    834     1
    815    817     1
    815    839     1
    815    832     1
    815    827     1
    815    828     1
    816    817     1
    816    839     1
    816    832     1
    816    827     1
    816    828     1
    817    830     1
    817    831     1
    818    839     1
    818    829     1
    818    821     1
    818    822     1
    819    839     1
    819    829     1
    819    821     1
    819    822     1
    820    839     1
    821    838     1
    821    830     1
    821    831     1
    822    838     1
    822    830     1
    822    831     1
    823    839     1
    824   1738     1
    824    836     1
    824    837     1
    825   1738     1
    825    836     1
    825    837     1
    826    839     1
    827   1708     1
    827    833     1
    827    834     1
    828   1708     1
    828    833     1
    828    834     1
    832   1700     1
    832   1701     1
    833   1699     1
    834   1699     1
    835   1730     1
    835   1731     1
    836   1729     1
    837   1729     1
    840    854     1
    840    855     1
    840    857     1
    840    858     1
    840    851     1
    840    852     1
    841    845     1
    841    846     1
    841    848     1
    841    849     1
    841    866     1
    841    867     1
    842    844     1
    842    847     1
    842    869     1
    842    865     1
    842    854     1
    842    855     1
    843    844     1
    843    847     1
    843    869     1
    843    865     1
    843    854     1
    843    855     1
    844    848     1
    844    849     1
    844    863     1
    844    864     1
    845    847     1
    845    869     1
    845    862     1
    845    857     1
    845    858     1
    846    847     1
    846    869     1
    846    862     1
    846    857     1
    846    858     1
    847    860     1
    847    861     1
    848    869     1
    848    859     1
    848    851     1
    848    852     1
    849    869     1
    849    859     1
    849    851     1
    849    852     1
    850    869     1
    851    868     1
    851    860     1
    851    861     1
    852    868     1
    852    860     1
    852    861     1
    853    869     1
    854   1798     1
    854    866     1
    854    867     1
    855   1798     1
    855    866     1
    855    867     1
    856    869     1
    857   1768     1
    857    863     1
    857    864     1
    858   1768     1
    858    863     1
    858    864     1
    862   1760     1
    862   1761     1
    863   1759     1
    864   1759     1
    865   1790     1
    865   1791     1
    866   1789     1
    867   1789     1
    870    884     1
    870    885     1
    870    887     1
    870    888     1
    870    881     1
    870    882     1
    871    875     1
    871    876     1
    871    878     1
    871    879     1
    871    896     1
    871    897     1
    872    874     1
    872    877     1
    872    899     1
    872    895     1
    872    884     1
    872    885     1
    873    874     1
    873    877     1
    873    899     1
    873    895     1
    873    884     1
    873    885     1
    874    878     1
    874    879     1
    874    893     1
    874    894     1
    875    877     1
    875    899     1
    875    892     1
    875    887     1
    875    888     1
    876    877     1
    876    899     1
    876    892     1
    876    887     1
    876    888     1
    877    890     1
    877    891     1
    878    899     1
    878    889     1
    878    881     1
    878    882     1
    879    899     1
    879    889     1
    879    881     1
    879    882     1
    880    899     1
    881    898     1
    881    890     1
    881    891     1
    882    898     1
    882    890     1
    882    891     1
    883    899     1
    884   1858     1
    884    896     1
    884    897     1
    885   1858     1
    885    896     1
    885    897     1
    886    899     1
    887   1828     1
    887    893     1
    887    894     1
    888   1828     1
    888    893     1
    888    894     1
    892   1820     1
    892   1821     1
    893   1819     1
    894   1819     1
    895   1850     1
    895   1851     1
    896   1849     1
    897   1849     1
    900    914     1
    900    915     1
    900    917     1
    900    918     1
    900    911     1
    900    912     1
    901    905     1
    901    906     1
    901    908     1
    901    909     1
    901    926     1
    901    927     1
    902    904     1
    902    907     1
    902    929     1
    902    925     1
    902    914     1
    902    915     1
    903    904     1
    903    907     1
    903    929     1
    903    925     1
    903    914     1
    903    915     1
    904    908     1
    904    909     1
    904    923     1
    904    924     1
    905    907     1
    905    929     1
    905    922     1
    905    917     1
    905    918     1
    906    907     1
    906    929     1
    906    922     1
    906    917     1
    906    918     1
    907    920     1
    907    921     1
    908    929     1
    908    919     1
    908    911     1
    908    912     1
    909    929     1
    909    919     1
    909    911     1
    909    912     1
    910    929     1
    911    928     1
    911    920     1
    911    921     1
    912    928     1
    912    920     1
    912    921     1
    913    929     1
    914   1922     1
    914    926     1
    914    927     1
    915   1922     1
    915    926     1
    915    927     1
    916    929     1
    917   1890     1
    917    923     1
    917    924     1
    918   1890     1
    918    923     1
    918    924     1
    922   1861     1
    922   1862     1
    923   1860     1
    924   1860     1
    925   1893     1
    925   1894     1
    926   1892     1
    927   1892     1
    930    944     1
    930    945     1
    930    947     1
    930    948     1
    930    941     1
    930    942     1
    931    935     1
    931    936     1
    931    938     1
    931    939     1
    931    956     1
    931    957     1
    932    934     1
    932    937     1
    932    959     1
    932    955     1
    932    944     1
    932    945     1
    933    934     1
    933    937     1
    933    959     1
    933    955     1
    933    944     1
    933    945     1
    934    938     1
    934    939     1
    934    953     1
    934    954     1
    935    937     1
    935    959     1
    935    952     1
    935    947     1
    935    948     1
    936    937     1
    936    959     1
    936    952     1
    936    947     1
    936    948     1
    937    950     1
    937    951     1
    938    959     1
    938    949     1
    938    941     1
    938    942     1
    939    959     1
    939    949     1
    939    941     1
    939    942     1
    940    959     1
    941    958     1
    941    950     1
    941    951     1
    942    958     1
    942    950     1
    942    951     1
    943    959     1
    944   1986     1
    944    956     1
    944    957     1
    945   1986     1
    945    956     1
    945    957     1
    946    959     1
    947   1954     1
    947    953     1
    947    954     1
    948   1954     1
    948    953     1
    948    954     1
    952   1925     1
    952   1926     1
    953   1924     1
    954   1924     1
    955   1957     1
    955   1958     1
    956   1956     1
    957   1956     1
    960    974     1
    960    975     1
    960    977     1
    960    978     1
    960    971     1
    960    972     1
    961    965     1
    961    966     1
    961    968     1
    961    969     1
    961    986     1
    961    987     1
    962    964     1
    962    967     1
    962    989     1
    962    985     1
    962    974     1
    962    975     1
    963    964     1
    963    967     1
    963    989     1
    963    985     1
    963    974     1
    963    975     1
    964    968     1
    964    969     1
    964    983     1
    964    984     1
    965    967     1
    965    989     1
    965    982     1
    965    977     1
    965    978     1
    966    967     1
    966    989     1
    966    982     1
    966    977     1
    966    978     1
    967    980     1
    967    981     1
    968    989     1
    968    979     1
    968    971     1
    968    972     1
    969    989     1
    969    979     1
    969    971     1
    969    972     1
    970    989     1
    971    988     1
    971    980     1
    971    981     1
    972    988     1
    972    980     1
    972    981     1
    973    989     1
    974   2050     1
    974    986     1
    974    987     1
    975   2050     1
    975    986     1
    975    987     1
    976    989     1
    977   2018     1
    977    983     1
    977    984     1
    978   2018     1
    978    983     1
    978    984     1
    982   1989     1
    982   1990     1
    983   1988     1
    984   1988     1
    985   2021     1
    985   2022     1
    986   2020     1
    987   2020     1
    990   1004     1
    990   1005     1
    990   1007     1
    990   1008     1
    990   1001     1
    990   1002     1
    991    995     1
    991    996     1
    991    998     1
    991    999     1
    991   1016     1
    991   1017     1
    992    994     1
    992    997     1
    992   1019     1
    992   1015     1
    992   1004     1
    992   1005     1
    993    994     1
    993    997     1
    993   1019     1
    993   1015     1
    993   1004     1
    993   1005     1
    994    998     1
    994    999     1
    994   1013     1
    994   1014     1
    995    997     1
    995   1019     1
    995   1012     1
    995   1007     1
    995   1008     1
    996    997     1
    996   1019     1
    996   1012     1
    996   1007     1
    996   1008     1
    997   1010     1
    997   1011     1
    998   1019     1
    998   1009     1
    998   1001     1
    998   1002     1
    999   1019     1
    999   1009     1
    999   1001     1
    999   1002     1
   1000   1019     1
   1001   1018     1
   1001   1010     1
   1001   1011     1
   1002   1018     1
   1002   1010     1
   1002   1011     1
   1003   1019     1
   1004   2114     1
   1004   1016     1
   1004   1017     1
   1005   2114     1
   1005   1016     1
   1005   1017     1
   1006   1019     1
   1007   2082     1
   1007   1013     1
   1007   1014     1
   1008   2082     1
   1008   1013     1
   1008   1014     1
   1012   2053     1
   1012   2054     1
   1013   2052     1
   1014   2052     1
   1015   2085     1
   1015   2086     1
   1016   2084     1
   1017   2084     1
   1020   1034     1
   1020   1035     1
   1020   1037     1
   1020   1038     1
   1020   1031     1
   1020   1032     1
   1021   1025     1
   1021   1026     1
   1021   1028     1
   1021   1029     1
   1021   1046     1
   1021   1047     1
   1022   1024     1
   1022   1027     1
   1022   1049     1
   1022   1045     1
   1022   1034     1
   1022   1035     1
   1023   1024     1
   1023   1027     1
   1023   1049     1
   1023   1045     1
   1023   1034     1
   1023   1035     1
   1024   1028     1
   1024   1029     1
   1024   1043     1
   1024   1044     1
   1025   1027     1
   1025   1049     1
   1025   1042     1
   1025   1037     1
   1025   1038     1
   1026   1027     1
   1026   1049     1
   1026   1042     1
   1026   1037     1
   1026   1038     1
   1027   1040     1
   1027   1041     1
   1028   1049     1
   1028   1039     1
   1028   1031     1
   1028   1032     1
   1029   1049     1
   1029   1039     1
   1029   1031     1
   1029   1032     1
   1030   1049     1
   1031   1048     1
   1031   1040     1
   1031   1041     1
   1032   1048     1
   1032   1040     1
   1032   1041     1
   1033   1049     1
   1034   2178     1
   1034   1046     1
   1034   1047     1
   1035   2178     1
   1035   1046     1
   1035   1047     1
   1036   1049     1
   1037   2146     1
   1037   1043     1
   1037   1044     1
   1038   2146     1
   1038   1043     1
   1038   1044     1
   1042   2117     1
   1042   2118     1
   1043   2116     1
   1044   2116     1
   1045   2149     1
   1045   2150     1
   1046   2148     1
   1047   2148     1
   1050   1064     1
   1050   1065     1
   1050   1067     1
   1050   1068     1
   1050   1061     1
   1050   1062     1
   1051   1055     1
   1051   1056     1
   1051   1058     1
   1051   1059     1
   1051   1076     1
   1051   1077     1
   1052   1054     1
   1052   1057     1
   1052   1079     1
   1052   1075     1
   1052   1064     1
   1052   1065     1
   1053   1054     1
   1053   1057     1
   1053   1079     1
   1053   1075     1
   1053   1064     1
   1053   1065     1
   1054   1058     1
   1054   1059     1
   1054   1073     1
   1054   1074     1
   1055   1057     1
   1055   1079     1
   1055   1072     1
   1055   1067     1
   1055   1068     1
   1056   1057     1
   1056   1079     1
   1056   1072     1
   1056   1067     1
   1056   1068     1
   1057   1070     1
   1057   1071     1
   1058   1079     1
   1058   1069     1
   1058   1061     1
   1058   1062     1
   1059   1079     1
   1059   1069     1
   1059   1061     1
   1059   1062     1
   1060   1079     1
   1061   1078     1
   1061   1070     1
   1061   1071     1
   1062   1078     1
   1062   1070     1
   1062   1071     1
   1063   1079     1
   1064   2242     1
   1064   1076     1
   1064   1077     1
   1065   2242     1
   1065   1076     1
   1065   1077     1
   1066   1079     1
   1067   2210     1
   1067   1073     1
   1067   1074     1
   1068   2210     1
   1068   1073     1
   1068   1074     1
   1072   2181     1
   1072   2182     1
   1073   2180     1
   1074   2180     1
   1075   2213     1
   1075   2214     1
   1076   2212     1
   1077   2212     1
   1080   1094     1
   1080   1095     1
   1080   1097     1
   1080   1098     1
   1080   1091     1
   1080   1092     1
   1081   1085     1
   1081   1086     1
   1081   1088     1
   1081   1089     1
   1081   1106     1
   1081   1107     1
   1082   1084     1
   1082   1087     1
   1082   1109     1
   1082   1105     1
   1082   1094     1
   1082   1095     1
   1083   1084     1
   1083   1087     1
   1083   1109     1
   1083   1105     1
   1083   1094     1
   1083   1095     1
   1084   1088     1
   1084   1089     1
   1084   1103     1
   1084   1104     1
   1085   1087     1
   1085   1109     1
   1085   1102     1
   1085   1097     1
   1085   1098     1
   1086   1087     1
   1086   1109     1
   1086   1102     1
   1086   1097     1
   1086   1098     1
   1087   1100     1
   1087   1101     1
   1088   1109     1
   1088   1099     1
   1088   1091     1
   1088   1092     1
   1089   1109     1
   1089   1099     1
   1089   1091     1
   1089   1092     1
   1090   1109     1
   1091   1108     1
   1091   1100     1
   1091   1101     1
   1092   1108     1
   1092   1100     1
   1092   1101     1
   1093   1109     1
   1094   2306     1
   1094   1106     1
   1094   1107     1
   1095   2306     1
   1095   1106     1
   1095   1107     1
   1096   1109     1
   1097   2274     1
   1097   1103     1
   1097   1104     1
   1098   2274     1
   1098   1103     1
   1098   1104     1
   1102   2245     1
   1102   2246     1
   1103   2244     1
   1104   2244     1
   1105   2277     1
   1105   2278     1
   1106   2276     1
   1107   2276     1
   1110   1124     1
   1110   1125     1
   1110   1127     1
   1110   1128     1
   1110   1121     1
   1110   1122     1
   1111   1115     1
   1111   1116     1
   1111   1118     1
   1111   1119     1
   1111   1136     1
   1111   1137     1
   1112   1114     1
   1112   1117     1
   1112   1139     1
   1112   1135     1
   1112   1124     1
   1112   1125     1
   1113   1114     1
   1113   1117     1
   1113   1139     1
   1113   1135     1
   1113   1124     1
   1113   1125     1
   1114   1118     1
   1114   1119     1
   1114   1133     1
   1114   1134     1
   1115   1117     1
   1115   1139     1
   1115   1132     1
   1115   1127     1
   1115   1128     1
   1116   1117     1
   1116   1139     1
   1116   1132     1
   1116   1127     1
   1116   1128     1
   1117   1130     1
   1117   1131     1
   1118   1139     1
   1118   1129     1
   1118   1121     1
   1118   1122     1
   1119   1139     1
   1119   1129     1
   1119   1121     1
   1119   1122     1
   1120   1139     1
   1121   1138     1
   1121   1130     1
   1121   1131     1
   1122   1138     1
   1122   1130     1
   1122   1131     1
   1123   1139     1
   1124   2370     1
   1124   1136     1
   1124   1137     1
   1125   2370     1
   1125   1136     1
   1125   1137     1
   1126   1139     1
   1127   2338     1
   1127   1133     1
   1127   1134     1
   1128   2338     1
   1128   1133     1
   1128   1134     1
   1132   2309     1
   1132   2310     1
   1133   2308     1
   1134   2308     1
   1135   2341     1
   1135   2342     1
   1136   2340     1
   1137   2340     1
   1140   1154     1
   1140   1155     1
   1140   1157     1
   1140   1158     1
   1140   1151     1
   1140   1152     1
   1141   1145     1
   1141   1146     1
   1141   1148     1
   1141   1149     1
   1141   1166     1
   1141   1167     1
   1142   1144     1
   1142   1147     1
   1142   1169     1
   1142   1165     1
   1142   1154     1
   1142   1155     1
   1143   1144     1
   1143   1147     1
   1143   1169     1
   1143   1165     1
   1143   1154     1
   1143   1155     1
   1144   1148     1
   1144   1149     1
   1144   1163     1
   1144   1164     1
   1145   1147     1
   1145   1169     1
   1145   1162     1
   1145   1157     1
   1145   1158     1
   1146   1147     1
   1146   1169     1
   1146   1162     1
   1146   1157     1
   1146   1158     1
   1147   1160     1
   1147   1161     1
   1148   1169     1
   1148   1159     1
   1148   1151     1
   1148   1152     1
   1149   1169     1
   1149   1159     1
   1149   1151     1
   1149   1152     1
   1150   1169     1
   1151   1168     1
   1151   1160     1
   1151   1161     1
   1152   1168     1
   1152   1160     1
   1152   1161     1
   1153   1169     1
   1154   2434     1
   1154   1166     1
   1154   1167     1
   1155   2434     1
   1155   1166     1
   1155   1167     1
   1156   1169     1
   1157   2402     1
   1157   1163     1
   1157   1164     1
   1158   2402     1
   1158   1163     1
   1158   1164     1
   1162   2373     1
   1162   2374     1
   1163   2372     1
   1164   2372     1
   1165   2405     1
   1165   2406     1
   1166   2404     1
   1167   2404     1
   1170   1184     1
   1170   1185     1
   1170   1187     1
   1170   1188     1
   1170   1181     1
   1170   1182     1
   1171   1175     1
   1171   1176     1
   1171   1178     1
   1171   1179     1
   1171   1196     1
   1171   1197     1
   1172   1174     1
   1172   1177     1
   1172   1199     1
   1172   1195     1
   1172   1184     1
   1172   1185     1
   1173   1174     1
   1173   1177     1
   1173   1199     1
   1173   1195     1
   1173   1184     1
   1173   1185     1
   1174   1178     1
   1174   1179     1
   1174   1193     1
   1174   1194     1
   1175   1177     1
   1175   1199     1
   1175   1192     1
   1175   1187     1
   1175   1188     1
   1176   1177     1
   1176   1199     1
   1176   1192     1
   1176   1187     1
   1176   1188     1
   1177   1190     1
   1177   1191     1
   1178   1199     1
   1178   1189     1
   1178   1181     1
   1178   1182     1
   1179   1199     1
   1179   1189     1
   1179   1181     1
   1179   1182     1
   1180   1199     1
   1181   1198     1
   1181   1190     1
   1181   1191     1
   1182   1198     1
   1182   1190     1
   1182   1191     1
   1183   1199     1
   1184   2498     1
   1184   1196     1
   1184   1197     1
   1185   2498     1
   1185   1196     1
   1185   1197     1
   1186   1199     1
   1187   2466     1
   1187   1193     1
   1187   1194     1
   1188   2466     1
   1188   1193     1
   1188   1194     1
   1192   2437     1
   1192   2438     1
   1193   2436     1
   1194   2436     1
   1195   2469     1
   1195   2470     1
   1196   2468     1
   1197   2468     1
   1200   1214     1
   1200   1215     1
   1200   1217     1
   1200   1218     1
   1200   1211     1
   1200   1212     1
   1201   1205     1
   1201   1206     1
   1201   1208     1
   1201   1209     1
   1201   1226     1
   1201   1227     1
   1202   1204     1
   1202   1207     1
   1202   1229     1
   1202   1225     1
   1202   1214     1
   1202   1215     1
   1203   1204     1
   1203   1207     1
   1203   1229     1
   1203   1225     1
   1203   1214     1
   1203   1215     1
   1204   1208     1
   1204   1209     1
   1204   1223     1
   1204   1224     1
   1205   1207     1
   1205   1229     1
   1205   1222     1
   1205   1217     1
   1205   1218     1
   1206   1207     1
   1206   1229     1
   1206   1222     1
   1206   1217     1
   1206   1218     1
   1207   1220     1
   1207   1221     1
   1208   1229     1
   1208   1219     1
   1208   1211     1
   1208   1212     1
   1209   1229     1
   1209   1219     1
   1209   1211     1
   1209   1212     1
   1210   1229     1
   1211   1228     1
   1211   1220     1
   1211   1221     1
   1212   1228     1
   1212   1220     1
   1212   1221     1
   1213   1229     1
   1214   2562     1
   1214   1226     1
   1214   1227     1
   1215   2562     1
   1215   1226     1
   1215   1227     1
   1216   1229     1
   1217   2530     1
   1217   1223     1
   1217   1224     1
   1218   2530     1
   1218   1223     1
   1218   1224     1
   1222   2501     1
   1222   2502     1
   1223   2500     1
   1224   2500     1
   1225   2533     1
   1225   2534     1
   1226   2532     1
   1227   2532     1
   1230   1244     1
   1230   1245     1
   1230   1247     1
   1230   1248     1
   1230   1241     1
   1230   1242     1
   1231   1235     1
   1231   1236     1
   1231   1238     1
   1231   1239     1
   1231   1256     1
   1231   1257     1
   1232   1234     1
   1232   1237     1
   1232   1259     1
   1232   1255     1
   1232   1244     1
   1232   1245     1
   1233   1234     1
   1233   1237     1
   1233   1259     1
   1233   1255     1
   1233   1244     1
   1233   1245     1
   1234   1238     1
   1234   1239     1
   1234   1253     1
   1234   1254     1
   1235   1237     1
   1235   1259     1
   1235   1252     1
   1235   1247     1
   1235   1248     1
   1236   1237     1
   1236   1259     1
   1236   1252     1
   1236   1247     1
   1236   1248     1
   1237   1250     1
   1237   1251     1
   1238   1259     1
   1238   1249     1
   1238   1241     1
   1238   1242     1
   1239   1259     1
   1239   1249     1
   1239   1241     1
   1239   1242     1
   1240   1259     1
   1241   1258     1
   1241   1250     1
   1241   1251     1
   1242   1258     1
   1242   1250     1
   1242   1251     1
   1243   1259     1
   1244   2626     1
   1244   1256     1
   1244   1257     1
   1245   2626     1
   1245   1256     1
   1245   1257     1
   1246   1259     1
   1247   2594     1
   1247   1253     1
   1247   1254     1
   1248   2594     1
   1248   1253     1
   1248   1254     1
   1252   2565     1
   1252   2566     1
   1253   2564     1
   1254   2564     1
   1255   2597     1
   1255   2598     1
   1256   2596     1
   1257   2596     1
   1260   1274     1
   1260   1275     1
   1260   1277     1
   1260   1278     1
   1260   1271     1
   1260   1272     1
   1261   1265     1
   1261   1266     1
   1261   1268     1
   1261   1269     1
   1261   1286     1
   1261   1287     1
   1262   1264     1
   1262   1267     1
   1262   1289     1
   1262   1285     1
   1262   1274     1
   1262   1275     1
   1263   1264     1
   1263   1267     1
   1263   1289     1
   1263   1285     1
   1263   1274     1
   1263   1275     1
   1264   1268     1
   1264   1269     1
   1264   1283     1
   1264   1284     1
   1265   1267     1
   1265   1289     1
   1265   1282     1
   1265   1277     1
   1265   1278     1
   1266   1267     1
   1266   1289     1
   1266   1282     1
   1266   1277     1
   1266   1278     1
   1267   1280     1
   1267   1281     1
   1268   1289     1
   1268   1279     1
   1268   1271     1
   1268   1272     1
   1269   1289     1
   1269   1279     1
   1269   1271     1
   1269   1272     1
   1270   1289     1
   1271   1288     1
   1271   1280     1
   1271   1281     1
   1272   1288     1
   1272   1280     1
   1272   1281     1
   1273   1289     1
   1274   2690     1
   1274   1286     1
   1274   1287     1
   1275   2690     1
   1275   1286     1
   1275   1287     1
   1276   1289     1
   1277   2658     1
   1277   1283     1
   1277   1284     1
   1278   2658     1
   1278   1283     1
   1278   1284     1
   1282   2629     1
   1282   2630     1
   1283   2628     1
   1284   2628     1
   1285   2661     1
   1285   2662     1
   1286   2660     1
   1287   2660     1
   1290   1304     1
   1290   1305     1
   1290   1307     1
   1290   1308     1
   1290   1301     1
   1290   1302     1
   1291   1295     1
   1291   1296     1
   1291   1298     1
   1291   1299     1
   1291   1316     1
   1291   1317     1
   1292   1294     1
   1292   1297     1
   1292   1319     1
   1292   1315     1
   1292   1304     1
   1292   1305     1
   1293   1294     1
   1293   1297     1
   1293   1319     1
   1293   1315     1
   1293   1304     1
   1293   1305     1
   1294   1298     1
   1294   1299     1
   1294   1313     1
   1294   1314     1
   1295   1297     1
   1295   1319     1
   1295   1312     1
   1295   1307     1
   1295   1308     1
   1296   1297     1
   1296   1319     1
   1296   1312     1
   1296   1307     1
   1296   1308     1
   1297   1310     1
   1297   1311     1
   1298   1319     1
   1298   1309     1
   1298   1301     1
   1298   1302     1
   1299   1319     1
   1299   1309     1
   1299   1301     1
   1299   1302     1
   1300   1319     1
   1301   1318     1
   1301   1310     1
   1301   1311     1
   1302   1318     1
   1302   1310     1
   1302   1311     1
   1303   1319     1
   1304   2754     1
   1304   1316     1
   1304   1317     1
   1305   2754     1
   1305   1316     1
   1305   1317     1
   1306   1319     1
   1307   2722     1
   1307   1313     1
   1307   1314     1
   1308   2722     1
   1308   1313     1
   1308   1314     1
   1312   2693     1
   1312   2694     1
   1313   2692     1
   1314   2692     1
   1315   2725     1
   1315   2726     1
   1316   2724     1
   1317   2724     1
   1320   1334     1
   1320   1335     1
   1320   1337     1
   1320   1338     1
   1320   1331     1
   1320   1332     1
   1321   1325     1
   1321   1326     1
   1321   1328     1
   1321   1329     1
   1321   1346     1
   1321   1347     1
   1322   1324     1
   1322   1327     1
   1322   1349     1
   1322   1345     1
   1322   1334     1
   1322   1335     1
   1323   1324     1
   1323   1327     1
   1323   1349     1
   1323   1345     1
   1323   1334     1
   1323   1335     1
   1324   1328     1
   1324   1329     1
   1324   1343     1
   1324   1344     1
   1325   1327     1
   1325   1349     1
   1325   1342     1
   1325   1337     1
   1325   1338     1
   1326   1327     1
   1326   1349     1
   1326   1342     1
   1326   1337     1
   1326   1338     1
   1327   1340     1
   1327   1341     1
   1328   1349     1
   1328   1339     1
   1328   1331     1
   1328   1332     1
   1329   1349     1
   1329   1339     1
   1329   1331     1
   1329   1332     1
   1330   1349     1
   1331   1348     1
   1331   1340     1
   1331   1341     1
   1332   1348     1
   1332   1340     1
   1332   1341     1
   1333   1349     1
   1334   2818     1
   1334   1346     1
   1334   1347     1
   1335   2818     1
   1335   1346     1
   1335   1347     1
   1336   1349     1
   1337   2786     1
   1337   1343     1
   1337   1344     1
   1338   2786     1
   1338   1343     1
   1338   1344     1
   1342   2757     1
   1342   2758     1
   1343   2756     1
   1344   2756     1
   1345   2789     1
   1345   2790     1
   1346   2788     1
   1347   2788     1
   1350   1364     1
   1350   1365     1
   1350   1367     1
   1350   1368     1
   1350   1361     1
   1350   1362     1
   1351   1355     1
   1351   1356     1
   1351   1358     1
   1351   1359     1
   1351   1376     1
   1351   1377     1
   1352   1354     1
   1352   1357     1
   1352   1379     1
   1352   1375     1
   1352   1364     1
   1352   1365     1
   1353   1354     1
   1353   1357     1
   1353   1379     1
   1353   1375     1
   1353   1364     1
   1353   1365     1
   1354   1358     1
   1354   1359     1
   1354   1373     1
   1354   1374     1
   1355   1357     1
   1355   1379     1
   1355   1372     1
   1355   1367     1
   1355   1368     1
   1356   1357     1
   1356   1379     1
   1356   1372     1
   1356   1367     1
   1356   1368     1
   1357   1370     1
   1357   1371     1
   1358   1379     1
   1358   1369     1
   1358   1361     1
   1358   1362     1
   1359   1379     1
   1359   1369     1
   1359   1361     1
   1359   1362     1
   1360   1379     1
   1361   1378     1
   1361   1370     1
   1361   1371     1
   1362   1378     1
   1362   1370     1
   1362   1371     1
   1363   1379     1
   1364   2882     1
   1364   1376     1
   1364   1377     1
   1365   2882     1
   1365   1376     1
   1365   1377     1
   1366   1379     1
   1367   2850     1
   1367   1373     1
   1367   1374     1
   1368   2850     1
   1368   1373     1
   1368   1374     1
   1372   2821     1
   1372   2822     1
   1373   2820     1
   1374   2820     1
   1375   2853     1
   1375   2854     1
   1376   2852     1
   1377   2852     1
   1380   1394     1
   1380   1395     1
   1380   1397     1
   1380   1398     1
   1380   1391     1
   1380   1392     1
   1381   1385     1
   1381   1386     1
   1381   1388     1
   1381   1389     1
   1381   1406     1
   1381   1407     1
   1382   1384     1
   1382   1387     1
   1382   1409     1
   1382   1405     1
   1382   1394     1
   1382   1395     1
   1383   1384     1
   1383   1387     1
   1383   1409     1
   1383   1405     1
   1383   1394     1
   1383   1395     1
   1384   1388     1
   1384   1389     1
   1384   1403     1
   1384   1404     1
   1385   1387     1
   1385   1409     1
   1385   1402     1
   1385   1397     1
   1385   1398     1
   1386   1387     1
   1386   1409     1
   1386   1402     1
   1386   1397     1
   1386   1398     1
   1387   1400     1
   1387   1401     1
   1388   1409     1
   1388   1399     1
   1388   1391     1
   1388   1392     1
   1389   1409     1
   1389   1399     1
   1389   1391     1
   1389   1392     1
   1390   1409     1
   1391   1408     1
   1391   1400     1
   1391   1401     1
   1392   1408     1
   1392   1400     1
   1392   1401     1
   1393   1409     1
   1394   2946     1
   1394   1406     1
   1394   1407     1
   1395   2946     1
   1395   1406     1
   1395   1407     1
   1396   1409     1
   1397   2914     1
   1397   1403     1
   1397   1404     1
   1398   2914     1
   1398   1403     1
   1398   1404     1
   1402   2885     1
   1402   2886     1
   1403   2884     1
   1404   2884     1
   1405   2917     1
   1405   2918     1
   1406   2916     1
   1407   2916     1
   1410   1424     1
   1410   1425     1
   1410   1427     1
   1410   1428     1
   1410   1421     1
   1410   1422     1
   1411   1415     1
   1411   1416     1
   1411   1418     1
   1411   1419     1
   1411   1436     1
   1411   1437     1
   1412   1414     1
   1412   1417     1
   1412   1439     1
   1412   1435     1
   1412   1424     1
   1412   1425     1
   1413   1414     1
   1413   1417     1
   1413   1439     1
   1413   1435     1
   1413   1424     1
   1413   1425     1
   1414   1418     1
   1414   1419     1
   1414   1433     1
   1414   1434     1
   1415   1417     1
   1415   1439     1
   1415   1432     1
   1415   1427     1
   1415   1428     1
   1416   1417     1
   1416   1439     1
   1416   1432     1
   1416   1427     1
   1416   1428     1
   1417   1430     1
   1417   1431     1
   1418   1439     1
   1418   1429     1
   1418   1421     1
   1418   1422     1
   1419   1439     1
   1419   1429     1
   1419   1421     1
   1419   1422     1
   1420   1439     1
   1421   1438     1
   1421   1430     1
   1421   1431     1
   1422   1438     1
   1422   1430     1
   1422   1431     1
   1423   1439     1
   1424   3010     1
   1424   1436     1
   1424   1437     1
   1425   3010     1
   1425   1436     1
   1425   1437     1
   1426   1439     1
   1427   2978     1
   1427   1433     1
   1427   1434     1
   1428   2978     1
   1428   1433     1
   1428   1434     1
   1432   2949     1
   1432   2950     1
   1433   2948     1
   1434   2948     1
   1435   2981     1
   1435   2982     1
   1436   2980     1
   1437   2980     1
   1440   1454     1
   1440   1455     1
   1440   1457     1
   1440   1458     1
   1440   1451     1
   1440   1452     1
   1441   1445     1
   1441   1446     1
   1441   1448     1
   1441   1449     1
   1441   1466     1
   1441   1467     1
   1442   1444     1
   1442   1447     1
   1442   1469     1
   1442   1465     1
   1442   1454     1
   1442   1455     1
   1443   1444     1
   1443   1447     1
   1443   1469     1
   1443   1465     1
   1443   1454     1
   1443   1455     1
   1444   1448     1
   1444   1449     1
   1444   1463     1
   1444   1464     1
   1445   1447     1
   1445   1469     1
   1445   1462     1
   1445   1457     1
   1445   1458     1
   1446   1447     1
   1446   1469     1
   1446   1462     1
   1446   1457     1
   1446   1458     1
   1447   1460     1
   1447   1461     1
   1448   1469     1
   1448   1459     1
   1448   1451     1
   1448   1452     1
   1449   1469     1
   1449   1459     1
   1449   1451     1
   1449   1452     1
   1450   1469     1
   1451   1468     1
   1451   1460     1
   1451   1461     1
   1452   1468     1
   1452   1460     1
   1452   1461     1
   1453   1469     1
   1454   3074     1
   1454   1466     1
   1454   1467     1
   1455   3074     1
   1455   1466     1
   1455   1467     1
   1456   1469     1
   1457   3042     1
   1457   1463     1
   1457   1464     1
   1458   3042     1
   1458   1463     1
   1458   1464     1
   1462   3013     1
   1462   3014     1
   1463   3012     1
   1464   3012     1
   1465   3045     1
   1465   3046     1
   1466   3044     1
   1467   3044     1
   1470   1484     1
   1470   1485     1
   1470   1487     1
   1470   1488     1
   1470   1481     1
   1470   1482     1
   1471   1475     1
   1471   1476     1
   1471   1478     1
   1471   1479     1
   1471   1496     1
   1471   1497     1
   1472   1474     1
   1472   1477     1
   1472   1499     1
   1472   1495     1
   1472   1484     1
   1472   1485     1
   1473   1474     1
   1473   1477     1
   1473   1499     1
   1473   1495     1
   1473   1484     1
   1473   1485     1
   1474   1478     1
   1474   1479     1
   1474   1493     1
   1474   1494     1
   1475   1477     1
   1475   1499     1
   1475   1492     1
   1475   1487     1
   1475   1488     1
   1476   1477     1
   1476   1499     1
   1476   1492     1
   1476   1487     1
   1476   1488     1
   1477   1490     1
   1477   1491     1
   1478   1499     1
   1478   1489     1
   1478   1481     1
   1478   1482     1
   1479   1499     1
   1479   1489     1
   1479   1481     1
   1479   1482     1
   1480   1499     1
   1481   1498     1
   1481   1490     1
   1481   1491     1
   1482   1498     1
   1482   1490     1
   1482   1491     1
   1483   1499     1
   1484   3138     1
   1484   1496     1
   1484   1497     1
   1485   3138     1
   1485   1496     1
   1485   1497     1
   1486   1499     1
   1487   3106     1
   1487   1493     1
   1487   1494     1
   1488   3106     1
   1488   1493     1
   1488   1494     1
   1492   3077     1
   1492   3078     1
   1493   3076     1
   1494   3076     1
   1495   3109     1
   1495   3110     1
   1496   3108     1
   1497   3108     1
   1500   1514     1
   1500   1515     1
   1500   1517     1
   1500   1518     1
   1500   1511     1
   1500   1512     1
   1501   1505     1
   1501   1506     1
   1501   1508     1
   1501   1509     1
   1501   1526     1
   1501   1527     1
   1502   1504     1
   1502   1507     1
   1502   1529     1
   1502   1525     1
   1502   1514     1
   1502   1515     1
   1503   1504     1
   1503   1507     1
   1503   1529     1
   1503   1525     1
   1503   1514     1
   1503   1515     1
   1504   1508     1
   1504   1509     1
   1504   1523     1
   1504   1524     1
   1505   1507     1
   1505   1529     1
   1505   1522     1
   1505   1517     1
   1505   1518     1
   1506   1507     1
   1506   1529     1
   1506   1522     1
   1506   1517     1
   1506   1518     1
   1507   1520     1
   1507   1521     1
   1508   1529     1
   1508   1519     1
   1508   1511     1
   1508   1512     1
   1509   1529     1
   1509   1519     1
   1509   1511     1
   1509   1512     1
   1510   1529     1
   1511   1528     1
   1511   1520     1
   1511   1521     1
   1512   1528     1
   1512   1520     1
   1512   1521     1
   1513   1529     1
   1514   3202     1
   1514   1526     1
   1514   1527     1
   1515   3202     1
   1515   1526     1
   1515   1527     1
   1516   1529     1
   1517   3170     1
   1517   1523     1
   1517   1524     1
   1518   3170     1
   1518   1523     1
   1518   1524     1
   1522   3141     1
   1522   3142     1
   1523   3140     1
   1524   3140     1
   1525   3173     1
   1525   3174     1
   1526   3172     1
   1527   3172     1
   1530   1544     1
   1530   1545     1
   1530   1547     1
   1530   1548     1
   1530   1541     1
   1530   1542     1
   1531   1535     1
   1531   1536     1
   1531   1538     1
   1531   1539     1
   1531   1556     1
   1531   1557     1
   1532   1534     1
   1532   1537     1
   1532   1559     1
   1532   1555     1
   1532   1544     1
   1532   1545     1
   1533   1534     1
   1533   1537     1
   1533   1559     1
   1533   1555     1
   1533   1544     1
   1533   1545     1
   1534   1538     1
   1534   1539     1
   1534   1553     1
   1534   1554     1
   1535   1537     1
   1535   1559     1
   1535   1552     1
   1535   1547     1
   1535   1548     1
   1536   1537     1
   1536   1559     1
   1536   1552     1
   1536   1547     1
   1536   1548     1
   1537   1550     1
   1537   1551     1
   1538   1559     1
   1538   1549     1
   1538   1541     1
   1538   1542     1
   1539   1559     1
   1539   1549     1
   1539   1541     1
   1539   1542     1
   1540   1559     1
   1541   1558     1
   1541   1550     1
   1541   1551     1
   1542   1558     1
   1542   1550     1
   1542   1551     1
   1543   1559     1
   1544   3266     1
   1544   1556     1
   1544   1557     1
   1545   3266     1
   1545   1556     1
   1545   1557     1
   1546   1559     1
   1547   3234     1
   1547   1553     1
   1547   1554     1
   1548   3234     1
   1548   1553     1
   1548   1554     1
   1552   3205     1
   1552   3206     1
   1553   3204     1
   1554   3204     1
   1555   3237     1
   1555   3238     1
   1556   3236     1
   1557   3236     1
   1560   1574     1
   1560   1575     1
   1560   1577     1
   1560   1578     1
   1560   1571     1
   1560   1572     1
   1561   1565     1
   1561   1566     1
   1561   1568     1
   1561   1569     1
   1561   1586     1
   1561   1587     1
   1562   1564     1
   1562   1567     1
   1562   1589     1
   1562   1585     1
   1562   1574     1
   1562   1575     1
   1563   1564     1
   1563   1567     1
   1563   1589     1
   1563   1585     1
   1563   1574     1
   1563   1575     1
   1564   1568     1
   1564   1569     1
   1564   1583     1
   1564   1584     1
   1565   1567     1
   1565   1589     1
   1565   1582     1
   1565   1577     1
   1565   1578     1
   1566   1567     1
   1566   1589     1
   1566   1582     1
   1566   1577     1
   1566   1578     1
   1567   1580     1
   1567   1581     1
   1568   1589     1
   1568   1579     1
   1568   1571     1
   1568   1572     1
   1569   1589     1
   1569   1579     1
   1569   1571     1
   1569   1572     1
   1570   1589     1
   1571   1588     1
   1571   1580     1
   1571   1581     1
   1572   1588     1
   1572   1580     1
   1572   1581     1
   1573   1589     1
   1574   3330     1
   1574   1586     1
   1574   1587     1
   1575   3330     1
   1575   1586     1
   1575   1587     1
   1576   1589     1
   1577   3298     1
   1577   1583     1
   1577   1584     1
   1578   3298     1
   1578   1583     1
   1578   1584     1
   1582   3269     1
   1582   3270     1
   1583   3268     1
   1584   3268     1
   1585   3301     1
   1585   3302     1
   1586   3300     1
   1587   3300     1
   1590   1604     1
   1590   1605     1
   1590   1607     1
   1590   1608     1
   1590   1601     1
   1590   1602     1
   1591   1595     1
   1591   1596     1
   1591   1598     1
   1591   1599     1
   1591   1616     1
   1591   1617     1
   1592   1594     1
   1592   1597     1
   1592   1619     1
   1592   1615     1
   1592   1604     1
   1592   1605     1
   1593   1594     1
   1593   1597     1
   1593   1619     1
   1593   1615     1
   1593   1604     1
   1593   1605     1
   1594   1598     1
   1594   1599     1
   1594   1613     1
   1594   1614     1
   1595   1597     1
   1595   1619     1
   1595   1612     1
   1595   1607     1
   1595   1608     1
   1596   1597     1
   1596   1619     1
   1596   1612     1
   1596   1607     1
   1596   1608     1
   1597   1610     1
   1597   1611     1
   1598   1619     1
   1598   1609     1
   1598   1601     1
   1598   1602     1
   1599   1619     1
   1599   1609     1
   1599   1601     1
   1599   1602     1
   1600   1619     1
   1601   1618     1
   1601   1610     1
   1601   1611     1
   1602   1618     1
   1602   1610     1
   1602   1611     1
   1603   1619     1
   1604   3394     1
   1604   1616     1
   1604   1617     1
   1605   3394     1
   1605   1616     1
   1605   1617     1
   1606   1619     1
   1607   3362     1
   1607   1613     1
   1607   1614     1
   1608   3362     1
   1608   1613     1
   1608   1614     1
   1612   3333     1
   1612   3334     1
   1613   3332     1
   1614   3332     1
   1615   3365     1
   1615   3366     1
   1616   3364     1
   1617   3364     1
   1620   1634     1
   1620   1635     1
   1620   1637     1
   1620   1638     1
   1620   1631     1
   1620   1632     1
   1621   1625     1
   1621   1626     1
   1621   1628     1
   1621   1629     1
   1621   1646     1
   1621   1647     1
   1622   1624     1
   1622   1627     1
   1622   1649     1
   1622   1645     1
   1622   1634     1
   1622   1635     1
   1623   1624     1
   1623   1627     1
   1623   1649     1
   1623   1645     1
   1623   1634     1
   1623   1635     1
   1624   1628     1
   1624   1629     1
   1624   1643     1
   1624   1644     1
   1625   1627     1
   1625   1649     1
   1625   1642     1
   1625   1637     1
   1625   1638     1
   1626   1627     1
   1626   1649     1
   1626   1642     1
   1626   1637     1
   1626   1638     1
   1627   1640     1
   1627   1641     1
   1628   1649     1
   1628   1639     1
   1628   1631     1
   1628   1632     1
   1629   1649     1
   1629   1639     1
   1629   1631     1
   1629   1632     1
   1630   1649     1
   1631   1648     1
   1631   1640     1
   1631   1641     1
   1632   1648     1
   1632   1640     1
   1632   1641     1
   1633   1649     1
   1634   3458     1
   1634   1646     1
   1634   1647     1
   1635   3458     1
   1635   1646     1
   1635   1647     1
   1636   1649     1
   1637   3426     1
   1637   1643     1
   1637   1644     1
   1638   3426     1
   1638   1643     1
   1638   1644     1
   1642   3397     1
   1642   3398     1
   1643   3396     1
   1644   3396     1
   1645   3429     1
   1645   3430     1
   1646   3428     1
   1647   3428     1
   1650   1664     1
   1650   1665     1
   1650   1667     1
   1650   1668     1
   1650   1661     1
   1650   1662     1
   1651   1655     1
   1651   1656     1
   1651   1658     1
   1651   1659     1
   1651   1676     1
   1651   1677     1
   1652   1654     1
   1652   1657     1
   1652   1679     1
   1652   1675     1
   1652   1664     1
   1652   1665     1
   1653   1654     1
   1653   1657     1
   1653   1679     1
   1653   1675     1
   1653   1664     1
   1653   1665     1
   1654   1658     1
   1654   1659     1
   1654   1673     1
   1654   1674     1
   1655   1657     1
   1655   1679     1
   1655   1672     1
   1655   1667     1
   1655   1668     1
   1656   1657     1
   1656   1679     1
   1656   1672     1
   1656   1667     1
   1656   1668     1
   1657   1670     1
   1657   1671     1
   1658   1679     1
   1658   1669     1
   1658   1661     1
   1658   1662     1
   1659   1679     1
   1659   1669     1
   1659   1661     1
   1659   1662     1
   1660   1679     1
   1661   1678     1
   1661   1670     1
   1661   1671     1
   1662   1678     1
   1662   1670     1
   1662   1671     1
   1663   1679     1
   1664   3522     1
   1664   1676     1
   1664   1677     1
   1665   3522     1
   1665   1676     1
   1665   1677     1
   1666   1679     1
   1667   3490     1
   1667   1673     1
   1667   1674     1
   1668   3490     1
   1668   1673     1
   1668   1674     1
   1672   3461     1
   1672   3462     1
   1673   3460     1
   1674   3460     1
   1675   3493     1
   1675   3494     1
   1676   3492     1
   1677   3492     1
   1680   1694     1
   1680   1695     1
   1680   1697     1
   1680   1698     1
   1680   1691     1
   1680   1692     1
   1681   1685     1
   1681   1686     1
   1681   1688     1
   1681   1689     1
   1681   1706     1
   1681   1707     1
   1682   1684     1
   1682   1687     1
   1682   1709     1
   1682   1705     1
   1682   1694     1
   1682   1695     1
   1683   1684     1
   1683   1687     1
   1683   1709     1
   1683   1705     1
   1683   1694     1
   1683   1695     1
   1684   1688     1
   1684   1689     1
   1684   1703     1
   1684   1704     1
   1685   1687     1
   1685   1709     1
   1685   1702     1
   1685   1697     1
   1685   1698     1
   1686   1687     1
   1686   1709     1
   1686   1702     1
   1686   1697     1
   1686   1698     1
   1687   1700     1
   1687   1701     1
   1688   1709     1
   1688   1699     1
   1688   1691     1
   1688   1692     1
   1689   1709     1
   1689   1699     1
   1689   1691     1
   1689   1692     1
   1690   1709     1
   1691   1708     1
   1691   1700     1
   1691   1701     1
   1692   1708     1
   1692   1700     1
   1692   1701     1
   1693   1709     1
   1694   3586     1
   1694   1706     1
   1694   1707     1
   1695   3586     1
   1695   1706     1
   1695   1707     1
   1696   1709     1
   1697   3554     1
   1697   1703     1
   1697   1704     1
   1698   3554     1
   1698   1703     1
   1698   1704     1
   1702   3525     1
   1702   3526     1
   1703   3524     1
   1704   3524     1
   1705   3557     1
   1705   3558     1
   1706   3556     1
   1707   3556     1
   1710   1724     1
   1710   1725     1
   1710   1727     1
   1710   1728     1
   1710   1721     1
   1710   1722     1
   1711   1715     1
   1711   1716     1
   1711   1718     1
   1711   1719     1
   1711   1736     1
   1711   1737     1
   1712   1714     1
   1712   1717     1
   1712   1739     1
   1712   1735     1
   1712   1724     1
   1712   1725     1
   1713   1714     1
   1713   1717     1
   1713   1739     1
   1713   1735     1
   1713   1724     1
   1713   1725     1
   1714   1718     1
   1714   1719     1
   1714   1733     1
   1714   1734     1
   1715   1717     1
   1715   1739     1
   1715   1732     1
   1715   1727     1
   1715   1728     1
   1716   1717     1
   1716   1739     1
   1716   1732     1
   1716   1727     1
   1716   1728     1
   1717   1730     1
   1717   1731     1
   1718   1739     1
   1718   1729     1
   1718   1721     1
   1718   1722     1
   1719   1739     1
   1719   1729     1
   1719   1721     1
   1719   1722     1
   1720   1739     1
   1721   1738     1
   1721   1730     1
   1721   1731     1
   1722   1738     1
   1722   1730     1
   1722   1731     1
   1723   1739     1
   1724   3650     1
   1724   1736     1
   1724   1737     1
   1725   3650     1
   1725   1736     1
   1725   1737     1
   1726   1739     1
   1727   3618     1
   1727   1733     1
   1727   1734     1
   1728   3618     1
   1728   1733     1
   1728   1734     1
   1732   3589     1
   1732   3590     1
   1733   3588     1
   1734   3588     1
   1735   3621     1
   1735   3622     1
   1736   3620     1
   1737   3620     1
   1740   1754     1
   1740   1755     1
   1740   1757     1
   1740   1758     1
   1740   1751     1
   1740   1752     1
   1741   1745     1
   1741   1746     1
   1741   1748     1
   1741   1749     1
   1741   1766     1
   1741   1767     1
   1742   1744     1
   1742   1747     1
   1742   1769     1
   1742   1765     1
   1742   1754     1
   1742   1755     1
   1743   1744     1
   1743   1747     1
   1743   1769     1
   1743   1765     1
   1743   1754     1
   1743   1755     1
   1744   1748     1
   1744   1749     1
   1744   1763     1
   1744   1764     1
   1745   1747     1
   1745   1769     1
   1745   1762     1
   1745   1757     1
   1745   1758     1
   1746   1747     1
   1746   1769     1
   1746   1762     1
   1746   1757     1
   1746   1758     1
   1747   1760     1
   1747   1761     1
   1748   1769     1
   1748   1759     1
   1748   1751     1
   1748   1752     1
   1749   1769     1
   1749   1759     1
   1749   1751     1
   1749   1752     1
   1750   1769     1
   1751   1768     1
   1751   1760     1
   1751   1761     1
   1752   1768     1
   1752   1760     1
   1752   1761     1
   1753   1769     1
   1754   3714     1
   1754   1766     1
   1754   1767     1
   1755   3714     1
   1755   1766     1
   1755   1767     1
   1756   1769     1
   1757   3682     1
   1757   1763     1
   1757   1764     1
   1758   3682     1
   1758   1763     1
   1758   1764     1
   1762   3653     1
   1762   3654     1
   1763   3652     1
   1764   3652     1
   1765   3685     1
   1765   3686     1
   1766   3684     1
   1767   3684     1
   1770   1784     1
   1770   1785     1
   1770   1787     1
   1770   1788     1
   1770   1781     1
   1770   1782     1
   1771   1775     1
   1771   1776     1
   1771   1778     1
   1771   1779     1
   1771   1796     1
   1771   1797     1
   1772   1774     1
   1772   1777     1
   1772   1799     1
   1772   1795     1
   1772   1784     1
   1772   1785     1
   1773   1774     1
   1773   1777     1
   1773   1799     1
   1773   1795     1
   1773   1784     1
   1773   1785     1
   1774   1778     1
   1774   1779     1
   1774   1793     1
   1774   1794     1
   1775   1777     1
   1775   1799     1
   1775   1792     1
   1775   1787     1
   1775   1788     1
   1776   1777     1
   1776   1799     1
   1776   1792     1
   1776   1787     1
   1776   1788     1
   1777   1790     1
   1777   1791     1
   1778   1799     1
   1778   1789     1
   1778   1781     1
   1778   1782     1
   1779   1799     1
   1779   1789     1
   1779   1781     1
   1779   1782     1
   1780   1799     1
   1781   1798     1
   1781   1790     1
   1781   1791     1
   1782   1798     1
   1782   1790     1
   1782   1791     1
   1783   1799     1
   1784   3778     1
   1784   1796     1
   1784   1797     1
   1785   3778     1
   1785   1796     1
   1785   1797     1
   1786   1799     1
   1787   3746     1
   1787   1793     1
   1787   1794     1
   1788   3746     1
   1788   1793     1
   1788   1794     1
   1792   3717     1
   1792   3718     1
   1793   3716     1
   1794   3716     1
   1795   3749     1
   1795   3750     1
   1796   3748     1
   1797   3748     1
   1800   1814     1
   1800   1815     1
   1800   1817     1
   1800   1818     1
   1800   1811     1
   1800   1812     1
   1801   1805     1
   1801   1806     1
   1801   1808     1
   1801   1809     1
   1801   1826     1
   1801   1827     1
   1802   1804     1
   1802   1807     1
   1802   1829     1
   1802   1825     1
   1802   1814     1
   1802   1815     1
   1803   1804     1
   1803   1807     1
   1803   1829     1
   1803   1825     1
   1803   1814     1
   1803   1815     1
   1804   1808     1
   1804   1809     1
   1804   1823     1
   1804   1824     1
   1805   1807     1
   1805   1829     1
   1805   1822     1
   1805   1817     1
   1805   1818     1
   1806   1807     1
   1806   1829     1
   1806   1822     1
   1806   1817     1
   1806   1818     1
   1807   1820     1
   1807   1821     1
   1808   1829     1
   1808   1819     1
   1808   1811     1
   1808   1812     1
   1809   1829     1
   1809   1819     1
   1809   1811     1
   1809   1812     1
   1810   1829     1
   1811   1828     1
   1811   1820     1
   1811   1821     1
   1812   1828     1
   1812   1820     1
   1812   1821     1
   1813   1829     1
   1814   3842     1
   1814   1826     1
   1814   1827     1
   1815   3842     1
   1815   1826     1
   1815   1827     1
   1816   1829     1
   1817   3810     1
   1817   1823     1
   1817   1824     1
   1818   3810     1
   1818   1823     1
   1818   1824     1
   1822   3781     1
   1822   3782     1
   1823   3780     1
   1824   3780     1
   1825   3813     1
   1825   3814     1
   1826   3812     1
   1827   3812     1
   1830   1844     1
   1830   1845     1
   1830   1847     1
   1830   1848     1
   1830   1841     1
   1830   1842     1
   1831   1835     1
   1831   1836     1
   1831   1838     1
   1831   1839     1
   1831   1856     1
   1831   1857     1
   1832   1834     1
   1832   1837     1
   1832   1859     1
   1832   1855     1
   1832   1844     1
   1832   1845     1
   1833   1834     1
   1833   1837     1
   1833   1859     1
   1833   1855     1
   1833   1844     1
   1833   1845     1
   1834   1838     1
   1834   1839     1
   1834   1853     1
   1834   1854     1
   1835   1837     1
   1835   1859     1
   1835   1852     1
   1835   1847     1
   1835   1848     1
   1836   1837     1
   1836   1859     1
   1836   1852     1
   1836   1847     1
   1836   1848     1
   1837   1850     1
   1837   1851     1
   1838   1859     1
   1838   1849     1
   1838   1841     1
   1838   1842     1
   1839   1859     1
   1839   1849     1
   1839   1841     1
   1839   1842     1
   1840   1859     1
   1841   1858     1
   1841   1850     1
   1841   1851     1
   1842   1858     1
   1842   1850     1
   1842   1851     1
   1843   1859     1
   1844   3906     1
   1844   1856     1
   1844   1857     1
   1845   3906     1
   1845   1856     1
   1845   1857     1
   1846   1859     1
   1847   3874     1
   1847   1853     1
   1847   1854     1
   1848   3874     1
   1848   1853     1
   1848   1854     1
   1852   3845     1
   1852   3846     1
   1853   3844     1
   1854   3844     1
   1855   3877     1
   1855   3878     1
   1856   3876     1
   1857   3876     1
   1860   1867     1
   1860   1868     1
   1861   1866     1
   1861   1864     1
   1861   1865     1
   1862   1866     1
   1862   1864     1
   1862   1865     1
   1863   1891     1
   1864   1890     1
   1864   1869     1
   1864   1867     1
   1864   1868     1
   1865   1890     1
   1865   1869     1
   1865   1867     1
   1865   1868     1
   1866   1871     1
   1866   1872     1
   1866   1881     1
   1866   1882     1
   1867   1870     1
   1867   1880     1
   1867   1891     1
   1868   1870     1
   1868   1880     1
   1868   1891     1
   1869   1874     1
   1869   1875     1
   1869   1884     1
   1869   1885     1
   1870   1881     1
   1870   1882     1
   1871   1880     1
   1871   1891     1
   1871   1876     1
   1871   1874     1
   1871   1875     1
   1872   1880     1
   1872   1891     1
   1872   1876     1
   1872   1874     1
   1872   1875     1
   1873   1891     1
   1873   1879     1
   1874   1877     1
   1874   1878     1
   1875   1877     1
   1875   1878     1
   1877   1879     1
   1881   1891     1
   1881   1886     1
   1881   1884     1
   1881   1885     1
   1882   1891     1
   1882   1886     1
   1882   1884     1
   1882   1885     1
   1883   1891     1
   1883   1889     1
   1884   1887     1
   1884   1888     1
   1885   1887     1
   1885   1888     1
   1887   1889     1
   1892   1899     1
   1892   1900     1
   1893   1898     1
   1893   1896     1
   1893   1897     1
   1894   1898     1
   1894   1896     1
   1894   1897     1
   1895   1923     1
   1896   1901     1
   1896   1899     1
   1896   1900     1
   1896   1922     1
   1897   1901     1
   1897   1899     1
   1897   1900     1
   1897   1922     1
   1898   1903     1
   1898   1904     1
   1898   1913     1
   1898   1914     1
   1899   1902     1
   1899   1912     1
   1899   1923     1
   1900   1902     1
   1900   1912     1
   1900   1923     1
   1901   1906     1
   1901   1907     1
   1901   1916     1
   1901   1917     1
   1902   1913     1
   1902   1914     1
   1903   1908     1
   1903   1906     1
   1903   1907     1
   1903   1912     1
   1903   1923     1
   1904   1908     1
   1904   1906     1
   1904   1907     1
   1904   1912     1
   1904   1923     1
   1905   1911     1
   1905   1923     1
   1906   1909     1
   1906   1910     1
   1907   1909     1
   1907   1910     1
   1909   1911     1
   1913   1918     1
   1913   1916     1
   1913   1917     1
   1913   1923     1
   1914   1918     1
   1914   1916     1
   1914   1917     1
   1914   1923     1
   1915   1921     1
   1915   1923     1
   1916   1919     1
   1916   1920     1
   1917   1919     1
   1917   1920     1
   1919   1921     1
   1924   1931     1
   1924   1932     1
   1925   1930     1
   1925   1928     1
   1925   1929     1
   1926   1930     1
   1926   1928     1
   1926   1929     1
   1927   1955     1
   1928   1954     1
   1928   1933     1
   1928   1931     1
   1928   1932     1
   1929   1954     1
   1929   1933     1
   1929   1931     1
   1929   1932     1
   1930   1935     1
   1930   1936     1
   1930   1945     1
   1930   1946     1
   1931   1934     1
   1931   1944     1
   1931   1955     1
   1932   1934     1
   1932   1944     1
   1932   1955     1
   1933   1938     1
   1933   1939     1
   1933   1948     1
   1933   1949     1
   1934   1945     1
   1934   1946     1
   1935   1944     1
   1935   1955     1
   1935   1940     1
   1935   1938     1
   1935   1939     1
   1936   1944     1
   1936   1955     1
   1936   1940     1
   1936   1938     1
   1936   1939     1
   1937   1955     1
   1937   1943     1
   1938   1941     1
   1938   1942     1
   1939   1941     1
   1939   1942     1
   1941   1943     1
   1945   1955     1
   1945   1950     1
   1945   1948     1
   1945   1949     1
   1946   1955     1
   1946   1950     1
   1946   1948     1
   1946   1949     1
   1947   1955     1
   1947   1953     1
   1948   1951     1
   1948   1952     1
   1949   1951     1
   1949   1952     1
   1951   1953     1
   1956   1963     1
   1956   1964     1
   1957   1962     1
   1957   1960     1
   1957   1961     1
   1958   1962     1
   1958   1960     1
   1958   1961     1
   1959   1987     1
   1960   1965     1
   1960   1963     1
   1960   1964     1
   1960   1986     1
   1961   1965     1
   1961   1963     1
   1961   1964     1
   1961   1986     1
   1962   1967     1
   1962   1968     1
   1962   1977     1
   1962   1978     1
   1963   1966     1
   1963   1976     1
   1963   1987     1
   1964   1966     1
   1964   1976     1
   1964   1987     1
   1965   1970     1
   1965   1971     1
   1965   1980     1
   1965   1981     1
   1966   1977     1
   1966   1978     1
   1967   1972     1
   1967   1970     1
   1967   1971     1
   1967   1976     1
   1967   1987     1
   1968   1972     1
   1968   1970     1
   1968   1971     1
   1968   1976     1
   1968   1987     1
   1969   1975     1
   1969   1987     1
   1970   1973     1
   1970   1974     1
   1971   1973     1
   1971   1974     1
   1973   1975     1
   1977   1982     1
   1977   1980     1
   1977   1981     1
   1977   1987     1
   1978   1982     1
   1978   1980     1
   1978   1981     1
   1978   1987     1
   1979   1985     1
   1979   1987     1
   1980   1983     1
   1980   1984     1
   1981   1983     1
   1981   1984     1
   1983   1985     1
   1988   1995     1
   1988   1996     1
   1989   1994     1
   1989   1992     1
   1989   1993     1
   1990   1994     1
   1990   1992     1
   1990   1993     1
   1991   2019     1
   1992   2018     1
   1992   1997     1
   1992   1995     1
   1992   1996     1
   1993   2018     1
   1993   1997     1
   1993   1995     1
   1993   1996     1
   1994   1999     1
   1994   2000     1
   1994   2009     1
   1994   2010     1
   1995   1998     1
   1995   2008     1
   1995   2019     1
   1996   1998     1
   1996   2008     1
   1996   2019     1
   1997   2002     1
   1997   2003     1
   1997   2012     1
   1997   2013     1
   1998   2009     1
   1998   2010     1
   1999   2008     1
   1999   2019     1
   1999   2004     1
   1999   2002     1
   1999   2003     1
   2000   2008     1
   2000   2019     1
   2000   2004     1
   2000   2002     1
   2000   2003     1
   2001   2019     1
   2001   2007     1
   2002   2005     1
   2002   2006     1
   2003   2005     1
   2003   2006     1
   2005   2007     1
   2009   2019     1
   2009   2014     1
   2009   2012     1
   2009   2013     1
   2010   2019     1
   2010   2014     1
   2010   2012     1
   2010   2013     1
   2011   2019     1
   2011   2017     1
   2012   2015     1
   2012   2016     1
   2013   2015     1
   2013   2016     1
   2015   2017     1
   2020   2027     1
   2020   2028     1
   2021   2026     1
   2021   2024     1
   2021   2025     1
   2022   2026     1
   2022   2024     1
   2022   2025     1
   2023   2051     1
   2024   2029     1
   2024   2027     1
   2024   2028     1
   2024   2050     1
   2025   2029     1
   2025   2027     1
   2025   2028     1
   2025   2050     1
   2026   2031     1
   2026   2032     1
   2026   2041     1
   2026   2042     1
   2027   2030     1
   2027   2040     1
   2027   2051     1
   2028   2030     1
   2028   2040     1
   2028   2051     1
   2029   2034     1
   2029   2035     1
   2029   2044     1
   2029   2045     1
   2030   2041     1
   2030   2042     1
   2031   2036     1
   2031   2034     1
   2031   2035     1
   2031   2040     1
   2031   2051     1
   2032   2036     1
   2032   2034     1
   2032   2035     1
   2032   2040     1
   2032   2051     1
   2033   2039     1
   2033   2051     1
   2034   2037     1
   2034   2038     1
   2035   2037     1
   2035   2038     1
   2037   2039     1
   2041   2046     1
   2041   2044     1
   2041   2045     1
   2041   2051     1
   2042   2046     1
   2042   2044     1
   2042   2045     1
   2042   2051     1
   2043   2049     1
   2043   2051     1
   2044   2047     1
   2044   2048     1
   2045   2047     1
   2045   2048     1
   2047   2049     1
   2052   2059     1
   2052   2060     1
   2053   2058     1
   2053   2056     1
   2053   2057     1
   2054   2058     1
   2054   2056     1
   2054   2057     1
   2055   2083     1
   2056   2082     1
   2056   2061     1
   2056   2059     1
   2056   2060     1
   2057   2082     1
   2057   2061     1
   2057   2059     1
   2057   2060     1
   2058   2063     1
   2058   2064     1
   2058   2073     1
   2058   2074     1
   2059   2062     1
   2059   2072     1
   2059   2083     1
   2060   2062     1
   2060   2072     1
   2060   2083     1
   2061   2066     1
   2061   2067     1
   2061   2076     1
   2061   2077     1
   2062   2073     1
   2062   2074     1
   2063   2072     1
   2063   2083     1
   2063   2068     1
   2063   2066     1
   2063   2067     1
   2064   2072     1
   2064   2083     1
   2064   2068     1
   2064   2066     1
   2064   2067     1
   2065   2083     1
   2065   2071     1
   2066   2069     1
   2066   2070     1
   2067   2069     1
   2067   2070     1
   2069   2071     1
   2073   2083     1
   2073   2078     1
   2073   2076     1
   2073   2077     1
   2074   2083     1
   2074   2078     1
   2074   2076     1
   2074   2077     1
   2075   2083     1
   2075   2081     1
   2076   2079     1
   2076   2080     1
   2077   2079     1
   2077   2080     1
   2079   2081     1
   2084   2091     1
   2084   2092     1
   2085   2090     1
   2085   2088     1
   2085   2089     1
   2086   2090     1
   2086   2088     1
   2086   2089     1
   2087   2115     1
   2088   2093     1
   2088   2091     1
   2088   2092     1
   2088   2114     1
   2089   2093     1
   2089   2091     1
   2089   2092     1
   2089   2114     1
   2090   2095     1
   2090   2096     1
   2090   2105     1
   2090   2106     1
   2091   2094     1
   2091   2104     1
   2091   2115     1
   2092   2094     1
   2092   2104     1
   2092   2115     1
   2093   2098     1
   2093   2099     1
   2093   2108     1
   2093   2109     1
   2094   2105     1
   2094   2106     1
   2095   2100     1
   2095   2098     1
   2095   2099     1
   2095   2104     1
   2095   2115     1
   2096   2100     1
   2096   2098     1
   2096   2099     1
   2096   2104     1
   2096   2115     1
   2097   2103     1
   2097   2115     1
   2098   2101     1
   2098   2102     1
   2099   2101     1
   2099   2102     1
   2101   2103     1
   2105   2110     1
   2105   2108     1
   2105   2109     1
   2105   2115     1
   2106   2110     1
   2106   2108     1
   2106   2109     1
   2106   2115     1
   2107   2113     1
   2107   2115     1
   2108   2111     1
   2108   2112     1
   2109   2111     1
   2109   2112     1
   2111   2113     1
   2116   2123     1
   2116   2124     1
   2117   2122     1
   2117   2120     1
   2117   2121     1
   2118   2122     1
   2118   2120     1
   2118   2121     1
   2119   2147     1
   2120   2146     1
   2120   2125     1
   2120   2123     1
   2120   2124     1
   2121   2146     1
   2121   2125     1
   2121   2123     1
   2121   2124     1
   2122   2127     1
   2122   2128     1
   2122   2137     1
   2122   2138     1
   2123   2126     1
   2123   2136     1
   2123   2147     1
   2124   2126     1
   2124   2136     1
   2124   2147     1
   2125   2130     1
   2125   2131     1
   2125   2140     1
   2125   2141     1
   2126   2137     1
   2126   2138     1
   2127   2136     1
   2127   2147     1
   2127   2132     1
   2127   2130     1
   2127   2131     1
   2128   2136     1
   2128   2147     1
   2128   2132     1
   2128   2130     1
   2128   2131     1
   2129   2147     1
   2129   2135     1
   2130   2133     1
   2130   2134     1
   2131   2133     1
   2131   2134     1
   2133   2135     1
   2137   2147     1
   2137   2142     1
   2137   2140     1
   2137   2141     1
   2138   2147     1
   2138   2142     1
   2138   2140     1
   2138   2141     1
   2139   2147     1
   2139   2145     1
   2140   2143     1
   2140   2144     1
   2141   2143     1
   2141   2144     1
   2143   2145     1
   2148   2155     1
   2148   2156     1
   2149   2154     1
   2149   2152     1
   2149   2153     1
   2150   2154     1
   2150   2152     1
   2150   2153     1
   2151   2179     1
   2152   2157     1
   2152   2155     1
   2152   2156     1
   2152   2178     1
   2153   2157     1
   2153   2155     1
   2153   2156     1
   2153   2178     1
   2154   2159     1
   2154   2160     1
   2154   2169     1
   2154   2170     1
   2155   2158     1
   2155   2168     1
   2155   2179     1
   2156   2158     1
   2156   2168     1
   2156   2179     1
   2157   2162     1
   2157   2163     1
   2157   2172     1
   2157   2173     1
   2158   2169     1
   2158   2170     1
   2159   2164     1
   2159   2162     1
   2159   2163     1
   2159   2168     1
   2159   2179     1
   2160   2164     1
   2160   2162     1
   2160   2163     1
   2160   2168     1
   2160   2179     1
   2161   2167     1
   2161   2179     1
   2162   2165     1
   2162   2166     1
   2163   2165     1
   2163   2166     1
   2165   2167     1
   2169   2174     1
   2169   2172     1
   2169   2173     1
   2169   2179     1
   2170   2174     1
   2170   2172     1
   2170   2173     1
   2170   2179     1
   2171   2177     1
   2171   2179     1
   2172   2175     1
   2172   2176     1
   2173   2175     1
   2173   2176     1
   2175   2177     1
   2180   2187     1
   2180   2188     1
   2181   2186     1
   2181   2184     1
   2181   2185     1
   2182   2186     1
   2182   2184     1
   2182   2185     1
   2183   2211     1
   2184   2210     1
   2184   2189     1
   2184   2187     1
   2184   2188     1
   2185   2210     1
   2185   2189     1
   2185   2187     1
   2185   2188     1
   2186   2191     1
   2186   2192     1
   2186   2201     1
   2186   2202     1
   2187   2190     1
   2187   2200     1
   2187   2211     1
   2188   2190     1
   2188   2200     1
   2188   2211     1
   2189   2194     1
   2189   2195     1
   2189   2204     1
   2189   2205     1
   2190   2201     1
   2190   2202     1
   2191   2200     1
   2191   2211     1
   2191   2196     1
   2191   2194     1
   2191   2195     1
   2192   2200     1
   2192   2211     1
   2192   2196     1
   2192   2194     1
   2192   2195     1
   2193   2211     1
   2193   2199     1
   2194   2197     1
   2194   2198     1
   2195   2197     1
   2195   2198     1
   2197   2199     1
   2201   2211     1
   2201   2206     1
   2201   2204     1
   2201   2205     1
   2202   2211     1
   2202   2206     1
   2202   2204     1
   2202   2205     1
   2203   2211     1
   2203   2209     1
   2204   2207     1
   2204   2208     1
   2205   2207     1
   2205   2208     1
   2207   2209     1
   2212   2219     1
   2212   2220     1
   2213   2218     1
   2213   2216     1
   2213   2217     1
   2214   2218     1
   2214   2216     1
   2214   2217     1
   2215   2243     1
   2216   2221     1
   2216   2219     1
   2216   2220     1
   2216   2242     1
   2217   2221     1
   2217   2219     1
   2217   2220     1
   2217   2242     1
   2218   2223     1
   2218   2224     1
   2218   2233     1
   2218   2234     1
   2219   2222     1
   2219   2232     1
   2219   2243     1
   2220   2222     1
   2220   2232     1
   2220   2243     1
   2221   2226     1
   2221   2227     1
   2221   2236     1
   2221   2237     1
   2222   2233     1
   2222   2234     1
   2223   2228     1
   2223   2226     1
   2223   2227     1
   2223   2232     1
   2223   2243     1
   2224   2228     1
   2224   2226     1
   2224   2227     1
   2224   2232     1
   2224   2243     1
   2225   2231     1
   2225   2243     1
   2226   2229     1
   2226   2230     1
   2227   2229     1
   2227   2230     1
   2229   2231     1
   2233   2238     1
   2233   2236     1
   2233   2237     1
   2233   2243     1
   2234   2238     1
   2234   2236     1
   2234   2237     1
   2234   2243     1
   2235   2241     1
   2235   2243     1
   2236   2239     1
   2236   2240     1
   2237   2239     1
   2237   2240     1
   2239   2241     1
   2244   2251     1
   2244   2252     1
   2245   2250     1
   2245   2248     1
   2245   2249     1
   2246   2250     1
   2246   2248     1
   2246   2249     1
   2247   2275     1
   2248   2274     1
   2248   2253     1
   2248   2251     1
   2248   2252     1
   2249   2274     1
   2249   2253     1
   2249   2251     1
   2249   2252     1
   2250   2255     1
   2250   2256     1
   2250   2265     1
   2250   2266     1
   2251   2254     1
   2251   2264     1
   2251   2275     1
   2252   2254     1
   2252   2264     1
   2252   2275     1
   2253   2258     1
   2253   2259     1
   2253   2268     1
   2253   2269     1
   2254   2265     1
   2254   2266     1
   2255   2264     1
   2255   2275     1
   2255   2260     1
   2255   2258     1
   2255   2259     1
   2256   2264     1
   2256   2275     1
   2256   2260     1
   2256   2258     1
   2256   2259     1
   2257   2275     1
   2257   2263     1
   2258   2261     1
   2258   2262     1
   2259   2261     1
   2259   2262     1
   2261   2263     1
   2265   2275     1
   2265   2270     1
   2265   2268     1
   2265   2269     1
   2266   2275     1
   2266   2270     1
   2266   2268     1
   2266   2269     1
   2267   2275     1
   2267   2273     1
   2268   2271     1
   2268   2272     1
   2269   2271     1
   2269   2272     1
   2271   2273     1
   2276   2283     1
   2276   2284     1
   2277   2282     1
   2277   2280     1
   2277   2281     1
   2278   2282     1
   2278   2280     1
   2278   2281     1
   2279   2307     1
   2280   2285     1
   2280   2283     1
   2280   2284     1
   2280   2306     1
   2281   2285     1
   2281   2283     1
   2281   2284     1
   2281   2306     1
   2282   2287     1
   2282   2288     1
   2282   2297     1
   2282   2298     1
   2283   2286     1
   2283   2296     1
   2283   2307     1
   2284   2286     1
   2284   2296     1
   2284   2307     1
   2285   2290     1
   2285   2291     1
   2285   2300     1
   2285   2301     1
   2286   2297     1
   2286   2298     1
   2287   2292     1
   2287   2290     1
   2287   2291     1
   2287   2296     1
   2287   2307     1
   2288   2292     1
   2288   2290     1
   2288   2291     1
   2288   2296     1
   2288   2307     1
   2289   2295     1
   2289   2307     1
   2290   2293     1
   2290   2294     1
   2291   2293     1
   2291   2294     1
   2293   2295     1
   2297   2302     1
   2297   2300     1
   2297   2301     1
   2297   2307     1
   2298   2302     1
   2298   2300     1
   2298   2301     1
   2298   2307     1
   2299   2305     1
   2299   2307     1
   2300   2303     1
   2300   2304     1
   2301   2303     1
   2301   2304     1
   2303   2305     1
   2308   2315     1
   2308   2316     1
   2309   2314     1
   2309   2312     1
   2309   2313     1
   2310   2314     1
   2310   2312     1
   2310   2313     1
   2311   2339     1
   2312   2338     1
   2312   2317     1
   2312   2315     1
   2312   2316     1
   2313   2338     1
   2313   2317     1
   2313   2315     1
   2313   2316     1
   2314   2319     1
   2314   2320     1
   2314   2329     1
   2314   2330     1
   2315   2318     1
   2315   2328     1
   2315   2339     1
   2316   2318     1
   2316   2328     1
   2316   2339     1
   2317   2322     1
   2317   2323     1
   2317   2332     1
   2317   2333     1
   2318   2329     1
   2318   2330     1
   2319   2328     1
   2319   2339     1
   2319   2324     1
   2319   2322     1
   2319   2323     1
   2320   2328     1
   2320   2339     1
   2320   2324     1
   2320   2322     1
   2320   2323     1
   2321   2339     1
   2321   2327     1
   2322   2325     1
   2322   2326     1
   2323   2325     1
   2323   2326     1
   2325   2327     1
   2329   2339     1
   2329   2334     1
   2329   2332     1
   2329   2333     1
   2330   2339     1
   2330   2334     1
   2330   2332     1
   2330   2333     1
   2331   2339     1
   2331   2337     1
   2332   2335     1
   2332   2336     1
   2333   2335     1
   2333   2336     1
   2335   2337     1
   2340   2347     1
   2340   2348     1
   2341   2346     1
   2341   2344     1
   2341   2345     1
   2342   2346     1
   2342   2344     1
   2342   2345     1
   2343   2371     1
   2344   2349     1
   2344   2347     1
   2344   2348     1
   2344   2370     1
   2345   2349     1
   2345   2347     1
   2345   2348     1
   2345   2370     1
   2346   2351     1
   2346   2352     1
   2346   2361     1
   2346   2362     1
   2347   2350     1
   2347   2360     1
   2347   2371     1
   2348   2350     1
   2348   2360     1
   2348   2371     1
   2349   2354     1
   2349   2355     1
   2349   2364     1
   2349   2365     1
   2350   2361     1
   2350   2362     1
   2351   2356     1
   2351   2354     1
   2351   2355     1
   2351   2360     1
   2351   2371     1
   2352   2356     1
   2352   2354     1
   2352   2355     1
   2352   2360     1
   2352   2371     1
   2353   2359     1
   2353   2371     1
   2354   2357     1
   2354   2358     1
   2355   2357     1
   2355   2358     1
   2357   2359     1
   2361   2366     1
   2361   2364     1
   2361   2365     1
   2361   2371     1
   2362   2366     1
   2362   2364     1
   2362   2365     1
   2362   2371     1
   2363   2369     1
   2363   2371     1
   2364   2367     1
   2364   2368     1
   2365   2367     1
   2365   2368     1
   2367   2369     1
   2372   2379     1
   2372   2380     1
   2373   2378     1
   2373   2376     1
   2373   2377     1
   2374   2378     1
   2374   2376     1
   2374   2377     1
   2375   2403     1
   2376   2402     1
   2376   2381     1
   2376   2379     1
   2376   2380     1
   2377   2402     1
   2377   2381     1
   2377   2379     1
   2377   2380     1
   2378   2383     1
   2378   2384     1
   2378   2393     1
   2378   2394     1
   2379   2382     1
   2379   2392     1
   2379   2403     1
   2380   2382     1
   2380   2392     1
   2380   2403     1
   2381   2386     1
   2381   2387     1
   2381   2396     1
   2381   2397     1
   2382   2393     1
   2382   2394     1
   2383   2392     1
   2383   2403     1
   2383   2388     1
   2383   2386     1
   2383   2387     1
   2384   2392     1
   2384   2403     1
   2384   2388     1
   2384   2386     1
   2384   2387     1
   2385   2403     1
   2385   2391     1
   2386   2389     1
   2386   2390     1
   2387   2389     1
   2387   2390     1
   2389   2391     1
   2393   2403     1
   2393   2398     1
   2393   2396     1
   2393   2397     1
   2394   2403     1
   2394   2398     1
   2394   2396     1
   2394   2397     1
   2395   2403     1
   2395   2401     1
   2396   2399     1
   2396   2400     1
   2397   2399     1
   2397   2400     1
   2399   2401     1
   2404   2411     1
   2404   2412     1
   2405   2410     1
   2405   2408     1
   2405   2409     1
   2406   2410     1
   2406   2408     1
   2406   2409     1
   2407   2435     1
   2408   2413     1
   2408   2411     1
   2408   2412     1
   2408   2434     1
   2409   2413     1
   2409   2411     1
   2409   2412     1
   2409   2434     1
   2410   2415     1
   2410   2416     1
   2410   2425     1
   2410   2426     1
   2411   2414     1
   2411   2424     1
   2411   2435     1
   2412   2414     1
   2412   2424     1
   2412   2435     1
   2413   2418     1
   2413   2419     1
   2413   2428     1
   2413   2429     1
   2414   2425     1
   2414   2426     1
   2415   2420     1
   2415   2418     1
   2415   2419     1
   2415   2424     1
   2415   2435     1
   2416   2420     1
   2416   2418     1
   2416   2419     1
   2416   2424     1
   2416   2435     1
   2417   2423     1
   2417   2435     1
   2418   2421     1
   2418   2422     1
   2419   2421     1
   2419   2422     1
   2421   2423     1
   2425   2430     1
   2425   2428     1
   2425   2429     1
   2425   2435     1
   2426   2430     1
   2426   2428     1
   2426   2429     1
   2426   2435     1
   2427   2433     1
   2427   2435     1
   2428   2431     1
   2428   2432     1
   2429   2431     1
   2429   2432     1
   2431   2433     1
   2436   2443     1
   2436   2444     1
   2437   2442     1
   2437   2440     1
   2437   2441     1
   2438   2442     1
   2438   2440     1
   2438   2441     1
   2439   2467     1
   2440   2466     1
   2440   2445     1
   2440   2443     1
   2440   2444     1
   2441   2466     1
   2441   2445     1
   2441   2443     1
   2441   2444     1
   2442   2447     1
   2442   2448     1
   2442   2457     1
   2442   2458     1
   2443   2446     1
   2443   2456     1
   2443   2467     1
   2444   2446     1
   2444   2456     1
   2444   2467     1
   2445   2450     1
   2445   2451     1
   2445   2460     1
   2445   2461     1
   2446   2457     1
   2446   2458     1
   2447   2456     1
   2447   2467     1
   2447   2452     1
   2447   2450     1
   2447   2451     1
   2448   2456     1
   2448   2467     1
   2448   2452     1
   2448   2450     1
   2448   2451     1
   2449   2467     1
   2449   2455     1
   2450   2453     1
   2450   2454     1
   2451   2453     1
   2451   2454     1
   2453   2455     1
   2457   2467     1
   2457   2462     1
   2457   2460     1
   2457   2461     1
   2458   2467     1
   2458   2462     1
   2458   2460     1
   2458   2461     1
   2459   2467     1
   2459   2465     1
   2460   2463     1
   2460   2464     1
   2461   2463     1
   2461   2464     1
   2463   2465     1
   2468   2475     1
   2468   2476     1
   2469   2474     1
   2469   2472     1
   2469   2473     1
   2470   2474     1
   2470   2472     1
   2470   2473     1
   2471   2499     1
   2472   2477     1
   2472   2475     1
   2472   2476     1
   2472   2498     1
   2473   2477     1
   2473   2475     1
   2473   2476     1
   2473   2498     1
   2474   2479     1
   2474   2480     1
   2474   2489     1
   2474   2490     1
   2475   2478     1
   2475   2488     1
   2475   2499     1
   2476   2478     1
   2476   2488     1
   2476   2499     1
   2477   2482     1
   2477   2483     1
   2477   2492     1
   2477   2493     1
   2478   2489     1
   2478   2490     1
   2479   2484     1
   2479   2482     1
   2479   2483     1
   2479   2488     1
   2479   2499     1
   2480   2484     1
   2480   2482     1
   2480   2483     1
   2480   2488     1
   2480   2499     1
   2481   2487     1
   2481   2499     1
   2482   2485     1
   2482   2486     1
   2483   2485     1
   2483   2486     1
   2485   2487     1
   2489   2494     1
   2489   2492     1
   2489   2493     1
   2489   2499     1
   2490   2494     1
   2490   2492     1
   2490   2493     1
   2490   2499     1
   2491   2497     1
   2491   2499     1
   2492   2495     1
   2492   2496     1
   2493   2495     1
   2493   2496     1
   2495   2497     1
   2500   2507     1
   2500   2508     1
   2501   2506     1
   2501   2504     1
   2501   2505     1
   2502   2506     1
   2502   2504     1
   2502   2505     1
   2503   2531     1
   2504   2530     1
   2504   2509     1
   2504   2507     1
   2504   2508     1
   2505   2530     1
   2505   2509     1
   2505   2507     1
   2505   2508     1
   2506   2511     1
   2506   2512     1
   2506   2521     1
   2506   2522     1
   2507   2510     1
   2507   2520     1
   2507   2531     1
   2508   2510     1
   2508   2520     1
   2508   2531     1
   2509   2514     1
   2509   2515     1
   2509   2524     1
   2509   2525     1
   2510   2521     1
   2510   2522     1
   2511   2520     1
   2511   2531     1
   2511   2516     1
   2511   2514     1
   2511   2515     1
   2512   2520     1
   2512   2531     1
   2512   2516     1
   2512   2514     1
   2512   2515     1
   2513   2531     1
   2513   2519     1
   2514   2517     1
   2514   2518     1
   2515   2517     1
   2515   2518     1
   2517   2519     1
   2521   2531     1
   2521   2526     1
   2521   2524     1
   2521   2525     1
   2522   2531     1
   2522   2526     1
   2522   2524     1
   2522   2525     1
   2523   2531     1
   2523   2529     1
   2524   2527     1
   2524   2528     1
   2525   2527     1
   2525   2528     1
   2527   2529     1
   2532   2539     1
   2532   2540     1
   2533   2538     1
   2533   2536     1
   2533   2537     1
   2534   2538     1
   2534   2536     1
   2534   2537     1
   2535   2563     1
   2536   2541     1
   2536   2539     1
   2536   2540     1
   2536   2562     1
   2537   2541     1
   2537   2539     1
   2537   2540     1
   2537   2562     1
   2538   2543     1
   2538   2544     1
   2538   2553     1
   2538   2554     1
   2539   2542     1
   2539   2552     1
   2539   2563     1
   2540   2542     1
   2540   2552     1
   2540   2563     1
   2541   2546     1
   2541   2547     1
   2541   2556     1
   2541   2557     1
   2542   2553     1
   2542   2554     1
   2543   2548     1
   2543   2546     1
   2543   2547     1
   2543   2552     1
   2543   2563     1
   2544   2548     1
   2544   2546     1
   2544   2547     1
   2544   2552     1
   2544   2563     1
   2545   2551     1
   2545   2563     1
   2546   2549     1
   2546   2550     1
   2547   2549     1
   2547   2550     1
   2549   2551     1
   2553   2558     1
   2553   2556     1
   2553   2557     1
   2553   2563     1
   2554   2558     1
   2554   2556     1
   2554   2557     1
   2554   2563     1
   2555   2561     1
   2555   2563     1
   2556   2559     1
   2556   2560     1
   2557   2559     1
   2557   2560     1
   2559   2561     1
   2564   2571     1
   2564   2572     1
   2565   2570     1
   2565   2568     1
   2565   2569     1
   2566   2570     1
   2566   2568     1
   2566   2569     1
   2567   2595     1
   2568   2594     1
   2568   2573     1
   2568   2571     1
   2568   2572     1
   2569   2594     1
   2569   2573     1
   2569   2571     1
   2569   2572     1
   2570   2575     1
   2570   2576     1
   2570   2585     1
   2570   2586     1
   2571   2574     1
   2571   2584     1
   2571   2595     1
   2572   2574     1
   2572   2584     1
   2572   2595     1
   2573   2578     1
   2573   2579     1
   2573   2588     1
   2573   2589     1
   2574   2585     1
   2574   2586     1
   2575   2584     1
   2575   2595     1
   2575   2580     1
   2575   2578     1
   2575   2579     1
   2576   2584     1
   2576   2595     1
   2576   2580     1
   2576   2578     1
   2576   2579     1
   2577   2595     1
   2577   2583     1
   2578   2581     1
   2578   2582     1
   2579   2581     1
   2579   2582     1
   2581   2583     1
   2585   2595     1
   2585   2590     1
   2585   2588     1
   2585   2589     1
   2586   2595     1
   2586   2590     1
   2586   2588     1
   2586   2589     1
   2587   2595     1
   2587   2593     1
   2588   2591     1
   2588   2592     1
   2589   2591     1
   2589   2592     1
   2591   2593     1
   2596   2603     1
   2596   2604     1
   2597   2602     1
   2597   2600     1
   2597   2601     1
   2598   2602     1
   2598   2600     1
   2598   2601     1
   2599   2627     1
   2600   2605     1
   2600   2603     1
   2600   2604     1
   2600   2626     1
   2601   2605     1
   2601   2603     1
   2601   2604     1
   2601   2626     1
   2602   2607     1
   2602   2608     1
   2602   2617     1
   2602   2618     1
   2603   2606     1
   2603   2616     1
   2603   2627     1
   2604   2606     1
   2604   2616     1
   2604   2627     1
   2605   2610     1
   2605   2611     1
   2605   2620     1
   2605   2621     1
   2606   2617     1
   2606   2618     1
   2607   2612     1
   2607   2610     1
   2607   2611     1
   2607   2616     1
   2607   2627     1
   2608   2612     1
   2608   2610     1
   2608   2611     1
   2608   2616     1
   2608   2627     1
   2609   2615     1
   2609   2627     1
   2610   2613     1
   2610   2614     1
   2611   2613     1
   2611   2614     1
   2613   2615     1
   2617   2622     1
   2617   2620     1
   2617   2621     1
   2617   2627     1
   2618   2622     1
   2618   2620     1
   2618   2621     1
   2618   2627     1
   2619   2625     1
   2619   2627     1
   2620   2623     1
   2620   2624     1
   2621   2623     1
   2621   2624     1
   2623   2625     1
   2628   2635     1
   2628   2636     1
   2629   2634     1
   2629   2632     1
   2629   2633     1
   2630   2634     1
   2630   2632     1
   2630   2633     1
   2631   2659     1
   2632   2658     1
   2632   2637     1
   2632   2635     1
   2632   2636     1
   2633   2658     1
   2633   2637     1
   2633   2635     1
   2633   2636     1
   2634   2639     1
   2634   2640     1
   2634   2649     1
   2634   2650     1
   2635   2638     1
   2635   2648     1
   2635   2659     1
   2636   2638     1
   2636   2648     1
   2636   2659     1
   2637   2642     1
   2637   2643     1
   2637   2652     1
   2637   2653     1
   2638   2649     1
   2638   2650     1
   2639   2648     1
   2639   2659     1
   2639   2644     1
   2639   2642     1
   2639   2643     1
   2640   2648     1
   2640   2659     1
   2640   2644     1
   2640   2642     1
   2640   2643     1
   2641   2659     1
   2641   2647     1
   2642   2645     1
   2642   2646     1
   2643   2645     1
   2643   2646     1
   2645   2647     1
   2649   2659     1
   2649   2654     1
   2649   2652     1
   2649   2653     1
   2650   2659     1
   2650   2654     1
   2650   2652     1
   2650   2653     1
   2651   2659     1
   2651   2657     1
   2652   2655     1
   2652   2656     1
   2653   2655     1
   2653   2656     1
   2655   2657     1
   2660   2667     1
   2660   2668     1
   2661   2666     1
   2661   2664     1
   2661   2665     1
   2662   2666     1
   2662   2664     1
   2662   2665     1
   2663   2691     1
   2664   2669     1
   2664   2667     1
   2664   2668     1
   2664   2690     1
   2665   2669     1
   2665   2667     1
   2665   2668     1
   2665   2690     1
   2666   2671     1
   2666   2672     1
   2666   2681     1
   2666   2682     1
   2667   2670     1
   2667   2680     1
   2667   2691     1
   2668   2670     1
   2668   2680     1
   2668   2691     1
   2669   2674     1
   2669   2675     1
   2669   2684     1
   2669   2685     1
   2670   2681     1
   2670   2682     1
   2671   2676     1
   2671   2674     1
   2671   2675     1
   2671   2680     1
   2671   2691     1
   2672   2676     1
   2672   2674     1
   2672   2675     1
   2672   2680     1
   2672   2691     1
   2673   2679     1
   2673   2691     1
   2674   2677     1
   2674   2678     1
   2675   2677     1
   2675   2678     1
   2677   2679     1
   2681   2686     1
   2681   2684     1
   2681   2685     1
   2681   2691     1
   2682   2686     1
   2682   2684     1
   2682   2685     1
   2682   2691     1
   2683   2689     1
   2683   2691     1
   2684   2687     1
   2684   2688     1
   2685   2687     1
   2685   2688     1
   2687   2689     1
   2692   2699     1
   2692   2700     1
   2693   2698     1
   2693   2696     1
   2693   2697     1
   2694   2698     1
   2694   2696     1
   2694   2697     1
   2695   2723     1
   2696   2722     1
   2696   2701     1
   2696   2699     1
   2696   2700     1
   2697   2722     1
   2697   2701     1
   2697   2699     1
   2697   2700     1
   2698   2703     1
   2698   2704     1
   2698   2713     1
   2698   2714     1
   2699   2702     1
   2699   2712     1
   2699   2723     1
   2700   2702     1
   2700   2712     1
   2700   2723     1
   2701   2706     1
   2701   2707     1
   2701   2716     1
   2701   2717     1
   2702   2713     1
   2702   2714     1
   2703   2712     1
   2703   2723     1
   2703   2708     1
   2703   2706     1
   2703   2707     1
   2704   2712     1
   2704   2723     1
   2704   2708     1
   2704   2706     1
   2704   2707     1
   2705   2723     1
   2705   2711     1
   2706   2709     1
   2706   2710     1
   2707   2709     1
   2707   2710     1
   2709   2711     1
   2713   2723     1
   2713   2718     1
   2713   2716     1
   2713   2717     1
   2714   2723     1
   2714   2718     1
   2714   2716     1
   2714   2717     1
   2715   2723     1
   2715   2721     1
   2716   2719     1
   2716   2720     1
   2717   2719     1
   2717   2720     1
   2719   2721     1
   2724   2731     1
   2724   2732     1
   2725   2730     1
   2725   2728     1
   2725   2729     1
   2726   2730     1
   2726   2728     1
   2726   2729     1
   2727   2755     1
   2728   2733     1
   2728   2731     1
   2728   2732     1
   2728   2754     1
   2729   2733     1
   2729   2731     1
   2729   2732     1
   2729   2754     1
   2730   2735     1
   2730   2736     1
   2730   2745     1
   2730   2746     1
   2731   2734     1
   2731   2744     1
   2731   2755     1
   2732   2734     1
   2732   2744     1
   2732   2755     1
   2733   2738     1
   2733   2739     1
   2733   2748     1
   2733   2749     1
   2734   2745     1
   2734   2746     1
   2735   2740     1
   2735   2738     1
   2735   2739     1
   2735   2744     1
   2735   2755     1
   2736   2740     1
   2736   2738     1
   2736   2739     1
   2736   2744     1
   2736   2755     1
   2737   2743     1
   2737   2755     1
   2738   2741     1
   2738   2742     1
   2739   2741     1
   2739   2742     1
   2741   2743     1
   2745   2750     1
   2745   2748     1
   2745   2749     1
   2745   2755     1
   2746   2750     1
   2746   2748     1
   2746   2749     1
   2746   2755     1
   2747   2753     1
   2747   2755     1
   2748   2751     1
   2748   2752     1
   2749   2751     1
   2749   2752     1
   2751   2753     1
   2756   2763     1
   2756   2764     1
   2757   2762     1
   2757   2760     1
   2757   2761     1
   2758   2762     1
   2758   2760     1
   2758   2761     1
   2759   2787     1
   2760   2786     1
   2760   2765     1
   2760   2763     1
   2760   2764     1
   2761   2786     1
   2761   2765     1
   2761   2763     1
   2761   2764     1
   2762   2767     1
   2762   2768     1
   2762   2777     1
   2762   2778     1
   2763   2766     1
   2763   2776     1
   2763   2787     1
   2764   2766     1
   2764   2776     1
   2764   2787     1
   2765   2770     1
   2765   2771     1
   2765   2780     1
   2765   2781     1
   2766   2777     1
   2766   2778     1
   2767   2776     1
   2767   2787     1
   2767   2772     1
   2767   2770     1
   2767   2771     1
   2768   2776     1
   2768   2787     1
   2768   2772     1
   2768   2770     1
   2768   2771     1
   2769   2787     1
   2769   2775     1
   2770   2773     1
   2770   2774     1
   2771   2773     1
   2771   2774     1
   2773   2775     1
   2777   2787     1
   2777   2782     1
   2777   2780     1
   2777   2781     1
   2778   2787     1
   2778   2782     1
   2778   2780     1
   2778   2781     1
   2779   2787     1
   2779   2785     1
   2780   2783     1
   2780   2784     1
   2781   2783     1
   2781   2784     1
   2783   2785     1
   2788   2795     1
   2788   2796     1
   2789   2794     1
   2789   2792     1
   2789   2793     1
   2790   2794     1
   2790   2792     1
   2790   2793     1
   2791   2819     1
   2792   2797     1
   2792   2795     1
   2792   2796     1
   2792   2818     1
   2793   2797     1
   2793   2795     1
   2793   2796     1
   2793   2818     1
   2794   2799     1
   2794   2800     1
   2794   2809     1
   2794   2810     1
   2795   2798     1
   2795   2808     1
   2795   2819     1
   2796   2798     1
   2796   2808     1
   2796   2819     1
   2797   2802     1
   2797   2803     1
   2797   2812     1
   2797   2813     1
   2798   2809     1
   2798   2810     1
   2799   2804     1
   2799   2802     1
   2799   2803     1
   2799   2808     1
   2799   2819     1
   2800   2804     1
   2800   2802     1
   2800   2803     1
   2800   2808     1
   2800   2819     1
   2801   2807     1
   2801   2819     1
   2802   2805     1
   2802   2806     1
   2803   2805     1
   2803   2806     1
   2805   2807     1
   2809   2814     1
   2809   2812     1
   2809   2813     1
   2809   2819     1
   2810   2814     1
   2810   2812     1
   2810   2813     1
   2810   2819     1
   2811   2817     1
   2811   2819     1
   2812   2815     1
   2812   2816     1
   2813   2815     1
   2813   2816     1
   2815   2817     1
   2820   2827     1
   2820   2828     1
   2821   2826     1
   2821   2824     1
   2821   2825     1
   2822   2826     1
   2822   2824     1
   2822   2825     1
   2823   2851     1
   2824   2850     1
   2824   2829     1
   2824   2827     1
   2824   2828     1
   2825   2850     1
   2825   2829     1
   2825   2827     1
   2825   2828     1
   2826   2831     1
   2826   2832     1
   2826   2841     1
   2826   2842     1
   2827   2830     1
   2827   2840     1
   2827   2851     1
   2828   2830     1
   2828   2840     1
   2828   2851     1
   2829   2834     1
   2829   2835     1
   2829   2844     1
   2829   2845     1
   2830   2841     1
   2830   2842     1
   2831   2840     1
   2831   2851     1
   2831   2836     1
   2831   2834     1
   2831   2835     1
   2832   2840     1
   2832   2851     1
   2832   2836     1
   2832   2834     1
   2832   2835     1
   2833   2851     1
   2833   2839     1
   2834   2837     1
   2834   2838     1
   2835   2837     1
   2835   2838     1
   2837   2839     1
   2841   2851     1
   2841   2846     1
   2841   2844     1
   2841   2845     1
   2842   2851     1
   2842   2846     1
   2842   2844     1
   2842   2845     1
   2843   2851     1
   2843   2849     1
   2844   2847     1
   2844   2848     1
   2845   2847     1
   2845   2848     1
   2847   2849     1
   2852   2859     1
   2852   2860     1
   2853   2858     1
   2853   2856     1
   2853   2857     1
   2854   2858     1
   2854   2856     1
   2854   2857     1
   2855   2883     1
   2856   2861     1
   2856   2859     1
   2856   2860     1
   2856   2882     1
   2857   2861     1
   2857   2859     1
   2857   2860     1
   2857   2882     1
   2858   2863     1
   2858   2864     1
   2858   2873     1
   2858   2874     1
   2859   2862     1
   2859   2872     1
   2859   2883     1
   2860   2862     1
   2860   2872     1
   2860   2883     1
   2861   2866     1
   2861   2867     1
   2861   2876     1
   2861   2877     1
   2862   2873     1
   2862   2874     1
   2863   2868     1
   2863   2866     1
   2863   2867     1
   2863   2872     1
   2863   2883     1
   2864   2868     1
   2864   2866     1
   2864   2867     1
   2864   2872     1
   2864   2883     1
   2865   2871     1
   2865   2883     1
   2866   2869     1
   2866   2870     1
   2867   2869     1
   2867   2870     1
   2869   2871     1
   2873   2878     1
   2873   2876     1
   2873   2877     1
   2873   2883     1
   2874   2878     1
   2874   2876     1
   2874   2877     1
   2874   2883     1
   2875   2881     1
   2875   2883     1
   2876   2879     1
   2876   2880     1
   2877   2879     1
   2877   2880     1
   2879   2881     1
   2884   2891     1
   2884   2892     1
   2885   2890     1
   2885   2888     1
   2885   2889     1
   2886   2890     1
   2886   2888     1
   2886   2889     1
   2887   2915     1
   2888   2914     1
   2888   2893     1
   2888   2891     1
   2888   2892     1
   2889   2914     1
   2889   2893     1
   2889   2891     1
   2889   2892     1
   2890   2895     1
   2890   2896     1
   2890   2905     1
   2890   2906     1
   2891   2894     1
   2891   2904     1
   2891   2915     1
   2892   2894     1
   2892   2904     1
   2892   2915     1
   2893   2898     1
   2893   2899     1
   2893   2908     1
   2893   2909     1
   2894   2905     1
   2894   2906     1
   2895   2904     1
   2895   2915     1
   2895   2900     1
   2895   2898     1
   2895   2899     1
   2896   2904     1
   2896   2915     1
   2896   2900     1
   2896   2898     1
   2896   2899     1
   2897   2915     1
   2897   2903     1
   2898   2901     1
   2898   2902     1
   2899   2901     1
   2899   2902     1
   2901   2903     1
   2905   2915     1
   2905   2910     1
   2905   2908     1
   2905   2909     1
   2906   2915     1
   2906   2910     1
   2906   2908     1
   2906   2909     1
   2907   2915     1
   2907   2913     1
   2908   2911     1
   2908   2912     1
   2909   2911     1
   2909   2912     1
   2911   2913     1
   2916   2923     1
   2916   2924     1
   2917   2922     1
   2917   2920     1
   2917   2921     1
   2918   2922     1
   2918   2920     1
   2918   2921     1
   2919   2947     1
   2920   2925     1
   2920   2923     1
   2920   2924     1
   2920   2946     1
   2921   2925     1
   2921   2923     1
   2921   2924     1
   2921   2946     1
   2922   2927     1
   2922   2928     1
   2922   2937     1
   2922   2938     1
   2923   2926     1
   2923   2936     1
   2923   2947     1
   2924   2926     1
   2924   2936     1
   2924   2947     1
   2925   2930     1
   2925   2931     1
   2925   2940     1
   2925   2941     1
   2926   2937     1
   2926   2938     1
   2927   2932     1
   2927   2930     1
   2927   2931     1
   2927   2936     1
   2927   2947     1
   2928   2932     1
   2928   2930     1
   2928   2931     1
   2928   2936     1
   2928   2947     1
   2929   2935     1
   2929   2947     1
   2930   2933     1
   2930   2934     1
   2931   2933     1
   2931   2934     1
   2933   2935     1
   2937   2942     1
   2937   2940     1
   2937   2941     1
   2937   2947     1
   2938   2942     1
   2938   2940     1
   2938   2941     1
   2938   2947     1
   2939   2945     1
   2939   2947     1
   2940   2943     1
   2940   2944     1
   2941   2943     1
   2941   2944     1
   2943   2945     1
   2948   2955     1
   2948   2956     1
   2949   2954     1
   2949   2952     1
   2949   2953     1
   2950   2954     1
   2950   2952     1
   2950   2953     1
   2951   2979     1
   2952   2978     1
   2952   2957     1
   2952   2955     1
   2952   2956     1
   2953   2978     1
   2953   2957     1
   2953   2955     1
   2953   2956     1
   2954   2959     1
   2954   2960     1
   2954   2969     1
   2954   2970     1
   2955   2958     1
   2955   2968     1
   2955   2979     1
   2956   2958     1
   2956   2968     1
   2956   2979     1
   2957   2962     1
   2957   2963     1
   2957   2972     1
   2957   2973     1
   2958   2969     1
   2958   2970     1
   2959   2968     1
   2959   2979     1
   2959   2964     1
   2959   2962     1
   2959   2963     1
   2960   2968     1
   2960   2979     1
   2960   2964     1
   2960   2962     1
   2960   2963     1
   2961   2979     1
   2961   2967     1
   2962   2965     1
   2962   2966     1
   2963   2965     1
   2963   2966     1
   2965   2967     1
   2969   2979     1
   2969   2974     1
   2969   2972     1
   2969   2973     1
   2970   2979     1
   2970   2974     1
   2970   2972     1
   2970   2973     1
   2971   2979     1
   2971   2977     1
   2972   2975     1
   2972   2976     1
   2973   2975     1
   2973   2976     1
   2975   2977     1
   2980   2987     1
   2980   2988     1
   2981   2986     1
   2981   2984     1
   2981   2985     1
   2982   2986     1
   2982   2984     1
   2982   2985     1
   2983   3011     1
   2984   2989     1
   2984   2987     1
   2984   2988     1
   2984   3010     1
   2985   2989     1
   2985   2987     1
   2985   2988     1
   2985   3010     1
   2986   2991     1
   2986   2992     1
   2986   3001     1
   2986   3002     1
   2987   2990     1
   2987   3000     1
   2987   3011     1
   2988   2990     1
   2988   3000     1
   2988   3011     1
   2989   2994     1
   2989   2995     1
   2989   3004     1
   2989   3005     1
   2990   3001     1
   2990   3002     1
   2991   2996     1
   2991   2994     1
   2991   2995     1
   2991   3000     1
   2991   3011     1
   2992   2996     1
   2992   2994     1
   2992   2995     1
   2992   3000     1
   2992   3011     1
   2993   2999     1
   2993   3011     1
   2994   2997     1
   2994   2998     1
   2995   2997     1
   2995   2998     1
   2997   2999     1
   3001   3006     1
   3001   3004     1
   3001   3005     1
   3001   3011     1
   3002   3006     1
   3002   3004     1
   3002   3005     1
   3002   3011     1
   3003   3009     1
   3003   3011     1
   3004   3007     1
   3004   3008     1
   3005   3007     1
   3005   3008     1
   3007   3009     1
   3012   3019     1
   3012   3020     1
   3013   3018     1
   3013   3016     1
   3013   3017     1
   3014   3018     1
   3014   3016     1
   3014   3017     1
   3015   3043     1
   3016   3042     1
   3016   3021     1
   3016   3019     1
   3016   3020     1
   3017   3042     1
   3017   3021     1
   3017   3019     1
   3017   3020     1
   3018   3023     1
   3018   3024     1
   3018   3033     1
   3018   3034     1
   3019   3022     1
   3019   3032     1
   3019   3043     1
   3020   3022     1
   3020   3032     1
   3020   3043     1
   3021   3026     1
   3021   3027     1
   3021   3036     1
   3021   3037     1
   3022   3033     1
   3022   3034     1
   3023   3032     1
   3023   3043     1
   3023   3028     1
   3023   3026     1
   3023   3027     1
   3024   3032     1
   3024   3043     1
   3024   3028     1
   3024   3026     1
   3024   3027     1
   3025   3043     1
   3025   3031     1
   3026   3029     1
   3026   3030     1
   3027   3029     1
   3027   3030     1
   3029   3031     1
   3033   3043     1
   3033   3038     1
   3033   3036     1
   3033   3037     1
   3034   3043     1
   3034   3038     1
   3034   3036     1
   3034   3037     1
   3035   3043     1
   3035   3041     1
   3036   3039     1
   3036   3040     1
   3037   3039     1
   3037   3040     1
   3039   3041     1
   3044   3051     1
   3044   3052     1
   3045   3050     1
   3045   3048     1
   3045   3049     1
   3046   3050     1
   3046   3048     1
   3046   3049     1
   3047   3075     1
   3048   3053     1
   3048   3051     1
   3048   3052     1
   3048   3074     1
   3049   3053     1
   3049   3051     1
   3049   3052     1
   3049   3074     1
   3050   3055     1
   3050   3056     1
   3050   3065     1
   3050   3066     1
   3051   3054     1
   3051   3064     1
   3051   3075     1
   3052   3054     1
   3052   3064     1
   3052   3075     1
   3053   3058     1
   3053   3059     1
   3053   3068     1
   3053   3069     1
   3054   3065     1
   3054   3066     1
   3055   3060     1
   3055   3058     1
   3055   3059     1
   3055   3064     1
   3055   3075     1
   3056   3060     1
   3056   3058     1
   3056   3059     1
   3056   3064     1
   3056   3075     1
   3057   3063     1
   3057   3075     1
   3058   3061     1
   3058   3062     1
   3059   3061     1
   3059   3062     1
   3061   3063     1
   3065   3070     1
   3065   3068     1
   3065   3069     1
   3065   3075     1
   3066   3070     1
   3066   3068     1
   3066   3069     1
   3066   3075     1
   3067   3073     1
   3067   3075     1
   3068   3071     1
   3068   3072     1
   3069   3071     1
   3069   3072     1
   3071   3073     1
   3076   3083     1
   3076   3084     1
   3077   3082     1
   3077   3080     1
   3077   3081     1
   3078   3082     1
   3078   3080     1
   3078   3081     1
   3079   3107     1
   3080   3106     1
   3080   3085     1
   3080   3083     1
   3080   3084     1
   3081   3106     1
   3081   3085     1
   3081   3083     1
   3081   3084     1
   3082   3087     1
   3082   3088     1
   3082   3097     1
   3082   3098     1
   3083   3086     1
   3083   3096     1
   3083   3107     1
   3084   3086     1
   3084   3096     1
   3084   3107     1
   3085   3090     1
   3085   3091     1
   3085   3100     1
   3085   3101     1
   3086   3097     1
   3086   3098     1
   3087   3096     1
   3087   3107     1
   3087   3092     1
   3087   3090     1
   3087   3091     1
   3088   3096     1
   3088   3107     1
   3088   3092     1
   3088   3090     1
   3088   3091     1
   3089   3107     1
   3089   3095     1
   3090   3093     1
   3090   3094     1
   3091   3093     1
   3091   3094     1
   3093   3095     1
   3097   3107     1
   3097   3102     1
   3097   3100     1
   3097   3101     1
   3098   3107     1
   3098   3102     1
   3098   3100     1
   3098   3101     1
   3099   3107     1
   3099   3105     1
   3100   3103     1
   3100   3104     1
   3101   3103     1
   3101   3104     1
   3103   3105     1
   3108   3115     1
   3108   3116     1
   3109   3114     1
   3109   3112     1
   3109   3113     1
   3110   3114     1
   3110   3112     1
   3110   3113     1
   3111   3139     1
   3112   3117     1
   3112   3115     1
   3112   3116     1
   3112   3138     1
   3113   3117     1
   3113   3115     1
   3113   3116     1
   3113   3138     1
   3114   3119     1
   3114   3120     1
   3114   3129     1
   3114   3130     1
   3115   3118     1
   3115   3128     1
   3115   3139     1
   3116   3118     1
   3116   3128     1
   3116   3139     1
   3117   3122     1
   3117   3123     1
   3117   3132     1
   3117   3133     1
   3118   3129     1
   3118   3130     1
   3119   3124     1
   3119   3122     1
   3119   3123     1
   3119   3128     1
   3119   3139     1
   3120   3124     1
   3120   3122     1
   3120   3123     1
   3120   3128     1
   3120   3139     1
   3121   3127     1
   3121   3139     1
   3122   3125     1
   3122   3126     1
   3123   3125     1
   3123   3126     1
   3125   3127     1
   3129   3134     1
   3129   3132     1
   3129   3133     1
   3129   3139     1
   3130   3134     1
   3130   3132     1
   3130   3133     1
   3130   3139     1
   3131   3137     1
   3131   3139     1
   3132   3135     1
   3132   3136     1
   3133   3135     1
   3133   3136     1
   3135   3137     1
   3140   3147     1
   3140   3148     1
   3141   3146     1
   3141   3144     1
   3141   3145     1
   3142   3146     1
   3142   3144     1
   3142   3145     1
   3143   3171     1
   3144   3170     1
   3144   3149     1
   3144   3147     1
   3144   3148     1
   3145   3170     1
   3145   3149     1
   3145   3147     1
   3145   3148     1
   3146   3151     1
   3146   3152     1
   3146   3161     1
   3146   3162     1
   3147   3150     1
   3147   3160     1
   3147   3171     1
   3148   3150     1
   3148   3160     1
   3148   3171     1
   3149   3154     1
   3149   3155     1
   3149   3164     1
   3149   3165     1
   3150   3161     1
   3150   3162     1
   3151   3160     1
   3151   3171     1
   3151   3156     1
   3151   3154     1
   3151   3155     1
   3152   3160     1
   3152   3171     1
   3152   3156     1
   3152   3154     1
   3152   3155     1
   3153   3171     1
   3153   3159     1
   3154   3157     1
   3154   3158     1
   3155   3157     1
   3155   3158     1
   3157   3159     1
   3161   3171     1
   3161   3166     1
   3161   3164     1
   3161   3165     1
   3162   3171     1
   3162   3166     1
   3162   3164     1
   3162   3165     1
   3163   3171     1
   3163   3169     1
   3164   3167     1
   3164   3168     1
   3165   3167     1
   3165   3168     1
   3167   3169     1
   3172   3179     1
   3172   3180     1
   3173   3178     1
   3173   3176     1
   3173   3177     1
   3174   3178     1
   3174   3176     1
   3174   3177     1
   3175   3203     1
   3176   3181     1
   3176   3179     1
   3176   3180     1
   3176   3202     1
   3177   3181     1
   3177   3179     1
   3177   3180     1
   3177   3202     1
   3178   3183     1
   3178   3184     1
   3178   3193     1
   3178   3194     1
   3179   3182     1
   3179   3192     1
   3179   3203     1
   3180   3182     1
   3180   3192     1
   3180   3203     1
   3181   3186     1
   3181   3187     1
   3181   3196     1
   3181   3197     1
   3182   3193     1
   3182   3194     1
   3183   3188     1
   3183   3186     1
   3183   3187     1
   3183   3192     1
   3183   3203     1
   3184   3188     1
   3184   3186     1
   3184   3187     1
   3184   3192     1
   3184   3203     1
   3185   3191     1
   3185   3203     1
   3186   3189     1
   3186   3190     1
   3187   3189     1
   3187   3190     1
   3189   3191     1
   3193   3198     1
   3193   3196     1
   3193   3197     1
   3193   3203     1
   3194   3198     1
   3194   3196     1
   3194   3197     1
   3194   3203     1
   3195   3201     1
   3195   3203     1
   3196   3199     1
   3196   3200     1
   3197   3199     1
   3197   3200     1
   3199   3201     1
   3204   3211     1
   3204   3212     1
   3205   3210     1
   3205   3208     1
   3205   3209     1
   3206   3210     1
   3206   3208     1
   3206   3209     1
   3207   3235     1
   3208   3234     1
   3208   3213     1
   3208   3211     1
   3208   3212     1
   3209   3234     1
   3209   3213     1
   3209   3211     1
   3209   3212     1
   3210   3215     1
   3210   3216     1
   3210   3225     1
   3210   3226     1
   3211   3214     1
   3211   3224     1
   3211   3235     1
   3212   3214     1
   3212   3224     1
   3212   3235     1
   3213   3218     1
   3213   3219     1
   3213   3228     1
   3213   3229     1
   3214   3225     1
   3214   3226     1
   3215   3224     1
   3215   3235     1
   3215   3220     1
   3215   3218     1
   3215   3219     1
   3216   3224     1
   3216   3235     1
   3216   3220     1
   3216   3218     1
   3216   3219     1
   3217   3235     1
   3217   3223     1
   3218   3221     1
   3218   3222     1
   3219   3221     1
   3219   3222     1
   3221   3223     1
   3225   3235     1
   3225   3230     1
   3225   3228     1
   3225   3229     1
   3226   3235     1
   3226   3230     1
   3226   3228     1
   3226   3229     1
   3227   3235     1
   3227   3233     1
   3228   3231     1
   3228   3232     1
   3229   3231     1
   3229   3232     1
   3231   3233     1
   3236   3243     1
   3236   3244     1
   3237   3242     1
   3237   3240     1
   3237   3241     1
   3238   3242     1
   3238   3240     1
   3238   3241     1
   3239   3267     1
   3240   3245     1
   3240   3243     1
   3240   3244     1
   3240   3266     1
   3241   3245     1
   3241   3243     1
   3241   3244     1
   3241   3266     1
   3242   3247     1
   3242   3248     1
   3242   3257     1
   3242   3258     1
   3243   3246     1
   3243   3256     1
   3243   3267     1
   3244   3246     1
   3244   3256     1
   3244   3267     1
   3245   3250     1
   3245   3251     1
   3245   3260     1
   3245   3261     1
   3246   3257     1
   3246   3258     1
   3247   3252     1
   3247   3250     1
   3247   3251     1
   3247   3256     1
   3247   3267     1
   3248   3252     1
   3248   3250     1
   3248   3251     1
   3248   3256     1
   3248   3267     1
   3249   3255     1
   3249   3267     1
   3250   3253     1
   3250   3254     1
   3251   3253     1
   3251   3254     1
   3253   3255     1
   3257   3262     1
   3257   3260     1
   3257   3261     1
   3257   3267     1
   3258   3262     1
   3258   3260     1
   3258   3261     1
   3258   3267     1
   3259   3265     1
   3259   3267     1
   3260   3263     1
   3260   3264     1
   3261   3263     1
   3261   3264     1
   3263   3265     1
   3268   3275     1
   3268   3276     1
   3269   3274     1
   3269   3272     1
   3269   3273     1
   3270   3274     1
   3270   3272     1
   3270   3273     1
   3271   3299     1
   3272   3298     1
   3272   3277     1
   3272   3275     1
   3272   3276     1
   3273   3298     1
   3273   3277     1
   3273   3275     1
   3273   3276     1
   3274   3279     1
   3274   3280     1
   3274   3289     1
   3274   3290     1
   3275   3278     1
   3275   3288     1
   3275   3299     1
   3276   3278     1
   3276   3288     1
   3276   3299     1
   3277   3282     1
   3277   3283     1
   3277   3292     1
   3277   3293     1
   3278   3289     1
   3278   3290     1
   3279   3288     1
   3279   3299     1
   3279   3284     1
   3279   3282     1
   3279   3283     1
   3280   3288     1
   3280   3299     1
   3280   3284     1
   3280   3282     1
   3280   3283     1
   3281   3299     1
   3281   3287     1
   3282   3285     1
   3282   3286     1
   3283   3285     1
   3283   3286     1
   3285   3287     1
   3289   3299     1
   3289   3294     1
   3289   3292     1
   3289   3293     1
   3290   3299     1
   3290   3294     1
   3290   3292     1
   3290   3293     1
   3291   3299     1
   3291   3297     1
   3292   3295     1
   3292   3296     1
   3293   3295     1
   3293   3296     1
   3295   3297     1
   3300   3307     1
   3300   3308     1
   3301   3306     1
   3301   3304     1
   3301   3305     1
   3302   3306     1
   3302   3304     1
   3302   3305     1
   3303   3331     1
   3304   3309     1
   3304   3307     1
   3304   3308     1
   3304   3330     1
   3305   3309     1
   3305   3307     1
   3305   3308     1
   3305   3330     1
   3306   3311     1
   3306   3312     1
   3306   3321     1
   3306   3322     1
   3307   3310     1
   3307   3320     1
   3307   3331     1
   3308   3310     1
   3308   3320     1
   3308   3331     1
   3309   3314     1
   3309   3315     1
   3309   3324     1
   3309   3325     1
   3310   3321     1
   3310   3322     1
   3311   3316     1
   3311   3314     1
   3311   3315     1
   3311   3320     1
   3311   3331     1
   3312   3316     1
   3312   3314     1
   3312   3315     1
   3312   3320     1
   3312   3331     1
   3313   3319     1
   3313   3331     1
   3314   3317     1
   3314   3318     1
   3315   3317     1
   3315   3318     1
   3317   3319     1
   3321   3326     1
   3321   3324     1
   3321   3325     1
   3321   3331     1
   3322   3326     1
   3322   3324     1
   3322   3325     1
   3322   3331     1
   3323   3329     1
   3323   3331     1
   3324   3327     1
   3324   3328     1
   3325   3327     1
   3325   3328     1
   3327   3329     1
   3332   3339     1
   3332   3340     1
   3333   3338     1
   3333   3336     1
   3333   3337     1
   3334   3338     1
   3334   3336     1
   3334   3337     1
   3335   3363     1
   3336   3362     1
   3336   3341     1
   3336   3339     1
   3336   3340     1
   3337   3362     1
   3337   3341     1
   3337   3339     1
   3337   3340     1
   3338   3343     1
   3338   3344     1
   3338   3353     1
   3338   3354     1
   3339   3342     1
   3339   3352     1
   3339   3363     1
   3340   3342     1
   3340   3352     1
   3340   3363     1
   3341   3346     1
   3341   3347     1
   3341   3356     1
   3341   3357     1
   3342   3353     1
   3342   3354     1
   3343   3352     1
   3343   3363     1
   3343   3348     1
   3343   3346     1
   3343   3347     1
   3344   3352     1
   3344   3363     1
   3344   3348     1
   3344   3346     1
   3344   3347     1
   3345   3363     1
   3345   3351     1
   3346   3349     1
   3346   3350     1
   3347   3349     1
   3347   3350     1
   3349   3351     1
   3353   3363     1
   3353   3358     1
   3353   3356     1
   3353   3357     1
   3354   3363     1
   3354   3358     1
   3354   3356     1
   3354   3357     1
   3355   3363     1
   3355   3361     1
   3356   3359     1
   3356   3360     1
   3357   3359     1
   3357   3360     1
   3359   3361     1
   3364   3371     1
   3364   3372     1
   3365   3370     1
   3365   3368     1
   3365   3369     1
   3366   3370     1
   3366   3368     1
   3366   3369     1
   3367   3395     1
   3368   3373     1
   3368   3371     1
   3368   3372     1
   3368   3394     1
   3369   3373     1
   3369   3371     1
   3369   3372     1
   3369   3394     1
   3370   3375     1
   3370   3376     1
   3370   3385     1
   3370   3386     1
   3371   3374     1
   3371   3384     1
   3371   3395     1
   3372   3374     1
   3372   3384     1
   3372   3395     1
   3373   3378     1
   3373   3379     1
   3373   3388     1
   3373   3389     1
   3374   3385     1
   3374   3386     1
   3375   3380     1
   3375   3378     1
   3375   3379     1
   3375   3384     1
   3375   3395     1
   3376   3380     1
   3376   3378     1
   3376   3379     1
   3376   3384     1
   3376   3395     1
   3377   3383     1
   3377   3395     1
   3378   3381     1
   3378   3382     1
   3379   3381     1
   3379   3382     1
   3381   3383     1
   3385   3390     1
   3385   3388     1
   3385   3389     1
   3385   3395     1
   3386   3390     1
   3386   3388     1
   3386   3389     1
   3386   3395     1
   3387   3393     1
   3387   3395     1
   3388   3391     1
   3388   3392     1
   3389   3391     1
   3389   3392     1
   3391   3393     1
   3396   3403     1
   3396   3404     1
   3397   3402     1
   3397   3400     1
   3397   3401     1
   3398   3402     1
   3398   3400     1
   3398   3401     1
   3399   3427     1
   3400   3426     1
   3400   3405     1
   3400   3403     1
   3400   3404     1
   3401   3426     1
   3401   3405     1
   3401   3403     1
   3401   3404     1
   3402   3407     1
   3402   3408     1
   3402   3417     1
   3402   3418     1
   3403   3406     1
   3403   3416     1
   3403   3427     1
   3404   3406     1
   3404   3416     1
   3404   3427     1
   3405   3410     1
   3405   3411     1
   3405   3420     1
   3405   3421     1
   3406   3417     1
   3406   3418     1
   3407   3416     1
   3407   3427     1
   3407   3412     1
   3407   3410     1
   3407   3411     1
   3408   3416     1
   3408   3427     1
   3408   3412     1
   3408   3410     1
   3408   3411     1
   3409   3427     1
   3409   3415     1
   3410   3413     1
   3410   3414     1
   3411   3413     1
   3411   3414     1
   3413   3415     1
   3417   3427     1
   3417   3422     1
   3417   3420     1
   3417   3421     1
   3418   3427     1
   3418   3422     1
   3418   3420     1
   3418   3421     1
   3419   3427     1
   3419   3425     1
   3420   3423     1
   3420   3424     1
   3421   3423     1
   3421   3424     1
   3423   3425     1
   3428   3435     1
   3428   3436     1
   3429   3434     1
   3429   3432     1
   3429   3433     1
   3430   3434     1
   3430   3432     1
   3430   3433     1
   3431   3459     1
   3432   3437     1
   3432   3435     1
   3432   3436     1
   3432   3458     1
   3433   3437     1
   3433   3435     1
   3433   3436     1
   3433   3458     1
   3434   3439     1
   3434   3440     1
   3434   3449     1
   3434   3450     1
   3435   3438     1
   3435   3448     1
   3435   3459     1
   3436   3438     1
   3436   3448     1
   3436   3459     1
   3437   3442     1
   3437   3443     1
   3437   3452     1
   3437   3453     1
   3438   3449     1
   3438   3450     1
   3439   3444     1
   3439   3442     1
   3439   3443     1
   3439   3448     1
   3439   3459     1
   3440   3444     1
   3440   3442     1
   3440   3443     1
   3440   3448     1
   3440   3459     1
   3441   3447     1
   3441   3459     1
   3442   3445     1
   3442   3446     1
   3443   3445     1
   3443   3446     1
   3445   3447     1
   3449   3454     1
   3449   3452     1
   3449   3453     1
   3449   3459     1
   3450   3454     1
   3450   3452     1
   3450   3453     1
   3450   3459     1
   3451   3457     1
   3451   3459     1
   3452   3455     1
   3452   3456     1
   3453   3455     1
   3453   3456     1
   3455   3457     1
   3460   3467     1
   3460   3468     1
   3461   3466     1
   3461   3464     1
   3461   3465     1
   3462   3466     1
   3462   3464     1
   3462   3465     1
   3463   3491     1
   3464   3490     1
   3464   3469     1
   3464   3467     1
   3464   3468     1
   3465   3490     1
   3465   3469     1
   3465   3467     1
   3465   3468     1
   3466   3471     1
   3466   3472     1
   3466   3481     1
   3466   3482     1
   3467   3470     1
   3467   3480     1
   3467   3491     1
   3468   3470     1
   3468   3480     1
   3468   3491     1
   3469   3474     1
   3469   3475     1
   3469   3484     1
   3469   3485     1
   3470   3481     1
   3470   3482     1
   3471   3480     1
   3471   3491     1
   3471   3476     1
   3471   3474     1
   3471   3475     1
   3472   3480     1
   3472   3491     1
   3472   3476     1
   3472   3474     1
   3472   3475     1
   3473   3491     1
   3473   3479     1
   3474   3477     1
   3474   3478     1
   3475   3477     1
   3475   3478     1
   3477   3479     1
   3481   3491     1
   3481   3486     1
   3481   3484     1
   3481   3485     1
   3482   3491     1
   3482   3486     1
   3482   3484     1
   3482   3485     1
   3483   3491     1
   3483   3489     1
   3484   3487     1
   3484   3488     1
   3485   3487     1
   3485   3488     1
   3487   3489     1
   3492   3499     1
   3492   3500     1
   3493   3498     1
   3493   3496     1
   3493   3497     1
   3494   3498     1
   3494   3496     1
   3494   3497     1
   3495   3523     1
   3496   3501     1
   3496   3499     1
   3496   3500     1
   3496   3522     1
   3497   3501     1
   3497   3499     1
   3497   3500     1
   3497   3522     1
   3498   3503     1
   3498   3504     1
   3498   3513     1
   3498   3514     1
   3499   3502     1
   3499   3512     1
   3499   3523     1
   3500   3502     1
   3500   3512     1
   3500   3523     1
   3501   3506     1
   3501   3507     1
   3501   3516     1
   3501   3517     1
   3502   3513     1
   3502   3514     1
   3503   3508     1
   3503   3506     1
   3503   3507     1
   3503   3512     1
   3503   3523     1
   3504   3508     1
   3504   3506     1
   3504   3507     1
   3504   3512     1
   3504   3523     1
   3505   3511     1
   3505   3523     1
   3506   3509     1
   3506   3510     1
   3507   3509     1
   3507   3510     1
   3509   3511     1
   3513   3518     1
   3513   3516     1
   3513   3517     1
   3513   3523     1
   3514   3518     1
   3514   3516     1
   3514   3517     1
   3514   3523     1
   3515   3521     1
   3515   3523     1
   3516   3519     1
   3516   3520     1
   3517   3519     1
   3517   3520     1
   3519   3521     1
   3524   3531     1
   3524   3532     1
   3525   3530     1
   3525   3528     1
   3525   3529     1
   3526   3530     1
   3526   3528     1
   3526   3529     1
   3527   3555     1
   3528   3554     1
   3528   3533     1
   3528   3531     1
   3528   3532     1
   3529   3554     1
   3529   3533     1
   3529   3531     1
   3529   3532     1
   3530   3535     1
   3530   3536     1
   3530   3545     1
   3530   3546     1
   3531   3534     1
   3531   3544     1
   3531   3555     1
   3532   3534     1
   3532   3544     1
   3532   3555     1
   3533   3538     1
   3533   3539     1
   3533   3548     1
   3533   3549     1
   3534   3545     1
   3534   3546     1
   3535   3544     1
   3535   3555     1
   3535   3540     1
   3535   3538     1
   3535   3539     1
   3536   3544     1
   3536   3555     1
   3536   3540     1
   3536   3538     1
   3536   3539     1
   3537   3555     1
   3537   3543     1
   3538   3541     1
   3538   3542     1
   3539   3541     1
   3539   3542     1
   3541   3543     1
   3545   3555     1
   3545   3550     1
   3545   3548     1
   3545   3549     1
   3546   3555     1
   3546   3550     1
   3546   3548     1
   3546   3549     1
   3547   3555     1
   3547   3553     1
   3548   3551     1
   3548   3552     1
   3549   3551     1
   3549   3552     1
   3551   3553     1
   3556   3563     1
   3556   3564     1
   3557   3562     1
   3557   3560     1
   3557   3561     1
   3558   3562     1
   3558   3560     1
   3558   3561     1
   3559   3587     1
   3560   3565     1
   3560   3563     1
   3560   3564     1
   3560   3586     1
   3561   3565     1
   3561   3563     1
   3561   3564     1
   3561   3586     1
   3562   3567     1
   3562   3568     1
   3562   3577     1
   3562   3578     1
   3563   3566     1
   3563   3576     1
   3563   3587     1
   3564   3566     1
   3564   3576     1
   3564   3587     1
   3565   3570     1
   3565   3571     1
   3565   3580     1
   3565   3581     1
   3566   3577     1
   3566   3578     1
   3567   3572     1
   3567   3570     1
   3567   3571     1
   3567   3576     1
   3567   3587     1
   3568   3572     1
   3568   3570     1
   3568   3571     1
   3568   3576     1
   3568   3587     1
   3569   3575     1
   3569   3587     1
   3570   3573     1
   3570   3574     1
   3571   3573     1
   3571   3574     1
   3573   3575     1
   3577   3582     1
   3577   3580     1
   3577   3581     1
   3577   3587     1
   3578   3582     1
   3578   3580     1
   3578   3581     1
   3578   3587     1
   3579   3585     1
   3579   3587     1
   3580   3583     1
   3580   3584     1
   3581   3583     1
   3581   3584     1
   3583   3585     1
   3588   3595     1
   3588   3596     1
   3589   3594     1
   3589   3592     1
   3589   3593     1
   3590   3594     1
   3590   3592     1
   3590   3593     1
   3591   3619     1
   3592   3618     1
   3592   3597     1
   3592   3595     1
   3592   3596     1
   3593   3618     1
   3593   3597     1
   3593   3595     1
   3593   3596     1
   3594   3599     1
   3594   3600     1
   3594   3609     1
   3594   3610     1
   3595   3598     1
   3595   3608     1
   3595   3619     1
   3596   3598     1
   3596   3608     1
   3596   3619     1
   3597   3602     1
   3597   3603     1
   3597   3612     1
   3597   3613     1
   3598   3609     1
   3598   3610     1
   3599   3608     1
   3599   3619     1
   3599   3604     1
   3599   3602     1
   3599   3603     1
   3600   3608     1
   3600   3619     1
   3600   3604     1
   3600   3602     1
   3600   3603     1
   3601   3619     1
   3601   3607     1
   3602   3605     1
   3602   3606     1
   3603   3605     1
   3603   3606     1
   3605   3607     1
   3609   3619     1
   3609   3614     1
   3609   3612     1
   3609   3613     1
   3610   3619     1
   3610   3614     1
   3610   3612     1
   3610   3613     1
   3611   3619     1
   3611   3617     1
   3612   3615     1
   3612   3616     1
   3613   3615     1
   3613   3616     1
   3615   3617     1
   3620   3627     1
   3620   3628     1
   3621   3626     1
   3621   3624     1
   3621   3625     1
   3622   3626     1
   3622   3624     1
   3622   3625     1
   3623   3651     1
   3624   3629     1
   3624   3627     1
   3624   3628     1
   3624   3650     1
   3625   3629     1
   3625   3627     1
   3625   3628     1
   3625   3650     1
   3626   3631     1
   3626   3632     1
   3626   3641     1
   3626   3642     1
   3627   3630     1
   3627   3640     1
   3627   3651     1
   3628   3630     1
   3628   3640     1
   3628   3651     1
   3629   3634     1
   3629   3635     1
   3629   3644     1
   3629   3645     1
   3630   3641     1
   3630   3642     1
   3631   3636     1
   3631   3634     1
   3631   3635     1
   3631   3640     1
   3631   3651     1
   3632   3636     1
   3632   3634     1
   3632   3635     1
   3632   3640     1
   3632   3651     1
   3633   3639     1
   3633   3651     1
   3634   3637     1
   3634   3638     1
   3635   3637     1
   3635   3638     1
   3637   3639     1
   3641   3646     1
   3641   3644     1
   3641   3645     1
   3641   3651     1
   3642   3646     1
   3642   3644     1
   3642   3645     1
   3642   3651     1
   3643   3649     1
   3643   3651     1
   3644   3647     1
   3644   3648     1
   3645   3647     1
   3645   3648     1
   3647   3649     1
   3652   3659     1
   3652   3660     1
   3653   3658     1
   3653   3656     1
   3653   3657     1
   3654   3658     1
   3654   3656     1
   3654   3657     1
   3655   3683     1
   3656   3682     1
   3656   3661     1
   3656   3659     1
   3656   3660     1
   3657   3682     1
   3657   3661     1
   3657   3659     1
   3657   3660     1
   3658   3663     1
   3658   3664     1
   3658   3673     1
   3658   3674     1
   3659   3662     1
   3659   3672     1
   3659   3683     1
   3660   3662     1
   3660   3672     1
   3660   3683     1
   3661   3666     1
   3661   3667     1
   3661   3676     1
   3661   3677     1
   3662   3673     1
   3662   3674     1
   3663   3672     1
   3663   3683     1
   3663   3668     1
   3663   3666     1
   3663   3667     1
   3664   3672     1
   3664   3683     1
   3664   3668     1
   3664   3666     1
   3664   3667     1
   3665   3683     1
   3665   3671     1
   3666   3669     1
   3666   3670     1
   3667   3669     1
   3667   3670     1
   3669   3671     1
   3673   3683     1
   3673   3678     1
   3673   3676     1
   3673   3677     1
   3674   3683     1
   3674   3678     1
   3674   3676     1
   3674   3677     1
   3675   3683     1
   3675   3681     1
   3676   3679     1
   3676   3680     1
   3677   3679     1
   3677   3680     1
   3679   3681     1
   3684   3691     1
   3684   3692     1
   3685   3690     1
   3685   3688     1
   3685   3689     1
   3686   3690     1
   3686   3688     1
   3686   3689     1
   3687   3715     1
   3688   3693     1
   3688   3691     1
   3688   3692     1
   3688   3714     1
   3689   3693     1
   3689   3691     1
   3689   3692     1
   3689   3714     1
   3690   3695     1
   3690   3696     1
   3690   3705     1
   3690   3706     1
   3691   3694     1
   3691   3704     1
   3691   3715     1
   3692   3694     1
   3692   3704     1
   3692   3715     1
   3693   3698     1
   3693   3699     1
   3693   3708     1
   3693   3709     1
   3694   3705     1
   3694   3706     1
   3695   3700     1
   3695   3698     1
   3695   3699     1
   3695   3704     1
   3695   3715     1
   3696   3700     1
   3696   3698     1
   3696   3699     1
   3696   3704     1
   3696   3715     1
   3697   3703     1
   3697   3715     1
   3698   3701     1
   3698   3702     1
   3699   3701     1
   3699   3702     1
   3701   3703     1
   3705   3710     1
   3705   3708     1
   3705   3709     1
   3705   3715     1
   3706   3710     1
   3706   3708     1
   3706   3709     1
   3706   3715     1
   3707   3713     1
   3707   3715     1
   3708   3711     1
   3708   3712     1
   3709   3711     1
   3709   3712     1
   3711   3713     1
   3716   3723     1
   3716   3724     1
   3717   3722     1
   3717   3720     1
   3717   3721     1
   3718   3722     1
   3718   3720     1
   3718   3721     1
   3719   3747     1
   3720   3746     1
   3720   3725     1
   3720   3723     1
   3720   3724     1
   3721   3746     1
   3721   3725     1
   3721   3723     1
   3721   3724     1
   3722   3727     1
   3722   3728     1
   3722   3737     1
   3722   3738     1
   3723   3726     1
   3723   3736     1
   3723   3747     1
   3724   3726     1
   3724   3736     1
   3724   3747     1
   3725   3730     1
   3725   3731     1
   3725   3740     1
   3725   3741     1
   3726   3737     1
   3726   3738     1
   3727   3736     1
   3727   3747     1
   3727   3732     1
   3727   3730     1
   3727   3731     1
   3728   3736     1
   3728   3747     1
   3728   3732     1
   3728   3730     1
   3728   3731     1
   3729   3747     1
   3729   3735     1
   3730   3733     1
   3730   3734     1
   3731   3733     1
   3731   3734     1
   3733   3735     1
   3737   3747     1
   3737   3742     1
   3737   3740     1
   3737   3741     1
   3738   3747     1
   3738   3742     1
   3738   3740     1
   3738   3741     1
   3739   3747     1
   3739   3745     1
   3740   3743     1
   3740   3744     1
   3741   3743     1
   3741   3744     1
   3743   3745     1
   3748   3755     1
   3748   3756     1
   3749   3754     1
   3749   3752     1
   3749   3753     1
   3750   3754     1
   3750   3752     1
   3750   3753     1
   3751   3779     1
   3752   3757     1
   3752   3755     1
   3752   3756     1
   3752   3778     1
   3753   3757     1
   3753   3755     1
   3753   3756     1
   3753   3778     1
   3754   3759     1
   3754   3760     1
   3754   3769     1
   3754   3770     1
   3755   3758     1
   3755   3768     1
   3755   3779     1
   3756   3758     1
   3756   3768     1
   3756   3779     1
   3757   3762     1
   3757   3763     1
   3757   3772     1
   3757   3773     1
   3758   3769     1
   3758   3770     1
   3759   3764     1
   3759   3762     1
   3759   3763     1
   3759   3768     1
   3759   3779     1
   3760   3764     1
   3760   3762     1
   3760   3763     1
   3760   3768     1
   3760   3779     1
   3761   3767     1
   3761   3779     1
   3762   3765     1
   3762   3766     1
   3763   3765     1
   3763   3766     1
   3765   3767     1
   3769   3774     1
   3769   3772     1
   3769   3773     1
   3769   3779     1
   3770   3774     1
   3770   3772     1
   3770   3773     1
   3770   3779     1
   3771   3777     1
   3771   3779     1
   3772   3775     1
   3772   3776     1
   3773   3775     1
   3773   3776     1
   3775   3777     1
   3780   3787     1
   3780   3788     1
   3781   3786     1
   3781   3784     1
   3781   3785     1
   3782   3786     1
   3782   3784     1
   3782   3785     1
   3783   3811     1
   3784   3810     1
   3784   3789     1
   3784   3787     1
   3784   3788     1
   3785   3810     1
   3785   3789     1
   3785   3787     1
   3785   3788     1
   3786   3791     1
   3786   3792     1
   3786   3801     1
   3786   3802     1
   3787   3790     1
   3787   3800     1
   3787   3811     1
   3788   3790     1
   3788   3800     1
   3788   3811     1
   3789   3794     1
   3789   3795     1
   3789   3804     1
   3789   3805     1
   3790   3801     1
   3790   3802     1
   3791   3800     1
   3791   3811     1
   3791   3796     1
   3791   3794     1
   3791   3795     1
   3792   3800     1
   3792   3811     1
   3792   3796     1
   3792   3794     1
   3792   3795     1
   3793   3811     1
   3793   3799     1
   3794   3797     1
   3794   3798     1
   3795   3797     1
   3795   3798     1
   3797   3799     1
   3801   3811     1
   3801   3806     1
   3801   3804     1
   3801   3805     1
   3802   3811     1
   3802   3806     1
   3802   3804     1
   3802   3805     1
   3803   3811     1
   3803   3809     1
   3804   3807     1
   3804   3808     1
   3805   3807     1
   3805   3808     1
   3807   3809     1
   3812   3819     1
   3812   3820     1
   3813   3818     1
   3813   3816     1
   3813   3817     1
   3814   3818     1
   3814   3816     1
   3814   3817     1
   3815   3843     1
   3816   3821     1
   3816   3819     1
   3816   3820     1
   3816   3842     1
   3817   3821     1
   3817   3819     1
   3817   3820     1
   3817   3842     1
   3818   3823     1
   3818   3824     1
   3818   3833     1
   3818   3834     1
   3819   3822     1
   3819   3832     1
   3819   3843     1
   3820   3822     1
   3820   3832     1
   3820   3843     1
   3821   3826     1
   3821   3827     1
   3821   3836     1
   3821   3837     1
   3822   3833     1
   3822   3834     1
   3823   3828     1
   3823   3826     1
   3823   3827     1
   3823   3832     1
   3823   3843     1
   3824   3828     1
   3824   3826     1
   3824   3827     1
   3824   3832     1
   3824   3843     1
   3825   3831     1
   3825   3843     1
   3826   3829     1
   3826   3830     1
   3827   3829     1
   3827   3830     1
   3829   3831     1
   3833   3838     1
   3833   3836     1
   3833   3837     1
   3833   3843     1
   3834   3838     1
   3834   3836     1
   3834   3837     1
   3834   3843     1
   3835   3841     1
   3835   3843     1
   3836   3839     1
   3836   3840     1
   3837   3839     1
   3837   3840     1
   3839   3841     1
   3844   3851     1
   3844   3852     1
   3845   3850     1
   3845   3848     1
   3845   3849     1
   3846   3850     1
   3846   3848     1
   3846   3849     1
   3847   3875     1
   3848   3874     1
   3848   3853     1
   3848   3851     1
   3848   3852     1
   3849   3874     1
   3849   3853     1
   3849   3851     1
   3849   3852     1
   3850   3855     1
   3850   3856     1
   3850   3865     1
   3850   3866     1
   3851   3854     1
   3851   3864     1
   3851   3875     1
   3852   3854     1
   3852   3864     1
   3852   3875     1
   3853   3858     1
   3853   3859     1
   3853   3868     1
   3853   3869     1
   3854   3865     1
   3854   3866     1
   3855   3864     1
   3855   3875     1
   3855   3860     1
   3855   3858     1
   3855   3859     1
   3856   3864     1
   3856   3875     1
   3856   3860     1
   3856   3858     1
   3856   3859     1
   3857   3875     1
   3857   3863     1
   3858   3861     1
   3858   3862     1
   3859   3861     1
   3859   3862     1
   3861   3863     1
   3865   3875     1
   3865   3870     1
   3865   3868     1
   3865   3869     1
   3866   3875     1
   3866   3870     1
   3866   3868     1
   3866   3869     1
   3867   3875     1
   3867   3873     1
   3868   3871     1
   3868   3872     1
   3869   3871     1
   3869   3872     1
   3871   3873     1
   3876   3883     1
   3876   3884     1
   3877   3882     1
   3877   3880     1
   3877   3881     1
   3878   3882     1
   3878   3880     1
   3878   3881     1
   3879   3907     1
   3880   3885     1
   3880   3883     1
   3880   3884     1
   3880   3906     1
   3881   3885     1
   3881   3883     1
   3881   3884     1
   3881   3906     1
   3882   3887     1
   3882   3888     1
   3882   3897     1
   3882   3898     1
   3883   3886     1
   3883   3896     1
   3883   3907     1
   3884   3886     1
   3884   3896     1
   3884   3907     1
   3885   3890     1
   3885   3891     1
   3885   3900     1
   3885   3901     1
   3886   3897     1
   3886   3898     1
   3887   3892     1
   3887   3890     1
   3887   3891     1
   3887   3896     1
   3887   3907     1
   3888   3892     1
   3888   3890     1
   3888   3891     1
   3888   3896     1
   3888   3907     1
   3889   3895     1
   3889   3907     1
   3890   3893     1
   3890   3894     1
   3891   3893     1
   3891   3894     1
   3893   3895     1
   3897   3902     1
   3897   3900     1
   3897   3901     1
   3897   3907     1
   3898   3902     1
   3898   3900     1
   3898   3901     1
   3898   3907     1
   3899   3905     1
   3899   3907     1
   3900   3903     1
   3900   3904     1
   3901   3903     1
   3901   3904     1
   3903   3905     1

[ angles ]
;    ai     aj     ak funct         c0         c1         c2         c3
      1      2      8     1   107.9700462 569.024000
      1      5     11     1   107.9700462 569.024000
      2      1      5     1   112.4800480 524.673600
      2      8     14     1   111.5100476 526.347200
      5     11     17     1   111.5100476 526.347200
      8     14     20     1   114.2100488 537.225600
     11     17     21     1   114.2100488 537.225600
     14     20     28     1   109.6600471 523.836800
     14     20     31     1   109.6600471 523.836800
     17     21     22     1   109.6600471 523.836800
     17     21     25     1   109.6600471 523.836800
     20     28     40     1   114.2100488 537.225600
     20     31     43     1   114.2100488 537.225600
     21     22     34     1   114.2100488 537.225600
     21     25     37     1   114.2100488 537.225600
     22     21     25     1   109.6600471 523.836800
     22     34     55     1   111.5100476 526.347200
     25     37     52     1   111.5100476 526.347200
     28     20     31     1   109.6600471 523.836800
     28     40     49     1   111.5100476 526.347200
     31     43     46     1   111.5100476 526.347200
     34     55    178     1   107.9700462 569.024000
     37     52    148     1   107.9700462 569.024000
     40     49    118     1   107.9700462 569.024000
     43     46     88     1   107.9700462 569.024000
     46     88     79     1   112.4800480 524.673600
     49    118    109     1   112.4800480 524.673600
     52    148    139     1   112.4800480 524.673600
     55    178    169     1   112.4800480 524.673600
     60     61     73     1   114.2100488 537.225600
     60     64     76     1   114.2100488 537.225600
     60     67     70     1   114.2100488 537.225600
     61     60     64     1   109.6600471 523.836800
     61     60     67     1   109.6600471 523.836800
     61     73     85     1   111.5100476 526.347200
     64     60     67     1   109.6600471 523.836800
     64     76     82     1   111.5100476 526.347200
     67     70     79     1   111.5100476 526.347200
     70     79     88     1   107.9700462 569.024000
     73     85    238     1   107.9700462 569.024000
     76     82    208     1   107.9700462 569.024000
     82    208    199     1   112.4800480 524.673600
     85    238    229     1   112.4800480 524.673600
     90     91    103     1   114.2100488 537.225600
     90     94    106     1   114.2100488 537.225600
     90     97    100     1   114.2100488 537.225600
     91     90     94     1   109.6600471 523.836800
     91     90     97     1   109.6600471 523.836800
     91    103    115     1   111.5100476 526.347200
     94     90     97     1   109.6600471 523.836800
     94    106    112     1   111.5100476 526.347200
     97    100    109     1   111.5100476 526.347200
    100    109    118     1   107.9700462 569.024000
    103    115    298     1   107.9700462 569.024000
    106    112    268     1   107.9700462 569.024000
    112    268    259     1   112.4800480 524.673600
    115    298    289     1   112.4800480 524.673600
    120    121    133     1   114.2100488 537.225600
    120    124    136     1   114.2100488 537.225600
    120    127    130     1   114.2100488 537.225600
    121    120    124     1   109.6600471 523.836800
    121    120    127     1   109.6600471 523.836800
    121    133    145     1   111.5100476 526.347200
    124    120    127     1   109.6600471 523.836800
    124    136    142     1   111.5100476 526.347200
    127    130    139     1   111.5100476 526.347200
    130    139    148     1   107.9700462 569.024000
    133    145    358     1   107.9700462 569.024000
    136    142    328     1   107.9700462 569.024000
    142    328    319     1   112.4800480 524.673600
    145    358    349     1   112.4800480 524.673600
    150    151    163     1   114.2100488 537.225600
    150    154    166     1   114.2100488 537.225600
    150    157    160     1   114.2100488 537.225600
    151    150    154     1   109.6600471 523.836800
    151    150    157     1   109.6600471 523.836800
    151    163    175     1   111.5100476 526.347200
    154    150    157     1   109.6600471 523.836800
    154    166    172     1   111.5100476 526.347200
    157    160    169     1   111.5100476 526.347200
    160    169    178     1   107.9700462 569.024000
    163    175    418     1   107.9700462 569.024000
    166    172    388     1   107.9700462 569.024000
    172    388    379     1   112.4800480 524.673600
    175    418    409     1   112.4800480 524.673600
    180    181    193     1   114.2100488 537.225600
    180    184    196     1   114.2100488 537.225600
    180    187    190     1   114.2100488 537.225600
    181    180    184     1   109.6600471 523.836800
    181    180    187     1   109.6600471 523.836800
    181    193    205     1   111.5100476 526.347200
    184    180    187     1   109.6600471 523.836800
    184    196    202     1   111.5100476 526.347200
    187    190    199     1   111.5100476 526.347200
    190    199    208     1   107.9700462 569.024000
    193    205    478     1   107.9700462 569.024000
    196    202    448     1   107.9700462 569.024000
    202    448    439     1   112.4800480 524.673600
    205    478    469     1   112.4800480 524.673600
    210    211    223     1   114.2100488 537.225600
    210    214    226     1   114.2100488 537.225600
    210    217    220     1   114.2100488 537.225600
    211    210    214     1   109.6600471 523.836800
    211    210    217     1   109.6600471 523.836800
    211    223    235     1   111.5100476 526.347200
    214    210    217     1   109.6600471 523.836800
    214    226    232     1   111.5100476 526.347200
    217    220    229     1   111.5100476 526.347200
    220    229    238     1   107.9700462 569.024000
    223    235    538     1   107.9700462 569.024000
    226    232    508     1   107.9700462 569.024000
    232    508    499     1   112.4800480 524.673600
    235    538    529     1   112.4800480 524.673600
    240    241    253     1   114.2100488 537.225600
    240    244    256     1   114.2100488 537.225600
    240    247    250     1   114.2100488 537.225600
    241    240    244     1   109.6600471 523.836800
    241    240    247     1   109.6600471 523.836800
    241    253    265     1   111.5100476 526.347200
    244    240    247     1   109.6600471 523.836800
    244    256    262     1   111.5100476 526.347200
    247    250    259     1   111.5100476 526.347200
    250    259    268     1   107.9700462 569.024000
    253    265    598     1   107.9700462 569.024000
    256    262    568     1   107.9700462 569.024000
    262    568    559     1   112.4800480 524.673600
    265    598    589     1   112.4800480 524.673600
    270    271    283     1   114.2100488 537.225600
    270    274    286     1   114.2100488 537.225600
    270    277    280     1   114.2100488 537.225600
    271    270    274     1   109.6600471 523.836800
    271    270    277     1   109.6600471 523.836800
    271    283    295     1   111.5100476 526.347200
    274    270    277     1   109.6600471 523.836800
    274    286    292     1   111.5100476 526.347200
    277    280    289     1   111.5100476 526.347200
    280    289    298     1   107.9700462 569.024000
    283    295    658     1   107.9700462 569.024000
    286    292    628     1   107.9700462 569.024000
    292    628    619     1   112.4800480 524.673600
    295    658    649     1   112.4800480 524.673600
    300    301    313     1   114.2100488 537.225600
    300    304    316     1   114.2100488 537.225600
    300    307    310     1   114.2100488 537.225600
    301    300    304     1   109.6600471 523.836800
    301    300    307     1   109.6600471 523.836800
    301    313    325     1   111.5100476 526.347200
    304    300    307     1   109.6600471 523.836800
    304    316    322     1   111.5100476 526.347200
    307    310    319     1   111.5100476 526.347200
    310    319    328     1   107.9700462 569.024000
    313    325    718     1   107.9700462 569.024000
    316    322    688     1   107.9700462 569.024000
    322    688    679     1   112.4800480 524.673600
    325    718    709     1   112.4800480 524.673600
    330    331    343     1   114.2100488 537.225600
    330    334    346     1   114.2100488 537.225600
    330    337    340     1   114.2100488 537.225600
    331    330    334     1   109.6600471 523.836800
    331    330    337     1   109.6600471 523.836800
    331    343    355     1   111.5100476 526.347200
    334    330    337     1   109.6600471 523.836800
    334    346    352     1   111.5100476 526.347200
    337    340    349     1   111.5100476 526.347200
    340    349    358     1   107.9700462 569.024000
    343    355    778     1   107.9700462 569.024000
    346    352    748     1   107.9700462 569.024000
    352    748    739     1   112.4800480 524.673600
    355    778    769     1   112.4800480 524.673600
    360    361    373     1   114.2100488 537.225600
    360    364    376     1   114.2100488 537.225600
    360    367    370     1   114.2100488 537.225600
    361    360    364     1   109.6600471 523.836800
    361    360    367     1   109.6600471 523.836800
    361    373    385     1   111.5100476 526.347200
    364    360    367     1   109.6600471 523.836800
    364    376    382     1   111.5100476 526.347200
    367    370    379     1   111.5100476 526.347200
    370    379    388     1   107.9700462 569.024000
    373    385    838     1   107.9700462 569.024000
    376    382    808     1   107.9700462 569.024000
    382    808    799     1   112.4800480 524.673600
    385    838    829     1   112.4800480 524.673600
    390    391    403     1   114.2100488 537.225600
    390    394    406     1   114.2100488 537.225600
    390    397    400     1   114.2100488 537.225600
    391    390    394     1   109.6600471 523.836800
    391    390    397     1   109.6600471 523.836800
    391    403    415     1   111.5100476 526.347200
    394    390    397     1   109.6600471 523.836800
    394    406    412     1   111.5100476 526.347200
    397    400    409     1   111.5100476 526.347200
    400    409    418     1   107.9700462 569.024000
    403    415    898     1   107.9700462 569.024000
    406    412    868     1   107.9700462 569.024000
    412    868    859     1   112.4800480 524.673600
    415    898    889     1   112.4800480 524.673600
    420    421    433     1   114.2100488 537.225600
    420    424    436     1   114.2100488 537.225600
    420    427    430     1   114.2100488 537.225600
    421    420    424     1   109.6600471 523.836800
    421    420    427     1   109.6600471 523.836800
    421    433    445     1   111.5100476 526.347200
    424    420    427     1   109.6600471 523.836800
    424    436    442     1   111.5100476 526.347200
    427    430    439     1   111.5100476 526.347200
    430    439    448     1   107.9700462 569.024000
    433    445    958     1   107.9700462 569.024000
    436    442    928     1   107.9700462 569.024000
    442    928    919     1   112.4800480 524.673600
    445    958    949     1   112.4800480 524.673600
    450    451    463     1   114.2100488 537.225600
    450    454    466     1   114.2100488 537.225600
    450    457    460     1   114.2100488 537.225600
    451    450    454     1   109.6600471 523.836800
    451    450    457     1   109.6600471 523.836800
    451    463    475     1   111.5100476 526.347200
    454    450    457     1   109.6600471 523.836800
    454    466    472     1   111.5100476 526.347200
    457    460    469     1   111.5100476 526.347200
    460    469    478     1   107.9700462 569.024000
    463    475   1018     1   107.9700462 569.024000
    466    472    988     1   107.9700462 569.024000
    472    988    979     1   112.4800480 524.673600
    475   1018   1009     1   112.4800480 524.673600
    480    481    493     1   114.2100488 537.225600
    480    484    496     1   114.2100488 537.225600
    480    487    490     1   114.2100488 537.225600
    481    480    484     1   109.6600471 523.836800
    481    480    487     1   109.6600471 523.836800
    481    493    505     1   111.5100476 526.347200
    484    480    487     1   109.6600471 523.836800
    484    496    502     1   111.5100476 526.347200
    487    490    499     1   111.5100476 526.347200
    490    499    508     1   107.9700462 569.024000
    493    505   1078     1   107.9700462 569.024000
    496    502   1048     1   107.9700462 569.024000
    502   1048   1039     1   112.4800480 524.673600
    505   1078   1069     1   112.4800480 524.673600
    510    511    523     1   114.2100488 537.225600
    510    514    526     1   114.2100488 537.225600
    510    517    520     1   114.2100488 537.225600
    511    510    514     1   109.6600471 523.836800
    511    510    517     1   109.6600471 523.836800
    511    523    535     1   111.5100476 526.347200
    514    510    517     1   109.6600471 523.836800
    514    526    532     1   111.5100476 526.347200
    517    520    529     1   111.5100476 526.347200
    520    529    538     1   107.9700462 569.024000
    523    535   1138     1   107.9700462 569.024000
    526    532   1108     1   107.9700462 569.024000
    532   1108   1099     1   112.4800480 524.673600
    535   1138   1129     1   112.4800480 524.673600
    540    541    553     1   114.2100488 537.225600
    540    544    556     1   114.2100488 537.225600
    540    547    550     1   114.2100488 537.225600
    541    540    544     1   109.6600471 523.836800
    541    540    547     1   109.6600471 523.836800
    541    553    565     1   111.5100476 526.347200
    544    540    547     1   109.6600471 523.836800
    544    556    562     1   111.5100476 526.347200
    547    550    559     1   111.5100476 526.347200
    550    559    568     1   107.9700462 569.024000
    553    565   1198     1   107.9700462 569.024000
    556    562   1168     1   107.9700462 569.024000
    562   1168   1159     1   112.4800480 524.673600
    565   1198   1189     1   112.4800480 524.673600
    570    571    583     1   114.2100488 537.225600
    570    574    586     1   114.2100488 537.225600
    570    577    580     1   114.2100488 537.225600
    571    570    574     1   109.6600471 523.836800
    571    570    577     1   109.6600471 523.836800
    571    583    595     1   111.5100476 526.347200
    574    570    577     1   109.6600471 523.836800
    574    586    592     1   111.5100476 526.347200
    577    580    589     1   111.5100476 526.347200
    580    589    598     1   107.9700462 569.024000
    583    595   1258     1   107.9700462 569.024000
    586    592   1228     1   107.9700462 569.024000
    592   1228   1219     1   112.4800480 524.673600
    595   1258   1249     1   112.4800480 524.673600
    600    601    613     1   114.2100488 537.225600
    600    604    616     1   114.2100488 537.225600
    600    607    610     1   114.2100488 537.225600
    601    600    604     1   109.6600471 523.836800
    601    600    607     1   109.6600471 523.836800
    601    613    625     1   111.5100476 526.347200
    604    600    607     1   109.6600471 523.836800
    604    616    622     1   111.5100476 526.347200
    607    610    619     1   111.5100476 526.347200
    610    619    628     1   107.9700462 569.024000
    613    625   1318     1   107.9700462 569.024000
    616    622   1288     1   107.9700462 569.024000
    622   1288   1279     1   112.4800480 524.673600
    625   1318   1309     1   112.4800480 524.673600
    630    631    643     1   114.2100488 537.225600
    630    634    646     1   114.2100488 537.225600
    630    637    640     1   114.2100488 537.225600
    631    630    634     1   109.6600471 523.836800
    631    630    637     1   109.6600471 523.836800
    631    643    655     1   111.5100476 526.347200
    634    630    637     1   109.6600471 523.836800
    634    646    652     1   111.5100476 526.347200
    637    640    649     1   111.5100476 526.347200
    640    649    658     1   107.9700462 569.024000
    643    655   1378     1   107.9700462 569.024000
    646    652   1348     1   107.9700462 569.024000
    652   1348   1339     1   112.4800480 524.673600
    655   1378   1369     1   112.4800480 524.673600
    660    661    673     1   114.2100488 537.225600
    660    664    676     1   114.2100488 537.225600
    660    667    670     1   114.2100488 537.225600
    661    660    664     1   109.6600471 523.836800
    661    660    667     1   109.6600471 523.836800
    661    673    685     1   111.5100476 526.347200
    664    660    667     1   109.6600471 523.836800
    664    676    682     1   111.5100476 526.347200
    667    670    679     1   111.5100476 526.347200
    670    679    688     1   107.9700462 569.024000
    673    685   1438     1   107.9700462 569.024000
    676    682   1408     1   107.9700462 569.024000
    682   1408   1399     1   112.4800480 524.673600
    685   1438   1429     1   112.4800480 524.673600
    690    691    703     1   114.2100488 537.225600
    690    694    706     1   114.2100488 537.225600
    690    697    700     1   114.2100488 537.225600
    691    690    694     1   109.6600471 523.836800
    691    690    697     1   109.6600471 523.836800
    691    703    715     1   111.5100476 526.347200
    694    690    697     1   109.6600471 523.836800
    694    706    712     1   111.5100476 526.347200
    697    700    709     1   111.5100476 526.347200
    700    709    718     1   107.9700462 569.024000
    703    715   1498     1   107.9700462 569.024000
    706    712   1468     1   107.9700462 569.024000
    712   1468   1459     1   112.4800480 524.673600
    715   1498   1489     1   112.4800480 524.673600
    720    721    733     1   114.2100488 537.225600
    720    724    736     1   114.2100488 537.225600
    720    727    730     1   114.2100488 537.225600
    721    720    724     1   109.6600471 523.836800
    721    720    727     1   109.6600471 523.836800
    721    733    745     1   111.5100476 526.347200
    724    720    727     1   109.6600471 523.836800
    724    736    742     1   111.5100476 526.347200
    727    730    739     1   111.5100476 526.347200
    730    739    748     1   107.9700462 569.024000
    733    745   1558     1   107.9700462 569.024000
    736    742   1528     1   107.9700462 569.024000
    742   1528   1519     1   112.4800480 524.673600
    745   1558   1549     1   112.4800480 524.673600
    750    751    763     1   114.2100488 537.225600
    750    754    766     1   114.2100488 537.225600
    750    757    760     1   114.2100488 537.225600
    751    750    754     1   109.6600471 523.836800
    751    750    757     1   109.6600471 523.836800
    751    763    775     1   111.5100476 526.347200
    754    750    757     1   109.6600471 523.836800
    754    766    772     1   111.5100476 526.347200
    757    760    769     1   111.5100476 526.347200
    760    769    778     1   107.9700462 569.024000
    763    775   1618     1   107.9700462 569.024000
    766    772   1588     1   107.9700462 569.024000
    772   1588   1579     1   112.4800480 524.673600
    775   1618   1609     1   112.4800480 524.673600
    780    781    793     1   114.2100488 537.225600
    780    784    796     1   114.2100488 537.225600
    780    787    790     1   114.2100488 537.225600
    781    780    784     1   109.6600471 523.836800
    781    780    787     1   109.6600471 523.836800
    781    793    805     1   111.5100476 526.347200
    784    780    787     1   109.6600471 523.836800
    784    796    802     1   111.5100476 526.347200
    787    790    799     1   111.5100476 526.347200
    790    799    808     1   107.9700462 569.024000
    793    805   1678     1   107.9700462 569.024000
    796    802   1648     1   107.9700462 569.024000
    802   1648   1639     1   112.4800480 524.673600
    805   1678   1669     1   112.4800480 524.673600
    810    811    823     1   114.2100488 537.225600
    810    814    826     1   114.2100488 537.225600
    810    817    820     1   114.2100488 537.225600
    811    810    814     1   109.6600471 523.836800
    811    810    817     1   109.6600471 523.836800
    811    823    835     1   111.5100476 526.347200
    814    810    817     1   109.6600471 523.836800
    814    826    832     1   111.5100476 526.347200
    817    820    829     1   111.5100476 526.347200
    820    829    838     1   107.9700462 569.024000
    823    835   1738     1   107.9700462 569.024000
    826    832   1708     1   107.9700462 569.024000
    832   1708   1699     1   112.4800480 524.673600
    835   1738   1729     1   112.4800480 524.673600
    840    841    853     1   114.2100488 537.225600
    840    844    856     1   114.2100488 537.225600
    840    847    850     1   114.2100488 537.225600
    841    840    844     1   109.6600471 523.836800
    841    840    847     1   109.6600471 523.836800
    841    853    865     1   111.5100476 526.347200
    844    840    847     1   109.6600471 523.836800
    844    856    862     1   111.5100476 526.347200
    847    850    859     1   111.5100476 526.347200
    850    859    868     1   107.9700462 569.024000
    853    865   1798     1   107.9700462 569.024000
    856    862   1768     1   107.9700462 569.024000
    862   1768   1759     1   112.4800480 524.673600
    865   1798   1789     1   112.4800480 524.673600
    870    871    883     1   114.2100488 537.225600
    870    874    886     1   114.2100488 537.225600
    870    877    880     1   114.2100488 537.225600
    871    870    874     1   109.6600471 523.836800
    871    870    877     1   109.6600471 523.836800
    871    883    895     1   111.5100476 526.347200
    874    870    877     1   109.6600471 523.836800
    874    886    892     1   111.5100476 526.347200
    877    880    889     1   111.5100476 526.347200
    880    889    898     1   107.9700462 569.024000
    883    895   1858     1   107.9700462 569.024000
    886    892   1828     1   107.9700462 569.024000
    892   1828   1819     1   112.4800480 524.673600
    895   1858   1849     1   112.4800480 524.673600
    900    901    913     1   114.2100488 537.225600
    900    904    916     1   114.2100488 537.225600
    900    907    910     1   114.2100488 537.225600
    901    900    904     1   109.6600471 523.836800
    901    900    907     1   109.6600471 523.836800
    901    913    925     1   111.5100476 526.347200
    904    900    907     1   109.6600471 523.836800
    904    916    922     1   111.5100476 526.347200
    907    910    919     1   111.5100476 526.347200
    910    919    928     1   107.9700462 569.024000
    913    925   1922     1   107.9700462 569.024000
    916    922   1890     1   107.9700462 569.024000
    922   1890   1860     1   112.4800480 524.673600
    925   1922   1892     1   112.4800480 524.673600
    930    931    943     1   114.2100488 537.225600
    930    934    946     1   114.2100488 537.225600
    930    937    940     1   114.2100488 537.225600
    931    930    934     1   109.6600471 523.836800
    931    930    937     1   109.6600471 523.836800
    931    943    955     1   111.5100476 526.347200
    934    930    937     1   109.6600471 523.836800
    934    946    952     1   111.5100476 526.347200
    937    940    949     1   111.5100476 526.347200
    940    949    958     1   107.9700462 569.024000
    943    955   1986     1   107.9700462 569.024000
    946    952   1954     1   107.9700462 569.024000
    952   1954   1924     1   112.4800480 524.673600
    955   1986   1956     1   112.4800480 524.673600
    960    961    973     1   114.2100488 537.225600
    960    964    976     1   114.2100488 537.225600
    960    967    970     1   114.2100488 537.225600
    961    960    964     1   109.6600471 523.836800
    961    960    967     1   109.6600471 523.836800
    961    973    985     1   111.5100476 526.347200
    964    960    967     1   109.6600471 523.836800
    964    976    982     1   111.5100476 526.347200
    967    970    979     1   111.5100476 526.347200
    970    979    988     1   107.9700462 569.024000
    973    985   2050     1   107.9700462 569.024000
    976    982   2018     1   107.9700462 569.024000
    982   2018   1988     1   112.4800480 524.673600
    985   2050   2020     1   112.4800480 524.673600
    990    991   1003     1   114.2100488 537.225600
    990    994   1006     1   114.2100488 537.225600
    990    997   1000     1   114.2100488 537.225600
    991    990    994     1   109.6600471 523.836800
    991    990    997     1   109.6600471 523.836800
    991   1003   1015     1   111.5100476 526.347200
    994    990    997     1   109.6600471 523.836800
    994   1006   1012     1   111.5100476 526.347200
    997   1000   1009     1   111.5100476 526.347200
   1000   1009   1018     1   107.9700462 569.024000
   1003   1015   2114     1   107.9700462 569.024000
   1006   1012   2082     1   107.9700462 569.024000
   1012   2082   2052     1   112.4800480 524.673600
   1015   2114   2084     1   112.4800480 524.673600
   1020   1021   1033     1   114.2100488 537.225600
   1020   1024   1036     1   114.2100488 537.225600
   1020   1027   1030     1   114.2100488 537.225600
   1021   1020   1024     1   109.6600471 523.836800
   1021   1020   1027     1   109.6600471 523.836800
   1021   1033   1045     1   111.5100476 526.347200
   1024   1020   1027     1   109.6600471 523.836800
   1024   1036   1042     1   111.5100476 526.347200
   1027   1030   1039     1   111.5100476 526.347200
   1030   1039   1048     1   107.9700462 569.024000
   1033   1045   2178     1   107.9700462 569.024000
   1036   1042   2146     1   107.9700462 569.024000
   1042   2146   2116     1   112.4800480 524.673600
   1045   2178   2148     1   112.4800480 524.673600
   1050   1051   1063     1   114.2100488 537.225600
   1050   1054   1066     1   114.2100488 537.225600
   1050   1057   1060     1   114.2100488 537.225600
   1051   1050   1054     1   109.6600471 523.836800
   1051   1050   1057     1   109.6600471 523.836800
   1051   1063   1075     1   111.5100476 526.347200
   1054   1050   1057     1   109.6600471 523.836800
   1054   1066   1072     1   111.5100476 526.347200
   1057   1060   1069     1   111.5100476 526.347200
   1060   1069   1078     1   107.9700462 569.024000
   1063   1075   2242     1   107.9700462 569.024000
   1066   1072   2210     1   107.9700462 569.024000
   1072   2210   2180     1   112.4800480 524.673600
   1075   2242   2212     1   112.4800480 524.673600
   1080   1081   1093     1   114.2100488 537.225600
   1080   1084   1096     1   114.2100488 537.225600
   1080   1087   1090     1   114.2100488 537.225600
   1081   1080   1084     1   109.6600471 523.836800
   1081   1080   1087     1   109.6600471 523.836800
   1081   1093   1105     1   111.5100476 526.347200
   1084   1080   1087     1   109.6600471 523.836800
   1084   1096   1102     1   111.5100476 526.347200
   1087   1090   1099     1   111.5100476 526.347200
   1090   1099   1108     1   107.9700462 569.024000
   1093   1105   2306     1   107.9700462 569.024000
   1096   1102   2274     1   107.9700462 569.024000
   1102   2274   2244     1   112.4800480 524.673600
   1105   2306   2276     1   112.4800480 524.673600
   1110   1111   1123     1   114.2100488 537.225600
   1110   1114   1126     1   114.2100488 537.225600
   1110   1117   1120     1   114.2100488 537.225600
   1111   1110   1114     1   109.6600471 523.836800
   1111   1110   1117     1   109.6600471 523.836800
   1111   1123   1135     1   111.5100476 526.347200
   1114   1110   1117     1   109.6600471 523.836800
   1114   1126   1132     1   111.5100476 526.347200
   1117   1120   1129     1   111.5100476 526.347200
   1120   1129   1138     1   107.9700462 569.024000
   1123   1135   2370     1   107.9700462 569.024000
   1126   1132   2338     1   107.9700462 569.024000
   1132   2338   2308     1   112.4800480 524.673600
   1135   2370   2340     1   112.4800480 524.673600
   1140   1141   1153     1   114.2100488 537.225600
   1140   1144   1156     1   114.2100488 537.225600
   1140   1147   1150     1   114.2100488 537.225600
   1141   1140   1144     1   109.6600471 523.836800
   1141   1140   1147     1   109.6600471 523.836800
   1141   1153   1165     1   111.5100476 526.347200
   1144   1140   1147     1   109.6600471 523.836800
   1144   1156   1162     1   111.5100476 526.347200
   1147   1150   1159     1   111.5100476 526.347200
   1150   1159   1168     1   107.9700462 569.024000
   1153   1165   2434     1   107.9700462 569.024000
   1156   1162   2402     1   107.9700462 569.024000
   1162   2402   2372     1   112.4800480 524.673600
   1165   2434   2404     1   112.4800480 524.673600
   1170   1171   1183     1   114.2100488 537.225600
   1170   1174   1186     1   114.2100488 537.225600
   1170   1177   1180     1   114.2100488 537.225600
   1171   1170   1174     1   109.6600471 523.836800
   1171   1170   1177     1   109.6600471 523.836800
   1171   1183   1195     1   111.5100476 526.347200
   1174   1170   1177     1   109.6600471 523.836800
   1174   1186   1192     1   111.5100476 526.347200
   1177   1180   1189     1   111.5100476 526.347200
   1180   1189   1198     1   107.9700462 569.024000
   1183   1195   2498     1   107.9700462 569.024000
   1186   1192   2466     1   107.9700462 569.024000
   1192   2466   2436     1   112.4800480 524.673600
   1195   2498   2468     1   112.4800480 524.673600
   1200   1201   1213     1   114.2100488 537.225600
   1200   1204   1216     1   114.2100488 537.225600
   1200   1207   1210     1   114.2100488 537.225600
   1201   1200   1204     1   109.6600471 523.836800
   1201   1200   1207     1   109.6600471 523.836800
   1201   1213   1225     1   111.5100476 526.347200
   1204   1200   1207     1   109.6600471 523.836800
   1204   1216   1222     1   111.5100476 526.347200
   1207   1210   1219     1   111.5100476 526.347200
   1210   1219   1228     1   107.9700462 569.024000
   1213   1225   2562     1   107.9700462 569.024000
   1216   1222   2530     1   107.9700462 569.024000
   1222   2530   2500     1   112.4800480 524.673600
   1225   2562   2532     1   112.4800480 524.673600
   1230   1231   1243     1   114.2100488 537.225600
   1230   1234   1246     1   114.2100488 537.225600
   1230   1237   1240     1   114.2100488 537.225600
   1231   1230   1234     1   109.6600471 523.836800
   1231   1230   1237     1   109.6600471 523.836800
   1231   1243   1255     1   111.5100476 526.347200
   1234   1230   1237     1   109.6600471 523.836800
   1234   1246   1252     1   111.5100476 526.347200
   1237   1240   1249     1   111.5100476 526.347200
   1240   1249   1258     1   107.9700462 569.024000
   1243   1255   2626     1   107.9700462 569.024000
   1246   1252   2594     1   107.9700462 569.024000
   1252   2594   2564     1   112.4800480 524.673600
   1255   2626   2596     1   112.4800480 524.673600
   1260   1261   1273     1   114.2100488 537.225600
   1260   1264   1276     1   114.2100488 537.225600
   1260   1267   1270     1   114.2100488 537.225600
   1261   1260   1264     1   109.6600471 523.836800
   1261   1260   1267     1   109.6600471 523.836800
   1261   1273   1285     1   111.5100476 526.347200
   1264   1260   1267     1   109.6600471 523.836800
   1264   1276   1282     1   111.5100476 526.347200
   1267   1270   1279     1   111.5100476 526.347200
   1270   1279   1288     1   107.9700462 569.024000
   1273   1285   2690     1   107.9700462 569.024000
   1276   1282   2658     1   107.9700462 569.024000
   1282   2658   2628     1   112.4800480 524.673600
   1285   2690   2660     1   112.4800480 524.673600
   1290   1291   1303     1   114.2100488 537.225600
   1290   1294   1306     1   114.2100488 537.225600
   1290   1297   1300     1   114.2100488 537.225600
   1291   1290   1294     1   109.6600471 523.836800
   1291   1290   1297     1   109.6600471 523.836800
   1291   1303   1315     1   111.5100476 526.347200
   1294   1290   1297     1   109.6600471 523.836800
   1294   1306   1312     1   111.5100476 526.347200
   1297   1300   1309     1   111.5100476 526.347200
   1300   1309   1318     1   107.9700462 569.024000
   1303   1315   2754     1   107.9700462 569.024000
   1306   1312   2722     1   107.9700462 569.024000
   1312   2722   2692     1   112.4800480 524.673600
   1315   2754   2724     1   112.4800480 524.673600
   1320   1321   1333     1   114.2100488 537.225600
   1320   1324   1336     1   114.2100488 537.225600
   1320   1327   1330     1   114.2100488 537.225600
   1321   1320   1324     1   109.6600471 523.836800
   1321   1320   1327     1   109.6600471 523.836800
   1321   1333   1345     1   111.5100476 526.347200
   1324   1320   1327     1   109.6600471 523.836800
   1324   1336   1342     1   111.5100476 526.347200
   1327   1330   1339     1   111.5100476 526.347200
   1330   1339   1348     1   107.9700462 569.024000
   1333   1345   2818     1   107.9700462 569.024000
   1336   1342   2786     1   107.9700462 569.024000
   1342   2786   2756     1   112.4800480 524.673600
   1345   2818   2788     1   112.4800480 524.673600
   1350   1351   1363     1   114.2100488 537.225600
   1350   1354   1366     1   114.2100488 537.225600
   1350   1357   1360     1   114.2100488 537.225600
   1351   1350   1354     1   109.6600471 523.836800
   1351   1350   1357     1   109.6600471 523.836800
   1351   1363   1375     1   111.5100476 526.347200
   1354   1350   1357     1   109.6600471 523.836800
   1354   1366   1372     1   111.5100476 526.347200
   1357   1360   1369     1   111.5100476 526.347200
   1360   1369   1378     1   107.9700462 569.024000
   1363   1375   2882     1   107.9700462 569.024000
   1366   1372   2850     1   107.9700462 569.024000
   1372   2850   2820     1   112.4800480 524.673600
   1375   2882   2852     1   112.4800480 524.673600
   1380   1381   1393     1   114.2100488 537.225600
   1380   1384   1396     1   114.2100488 537.225600
   1380   1387   1390     1   114.2100488 537.225600
   1381   1380   1384     1   109.6600471 523.836800
   1381   1380   1387     1   109.6600471 523.836800
   1381   1393   1405     1   111.5100476 526.347200
   1384   1380   1387     1   109.6600471 523.836800
   1384   1396   1402     1   111.5100476 526.347200
   1387   1390   1399     1   111.5100476 526.347200
   1390   1399   1408     1   107.9700462 569.024000
   1393   1405   2946     1   107.9700462 569.024000
   1396   1402   2914     1   107.9700462 569.024000
   1402   2914   2884     1   112.4800480 524.673600
   1405   2946   2916     1   112.4800480 524.673600
   1410   1411   1423     1   114.2100488 537.225600
   1410   1414   1426     1   114.2100488 537.225600
   1410   1417   1420     1   114.2100488 537.225600
   1411   1410   1414     1   109.6600471 523.836800
   1411   1410   1417     1   109.6600471 523.836800
   1411   1423   1435     1   111.5100476 526.347200
   1414   1410   1417     1   109.6600471 523.836800
   1414   1426   1432     1   111.5100476 526.347200
   1417   1420   1429     1   111.5100476 526.347200
   1420   1429   1438     1   107.9700462 569.024000
   1423   1435   3010     1   107.9700462 569.024000
   1426   1432   2978     1   107.9700462 569.024000
   1432   2978   2948     1   112.4800480 524.673600
   1435   3010   2980     1   112.4800480 524.673600
   1440   1441   1453     1   114.2100488 537.225600
   1440   1444   1456     1   114.2100488 537.225600
   1440   1447   1450     1   114.2100488 537.225600
   1441   1440   1444     1   109.6600471 523.836800
   1441   1440   1447     1   109.6600471 523.836800
   1441   1453   1465     1   111.5100476 526.347200
   1444   1440   1447     1   109.6600471 523.836800
   1444   1456   1462     1   111.5100476 526.347200
   1447   1450   1459     1   111.5100476 526.347200
   1450   1459   1468     1   107.9700462 569.024000
   1453   1465   3074     1   107.9700462 569.024000
   1456   1462   3042     1   107.9700462 569.024000
   1462   3042   3012     1   112.4800480 524.673600
   1465   3074   3044     1   112.4800480 524.673600
   1470   1471   1483     1   114.2100488 537.225600
   1470   1474   1486     1   114.2100488 537.225600
   1470   1477   1480     1   114.2100488 537.225600
   1471   1470   1474     1   109.6600471 523.836800
   1471   1470   1477     1   109.6600471 523.836800
   1471   1483   1495     1   111.5100476 526.347200
   1474   1470   1477     1   109.6600471 523.836800
   1474   1486   1492     1   111.5100476 526.347200
   1477   1480   1489     1   111.5100476 526.347200
   1480   1489   1498     1   107.9700462 569.024000
   1483   1495   3138     1   107.9700462 569.024000
   1486   1492   3106     1   107.9700462 569.024000
   1492   3106   3076     1   112.4800480 524.673600
   1495   3138   3108     1   112.4800480 524.673600
   1500   1501   1513     1   114.2100488 537.225600
   1500   1504   1516     1   114.2100488 537.225600
   1500   1507   1510     1   114.2100488 537.225600
   1501   1500   1504     1   109.6600471 523.836800
   1501   1500   1507     1   109.6600471 523.836800
   1501   1513   1525     1   111.5100476 526.347200
   1504   1500   1507     1   109.6600471 523.836800
   1504   1516   1522     1   111.5100476 526.347200
   1507   1510   1519     1   111.5100476 526.347200
   1510   1519   1528     1   107.9700462 569.024000
   1513   1525   3202     1   107.9700462 569.024000
   1516   1522   3170     1   107.9700462 569.024000
   1522   3170   3140     1   112.4800480 524.673600
   1525   3202   3172     1   112.4800480 524.673600
   1530   1531   1543     1   114.2100488 537.225600
   1530   1534   1546     1   114.2100488 537.225600
   1530   1537   1540     1   114.2100488 537.225600
   1531   1530   1534     1   109.6600471 523.836800
   1531   1530   1537     1   109.6600471 523.836800
   1531   1543   1555     1   111.5100476 526.347200
   1534   1530   1537     1   109.6600471 523.836800
   1534   1546   1552     1   111.5100476 526.347200
   1537   1540   1549     1   111.5100476 526.347200
   1540   1549   1558     1   107.9700462 569.024000
   1543   1555   3266     1   107.9700462 569.024000
   1546   1552   3234     1   107.9700462 569.024000
   1552   3234   3204     1   112.4800480 524.673600
   1555   3266   3236     1   112.4800480 524.673600
   1560   1561   1573     1   114.2100488 537.225600
   1560   1564   1576     1   114.2100488 537.225600
   1560   1567   1570     1   114.2100488 537.225600
   1561   1560   1564     1   109.6600471 523.836800
   1561   1560   1567     1   109.6600471 523.836800
   1561   1573   1585     1   111.5100476 526.347200
   1564   1560   1567     1   109.6600471 523.836800
   1564   1576   1582     1   111.5100476 526.347200
   1567   1570   1579     1   111.5100476 526.347200
   1570   1579   1588     1   107.9700462 569.024000
   1573   1585   3330     1   107.9700462 569.024000
   1576   1582   3298     1   107.9700462 569.024000
   1582   3298   3268     1   112.4800480 524.673600
   1585   3330   3300     1   112.4800480 524.673600
   1590   1591   1603     1   114.2100488 537.225600
   1590   1594   1606     1   114.2100488 537.225600
   1590   1597   1600     1   114.2100488 537.225600
   1591   1590   1594     1   109.6600471 523.836800
   1591   1590   1597     1   109.6600471 523.836800
   1591   1603   1615     1   111.5100476 526.347200
   1594   1590   1597     1   109.6600471 523.836800
   1594   1606   1612     1   111.5100476 526.347200
   1597   1600   1609     1   111.5100476 526.347200
   1600   1609   1618     1   107.9700462 569.024000
   1603   1615   3394     1   107.9700462 569.024000
   1606   1612   3362     1   107.9700462 569.024000
   1612   3362   3332     1   112.4800480 524.673600
   1615   3394   3364     1   112.4800480 524.673600
   1620   1621   1633     1   114.2100488 537.225600
   1620   1624   1636     1   114.2100488 537.225600
   1620   1627   1630     1   114.2100488 537.225600
   1621   1620   1624     1   109.6600471 523.836800
   1621   1620   1627     1   109.6600471 523.836800
   1621   1633   1645     1   111.5100476 526.347200
   1624   1620   1627     1   109.6600471 523.836800
   1624   1636   1642     1   111.5100476 526.347200
   1627   1630   1639     1   111.5100476 526.347200
   1630   1639   1648     1   107.9700462 569.024000
   1633   1645   3458     1   107.9700462 569.024000
   1636   1642   3426     1   107.9700462 569.024000
   1642   3426   3396     1   112.4800480 524.673600
   1645   3458   3428     1   112.4800480 524.673600
   1650   1651   1663     1   114.2100488 537.225600
   1650   1654   1666     1   114.2100488 537.225600
   1650   1657   1660     1   114.2100488 537.225600
   1651   1650   1654     1   109.6600471 523.836800
   1651   1650   1657     1   109.6600471 523.836800
   1651   1663   1675     1   111.5100476 526.347200
   1654   1650   1657     1   109.6600471 523.836800
   1654   1666   1672     1   111.5100476 526.347200
   1657   1660   1669     1   111.5100476 526.347200
   1660   1669   1678     1   107.9700462 569.024000
   1663   1675   3522     1   107.9700462 569.024000
   1666   1672   3490     1   107.9700462 569.024000
   1672   3490   3460     1   112.4800480 524.673600
   1675   3522   3492     1   112.4800480 524.673600
   1680   1681   1693     1   114.2100488 537.225600
   1680   1684   1696     1   114.2100488 537.225600
   1680   1687   1690     1   114.2100488 537.225600
   1681   1680   1684     1   109.6600471 523.836800
   1681   1680   1687     1   109.6600471 523.836800
   1681   1693   1705     1   111.5100476 526.347200
   1684   1680   1687     1   109.6600471 523.836800
   1684   1696   1702     1   111.5100476 526.347200
   1687   1690   1699     1   111.5100476 526.347200
   1690   1699   1708     1   107.9700462 569.024000
   1693   1705   3586     1   107.9700462 569.024000
   1696   1702   3554     1   107.9700462 569.024000
   1702   3554   3524     1   112.4800480 524.673600
   1705   3586   3556     1   112.4800480 524.673600
   1710   1711   1723     1   114.2100488 537.225600
   1710   1714   1726     1   114.2100488 537.225600
   1710   1717   1720     1   114.2100488 537.225600
   1711   1710   1714     1   109.6600471 523.836800
   1711   1710   1717     1   109.6600471 523.836800
   1711   1723   1735     1   111.5100476 526.347200
   1714   1710   1717     1   109.6600471 523.836800
   1714   1726   1732     1   111.5100476 526.347200
   1717   1720   1729     1   111.5100476 526.347200
   1720   1729   1738     1   107.9700462 569.024000
   1723   1735   3650     1   107.9700462 569.024000
   1726   1732   3618     1   107.9700462 569.024000
   1732   3618   3588     1   112.4800480 524.673600
   1735   3650   3620     1   112.4800480 524.673600
   1740   1741   1753     1   114.2100488 537.225600
   1740   1744   1756     1   114.2100488 537.225600
   1740   1747   1750     1   114.2100488 537.225600
   1741   1740   1744     1   109.6600471 523.836800
   1741   1740   1747     1   109.6600471 523.836800
   1741   1753   1765     1   111.5100476 526.347200
   1744   1740   1747     1   109.6600471 523.836800
   1744   1756   1762     1   111.5100476 526.347200
   1747   1750   1759     1   111.5100476 526.347200
   1750   1759   1768     1   107.9700462 569.024000
   1753   1765   3714     1   107.9700462 569.024000
   1756   1762   3682     1   107.9700462 569.024000
   1762   3682   3652     1   112.4800480 524.673600
   1765   3714   3684     1   112.4800480 524.673600
   1770   1771   1783     1   114.2100488 537.225600
   1770   1774   1786     1   114.2100488 537.225600
   1770   1777   1780     1   114.2100488 537.225600
   1771   1770   1774     1   109.6600471 523.836800
   1771   1770   1777     1   109.6600471 523.836800
   1771   1783   1795     1   111.5100476 526.347200
   1774   1770   1777     1   109.6600471 523.836800
   1774   1786   1792     1   111.5100476 526.347200
   1777   1780   1789     1   111.5100476 526.347200
   1780   1789   1798     1   107.9700462 569.024000
   1783   1795   3778     1   107.9700462 569.024000
   1786   1792   3746     1   107.9700462 569.024000
   1792   3746   3716     1   112.4800480 524.673600
   1795   3778   3748     1   112.4800480 524.673600
   1800   1801   1813     1   114.2100488 537.225600
   1800   1804   1816     1   114.2100488 537.225600
   1800   1807   1810     1   114.2100488 537.225600
   1801   1800   1804     1   109.6600471 523.836800
   1801   1800   1807     1   109.6600471 523.836800
   1801   1813   1825     1   111.5100476 526.347200
   1804   1800   1807     1   109.6600471 523.836800
   1804   1816   1822     1   111.5100476 526.347200
   1807   1810   1819     1   111.5100476 526.347200
   1810   1819   1828     1   107.9700462 569.024000
   1813   1825   3842     1   107.9700462 569.024000
   1816   1822   3810     1   107.9700462 569.024000
   1822   3810   3780     1   112.4800480 524.673600
   1825   3842   3812     1   112.4800480 524.673600
   1830   1831   1843     1   114.2100488 537.225600
   1830   1834   1846     1   114.2100488 537.225600
   1830   1837   1840     1   114.2100488 537.225600
   1831   1830   1834     1   109.6600471 523.836800
   1831   1830   1837     1   109.6600471 523.836800
   1831   1843   1855     1   111.5100476 526.347200
   1834   1830   1837     1   109.6600471 523.836800
   1834   1846   1852     1   111.5100476 526.347200
   1837   1840   1849     1   111.5100476 526.347200
   1840   1849   1858     1   107.9700462 569.024000
   1843   1855   3906     1   107.9700462 569.024000
   1846   1852   3874     1   107.9700462 569.024000
   1852   3874   3844     1   112.4800480 524.673600
   1855   3906   3876     1   112.4800480 524.673600
   1860   1863   1866     1   111.5100476 526.347200
   1863   1860   1890     1   107.9700462 569.024000
   1863   1866   1869     1   114.2100488 537.225600
   1866   1869   1870     1   109.6600471 523.836800
   1866   1869   1880     1   109.6600471 523.836800
   1869   1870   1873     1   114.2100488 537.225600
   1869   1880   1883     1   114.2100488 537.225600
   1870   1869   1880     1   109.6600471 523.836800
   1870   1873   1876     1   111.0400475 529.694400
   1873   1876   1877     1   123.2000528 564.003200
   1873   1876   1878     1   112.7300484 572.371200
   1877   1876   1878     1   122.1000523 635.131200
   1880   1883   1886     1   111.0400475 529.694400
   1883   1886   1887     1   123.2000528 564.003200
   1883   1886   1888     1   112.7300484 572.371200
   1887   1886   1888     1   122.1000523 635.131200
   1892   1895   1898     1   111.5100476 526.347200
   1895   1898   1901     1   114.2100488 537.225600
   1895   1892   1922     1   107.9700462 569.024000
   1898   1901   1902     1   109.6600471 523.836800
   1898   1901   1912     1   109.6600471 523.836800
   1901   1902   1905     1   114.2100488 537.225600
   1901   1912   1915     1   114.2100488 537.225600
   1902   1905   1908     1   111.0400475 529.694400
   1902   1901   1912     1   109.6600471 523.836800
   1905   1908   1909     1   123.2000528 564.003200
   1905   1908   1910     1   112.7300484 572.371200
   1909   1908   1910     1   122.1000523 635.131200
   1912   1915   1918     1   111.0400475 529.694400
   1915   1918   1919     1   123.2000528 564.003200
   1915   1918   1920     1   112.7300484 572.371200
   1919   1918   1920     1   122.1000523 635.131200
   1924   1927   1930     1   111.5100476 526.347200
   1927   1924   1954     1   107.9700462 569.024000
   1927   1930   1933     1   114.2100488 537.225600
   1930   1933   1934     1   109.6600471 523.836800
   1930   1933   1944     1   109.6600471 523.836800
   1933   1934   1937     1   114.2100488 537.225600
   1933   1944   1947     1   114.2100488 537.225600
   1934   1933   1944     1   109.6600471 523.836800
   1934   1937   1940     1   111.0400475 529.694400
   1937   1940   1941     1   123.2000528 564.003200
   1937   1940   1942     1   112.7300484 572.371200
   1941   1940   1942     1   122.1000523 635.131200
   1944   1947   1950     1   111.0400475 529.694400
   1947   1950   1951     1   123.2000528 564.003200
   1947   1950   1952     1   112.7300484 572.371200
   1951   1950   1952     1   122.1000523 635.131200
   1956   1959   1962     1   111.5100476 526.347200
   1959   1962   1965     1   114.2100488 537.225600
   1959   1956   1986     1   107.9700462 569.024000
   1962   1965   1966     1   109.6600471 523.836800
   1962   1965   1976     1   109.6600471 523.836800
   1965   1966   1969     1   114.2100488 537.225600
   1965   1976   1979     1   114.2100488 537.225600
   1966   1969   1972     1   111.0400475 529.694400
   1966   1965   1976     1   109.6600471 523.836800
   1969   1972   1973     1   123.2000528 564.003200
   1969   1972   1974     1   112.7300484 572.371200
   1973   1972   1974     1   122.1000523 635.131200
   1976   1979   1982     1   111.0400475 529.694400
   1979   1982   1983     1   123.2000528 564.003200
   1979   1982   1984     1   112.7300484 572.371200
   1983   1982   1984     1   122.1000523 635.131200
   1988   1991   1994     1   111.5100476 526.347200
   1991   1988   2018     1   107.9700462 569.024000
   1991   1994   1997     1   114.2100488 537.225600
   1994   1997   1998     1   109.6600471 523.836800
   1994   1997   2008     1   109.6600471 523.836800
   1997   1998   2001     1   114.2100488 537.225600
   1997   2008   2011     1   114.2100488 537.225600
   1998   1997   2008     1   109.6600471 523.836800
   1998   2001   2004     1   111.0400475 529.694400
   2001   2004   2005     1   123.2000528 564.003200
   2001   2004   2006     1   112.7300484 572.371200
   2005   2004   2006     1   122.1000523 635.131200
   2008   2011   2014     1   111.0400475 529.694400
   2011   2014   2015     1   123.2000528 564.003200
   2011   2014   2016     1   112.7300484 572.371200
   2015   2014   2016     1   122.1000523 635.131200
   2020   2023   2026     1   111.5100476 526.347200
   2023   2026   2029     1   114.2100488 537.225600
   2023   2020   2050     1   107.9700462 569.024000
   2026   2029   2030     1   109.6600471 523.836800
   2026   2029   2040     1   109.6600471 523.836800
   2029   2030   2033     1   114.2100488 537.225600
   2029   2040   2043     1   114.2100488 537.225600
   2030   2033   2036     1   111.0400475 529.694400
   2030   2029   2040     1   109.6600471 523.836800
   2033   2036   2037     1   123.2000528 564.003200
   2033   2036   2038     1   112.7300484 572.371200
   2037   2036   2038     1   122.1000523 635.131200
   2040   2043   2046     1   111.0400475 529.694400
   2043   2046   2047     1   123.2000528 564.003200
   2043   2046   2048     1   112.7300484 572.371200
   2047   2046   2048     1   122.1000523 635.131200
   2052   2055   2058     1   111.5100476 526.347200
   2055   2052   2082     1   107.9700462 569.024000
   2055   2058   2061     1   114.2100488 537.225600
   2058   2061   2062     1   109.6600471 523.836800
   2058   2061   2072     1   109.6600471 523.836800
   2061   2062   2065     1   114.2100488 537.225600
   2061   2072   2075     1   114.2100488 537.225600
   2062   2061   2072     1   109.6600471 523.836800
   2062   2065   2068     1   111.0400475 529.694400
   2065   2068   2069     1   123.2000528 564.003200
   2065   2068   2070     1   112.7300484 572.371200
   2069   2068   2070     1   122.1000523 635.131200
   2072   2075   2078     1   111.0400475 529.694400
   2075   2078   2079     1   123.2000528 564.003200
   2075   2078   2080     1   112.7300484 572.371200
   2079   2078   2080     1   122.1000523 635.131200
   2084   2087   2090     1   111.5100476 526.347200
   2087   2090   2093     1   114.2100488 537.225600
   2087   2084   2114     1   107.9700462 569.024000
   2090   2093   2094     1   109.6600471 523.836800
   2090   2093   2104     1   109.6600471 523.836800
   2093   2094   2097     1   114.2100488 537.225600
   2093   2104   2107     1   114.2100488 537.225600
   2094   2097   2100     1   111.0400475 529.694400
   2094   2093   2104     1   109.6600471 523.836800
   2097   2100   2101     1   123.2000528 564.003200
   2097   2100   2102     1   112.7300484 572.371200
   2101   2100   2102     1   122.1000523 635.131200
   2104   2107   2110     1   111.0400475 529.694400
   2107   2110   2111     1   123.2000528 564.003200
   2107   2110   2112     1   112.7300484 572.371200
   2111   2110   2112     1   122.1000523 635.131200
   2116   2119   2122     1   111.5100476 526.347200
   2119   2116   2146     1   107.9700462 569.024000
   2119   2122   2125     1   114.2100488 537.225600
   2122   2125   2126     1   109.6600471 523.836800
   2122   2125   2136     1   109.6600471 523.836800
   2125   2126   2129     1   114.2100488 537.225600
   2125   2136   2139     1   114.2100488 537.225600
   2126   2125   2136     1   109.6600471 523.836800
   2126   2129   2132     1   111.0400475 529.694400
   2129   2132   2133     1   123.2000528 564.003200
   2129   2132   2134     1   112.7300484 572.371200
   2133   2132   2134     1   122.1000523 635.131200
   2136   2139   2142     1   111.0400475 529.694400
   2139   2142   2143     1   123.2000528 564.003200
   2139   2142   2144     1   112.7300484 572.371200
   2143   2142   2144     1   122.1000523 635.131200
   2148   2151   2154     1   111.5100476 526.347200
   2151   2154   2157     1   114.2100488 537.225600
   2151   2148   2178     1   107.9700462 569.024000
   2154   2157   2158     1   109.6600471 523.836800
   2154   2157   2168     1   109.6600471 523.836800
   2157   2158   2161     1   114.2100488 537.225600
   2157   2168   2171     1   114.2100488 537.225600
   2158   2161   2164     1   111.0400475 529.694400
   2158   2157   2168     1   109.6600471 523.836800
   2161   2164   2165     1   123.2000528 564.003200
   2161   2164   2166     1   112.7300484 572.371200
   2165   2164   2166     1   122.1000523 635.131200
   2168   2171   2174     1   111.0400475 529.694400
   2171   2174   2175     1   123.2000528 564.003200
   2171   2174   2176     1   112.7300484 572.371200
   2175   2174   2176     1   122.1000523 635.131200
   2180   2183   2186     1   111.5100476 526.347200
   2183   2180   2210     1   107.9700462 569.024000
   2183   2186   2189     1   114.2100488 537.225600
   2186   2189   2190     1   109.6600471 523.836800
   2186   2189   2200     1   109.6600471 523.836800
   2189   2190   2193     1   114.2100488 537.225600
   2189   2200   2203     1   114.2100488 537.225600
   2190   2189   2200     1   109.6600471 523.836800
   2190   2193   2196     1   111.0400475 529.694400
   2193   2196   2197     1   123.2000528 564.003200
   2193   2196   2198     1   112.7300484 572.371200
   2197   2196   2198     1   122.1000523 635.131200
   2200   2203   2206     1   111.0400475 529.694400
   2203   2206   2207     1   123.2000528 564.003200
   2203   2206   2208     1   112.7300484 572.371200
   2207   2206   2208     1   122.1000523 635.131200
   2212   2215   2218     1   111.5100476 526.347200
   2215   2218   2221     1   114.2100488 537.225600
   2215   2212   2242     1   107.9700462 569.024000
   2218   2221   2222     1   109.6600471 523.836800
   2218   2221   2232     1   109.6600471 523.836800
   2221   2222   2225     1   114.2100488 537.225600
   2221   2232   2235     1   114.2100488 537.225600
   2222   2225   2228     1   111.0400475 529.694400
   2222   2221   2232     1   109.6600471 523.836800
   2225   2228   2229     1   123.2000528 564.003200
   2225   2228   2230     1   112.7300484 572.371200
   2229   2228   2230     1   122.1000523 635.131200
   2232   2235   2238     1   111.0400475 529.694400
   2235   2238   2239     1   123.2000528 564.003200
   2235   2238   2240     1   112.7300484 572.371200
   2239   2238   2240     1   122.1000523 635.131200
   2244   2247   2250     1   111.5100476 526.347200
   2247   2244   2274     1   107.9700462 569.024000
   2247   2250   2253     1   114.2100488 537.225600
   2250   2253   2254     1   109.6600471 523.836800
   2250   2253   2264     1   109.6600471 523.836800
   2253   2254   2257     1   114.2100488 537.225600
   2253   2264   2267     1   114.2100488 537.225600
   2254   2253   2264     1   109.6600471 523.836800
   2254   2257   2260     1   111.0400475 529.694400
   2257   2260   2261     1   123.2000528 564.003200
   2257   2260   2262     1   112.7300484 572.371200
   2261   2260   2262     1   122.1000523 635.131200
   2264   2267   2270     1   111.0400475 529.694400
   2267   2270   2271     1   123.2000528 564.003200
   2267   2270   2272     1   112.7300484 572.371200
   2271   2270   2272     1   122.1000523 635.131200
   2276   2279   2282     1   111.5100476 526.347200
   2279   2282   2285     1   114.2100488 537.225600
   2279   2276   2306     1   107.9700462 569.024000
   2282   2285   2286     1   109.6600471 523.836800
   2282   2285   2296     1   109.6600471 523.836800
   2285   2286   2289     1   114.2100488 537.225600
   2285   2296   2299     1   114.2100488 537.225600
   2286   2289   2292     1   111.0400475 529.694400
   2286   2285   2296     1   109.6600471 523.836800
   2289   2292   2293     1   123.2000528 564.003200
   2289   2292   2294     1   112.7300484 572.371200
   2293   2292   2294     1   122.1000523 635.131200
   2296   2299   2302     1   111.0400475 529.694400
   2299   2302   2303     1   123.2000528 564.003200
   2299   2302   2304     1   112.7300484 572.371200
   2303   2302   2304     1   122.1000523 635.131200
   2308   2311   2314     1   111.5100476 526.347200
   2311   2308   2338     1   107.9700462 569.024000
   2311   2314   2317     1   114.2100488 537.225600
   2314   2317   2318     1   109.6600471 523.836800
   2314   2317   2328     1   109.6600471 523.836800
   2317   2318   2321     1   114.2100488 537.225600
   2317   2328   2331     1   114.2100488 537.225600
   2318   2317   2328     1   109.6600471 523.836800
   2318   2321   2324     1   111.0400475 529.694400
   2321   2324   2325     1   123.2000528 564.003200
   2321   2324   2326     1   112.7300484 572.371200
   2325   2324   2326     1   122.1000523 635.131200
   2328   2331   2334     1   111.0400475 529.694400
   2331   2334   2335     1   123.2000528 564.003200
   2331   2334   2336     1   112.7300484 572.371200
   2335   2334   2336     1   122.1000523 635.131200
   2340   2343   2346     1   111.5100476 526.347200
   2343   2346   2349     1   114.2100488 537.225600
   2343   2340   2370     1   107.9700462 569.024000
   2346   2349   2350     1   109.6600471 523.836800
   2346   2349   2360     1   109.6600471 523.836800
   2349   2350   2353     1   114.2100488 537.225600
   2349   2360   2363     1   114.2100488 537.225600
   2350   2353   2356     1   111.0400475 529.694400
   2350   2349   2360     1   109.6600471 523.836800
   2353   2356   2357     1   123.2000528 564.003200
   2353   2356   2358     1   112.7300484 572.371200
   2357   2356   2358     1   122.1000523 635.131200
   2360   2363   2366     1   111.0400475 529.694400
   2363   2366   2367     1   123.2000528 564.003200
   2363   2366   2368     1   112.7300484 572.371200
   2367   2366   2368     1   122.1000523 635.131200
   2372   2375   2378     1   111.5100476 526.347200
   2375   2372   2402     1   107.9700462 569.024000
   2375   2378   2381     1   114.2100488 537.225600
   2378   2381   2382     1   109.6600471 523.836800
   2378   2381   2392     1   109.6600471 523.836800
   2381   2382   2385     1   114.2100488 537.225600
   2381   2392   2395     1   114.2100488 537.225600
   2382   2381   2392     1   109.6600471 523.836800
   2382   2385   2388     1   111.0400475 529.694400
   2385   2388   2389     1   123.2000528 564.003200
   2385   2388   2390     1   112.7300484 572.371200
   2389   2388   2390     1   122.1000523 635.131200
   2392   2395   2398     1   111.0400475 529.694400
   2395   2398   2399     1   123.2000528 564.003200
   2395   2398   2400     1   112.7300484 572.371200
   2399   2398   2400     1   122.1000523 635.131200
   2404   2407   2410     1   111.5100476 526.347200
   2407   2410   2413     1   114.2100488 537.225600
   2407   2404   2434     1   107.9700462 569.024000
   2410   2413   2414     1   109.6600471 523.836800
   2410   2413   2424     1   109.6600471 523.836800
   2413   2414   2417     1   114.2100488 537.225600
   2413   2424   2427     1   114.2100488 537.225600
   2414   2417   2420     1   111.0400475 529.694400
   2414   2413   2424     1   109.6600471 523.836800
   2417   2420   2421     1   123.2000528 564.003200
   2417   2420   2422     1   112.7300484 572.371200
   2421   2420   2422     1   122.1000523 635.131200
   2424   2427   2430     1   111.0400475 529.694400
   2427   2430   2431     1   123.2000528 564.003200
   2427   2430   2432     1   112.7300484 572.371200
   2431   2430   2432     1   122.1000523 635.131200
   2436   2439   2442     1   111.5100476 526.347200
   2439   2436   2466     1   107.9700462 569.024000
   2439   2442   2445     1   114.2100488 537.225600
   2442   2445   2446     1   109.6600471 523.836800
   2442   2445   2456     1   109.6600471 523.836800
   2445   2446   2449     1   114.2100488 537.225600
   2445   2456   2459     1   114.2100488 537.225600
   2446   2445   2456     1   109.6600471 523.836800
   2446   2449   2452     1   111.0400475 529.694400
   2449   2452   2453     1   123.2000528 564.003200
   2449   2452   2454     1   112.7300484 572.371200
   2453   2452   2454     1   122.1000523 635.131200
   2456   2459   2462     1   111.0400475 529.694400
   2459   2462   2463     1   123.2000528 564.003200
   2459   2462   2464     1   112.7300484 572.371200
   2463   2462   2464     1   122.1000523 635.131200
   2468   2471   2474     1   111.5100476 526.347200
   2471   2474   2477     1   114.2100488 537.225600
   2471   2468   2498     1   107.9700462 569.024000
   2474   2477   2478     1   109.6600471 523.836800
   2474   2477   2488     1   109.6600471 523.836800
   2477   2478   2481     1   114.2100488 537.225600
   2477   2488   2491     1   114.2100488 537.225600
   2478   2481   2484     1   111.0400475 529.694400
   2478   2477   2488     1   109.6600471 523.836800
   2481   2484   2485     1   123.2000528 564.003200
   2481   2484   2486     1   112.7300484 572.371200
   2485   2484   2486     1   122.1000523 635.131200
   2488   2491   2494     1   111.0400475 529.694400
   2491   2494   2495     1   123.2000528 564.003200
   2491   2494   2496     1   112.7300484 572.371200
   2495   2494   2496     1   122.1000523 635.131200
   2500   2503   2506     1   111.5100476 526.347200
   2503   2500   2530     1   107.9700462 569.024000
   2503   2506   2509     1   114.2100488 537.225600
   2506   2509   2510     1   109.6600471 523.836800
   2506   2509   2520     1   109.6600471 523.836800
   2509   2510   2513     1   114.2100488 537.225600
   2509   2520   2523     1   114.2100488 537.225600
   2510   2509   2520     1   109.6600471 523.836800
   2510   2513   2516     1   111.0400475 529.694400
   2513   2516   2517     1   123.2000528 564.003200
   2513   2516   2518     1   112.7300484 572.371200
   2517   2516   2518     1   122.1000523 635.131200
   2520   2523   2526     1   111.0400475 529.694400
   2523   2526   2527     1   123.2000528 564.003200
   2523   2526   2528     1   112.7300484 572.371200
   2527   2526   2528     1   122.1000523 635.131200
   2532   2535   2538     1   111.5100476 526.347200
   2535   2538   2541     1   114.2100488 537.225600
   2535   2532   2562     1   107.9700462 569.024000
   2538   2541   2542     1   109.6600471 523.836800
   2538   2541   2552     1   109.6600471 523.836800
   2541   2542   2545     1   114.2100488 537.225600
   2541   2552   2555     1   114.2100488 537.225600
   2542   2545   2548     1   111.0400475 529.694400
   2542   2541   2552     1   109.6600471 523.836800
   2545   2548   2549     1   123.2000528 564.003200
   2545   2548   2550     1   112.7300484 572.371200
   2549   2548   2550     1   122.1000523 635.131200
   2552   2555   2558     1   111.0400475 529.694400
   2555   2558   2559     1   123.2000528 564.003200
   2555   2558   2560     1   112.7300484 572.371200
   2559   2558   2560     1   122.1000523 635.131200
   2564   2567   2570     1   111.5100476 526.347200
   2567   2564   2594     1   107.9700462 569.024000
   2567   2570   2573     1   114.2100488 537.225600
   2570   2573   2574     1   109.6600471 523.836800
   2570   2573   2584     1   109.6600471 523.836800
   2573   2574   2577     1   114.2100488 537.225600
   2573   2584   2587     1   114.2100488 537.225600
   2574   2573   2584     1   109.6600471 523.836800
   2574   2577   2580     1   111.0400475 529.694400
   2577   2580   2581     1   123.2000528 564.003200
   2577   2580   2582     1   112.7300484 572.371200
   2581   2580   2582     1   122.1000523 635.131200
   2584   2587   2590     1   111.0400475 529.694400
   2587   2590   2591     1   123.2000528 564.003200
   2587   2590   2592     1   112.7300484 572.371200
   2591   2590   2592     1   122.1000523 635.131200
   2596   2599   2602     1   111.5100476 526.347200
   2599   2602   2605     1   114.2100488 537.225600
   2599   2596   2626     1   107.9700462 569.024000
   2602   2605   2606     1   109.6600471 523.836800
   2602   2605   2616     1   109.6600471 523.836800
   2605   2606   2609     1   114.2100488 537.225600
   2605   2616   2619     1   114.2100488 537.225600
   2606   2609   2612     1   111.0400475 529.694400
   2606   2605   2616     1   109.6600471 523.836800
   2609   2612   2613     1   123.2000528 564.003200
   2609   2612   2614     1   112.7300484 572.371200
   2613   2612   2614     1   122.1000523 635.131200
   2616   2619   2622     1   111.0400475 529.694400
   2619   2622   2623     1   123.2000528 564.003200
   2619   2622   2624     1   112.7300484 572.371200
   2623   2622   2624     1   122.1000523 635.131200
   2628   2631   2634     1   111.5100476 526.347200
   2631   2628   2658     1   107.9700462 569.024000
   2631   2634   2637     1   114.2100488 537.225600
   2634   2637   2638     1   109.6600471 523.836800
   2634   2637   2648     1   109.6600471 523.836800
   2637   2638   2641     1   114.2100488 537.225600
   2637   2648   2651     1   114.2100488 537.225600
   2638   2637   2648     1   109.6600471 523.836800
   2638   2641   2644     1   111.0400475 529.694400
   2641   2644   2645     1   123.2000528 564.003200
   2641   2644   2646     1   112.7300484 572.371200
   2645   2644   2646     1   122.1000523 635.131200
   2648   2651   2654     1   111.0400475 529.694400
   2651   2654   2655     1   123.2000528 564.003200
   2651   2654   2656     1   112.7300484 572.371200
   2655   2654   2656     1   122.1000523 635.131200
   2660   2663   2666     1   111.5100476 526.347200
   2663   2666   2669     1   114.2100488 537.225600
   2663   2660   2690     1   107.9700462 569.024000
   2666   2669   2670     1   109.6600471 523.836800
   2666   2669   2680     1   109.6600471 523.836800
   2669   2670   2673     1   114.2100488 537.225600
   2669   2680   2683     1   114.2100488 537.225600
   2670   2673   2676     1   111.0400475 529.694400
   2670   2669   2680     1   109.6600471 523.836800
   2673   2676   2677     1   123.2000528 564.003200
   2673   2676   2678     1   112.7300484 572.371200
   2677   2676   2678     1   122.1000523 635.131200
   2680   2683   2686     1   111.0400475 529.694400
   2683   2686   2687     1   123.2000528 564.003200
   2683   2686   2688     1   112.7300484 572.371200
   2687   2686   2688     1   122.1000523 635.131200
   2692   2695   2698     1   111.5100476 526.347200
   2695   2692   2722     1   107.9700462 569.024000
   2695   2698   2701     1   114.2100488 537.225600
   2698   2701   2702     1   109.6600471 523.836800
   2698   2701   2712     1   109.6600471 523.836800
   2701   2702   2705     1   114.2100488 537.225600
   2701   2712   2715     1   114.2100488 537.225600
   2702   2701   2712     1   109.6600471 523.836800
   2702   2705   2708     1   111.0400475 529.694400
   2705   2708   2709     1   123.2000528 564.003200
   2705   2708   2710     1   112.7300484 572.371200
   2709   2708   2710     1   122.1000523 635.131200
   2712   2715   2718     1   111.0400475 529.694400
   2715   2718   2719     1   123.2000528 564.003200
   2715   2718   2720     1   112.7300484 572.371200
   2719   2718   2720     1   122.1000523 635.131200
   2724   2727   2730     1   111.5100476 526.347200
   2727   2730   2733     1   114.2100488 537.225600
   2727   2724   2754     1   107.9700462 569.024000
   2730   2733   2734     1   109.6600471 523.836800
   2730   2733   2744     1   109.6600471 523.836800
   2733   2734   2737     1   114.2100488 537.225600
   2733   2744   2747     1   114.2100488 537.225600
   2734   2737   2740     1   111.0400475 529.694400
   2734   2733   2744     1   109.6600471 523.836800
   2737   2740   2741     1   123.2000528 564.003200
   2737   2740   2742     1   112.7300484 572.371200
   2741   2740   2742     1   122.1000523 635.131200
   2744   2747   2750     1   111.0400475 529.694400
   2747   2750   2751     1   123.2000528 564.003200
   2747   2750   2752     1   112.7300484 572.371200
   2751   2750   2752     1   122.1000523 635.131200
   2756   2759   2762     1   111.5100476 526.347200
   2759   2756   2786     1   107.9700462 569.024000
   2759   2762   2765     1   114.2100488 537.225600
   2762   2765   2766     1   109.6600471 523.836800
   2762   2765   2776     1   109.6600471 523.836800
   2765   2766   2769     1   114.2100488 537.225600
   2765   2776   2779     1   114.2100488 537.225600
   2766   2765   2776     1   109.6600471 523.836800
   2766   2769   2772     1   111.0400475 529.694400
   2769   2772   2773     1   123.2000528 564.003200
   2769   2772   2774     1   112.7300484 572.371200
   2773   2772   2774     1   122.1000523 635.131200
   2776   2779   2782     1   111.0400475 529.694400
   2779   2782   2783     1   123.2000528 564.003200
   2779   2782   2784     1   112.7300484 572.371200
   2783   2782   2784     1   122.1000523 635.131200
   2788   2791   2794     1   111.5100476 526.347200
   2791   2794   2797     1   114.2100488 537.225600
   2791   2788   2818     1   107.9700462 569.024000
   2794   2797   2798     1   109.6600471 523.836800
   2794   2797   2808     1   109.6600471 523.836800
   2797   2798   2801     1   114.2100488 537.225600
   2797   2808   2811     1   114.2100488 537.225600
   2798   2801   2804     1   111.0400475 529.694400
   2798   2797   2808     1   109.6600471 523.836800
   2801   2804   2805     1   123.2000528 564.003200
   2801   2804   2806     1   112.7300484 572.371200
   2805   2804   2806     1   122.1000523 635.131200
   2808   2811   2814     1   111.0400475 529.694400
   2811   2814   2815     1   123.2000528 564.003200
   2811   2814   2816     1   112.7300484 572.371200
   2815   2814   2816     1   122.1000523 635.131200
   2820   2823   2826     1   111.5100476 526.347200
   2823   2820   2850     1   107.9700462 569.024000
   2823   2826   2829     1   114.2100488 537.225600
   2826   2829   2830     1   109.6600471 523.836800
   2826   2829   2840     1   109.6600471 523.836800
   2829   2830   2833     1   114.2100488 537.225600
   2829   2840   2843     1   114.2100488 537.225600
   2830   2829   2840     1   109.6600471 523.836800
   2830   2833   2836     1   111.0400475 529.694400
   2833   2836   2837     1   123.2000528 564.003200
   2833   2836   2838     1   112.7300484 572.371200
   2837   2836   2838     1   122.1000523 635.131200
   2840   2843   2846     1   111.0400475 529.694400
   2843   2846   2847     1   123.2000528 564.003200
   2843   2846   2848     1   112.7300484 572.371200
   2847   2846   2848     1   122.1000523 635.131200
   2852   2855   2858     1   111.5100476 526.347200
   2855   2858   2861     1   114.2100488 537.225600
   2855   2852   2882     1   107.9700462 569.024000
   2858   2861   2862     1   109.6600471 523.836800
   2858   2861   2872     1   109.6600471 523.836800
   2861   2862   2865     1   114.2100488 537.225600
   2861   2872   2875     1   114.2100488 537.225600
   2862   2865   2868     1   111.0400475 529.694400
   2862   2861   2872     1   109.6600471 523.836800
   2865   2868   2869     1   123.2000528 564.003200
   2865   2868   2870     1   112.7300484 572.371200
   2869   2868   2870     1   122.1000523 635.131200
   2872   2875   2878     1   111.0400475 529.694400
   2875   2878   2879     1   123.2000528 564.003200
   2875   2878   2880     1   112.7300484 572.371200
   2879   2878   2880     1   122.1000523 635.131200
   2884   2887   2890     1   111.5100476 526.347200
   2887   2884   2914     1   107.9700462 569.024000
   2887   2890   2893     1   114.2100488 537.225600
   2890   2893   2894     1   109.6600471 523.836800
   2890   2893   2904     1   109.6600471 523.836800
   2893   2894   2897     1   114.2100488 537.225600
   2893   2904   2907     1   114.2100488 537.225600
   2894   2893   2904     1   109.6600471 523.836800
   2894   2897   2900     1   111.0400475 529.694400
   2897   2900   2901     1   123.2000528 564.003200
   2897   2900   2902     1   112.7300484 572.371200
   2901   2900   2902     1   122.1000523 635.131200
   2904   2907   2910     1   111.0400475 529.694400
   2907   2910   2911     1   123.2000528 564.003200
   2907   2910   2912     1   112.7300484 572.371200
   2911   2910   2912     1   122.1000523 635.131200
   2916   2919   2922     1   111.5100476 526.347200
   2919   2922   2925     1   114.2100488 537.225600
   2919   2916   2946     1   107.9700462 569.024000
   2922   2925   2926     1   109.6600471 523.836800
   2922   2925   2936     1   109.6600471 523.836800
   2925   2926   2929     1   114.2100488 537.225600
   2925   2936   2939     1   114.2100488 537.225600
   2926   2929   2932     1   111.0400475 529.694400
   2926   2925   2936     1   109.6600471 523.836800
   2929   2932   2933     1   123.2000528 564.003200
   2929   2932   2934     1   112.7300484 572.371200
   2933   2932   2934     1   122.1000523 635.131200
   2936   2939   2942     1   111.0400475 529.694400
   2939   2942   2943     1   123.2000528 564.003200
   2939   2942   2944     1   112.7300484 572.371200
   2943   2942   2944     1   122.1000523 635.131200
   2948   2951   2954     1   111.5100476 526.347200
   2951   2948   2978     1   107.9700462 569.024000
   2951   2954   2957     1   114.2100488 537.225600
   2954   2957   2958     1   109.6600471 523.836800
   2954   2957   2968     1   109.6600471 523.836800
   2957   2958   2961     1   114.2100488 537.225600
   2957   2968   2971     1   114.2100488 537.225600
   2958   2957   2968     1   109.6600471 523.836800
   2958   2961   2964     1   111.0400475 529.694400
   2961   2964   2965     1   123.2000528 564.003200
   2961   2964   2966     1   112.7300484 572.371200
   2965   2964   2966     1   122.1000523 635.131200
   2968   2971   2974     1   111.0400475 529.694400
   2971   2974   2975     1   123.2000528 564.003200
   2971   2974   2976     1   112.7300484 572.371200
   2975   2974   2976     1   122.1000523 635.131200
   2980   2983   2986     1   111.5100476 526.347200
   2983   2986   2989     1   114.2100488 537.225600
   2983   2980   3010     1   107.9700462 569.024000
   2986   2989   2990     1   109.6600471 523.836800
   2986   2989   3000     1   109.6600471 523.836800
   2989   2990   2993     1   114.2100488 537.225600
   2989   3000   3003     1   114.2100488 537.225600
   2990   2993   2996     1   111.0400475 529.694400
   2990   2989   3000     1   109.6600471 523.836800
   2993   2996   2997     1   123.2000528 564.003200
   2993   2996   2998     1   112.7300484 572.371200
   2997   2996   2998     1   122.1000523 635.131200
   3000   3003   3006     1   111.0400475 529.694400
   3003   3006   3007     1   123.2000528 564.003200
   3003   3006   3008     1   112.7300484 572.371200
   3007   3006   3008     1   122.1000523 635.131200
   3012   3015   3018     1   111.5100476 526.347200
   3015   3012   3042     1   107.9700462 569.024000
   3015   3018   3021     1   114.2100488 537.225600
   3018   3021   3022     1   109.6600471 523.836800
   3018   3021   3032     1   109.6600471 523.836800
   3021   3022   3025     1   114.2100488 537.225600
   3021   3032   3035     1   114.2100488 537.225600
   3022   3021   3032     1   109.6600471 523.836800
   3022   3025   3028     1   111.0400475 529.694400
   3025   3028   3029     1   123.2000528 564.003200
   3025   3028   3030     1   112.7300484 572.371200
   3029   3028   3030     1   122.1000523 635.131200
   3032   3035   3038     1   111.0400475 529.694400
   3035   3038   3039     1   123.2000528 564.003200
   3035   3038   3040     1   112.7300484 572.371200
   3039   3038   3040     1   122.1000523 635.131200
   3044   3047   3050     1   111.5100476 526.347200
   3047   3050   3053     1   114.2100488 537.225600
   3047   3044   3074     1   107.9700462 569.024000
   3050   3053   3054     1   109.6600471 523.836800
   3050   3053   3064     1   109.6600471 523.836800
   3053   3054   3057     1   114.2100488 537.225600
   3053   3064   3067     1   114.2100488 537.225600
   3054   3057   3060     1   111.0400475 529.694400
   3054   3053   3064     1   109.6600471 523.836800
   3057   3060   3061     1   123.2000528 564.003200
   3057   3060   3062     1   112.7300484 572.371200
   3061   3060   3062     1   122.1000523 635.131200
   3064   3067   3070     1   111.0400475 529.694400
   3067   3070   3071     1   123.2000528 564.003200
   3067   3070   3072     1   112.7300484 572.371200
   3071   3070   3072     1   122.1000523 635.131200
   3076   3079   3082     1   111.5100476 526.347200
   3079   3076   3106     1   107.9700462 569.024000
   3079   3082   3085     1   114.2100488 537.225600
   3082   3085   3086     1   109.6600471 523.836800
   3082   3085   3096     1   109.6600471 523.836800
   3085   3086   3089     1   114.2100488 537.225600
   3085   3096   3099     1   114.2100488 537.225600
   3086   3085   3096     1   109.6600471 523.836800
   3086   3089   3092     1   111.0400475 529.694400
   3089   3092   3093     1   123.2000528 564.003200
   3089   3092   3094     1   112.7300484 572.371200
   3093   3092   3094     1   122.1000523 635.131200
   3096   3099   3102     1   111.0400475 529.694400
   3099   3102   3103     1   123.2000528 564.003200
   3099   3102   3104     1   112.7300484 572.371200
   3103   3102   3104     1   122.1000523 635.131200
   3108   3111   3114     1   111.5100476 526.347200
   3111   3114   3117     1   114.2100488 537.225600
   3111   3108   3138     1   107.9700462 569.024000
   3114   3117   3118     1   109.6600471 523.836800
   3114   3117   3128     1   109.6600471 523.836800
   3117   3118   3121     1   114.2100488 537.225600
   3117   3128   3131     1   114.2100488 537.225600
   3118   3121   3124     1   111.0400475 529.694400
   3118   3117   3128     1   109.6600471 523.836800
   3121   3124   3125     1   123.2000528 564.003200
   3121   3124   3126     1   112.7300484 572.371200
   3125   3124   3126     1   122.1000523 635.131200
   3128   3131   3134     1   111.0400475 529.694400
   3131   3134   3135     1   123.2000528 564.003200
   3131   3134   3136     1   112.7300484 572.371200
   3135   3134   3136     1   122.1000523 635.131200
   3140   3143   3146     1   111.5100476 526.347200
   3143   3140   3170     1   107.9700462 569.024000
   3143   3146   3149     1   114.2100488 537.225600
   3146   3149   3150     1   109.6600471 523.836800
   3146   3149   3160     1   109.6600471 523.836800
   3149   3150   3153     1   114.2100488 537.225600
   3149   3160   3163     1   114.2100488 537.225600
   3150   3149   3160     1   109.6600471 523.836800
   3150   3153   3156     1   111.0400475 529.694400
   3153   3156   3157     1   123.2000528 564.003200
   3153   3156   3158     1   112.7300484 572.371200
   3157   3156   3158     1   122.1000523 635.131200
   3160   3163   3166     1   111.0400475 529.694400
   3163   3166   3167     1   123.2000528 564.003200
   3163   3166   3168     1   112.7300484 572.371200
   3167   3166   3168     1   122.1000523 635.131200
   3172   3175   3178     1   111.5100476 526.347200
   3175   3178   3181     1   114.2100488 537.225600
   3175   3172   3202     1   107.9700462 569.024000
   3178   3181   3182     1   109.6600471 523.836800
   3178   3181   3192     1   109.6600471 523.836800
   3181   3182   3185     1   114.2100488 537.225600
   3181   3192   3195     1   114.2100488 537.225600
   3182   3185   3188     1   111.0400475 529.694400
   3182   3181   3192     1   109.6600471 523.836800
   3185   3188   3189     1   123.2000528 564.003200
   3185   3188   3190     1   112.7300484 572.371200
   3189   3188   3190     1   122.1000523 635.131200
   3192   3195   3198     1   111.0400475 529.694400
   3195   3198   3199     1   123.2000528 564.003200
   3195   3198   3200     1   112.7300484 572.371200
   3199   3198   3200     1   122.1000523 635.131200
   3204   3207   3210     1   111.5100476 526.347200
   3207   3204   3234     1   107.9700462 569.024000
   3207   3210   3213     1   114.2100488 537.225600
   3210   3213   3214     1   109.6600471 523.836800
   3210   3213   3224     1   109.6600471 523.836800
   3213   3214   3217     1   114.2100488 537.225600
   3213   3224   3227     1   114.2100488 537.225600
   3214   3213   3224     1   109.6600471 523.836800
   3214   3217   3220     1   111.0400475 529.694400
   3217   3220   3221     1   123.2000528 564.003200
   3217   3220   3222     1   112.7300484 572.371200
   3221   3220   3222     1   122.1000523 635.131200
   3224   3227   3230     1   111.0400475 529.694400
   3227   3230   3231     1   123.2000528 564.003200
   3227   3230   3232     1   112.7300484 572.371200
   3231   3230   3232     1   122.1000523 635.131200
   3236   3239   3242     1   111.5100476 526.347200
   3239   3242   3245     1   114.2100488 537.225600
   3239   3236   3266     1   107.9700462 569.024000
   3242   3245   3246     1   109.6600471 523.836800
   3242   3245   3256     1   109.6600471 523.836800
   3245   3246   3249     1   114.2100488 537.225600
   3245   3256   3259     1   114.2100488 537.225600
   3246   3249   3252     1   111.0400475 529.694400
   3246   3245   3256     1   109.6600471 523.836800
   3249   3252   3253     1   123.2000528 564.003200
   3249   3252   3254     1   112.7300484 572.371200
   3253   3252   3254     1   122.1000523 635.131200
   3256   3259   3262     1   111.0400475 529.694400
   3259   3262   3263     1   123.2000528 564.003200
   3259   3262   3264     1   112.7300484 572.371200
   3263   3262   3264     1   122.1000523 635.131200
   3268   3271   3274     1   111.5100476 526.347200
   3271   3268   3298     1   107.9700462 569.024000
   3271   3274   3277     1   114.2100488 537.225600
   3274   3277   3278     1   109.6600471 523.836800
   3274   3277   3288     1   109.6600471 523.836800
   3277   3278   3281     1   114.2100488 537.225600
   3277   3288   3291     1   114.2100488 537.225600
   3278   3277   3288     1   109.6600471 523.836800
   3278   3281   3284     1   111.0400475 529.694400
   3281   3284   3285     1   123.2000528 564.003200
   3281   3284   3286     1   112.7300484 572.371200
   3285   3284   3286     1   122.1000523 635.131200
   3288   3291   3294     1   111.0400475 529.694400
   3291   3294   3295     1   123.2000528 564.003200
   3291   3294   3296     1   112.7300484 572.371200
   3295   3294   3296     1   122.1000523 635.131200
   3300   3303   3306     1   111.5100476 526.347200
   3303   3306   3309     1   114.2100488 537.225600
   3303   3300   3330     1   107.9700462 569.024000
   3306   3309   3310     1   109.6600471 523.836800
   3306   3309   3320     1   109.6600471 523.836800
   3309   3310   3313     1   114.2100488 537.225600
   3309   3320   3323     1   114.2100488 537.225600
   3310   3313   3316     1   111.0400475 529.694400
   3310   3309   3320     1   109.6600471 523.836800
   3313   3316   3317     1   123.2000528 564.003200
   3313   3316   3318     1   112.7300484 572.371200
   3317   3316   3318     1   122.1000523 635.131200
   3320   3323   3326     1   111.0400475 529.694400
   3323   3326   3327     1   123.2000528 564.003200
   3323   3326   3328     1   112.7300484 572.371200
   3327   3326   3328     1   122.1000523 635.131200
   3332   3335   3338     1   111.5100476 526.347200
   3335   3332   3362     1   107.9700462 569.024000
   3335   3338   3341     1   114.2100488 537.225600
   3338   3341   3342     1   109.6600471 523.836800
   3338   3341   3352     1   109.6600471 523.836800
   3341   3342   3345     1   114.2100488 537.225600
   3341   3352   3355     1   114.2100488 537.225600
   3342   3341   3352     1   109.6600471 523.836800
   3342   3345   3348     1   111.0400475 529.694400
   3345   3348   3349     1   123.2000528 564.003200
   3345   3348   3350     1   112.7300484 572.371200
   3349   3348   3350     1   122.1000523 635.131200
   3352   3355   3358     1   111.0400475 529.694400
   3355   3358   3359     1   123.2000528 564.003200
   3355   3358   3360     1   112.7300484 572.371200
   3359   3358   3360     1   122.1000523 635.131200
   3364   3367   3370     1   111.5100476 526.347200
   3367   3370   3373     1   114.2100488 537.225600
   3367   3364   3394     1   107.9700462 569.024000
   3370   3373   3374     1   109.6600471 523.836800
   3370   3373   3384     1   109.6600471 523.836800
   3373   3374   3377     1   114.2100488 537.225600
   3373   3384   3387     1   114.2100488 537.225600
   3374   3377   3380     1   111.0400475 529.694400
   3374   3373   3384     1   109.6600471 523.836800
   3377   3380   3381     1   123.2000528 564.003200
   3377   3380   3382     1   112.7300484 572.371200
   3381   3380   3382     1   122.1000523 635.131200
   3384   3387   3390     1   111.0400475 529.694400
   3387   3390   3391     1   123.2000528 564.003200
   3387   3390   3392     1   112.7300484 572.371200
   3391   3390   3392     1   122.1000523 635.131200
   3396   3399   3402     1   111.5100476 526.347200
   3399   3396   3426     1   107.9700462 569.024000
   3399   3402   3405     1   114.2100488 537.225600
   3402   3405   3406     1   109.6600471 523.836800
   3402   3405   3416     1   109.6600471 523.836800
   3405   3406   3409     1   114.2100488 537.225600
   3405   3416   3419     1   114.2100488 537.225600
   3406   3405   3416     1   109.6600471 523.836800
   3406   3409   3412     1   111.0400475 529.694400
   3409   3412   3413     1   123.2000528 564.003200
   3409   3412   3414     1   112.7300484 572.371200
   3413   3412   3414     1   122.1000523 635.131200
   3416   3419   3422     1   111.0400475 529.694400
   3419   3422   3423     1   123.2000528 564.003200
   3419   3422   3424     1   112.7300484 572.371200
   3423   3422   3424     1   122.1000523 635.131200
   3428   3431   3434     1   111.5100476 526.347200
   3431   3434   3437     1   114.2100488 537.225600
   3431   3428   3458     1   107.9700462 569.024000
   3434   3437   3438     1   109.6600471 523.836800
   3434   3437   3448     1   109.6600471 523.836800
   3437   3438   3441     1   114.2100488 537.225600
   3437   3448   3451     1   114.2100488 537.225600
   3438   3441   3444     1   111.0400475 529.694400
   3438   3437   3448     1   109.6600471 523.836800
   3441   3444   3445     1   123.2000528 564.003200
   3441   3444   3446     1   112.7300484 572.371200
   3445   3444   3446     1   122.1000523 635.131200
   3448   3451   3454     1   111.0400475 529.694400
   3451   3454   3455     1   123.2000528 564.003200
   3451   3454   3456     1   112.7300484 572.371200
   3455   3454   3456     1   122.1000523 635.131200
   3460   3463   3466     1   111.5100476 526.347200
   3463   3460   3490     1   107.9700462 569.024000
   3463   3466   3469     1   114.2100488 537.225600
   3466   3469   3470     1   109.6600471 523.836800
   3466   3469   3480     1   109.6600471 523.836800
   3469   3470   3473     1   114.2100488 537.225600
   3469   3480   3483     1   114.2100488 537.225600
   3470   3469   3480     1   109.6600471 523.836800
   3470   3473   3476     1   111.0400475 529.694400
   3473   3476   3477     1   123.2000528 564.003200
   3473   3476   3478     1   112.7300484 572.371200
   3477   3476   3478     1   122.1000523 635.131200
   3480   3483   3486     1   111.0400475 529.694400
   3483   3486   3487     1   123.2000528 564.003200
   3483   3486   3488     1   112.7300484 572.371200
   3487   3486   3488     1   122.1000523 635.131200
   3492   3495   3498     1   111.5100476 526.347200
   3495   3498   3501     1   114.2100488 537.225600
   3495   3492   3522     1   107.9700462 569.024000
   3498   3501   3502     1   109.6600471 523.836800
   3498   3501   3512     1   109.6600471 523.836800
   3501   3502   3505     1   114.2100488 537.225600
   3501   3512   3515     1   114.2100488 537.225600
   3502   3505   3508     1   111.0400475 529.694400
   3502   3501   3512     1   109.6600471 523.836800
   3505   3508   3509     1   123.2000528 564.003200
   3505   3508   3510     1   112.7300484 572.371200
   3509   3508   3510     1   122.1000523 635.131200
   3512   3515   3518     1   111.0400475 529.694400
   3515   3518   3519     1   123.2000528 564.003200
   3515   3518   3520     1   112.7300484 572.371200
   3519   3518   3520     1   122.1000523 635.131200
   3524   3527   3530     1   111.5100476 526.347200
   3527   3524   3554     1   107.9700462 569.024000
   3527   3530   3533     1   114.2100488 537.225600
   3530   3533   3534     1   109.6600471 523.836800
   3530   3533   3544     1   109.6600471 523.836800
   3533   3534   3537     1   114.2100488 537.225600
   3533   3544   3547     1   114.2100488 537.225600
   3534   3533   3544     1   109.6600471 523.836800
   3534   3537   3540     1   111.0400475 529.694400
   3537   3540   3541     1   123.2000528 564.003200
   3537   3540   3542     1   112.7300484 572.371200
   3541   3540   3542     1   122.1000523 635.131200
   3544   3547   3550     1   111.0400475 529.694400
   3547   3550   3551     1   123.2000528 564.003200
   3547   3550   3552     1   112.7300484 572.371200
   3551   3550   3552     1   122.1000523 635.131200
   3556   3559   3562     1   111.5100476 526.347200
   3559   3562   3565     1   114.2100488 537.225600
   3559   3556   3586     1   107.9700462 569.024000
   3562   3565   3566     1   109.6600471 523.836800
   3562   3565   3576     1   109.6600471 523.836800
   3565   3566   3569     1   114.2100488 537.225600
   3565   3576   3579     1   114.2100488 537.225600
   3566   3569   3572     1   111.0400475 529.694400
   3566   3565   3576     1   109.6600471 523.836800
   3569   3572   3573     1   123.2000528 564.003200
   3569   3572   3574     1   112.7300484 572.371200
   3573   3572   3574     1   122.1000523 635.131200
   3576   3579   3582     1   111.0400475 529.694400
   3579   3582   3583     1   123.2000528 564.003200
   3579   3582   3584     1   112.7300484 572.371200
   3583   3582   3584     1   122.1000523 635.131200
   3588   3591   3594     1   111.5100476 526.347200
   3591   3588   3618     1   107.9700462 569.024000
   3591   3594   3597     1   114.2100488 537.225600
   3594   3597   3598     1   109.6600471 523.836800
   3594   3597   3608     1   109.6600471 523.836800
   3597   3598   3601     1   114.2100488 537.225600
   3597   3608   3611     1   114.2100488 537.225600
   3598   3597   3608     1   109.6600471 523.836800
   3598   3601   3604     1   111.0400475 529.694400
   3601   3604   3605     1   123.2000528 564.003200
   3601   3604   3606     1   112.7300484 572.371200
   3605   3604   3606     1   122.1000523 635.131200
   3608   3611   3614     1   111.0400475 529.694400
   3611   3614   3615     1   123.2000528 564.003200
   3611   3614   3616     1   112.7300484 572.371200
   3615   3614   3616     1   122.1000523 635.131200
   3620   3623   3626     1   111.5100476 526.347200
   3623   3626   3629     1   114.2100488 537.225600
   3623   3620   3650     1   107.9700462 569.024000
   3626   3629   3630     1   109.6600471 523.836800
   3626   3629   3640     1   109.6600471 523.836800
   3629   3630   3633     1   114.2100488 537.225600
   3629   3640   3643     1   114.2100488 537.225600
   3630   3633   3636     1   111.0400475 529.694400
   3630   3629   3640     1   109.6600471 523.836800
   3633   3636   3637     1   123.2000528 564.003200
   3633   3636   3638     1   112.7300484 572.371200
   3637   3636   3638     1   122.1000523 635.131200
   3640   3643   3646     1   111.0400475 529.694400
   3643   3646   3647     1   123.2000528 564.003200
   3643   3646   3648     1   112.7300484 572.371200
   3647   3646   3648     1   122.1000523 635.131200
   3652   3655   3658     1   111.5100476 526.347200
   3655   3652   3682     1   107.9700462 569.024000
   3655   3658   3661     1   114.2100488 537.225600
   3658   3661   3662     1   109.6600471 523.836800
   3658   3661   3672     1   109.6600471 523.836800
   3661   3662   3665     1   114.2100488 537.225600
   3661   3672   3675     1   114.2100488 537.225600
   3662   3661   3672     1   109.6600471 523.836800
   3662   3665   3668     1   111.0400475 529.694400
   3665   3668   3669     1   123.2000528 564.003200
   3665   3668   3670     1   112.7300484 572.371200
   3669   3668   3670     1   122.1000523 635.131200
   3672   3675   3678     1   111.0400475 529.694400
   3675   3678   3679     1   123.2000528 564.003200
   3675   3678   3680     1   112.7300484 572.371200
   3679   3678   3680     1   122.1000523 635.131200
   3684   3687   3690     1   111.5100476 526.347200
   3687   3690   3693     1   114.2100488 537.225600
   3687   3684   3714     1   107.9700462 569.024000
   3690   3693   3694     1   109.6600471 523.836800
   3690   3693   3704     1   109.6600471 523.836800
   3693   3694   3697     1   114.2100488 537.225600
   3693   3704   3707     1   114.2100488 537.225600
   3694   3697   3700     1   111.0400475 529.694400
   3694   3693   3704     1   109.6600471 523.836800
   3697   3700   3701     1   123.2000528 564.003200
   3697   3700   3702     1   112.7300484 572.371200
   3701   3700   3702     1   122.1000523 635.131200
   3704   3707   3710     1   111.0400475 529.694400
   3707   3710   3711     1   123.2000528 564.003200
   3707   3710   3712     1   112.7300484 572.371200
   3711   3710   3712     1   122.1000523 635.131200
   3716   3719   3722     1   111.5100476 526.347200
   3719   3716   3746     1   107.9700462 569.024000
   3719   3722   3725     1   114.2100488 537.225600
   3722   3725   3726     1   109.6600471 523.836800
   3722   3725   3736     1   109.6600471 523.836800
   3725   3726   3729     1   114.2100488 537.225600
   3725   3736   3739     1   114.2100488 537.225600
   3726   3725   3736     1   109.6600471 523.836800
   3726   3729   3732     1   111.0400475 529.694400
   3729   3732   3733     1   123.2000528 564.003200
   3729   3732   3734     1   112.7300484 572.371200
   3733   3732   3734     1   122.1000523 635.131200
   3736   3739   3742     1   111.0400475 529.694400
   3739   3742   3743     1   123.2000528 564.003200
   3739   3742   3744     1   112.7300484 572.371200
   3743   3742   3744     1   122.1000523 635.131200
   3748   3751   3754     1   111.5100476 526.347200
   3751   3754   3757     1   114.2100488 537.225600
   3751   3748   3778     1   107.9700462 569.024000
   3754   3757   3758     1   109.6600471 523.836800
   3754   3757   3768     1   109.6600471 523.836800
   3757   3758   3761     1   114.2100488 537.225600
   3757   3768   3771     1   114.2100488 537.225600
   3758   3761   3764     1   111.0400475 529.694400
   3758   3757   3768     1   109.6600471 523.836800
   3761   3764   3765     1   123.2000528 564.003200
   3761   3764   3766     1   112.7300484 572.371200
   3765   3764   3766     1   122.1000523 635.131200
   3768   3771   3774     1   111.0400475 529.694400
   3771   3774   3775     1   123.2000528 564.003200
   3771   3774   3776     1   112.7300484 572.371200
   3775   3774   3776     1   122.1000523 635.131200
   3780   3783   3786     1   111.5100476 526.347200
   3783   3780   3810     1   107.9700462 569.024000
   3783   3786   3789     1   114.2100488 537.225600
   3786   3789   3790     1   109.6600471 523.836800
   3786   3789   3800     1   109.6600471 523.836800
   3789   3790   3793     1   114.2100488 537.225600
   3789   3800   3803     1   114.2100488 537.225600
   3790   3789   3800     1   109.6600471 523.836800
   3790   3793   3796     1   111.0400475 529.694400
   3793   3796   3797     1   123.2000528 564.003200
   3793   3796   3798     1   112.7300484 572.371200
   3797   3796   3798     1   122.1000523 635.131200
   3800   3803   3806     1   111.0400475 529.694400
   3803   3806   3807     1   123.2000528 564.003200
   3803   3806   3808     1   112.7300484 572.371200
   3807   3806   3808     1   122.1000523 635.131200
   3812   3815   3818     1   111.5100476 526.347200
   3815   3818   3821     1   114.2100488 537.225600
   3815   3812   3842     1   107.9700462 569.024000
   3818   3821   3822     1   109.6600471 523.836800
   3818   3821   3832     1   109.6600471 523.836800
   3821   3822   3825     1   114.2100488 537.225600
   3821   3832   3835     1   114.2100488 537.225600
   3822   3825   3828     1   111.0400475 529.694400
   3822   3821   3832     1   109.6600471 523.836800
   3825   3828   3829     1   123.2000528 564.003200
   3825   3828   3830     1   112.7300484 572.371200
   3829   3828   3830     1   122.1000523 635.131200
   3832   3835   3838     1   111.0400475 529.694400
   3835   3838   3839     1   123.2000528 564.003200
   3835   3838   3840     1   112.7300484 572.371200
   3839   3838   3840     1   122.1000523 635.131200
   3844   3847   3850     1   111.5100476 526.347200
   3847   3844   3874     1   107.9700462 569.024000
   3847   3850   3853     1   114.2100488 537.225600
   3850   3853   3854     1   109.6600471 523.836800
   3850   3853   3864     1   109.6600471 523.836800
   3853   3854   3857     1   114.2100488 537.225600
   3853   3864   3867     1   114.2100488 537.225600
   3854   3853   3864     1   109.6600471 523.836800
   3854   3857   3860     1   111.0400475 529.694400
   3857   3860   3861     1   123.2000528 564.003200
   3857   3860   3862     1   112.7300484 572.371200
   3861   3860   3862     1   122.1000523 635.131200
   3864   3867   3870     1   111.0400475 529.694400
   3867   3870   3871     1   123.2000528 564.003200
   3867   3870   3872     1   112.7300484 572.371200
   3871   3870   3872     1   122.1000523 635.131200
   3876   3879   3882     1   111.5100476 526.347200
   3879   3882   3885     1   114.2100488 537.225600
   3879   3876   3906     1   107.9700462 569.024000
   3882   3885   3886     1   109.6600471 523.836800
   3882   3885   3896     1   109.6600471 523.836800
   3885   3886   3889     1   114.2100488 537.225600
   3885   3896   3899     1   114.2100488 537.225600
   3886   3889   3892     1   111.0400475 529.694400
   3886   3885   3896     1   109.6600471 523.836800
   3889   3892   3893     1   123.2000528 564.003200
   3889   3892   3894     1   112.7300484 572.371200
   3893   3892   3894     1   122.1000523 635.131200
   3896   3899   3902     1   111.0400475 529.694400
   3899   3902   3903     1   123.2000528 564.003200
   3899   3902   3904     1   112.7300484 572.371200
   3903   3902   3904     1   122.1000523 635.131200
      1      2      3     1   109.7800468 425.094400
      1      2      4     1   109.7800468 425.094400
      1      5      6     1   109.7800468 425.094400
      1      5      7     1   109.7800468 425.094400
      2      8      9     1   109.8000471 387.438400
      2      8     10     1   109.8000471 387.438400
      3      2      8     1   109.5600471 388.275200
      3      2      4     1   108.4600466 328.025600
      4      2      8     1   109.5600471 388.275200
      5     11     12     1   109.8000471 387.438400
      5     11     13     1   109.8000471 387.438400
      6      5     11     1   109.5600471 388.275200
      6      5      7     1   108.4600466 328.025600
      7      5     11     1   109.5600471 388.275200
      8     14     15     1   110.5600475 386.601600
      8     14     16     1   110.5600475 386.601600
      9      8     14     1   109.8000471 387.438400
      9      8     10     1   107.5800459 329.699200
     10      8     14     1   109.8000471 387.438400
     11     17     18     1   110.5600475 386.601600
     11     17     19     1   110.5600475 386.601600
     12     11     17     1   109.8000471 387.438400
     12     11     13     1   107.5800459 329.699200
     13     11     17     1   109.8000471 387.438400
     14     20     58     1   110.1100470 384.091200
     15     14     20     1   108.0100461 406.684800
     15     14     16     1   109.7500473 328.025600
     16     14     20     1   108.0100461 406.684800
     17     21     59     1   110.1100470 384.091200
     18     17     21     1   108.0100461 406.684800
     18     17     19     1   109.7500473 328.025600
     19     17     21     1   108.0100461 406.684800
     20     28     29     1   108.0100461 406.684800
     20     28     30     1   108.0100461 406.684800
     20     31     32     1   108.0100461 406.684800
     20     31     33     1   108.0100461 406.684800
     21     22     23     1   108.0100461 406.684800
     21     22     24     1   108.0100461 406.684800
     21     25     26     1   108.0100461 406.684800
     21     25     27     1   108.0100461 406.684800
     22     21     59     1   110.1100470 384.091200
     22     34     35     1   109.8000471 387.438400
     22     34     36     1   109.8000471 387.438400
     23     22     34     1   110.5600475 386.601600
     23     22     24     1   109.7500473 328.025600
     24     22     34     1   110.5600475 386.601600
     25     21     59     1   110.1100470 384.091200
     25     37     38     1   109.8000471 387.438400
     25     37     39     1   109.8000471 387.438400
     26     25     37     1   110.5600475 386.601600
     26     25     27     1   109.7500473 328.025600
     27     25     37     1   110.5600475 386.601600
     28     20     58     1   110.1100470 384.091200
     28     40     41     1   109.8000471 387.438400
     28     40     42     1   109.8000471 387.438400
     29     28     40     1   110.5600475 386.601600
     29     28     30     1   109.7500473 328.025600
     30     28     40     1   110.5600475 386.601600
     31     20     58     1   110.1100470 384.091200
     31     43     44     1   109.8000471 387.438400
     31     43     45     1   109.8000471 387.438400
     32     31     43     1   110.5600475 386.601600
     32     31     33     1   109.7500473 328.025600
     33     31     43     1   110.5600475 386.601600
     34     55     56     1   109.8000471 387.438400
     34     55     57     1   109.8000471 387.438400
     35     34     55     1   109.8000471 387.438400
     35     34     36     1   107.5800459 329.699200
     36     34     55     1   109.8000471 387.438400
     37     52     53     1   109.8000471 387.438400
     37     52     54     1   109.8000471 387.438400
     38     37     52     1   109.8000471 387.438400
     38     37     39     1   107.5800459 329.699200
     39     37     52     1   109.8000471 387.438400
     40     49     50     1   109.8000471 387.438400
     40     49     51     1   109.8000471 387.438400
     41     40     49     1   109.8000471 387.438400
     41     40     42     1   107.5800459 329.699200
     42     40     49     1   109.8000471 387.438400
     43     46     47     1   109.8000471 387.438400
     43     46     48     1   109.8000471 387.438400
     44     43     46     1   109.8000471 387.438400
     44     43     45     1   107.5800459 329.699200
     45     43     46     1   109.8000471 387.438400
     47     46     88     1   108.7000466 426.768000
     47     46     48     1   107.5800459 329.699200
     48     46     88     1   108.7000466 426.768000
     50     49    118     1   108.7000466 426.768000
     50     49     51     1   107.5800459 329.699200
     51     49    118     1   108.7000466 426.768000
     53     52    148     1   108.7000466 426.768000
     53     52     54     1   107.5800459 329.699200
     54     52    148     1   108.7000466 426.768000
     56     55    178     1   108.7000466 426.768000
     56     55     57     1   107.5800459 329.699200
     57     55    178     1   108.7000466 426.768000
     60     61     62     1   108.0100461 406.684800
     60     61     63     1   108.0100461 406.684800
     60     64     65     1   108.0100461 406.684800
     60     64     66     1   108.0100461 406.684800
     60     67     68     1   108.0100461 406.684800
     60     67     69     1   108.0100461 406.684800
     61     60     89     1   110.1100470 384.091200
     61     73     74     1   109.8000471 387.438400
     61     73     75     1   109.8000471 387.438400
     62     61     73     1   110.5600475 386.601600
     62     61     63     1   109.7500473 328.025600
     63     61     73     1   110.5600475 386.601600
     64     60     89     1   110.1100470 384.091200
     64     76     77     1   109.8000471 387.438400
     64     76     78     1   109.8000471 387.438400
     65     64     76     1   110.5600475 386.601600
     65     64     66     1   109.7500473 328.025600
     66     64     76     1   110.5600475 386.601600
     67     60     89     1   110.1100470 384.091200
     67     70     71     1   109.8000471 387.438400
     67     70     72     1   109.8000471 387.438400
     68     67     70     1   110.5600475 386.601600
     68     67     69     1   109.7500473 328.025600
     69     67     70     1   110.5600475 386.601600
     70     79     80     1   109.5600471 388.275200
     70     79     81     1   109.5600471 388.275200
     71     70     79     1   109.8000471 387.438400
     71     70     72     1   107.5800459 329.699200
     72     70     79     1   109.8000471 387.438400
     73     85     86     1   109.5600471 388.275200
     73     85     87     1   109.5600471 388.275200
     74     73     85     1   109.8000471 387.438400
     74     73     75     1   107.5800459 329.699200
     75     73     85     1   109.8000471 387.438400
     76     82     83     1   109.5600471 388.275200
     76     82     84     1   109.5600471 388.275200
     77     76     82     1   109.8000471 387.438400
     77     76     78     1   107.5800459 329.699200
     78     76     82     1   109.8000471 387.438400
     80     79     88     1   109.7800468 425.094400
     80     79     81     1   108.4600466 328.025600
     81     79     88     1   109.7800468 425.094400
     83     82    208     1   109.7800468 425.094400
     83     82     84     1   108.4600466 328.025600
     84     82    208     1   109.7800468 425.094400
     86     85    238     1   109.7800468 425.094400
     86     85     87     1   108.4600466 328.025600
     87     85    238     1   109.7800468 425.094400
     90     91     92     1   108.0100461 406.684800
     90     91     93     1   108.0100461 406.684800
     90     94     95     1   108.0100461 406.684800
     90     94     96     1   108.0100461 406.684800
     90     97     98     1   108.0100461 406.684800
     90     97     99     1   108.0100461 406.684800
     91     90    119     1   110.1100470 384.091200
     91    103    104     1   109.8000471 387.438400
     91    103    105     1   109.8000471 387.438400
     92     91    103     1   110.5600475 386.601600
     92     91     93     1   109.7500473 328.025600
     93     91    103     1   110.5600475 386.601600
     94     90    119     1   110.1100470 384.091200
     94    106    107     1   109.8000471 387.438400
     94    106    108     1   109.8000471 387.438400
     95     94    106     1   110.5600475 386.601600
     95     94     96     1   109.7500473 328.025600
     96     94    106     1   110.5600475 386.601600
     97     90    119     1   110.1100470 384.091200
     97    100    101     1   109.8000471 387.438400
     97    100    102     1   109.8000471 387.438400
     98     97    100     1   110.5600475 386.601600
     98     97     99     1   109.7500473 328.025600
     99     97    100     1   110.5600475 386.601600
    100    109    110     1   109.5600471 388.275200
    100    109    111     1   109.5600471 388.275200
    101    100    109     1   109.8000471 387.438400
    101    100    102     1   107.5800459 329.699200
    102    100    109     1   109.8000471 387.438400
    103    115    116     1   109.5600471 388.275200
    103    115    117     1   109.5600471 388.275200
    104    103    115     1   109.8000471 387.438400
    104    103    105     1   107.5800459 329.699200
    105    103    115     1   109.8000471 387.438400
    106    112    113     1   109.5600471 388.275200
    106    112    114     1   109.5600471 388.275200
    107    106    112     1   109.8000471 387.438400
    107    106    108     1   107.5800459 329.699200
    108    106    112     1   109.8000471 387.438400
    110    109    118     1   109.7800468 425.094400
    110    109    111     1   108.4600466 328.025600
    111    109    118     1   109.7800468 425.094400
    113    112    268     1   109.7800468 425.094400
    113    112    114     1   108.4600466 328.025600
    114    112    268     1   109.7800468 425.094400
    116    115    298     1   109.7800468 425.094400
    116    115    117     1   108.4600466 328.025600
    117    115    298     1   109.7800468 425.094400
    120    121    122     1   108.0100461 406.684800
    120    121    123     1   108.0100461 406.684800
    120    124    125     1   108.0100461 406.684800
    120    124    126     1   108.0100461 406.684800
    120    127    128     1   108.0100461 406.684800
    120    127    129     1   108.0100461 406.684800
    121    120    149     1   110.1100470 384.091200
    121    133    134     1   109.8000471 387.438400
    121    133    135     1   109.8000471 387.438400
    122    121    133     1   110.5600475 386.601600
    122    121    123     1   109.7500473 328.025600
    123    121    133     1   110.5600475 386.601600
    124    120    149     1   110.1100470 384.091200
    124    136    137     1   109.8000471 387.438400
    124    136    138     1   109.8000471 387.438400
    125    124    136     1   110.5600475 386.601600
    125    124    126     1   109.7500473 328.025600
    126    124    136     1   110.5600475 386.601600
    127    120    149     1   110.1100470 384.091200
    127    130    131     1   109.8000471 387.438400
    127    130    132     1   109.8000471 387.438400
    128    127    130     1   110.5600475 386.601600
    128    127    129     1   109.7500473 328.025600
    129    127    130     1   110.5600475 386.601600
    130    139    140     1   109.5600471 388.275200
    130    139    141     1   109.5600471 388.275200
    131    130    139     1   109.8000471 387.438400
    131    130    132     1   107.5800459 329.699200
    132    130    139     1   109.8000471 387.438400
    133    145    146     1   109.5600471 388.275200
    133    145    147     1   109.5600471 388.275200
    134    133    145     1   109.8000471 387.438400
    134    133    135     1   107.5800459 329.699200
    135    133    145     1   109.8000471 387.438400
    136    142    143     1   109.5600471 388.275200
    136    142    144     1   109.5600471 388.275200
    137    136    142     1   109.8000471 387.438400
    137    136    138     1   107.5800459 329.699200
    138    136    142     1   109.8000471 387.438400
    140    139    148     1   109.7800468 425.094400
    140    139    141     1   108.4600466 328.025600
    141    139    148     1   109.7800468 425.094400
    143    142    328     1   109.7800468 425.094400
    143    142    144     1   108.4600466 328.025600
    144    142    328     1   109.7800468 425.094400
    146    145    358     1   109.7800468 425.094400
    146    145    147     1   108.4600466 328.025600
    147    145    358     1   109.7800468 425.094400
    150    151    152     1   108.0100461 406.684800
    150    151    153     1   108.0100461 406.684800
    150    154    155     1   108.0100461 406.684800
    150    154    156     1   108.0100461 406.684800
    150    157    158     1   108.0100461 406.684800
    150    157    159     1   108.0100461 406.684800
    151    150    179     1   110.1100470 384.091200
    151    163    164     1   109.8000471 387.438400
    151    163    165     1   109.8000471 387.438400
    152    151    163     1   110.5600475 386.601600
    152    151    153     1   109.7500473 328.025600
    153    151    163     1   110.5600475 386.601600
    154    150    179     1   110.1100470 384.091200
    154    166    167     1   109.8000471 387.438400
    154    166    168     1   109.8000471 387.438400
    155    154    166     1   110.5600475 386.601600
    155    154    156     1   109.7500473 328.025600
    156    154    166     1   110.5600475 386.601600
    157    150    179     1   110.1100470 384.091200
    157    160    161     1   109.8000471 387.438400
    157    160    162     1   109.8000471 387.438400
    158    157    160     1   110.5600475 386.601600
    158    157    159     1   109.7500473 328.025600
    159    157    160     1   110.5600475 386.601600
    160    169    170     1   109.5600471 388.275200
    160    169    171     1   109.5600471 388.275200
    161    160    169     1   109.8000471 387.438400
    161    160    162     1   107.5800459 329.699200
    162    160    169     1   109.8000471 387.438400
    163    175    176     1   109.5600471 388.275200
    163    175    177     1   109.5600471 388.275200
    164    163    175     1   109.8000471 387.438400
    164    163    165     1   107.5800459 329.699200
    165    163    175     1   109.8000471 387.438400
    166    172    173     1   109.5600471 388.275200
    166    172    174     1   109.5600471 388.275200
    167    166    172     1   109.8000471 387.438400
    167    166    168     1   107.5800459 329.699200
    168    166    172     1   109.8000471 387.438400
    170    169    178     1   109.7800468 425.094400
    170    169    171     1   108.4600466 328.025600
    171    169    178     1   109.7800468 425.094400
    173    172    388     1   109.7800468 425.094400
    173    172    174     1   108.4600466 328.025600
    174    172    388     1   109.7800468 425.094400
    176    175    418     1   109.7800468 425.094400
    176    175    177     1   108.4600466 328.025600
    177    175    418     1   109.7800468 425.094400
    180    181    182     1   108.0100461 406.684800
    180    181    183     1   108.0100461 406.684800
    180    184    185     1   108.0100461 406.684800
    180    184    186     1   108.0100461 406.684800
    180    187    188     1   108.0100461 406.684800
    180    187    189     1   108.0100461 406.684800
    181    180    209     1   110.1100470 384.091200
    181    193    194     1   109.8000471 387.438400
    181    193    195     1   109.8000471 387.438400
    182    181    193     1   110.5600475 386.601600
    182    181    183     1   109.7500473 328.025600
    183    181    193     1   110.5600475 386.601600
    184    180    209     1   110.1100470 384.091200
    184    196    197     1   109.8000471 387.438400
    184    196    198     1   109.8000471 387.438400
    185    184    196     1   110.5600475 386.601600
    185    184    186     1   109.7500473 328.025600
    186    184    196     1   110.5600475 386.601600
    187    180    209     1   110.1100470 384.091200
    187    190    191     1   109.8000471 387.438400
    187    190    192     1   109.8000471 387.438400
    188    187    190     1   110.5600475 386.601600
    188    187    189     1   109.7500473 328.025600
    189    187    190     1   110.5600475 386.601600
    190    199    200     1   109.5600471 388.275200
    190    199    201     1   109.5600471 388.275200
    191    190    199     1   109.8000471 387.438400
    191    190    192     1   107.5800459 329.699200
    192    190    199     1   109.8000471 387.438400
    193    205    206     1   109.5600471 388.275200
    193    205    207     1   109.5600471 388.275200
    194    193    205     1   109.8000471 387.438400
    194    193    195     1   107.5800459 329.699200
    195    193    205     1   109.8000471 387.438400
    196    202    203     1   109.5600471 388.275200
    196    202    204     1   109.5600471 388.275200
    197    196    202     1   109.8000471 387.438400
    197    196    198     1   107.5800459 329.699200
    198    196    202     1   109.8000471 387.438400
    200    199    208     1   109.7800468 425.094400
    200    199    201     1   108.4600466 328.025600
    201    199    208     1   109.7800468 425.094400
    203    202    448     1   109.7800468 425.094400
    203    202    204     1   108.4600466 328.025600
    204    202    448     1   109.7800468 425.094400
    206    205    478     1   109.7800468 425.094400
    206    205    207     1   108.4600466 328.025600
    207    205    478     1   109.7800468 425.094400
    210    211    212     1   108.0100461 406.684800
    210    211    213     1   108.0100461 406.684800
    210    214    215     1   108.0100461 406.684800
    210    214    216     1   108.0100461 406.684800
    210    217    218     1   108.0100461 406.684800
    210    217    219     1   108.0100461 406.684800
    211    210    239     1   110.1100470 384.091200
    211    223    224     1   109.8000471 387.438400
    211    223    225     1   109.8000471 387.438400
    212    211    223     1   110.5600475 386.601600
    212    211    213     1   109.7500473 328.025600
    213    211    223     1   110.5600475 386.601600
    214    210    239     1   110.1100470 384.091200
    214    226    227     1   109.8000471 387.438400
    214    226    228     1   109.8000471 387.438400
    215    214    226     1   110.5600475 386.601600
    215    214    216     1   109.7500473 328.025600
    216    214    226     1   110.5600475 386.601600
    217    210    239     1   110.1100470 384.091200
    217    220    221     1   109.8000471 387.438400
    217    220    222     1   109.8000471 387.438400
    218    217    220     1   110.5600475 386.601600
    218    217    219     1   109.7500473 328.025600
    219    217    220     1   110.5600475 386.601600
    220    229    230     1   109.5600471 388.275200
    220    229    231     1   109.5600471 388.275200
    221    220    229     1   109.8000471 387.438400
    221    220    222     1   107.5800459 329.699200
    222    220    229     1   109.8000471 387.438400
    223    235    236     1   109.5600471 388.275200
    223    235    237     1   109.5600471 388.275200
    224    223    235     1   109.8000471 387.438400
    224    223    225     1   107.5800459 329.699200
    225    223    235     1   109.8000471 387.438400
    226    232    233     1   109.5600471 388.275200
    226    232    234     1   109.5600471 388.275200
    227    226    232     1   109.8000471 387.438400
    227    226    228     1   107.5800459 329.699200
    228    226    232     1   109.8000471 387.438400
    230    229    238     1   109.7800468 425.094400
    230    229    231     1   108.4600466 328.025600
    231    229    238     1   109.7800468 425.094400
    233    232    508     1   109.7800468 425.094400
    233    232    234     1   108.4600466 328.025600
    234    232    508     1   109.7800468 425.094400
    236    235    538     1   109.7800468 425.094400
    236    235    237     1   108.4600466 328.025600
    237    235    538     1   109.7800468 425.094400
    240    241    242     1   108.0100461 406.684800
    240    241    243     1   108.0100461 406.684800
    240    244    245     1   108.0100461 406.684800
    240    244    246     1   108.0100461 406.684800
    240    247    248     1   108.0100461 406.684800
    240    247    249     1   108.0100461 406.684800
    241    240    269     1   110.1100470 384.091200
    241    253    254     1   109.8000471 387.438400
    241    253    255     1   109.8000471 387.438400
    242    241    253     1   110.5600475 386.601600
    242    241    243     1   109.7500473 328.025600
    243    241    253     1   110.5600475 386.601600
    244    240    269     1   110.1100470 384.091200
    244    256    257     1   109.8000471 387.438400
    244    256    258     1   109.8000471 387.438400
    245    244    256     1   110.5600475 386.601600
    245    244    246     1   109.7500473 328.025600
    246    244    256     1   110.5600475 386.601600
    247    240    269     1   110.1100470 384.091200
    247    250    251     1   109.8000471 387.438400
    247    250    252     1   109.8000471 387.438400
    248    247    250     1   110.5600475 386.601600
    248    247    249     1   109.7500473 328.025600
    249    247    250     1   110.5600475 386.601600
    250    259    260     1   109.5600471 388.275200
    250    259    261     1   109.5600471 388.275200
    251    250    259     1   109.8000471 387.438400
    251    250    252     1   107.5800459 329.699200
    252    250    259     1   109.8000471 387.438400
    253    265    266     1   109.5600471 388.275200
    253    265    267     1   109.5600471 388.275200
    254    253    265     1   109.8000471 387.438400
    254    253    255     1   107.5800459 329.699200
    255    253    265     1   109.8000471 387.438400
    256    262    263     1   109.5600471 388.275200
    256    262    264     1   109.5600471 388.275200
    257    256    262     1   109.8000471 387.438400
    257    256    258     1   107.5800459 329.699200
    258    256    262     1   109.8000471 387.438400
    260    259    268     1   109.7800468 425.094400
    260    259    261     1   108.4600466 328.025600
    261    259    268     1   109.7800468 425.094400
    263    262    568     1   109.7800468 425.094400
    263    262    264     1   108.4600466 328.025600
    264    262    568     1   109.7800468 425.094400
    266    265    598     1   109.7800468 425.094400
    266    265    267     1   108.4600466 328.025600
    267    265    598     1   109.7800468 425.094400
    270    271    272     1   108.0100461 406.684800
    270    271    273     1   108.0100461 406.684800
    270    274    275     1   108.0100461 406.684800
    270    274    276     1   108.0100461 406.684800
    270    277    278     1   108.0100461 406.684800
    270    277    279     1   108.0100461 406.684800
    271    270    299     1   110.1100470 384.091200
    271    283    284     1   109.8000471 387.438400
    271    283    285     1   109.8000471 387.438400
    272    271    283     1   110.5600475 386.601600
    272    271    273     1   109.7500473 328.025600
    273    271    283     1   110.5600475 386.601600
    274    270    299     1   110.1100470 384.091200
    274    286    287     1   109.8000471 387.438400
    274    286    288     1   109.8000471 387.438400
    275    274    286     1   110.5600475 386.601600
    275    274    276     1   109.7500473 328.025600
    276    274    286     1   110.5600475 386.601600
    277    270    299     1   110.1100470 384.091200
    277    280    281     1   109.8000471 387.438400
    277    280    282     1   109.8000471 387.438400
    278    277    280     1   110.5600475 386.601600
    278    277    279     1   109.7500473 328.025600
    279    277    280     1   110.5600475 386.601600
    280    289    290     1   109.5600471 388.275200
    280    289    291     1   109.5600471 388.275200
    281    280    289     1   109.8000471 387.438400
    281    280    282     1   107.5800459 329.699200
    282    280    289     1   109.8000471 387.438400
    283    295    296     1   109.5600471 388.275200
    283    295    297     1   109.5600471 388.275200
    284    283    295     1   109.8000471 387.438400
    284    283    285     1   107.5800459 329.699200
    285    283    295     1   109.8000471 387.438400
    286    292    293     1   109.5600471 388.275200
    286    292    294     1   109.5600471 388.275200
    287    286    292     1   109.8000471 387.438400
    287    286    288     1   107.5800459 329.699200
    288    286    292     1   109.8000471 387.438400
    290    289    298     1   109.7800468 425.094400
    290    289    291     1   108.4600466 328.025600
    291    289    298     1   109.7800468 425.094400
    293    292    628     1   109.7800468 425.094400
    293    292    294     1   108.4600466 328.025600
    294    292    628     1   109.7800468 425.094400
    296    295    658     1   109.7800468 425.094400
    296    295    297     1   108.4600466 328.025600
    297    295    658     1   109.7800468 425.094400
    300    301    302     1   108.0100461 406.684800
    300    301    303     1   108.0100461 406.684800
    300    304    305     1   108.0100461 406.684800
    300    304    306     1   108.0100461 406.684800
    300    307    308     1   108.0100461 406.684800
    300    307    309     1   108.0100461 406.684800
    301    300    329     1   110.1100470 384.091200
    301    313    314     1   109.8000471 387.438400
    301    313    315     1   109.8000471 387.438400
    302    301    313     1   110.5600475 386.601600
    302    301    303     1   109.7500473 328.025600
    303    301    313     1   110.5600475 386.601600
    304    300    329     1   110.1100470 384.091200
    304    316    317     1   109.8000471 387.438400
    304    316    318     1   109.8000471 387.438400
    305    304    316     1   110.5600475 386.601600
    305    304    306     1   109.7500473 328.025600
    306    304    316     1   110.5600475 386.601600
    307    300    329     1   110.1100470 384.091200
    307    310    311     1   109.8000471 387.438400
    307    310    312     1   109.8000471 387.438400
    308    307    310     1   110.5600475 386.601600
    308    307    309     1   109.7500473 328.025600
    309    307    310     1   110.5600475 386.601600
    310    319    320     1   109.5600471 388.275200
    310    319    321     1   109.5600471 388.275200
    311    310    319     1   109.8000471 387.438400
    311    310    312     1   107.5800459 329.699200
    312    310    319     1   109.8000471 387.438400
    313    325    326     1   109.5600471 388.275200
    313    325    327     1   109.5600471 388.275200
    314    313    325     1   109.8000471 387.438400
    314    313    315     1   107.5800459 329.699200
    315    313    325     1   109.8000471 387.438400
    316    322    323     1   109.5600471 388.275200
    316    322    324     1   109.5600471 388.275200
    317    316    322     1   109.8000471 387.438400
    317    316    318     1   107.5800459 329.699200
    318    316    322     1   109.8000471 387.438400
    320    319    328     1   109.7800468 425.094400
    320    319    321     1   108.4600466 328.025600
    321    319    328     1   109.7800468 425.094400
    323    322    688     1   109.7800468 425.094400
    323    322    324     1   108.4600466 328.025600
    324    322    688     1   109.7800468 425.094400
    326    325    718     1   109.7800468 425.094400
    326    325    327     1   108.4600466 328.025600
    327    325    718     1   109.7800468 425.094400
    330    331    332     1   108.0100461 406.684800
    330    331    333     1   108.0100461 406.684800
    330    334    335     1   108.0100461 406.684800
    330    334    336     1   108.0100461 406.684800
    330    337    338     1   108.0100461 406.684800
    330    337    339     1   108.0100461 406.684800
    331    330    359     1   110.1100470 384.091200
    331    343    344     1   109.8000471 387.438400
    331    343    345     1   109.8000471 387.438400
    332    331    343     1   110.5600475 386.601600
    332    331    333     1   109.7500473 328.025600
    333    331    343     1   110.5600475 386.601600
    334    330    359     1   110.1100470 384.091200
    334    346    347     1   109.8000471 387.438400
    334    346    348     1   109.8000471 387.438400
    335    334    346     1   110.5600475 386.601600
    335    334    336     1   109.7500473 328.025600
    336    334    346     1   110.5600475 386.601600
    337    330    359     1   110.1100470 384.091200
    337    340    341     1   109.8000471 387.438400
    337    340    342     1   109.8000471 387.438400
    338    337    340     1   110.5600475 386.601600
    338    337    339     1   109.7500473 328.025600
    339    337    340     1   110.5600475 386.601600
    340    349    350     1   109.5600471 388.275200
    340    349    351     1   109.5600471 388.275200
    341    340    349     1   109.8000471 387.438400
    341    340    342     1   107.5800459 329.699200
    342    340    349     1   109.8000471 387.438400
    343    355    356     1   109.5600471 388.275200
    343    355    357     1   109.5600471 388.275200
    344    343    355     1   109.8000471 387.438400
    344    343    345     1   107.5800459 329.699200
    345    343    355     1   109.8000471 387.438400
    346    352    353     1   109.5600471 388.275200
    346    352    354     1   109.5600471 388.275200
    347    346    352     1   109.8000471 387.438400
    347    346    348     1   107.5800459 329.699200
    348    346    352     1   109.8000471 387.438400
    350    349    358     1   109.7800468 425.094400
    350    349    351     1   108.4600466 328.025600
    351    349    358     1   109.7800468 425.094400
    353    352    748     1   109.7800468 425.094400
    353    352    354     1   108.4600466 328.025600
    354    352    748     1   109.7800468 425.094400
    356    355    778     1   109.7800468 425.094400
    356    355    357     1   108.4600466 328.025600
    357    355    778     1   109.7800468 425.094400
    360    361    362     1   108.0100461 406.684800
    360    361    363     1   108.0100461 406.684800
    360    364    365     1   108.0100461 406.684800
    360    364    366     1   108.0100461 406.684800
    360    367    368     1   108.0100461 406.684800
    360    367    369     1   108.0100461 406.684800
    361    360    389     1   110.1100470 384.091200
    361    373    374     1   109.8000471 387.438400
    361    373    375     1   109.8000471 387.438400
    362    361    373     1   110.5600475 386.601600
    362    361    363     1   109.7500473 328.025600
    363    361    373     1   110.5600475 386.601600
    364    360    389     1   110.1100470 384.091200
    364    376    377     1   109.8000471 387.438400
    364    376    378     1   109.8000471 387.438400
    365    364    376     1   110.5600475 386.601600
    365    364    366     1   109.7500473 328.025600
    366    364    376     1   110.5600475 386.601600
    367    360    389     1   110.1100470 384.091200
    367    370    371     1   109.8000471 387.438400
    367    370    372     1   109.8000471 387.438400
    368    367    370     1   110.5600475 386.601600
    368    367    369     1   109.7500473 328.025600
    369    367    370     1   110.5600475 386.601600
    370    379    380     1   109.5600471 388.275200
    370    379    381     1   109.5600471 388.275200
    371    370    379     1   109.8000471 387.438400
    371    370    372     1   107.5800459 329.699200
    372    370    379     1   109.8000471 387.438400
    373    385    386     1   109.5600471 388.275200
    373    385    387     1   109.5600471 388.275200
    374    373    385     1   109.8000471 387.438400
    374    373    375     1   107.5800459 329.699200
    375    373    385     1   109.8000471 387.438400
    376    382    383     1   109.5600471 388.275200
    376    382    384     1   109.5600471 388.275200
    377    376    382     1   109.8000471 387.438400
    377    376    378     1   107.5800459 329.699200
    378    376    382     1   109.8000471 387.438400
    380    379    388     1   109.7800468 425.094400
    380    379    381     1   108.4600466 328.025600
    381    379    388     1   109.7800468 425.094400
    383    382    808     1   109.7800468 425.094400
    383    382    384     1   108.4600466 328.025600
    384    382    808     1   109.7800468 425.094400
    386    385    838     1   109.7800468 425.094400
    386    385    387     1   108.4600466 328.025600
    387    385    838     1   109.7800468 425.094400
    390    391    392     1   108.0100461 406.684800
    390    391    393     1   108.0100461 406.684800
    390    394    395     1   108.0100461 406.684800
    390    394    396     1   108.0100461 406.684800
    390    397    398     1   108.0100461 406.684800
    390    397    399     1   108.0100461 406.684800
    391    390    419     1   110.1100470 384.091200
    391    403    404     1   109.8000471 387.438400
    391    403    405     1   109.8000471 387.438400
    392    391    403     1   110.5600475 386.601600
    392    391    393     1   109.7500473 328.025600
    393    391    403     1   110.5600475 386.601600
    394    390    419     1   110.1100470 384.091200
    394    406    407     1   109.8000471 387.438400
    394    406    408     1   109.8000471 387.438400
    395    394    406     1   110.5600475 386.601600
    395    394    396     1   109.7500473 328.025600
    396    394    406     1   110.5600475 386.601600
    397    390    419     1   110.1100470 384.091200
    397    400    401     1   109.8000471 387.438400
    397    400    402     1   109.8000471 387.438400
    398    397    400     1   110.5600475 386.601600
    398    397    399     1   109.7500473 328.025600
    399    397    400     1   110.5600475 386.601600
    400    409    410     1   109.5600471 388.275200
    400    409    411     1   109.5600471 388.275200
    401    400    409     1   109.8000471 387.438400
    401    400    402     1   107.5800459 329.699200
    402    400    409     1   109.8000471 387.438400
    403    415    416     1   109.5600471 388.275200
    403    415    417     1   109.5600471 388.275200
    404    403    415     1   109.8000471 387.438400
    404    403    405     1   107.5800459 329.699200
    405    403    415     1   109.8000471 387.438400
    406    412    413     1   109.5600471 388.275200
    406    412    414     1   109.5600471 388.275200
    407    406    412     1   109.8000471 387.438400
    407    406    408     1   107.5800459 329.699200
    408    406    412     1   109.8000471 387.438400
    410    409    418     1   109.7800468 425.094400
    410    409    411     1   108.4600466 328.025600
    411    409    418     1   109.7800468 425.094400
    413    412    868     1   109.7800468 425.094400
    413    412    414     1   108.4600466 328.025600
    414    412    868     1   109.7800468 425.094400
    416    415    898     1   109.7800468 425.094400
    416    415    417     1   108.4600466 328.025600
    417    415    898     1   109.7800468 425.094400
    420    421    422     1   108.0100461 406.684800
    420    421    423     1   108.0100461 406.684800
    420    424    425     1   108.0100461 406.684800
    420    424    426     1   108.0100461 406.684800
    420    427    428     1   108.0100461 406.684800
    420    427    429     1   108.0100461 406.684800
    421    420    449     1   110.1100470 384.091200
    421    433    434     1   109.8000471 387.438400
    421    433    435     1   109.8000471 387.438400
    422    421    433     1   110.5600475 386.601600
    422    421    423     1   109.7500473 328.025600
    423    421    433     1   110.5600475 386.601600
    424    420    449     1   110.1100470 384.091200
    424    436    437     1   109.8000471 387.438400
    424    436    438     1   109.8000471 387.438400
    425    424    436     1   110.5600475 386.601600
    425    424    426     1   109.7500473 328.025600
    426    424    436     1   110.5600475 386.601600
    427    420    449     1   110.1100470 384.091200
    427    430    431     1   109.8000471 387.438400
    427    430    432     1   109.8000471 387.438400
    428    427    430     1   110.5600475 386.601600
    428    427    429     1   109.7500473 328.025600
    429    427    430     1   110.5600475 386.601600
    430    439    440     1   109.5600471 388.275200
    430    439    441     1   109.5600471 388.275200
    431    430    439     1   109.8000471 387.438400
    431    430    432     1   107.5800459 329.699200
    432    430    439     1   109.8000471 387.438400
    433    445    446     1   109.5600471 388.275200
    433    445    447     1   109.5600471 388.275200
    434    433    445     1   109.8000471 387.438400
    434    433    435     1   107.5800459 329.699200
    435    433    445     1   109.8000471 387.438400
    436    442    443     1   109.5600471 388.275200
    436    442    444     1   109.5600471 388.275200
    437    436    442     1   109.8000471 387.438400
    437    436    438     1   107.5800459 329.699200
    438    436    442     1   109.8000471 387.438400
    440    439    448     1   109.7800468 425.094400
    440    439    441     1   108.4600466 328.025600
    441    439    448     1   109.7800468 425.094400
    443    442    928     1   109.7800468 425.094400
    443    442    444     1   108.4600466 328.025600
    444    442    928     1   109.7800468 425.094400
    446    445    958     1   109.7800468 425.094400
    446    445    447     1   108.4600466 328.025600
    447    445    958     1   109.7800468 425.094400
    450    451    452     1   108.0100461 406.684800
    450    451    453     1   108.0100461 406.684800
    450    454    455     1   108.0100461 406.684800
    450    454    456     1   108.0100461 406.684800
    450    457    458     1   108.0100461 406.684800
    450    457    459     1   108.0100461 406.684800
    451    450    479     1   110.1100470 384.091200
    451    463    464     1   109.8000471 387.438400
    451    463    465     1   109.8000471 387.438400
    452    451    463     1   110.5600475 386.601600
    452    451    453     1   109.7500473 328.025600
    453    451    463     1   110.5600475 386.601600
    454    450    479     1   110.1100470 384.091200
    454    466    467     1   109.8000471 387.438400
    454    466    468     1   109.8000471 387.438400
    455    454    466     1   110.5600475 386.601600
    455    454    456     1   109.7500473 328.025600
    456    454    466     1   110.5600475 386.601600
    457    450    479     1   110.1100470 384.091200
    457    460    461     1   109.8000471 387.438400
    457    460    462     1   109.8000471 387.438400
    458    457    460     1   110.5600475 386.601600
    458    457    459     1   109.7500473 328.025600
    459    457    460     1   110.5600475 386.601600
    460    469    470     1   109.5600471 388.275200
    460    469    471     1   109.5600471 388.275200
    461    460    469     1   109.8000471 387.438400
    461    460    462     1   107.5800459 329.699200
    462    460    469     1   109.8000471 387.438400
    463    475    476     1   109.5600471 388.275200
    463    475    477     1   109.5600471 388.275200
    464    463    475     1   109.8000471 387.438400
    464    463    465     1   107.5800459 329.699200
    465    463    475     1   109.8000471 387.438400
    466    472    473     1   109.5600471 388.275200
    466    472    474     1   109.5600471 388.275200
    467    466    472     1   109.8000471 387.438400
    467    466    468     1   107.5800459 329.699200
    468    466    472     1   109.8000471 387.438400
    470    469    478     1   109.7800468 425.094400
    470    469    471     1   108.4600466 328.025600
    471    469    478     1   109.7800468 425.094400
    473    472    988     1   109.7800468 425.094400
    473    472    474     1   108.4600466 328.025600
    474    472    988     1   109.7800468 425.094400
    476    475   1018     1   109.7800468 425.094400
    476    475    477     1   108.4600466 328.025600
    477    475   1018     1   109.7800468 425.094400
    480    481    482     1   108.0100461 406.684800
    480    481    483     1   108.0100461 406.684800
    480    484    485     1   108.0100461 406.684800
    480    484    486     1   108.0100461 406.684800
    480    487    488     1   108.0100461 406.684800
    480    487    489     1   108.0100461 406.684800
    481    480    509     1   110.1100470 384.091200
    481    493    494     1   109.8000471 387.438400
    481    493    495     1   109.8000471 387.438400
    482    481    493     1   110.5600475 386.601600
    482    481    483     1   109.7500473 328.025600
    483    481    493     1   110.5600475 386.601600
    484    480    509     1   110.1100470 384.091200
    484    496    497     1   109.8000471 387.438400
    484    496    498     1   109.8000471 387.438400
    485    484    496     1   110.5600475 386.601600
    485    484    486     1   109.7500473 328.025600
    486    484    496     1   110.5600475 386.601600
    487    480    509     1   110.1100470 384.091200
    487    490    491     1   109.8000471 387.438400
    487    490    492     1   109.8000471 387.438400
    488    487    490     1   110.5600475 386.601600
    488    487    489     1   109.7500473 328.025600
    489    487    490     1   110.5600475 386.601600
    490    499    500     1   109.5600471 388.275200
    490    499    501     1   109.5600471 388.275200
    491    490    499     1   109.8000471 387.438400
    491    490    492     1   107.5800459 329.699200
    492    490    499     1   109.8000471 387.438400
    493    505    506     1   109.5600471 388.275200
    493    505    507     1   109.5600471 388.275200
    494    493    505     1   109.8000471 387.438400
    494    493    495     1   107.5800459 329.699200
    495    493    505     1   109.8000471 387.438400
    496    502    503     1   109.5600471 388.275200
    496    502    504     1   109.5600471 388.275200
    497    496    502     1   109.8000471 387.438400
    497    496    498     1   107.5800459 329.699200
    498    496    502     1   109.8000471 387.438400
    500    499    508     1   109.7800468 425.094400
    500    499    501     1   108.4600466 328.025600
    501    499    508     1   109.7800468 425.094400
    503    502   1048     1   109.7800468 425.094400
    503    502    504     1   108.4600466 328.025600
    504    502   1048     1   109.7800468 425.094400
    506    505   1078     1   109.7800468 425.094400
    506    505    507     1   108.4600466 328.025600
    507    505   1078     1   109.7800468 425.094400
    510    511    512     1   108.0100461 406.684800
    510    511    513     1   108.0100461 406.684800
    510    514    515     1   108.0100461 406.684800
    510    514    516     1   108.0100461 406.684800
    510    517    518     1   108.0100461 406.684800
    510    517    519     1   108.0100461 406.684800
    511    510    539     1   110.1100470 384.091200
    511    523    524     1   109.8000471 387.438400
    511    523    525     1   109.8000471 387.438400
    512    511    523     1   110.5600475 386.601600
    512    511    513     1   109.7500473 328.025600
    513    511    523     1   110.5600475 386.601600
    514    510    539     1   110.1100470 384.091200
    514    526    527     1   109.8000471 387.438400
    514    526    528     1   109.8000471 387.438400
    515    514    526     1   110.5600475 386.601600
    515    514    516     1   109.7500473 328.025600
    516    514    526     1   110.5600475 386.601600
    517    510    539     1   110.1100470 384.091200
    517    520    521     1   109.8000471 387.438400
    517    520    522     1   109.8000471 387.438400
    518    517    520     1   110.5600475 386.601600
    518    517    519     1   109.7500473 328.025600
    519    517    520     1   110.5600475 386.601600
    520    529    530     1   109.5600471 388.275200
    520    529    531     1   109.5600471 388.275200
    521    520    529     1   109.8000471 387.438400
    521    520    522     1   107.5800459 329.699200
    522    520    529     1   109.8000471 387.438400
    523    535    536     1   109.5600471 388.275200
    523    535    537     1   109.5600471 388.275200
    524    523    535     1   109.8000471 387.438400
    524    523    525     1   107.5800459 329.699200
    525    523    535     1   109.8000471 387.438400
    526    532    533     1   109.5600471 388.275200
    526    532    534     1   109.5600471 388.275200
    527    526    532     1   109.8000471 387.438400
    527    526    528     1   107.5800459 329.699200
    528    526    532     1   109.8000471 387.438400
    530    529    538     1   109.7800468 425.094400
    530    529    531     1   108.4600466 328.025600
    531    529    538     1   109.7800468 425.094400
    533    532   1108     1   109.7800468 425.094400
    533    532    534     1   108.4600466 328.025600
    534    532   1108     1   109.7800468 425.094400
    536    535   1138     1   109.7800468 425.094400
    536    535    537     1   108.4600466 328.025600
    537    535   1138     1   109.7800468 425.094400
    540    541    542     1   108.0100461 406.684800
    540    541    543     1   108.0100461 406.684800
    540    544    545     1   108.0100461 406.684800
    540    544    546     1   108.0100461 406.684800
    540    547    548     1   108.0100461 406.684800
    540    547    549     1   108.0100461 406.684800
    541    540    569     1   110.1100470 384.091200
    541    553    554     1   109.8000471 387.438400
    541    553    555     1   109.8000471 387.438400
    542    541    553     1   110.5600475 386.601600
    542    541    543     1   109.7500473 328.025600
    543    541    553     1   110.5600475 386.601600
    544    540    569     1   110.1100470 384.091200
    544    556    557     1   109.8000471 387.438400
    544    556    558     1   109.8000471 387.438400
    545    544    556     1   110.5600475 386.601600
    545    544    546     1   109.7500473 328.025600
    546    544    556     1   110.5600475 386.601600
    547    540    569     1   110.1100470 384.091200
    547    550    551     1   109.8000471 387.438400
    547    550    552     1   109.8000471 387.438400
    548    547    550     1   110.5600475 386.601600
    548    547    549     1   109.7500473 328.025600
    549    547    550     1   110.5600475 386.601600
    550    559    560     1   109.5600471 388.275200
    550    559    561     1   109.5600471 388.275200
    551    550    559     1   109.8000471 387.438400
    551    550    552     1   107.5800459 329.699200
    552    550    559     1   109.8000471 387.438400
    553    565    566     1   109.5600471 388.275200
    553    565    567     1   109.5600471 388.275200
    554    553    565     1   109.8000471 387.438400
    554    553    555     1   107.5800459 329.699200
    555    553    565     1   109.8000471 387.438400
    556    562    563     1   109.5600471 388.275200
    556    562    564     1   109.5600471 388.275200
    557    556    562     1   109.8000471 387.438400
    557    556    558     1   107.5800459 329.699200
    558    556    562     1   109.8000471 387.438400
    560    559    568     1   109.7800468 425.094400
    560    559    561     1   108.4600466 328.025600
    561    559    568     1   109.7800468 425.094400
    563    562   1168     1   109.7800468 425.094400
    563    562    564     1   108.4600466 328.025600
    564    562   1168     1   109.7800468 425.094400
    566    565   1198     1   109.7800468 425.094400
    566    565    567     1   108.4600466 328.025600
    567    565   1198     1   109.7800468 425.094400
    570    571    572     1   108.0100461 406.684800
    570    571    573     1   108.0100461 406.684800
    570    574    575     1   108.0100461 406.684800
    570    574    576     1   108.0100461 406.684800
    570    577    578     1   108.0100461 406.684800
    570    577    579     1   108.0100461 406.684800
    571    570    599     1   110.1100470 384.091200
    571    583    584     1   109.8000471 387.438400
    571    583    585     1   109.8000471 387.438400
    572    571    583     1   110.5600475 386.601600
    572    571    573     1   109.7500473 328.025600
    573    571    583     1   110.5600475 386.601600
    574    570    599     1   110.1100470 384.091200
    574    586    587     1   109.8000471 387.438400
    574    586    588     1   109.8000471 387.438400
    575    574    586     1   110.5600475 386.601600
    575    574    576     1   109.7500473 328.025600
    576    574    586     1   110.5600475 386.601600
    577    570    599     1   110.1100470 384.091200
    577    580    581     1   109.8000471 387.438400
    577    580    582     1   109.8000471 387.438400
    578    577    580     1   110.5600475 386.601600
    578    577    579     1   109.7500473 328.025600
    579    577    580     1   110.5600475 386.601600
    580    589    590     1   109.5600471 388.275200
    580    589    591     1   109.5600471 388.275200
    581    580    589     1   109.8000471 387.438400
    581    580    582     1   107.5800459 329.699200
    582    580    589     1   109.8000471 387.438400
    583    595    596     1   109.5600471 388.275200
    583    595    597     1   109.5600471 388.275200
    584    583    595     1   109.8000471 387.438400
    584    583    585     1   107.5800459 329.699200
    585    583    595     1   109.8000471 387.438400
    586    592    593     1   109.5600471 388.275200
    586    592    594     1   109.5600471 388.275200
    587    586    592     1   109.8000471 387.438400
    587    586    588     1   107.5800459 329.699200
    588    586    592     1   109.8000471 387.438400
    590    589    598     1   109.7800468 425.094400
    590    589    591     1   108.4600466 328.025600
    591    589    598     1   109.7800468 425.094400
    593    592   1228     1   109.7800468 425.094400
    593    592    594     1   108.4600466 328.025600
    594    592   1228     1   109.7800468 425.094400
    596    595   1258     1   109.7800468 425.094400
    596    595    597     1   108.4600466 328.025600
    597    595   1258     1   109.7800468 425.094400
    600    601    602     1   108.0100461 406.684800
    600    601    603     1   108.0100461 406.684800
    600    604    605     1   108.0100461 406.684800
    600    604    606     1   108.0100461 406.684800
    600    607    608     1   108.0100461 406.684800
    600    607    609     1   108.0100461 406.684800
    601    600    629     1   110.1100470 384.091200
    601    613    614     1   109.8000471 387.438400
    601    613    615     1   109.8000471 387.438400
    602    601    613     1   110.5600475 386.601600
    602    601    603     1   109.7500473 328.025600
    603    601    613     1   110.5600475 386.601600
    604    600    629     1   110.1100470 384.091200
    604    616    617     1   109.8000471 387.438400
    604    616    618     1   109.8000471 387.438400
    605    604    616     1   110.5600475 386.601600
    605    604    606     1   109.7500473 328.025600
    606    604    616     1   110.5600475 386.601600
    607    600    629     1   110.1100470 384.091200
    607    610    611     1   109.8000471 387.438400
    607    610    612     1   109.8000471 387.438400
    608    607    610     1   110.5600475 386.601600
    608    607    609     1   109.7500473 328.025600
    609    607    610     1   110.5600475 386.601600
    610    619    620     1   109.5600471 388.275200
    610    619    621     1   109.5600471 388.275200
    611    610    619     1   109.8000471 387.438400
    611    610    612     1   107.5800459 329.699200
    612    610    619     1   109.8000471 387.438400
    613    625    626     1   109.5600471 388.275200
    613    625    627     1   109.5600471 388.275200
    614    613    625     1   109.8000471 387.438400
    614    613    615     1   107.5800459 329.699200
    615    613    625     1   109.8000471 387.438400
    616    622    623     1   109.5600471 388.275200
    616    622    624     1   109.5600471 388.275200
    617    616    622     1   109.8000471 387.438400
    617    616    618     1   107.5800459 329.699200
    618    616    622     1   109.8000471 387.438400
    620    619    628     1   109.7800468 425.094400
    620    619    621     1   108.4600466 328.025600
    621    619    628     1   109.7800468 425.094400
    623    622   1288     1   109.7800468 425.094400
    623    622    624     1   108.4600466 328.025600
    624    622   1288     1   109.7800468 425.094400
    626    625   1318     1   109.7800468 425.094400
    626    625    627     1   108.4600466 328.025600
    627    625   1318     1   109.7800468 425.094400
    630    631    632     1   108.0100461 406.684800
    630    631    633     1   108.0100461 406.684800
    630    634    635     1   108.0100461 406.684800
    630    634    636     1   108.0100461 406.684800
    630    637    638     1   108.0100461 406.684800
    630    637    639     1   108.0100461 406.684800
    631    630    659     1   110.1100470 384.091200
    631    643    644     1   109.8000471 387.438400
    631    643    645     1   109.8000471 387.438400
    632    631    643     1   110.5600475 386.601600
    632    631    633     1   109.7500473 328.025600
    633    631    643     1   110.5600475 386.601600
    634    630    659     1   110.1100470 384.091200
    634    646    647     1   109.8000471 387.438400
    634    646    648     1   109.8000471 387.438400
    635    634    646     1   110.5600475 386.601600
    635    634    636     1   109.7500473 328.025600
    636    634    646     1   110.5600475 386.601600
    637    630    659     1   110.1100470 384.091200
    637    640    641     1   109.8000471 387.438400
    637    640    642     1   109.8000471 387.438400
    638    637    640     1   110.5600475 386.601600
    638    637    639     1   109.7500473 328.025600
    639    637    640     1   110.5600475 386.601600
    640    649    650     1   109.5600471 388.275200
    640    649    651     1   109.5600471 388.275200
    641    640    649     1   109.8000471 387.438400
    641    640    642     1   107.5800459 329.699200
    642    640    649     1   109.8000471 387.438400
    643    655    656     1   109.5600471 388.275200
    643    655    657     1   109.5600471 388.275200
    644    643    655     1   109.8000471 387.438400
    644    643    645     1   107.5800459 329.699200
    645    643    655     1   109.8000471 387.438400
    646    652    653     1   109.5600471 388.275200
    646    652    654     1   109.5600471 388.275200
    647    646    652     1   109.8000471 387.438400
    647    646    648     1   107.5800459 329.699200
    648    646    652     1   109.8000471 387.438400
    650    649    658     1   109.7800468 425.094400
    650    649    651     1   108.4600466 328.025600
    651    649    658     1   109.7800468 425.094400
    653    652   1348     1   109.7800468 425.094400
    653    652    654     1   108.4600466 328.025600
    654    652   1348     1   109.7800468 425.094400
    656    655   1378     1   109.7800468 425.094400
    656    655    657     1   108.4600466 328.025600
    657    655   1378     1   109.7800468 425.094400
    660    661    662     1   108.0100461 406.684800
    660    661    663     1   108.0100461 406.684800
    660    664    665     1   108.0100461 406.684800
    660    664    666     1   108.0100461 406.684800
    660    667    668     1   108.0100461 406.684800
    660    667    669     1   108.0100461 406.684800
    661    660    689     1   110.1100470 384.091200
    661    673    674     1   109.8000471 387.438400
    661    673    675     1   109.8000471 387.438400
    662    661    673     1   110.5600475 386.601600
    662    661    663     1   109.7500473 328.025600
    663    661    673     1   110.5600475 386.601600
    664    660    689     1   110.1100470 384.091200
    664    676    677     1   109.8000471 387.438400
    664    676    678     1   109.8000471 387.438400
    665    664    676     1   110.5600475 386.601600
    665    664    666     1   109.7500473 328.025600
    666    664    676     1   110.5600475 386.601600
    667    660    689     1   110.1100470 384.091200
    667    670    671     1   109.8000471 387.438400
    667    670    672     1   109.8000471 387.438400
    668    667    670     1   110.5600475 386.601600
    668    667    669     1   109.7500473 328.025600
    669    667    670     1   110.5600475 386.601600
    670    679    680     1   109.5600471 388.275200
    670    679    681     1   109.5600471 388.275200
    671    670    679     1   109.8000471 387.438400
    671    670    672     1   107.5800459 329.699200
    672    670    679     1   109.8000471 387.438400
    673    685    686     1   109.5600471 388.275200
    673    685    687     1   109.5600471 388.275200
    674    673    685     1   109.8000471 387.438400
    674    673    675     1   107.5800459 329.699200
    675    673    685     1   109.8000471 387.438400
    676    682    683     1   109.5600471 388.275200
    676    682    684     1   109.5600471 388.275200
    677    676    682     1   109.8000471 387.438400
    677    676    678     1   107.5800459 329.699200
    678    676    682     1   109.8000471 387.438400
    680    679    688     1   109.7800468 425.094400
    680    679    681     1   108.4600466 328.025600
    681    679    688     1   109.7800468 425.094400
    683    682   1408     1   109.7800468 425.094400
    683    682    684     1   108.4600466 328.025600
    684    682   1408     1   109.7800468 425.094400
    686    685   1438     1   109.7800468 425.094400
    686    685    687     1   108.4600466 328.025600
    687    685   1438     1   109.7800468 425.094400
    690    691    692     1   108.0100461 406.684800
    690    691    693     1   108.0100461 406.684800
    690    694    695     1   108.0100461 406.684800
    690    694    696     1   108.0100461 406.684800
    690    697    698     1   108.0100461 406.684800
    690    697    699     1   108.0100461 406.684800
    691    690    719     1   110.1100470 384.091200
    691    703    704     1   109.8000471 387.438400
    691    703    705     1   109.8000471 387.438400
    692    691    703     1   110.5600475 386.601600
    692    691    693     1   109.7500473 328.025600
    693    691    703     1   110.5600475 386.601600
    694    690    719     1   110.1100470 384.091200
    694    706    707     1   109.8000471 387.438400
    694    706    708     1   109.8000471 387.438400
    695    694    706     1   110.5600475 386.601600
    695    694    696     1   109.7500473 328.025600
    696    694    706     1   110.5600475 386.601600
    697    690    719     1   110.1100470 384.091200
    697    700    701     1   109.8000471 387.438400
    697    700    702     1   109.8000471 387.438400
    698    697    700     1   110.5600475 386.601600
    698    697    699     1   109.7500473 328.025600
    699    697    700     1   110.5600475 386.601600
    700    709    710     1   109.5600471 388.275200
    700    709    711     1   109.5600471 388.275200
    701    700    709     1   109.8000471 387.438400
    701    700    702     1   107.5800459 329.699200
    702    700    709     1   109.8000471 387.438400
    703    715    716     1   109.5600471 388.275200
    703    715    717     1   109.5600471 388.275200
    704    703    715     1   109.8000471 387.438400
    704    703    705     1   107.5800459 329.699200
    705    703    715     1   109.8000471 387.438400
    706    712    713     1   109.5600471 388.275200
    706    712    714     1   109.5600471 388.275200
    707    706    712     1   109.8000471 387.438400
    707    706    708     1   107.5800459 329.699200
    708    706    712     1   109.8000471 387.438400
    710    709    718     1   109.7800468 425.094400
    710    709    711     1   108.4600466 328.025600
    711    709    718     1   109.7800468 425.094400
    713    712   1468     1   109.7800468 425.094400
    713    712    714     1   108.4600466 328.025600
    714    712   1468     1   109.7800468 425.094400
    716    715   1498     1   109.7800468 425.094400
    716    715    717     1   108.4600466 328.025600
    717    715   1498     1   109.7800468 425.094400
    720    721    722     1   108.0100461 406.684800
    720    721    723     1   108.0100461 406.684800
    720    724    725     1   108.0100461 406.684800
    720    724    726     1   108.0100461 406.684800
    720    727    728     1   108.0100461 406.684800
    720    727    729     1   108.0100461 406.684800
    721    720    749     1   110.1100470 384.091200
    721    733    734     1   109.8000471 387.438400
    721    733    735     1   109.8000471 387.438400
    722    721    733     1   110.5600475 386.601600
    722    721    723     1   109.7500473 328.025600
    723    721    733     1   110.5600475 386.601600
    724    720    749     1   110.1100470 384.091200
    724    736    737     1   109.8000471 387.438400
    724    736    738     1   109.8000471 387.438400
    725    724    736     1   110.5600475 386.601600
    725    724    726     1   109.7500473 328.025600
    726    724    736     1   110.5600475 386.601600
    727    720    749     1   110.1100470 384.091200
    727    730    731     1   109.8000471 387.438400
    727    730    732     1   109.8000471 387.438400
    728    727    730     1   110.5600475 386.601600
    728    727    729     1   109.7500473 328.025600
    729    727    730     1   110.5600475 386.601600
    730    739    740     1   109.5600471 388.275200
    730    739    741     1   109.5600471 388.275200
    731    730    739     1   109.8000471 387.438400
    731    730    732     1   107.5800459 329.699200
    732    730    739     1   109.8000471 387.438400
    733    745    746     1   109.5600471 388.275200
    733    745    747     1   109.5600471 388.275200
    734    733    745     1   109.8000471 387.438400
    734    733    735     1   107.5800459 329.699200
    735    733    745     1   109.8000471 387.438400
    736    742    743     1   109.5600471 388.275200
    736    742    744     1   109.5600471 388.275200
    737    736    742     1   109.8000471 387.438400
    737    736    738     1   107.5800459 329.699200
    738    736    742     1   109.8000471 387.438400
    740    739    748     1   109.7800468 425.094400
    740    739    741     1   108.4600466 328.025600
    741    739    748     1   109.7800468 425.094400
    743    742   1528     1   109.7800468 425.094400
    743    742    744     1   108.4600466 328.025600
    744    742   1528     1   109.7800468 425.094400
    746    745   1558     1   109.7800468 425.094400
    746    745    747     1   108.4600466 328.025600
    747    745   1558     1   109.7800468 425.094400
    750    751    752     1   108.0100461 406.684800
    750    751    753     1   108.0100461 406.684800
    750    754    755     1   108.0100461 406.684800
    750    754    756     1   108.0100461 406.684800
    750    757    758     1   108.0100461 406.684800
    750    757    759     1   108.0100461 406.684800
    751    750    779     1   110.1100470 384.091200
    751    763    764     1   109.8000471 387.438400
    751    763    765     1   109.8000471 387.438400
    752    751    763     1   110.5600475 386.601600
    752    751    753     1   109.7500473 328.025600
    753    751    763     1   110.5600475 386.601600
    754    750    779     1   110.1100470 384.091200
    754    766    767     1   109.8000471 387.438400
    754    766    768     1   109.8000471 387.438400
    755    754    766     1   110.5600475 386.601600
    755    754    756     1   109.7500473 328.025600
    756    754    766     1   110.5600475 386.601600
    757    750    779     1   110.1100470 384.091200
    757    760    761     1   109.8000471 387.438400
    757    760    762     1   109.8000471 387.438400
    758    757    760     1   110.5600475 386.601600
    758    757    759     1   109.7500473 328.025600
    759    757    760     1   110.5600475 386.601600
    760    769    770     1   109.5600471 388.275200
    760    769    771     1   109.5600471 388.275200
    761    760    769     1   109.8000471 387.438400
    761    760    762     1   107.5800459 329.699200
    762    760    769     1   109.8000471 387.438400
    763    775    776     1   109.5600471 388.275200
    763    775    777     1   109.5600471 388.275200
    764    763    775     1   109.8000471 387.438400
    764    763    765     1   107.5800459 329.699200
    765    763    775     1   109.8000471 387.438400
    766    772    773     1   109.5600471 388.275200
    766    772    774     1   109.5600471 388.275200
    767    766    772     1   109.8000471 387.438400
    767    766    768     1   107.5800459 329.699200
    768    766    772     1   109.8000471 387.438400
    770    769    778     1   109.7800468 425.094400
    770    769    771     1   108.4600466 328.025600
    771    769    778     1   109.7800468 425.094400
    773    772   1588     1   109.7800468 425.094400
    773    772    774     1   108.4600466 328.025600
    774    772   1588     1   109.7800468 425.094400
    776    775   1618     1   109.7800468 425.094400
    776    775    777     1   108.4600466 328.025600
    777    775   1618     1   109.7800468 425.094400
    780    781    782     1   108.0100461 406.684800
    780    781    783     1   108.0100461 406.684800
    780    784    785     1   108.0100461 406.684800
    780    784    786     1   108.0100461 406.684800
    780    787    788     1   108.0100461 406.684800
    780    787    789     1   108.0100461 406.684800
    781    780    809     1   110.1100470 384.091200
    781    793    794     1   109.8000471 387.438400
    781    793    795     1   109.8000471 387.438400
    782    781    793     1   110.5600475 386.601600
    782    781    783     1   109.7500473 328.025600
    783    781    793     1   110.5600475 386.601600
    784    780    809     1   110.1100470 384.091200
    784    796    797     1   109.8000471 387.438400
    784    796    798     1   109.8000471 387.438400
    785    784    796     1   110.5600475 386.601600
    785    784    786     1   109.7500473 328.025600
    786    784    796     1   110.5600475 386.601600
    787    780    809     1   110.1100470 384.091200
    787    790    791     1   109.8000471 387.438400
    787    790    792     1   109.8000471 387.438400
    788    787    790     1   110.5600475 386.601600
    788    787    789     1   109.7500473 328.025600
    789    787    790     1   110.5600475 386.601600
    790    799    800     1   109.5600471 388.275200
    790    799    801     1   109.5600471 388.275200
    791    790    799     1   109.8000471 387.438400
    791    790    792     1   107.5800459 329.699200
    792    790    799     1   109.8000471 387.438400
    793    805    806     1   109.5600471 388.275200
    793    805    807     1   109.5600471 388.275200
    794    793    805     1   109.8000471 387.438400
    794    793    795     1   107.5800459 329.699200
    795    793    805     1   109.8000471 387.438400
    796    802    803     1   109.5600471 388.275200
    796    802    804     1   109.5600471 388.275200
    797    796    802     1   109.8000471 387.438400
    797    796    798     1   107.5800459 329.699200
    798    796    802     1   109.8000471 387.438400
    800    799    808     1   109.7800468 425.094400
    800    799    801     1   108.4600466 328.025600
    801    799    808     1   109.7800468 425.094400
    803    802   1648     1   109.7800468 425.094400
    803    802    804     1   108.4600466 328.025600
    804    802   1648     1   109.7800468 425.094400
    806    805   1678     1   109.7800468 425.094400
    806    805    807     1   108.4600466 328.025600
    807    805   1678     1   109.7800468 425.094400
    810    811    812     1   108.0100461 406.684800
    810    811    813     1   108.0100461 406.684800
    810    814    815     1   108.0100461 406.684800
    810    814    816     1   108.0100461 406.684800
    810    817    818     1   108.0100461 406.684800
    810    817    819     1   108.0100461 406.684800
    811    810    839     1   110.1100470 384.091200
    811    823    824     1   109.8000471 387.438400
    811    823    825     1   109.8000471 387.438400
    812    811    823     1   110.5600475 386.601600
    812    811    813     1   109.7500473 328.025600
    813    811    823     1   110.5600475 386.601600
    814    810    839     1   110.1100470 384.091200
    814    826    827     1   109.8000471 387.438400
    814    826    828     1   109.8000471 387.438400
    815    814    826     1   110.5600475 386.601600
    815    814    816     1   109.7500473 328.025600
    816    814    826     1   110.5600475 386.601600
    817    810    839     1   110.1100470 384.091200
    817    820    821     1   109.8000471 387.438400
    817    820    822     1   109.8000471 387.438400
    818    817    820     1   110.5600475 386.601600
    818    817    819     1   109.7500473 328.025600
    819    817    820     1   110.5600475 386.601600
    820    829    830     1   109.5600471 388.275200
    820    829    831     1   109.5600471 388.275200
    821    820    829     1   109.8000471 387.438400
    821    820    822     1   107.5800459 329.699200
    822    820    829     1   109.8000471 387.438400
    823    835    836     1   109.5600471 388.275200
    823    835    837     1   109.5600471 388.275200
    824    823    835     1   109.8000471 387.438400
    824    823    825     1   107.5800459 329.699200
    825    823    835     1   109.8000471 387.438400
    826    832    833     1   109.5600471 388.275200
    826    832    834     1   109.5600471 388.275200
    827    826    832     1   109.8000471 387.438400
    827    826    828     1   107.5800459 329.699200
    828    826    832     1   109.8000471 387.438400
    830    829    838     1   109.7800468 425.094400
    830    829    831     1   108.4600466 328.025600
    831    829    838     1   109.7800468 425.094400
    833    832   1708     1   109.7800468 425.094400
    833    832    834     1   108.4600466 328.025600
    834    832   1708     1   109.7800468 425.094400
    836    835   1738     1   109.7800468 425.094400
    836    835    837     1   108.4600466 328.025600
    837    835   1738     1   109.7800468 425.094400
    840    841    842     1   108.0100461 406.684800
    840    841    843     1   108.0100461 406.684800
    840    844    845     1   108.0100461 406.684800
    840    844    846     1   108.0100461 406.684800
    840    847    848     1   108.0100461 406.684800
    840    847    849     1   108.0100461 406.684800
    841    840    869     1   110.1100470 384.091200
    841    853    854     1   109.8000471 387.438400
    841    853    855     1   109.8000471 387.438400
    842    841    853     1   110.5600475 386.601600
    842    841    843     1   109.7500473 328.025600
    843    841    853     1   110.5600475 386.601600
    844    840    869     1   110.1100470 384.091200
    844    856    857     1   109.8000471 387.438400
    844    856    858     1   109.8000471 387.438400
    845    844    856     1   110.5600475 386.601600
    845    844    846     1   109.7500473 328.025600
    846    844    856     1   110.5600475 386.601600
    847    840    869     1   110.1100470 384.091200
    847    850    851     1   109.8000471 387.438400
    847    850    852     1   109.8000471 387.438400
    848    847    850     1   110.5600475 386.601600
    848    847    849     1   109.7500473 328.025600
    849    847    850     1   110.5600475 386.601600
    850    859    860     1   109.5600471 388.275200
    850    859    861     1   109.5600471 388.275200
    851    850    859     1   109.8000471 387.438400
    851    850    852     1   107.5800459 329.699200
    852    850    859     1   109.8000471 387.438400
    853    865    866     1   109.5600471 388.275200
    853    865    867     1   109.5600471 388.275200
    854    853    865     1   109.8000471 387.438400
    854    853    855     1   107.5800459 329.699200
    855    853    865     1   109.8000471 387.438400
    856    862    863     1   109.5600471 388.275200
    856    862    864     1   109.5600471 388.275200
    857    856    862     1   109.8000471 387.438400
    857    856    858     1   107.5800459 329.699200
    858    856    862     1   109.8000471 387.438400
    860    859    868     1   109.7800468 425.094400
    860    859    861     1   108.4600466 328.025600
    861    859    868     1   109.7800468 425.094400
    863    862   1768     1   109.7800468 425.094400
    863    862    864     1   108.4600466 328.025600
    864    862   1768     1   109.7800468 425.094400
    866    865   1798     1   109.7800468 425.094400
    866    865    867     1   108.4600466 328.025600
    867    865   1798     1   109.7800468 425.094400
    870    871    872     1   108.0100461 406.684800
    870    871    873     1   108.0100461 406.684800
    870    874    875     1   108.0100461 406.684800
    870    874    876     1   108.0100461 406.684800
    870    877    878     1   108.0100461 406.684800
    870    877    879     1   108.0100461 406.684800
    871    870    899     1   110.1100470 384.091200
    871    883    884     1   109.8000471 387.438400
    871    883    885     1   109.8000471 387.438400
    872    871    883     1   110.5600475 386.601600
    872    871    873     1   109.7500473 328.025600
    873    871    883     1   110.5600475 386.601600
    874    870    899     1   110.1100470 384.091200
    874    886    887     1   109.8000471 387.438400
    874    886    888     1   109.8000471 387.438400
    875    874    886     1   110.5600475 386.601600
    875    874    876     1   109.7500473 328.025600
    876    874    886     1   110.5600475 386.601600
    877    870    899     1   110.1100470 384.091200
    877    880    881     1   109.8000471 387.438400
    877    880    882     1   109.8000471 387.438400
    878    877    880     1   110.5600475 386.601600
    878    877    879     1   109.7500473 328.025600
    879    877    880     1   110.5600475 386.601600
    880    889    890     1   109.5600471 388.275200
    880    889    891     1   109.5600471 388.275200
    881    880    889     1   109.8000471 387.438400
    881    880    882     1   107.5800459 329.699200
    882    880    889     1   109.8000471 387.438400
    883    895    896     1   109.5600471 388.275200
    883    895    897     1   109.5600471 388.275200
    884    883    895     1   109.8000471 387.438400
    884    883    885     1   107.5800459 329.699200
    885    883    895     1   109.8000471 387.438400
    886    892    893     1   109.5600471 388.275200
    886    892    894     1   109.5600471 388.275200
    887    886    892     1   109.8000471 387.438400
    887    886    888     1   107.5800459 329.699200
    888    886    892     1   109.8000471 387.438400
    890    889    898     1   109.7800468 425.094400
    890    889    891     1   108.4600466 328.025600
    891    889    898     1   109.7800468 425.094400
    893    892   1828     1   109.7800468 425.094400
    893    892    894     1   108.4600466 328.025600
    894    892   1828     1   109.7800468 425.094400
    896    895   1858     1   109.7800468 425.094400
    896    895    897     1   108.4600466 328.025600
    897    895   1858     1   109.7800468 425.094400
    900    901    902     1   108.0100461 406.684800
    900    901    903     1   108.0100461 406.684800
    900    904    905     1   108.0100461 406.684800
    900    904    906     1   108.0100461 406.684800
    900    907    908     1   108.0100461 406.684800
    900    907    909     1   108.0100461 406.684800
    901    900    929     1   110.1100470 384.091200
    901    913    914     1   109.8000471 387.438400
    901    913    915     1   109.8000471 387.438400
    902    901    913     1   110.5600475 386.601600
    902    901    903     1   109.7500473 328.025600
    903    901    913     1   110.5600475 386.601600
    904    900    929     1   110.1100470 384.091200
    904    916    917     1   109.8000471 387.438400
    904    916    918     1   109.8000471 387.438400
    905    904    916     1   110.5600475 386.601600
    905    904    906     1   109.7500473 328.025600
    906    904    916     1   110.5600475 386.601600
    907    900    929     1   110.1100470 384.091200
    907    910    911     1   109.8000471 387.438400
    907    910    912     1   109.8000471 387.438400
    908    907    910     1   110.5600475 386.601600
    908    907    909     1   109.7500473 328.025600
    909    907    910     1   110.5600475 386.601600
    910    919    920     1   109.5600471 388.275200
    910    919    921     1   109.5600471 388.275200
    911    910    919     1   109.8000471 387.438400
    911    910    912     1   107.5800459 329.699200
    912    910    919     1   109.8000471 387.438400
    913    925    926     1   109.5600471 388.275200
    913    925    927     1   109.5600471 388.275200
    914    913    925     1   109.8000471 387.438400
    914    913    915     1   107.5800459 329.699200
    915    913    925     1   109.8000471 387.438400
    916    922    923     1   109.5600471 388.275200
    916    922    924     1   109.5600471 388.275200
    917    916    922     1   109.8000471 387.438400
    917    916    918     1   107.5800459 329.699200
    918    916    922     1   109.8000471 387.438400
    920    919    928     1   109.7800468 425.094400
    920    919    921     1   108.4600466 328.025600
    921    919    928     1   109.7800468 425.094400
    923    922   1890     1   109.7800468 425.094400
    923    922    924     1   108.4600466 328.025600
    924    922   1890     1   109.7800468 425.094400
    926    925   1922     1   109.7800468 425.094400
    926    925    927     1   108.4600466 328.025600
    927    925   1922     1   109.7800468 425.094400
    930    931    932     1   108.0100461 406.684800
    930    931    933     1   108.0100461 406.684800
    930    934    935     1   108.0100461 406.684800
    930    934    936     1   108.0100461 406.684800
    930    937    938     1   108.0100461 406.684800
    930    937    939     1   108.0100461 406.684800
    931    930    959     1   110.1100470 384.091200
    931    943    944     1   109.8000471 387.438400
    931    943    945     1   109.8000471 387.438400
    932    931    943     1   110.5600475 386.601600
    932    931    933     1   109.7500473 328.025600
    933    931    943     1   110.5600475 386.601600
    934    930    959     1   110.1100470 384.091200
    934    946    947     1   109.8000471 387.438400
    934    946    948     1   109.8000471 387.438400
    935    934    946     1   110.5600475 386.601600
    935    934    936     1   109.7500473 328.025600
    936    934    946     1   110.5600475 386.601600
    937    930    959     1   110.1100470 384.091200
    937    940    941     1   109.8000471 387.438400
    937    940    942     1   109.8000471 387.438400
    938    937    940     1   110.5600475 386.601600
    938    937    939     1   109.7500473 328.025600
    939    937    940     1   110.5600475 386.601600
    940    949    950     1   109.5600471 388.275200
    940    949    951     1   109.5600471 388.275200
    941    940    949     1   109.8000471 387.438400
    941    940    942     1   107.5800459 329.699200
    942    940    949     1   109.8000471 387.438400
    943    955    956     1   109.5600471 388.275200
    943    955    957     1   109.5600471 388.275200
    944    943    955     1   109.8000471 387.438400
    944    943    945     1   107.5800459 329.699200
    945    943    955     1   109.8000471 387.438400
    946    952    953     1   109.5600471 388.275200
    946    952    954     1   109.5600471 388.275200
    947    946    952     1   109.8000471 387.438400
    947    946    948     1   107.5800459 329.699200
    948    946    952     1   109.8000471 387.438400
    950    949    958     1   109.7800468 425.094400
    950    949    951     1   108.4600466 328.025600
    951    949    958     1   109.7800468 425.094400
    953    952   1954     1   109.7800468 425.094400
    953    952    954     1   108.4600466 328.025600
    954    952   1954     1   109.7800468 425.094400
    956    955   1986     1   109.7800468 425.094400
    956    955    957     1   108.4600466 328.025600
    957    955   1986     1   109.7800468 425.094400
    960    961    962     1   108.0100461 406.684800
    960    961    963     1   108.0100461 406.684800
    960    964    965     1   108.0100461 406.684800
    960    964    966     1   108.0100461 406.684800
    960    967    968     1   108.0100461 406.684800
    960    967    969     1   108.0100461 406.684800
    961    960    989     1   110.1100470 384.091200
    961    973    974     1   109.8000471 387.438400
    961    973    975     1   109.8000471 387.438400
    962    961    973     1   110.5600475 386.601600
    962    961    963     1   109.7500473 328.025600
    963    961    973     1   110.5600475 386.601600
    964    960    989     1   110.1100470 384.091200
    964    976    977     1   109.8000471 387.438400
    964    976    978     1   109.8000471 387.438400
    965    964    976     1   110.5600475 386.601600
    965    964    966     1   109.7500473 328.025600
    966    964    976     1   110.5600475 386.601600
    967    960    989     1   110.1100470 384.091200
    967    970    971     1   109.8000471 387.438400
    967    970    972     1   109.8000471 387.438400
    968    967    970     1   110.5600475 386.601600
    968    967    969     1   109.7500473 328.025600
    969    967    970     1   110.5600475 386.601600
    970    979    980     1   109.5600471 388.275200
    970    979    981     1   109.5600471 388.275200
    971    970    979     1   109.8000471 387.438400
    971    970    972     1   107.5800459 329.699200
    972    970    979     1   109.8000471 387.438400
    973    985    986     1   109.5600471 388.275200
    973    985    987     1   109.5600471 388.275200
    974    973    985     1   109.8000471 387.438400
    974    973    975     1   107.5800459 329.699200
    975    973    985     1   109.8000471 387.438400
    976    982    983     1   109.5600471 388.275200
    976    982    984     1   109.5600471 388.275200
    977    976    982     1   109.8000471 387.438400
    977    976    978     1   107.5800459 329.699200
    978    976    982     1   109.8000471 387.438400
    980    979    988     1   109.7800468 425.094400
    980    979    981     1   108.4600466 328.025600
    981    979    988     1   109.7800468 425.094400
    983    982   2018     1   109.7800468 425.094400
    983    982    984     1   108.4600466 328.025600
    984    982   2018     1   109.7800468 425.094400
    986    985   2050     1   109.7800468 425.094400
    986    985    987     1   108.4600466 328.025600
    987    985   2050     1   109.7800468 425.094400
    990    991    992     1   108.0100461 406.684800
    990    991    993     1   108.0100461 406.684800
    990    994    995     1   108.0100461 406.684800
    990    994    996     1   108.0100461 406.684800
    990    997    998     1   108.0100461 406.684800
    990    997    999     1   108.0100461 406.684800
    991    990   1019     1   110.1100470 384.091200
    991   1003   1004     1   109.8000471 387.438400
    991   1003   1005     1   109.8000471 387.438400
    992    991   1003     1   110.5600475 386.601600
    992    991    993     1   109.7500473 328.025600
    993    991   1003     1   110.5600475 386.601600
    994    990   1019     1   110.1100470 384.091200
    994   1006   1007     1   109.8000471 387.438400
    994   1006   1008     1   109.8000471 387.438400
    995    994   1006     1   110.5600475 386.601600
    995    994    996     1   109.7500473 328.025600
    996    994   1006     1   110.5600475 386.601600
    997    990   1019     1   110.1100470 384.091200
    997   1000   1001     1   109.8000471 387.438400
    997   1000   1002     1   109.8000471 387.438400
    998    997   1000     1   110.5600475 386.601600
    998    997    999     1   109.7500473 328.025600
    999    997   1000     1   110.5600475 386.601600
   1000   1009   1010     1   109.5600471 388.275200
   1000   1009   1011     1   109.5600471 388.275200
   1001   1000   1009     1   109.8000471 387.438400
   1001   1000   1002     1   107.5800459 329.699200
   1002   1000   1009     1   109.8000471 387.438400
   1003   1015   1016     1   109.5600471 388.275200
   1003   1015   1017     1   109.5600471 388.275200
   1004   1003   1015     1   109.8000471 387.438400
   1004   1003   1005     1   107.5800459 329.699200
   1005   1003   1015     1   109.8000471 387.438400
   1006   1012   1013     1   109.5600471 388.275200
   1006   1012   1014     1   109.5600471 388.275200
   1007   1006   1012     1   109.8000471 387.438400
   1007   1006   1008     1   107.5800459 329.699200
   1008   1006   1012     1   109.8000471 387.438400
   1010   1009   1018     1   109.7800468 425.094400
   1010   1009   1011     1   108.4600466 328.025600
   1011   1009   1018     1   109.7800468 425.094400
   1013   1012   2082     1   109.7800468 425.094400
   1013   1012   1014     1   108.4600466 328.025600
   1014   1012   2082     1   109.7800468 425.094400
   1016   1015   2114     1   109.7800468 425.094400
   1016   1015   1017     1   108.4600466 328.025600
   1017   1015   2114     1   109.7800468 425.094400
   1020   1021   1022     1   108.0100461 406.684800
   1020   1021   1023     1   108.0100461 406.684800
   1020   1024   1025     1   108.0100461 406.684800
   1020   1024   1026     1   108.0100461 406.684800
   1020   1027   1028     1   108.0100461 406.684800
   1020   1027   1029     1   108.0100461 406.684800
   1021   1020   1049     1   110.1100470 384.091200
   1021   1033   1034     1   109.8000471 387.438400
   1021   1033   1035     1   109.8000471 387.438400
   1022   1021   1033     1   110.5600475 386.601600
   1022   1021   1023     1   109.7500473 328.025600
   1023   1021   1033     1   110.5600475 386.601600
   1024   1020   1049     1   110.1100470 384.091200
   1024   1036   1037     1   109.8000471 387.438400
   1024   1036   1038     1   109.8000471 387.438400
   1025   1024   1036     1   110.5600475 386.601600
   1025   1024   1026     1   109.7500473 328.025600
   1026   1024   1036     1   110.5600475 386.601600
   1027   1020   1049     1   110.1100470 384.091200
   1027   1030   1031     1   109.8000471 387.438400
   1027   1030   1032     1   109.8000471 387.438400
   1028   1027   1030     1   110.5600475 386.601600
   1028   1027   1029     1   109.7500473 328.025600
   1029   1027   1030     1   110.5600475 386.601600
   1030   1039   1040     1   109.5600471 388.275200
   1030   1039   1041     1   109.5600471 388.275200
   1031   1030   1039     1   109.8000471 387.438400
   1031   1030   1032     1   107.5800459 329.699200
   1032   1030   1039     1   109.8000471 387.438400
   1033   1045   1046     1   109.5600471 388.275200
   1033   1045   1047     1   109.5600471 388.275200
   1034   1033   1045     1   109.8000471 387.438400
   1034   1033   1035     1   107.5800459 329.699200
   1035   1033   1045     1   109.8000471 387.438400
   1036   1042   1043     1   109.5600471 388.275200
   1036   1042   1044     1   109.5600471 388.275200
   1037   1036   1042     1   109.8000471 387.438400
   1037   1036   1038     1   107.5800459 329.699200
   1038   1036   1042     1   109.8000471 387.438400
   1040   1039   1048     1   109.7800468 425.094400
   1040   1039   1041     1   108.4600466 328.025600
   1041   1039   1048     1   109.7800468 425.094400
   1043   1042   2146     1   109.7800468 425.094400
   1043   1042   1044     1   108.4600466 328.025600
   1044   1042   2146     1   109.7800468 425.094400
   1046   1045   2178     1   109.7800468 425.094400
   1046   1045   1047     1   108.4600466 328.025600
   1047   1045   2178     1   109.7800468 425.094400
   1050   1051   1052     1   108.0100461 406.684800
   1050   1051   1053     1   108.0100461 406.684800
   1050   1054   1055     1   108.0100461 406.684800
   1050   1054   1056     1   108.0100461 406.684800
   1050   1057   1058     1   108.0100461 406.684800
   1050   1057   1059     1   108.0100461 406.684800
   1051   1050   1079     1   110.1100470 384.091200
   1051   1063   1064     1   109.8000471 387.438400
   1051   1063   1065     1   109.8000471 387.438400
   1052   1051   1063     1   110.5600475 386.601600
   1052   1051   1053     1   109.7500473 328.025600
   1053   1051   1063     1   110.5600475 386.601600
   1054   1050   1079     1   110.1100470 384.091200
   1054   1066   1067     1   109.8000471 387.438400
   1054   1066   1068     1   109.8000471 387.438400
   1055   1054   1066     1   110.5600475 386.601600
   1055   1054   1056     1   109.7500473 328.025600
   1056   1054   1066     1   110.5600475 386.601600
   1057   1050   1079     1   110.1100470 384.091200
   1057   1060   1061     1   109.8000471 387.438400
   1057   1060   1062     1   109.8000471 387.438400
   1058   1057   1060     1   110.5600475 386.601600
   1058   1057   1059     1   109.7500473 328.025600
   1059   1057   1060     1   110.5600475 386.601600
   1060   1069   1070     1   109.5600471 388.275200
   1060   1069   1071     1   109.5600471 388.275200
   1061   1060   1069     1   109.8000471 387.438400
   1061   1060   1062     1   107.5800459 329.699200
   1062   1060   1069     1   109.8000471 387.438400
   1063   1075   1076     1   109.5600471 388.275200
   1063   1075   1077     1   109.5600471 388.275200
   1064   1063   1075     1   109.8000471 387.438400
   1064   1063   1065     1   107.5800459 329.699200
   1065   1063   1075     1   109.8000471 387.438400
   1066   1072   1073     1   109.5600471 388.275200
   1066   1072   1074     1   109.5600471 388.275200
   1067   1066   1072     1   109.8000471 387.438400
   1067   1066   1068     1   107.5800459 329.699200
   1068   1066   1072     1   109.8000471 387.438400
   1070   1069   1078     1   109.7800468 425.094400
   1070   1069   1071     1   108.4600466 328.025600
   1071   1069   1078     1   109.7800468 425.094400
   1073   1072   2210     1   109.7800468 425.094400
   1073   1072   1074     1   108.4600466 328.025600
   1074   1072   2210     1   109.7800468 425.094400
   1076   1075   2242     1   109.7800468 425.094400
   1076   1075   1077     1   108.4600466 328.025600
   1077   1075   2242     1   109.7800468 425.094400
   1080   1081   1082     1   108.0100461 406.684800
   1080   1081   1083     1   108.0100461 406.684800
   1080   1084   1085     1   108.0100461 406.684800
   1080   1084   1086     1   108.0100461 406.684800
   1080   1087   1088     1   108.0100461 406.684800
   1080   1087   1089     1   108.0100461 406.684800
   1081   1080   1109     1   110.1100470 384.091200
   1081   1093   1094     1   109.8000471 387.438400
   1081   1093   1095     1   109.8000471 387.438400
   1082   1081   1093     1   110.5600475 386.601600
   1082   1081   1083     1   109.7500473 328.025600
   1083   1081   1093     1   110.5600475 386.601600
   1084   1080   1109     1   110.1100470 384.091200
   1084   1096   1097     1   109.8000471 387.438400
   1084   1096   1098     1   109.8000471 387.438400
   1085   1084   1096     1   110.5600475 386.601600
   1085   1084   1086     1   109.7500473 328.025600
   1086   1084   1096     1   110.5600475 386.601600
   1087   1080   1109     1   110.1100470 384.091200
   1087   1090   1091     1   109.8000471 387.438400
   1087   1090   1092     1   109.8000471 387.438400
   1088   1087   1090     1   110.5600475 386.601600
   1088   1087   1089     1   109.7500473 328.025600
   1089   1087   1090     1   110.5600475 386.601600
   1090   1099   1100     1   109.5600471 388.275200
   1090   1099   1101     1   109.5600471 388.275200
   1091   1090   1099     1   109.8000471 387.438400
   1091   1090   1092     1   107.5800459 329.699200
   1092   1090   1099     1   109.8000471 387.438400
   1093   1105   1106     1   109.5600471 388.275200
   1093   1105   1107     1   109.5600471 388.275200
   1094   1093   1105     1   109.8000471 387.438400
   1094   1093   1095     1   107.5800459 329.699200
   1095   1093   1105     1   109.8000471 387.438400
   1096   1102   1103     1   109.5600471 388.275200
   1096   1102   1104     1   109.5600471 388.275200
   1097   1096   1102     1   109.8000471 387.438400
   1097   1096   1098     1   107.5800459 329.699200
   1098   1096   1102     1   109.8000471 387.438400
   1100   1099   1108     1   109.7800468 425.094400
   1100   1099   1101     1   108.4600466 328.025600
   1101   1099   1108     1   109.7800468 425.094400
   1103   1102   2274     1   109.7800468 425.094400
   1103   1102   1104     1   108.4600466 328.025600
   1104   1102   2274     1   109.7800468 425.094400
   1106   1105   2306     1   109.7800468 425.094400
   1106   1105   1107     1   108.4600466 328.025600
   1107   1105   2306     1   109.7800468 425.094400
   1110   1111   1112     1   108.0100461 406.684800
   1110   1111   1113     1   108.0100461 406.684800
   1110   1114   1115     1   108.0100461 406.684800
   1110   1114   1116     1   108.0100461 406.684800
   1110   1117   1118     1   108.0100461 406.684800
   1110   1117   1119     1   108.0100461 406.684800
   1111   1110   1139     1   110.1100470 384.091200
   1111   1123   1124     1   109.8000471 387.438400
   1111   1123   1125     1   109.8000471 387.438400
   1112   1111   1123     1   110.5600475 386.601600
   1112   1111   1113     1   109.7500473 328.025600
   1113   1111   1123     1   110.5600475 386.601600
   1114   1110   1139     1   110.1100470 384.091200
   1114   1126   1127     1   109.8000471 387.438400
   1114   1126   1128     1   109.8000471 387.438400
   1115   1114   1126     1   110.5600475 386.601600
   1115   1114   1116     1   109.7500473 328.025600
   1116   1114   1126     1   110.5600475 386.601600
   1117   1110   1139     1   110.1100470 384.091200
   1117   1120   1121     1   109.8000471 387.438400
   1117   1120   1122     1   109.8000471 387.438400
   1118   1117   1120     1   110.5600475 386.601600
   1118   1117   1119     1   109.7500473 328.025600
   1119   1117   1120     1   110.5600475 386.601600
   1120   1129   1130     1   109.5600471 388.275200
   1120   1129   1131     1   109.5600471 388.275200
   1121   1120   1129     1   109.8000471 387.438400
   1121   1120   1122     1   107.5800459 329.699200
   1122   1120   1129     1   109.8000471 387.438400
   1123   1135   1136     1   109.5600471 388.275200
   1123   1135   1137     1   109.5600471 388.275200
   1124   1123   1135     1   109.8000471 387.438400
   1124   1123   1125     1   107.5800459 329.699200
   1125   1123   1135     1   109.8000471 387.438400
   1126   1132   1133     1   109.5600471 388.275200
   1126   1132   1134     1   109.5600471 388.275200
   1127   1126   1132     1   109.8000471 387.438400
   1127   1126   1128     1   107.5800459 329.699200
   1128   1126   1132     1   109.8000471 387.438400
   1130   1129   1138     1   109.7800468 425.094400
   1130   1129   1131     1   108.4600466 328.025600
   1131   1129   1138     1   109.7800468 425.094400
   1133   1132   2338     1   109.7800468 425.094400
   1133   1132   1134     1   108.4600466 328.025600
   1134   1132   2338     1   109.7800468 425.094400
   1136   1135   2370     1   109.7800468 425.094400
   1136   1135   1137     1   108.4600466 328.025600
   1137   1135   2370     1   109.7800468 425.094400
   1140   1141   1142     1   108.0100461 406.684800
   1140   1141   1143     1   108.0100461 406.684800
   1140   1144   1145     1   108.0100461 406.684800
   1140   1144   1146     1   108.0100461 406.684800
   1140   1147   1148     1   108.0100461 406.684800
   1140   1147   1149     1   108.0100461 406.684800
   1141   1140   1169     1   110.1100470 384.091200
   1141   1153   1154     1   109.8000471 387.438400
   1141   1153   1155     1   109.8000471 387.438400
   1142   1141   1153     1   110.5600475 386.601600
   1142   1141   1143     1   109.7500473 328.025600
   1143   1141   1153     1   110.5600475 386.601600
   1144   1140   1169     1   110.1100470 384.091200
   1144   1156   1157     1   109.8000471 387.438400
   1144   1156   1158     1   109.8000471 387.438400
   1145   1144   1156     1   110.5600475 386.601600
   1145   1144   1146     1   109.7500473 328.025600
   1146   1144   1156     1   110.5600475 386.601600
   1147   1140   1169     1   110.1100470 384.091200
   1147   1150   1151     1   109.8000471 387.438400
   1147   1150   1152     1   109.8000471 387.438400
   1148   1147   1150     1   110.5600475 386.601600
   1148   1147   1149     1   109.7500473 328.025600
   1149   1147   1150     1   110.5600475 386.601600
   1150   1159   1160     1   109.5600471 388.275200
   1150   1159   1161     1   109.5600471 388.275200
   1151   1150   1159     1   109.8000471 387.438400
   1151   1150   1152     1   107.5800459 329.699200
   1152   1150   1159     1   109.8000471 387.438400
   1153   1165   1166     1   109.5600471 388.275200
   1153   1165   1167     1   109.5600471 388.275200
   1154   1153   1165     1   109.8000471 387.438400
   1154   1153   1155     1   107.5800459 329.699200
   1155   1153   1165     1   109.8000471 387.438400
   1156   1162   1163     1   109.5600471 388.275200
   1156   1162   1164     1   109.5600471 388.275200
   1157   1156   1162     1   109.8000471 387.438400
   1157   1156   1158     1   107.5800459 329.699200
   1158   1156   1162     1   109.8000471 387.438400
   1160   1159   1168     1   109.7800468 425.094400
   1160   1159   1161     1   108.4600466 328.025600
   1161   1159   1168     1   109.7800468 425.094400
   1163   1162   2402     1   109.7800468 425.094400
   1163   1162   1164     1   108.4600466 328.025600
   1164   1162   2402     1   109.7800468 425.094400
   1166   1165   2434     1   109.7800468 425.094400
   1166   1165   1167     1   108.4600466 328.025600
   1167   1165   2434     1   109.7800468 425.094400
   1170   1171   1172     1   108.0100461 406.684800
   1170   1171   1173     1   108.0100461 406.684800
   1170   1174   1175     1   108.0100461 406.684800
   1170   1174   1176     1   108.0100461 406.684800
   1170   1177   1178     1   108.0100461 406.684800
   1170   1177   1179     1   108.0100461 406.684800
   1171   1170   1199     1   110.1100470 384.091200
   1171   1183   1184     1   109.8000471 387.438400
   1171   1183   1185     1   109.8000471 387.438400
   1172   1171   1183     1   110.5600475 386.601600
   1172   1171   1173     1   109.7500473 328.025600
   1173   1171   1183     1   110.5600475 386.601600
   1174   1170   1199     1   110.1100470 384.091200
   1174   1186   1187     1   109.8000471 387.438400
   1174   1186   1188     1   109.8000471 387.438400
   1175   1174   1186     1   110.5600475 386.601600
   1175   1174   1176     1   109.7500473 328.025600
   1176   1174   1186     1   110.5600475 386.601600
   1177   1170   1199     1   110.1100470 384.091200
   1177   1180   1181     1   109.8000471 387.438400
   1177   1180   1182     1   109.8000471 387.438400
   1178   1177   1180     1   110.5600475 386.601600
   1178   1177   1179     1   109.7500473 328.025600
   1179   1177   1180     1   110.5600475 386.601600
   1180   1189   1190     1   109.5600471 388.275200
   1180   1189   1191     1   109.5600471 388.275200
   1181   1180   1189     1   109.8000471 387.438400
   1181   1180   1182     1   107.5800459 329.699200
   1182   1180   1189     1   109.8000471 387.438400
   1183   1195   1196     1   109.5600471 388.275200
   1183   1195   1197     1   109.5600471 388.275200
   1184   1183   1195     1   109.8000471 387.438400
   1184   1183   1185     1   107.5800459 329.699200
   1185   1183   1195     1   109.8000471 387.438400
   1186   1192   1193     1   109.5600471 388.275200
   1186   1192   1194     1   109.5600471 388.275200
   1187   1186   1192     1   109.8000471 387.438400
   1187   1186   1188     1   107.5800459 329.699200
   1188   1186   1192     1   109.8000471 387.438400
   1190   1189   1198     1   109.7800468 425.094400
   1190   1189   1191     1   108.4600466 328.025600
   1191   1189   1198     1   109.7800468 425.094400
   1193   1192   2466     1   109.7800468 425.094400
   1193   1192   1194     1   108.4600466 328.025600
   1194   1192   2466     1   109.7800468 425.094400
   1196   1195   2498     1   109.7800468 425.094400
   1196   1195   1197     1   108.4600466 328.025600
   1197   1195   2498     1   109.7800468 425.094400
   1200   1201   1202     1   108.0100461 406.684800
   1200   1201   1203     1   108.0100461 406.684800
   1200   1204   1205     1   108.0100461 406.684800
   1200   1204   1206     1   108.0100461 406.684800
   1200   1207   1208     1   108.0100461 406.684800
   1200   1207   1209     1   108.0100461 406.684800
   1201   1200   1229     1   110.1100470 384.091200
   1201   1213   1214     1   109.8000471 387.438400
   1201   1213   1215     1   109.8000471 387.438400
   1202   1201   1213     1   110.5600475 386.601600
   1202   1201   1203     1   109.7500473 328.025600
   1203   1201   1213     1   110.5600475 386.601600
   1204   1200   1229     1   110.1100470 384.091200
   1204   1216   1217     1   109.8000471 387.438400
   1204   1216   1218     1   109.8000471 387.438400
   1205   1204   1216     1   110.5600475 386.601600
   1205   1204   1206     1   109.7500473 328.025600
   1206   1204   1216     1   110.5600475 386.601600
   1207   1200   1229     1   110.1100470 384.091200
   1207   1210   1211     1   109.8000471 387.438400
   1207   1210   1212     1   109.8000471 387.438400
   1208   1207   1210     1   110.5600475 386.601600
   1208   1207   1209     1   109.7500473 328.025600
   1209   1207   1210     1   110.5600475 386.601600
   1210   1219   1220     1   109.5600471 388.275200
   1210   1219   1221     1   109.5600471 388.275200
   1211   1210   1219     1   109.8000471 387.438400
   1211   1210   1212     1   107.5800459 329.699200
   1212   1210   1219     1   109.8000471 387.438400
   1213   1225   1226     1   109.5600471 388.275200
   1213   1225   1227     1   109.5600471 388.275200
   1214   1213   1225     1   109.8000471 387.438400
   1214   1213   1215     1   107.5800459 329.699200
   1215   1213   1225     1   109.8000471 387.438400
   1216   1222   1223     1   109.5600471 388.275200
   1216   1222   1224     1   109.5600471 388.275200
   1217   1216   1222     1   109.8000471 387.438400
   1217   1216   1218     1   107.5800459 329.699200
   1218   1216   1222     1   109.8000471 387.438400
   1220   1219   1228     1   109.7800468 425.094400
   1220   1219   1221     1   108.4600466 328.025600
   1221   1219   1228     1   109.7800468 425.094400
   1223   1222   2530     1   109.7800468 425.094400
   1223   1222   1224     1   108.4600466 328.025600
   1224   1222   2530     1   109.7800468 425.094400
   1226   1225   2562     1   109.7800468 425.094400
   1226   1225   1227     1   108.4600466 328.025600
   1227   1225   2562     1   109.7800468 425.094400
   1230   1231   1232     1   108.0100461 406.684800
   1230   1231   1233     1   108.0100461 406.684800
   1230   1234   1235     1   108.0100461 406.684800
   1230   1234   1236     1   108.0100461 406.684800
   1230   1237   1238     1   108.0100461 406.684800
   1230   1237   1239     1   108.0100461 406.684800
   1231   1230   1259     1   110.1100470 384.091200
   1231   1243   1244     1   109.8000471 387.438400
   1231   1243   1245     1   109.8000471 387.438400
   1232   1231   1243     1   110.5600475 386.601600
   1232   1231   1233     1   109.7500473 328.025600
   1233   1231   1243     1   110.5600475 386.601600
   1234   1230   1259     1   110.1100470 384.091200
   1234   1246   1247     1   109.8000471 387.438400
   1234   1246   1248     1   109.8000471 387.438400
   1235   1234   1246     1   110.5600475 386.601600
   1235   1234   1236     1   109.7500473 328.025600
   1236   1234   1246     1   110.5600475 386.601600
   1237   1230   1259     1   110.1100470 384.091200
   1237   1240   1241     1   109.8000471 387.438400
   1237   1240   1242     1   109.8000471 387.438400
   1238   1237   1240     1   110.5600475 386.601600
   1238   1237   1239     1   109.7500473 328.025600
   1239   1237   1240     1   110.5600475 386.601600
   1240   1249   1250     1   109.5600471 388.275200
   1240   1249   1251     1   109.5600471 388.275200
   1241   1240   1249     1   109.8000471 387.438400
   1241   1240   1242     1   107.5800459 329.699200
   1242   1240   1249     1   109.8000471 387.438400
   1243   1255   1256     1   109.5600471 388.275200
   1243   1255   1257     1   109.5600471 388.275200
   1244   1243   1255     1   109.8000471 387.438400
   1244   1243   1245     1   107.5800459 329.699200
   1245   1243   1255     1   109.8000471 387.438400
   1246   1252   1253     1   109.5600471 388.275200
   1246   1252   1254     1   109.5600471 388.275200
   1247   1246   1252     1   109.8000471 387.438400
   1247   1246   1248     1   107.5800459 329.699200
   1248   1246   1252     1   109.8000471 387.438400
   1250   1249   1258     1   109.7800468 425.094400
   1250   1249   1251     1   108.4600466 328.025600
   1251   1249   1258     1   109.7800468 425.094400
   1253   1252   2594     1   109.7800468 425.094400
   1253   1252   1254     1   108.4600466 328.025600
   1254   1252   2594     1   109.7800468 425.094400
   1256   1255   2626     1   109.7800468 425.094400
   1256   1255   1257     1   108.4600466 328.025600
   1257   1255   2626     1   109.7800468 425.094400
   1260   1261   1262     1   108.0100461 406.684800
   1260   1261   1263     1   108.0100461 406.684800
   1260   1264   1265     1   108.0100461 406.684800
   1260   1264   1266     1   108.0100461 406.684800
   1260   1267   1268     1   108.0100461 406.684800
   1260   1267   1269     1   108.0100461 406.684800
   1261   1260   1289     1   110.1100470 384.091200
   1261   1273   1274     1   109.8000471 387.438400
   1261   1273   1275     1   109.8000471 387.438400
   1262   1261   1273     1   110.5600475 386.601600
   1262   1261   1263     1   109.7500473 328.025600
   1263   1261   1273     1   110.5600475 386.601600
   1264   1260   1289     1   110.1100470 384.091200
   1264   1276   1277     1   109.8000471 387.438400
   1264   1276   1278     1   109.8000471 387.438400
   1265   1264   1276     1   110.5600475 386.601600
   1265   1264   1266     1   109.7500473 328.025600
   1266   1264   1276     1   110.5600475 386.601600
   1267   1260   1289     1   110.1100470 384.091200
   1267   1270   1271     1   109.8000471 387.438400
   1267   1270   1272     1   109.8000471 387.438400
   1268   1267   1270     1   110.5600475 386.601600
   1268   1267   1269     1   109.7500473 328.025600
   1269   1267   1270     1   110.5600475 386.601600
   1270   1279   1280     1   109.5600471 388.275200
   1270   1279   1281     1   109.5600471 388.275200
   1271   1270   1279     1   109.8000471 387.438400
   1271   1270   1272     1   107.5800459 329.699200
   1272   1270   1279     1   109.8000471 387.438400
   1273   1285   1286     1   109.5600471 388.275200
   1273   1285   1287     1   109.5600471 388.275200
   1274   1273   1285     1   109.8000471 387.438400
   1274   1273   1275     1   107.5800459 329.699200
   1275   1273   1285     1   109.8000471 387.438400
   1276   1282   1283     1   109.5600471 388.275200
   1276   1282   1284     1   109.5600471 388.275200
   1277   1276   1282     1   109.8000471 387.438400
   1277   1276   1278     1   107.5800459 329.699200
   1278   1276   1282     1   109.8000471 387.438400
   1280   1279   1288     1   109.7800468 425.094400
   1280   1279   1281     1   108.4600466 328.025600
   1281   1279   1288     1   109.7800468 425.094400
   1283   1282   2658     1   109.7800468 425.094400
   1283   1282   1284     1   108.4600466 328.025600
   1284   1282   2658     1   109.7800468 425.094400
   1286   1285   2690     1   109.7800468 425.094400
   1286   1285   1287     1   108.4600466 328.025600
   1287   1285   2690     1   109.7800468 425.094400
   1290   1291   1292     1   108.0100461 406.684800
   1290   1291   1293     1   108.0100461 406.684800
   1290   1294   1295     1   108.0100461 406.684800
   1290   1294   1296     1   108.0100461 406.684800
   1290   1297   1298     1   108.0100461 406.684800
   1290   1297   1299     1   108.0100461 406.684800
   1291   1290   1319     1   110.1100470 384.091200
   1291   1303   1304     1   109.8000471 387.438400
   1291   1303   1305     1   109.8000471 387.438400
   1292   1291   1303     1   110.5600475 386.601600
   1292   1291   1293     1   109.7500473 328.025600
   1293   1291   1303     1   110.5600475 386.601600
   1294   1290   1319     1   110.1100470 384.091200
   1294   1306   1307     1   109.8000471 387.438400
   1294   1306   1308     1   109.8000471 387.438400
   1295   1294   1306     1   110.5600475 386.601600
   1295   1294   1296     1   109.7500473 328.025600
   1296   1294   1306     1   110.5600475 386.601600
   1297   1290   1319     1   110.1100470 384.091200
   1297   1300   1301     1   109.8000471 387.438400
   1297   1300   1302     1   109.8000471 387.438400
   1298   1297   1300     1   110.5600475 386.601600
   1298   1297   1299     1   109.7500473 328.025600
   1299   1297   1300     1   110.5600475 386.601600
   1300   1309   1310     1   109.5600471 388.275200
   1300   1309   1311     1   109.5600471 388.275200
   1301   1300   1309     1   109.8000471 387.438400
   1301   1300   1302     1   107.5800459 329.699200
   1302   1300   1309     1   109.8000471 387.438400
   1303   1315   1316     1   109.5600471 388.275200
   1303   1315   1317     1   109.5600471 388.275200
   1304   1303   1315     1   109.8000471 387.438400
   1304   1303   1305     1   107.5800459 329.699200
   1305   1303   1315     1   109.8000471 387.438400
   1306   1312   1313     1   109.5600471 388.275200
   1306   1312   1314     1   109.5600471 388.275200
   1307   1306   1312     1   109.8000471 387.438400
   1307   1306   1308     1   107.5800459 329.699200
   1308   1306   1312     1   109.8000471 387.438400
   1310   1309   1318     1   109.7800468 425.094400
   1310   1309   1311     1   108.4600466 328.025600
   1311   1309   1318     1   109.7800468 425.094400
   1313   1312   2722     1   109.7800468 425.094400
   1313   1312   1314     1   108.4600466 328.025600
   1314   1312   2722     1   109.7800468 425.094400
   1316   1315   2754     1   109.7800468 425.094400
   1316   1315   1317     1   108.4600466 328.025600
   1317   1315   2754     1   109.7800468 425.094400
   1320   1321   1322     1   108.0100461 406.684800
   1320   1321   1323     1   108.0100461 406.684800
   1320   1324   1325     1   108.0100461 406.684800
   1320   1324   1326     1   108.0100461 406.684800
   1320   1327   1328     1   108.0100461 406.684800
   1320   1327   1329     1   108.0100461 406.684800
   1321   1320   1349     1   110.1100470 384.091200
   1321   1333   1334     1   109.8000471 387.438400
   1321   1333   1335     1   109.8000471 387.438400
   1322   1321   1333     1   110.5600475 386.601600
   1322   1321   1323     1   109.7500473 328.025600
   1323   1321   1333     1   110.5600475 386.601600
   1324   1320   1349     1   110.1100470 384.091200
   1324   1336   1337     1   109.8000471 387.438400
   1324   1336   1338     1   109.8000471 387.438400
   1325   1324   1336     1   110.5600475 386.601600
   1325   1324   1326     1   109.7500473 328.025600
   1326   1324   1336     1   110.5600475 386.601600
   1327   1320   1349     1   110.1100470 384.091200
   1327   1330   1331     1   109.8000471 387.438400
   1327   1330   1332     1   109.8000471 387.438400
   1328   1327   1330     1   110.5600475 386.601600
   1328   1327   1329     1   109.7500473 328.025600
   1329   1327   1330     1   110.5600475 386.601600
   1330   1339   1340     1   109.5600471 388.275200
   1330   1339   1341     1   109.5600471 388.275200
   1331   1330   1339     1   109.8000471 387.438400
   1331   1330   1332     1   107.5800459 329.699200
   1332   1330   1339     1   109.8000471 387.438400
   1333   1345   1346     1   109.5600471 388.275200
   1333   1345   1347     1   109.5600471 388.275200
   1334   1333   1345     1   109.8000471 387.438400
   1334   1333   1335     1   107.5800459 329.699200
   1335   1333   1345     1   109.8000471 387.438400
   1336   1342   1343     1   109.5600471 388.275200
   1336   1342   1344     1   109.5600471 388.275200
   1337   1336   1342     1   109.8000471 387.438400
   1337   1336   1338     1   107.5800459 329.699200
   1338   1336   1342     1   109.8000471 387.438400
   1340   1339   1348     1   109.7800468 425.094400
   1340   1339   1341     1   108.4600466 328.025600
   1341   1339   1348     1   109.7800468 425.094400
   1343   1342   2786     1   109.7800468 425.094400
   1343   1342   1344     1   108.4600466 328.025600
   1344   1342   2786     1   109.7800468 425.094400
   1346   1345   2818     1   109.7800468 425.094400
   1346   1345   1347     1   108.4600466 328.025600
   1347   1345   2818     1   109.7800468 425.094400
   1350   1351   1352     1   108.0100461 406.684800
   1350   1351   1353     1   108.0100461 406.684800
   1350   1354   1355     1   108.0100461 406.684800
   1350   1354   1356     1   108.0100461 406.684800
   1350   1357   1358     1   108.0100461 406.684800
   1350   1357   1359     1   108.0100461 406.684800
   1351   1350   1379     1   110.1100470 384.091200
   1351   1363   1364     1   109.8000471 387.438400
   1351   1363   1365     1   109.8000471 387.438400
   1352   1351   1363     1   110.5600475 386.601600
   1352   1351   1353     1   109.7500473 328.025600
   1353   1351   1363     1   110.5600475 386.601600
   1354   1350   1379     1   110.1100470 384.091200
   1354   1366   1367     1   109.8000471 387.438400
   1354   1366   1368     1   109.8000471 387.438400
   1355   1354   1366     1   110.5600475 386.601600
   1355   1354   1356     1   109.7500473 328.025600
   1356   1354   1366     1   110.5600475 386.601600
   1357   1350   1379     1   110.1100470 384.091200
   1357   1360   1361     1   109.8000471 387.438400
   1357   1360   1362     1   109.8000471 387.438400
   1358   1357   1360     1   110.5600475 386.601600
   1358   1357   1359     1   109.7500473 328.025600
   1359   1357   1360     1   110.5600475 386.601600
   1360   1369   1370     1   109.5600471 388.275200
   1360   1369   1371     1   109.5600471 388.275200
   1361   1360   1369     1   109.8000471 387.438400
   1361   1360   1362     1   107.5800459 329.699200
   1362   1360   1369     1   109.8000471 387.438400
   1363   1375   1376     1   109.5600471 388.275200
   1363   1375   1377     1   109.5600471 388.275200
   1364   1363   1375     1   109.8000471 387.438400
   1364   1363   1365     1   107.5800459 329.699200
   1365   1363   1375     1   109.8000471 387.438400
   1366   1372   1373     1   109.5600471 388.275200
   1366   1372   1374     1   109.5600471 388.275200
   1367   1366   1372     1   109.8000471 387.438400
   1367   1366   1368     1   107.5800459 329.699200
   1368   1366   1372     1   109.8000471 387.438400
   1370   1369   1378     1   109.7800468 425.094400
   1370   1369   1371     1   108.4600466 328.025600
   1371   1369   1378     1   109.7800468 425.094400
   1373   1372   2850     1   109.7800468 425.094400
   1373   1372   1374     1   108.4600466 328.025600
   1374   1372   2850     1   109.7800468 425.094400
   1376   1375   2882     1   109.7800468 425.094400
   1376   1375   1377     1   108.4600466 328.025600
   1377   1375   2882     1   109.7800468 425.094400
   1380   1381   1382     1   108.0100461 406.684800
   1380   1381   1383     1   108.0100461 406.684800
   1380   1384   1385     1   108.0100461 406.684800
   1380   1384   1386     1   108.0100461 406.684800
   1380   1387   1388     1   108.0100461 406.684800
   1380   1387   1389     1   108.0100461 406.684800
   1381   1380   1409     1   110.1100470 384.091200
   1381   1393   1394     1   109.8000471 387.438400
   1381   1393   1395     1   109.8000471 387.438400
   1382   1381   1393     1   110.5600475 386.601600
   1382   1381   1383     1   109.7500473 328.025600
   1383   1381   1393     1   110.5600475 386.601600
   1384   1380   1409     1   110.1100470 384.091200
   1384   1396   1397     1   109.8000471 387.438400
   1384   1396   1398     1   109.8000471 387.438400
   1385   1384   1396     1   110.5600475 386.601600
   1385   1384   1386     1   109.7500473 328.025600
   1386   1384   1396     1   110.5600475 386.601600
   1387   1380   1409     1   110.1100470 384.091200
   1387   1390   1391     1   109.8000471 387.438400
   1387   1390   1392     1   109.8000471 387.438400
   1388   1387   1390     1   110.5600475 386.601600
   1388   1387   1389     1   109.7500473 328.025600
   1389   1387   1390     1   110.5600475 386.601600
   1390   1399   1400     1   109.5600471 388.275200
   1390   1399   1401     1   109.5600471 388.275200
   1391   1390   1399     1   109.8000471 387.438400
   1391   1390   1392     1   107.5800459 329.699200
   1392   1390   1399     1   109.8000471 387.438400
   1393   1405   1406     1   109.5600471 388.275200
   1393   1405   1407     1   109.5600471 388.275200
   1394   1393   1405     1   109.8000471 387.438400
   1394   1393   1395     1   107.5800459 329.699200
   1395   1393   1405     1   109.8000471 387.438400
   1396   1402   1403     1   109.5600471 388.275200
   1396   1402   1404     1   109.5600471 388.275200
   1397   1396   1402     1   109.8000471 387.438400
   1397   1396   1398     1   107.5800459 329.699200
   1398   1396   1402     1   109.8000471 387.438400
   1400   1399   1408     1   109.7800468 425.094400
   1400   1399   1401     1   108.4600466 328.025600
   1401   1399   1408     1   109.7800468 425.094400
   1403   1402   2914     1   109.7800468 425.094400
   1403   1402   1404     1   108.4600466 328.025600
   1404   1402   2914     1   109.7800468 425.094400
   1406   1405   2946     1   109.7800468 425.094400
   1406   1405   1407     1   108.4600466 328.025600
   1407   1405   2946     1   109.7800468 425.094400
   1410   1411   1412     1   108.0100461 406.684800
   1410   1411   1413     1   108.0100461 406.684800
   1410   1414   1415     1   108.0100461 406.684800
   1410   1414   1416     1   108.0100461 406.684800
   1410   1417   1418     1   108.0100461 406.684800
   1410   1417   1419     1   108.0100461 406.684800
   1411   1410   1439     1   110.1100470 384.091200
   1411   1423   1424     1   109.8000471 387.438400
   1411   1423   1425     1   109.8000471 387.438400
   1412   1411   1423     1   110.5600475 386.601600
   1412   1411   1413     1   109.7500473 328.025600
   1413   1411   1423     1   110.5600475 386.601600
   1414   1410   1439     1   110.1100470 384.091200
   1414   1426   1427     1   109.8000471 387.438400
   1414   1426   1428     1   109.8000471 387.438400
   1415   1414   1426     1   110.5600475 386.601600
   1415   1414   1416     1   109.7500473 328.025600
   1416   1414   1426     1   110.5600475 386.601600
   1417   1410   1439     1   110.1100470 384.091200
   1417   1420   1421     1   109.8000471 387.438400
   1417   1420   1422     1   109.8000471 387.438400
   1418   1417   1420     1   110.5600475 386.601600
   1418   1417   1419     1   109.7500473 328.025600
   1419   1417   1420     1   110.5600475 386.601600
   1420   1429   1430     1   109.5600471 388.275200
   1420   1429   1431     1   109.5600471 388.275200
   1421   1420   1429     1   109.8000471 387.438400
   1421   1420   1422     1   107.5800459 329.699200
   1422   1420   1429     1   109.8000471 387.438400
   1423   1435   1436     1   109.5600471 388.275200
   1423   1435   1437     1   109.5600471 388.275200
   1424   1423   1435     1   109.8000471 387.438400
   1424   1423   1425     1   107.5800459 329.699200
   1425   1423   1435     1   109.8000471 387.438400
   1426   1432   1433     1   109.5600471 388.275200
   1426   1432   1434     1   109.5600471 388.275200
   1427   1426   1432     1   109.8000471 387.438400
   1427   1426   1428     1   107.5800459 329.699200
   1428   1426   1432     1   109.8000471 387.438400
   1430   1429   1438     1   109.7800468 425.094400
   1430   1429   1431     1   108.4600466 328.025600
   1431   1429   1438     1   109.7800468 425.094400
   1433   1432   2978     1   109.7800468 425.094400
   1433   1432   1434     1   108.4600466 328.025600
   1434   1432   2978     1   109.7800468 425.094400
   1436   1435   3010     1   109.7800468 425.094400
   1436   1435   1437     1   108.4600466 328.025600
   1437   1435   3010     1   109.7800468 425.094400
   1440   1441   1442     1   108.0100461 406.684800
   1440   1441   1443     1   108.0100461 406.684800
   1440   1444   1445     1   108.0100461 406.684800
   1440   1444   1446     1   108.0100461 406.684800
   1440   1447   1448     1   108.0100461 406.684800
   1440   1447   1449     1   108.0100461 406.684800
   1441   1440   1469     1   110.1100470 384.091200
   1441   1453   1454     1   109.8000471 387.438400
   1441   1453   1455     1   109.8000471 387.438400
   1442   1441   1453     1   110.5600475 386.601600
   1442   1441   1443     1   109.7500473 328.025600
   1443   1441   1453     1   110.5600475 386.601600
   1444   1440   1469     1   110.1100470 384.091200
   1444   1456   1457     1   109.8000471 387.438400
   1444   1456   1458     1   109.8000471 387.438400
   1445   1444   1456     1   110.5600475 386.601600
   1445   1444   1446     1   109.7500473 328.025600
   1446   1444   1456     1   110.5600475 386.601600
   1447   1440   1469     1   110.1100470 384.091200
   1447   1450   1451     1   109.8000471 387.438400
   1447   1450   1452     1   109.8000471 387.438400
   1448   1447   1450     1   110.5600475 386.601600
   1448   1447   1449     1   109.7500473 328.025600
   1449   1447   1450     1   110.5600475 386.601600
   1450   1459   1460     1   109.5600471 388.275200
   1450   1459   1461     1   109.5600471 388.275200
   1451   1450   1459     1   109.8000471 387.438400
   1451   1450   1452     1   107.5800459 329.699200
   1452   1450   1459     1   109.8000471 387.438400
   1453   1465   1466     1   109.5600471 388.275200
   1453   1465   1467     1   109.5600471 388.275200
   1454   1453   1465     1   109.8000471 387.438400
   1454   1453   1455     1   107.5800459 329.699200
   1455   1453   1465     1   109.8000471 387.438400
   1456   1462   1463     1   109.5600471 388.275200
   1456   1462   1464     1   109.5600471 388.275200
   1457   1456   1462     1   109.8000471 387.438400
   1457   1456   1458     1   107.5800459 329.699200
   1458   1456   1462     1   109.8000471 387.438400
   1460   1459   1468     1   109.7800468 425.094400
   1460   1459   1461     1   108.4600466 328.025600
   1461   1459   1468     1   109.7800468 425.094400
   1463   1462   3042     1   109.7800468 425.094400
   1463   1462   1464     1   108.4600466 328.025600
   1464   1462   3042     1   109.7800468 425.094400
   1466   1465   3074     1   109.7800468 425.094400
   1466   1465   1467     1   108.4600466 328.025600
   1467   1465   3074     1   109.7800468 425.094400
   1470   1471   1472     1   108.0100461 406.684800
   1470   1471   1473     1   108.0100461 406.684800
   1470   1474   1475     1   108.0100461 406.684800
   1470   1474   1476     1   108.0100461 406.684800
   1470   1477   1478     1   108.0100461 406.684800
   1470   1477   1479     1   108.0100461 406.684800
   1471   1470   1499     1   110.1100470 384.091200
   1471   1483   1484     1   109.8000471 387.438400
   1471   1483   1485     1   109.8000471 387.438400
   1472   1471   1483     1   110.5600475 386.601600
   1472   1471   1473     1   109.7500473 328.025600
   1473   1471   1483     1   110.5600475 386.601600
   1474   1470   1499     1   110.1100470 384.091200
   1474   1486   1487     1   109.8000471 387.438400
   1474   1486   1488     1   109.8000471 387.438400
   1475   1474   1486     1   110.5600475 386.601600
   1475   1474   1476     1   109.7500473 328.025600
   1476   1474   1486     1   110.5600475 386.601600
   1477   1470   1499     1   110.1100470 384.091200
   1477   1480   1481     1   109.8000471 387.438400
   1477   1480   1482     1   109.8000471 387.438400
   1478   1477   1480     1   110.5600475 386.601600
   1478   1477   1479     1   109.7500473 328.025600
   1479   1477   1480     1   110.5600475 386.601600
   1480   1489   1490     1   109.5600471 388.275200
   1480   1489   1491     1   109.5600471 388.275200
   1481   1480   1489     1   109.8000471 387.438400
   1481   1480   1482     1   107.5800459 329.699200
   1482   1480   1489     1   109.8000471 387.438400
   1483   1495   1496     1   109.5600471 388.275200
   1483   1495   1497     1   109.5600471 388.275200
   1484   1483   1495     1   109.8000471 387.438400
   1484   1483   1485     1   107.5800459 329.699200
   1485   1483   1495     1   109.8000471 387.438400
   1486   1492   1493     1   109.5600471 388.275200
   1486   1492   1494     1   109.5600471 388.275200
   1487   1486   1492     1   109.8000471 387.438400
   1487   1486   1488     1   107.5800459 329.699200
   1488   1486   1492     1   109.8000471 387.438400
   1490   1489   1498     1   109.7800468 425.094400
   1490   1489   1491     1   108.4600466 328.025600
   1491   1489   1498     1   109.7800468 425.094400
   1493   1492   3106     1   109.7800468 425.094400
   1493   1492   1494     1   108.4600466 328.025600
   1494   1492   3106     1   109.7800468 425.094400
   1496   1495   3138     1   109.7800468 425.094400
   1496   1495   1497     1   108.4600466 328.025600
   1497   1495   3138     1   109.7800468 425.094400
   1500   1501   1502     1   108.0100461 406.684800
   1500   1501   1503     1   108.0100461 406.684800
   1500   1504   1505     1   108.0100461 406.684800
   1500   1504   1506     1   108.0100461 406.684800
   1500   1507   1508     1   108.0100461 406.684800
   1500   1507   1509     1   108.0100461 406.684800
   1501   1500   1529     1   110.1100470 384.091200
   1501   1513   1514     1   109.8000471 387.438400
   1501   1513   1515     1   109.8000471 387.438400
   1502   1501   1513     1   110.5600475 386.601600
   1502   1501   1503     1   109.7500473 328.025600
   1503   1501   1513     1   110.5600475 386.601600
   1504   1500   1529     1   110.1100470 384.091200
   1504   1516   1517     1   109.8000471 387.438400
   1504   1516   1518     1   109.8000471 387.438400
   1505   1504   1516     1   110.5600475 386.601600
   1505   1504   1506     1   109.7500473 328.025600
   1506   1504   1516     1   110.5600475 386.601600
   1507   1500   1529     1   110.1100470 384.091200
   1507   1510   1511     1   109.8000471 387.438400
   1507   1510   1512     1   109.8000471 387.438400
   1508   1507   1510     1   110.5600475 386.601600
   1508   1507   1509     1   109.7500473 328.025600
   1509   1507   1510     1   110.5600475 386.601600
   1510   1519   1520     1   109.5600471 388.275200
   1510   1519   1521     1   109.5600471 388.275200
   1511   1510   1519     1   109.8000471 387.438400
   1511   1510   1512     1   107.5800459 329.699200
   1512   1510   1519     1   109.8000471 387.438400
   1513   1525   1526     1   109.5600471 388.275200
   1513   1525   1527     1   109.5600471 388.275200
   1514   1513   1525     1   109.8000471 387.438400
   1514   1513   1515     1   107.5800459 329.699200
   1515   1513   1525     1   109.8000471 387.438400
   1516   1522   1523     1   109.5600471 388.275200
   1516   1522   1524     1   109.5600471 388.275200
   1517   1516   1522     1   109.8000471 387.438400
   1517   1516   1518     1   107.5800459 329.699200
   1518   1516   1522     1   109.8000471 387.438400
   1520   1519   1528     1   109.7800468 425.094400
   1520   1519   1521     1   108.4600466 328.025600
   1521   1519   1528     1   109.7800468 425.094400
   1523   1522   3170     1   109.7800468 425.094400
   1523   1522   1524     1   108.4600466 328.025600
   1524   1522   3170     1   109.7800468 425.094400
   1526   1525   3202     1   109.7800468 425.094400
   1526   1525   1527     1   108.4600466 328.025600
   1527   1525   3202     1   109.7800468 425.094400
   1530   1531   1532     1   108.0100461 406.684800
   1530   1531   1533     1   108.0100461 406.684800
   1530   1534   1535     1   108.0100461 406.684800
   1530   1534   1536     1   108.0100461 406.684800
   1530   1537   1538     1   108.0100461 406.684800
   1530   1537   1539     1   108.0100461 406.684800
   1531   1530   1559     1   110.1100470 384.091200
   1531   1543   1544     1   109.8000471 387.438400
   1531   1543   1545     1   109.8000471 387.438400
   1532   1531   1543     1   110.5600475 386.601600
   1532   1531   1533     1   109.7500473 328.025600
   1533   1531   1543     1   110.5600475 386.601600
   1534   1530   1559     1   110.1100470 384.091200
   1534   1546   1547     1   109.8000471 387.438400
   1534   1546   1548     1   109.8000471 387.438400
   1535   1534   1546     1   110.5600475 386.601600
   1535   1534   1536     1   109.7500473 328.025600
   1536   1534   1546     1   110.5600475 386.601600
   1537   1530   1559     1   110.1100470 384.091200
   1537   1540   1541     1   109.8000471 387.438400
   1537   1540   1542     1   109.8000471 387.438400
   1538   1537   1540     1   110.5600475 386.601600
   1538   1537   1539     1   109.7500473 328.025600
   1539   1537   1540     1   110.5600475 386.601600
   1540   1549   1550     1   109.5600471 388.275200
   1540   1549   1551     1   109.5600471 388.275200
   1541   1540   1549     1   109.8000471 387.438400
   1541   1540   1542     1   107.5800459 329.699200
   1542   1540   1549     1   109.8000471 387.438400
   1543   1555   1556     1   109.5600471 388.275200
   1543   1555   1557     1   109.5600471 388.275200
   1544   1543   1555     1   109.8000471 387.438400
   1544   1543   1545     1   107.5800459 329.699200
   1545   1543   1555     1   109.8000471 387.438400
   1546   1552   1553     1   109.5600471 388.275200
   1546   1552   1554     1   109.5600471 388.275200
   1547   1546   1552     1   109.8000471 387.438400
   1547   1546   1548     1   107.5800459 329.699200
   1548   1546   1552     1   109.8000471 387.438400
   1550   1549   1558     1   109.7800468 425.094400
   1550   1549   1551     1   108.4600466 328.025600
   1551   1549   1558     1   109.7800468 425.094400
   1553   1552   3234     1   109.7800468 425.094400
   1553   1552   1554     1   108.4600466 328.025600
   1554   1552   3234     1   109.7800468 425.094400
   1556   1555   3266     1   109.7800468 425.094400
   1556   1555   1557     1   108.4600466 328.025600
   1557   1555   3266     1   109.7800468 425.094400
   1560   1561   1562     1   108.0100461 406.684800
   1560   1561   1563     1   108.0100461 406.684800
   1560   1564   1565     1   108.0100461 406.684800
   1560   1564   1566     1   108.0100461 406.684800
   1560   1567   1568     1   108.0100461 406.684800
   1560   1567   1569     1   108.0100461 406.684800
   1561   1560   1589     1   110.1100470 384.091200
   1561   1573   1574     1   109.8000471 387.438400
   1561   1573   1575     1   109.8000471 387.438400
   1562   1561   1573     1   110.5600475 386.601600
   1562   1561   1563     1   109.7500473 328.025600
   1563   1561   1573     1   110.5600475 386.601600
   1564   1560   1589     1   110.1100470 384.091200
   1564   1576   1577     1   109.8000471 387.438400
   1564   1576   1578     1   109.8000471 387.438400
   1565   1564   1576     1   110.5600475 386.601600
   1565   1564   1566     1   109.7500473 328.025600
   1566   1564   1576     1   110.5600475 386.601600
   1567   1560   1589     1   110.1100470 384.091200
   1567   1570   1571     1   109.8000471 387.438400
   1567   1570   1572     1   109.8000471 387.438400
   1568   1567   1570     1   110.5600475 386.601600
   1568   1567   1569     1   109.7500473 328.025600
   1569   1567   1570     1   110.5600475 386.601600
   1570   1579   1580     1   109.5600471 388.275200
   1570   1579   1581     1   109.5600471 388.275200
   1571   1570   1579     1   109.8000471 387.438400
   1571   1570   1572     1   107.5800459 329.699200
   1572   1570   1579     1   109.8000471 387.438400
   1573   1585   1586     1   109.5600471 388.275200
   1573   1585   1587     1   109.5600471 388.275200
   1574   1573   1585     1   109.8000471 387.438400
   1574   1573   1575     1   107.5800459 329.699200
   1575   1573   1585     1   109.8000471 387.438400
   1576   1582   1583     1   109.5600471 388.275200
   1576   1582   1584     1   109.5600471 388.275200
   1577   1576   1582     1   109.8000471 387.438400
   1577   1576   1578     1   107.5800459 329.699200
   1578   1576   1582     1   109.8000471 387.438400
   1580   1579   1588     1   109.7800468 425.094400
   1580   1579   1581     1   108.4600466 328.025600
   1581   1579   1588     1   109.7800468 425.094400
   1583   1582   3298     1   109.7800468 425.094400
   1583   1582   1584     1   108.4600466 328.025600
   1584   1582   3298     1   109.7800468 425.094400
   1586   1585   3330     1   109.7800468 425.094400
   1586   1585   1587     1   108.4600466 328.025600
   1587   1585   3330     1   109.7800468 425.094400
   1590   1591   1592     1   108.0100461 406.684800
   1590   1591   1593     1   108.0100461 406.684800
   1590   1594   1595     1   108.0100461 406.684800
   1590   1594   1596     1   108.0100461 406.684800
   1590   1597   1598     1   108.0100461 406.684800
   1590   1597   1599     1   108.0100461 406.684800
   1591   1590   1619     1   110.1100470 384.091200
   1591   1603   1604     1   109.8000471 387.438400
   1591   1603   1605     1   109.8000471 387.438400
   1592   1591   1603     1   110.5600475 386.601600
   1592   1591   1593     1   109.7500473 328.025600
   1593   1591   1603     1   110.5600475 386.601600
   1594   1590   1619     1   110.1100470 384.091200
   1594   1606   1607     1   109.8000471 387.438400
   1594   1606   1608     1   109.8000471 387.438400
   1595   1594   1606     1   110.5600475 386.601600
   1595   1594   1596     1   109.7500473 328.025600
   1596   1594   1606     1   110.5600475 386.601600
   1597   1590   1619     1   110.1100470 384.091200
   1597   1600   1601     1   109.8000471 387.438400
   1597   1600   1602     1   109.8000471 387.438400
   1598   1597   1600     1   110.5600475 386.601600
   1598   1597   1599     1   109.7500473 328.025600
   1599   1597   1600     1   110.5600475 386.601600
   1600   1609   1610     1   109.5600471 388.275200
   1600   1609   1611     1   109.5600471 388.275200
   1601   1600   1609     1   109.8000471 387.438400
   1601   1600   1602     1   107.5800459 329.699200
   1602   1600   1609     1   109.8000471 387.438400
   1603   1615   1616     1   109.5600471 388.275200
   1603   1615   1617     1   109.5600471 388.275200
   1604   1603   1615     1   109.8000471 387.438400
   1604   1603   1605     1   107.5800459 329.699200
   1605   1603   1615     1   109.8000471 387.438400
   1606   1612   1613     1   109.5600471 388.275200
   1606   1612   1614     1   109.5600471 388.275200
   1607   1606   1612     1   109.8000471 387.438400
   1607   1606   1608     1   107.5800459 329.699200
   1608   1606   1612     1   109.8000471 387.438400
   1610   1609   1618     1   109.7800468 425.094400
   1610   1609   1611     1   108.4600466 328.025600
   1611   1609   1618     1   109.7800468 425.094400
   1613   1612   3362     1   109.7800468 425.094400
   1613   1612   1614     1   108.4600466 328.025600
   1614   1612   3362     1   109.7800468 425.094400
   1616   1615   3394     1   109.7800468 425.094400
   1616   1615   1617     1   108.4600466 328.025600
   1617   1615   3394     1   109.7800468 425.094400
   1620   1621   1622     1   108.0100461 406.684800
   1620   1621   1623     1   108.0100461 406.684800
   1620   1624   1625     1   108.0100461 406.684800
   1620   1624   1626     1   108.0100461 406.684800
   1620   1627   1628     1   108.0100461 406.684800
   1620   1627   1629     1   108.0100461 406.684800
   1621   1620   1649     1   110.1100470 384.091200
   1621   1633   1634     1   109.8000471 387.438400
   1621   1633   1635     1   109.8000471 387.438400
   1622   1621   1633     1   110.5600475 386.601600
   1622   1621   1623     1   109.7500473 328.025600
   1623   1621   1633     1   110.5600475 386.601600
   1624   1620   1649     1   110.1100470 384.091200
   1624   1636   1637     1   109.8000471 387.438400
   1624   1636   1638     1   109.8000471 387.438400
   1625   1624   1636     1   110.5600475 386.601600
   1625   1624   1626     1   109.7500473 328.025600
   1626   1624   1636     1   110.5600475 386.601600
   1627   1620   1649     1   110.1100470 384.091200
   1627   1630   1631     1   109.8000471 387.438400
   1627   1630   1632     1   109.8000471 387.438400
   1628   1627   1630     1   110.5600475 386.601600
   1628   1627   1629     1   109.7500473 328.025600
   1629   1627   1630     1   110.5600475 386.601600
   1630   1639   1640     1   109.5600471 388.275200
   1630   1639   1641     1   109.5600471 388.275200
   1631   1630   1639     1   109.8000471 387.438400
   1631   1630   1632     1   107.5800459 329.699200
   1632   1630   1639     1   109.8000471 387.438400
   1633   1645   1646     1   109.5600471 388.275200
   1633   1645   1647     1   109.5600471 388.275200
   1634   1633   1645     1   109.8000471 387.438400
   1634   1633   1635     1   107.5800459 329.699200
   1635   1633   1645     1   109.8000471 387.438400
   1636   1642   1643     1   109.5600471 388.275200
   1636   1642   1644     1   109.5600471 388.275200
   1637   1636   1642     1   109.8000471 387.438400
   1637   1636   1638     1   107.5800459 329.699200
   1638   1636   1642     1   109.8000471 387.438400
   1640   1639   1648     1   109.7800468 425.094400
   1640   1639   1641     1   108.4600466 328.025600
   1641   1639   1648     1   109.7800468 425.094400
   1643   1642   3426     1   109.7800468 425.094400
   1643   1642   1644     1   108.4600466 328.025600
   1644   1642   3426     1   109.7800468 425.094400
   1646   1645   3458     1   109.7800468 425.094400
   1646   1645   1647     1   108.4600466 328.025600
   1647   1645   3458     1   109.7800468 425.094400
   1650   1651   1652     1   108.0100461 406.684800
   1650   1651   1653     1   108.0100461 406.684800
   1650   1654   1655     1   108.0100461 406.684800
   1650   1654   1656     1   108.0100461 406.684800
   1650   1657   1658     1   108.0100461 406.684800
   1650   1657   1659     1   108.0100461 406.684800
   1651   1650   1679     1   110.1100470 384.091200
   1651   1663   1664     1   109.8000471 387.438400
   1651   1663   1665     1   109.8000471 387.438400
   1652   1651   1663     1   110.5600475 386.601600
   1652   1651   1653     1   109.7500473 328.025600
   1653   1651   1663     1   110.5600475 386.601600
   1654   1650   1679     1   110.1100470 384.091200
   1654   1666   1667     1   109.8000471 387.438400
   1654   1666   1668     1   109.8000471 387.438400
   1655   1654   1666     1   110.5600475 386.601600
   1655   1654   1656     1   109.7500473 328.025600
   1656   1654   1666     1   110.5600475 386.601600
   1657   1650   1679     1   110.1100470 384.091200
   1657   1660   1661     1   109.8000471 387.438400
   1657   1660   1662     1   109.8000471 387.438400
   1658   1657   1660     1   110.5600475 386.601600
   1658   1657   1659     1   109.7500473 328.025600
   1659   1657   1660     1   110.5600475 386.601600
   1660   1669   1670     1   109.5600471 388.275200
   1660   1669   1671     1   109.5600471 388.275200
   1661   1660   1669     1   109.8000471 387.438400
   1661   1660   1662     1   107.5800459 329.699200
   1662   1660   1669     1   109.8000471 387.438400
   1663   1675   1676     1   109.5600471 388.275200
   1663   1675   1677     1   109.5600471 388.275200
   1664   1663   1675     1   109.8000471 387.438400
   1664   1663   1665     1   107.5800459 329.699200
   1665   1663   1675     1   109.8000471 387.438400
   1666   1672   1673     1   109.5600471 388.275200
   1666   1672   1674     1   109.5600471 388.275200
   1667   1666   1672     1   109.8000471 387.438400
   1667   1666   1668     1   107.5800459 329.699200
   1668   1666   1672     1   109.8000471 387.438400
   1670   1669   1678     1   109.7800468 425.094400
   1670   1669   1671     1   108.4600466 328.025600
   1671   1669   1678     1   109.7800468 425.094400
   1673   1672   3490     1   109.7800468 425.094400
   1673   1672   1674     1   108.4600466 328.025600
   1674   1672   3490     1   109.7800468 425.094400
   1676   1675   3522     1   109.7800468 425.094400
   1676   1675   1677     1   108.4600466 328.025600
   1677   1675   3522     1   109.7800468 425.094400
   1680   1681   1682     1   108.0100461 406.684800
   1680   1681   1683     1   108.0100461 406.684800
   1680   1684   1685     1   108.0100461 406.684800
   1680   1684   1686     1   108.0100461 406.684800
   1680   1687   1688     1   108.0100461 406.684800
   1680   1687   1689     1   108.0100461 406.684800
   1681   1680   1709     1   110.1100470 384.091200
   1681   1693   1694     1   109.8000471 387.438400
   1681   1693   1695     1   109.8000471 387.438400
   1682   1681   1693     1   110.5600475 386.601600
   1682   1681   1683     1   109.7500473 328.025600
   1683   1681   1693     1   110.5600475 386.601600
   1684   1680   1709     1   110.1100470 384.091200
   1684   1696   1697     1   109.8000471 387.438400
   1684   1696   1698     1   109.8000471 387.438400
   1685   1684   1696     1   110.5600475 386.601600
   1685   1684   1686     1   109.7500473 328.025600
   1686   1684   1696     1   110.5600475 386.601600
   1687   1680   1709     1   110.1100470 384.091200
   1687   1690   1691     1   109.8000471 387.438400
   1687   1690   1692     1   109.8000471 387.438400
   1688   1687   1690     1   110.5600475 386.601600
   1688   1687   1689     1   109.7500473 328.025600
   1689   1687   1690     1   110.5600475 386.601600
   1690   1699   1700     1   109.5600471 388.275200
   1690   1699   1701     1   109.5600471 388.275200
   1691   1690   1699     1   109.8000471 387.438400
   1691   1690   1692     1   107.5800459 329.699200
   1692   1690   1699     1   109.8000471 387.438400
   1693   1705   1706     1   109.5600471 388.275200
   1693   1705   1707     1   109.5600471 388.275200
   1694   1693   1705     1   109.8000471 387.438400
   1694   1693   1695     1   107.5800459 329.699200
   1695   1693   1705     1   109.8000471 387.438400
   1696   1702   1703     1   109.5600471 388.275200
   1696   1702   1704     1   109.5600471 388.275200
   1697   1696   1702     1   109.8000471 387.438400
   1697   1696   1698     1   107.5800459 329.699200
   1698   1696   1702     1   109.8000471 387.438400
   1700   1699   1708     1   109.7800468 425.094400
   1700   1699   1701     1   108.4600466 328.025600
   1701   1699   1708     1   109.7800468 425.094400
   1703   1702   3554     1   109.7800468 425.094400
   1703   1702   1704     1   108.4600466 328.025600
   1704   1702   3554     1   109.7800468 425.094400
   1706   1705   3586     1   109.7800468 425.094400
   1706   1705   1707     1   108.4600466 328.025600
   1707   1705   3586     1   109.7800468 425.094400
   1710   1711   1712     1   108.0100461 406.684800
   1710   1711   1713     1   108.0100461 406.684800
   1710   1714   1715     1   108.0100461 406.684800
   1710   1714   1716     1   108.0100461 406.684800
   1710   1717   1718     1   108.0100461 406.684800
   1710   1717   1719     1   108.0100461 406.684800
   1711   1710   1739     1   110.1100470 384.091200
   1711   1723   1724     1   109.8000471 387.438400
   1711   1723   1725     1   109.8000471 387.438400
   1712   1711   1723     1   110.5600475 386.601600
   1712   1711   1713     1   109.7500473 328.025600
   1713   1711   1723     1   110.5600475 386.601600
   1714   1710   1739     1   110.1100470 384.091200
   1714   1726   1727     1   109.8000471 387.438400
   1714   1726   1728     1   109.8000471 387.438400
   1715   1714   1726     1   110.5600475 386.601600
   1715   1714   1716     1   109.7500473 328.025600
   1716   1714   1726     1   110.5600475 386.601600
   1717   1710   1739     1   110.1100470 384.091200
   1717   1720   1721     1   109.8000471 387.438400
   1717   1720   1722     1   109.8000471 387.438400
   1718   1717   1720     1   110.5600475 386.601600
   1718   1717   1719     1   109.7500473 328.025600
   1719   1717   1720     1   110.5600475 386.601600
   1720   1729   1730     1   109.5600471 388.275200
   1720   1729   1731     1   109.5600471 388.275200
   1721   1720   1729     1   109.8000471 387.438400
   1721   1720   1722     1   107.5800459 329.699200
   1722   1720   1729     1   109.8000471 387.438400
   1723   1735   1736     1   109.5600471 388.275200
   1723   1735   1737     1   109.5600471 388.275200
   1724   1723   1735     1   109.8000471 387.438400
   1724   1723   1725     1   107.5800459 329.699200
   1725   1723   1735     1   109.8000471 387.438400
   1726   1732   1733     1   109.5600471 388.275200
   1726   1732   1734     1   109.5600471 388.275200
   1727   1726   1732     1   109.8000471 387.438400
   1727   1726   1728     1   107.5800459 329.699200
   1728   1726   1732     1   109.8000471 387.438400
   1730   1729   1738     1   109.7800468 425.094400
   1730   1729   1731     1   108.4600466 328.025600
   1731   1729   1738     1   109.7800468 425.094400
   1733   1732   3618     1   109.7800468 425.094400
   1733   1732   1734     1   108.4600466 328.025600
   1734   1732   3618     1   109.7800468 425.094400
   1736   1735   3650     1   109.7800468 425.094400
   1736   1735   1737     1   108.4600466 328.025600
   1737   1735   3650     1   109.7800468 425.094400
   1740   1741   1742     1   108.0100461 406.684800
   1740   1741   1743     1   108.0100461 406.684800
   1740   1744   1745     1   108.0100461 406.684800
   1740   1744   1746     1   108.0100461 406.684800
   1740   1747   1748     1   108.0100461 406.684800
   1740   1747   1749     1   108.0100461 406.684800
   1741   1740   1769     1   110.1100470 384.091200
   1741   1753   1754     1   109.8000471 387.438400
   1741   1753   1755     1   109.8000471 387.438400
   1742   1741   1753     1   110.5600475 386.601600
   1742   1741   1743     1   109.7500473 328.025600
   1743   1741   1753     1   110.5600475 386.601600
   1744   1740   1769     1   110.1100470 384.091200
   1744   1756   1757     1   109.8000471 387.438400
   1744   1756   1758     1   109.8000471 387.438400
   1745   1744   1756     1   110.5600475 386.601600
   1745   1744   1746     1   109.7500473 328.025600
   1746   1744   1756     1   110.5600475 386.601600
   1747   1740   1769     1   110.1100470 384.091200
   1747   1750   1751     1   109.8000471 387.438400
   1747   1750   1752     1   109.8000471 387.438400
   1748   1747   1750     1   110.5600475 386.601600
   1748   1747   1749     1   109.7500473 328.025600
   1749   1747   1750     1   110.5600475 386.601600
   1750   1759   1760     1   109.5600471 388.275200
   1750   1759   1761     1   109.5600471 388.275200
   1751   1750   1759     1   109.8000471 387.438400
   1751   1750   1752     1   107.5800459 329.699200
   1752   1750   1759     1   109.8000471 387.438400
   1753   1765   1766     1   109.5600471 388.275200
   1753   1765   1767     1   109.5600471 388.275200
   1754   1753   1765     1   109.8000471 387.438400
   1754   1753   1755     1   107.5800459 329.699200
   1755   1753   1765     1   109.8000471 387.438400
   1756   1762   1763     1   109.5600471 388.275200
   1756   1762   1764     1   109.5600471 388.275200
   1757   1756   1762     1   109.8000471 387.438400
   1757   1756   1758     1   107.5800459 329.699200
   1758   1756   1762     1   109.8000471 387.438400
   1760   1759   1768     1   109.7800468 425.094400
   1760   1759   1761     1   108.4600466 328.025600
   1761   1759   1768     1   109.7800468 425.094400
   1763   1762   3682     1   109.7800468 425.094400
   1763   1762   1764     1   108.4600466 328.025600
   1764   1762   3682     1   109.7800468 425.094400
   1766   1765   3714     1   109.7800468 425.094400
   1766   1765   1767     1   108.4600466 328.025600
   1767   1765   3714     1   109.7800468 425.094400
   1770   1771   1772     1   108.0100461 406.684800
   1770   1771   1773     1   108.0100461 406.684800
   1770   1774   1775     1   108.0100461 406.684800
   1770   1774   1776     1   108.0100461 406.684800
   1770   1777   1778     1   108.0100461 406.684800
   1770   1777   1779     1   108.0100461 406.684800
   1771   1770   1799     1   110.1100470 384.091200
   1771   1783   1784     1   109.8000471 387.438400
   1771   1783   1785     1   109.8000471 387.438400
   1772   1771   1783     1   110.5600475 386.601600
   1772   1771   1773     1   109.7500473 328.025600
   1773   1771   1783     1   110.5600475 386.601600
   1774   1770   1799     1   110.1100470 384.091200
   1774   1786   1787     1   109.8000471 387.438400
   1774   1786   1788     1   109.8000471 387.438400
   1775   1774   1786     1   110.5600475 386.601600
   1775   1774   1776     1   109.7500473 328.025600
   1776   1774   1786     1   110.5600475 386.601600
   1777   1770   1799     1   110.1100470 384.091200
   1777   1780   1781     1   109.8000471 387.438400
   1777   1780   1782     1   109.8000471 387.438400
   1778   1777   1780     1   110.5600475 386.601600
   1778   1777   1779     1   109.7500473 328.025600
   1779   1777   1780     1   110.5600475 386.601600
   1780   1789   1790     1   109.5600471 388.275200
   1780   1789   1791     1   109.5600471 388.275200
   1781   1780   1789     1   109.8000471 387.438400
   1781   1780   1782     1   107.5800459 329.699200
   1782   1780   1789     1   109.8000471 387.438400
   1783   1795   1796     1   109.5600471 388.275200
   1783   1795   1797     1   109.5600471 388.275200
   1784   1783   1795     1   109.8000471 387.438400
   1784   1783   1785     1   107.5800459 329.699200
   1785   1783   1795     1   109.8000471 387.438400
   1786   1792   1793     1   109.5600471 388.275200
   1786   1792   1794     1   109.5600471 388.275200
   1787   1786   1792     1   109.8000471 387.438400
   1787   1786   1788     1   107.5800459 329.699200
   1788   1786   1792     1   109.8000471 387.438400
   1790   1789   1798     1   109.7800468 425.094400
   1790   1789   1791     1   108.4600466 328.025600
   1791   1789   1798     1   109.7800468 425.094400
   1793   1792   3746     1   109.7800468 425.094400
   1793   1792   1794     1   108.4600466 328.025600
   1794   1792   3746     1   109.7800468 425.094400
   1796   1795   3778     1   109.7800468 425.094400
   1796   1795   1797     1   108.4600466 328.025600
   1797   1795   3778     1   109.7800468 425.094400
   1800   1801   1802     1   108.0100461 406.684800
   1800   1801   1803     1   108.0100461 406.684800
   1800   1804   1805     1   108.0100461 406.684800
   1800   1804   1806     1   108.0100461 406.684800
   1800   1807   1808     1   108.0100461 406.684800
   1800   1807   1809     1   108.0100461 406.684800
   1801   1800   1829     1   110.1100470 384.091200
   1801   1813   1814     1   109.8000471 387.438400
   1801   1813   1815     1   109.8000471 387.438400
   1802   1801   1813     1   110.5600475 386.601600
   1802   1801   1803     1   109.7500473 328.025600
   1803   1801   1813     1   110.5600475 386.601600
   1804   1800   1829     1   110.1100470 384.091200
   1804   1816   1817     1   109.8000471 387.438400
   1804   1816   1818     1   109.8000471 387.438400
   1805   1804   1816     1   110.5600475 386.601600
   1805   1804   1806     1   109.7500473 328.025600
   1806   1804   1816     1   110.5600475 386.601600
   1807   1800   1829     1   110.1100470 384.091200
   1807   1810   1811     1   109.8000471 387.438400
   1807   1810   1812     1   109.8000471 387.438400
   1808   1807   1810     1   110.5600475 386.601600
   1808   1807   1809     1   109.7500473 328.025600
   1809   1807   1810     1   110.5600475 386.601600
   1810   1819   1820     1   109.5600471 388.275200
   1810   1819   1821     1   109.5600471 388.275200
   1811   1810   1819     1   109.8000471 387.438400
   1811   1810   1812     1   107.5800459 329.699200
   1812   1810   1819     1   109.8000471 387.438400
   1813   1825   1826     1   109.5600471 388.275200
   1813   1825   1827     1   109.5600471 388.275200
   1814   1813   1825     1   109.8000471 387.438400
   1814   1813   1815     1   107.5800459 329.699200
   1815   1813   1825     1   109.8000471 387.438400
   1816   1822   1823     1   109.5600471 388.275200
   1816   1822   1824     1   109.5600471 388.275200
   1817   1816   1822     1   109.8000471 387.438400
   1817   1816   1818     1   107.5800459 329.699200
   1818   1816   1822     1   109.8000471 387.438400
   1820   1819   1828     1   109.7800468 425.094400
   1820   1819   1821     1   108.4600466 328.025600
   1821   1819   1828     1   109.7800468 425.094400
   1823   1822   3810     1   109.7800468 425.094400
   1823   1822   1824     1   108.4600466 328.025600
   1824   1822   3810     1   109.7800468 425.094400
   1826   1825   3842     1   109.7800468 425.094400
   1826   1825   1827     1   108.4600466 328.025600
   1827   1825   3842     1   109.7800468 425.094400
   1830   1831   1832     1   108.0100461 406.684800
   1830   1831   1833     1   108.0100461 406.684800
   1830   1834   1835     1   108.0100461 406.684800
   1830   1834   1836     1   108.0100461 406.684800
   1830   1837   1838     1   108.0100461 406.684800
   1830   1837   1839     1   108.0100461 406.684800
   1831   1830   1859     1   110.1100470 384.091200
   1831   1843   1844     1   109.8000471 387.438400
   1831   1843   1845     1   109.8000471 387.438400
   1832   1831   1843     1   110.5600475 386.601600
   1832   1831   1833     1   109.7500473 328.025600
   1833   1831   1843     1   110.5600475 386.601600
   1834   1830   1859     1   110.1100470 384.091200
   1834   1846   1847     1   109.8000471 387.438400
   1834   1846   1848     1   109.8000471 387.438400
   1835   1834   1846     1   110.5600475 386.601600
   1835   1834   1836     1   109.7500473 328.025600
   1836   1834   1846     1   110.5600475 386.601600
   1837   1830   1859     1   110.1100470 384.091200
   1837   1840   1841     1   109.8000471 387.438400
   1837   1840   1842     1   109.8000471 387.438400
   1838   1837   1840     1   110.5600475 386.601600
   1838   1837   1839     1   109.7500473 328.025600
   1839   1837   1840     1   110.5600475 386.601600
   1840   1849   1850     1   109.5600471 388.275200
   1840   1849   1851     1   109.5600471 388.275200
   1841   1840   1849     1   109.8000471 387.438400
   1841   1840   1842     1   107.5800459 329.699200
   1842   1840   1849     1   109.8000471 387.438400
   1843   1855   1856     1   109.5600471 388.275200
   1843   1855   1857     1   109.5600471 388.275200
   1844   1843   1855     1   109.8000471 387.438400
   1844   1843   1845     1   107.5800459 329.699200
   1845   1843   1855     1   109.8000471 387.438400
   1846   1852   1853     1   109.5600471 388.275200
   1846   1852   1854     1   109.5600471 388.275200
   1847   1846   1852     1   109.8000471 387.438400
   1847   1846   1848     1   107.5800459 329.699200
   1848   1846   1852     1   109.8000471 387.438400
   1850   1849   1858     1   109.7800468 425.094400
   1850   1849   1851     1   108.4600466 328.025600
   1851   1849   1858     1   109.7800468 425.094400
   1853   1852   3874     1   109.7800468 425.094400
   1853   1852   1854     1   108.4600466 328.025600
   1854   1852   3874     1   109.7800468 425.094400
   1856   1855   3906     1   109.7800468 425.094400
   1856   1855   1857     1   108.4600466 328.025600
   1857   1855   3906     1   109.7800468 425.094400
   1860   1863   1864     1   109.8000471 387.438400
   1860   1863   1865     1   109.8000471 387.438400
   1861   1860   1863     1   109.5600471 388.275200
   1861   1860   1890     1   109.7800468 425.094400
   1861   1860   1862     1   108.4600466 328.025600
   1862   1860   1863     1   109.5600471 388.275200
   1862   1860   1890     1   109.7800468 425.094400
   1863   1866   1867     1   110.5600475 386.601600
   1863   1866   1868     1   110.5600475 386.601600
   1864   1863   1866     1   109.8000471 387.438400
   1864   1863   1865     1   107.5800459 329.699200
   1865   1863   1866     1   109.8000471 387.438400
   1866   1869   1891     1   110.1100470 384.091200
   1867   1866   1869     1   108.0100461 406.684800
   1867   1866   1868     1   109.7500473 328.025600
   1868   1866   1869     1   108.0100461 406.684800
   1869   1870   1871     1   108.0100461 406.684800
   1869   1870   1872     1   108.0100461 406.684800
   1869   1880   1881     1   108.0100461 406.684800
   1869   1880   1882     1   108.0100461 406.684800
   1870   1869   1891     1   110.1100470 384.091200
   1870   1873   1874     1   109.8000471 387.438400
   1870   1873   1875     1   109.8000471 387.438400
   1871   1870   1873     1   110.5600475 386.601600
   1871   1870   1872     1   109.7500473 328.025600
   1872   1870   1873     1   110.5600475 386.601600
   1874   1873   1876     1   108.7700466 392.459200
   1874   1873   1875     1   107.5800459 329.699200
   1875   1873   1876     1   108.7700466 392.459200
   1876   1878   1879     1   106.5500460 417.563200
   1880   1869   1891     1   110.1100470 384.091200
   1880   1883   1884     1   109.8000471 387.438400
   1880   1883   1885     1   109.8000471 387.438400
   1881   1880   1883     1   110.5600475 386.601600
   1881   1880   1882     1   109.7500473 328.025600
   1882   1880   1883     1   110.5600475 386.601600
   1884   1883   1886     1   108.7700466 392.459200
   1884   1883   1885     1   107.5800459 329.699200
   1885   1883   1886     1   108.7700466 392.459200
   1886   1888   1889     1   106.5500460 417.563200
   1892   1895   1896     1   109.8000471 387.438400
   1892   1895   1897     1   109.8000471 387.438400
   1893   1892   1895     1   109.5600471 388.275200
   1893   1892   1922     1   109.7800468 425.094400
   1893   1892   1894     1   108.4600466 328.025600
   1894   1892   1895     1   109.5600471 388.275200
   1894   1892   1922     1   109.7800468 425.094400
   1895   1898   1899     1   110.5600475 386.601600
   1895   1898   1900     1   110.5600475 386.601600
   1896   1895   1898     1   109.8000471 387.438400
   1896   1895   1897     1   107.5800459 329.699200
   1897   1895   1898     1   109.8000471 387.438400
   1898   1901   1923     1   110.1100470 384.091200
   1899   1898   1901     1   108.0100461 406.684800
   1899   1898   1900     1   109.7500473 328.025600
   1900   1898   1901     1   108.0100461 406.684800
   1901   1902   1903     1   108.0100461 406.684800
   1901   1902   1904     1   108.0100461 406.684800
   1901   1912   1913     1   108.0100461 406.684800
   1901   1912   1914     1   108.0100461 406.684800
   1902   1905   1906     1   109.8000471 387.438400
   1902   1905   1907     1   109.8000471 387.438400
   1902   1901   1923     1   110.1100470 384.091200
   1903   1902   1905     1   110.5600475 386.601600
   1903   1902   1904     1   109.7500473 328.025600
   1904   1902   1905     1   110.5600475 386.601600
   1906   1905   1908     1   108.7700466 392.459200
   1906   1905   1907     1   107.5800459 329.699200
   1907   1905   1908     1   108.7700466 392.459200
   1908   1910   1911     1   106.5500460 417.563200
   1912   1915   1916     1   109.8000471 387.438400
   1912   1915   1917     1   109.8000471 387.438400
   1912   1901   1923     1   110.1100470 384.091200
   1913   1912   1915     1   110.5600475 386.601600
   1913   1912   1914     1   109.7500473 328.025600
   1914   1912   1915     1   110.5600475 386.601600
   1916   1915   1918     1   108.7700466 392.459200
   1916   1915   1917     1   107.5800459 329.699200
   1917   1915   1918     1   108.7700466 392.459200
   1918   1920   1921     1   106.5500460 417.563200
   1924   1927   1928     1   109.8000471 387.438400
   1924   1927   1929     1   109.8000471 387.438400
   1925   1924   1927     1   109.5600471 388.275200
   1925   1924   1954     1   109.7800468 425.094400
   1925   1924   1926     1   108.4600466 328.025600
   1926   1924   1927     1   109.5600471 388.275200
   1926   1924   1954     1   109.7800468 425.094400
   1927   1930   1931     1   110.5600475 386.601600
   1927   1930   1932     1   110.5600475 386.601600
   1928   1927   1930     1   109.8000471 387.438400
   1928   1927   1929     1   107.5800459 329.699200
   1929   1927   1930     1   109.8000471 387.438400
   1930   1933   1955     1   110.1100470 384.091200
   1931   1930   1933     1   108.0100461 406.684800
   1931   1930   1932     1   109.7500473 328.025600
   1932   1930   1933     1   108.0100461 406.684800
   1933   1934   1935     1   108.0100461 406.684800
   1933   1934   1936     1   108.0100461 406.684800
   1933   1944   1945     1   108.0100461 406.684800
   1933   1944   1946     1   108.0100461 406.684800
   1934   1933   1955     1   110.1100470 384.091200
   1934   1937   1938     1   109.8000471 387.438400
   1934   1937   1939     1   109.8000471 387.438400
   1935   1934   1937     1   110.5600475 386.601600
   1935   1934   1936     1   109.7500473 328.025600
   1936   1934   1937     1   110.5600475 386.601600
   1938   1937   1940     1   108.7700466 392.459200
   1938   1937   1939     1   107.5800459 329.699200
   1939   1937   1940     1   108.7700466 392.459200
   1940   1942   1943     1   106.5500460 417.563200
   1944   1933   1955     1   110.1100470 384.091200
   1944   1947   1948     1   109.8000471 387.438400
   1944   1947   1949     1   109.8000471 387.438400
   1945   1944   1947     1   110.5600475 386.601600
   1945   1944   1946     1   109.7500473 328.025600
   1946   1944   1947     1   110.5600475 386.601600
   1948   1947   1950     1   108.7700466 392.459200
   1948   1947   1949     1   107.5800459 329.699200
   1949   1947   1950     1   108.7700466 392.459200
   1950   1952   1953     1   106.5500460 417.563200
   1956   1959   1960     1   109.8000471 387.438400
   1956   1959   1961     1   109.8000471 387.438400
   1957   1956   1959     1   109.5600471 388.275200
   1957   1956   1986     1   109.7800468 425.094400
   1957   1956   1958     1   108.4600466 328.025600
   1958   1956   1959     1   109.5600471 388.275200
   1958   1956   1986     1   109.7800468 425.094400
   1959   1962   1963     1   110.5600475 386.601600
   1959   1962   1964     1   110.5600475 386.601600
   1960   1959   1962     1   109.8000471 387.438400
   1960   1959   1961     1   107.5800459 329.699200
   1961   1959   1962     1   109.8000471 387.438400
   1962   1965   1987     1   110.1100470 384.091200
   1963   1962   1965     1   108.0100461 406.684800
   1963   1962   1964     1   109.7500473 328.025600
   1964   1962   1965     1   108.0100461 406.684800
   1965   1966   1967     1   108.0100461 406.684800
   1965   1966   1968     1   108.0100461 406.684800
   1965   1976   1977     1   108.0100461 406.684800
   1965   1976   1978     1   108.0100461 406.684800
   1966   1969   1970     1   109.8000471 387.438400
   1966   1969   1971     1   109.8000471 387.438400
   1966   1965   1987     1   110.1100470 384.091200
   1967   1966   1969     1   110.5600475 386.601600
   1967   1966   1968     1   109.7500473 328.025600
   1968   1966   1969     1   110.5600475 386.601600
   1970   1969   1972     1   108.7700466 392.459200
   1970   1969   1971     1   107.5800459 329.699200
   1971   1969   1972     1   108.7700466 392.459200
   1972   1974   1975     1   106.5500460 417.563200
   1976   1979   1980     1   109.8000471 387.438400
   1976   1979   1981     1   109.8000471 387.438400
   1976   1965   1987     1   110.1100470 384.091200
   1977   1976   1979     1   110.5600475 386.601600
   1977   1976   1978     1   109.7500473 328.025600
   1978   1976   1979     1   110.5600475 386.601600
   1980   1979   1982     1   108.7700466 392.459200
   1980   1979   1981     1   107.5800459 329.699200
   1981   1979   1982     1   108.7700466 392.459200
   1982   1984   1985     1   106.5500460 417.563200
   1988   1991   1992     1   109.8000471 387.438400
   1988   1991   1993     1   109.8000471 387.438400
   1989   1988   1991     1   109.5600471 388.275200
   1989   1988   2018     1   109.7800468 425.094400
   1989   1988   1990     1   108.4600466 328.025600
   1990   1988   1991     1   109.5600471 388.275200
   1990   1988   2018     1   109.7800468 425.094400
   1991   1994   1995     1   110.5600475 386.601600
   1991   1994   1996     1   110.5600475 386.601600
   1992   1991   1994     1   109.8000471 387.438400
   1992   1991   1993     1   107.5800459 329.699200
   1993   1991   1994     1   109.8000471 387.438400
   1994   1997   2019     1   110.1100470 384.091200
   1995   1994   1997     1   108.0100461 406.684800
   1995   1994   1996     1   109.7500473 328.025600
   1996   1994   1997     1   108.0100461 406.684800
   1997   1998   1999     1   108.0100461 406.684800
   1997   1998   2000     1   108.0100461 406.684800
   1997   2008   2009     1   108.0100461 406.684800
   1997   2008   2010     1   108.0100461 406.684800
   1998   1997   2019     1   110.1100470 384.091200
   1998   2001   2002     1   109.8000471 387.438400
   1998   2001   2003     1   109.8000471 387.438400
   1999   1998   2001     1   110.5600475 386.601600
   1999   1998   2000     1   109.7500473 328.025600
   2000   1998   2001     1   110.5600475 386.601600
   2002   2001   2004     1   108.7700466 392.459200
   2002   2001   2003     1   107.5800459 329.699200
   2003   2001   2004     1   108.7700466 392.459200
   2004   2006   2007     1   106.5500460 417.563200
   2008   1997   2019     1   110.1100470 384.091200
   2008   2011   2012     1   109.8000471 387.438400
   2008   2011   2013     1   109.8000471 387.438400
   2009   2008   2011     1   110.5600475 386.601600
   2009   2008   2010     1   109.7500473 328.025600
   2010   2008   2011     1   110.5600475 386.601600
   2012   2011   2014     1   108.7700466 392.459200
   2012   2011   2013     1   107.5800459 329.699200
   2013   2011   2014     1   108.7700466 392.459200
   2014   2016   2017     1   106.5500460 417.563200
   2020   2023   2024     1   109.8000471 387.438400
   2020   2023   2025     1   109.8000471 387.438400
   2021   2020   2023     1   109.5600471 388.275200
   2021   2020   2050     1   109.7800468 425.094400
   2021   2020   2022     1   108.4600466 328.025600
   2022   2020   2023     1   109.5600471 388.275200
   2022   2020   2050     1   109.7800468 425.094400
   2023   2026   2027     1   110.5600475 386.601600
   2023   2026   2028     1   110.5600475 386.601600
   2024   2023   2026     1   109.8000471 387.438400
   2024   2023   2025     1   107.5800459 329.699200
   2025   2023   2026     1   109.8000471 387.438400
   2026   2029   2051     1   110.1100470 384.091200
   2027   2026   2029     1   108.0100461 406.684800
   2027   2026   2028     1   109.7500473 328.025600
   2028   2026   2029     1   108.0100461 406.684800
   2029   2030   2031     1   108.0100461 406.684800
   2029   2030   2032     1   108.0100461 406.684800
   2029   2040   2041     1   108.0100461 406.684800
   2029   2040   2042     1   108.0100461 406.684800
   2030   2033   2034     1   109.8000471 387.438400
   2030   2033   2035     1   109.8000471 387.438400
   2030   2029   2051     1   110.1100470 384.091200
   2031   2030   2033     1   110.5600475 386.601600
   2031   2030   2032     1   109.7500473 328.025600
   2032   2030   2033     1   110.5600475 386.601600
   2034   2033   2036     1   108.7700466 392.459200
   2034   2033   2035     1   107.5800459 329.699200
   2035   2033   2036     1   108.7700466 392.459200
   2036   2038   2039     1   106.5500460 417.563200
   2040   2043   2044     1   109.8000471 387.438400
   2040   2043   2045     1   109.8000471 387.438400
   2040   2029   2051     1   110.1100470 384.091200
   2041   2040   2043     1   110.5600475 386.601600
   2041   2040   2042     1   109.7500473 328.025600
   2042   2040   2043     1   110.5600475 386.601600
   2044   2043   2046     1   108.7700466 392.459200
   2044   2043   2045     1   107.5800459 329.699200
   2045   2043   2046     1   108.7700466 392.459200
   2046   2048   2049     1   106.5500460 417.563200
   2052   2055   2056     1   109.8000471 387.438400
   2052   2055   2057     1   109.8000471 387.438400
   2053   2052   2055     1   109.5600471 388.275200
   2053   2052   2082     1   109.7800468 425.094400
   2053   2052   2054     1   108.4600466 328.025600
   2054   2052   2055     1   109.5600471 388.275200
   2054   2052   2082     1   109.7800468 425.094400
   2055   2058   2059     1   110.5600475 386.601600
   2055   2058   2060     1   110.5600475 386.601600
   2056   2055   2058     1   109.8000471 387.438400
   2056   2055   2057     1   107.5800459 329.699200
   2057   2055   2058     1   109.8000471 387.438400
   2058   2061   2083     1   110.1100470 384.091200
   2059   2058   2061     1   108.0100461 406.684800
   2059   2058   2060     1   109.7500473 328.025600
   2060   2058   2061     1   108.0100461 406.684800
   2061   2062   2063     1   108.0100461 406.684800
   2061   2062   2064     1   108.0100461 406.684800
   2061   2072   2073     1   108.0100461 406.684800
   2061   2072   2074     1   108.0100461 406.684800
   2062   2061   2083     1   110.1100470 384.091200
   2062   2065   2066     1   109.8000471 387.438400
   2062   2065   2067     1   109.8000471 387.438400
   2063   2062   2065     1   110.5600475 386.601600
   2063   2062   2064     1   109.7500473 328.025600
   2064   2062   2065     1   110.5600475 386.601600
   2066   2065   2068     1   108.7700466 392.459200
   2066   2065   2067     1   107.5800459 329.699200
   2067   2065   2068     1   108.7700466 392.459200
   2068   2070   2071     1   106.5500460 417.563200
   2072   2061   2083     1   110.1100470 384.091200
   2072   2075   2076     1   109.8000471 387.438400
   2072   2075   2077     1   109.8000471 387.438400
   2073   2072   2075     1   110.5600475 386.601600
   2073   2072   2074     1   109.7500473 328.025600
   2074   2072   2075     1   110.5600475 386.601600
   2076   2075   2078     1   108.7700466 392.459200
   2076   2075   2077     1   107.5800459 329.699200
   2077   2075   2078     1   108.7700466 392.459200
   2078   2080   2081     1   106.5500460 417.563200
   2084   2087   2088     1   109.8000471 387.438400
   2084   2087   2089     1   109.8000471 387.438400
   2085   2084   2087     1   109.5600471 388.275200
   2085   2084   2114     1   109.7800468 425.094400
   2085   2084   2086     1   108.4600466 328.025600
   2086   2084   2087     1   109.5600471 388.275200
   2086   2084   2114     1   109.7800468 425.094400
   2087   2090   2091     1   110.5600475 386.601600
   2087   2090   2092     1   110.5600475 386.601600
   2088   2087   2090     1   109.8000471 387.438400
   2088   2087   2089     1   107.5800459 329.699200
   2089   2087   2090     1   109.8000471 387.438400
   2090   2093   2115     1   110.1100470 384.091200
   2091   2090   2093     1   108.0100461 406.684800
   2091   2090   2092     1   109.7500473 328.025600
   2092   2090   2093     1   108.0100461 406.684800
   2093   2094   2095     1   108.0100461 406.684800
   2093   2094   2096     1   108.0100461 406.684800
   2093   2104   2105     1   108.0100461 406.684800
   2093   2104   2106     1   108.0100461 406.684800
   2094   2097   2098     1   109.8000471 387.438400
   2094   2097   2099     1   109.8000471 387.438400
   2094   2093   2115     1   110.1100470 384.091200
   2095   2094   2097     1   110.5600475 386.601600
   2095   2094   2096     1   109.7500473 328.025600
   2096   2094   2097     1   110.5600475 386.601600
   2098   2097   2100     1   108.7700466 392.459200
   2098   2097   2099     1   107.5800459 329.699200
   2099   2097   2100     1   108.7700466 392.459200
   2100   2102   2103     1   106.5500460 417.563200
   2104   2107   2108     1   109.8000471 387.438400
   2104   2107   2109     1   109.8000471 387.438400
   2104   2093   2115     1   110.1100470 384.091200
   2105   2104   2107     1   110.5600475 386.601600
   2105   2104   2106     1   109.7500473 328.025600
   2106   2104   2107     1   110.5600475 386.601600
   2108   2107   2110     1   108.7700466 392.459200
   2108   2107   2109     1   107.5800459 329.699200
   2109   2107   2110     1   108.7700466 392.459200
   2110   2112   2113     1   106.5500460 417.563200
   2116   2119   2120     1   109.8000471 387.438400
   2116   2119   2121     1   109.8000471 387.438400
   2117   2116   2119     1   109.5600471 388.275200
   2117   2116   2146     1   109.7800468 425.094400
   2117   2116   2118     1   108.4600466 328.025600
   2118   2116   2119     1   109.5600471 388.275200
   2118   2116   2146     1   109.7800468 425.094400
   2119   2122   2123     1   110.5600475 386.601600
   2119   2122   2124     1   110.5600475 386.601600
   2120   2119   2122     1   109.8000471 387.438400
   2120   2119   2121     1   107.5800459 329.699200
   2121   2119   2122     1   109.8000471 387.438400
   2122   2125   2147     1   110.1100470 384.091200
   2123   2122   2125     1   108.0100461 406.684800
   2123   2122   2124     1   109.7500473 328.025600
   2124   2122   2125     1   108.0100461 406.684800
   2125   2126   2127     1   108.0100461 406.684800
   2125   2126   2128     1   108.0100461 406.684800
   2125   2136   2137     1   108.0100461 406.684800
   2125   2136   2138     1   108.0100461 406.684800
   2126   2125   2147     1   110.1100470 384.091200
   2126   2129   2130     1   109.8000471 387.438400
   2126   2129   2131     1   109.8000471 387.438400
   2127   2126   2129     1   110.5600475 386.601600
   2127   2126   2128     1   109.7500473 328.025600
   2128   2126   2129     1   110.5600475 386.601600
   2130   2129   2132     1   108.7700466 392.459200
   2130   2129   2131     1   107.5800459 329.699200
   2131   2129   2132     1   108.7700466 392.459200
   2132   2134   2135     1   106.5500460 417.563200
   2136   2125   2147     1   110.1100470 384.091200
   2136   2139   2140     1   109.8000471 387.438400
   2136   2139   2141     1   109.8000471 387.438400
   2137   2136   2139     1   110.5600475 386.601600
   2137   2136   2138     1   109.7500473 328.025600
   2138   2136   2139     1   110.5600475 386.601600
   2140   2139   2142     1   108.7700466 392.459200
   2140   2139   2141     1   107.5800459 329.699200
   2141   2139   2142     1   108.7700466 392.459200
   2142   2144   2145     1   106.5500460 417.563200
   2148   2151   2152     1   109.8000471 387.438400
   2148   2151   2153     1   109.8000471 387.438400
   2149   2148   2151     1   109.5600471 388.275200
   2149   2148   2178     1   109.7800468 425.094400
   2149   2148   2150     1   108.4600466 328.025600
   2150   2148   2151     1   109.5600471 388.275200
   2150   2148   2178     1   109.7800468 425.094400
   2151   2154   2155     1   110.5600475 386.601600
   2151   2154   2156     1   110.5600475 386.601600
   2152   2151   2154     1   109.8000471 387.438400
   2152   2151   2153     1   107.5800459 329.699200
   2153   2151   2154     1   109.8000471 387.438400
   2154   2157   2179     1   110.1100470 384.091200
   2155   2154   2157     1   108.0100461 406.684800
   2155   2154   2156     1   109.7500473 328.025600
   2156   2154   2157     1   108.0100461 406.684800
   2157   2158   2159     1   108.0100461 406.684800
   2157   2158   2160     1   108.0100461 406.684800
   2157   2168   2169     1   108.0100461 406.684800
   2157   2168   2170     1   108.0100461 406.684800
   2158   2161   2162     1   109.8000471 387.438400
   2158   2161   2163     1   109.8000471 387.438400
   2158   2157   2179     1   110.1100470 384.091200
   2159   2158   2161     1   110.5600475 386.601600
   2159   2158   2160     1   109.7500473 328.025600
   2160   2158   2161     1   110.5600475 386.601600
   2162   2161   2164     1   108.7700466 392.459200
   2162   2161   2163     1   107.5800459 329.699200
   2163   2161   2164     1   108.7700466 392.459200
   2164   2166   2167     1   106.5500460 417.563200
   2168   2171   2172     1   109.8000471 387.438400
   2168   2171   2173     1   109.8000471 387.438400
   2168   2157   2179     1   110.1100470 384.091200
   2169   2168   2171     1   110.5600475 386.601600
   2169   2168   2170     1   109.7500473 328.025600
   2170   2168   2171     1   110.5600475 386.601600
   2172   2171   2174     1   108.7700466 392.459200
   2172   2171   2173     1   107.5800459 329.699200
   2173   2171   2174     1   108.7700466 392.459200
   2174   2176   2177     1   106.5500460 417.563200
   2180   2183   2184     1   109.8000471 387.438400
   2180   2183   2185     1   109.8000471 387.438400
   2181   2180   2183     1   109.5600471 388.275200
   2181   2180   2210     1   109.7800468 425.094400
   2181   2180   2182     1   108.4600466 328.025600
   2182   2180   2183     1   109.5600471 388.275200
   2182   2180   2210     1   109.7800468 425.094400
   2183   2186   2187     1   110.5600475 386.601600
   2183   2186   2188     1   110.5600475 386.601600
   2184   2183   2186     1   109.8000471 387.438400
   2184   2183   2185     1   107.5800459 329.699200
   2185   2183   2186     1   109.8000471 387.438400
   2186   2189   2211     1   110.1100470 384.091200
   2187   2186   2189     1   108.0100461 406.684800
   2187   2186   2188     1   109.7500473 328.025600
   2188   2186   2189     1   108.0100461 406.684800
   2189   2190   2191     1   108.0100461 406.684800
   2189   2190   2192     1   108.0100461 406.684800
   2189   2200   2201     1   108.0100461 406.684800
   2189   2200   2202     1   108.0100461 406.684800
   2190   2189   2211     1   110.1100470 384.091200
   2190   2193   2194     1   109.8000471 387.438400
   2190   2193   2195     1   109.8000471 387.438400
   2191   2190   2193     1   110.5600475 386.601600
   2191   2190   2192     1   109.7500473 328.025600
   2192   2190   2193     1   110.5600475 386.601600
   2194   2193   2196     1   108.7700466 392.459200
   2194   2193   2195     1   107.5800459 329.699200
   2195   2193   2196     1   108.7700466 392.459200
   2196   2198   2199     1   106.5500460 417.563200
   2200   2189   2211     1   110.1100470 384.091200
   2200   2203   2204     1   109.8000471 387.438400
   2200   2203   2205     1   109.8000471 387.438400
   2201   2200   2203     1   110.5600475 386.601600
   2201   2200   2202     1   109.7500473 328.025600
   2202   2200   2203     1   110.5600475 386.601600
   2204   2203   2206     1   108.7700466 392.459200
   2204   2203   2205     1   107.5800459 329.699200
   2205   2203   2206     1   108.7700466 392.459200
   2206   2208   2209     1   106.5500460 417.563200
   2212   2215   2216     1   109.8000471 387.438400
   2212   2215   2217     1   109.8000471 387.438400
   2213   2212   2215     1   109.5600471 388.275200
   2213   2212   2242     1   109.7800468 425.094400
   2213   2212   2214     1   108.4600466 328.025600
   2214   2212   2215     1   109.5600471 388.275200
   2214   2212   2242     1   109.7800468 425.094400
   2215   2218   2219     1   110.5600475 386.601600
   2215   2218   2220     1   110.5600475 386.601600
   2216   2215   2218     1   109.8000471 387.438400
   2216   2215   2217     1   107.5800459 329.699200
   2217   2215   2218     1   109.8000471 387.438400
   2218   2221   2243     1   110.1100470 384.091200
   2219   2218   2221     1   108.0100461 406.684800
   2219   2218   2220     1   109.7500473 328.025600
   2220   2218   2221     1   108.0100461 406.684800
   2221   2222   2223     1   108.0100461 406.684800
   2221   2222   2224     1   108.0100461 406.684800
   2221   2232   2233     1   108.0100461 406.684800
   2221   2232   2234     1   108.0100461 406.684800
   2222   2225   2226     1   109.8000471 387.438400
   2222   2225   2227     1   109.8000471 387.438400
   2222   2221   2243     1   110.1100470 384.091200
   2223   2222   2225     1   110.5600475 386.601600
   2223   2222   2224     1   109.7500473 328.025600
   2224   2222   2225     1   110.5600475 386.601600
   2226   2225   2228     1   108.7700466 392.459200
   2226   2225   2227     1   107.5800459 329.699200
   2227   2225   2228     1   108.7700466 392.459200
   2228   2230   2231     1   106.5500460 417.563200
   2232   2235   2236     1   109.8000471 387.438400
   2232   2235   2237     1   109.8000471 387.438400
   2232   2221   2243     1   110.1100470 384.091200
   2233   2232   2235     1   110.5600475 386.601600
   2233   2232   2234     1   109.7500473 328.025600
   2234   2232   2235     1   110.5600475 386.601600
   2236   2235   2238     1   108.7700466 392.459200
   2236   2235   2237     1   107.5800459 329.699200
   2237   2235   2238     1   108.7700466 392.459200
   2238   2240   2241     1   106.5500460 417.563200
   2244   2247   2248     1   109.8000471 387.438400
   2244   2247   2249     1   109.8000471 387.438400
   2245   2244   2247     1   109.5600471 388.275200
   2245   2244   2274     1   109.7800468 425.094400
   2245   2244   2246     1   108.4600466 328.025600
   2246   2244   2247     1   109.5600471 388.275200
   2246   2244   2274     1   109.7800468 425.094400
   2247   2250   2251     1   110.5600475 386.601600
   2247   2250   2252     1   110.5600475 386.601600
   2248   2247   2250     1   109.8000471 387.438400
   2248   2247   2249     1   107.5800459 329.699200
   2249   2247   2250     1   109.8000471 387.438400
   2250   2253   2275     1   110.1100470 384.091200
   2251   2250   2253     1   108.0100461 406.684800
   2251   2250   2252     1   109.7500473 328.025600
   2252   2250   2253     1   108.0100461 406.684800
   2253   2254   2255     1   108.0100461 406.684800
   2253   2254   2256     1   108.0100461 406.684800
   2253   2264   2265     1   108.0100461 406.684800
   2253   2264   2266     1   108.0100461 406.684800
   2254   2253   2275     1   110.1100470 384.091200
   2254   2257   2258     1   109.8000471 387.438400
   2254   2257   2259     1   109.8000471 387.438400
   2255   2254   2257     1   110.5600475 386.601600
   2255   2254   2256     1   109.7500473 328.025600
   2256   2254   2257     1   110.5600475 386.601600
   2258   2257   2260     1   108.7700466 392.459200
   2258   2257   2259     1   107.5800459 329.699200
   2259   2257   2260     1   108.7700466 392.459200
   2260   2262   2263     1   106.5500460 417.563200
   2264   2253   2275     1   110.1100470 384.091200
   2264   2267   2268     1   109.8000471 387.438400
   2264   2267   2269     1   109.8000471 387.438400
   2265   2264   2267     1   110.5600475 386.601600
   2265   2264   2266     1   109.7500473 328.025600
   2266   2264   2267     1   110.5600475 386.601600
   2268   2267   2270     1   108.7700466 392.459200
   2268   2267   2269     1   107.5800459 329.699200
   2269   2267   2270     1   108.7700466 392.459200
   2270   2272   2273     1   106.5500460 417.563200
   2276   2279   2280     1   109.8000471 387.438400
   2276   2279   2281     1   109.8000471 387.438400
   2277   2276   2279     1   109.5600471 388.275200
   2277   2276   2306     1   109.7800468 425.094400
   2277   2276   2278     1   108.4600466 328.025600
   2278   2276   2279     1   109.5600471 388.275200
   2278   2276   2306     1   109.7800468 425.094400
   2279   2282   2283     1   110.5600475 386.601600
   2279   2282   2284     1   110.5600475 386.601600
   2280   2279   2282     1   109.8000471 387.438400
   2280   2279   2281     1   107.5800459 329.699200
   2281   2279   2282     1   109.8000471 387.438400
   2282   2285   2307     1   110.1100470 384.091200
   2283   2282   2285     1   108.0100461 406.684800
   2283   2282   2284     1   109.7500473 328.025600
   2284   2282   2285     1   108.0100461 406.684800
   2285   2286   2287     1   108.0100461 406.684800
   2285   2286   2288     1   108.0100461 406.684800
   2285   2296   2297     1   108.0100461 406.684800
   2285   2296   2298     1   108.0100461 406.684800
   2286   2289   2290     1   109.8000471 387.438400
   2286   2289   2291     1   109.8000471 387.438400
   2286   2285   2307     1   110.1100470 384.091200
   2287   2286   2289     1   110.5600475 386.601600
   2287   2286   2288     1   109.7500473 328.025600
   2288   2286   2289     1   110.5600475 386.601600
   2290   2289   2292     1   108.7700466 392.459200
   2290   2289   2291     1   107.5800459 329.699200
   2291   2289   2292     1   108.7700466 392.459200
   2292   2294   2295     1   106.5500460 417.563200
   2296   2299   2300     1   109.8000471 387.438400
   2296   2299   2301     1   109.8000471 387.438400
   2296   2285   2307     1   110.1100470 384.091200
   2297   2296   2299     1   110.5600475 386.601600
   2297   2296   2298     1   109.7500473 328.025600
   2298   2296   2299     1   110.5600475 386.601600
   2300   2299   2302     1   108.7700466 392.459200
   2300   2299   2301     1   107.5800459 329.699200
   2301   2299   2302     1   108.7700466 392.459200
   2302   2304   2305     1   106.5500460 417.563200
   2308   2311   2312     1   109.8000471 387.438400
   2308   2311   2313     1   109.8000471 387.438400
   2309   2308   2311     1   109.5600471 388.275200
   2309   2308   2338     1   109.7800468 425.094400
   2309   2308   2310     1   108.4600466 328.025600
   2310   2308   2311     1   109.5600471 388.275200
   2310   2308   2338     1   109.7800468 425.094400
   2311   2314   2315     1   110.5600475 386.601600
   2311   2314   2316     1   110.5600475 386.601600
   2312   2311   2314     1   109.8000471 387.438400
   2312   2311   2313     1   107.5800459 329.699200
   2313   2311   2314     1   109.8000471 387.438400
   2314   2317   2339     1   110.1100470 384.091200
   2315   2314   2317     1   108.0100461 406.684800
   2315   2314   2316     1   109.7500473 328.025600
   2316   2314   2317     1   108.0100461 406.684800
   2317   2318   2319     1   108.0100461 406.684800
   2317   2318   2320     1   108.0100461 406.684800
   2317   2328   2329     1   108.0100461 406.684800
   2317   2328   2330     1   108.0100461 406.684800
   2318   2317   2339     1   110.1100470 384.091200
   2318   2321   2322     1   109.8000471 387.438400
   2318   2321   2323     1   109.8000471 387.438400
   2319   2318   2321     1   110.5600475 386.601600
   2319   2318   2320     1   109.7500473 328.025600
   2320   2318   2321     1   110.5600475 386.601600
   2322   2321   2324     1   108.7700466 392.459200
   2322   2321   2323     1   107.5800459 329.699200
   2323   2321   2324     1   108.7700466 392.459200
   2324   2326   2327     1   106.5500460 417.563200
   2328   2317   2339     1   110.1100470 384.091200
   2328   2331   2332     1   109.8000471 387.438400
   2328   2331   2333     1   109.8000471 387.438400
   2329   2328   2331     1   110.5600475 386.601600
   2329   2328   2330     1   109.7500473 328.025600
   2330   2328   2331     1   110.5600475 386.601600
   2332   2331   2334     1   108.7700466 392.459200
   2332   2331   2333     1   107.5800459 329.699200
   2333   2331   2334     1   108.7700466 392.459200
   2334   2336   2337     1   106.5500460 417.563200
   2340   2343   2344     1   109.8000471 387.438400
   2340   2343   2345     1   109.8000471 387.438400
   2341   2340   2343     1   109.5600471 388.275200
   2341   2340   2370     1   109.7800468 425.094400
   2341   2340   2342     1   108.4600466 328.025600
   2342   2340   2343     1   109.5600471 388.275200
   2342   2340   2370     1   109.7800468 425.094400
   2343   2346   2347     1   110.5600475 386.601600
   2343   2346   2348     1   110.5600475 386.601600
   2344   2343   2346     1   109.8000471 387.438400
   2344   2343   2345     1   107.5800459 329.699200
   2345   2343   2346     1   109.8000471 387.438400
   2346   2349   2371     1   110.1100470 384.091200
   2347   2346   2349     1   108.0100461 406.684800
   2347   2346   2348     1   109.7500473 328.025600
   2348   2346   2349     1   108.0100461 406.684800
   2349   2350   2351     1   108.0100461 406.684800
   2349   2350   2352     1   108.0100461 406.684800
   2349   2360   2361     1   108.0100461 406.684800
   2349   2360   2362     1   108.0100461 406.684800
   2350   2353   2354     1   109.8000471 387.438400
   2350   2353   2355     1   109.8000471 387.438400
   2350   2349   2371     1   110.1100470 384.091200
   2351   2350   2353     1   110.5600475 386.601600
   2351   2350   2352     1   109.7500473 328.025600
   2352   2350   2353     1   110.5600475 386.601600
   2354   2353   2356     1   108.7700466 392.459200
   2354   2353   2355     1   107.5800459 329.699200
   2355   2353   2356     1   108.7700466 392.459200
   2356   2358   2359     1   106.5500460 417.563200
   2360   2363   2364     1   109.8000471 387.438400
   2360   2363   2365     1   109.8000471 387.438400
   2360   2349   2371     1   110.1100470 384.091200
   2361   2360   2363     1   110.5600475 386.601600
   2361   2360   2362     1   109.7500473 328.025600
   2362   2360   2363     1   110.5600475 386.601600
   2364   2363   2366     1   108.7700466 392.459200
   2364   2363   2365     1   107.5800459 329.699200
   2365   2363   2366     1   108.7700466 392.459200
   2366   2368   2369     1   106.5500460 417.563200
   2372   2375   2376     1   109.8000471 387.438400
   2372   2375   2377     1   109.8000471 387.438400
   2373   2372   2375     1   109.5600471 388.275200
   2373   2372   2402     1   109.7800468 425.094400
   2373   2372   2374     1   108.4600466 328.025600
   2374   2372   2375     1   109.5600471 388.275200
   2374   2372   2402     1   109.7800468 425.094400
   2375   2378   2379     1   110.5600475 386.601600
   2375   2378   2380     1   110.5600475 386.601600
   2376   2375   2378     1   109.8000471 387.438400
   2376   2375   2377     1   107.5800459 329.699200
   2377   2375   2378     1   109.8000471 387.438400
   2378   2381   2403     1   110.1100470 384.091200
   2379   2378   2381     1   108.0100461 406.684800
   2379   2378   2380     1   109.7500473 328.025600
   2380   2378   2381     1   108.0100461 406.684800
   2381   2382   2383     1   108.0100461 406.684800
   2381   2382   2384     1   108.0100461 406.684800
   2381   2392   2393     1   108.0100461 406.684800
   2381   2392   2394     1   108.0100461 406.684800
   2382   2381   2403     1   110.1100470 384.091200
   2382   2385   2386     1   109.8000471 387.438400
   2382   2385   2387     1   109.8000471 387.438400
   2383   2382   2385     1   110.5600475 386.601600
   2383   2382   2384     1   109.7500473 328.025600
   2384   2382   2385     1   110.5600475 386.601600
   2386   2385   2388     1   108.7700466 392.459200
   2386   2385   2387     1   107.5800459 329.699200
   2387   2385   2388     1   108.7700466 392.459200
   2388   2390   2391     1   106.5500460 417.563200
   2392   2381   2403     1   110.1100470 384.091200
   2392   2395   2396     1   109.8000471 387.438400
   2392   2395   2397     1   109.8000471 387.438400
   2393   2392   2395     1   110.5600475 386.601600
   2393   2392   2394     1   109.7500473 328.025600
   2394   2392   2395     1   110.5600475 386.601600
   2396   2395   2398     1   108.7700466 392.459200
   2396   2395   2397     1   107.5800459 329.699200
   2397   2395   2398     1   108.7700466 392.459200
   2398   2400   2401     1   106.5500460 417.563200
   2404   2407   2408     1   109.8000471 387.438400
   2404   2407   2409     1   109.8000471 387.438400
   2405   2404   2407     1   109.5600471 388.275200
   2405   2404   2434     1   109.7800468 425.094400
   2405   2404   2406     1   108.4600466 328.025600
   2406   2404   2407     1   109.5600471 388.275200
   2406   2404   2434     1   109.7800468 425.094400
   2407   2410   2411     1   110.5600475 386.601600
   2407   2410   2412     1   110.5600475 386.601600
   2408   2407   2410     1   109.8000471 387.438400
   2408   2407   2409     1   107.5800459 329.699200
   2409   2407   2410     1   109.8000471 387.438400
   2410   2413   2435     1   110.1100470 384.091200
   2411   2410   2413     1   108.0100461 406.684800
   2411   2410   2412     1   109.7500473 328.025600
   2412   2410   2413     1   108.0100461 406.684800
   2413   2414   2415     1   108.0100461 406.684800
   2413   2414   2416     1   108.0100461 406.684800
   2413   2424   2425     1   108.0100461 406.684800
   2413   2424   2426     1   108.0100461 406.684800
   2414   2417   2418     1   109.8000471 387.438400
   2414   2417   2419     1   109.8000471 387.438400
   2414   2413   2435     1   110.1100470 384.091200
   2415   2414   2417     1   110.5600475 386.601600
   2415   2414   2416     1   109.7500473 328.025600
   2416   2414   2417     1   110.5600475 386.601600
   2418   2417   2420     1   108.7700466 392.459200
   2418   2417   2419     1   107.5800459 329.699200
   2419   2417   2420     1   108.7700466 392.459200
   2420   2422   2423     1   106.5500460 417.563200
   2424   2427   2428     1   109.8000471 387.438400
   2424   2427   2429     1   109.8000471 387.438400
   2424   2413   2435     1   110.1100470 384.091200
   2425   2424   2427     1   110.5600475 386.601600
   2425   2424   2426     1   109.7500473 328.025600
   2426   2424   2427     1   110.5600475 386.601600
   2428   2427   2430     1   108.7700466 392.459200
   2428   2427   2429     1   107.5800459 329.699200
   2429   2427   2430     1   108.7700466 392.459200
   2430   2432   2433     1   106.5500460 417.563200
   2436   2439   2440     1   109.8000471 387.438400
   2436   2439   2441     1   109.8000471 387.438400
   2437   2436   2439     1   109.5600471 388.275200
   2437   2436   2466     1   109.7800468 425.094400
   2437   2436   2438     1   108.4600466 328.025600
   2438   2436   2439     1   109.5600471 388.275200
   2438   2436   2466     1   109.7800468 425.094400
   2439   2442   2443     1   110.5600475 386.601600
   2439   2442   2444     1   110.5600475 386.601600
   2440   2439   2442     1   109.8000471 387.438400
   2440   2439   2441     1   107.5800459 329.699200
   2441   2439   2442     1   109.8000471 387.438400
   2442   2445   2467     1   110.1100470 384.091200
   2443   2442   2445     1   108.0100461 406.684800
   2443   2442   2444     1   109.7500473 328.025600
   2444   2442   2445     1   108.0100461 406.684800
   2445   2446   2447     1   108.0100461 406.684800
   2445   2446   2448     1   108.0100461 406.684800
   2445   2456   2457     1   108.0100461 406.684800
   2445   2456   2458     1   108.0100461 406.684800
   2446   2445   2467     1   110.1100470 384.091200
   2446   2449   2450     1   109.8000471 387.438400
   2446   2449   2451     1   109.8000471 387.438400
   2447   2446   2449     1   110.5600475 386.601600
   2447   2446   2448     1   109.7500473 328.025600
   2448   2446   2449     1   110.5600475 386.601600
   2450   2449   2452     1   108.7700466 392.459200
   2450   2449   2451     1   107.5800459 329.699200
   2451   2449   2452     1   108.7700466 392.459200
   2452   2454   2455     1   106.5500460 417.563200
   2456   2445   2467     1   110.1100470 384.091200
   2456   2459   2460     1   109.8000471 387.438400
   2456   2459   2461     1   109.8000471 387.438400
   2457   2456   2459     1   110.5600475 386.601600
   2457   2456   2458     1   109.7500473 328.025600
   2458   2456   2459     1   110.5600475 386.601600
   2460   2459   2462     1   108.7700466 392.459200
   2460   2459   2461     1   107.5800459 329.699200
   2461   2459   2462     1   108.7700466 392.459200
   2462   2464   2465     1   106.5500460 417.563200
   2468   2471   2472     1   109.8000471 387.438400
   2468   2471   2473     1   109.8000471 387.438400
   2469   2468   2471     1   109.5600471 388.275200
   2469   2468   2498     1   109.7800468 425.094400
   2469   2468   2470     1   108.4600466 328.025600
   2470   2468   2471     1   109.5600471 388.275200
   2470   2468   2498     1   109.7800468 425.094400
   2471   2474   2475     1   110.5600475 386.601600
   2471   2474   2476     1   110.5600475 386.601600
   2472   2471   2474     1   109.8000471 387.438400
   2472   2471   2473     1   107.5800459 329.699200
   2473   2471   2474     1   109.8000471 387.438400
   2474   2477   2499     1   110.1100470 384.091200
   2475   2474   2477     1   108.0100461 406.684800
   2475   2474   2476     1   109.7500473 328.025600
   2476   2474   2477     1   108.0100461 406.684800
   2477   2478   2479     1   108.0100461 406.684800
   2477   2478   2480     1   108.0100461 406.684800
   2477   2488   2489     1   108.0100461 406.684800
   2477   2488   2490     1   108.0100461 406.684800
   2478   2481   2482     1   109.8000471 387.438400
   2478   2481   2483     1   109.8000471 387.438400
   2478   2477   2499     1   110.1100470 384.091200
   2479   2478   2481     1   110.5600475 386.601600
   2479   2478   2480     1   109.7500473 328.025600
   2480   2478   2481     1   110.5600475 386.601600
   2482   2481   2484     1   108.7700466 392.459200
   2482   2481   2483     1   107.5800459 329.699200
   2483   2481   2484     1   108.7700466 392.459200
   2484   2486   2487     1   106.5500460 417.563200
   2488   2491   2492     1   109.8000471 387.438400
   2488   2491   2493     1   109.8000471 387.438400
   2488   2477   2499     1   110.1100470 384.091200
   2489   2488   2491     1   110.5600475 386.601600
   2489   2488   2490     1   109.7500473 328.025600
   2490   2488   2491     1   110.5600475 386.601600
   2492   2491   2494     1   108.7700466 392.459200
   2492   2491   2493     1   107.5800459 329.699200
   2493   2491   2494     1   108.7700466 392.459200
   2494   2496   2497     1   106.5500460 417.563200
   2500   2503   2504     1   109.8000471 387.438400
   2500   2503   2505     1   109.8000471 387.438400
   2501   2500   2503     1   109.5600471 388.275200
   2501   2500   2530     1   109.7800468 425.094400
   2501   2500   2502     1   108.4600466 328.025600
   2502   2500   2503     1   109.5600471 388.275200
   2502   2500   2530     1   109.7800468 425.094400
   2503   2506   2507     1   110.5600475 386.601600
   2503   2506   2508     1   110.5600475 386.601600
   2504   2503   2506     1   109.8000471 387.438400
   2504   2503   2505     1   107.5800459 329.699200
   2505   2503   2506     1   109.8000471 387.438400
   2506   2509   2531     1   110.1100470 384.091200
   2507   2506   2509     1   108.0100461 406.684800
   2507   2506   2508     1   109.7500473 328.025600
   2508   2506   2509     1   108.0100461 406.684800
   2509   2510   2511     1   108.0100461 406.684800
   2509   2510   2512     1   108.0100461 406.684800
   2509   2520   2521     1   108.0100461 406.684800
   2509   2520   2522     1   108.0100461 406.684800
   2510   2509   2531     1   110.1100470 384.091200
   2510   2513   2514     1   109.8000471 387.438400
   2510   2513   2515     1   109.8000471 387.438400
   2511   2510   2513     1   110.5600475 386.601600
   2511   2510   2512     1   109.7500473 328.025600
   2512   2510   2513     1   110.5600475 386.601600
   2514   2513   2516     1   108.7700466 392.459200
   2514   2513   2515     1   107.5800459 329.699200
   2515   2513   2516     1   108.7700466 392.459200
   2516   2518   2519     1   106.5500460 417.563200
   2520   2509   2531     1   110.1100470 384.091200
   2520   2523   2524     1   109.8000471 387.438400
   2520   2523   2525     1   109.8000471 387.438400
   2521   2520   2523     1   110.5600475 386.601600
   2521   2520   2522     1   109.7500473 328.025600
   2522   2520   2523     1   110.5600475 386.601600
   2524   2523   2526     1   108.7700466 392.459200
   2524   2523   2525     1   107.5800459 329.699200
   2525   2523   2526     1   108.7700466 392.459200
   2526   2528   2529     1   106.5500460 417.563200
   2532   2535   2536     1   109.8000471 387.438400
   2532   2535   2537     1   109.8000471 387.438400
   2533   2532   2535     1   109.5600471 388.275200
   2533   2532   2562     1   109.7800468 425.094400
   2533   2532   2534     1   108.4600466 328.025600
   2534   2532   2535     1   109.5600471 388.275200
   2534   2532   2562     1   109.7800468 425.094400
   2535   2538   2539     1   110.5600475 386.601600
   2535   2538   2540     1   110.5600475 386.601600
   2536   2535   2538     1   109.8000471 387.438400
   2536   2535   2537     1   107.5800459 329.699200
   2537   2535   2538     1   109.8000471 387.438400
   2538   2541   2563     1   110.1100470 384.091200
   2539   2538   2541     1   108.0100461 406.684800
   2539   2538   2540     1   109.7500473 328.025600
   2540   2538   2541     1   108.0100461 406.684800
   2541   2542   2543     1   108.0100461 406.684800
   2541   2542   2544     1   108.0100461 406.684800
   2541   2552   2553     1   108.0100461 406.684800
   2541   2552   2554     1   108.0100461 406.684800
   2542   2545   2546     1   109.8000471 387.438400
   2542   2545   2547     1   109.8000471 387.438400
   2542   2541   2563     1   110.1100470 384.091200
   2543   2542   2545     1   110.5600475 386.601600
   2543   2542   2544     1   109.7500473 328.025600
   2544   2542   2545     1   110.5600475 386.601600
   2546   2545   2548     1   108.7700466 392.459200
   2546   2545   2547     1   107.5800459 329.699200
   2547   2545   2548     1   108.7700466 392.459200
   2548   2550   2551     1   106.5500460 417.563200
   2552   2555   2556     1   109.8000471 387.438400
   2552   2555   2557     1   109.8000471 387.438400
   2552   2541   2563     1   110.1100470 384.091200
   2553   2552   2555     1   110.5600475 386.601600
   2553   2552   2554     1   109.7500473 328.025600
   2554   2552   2555     1   110.5600475 386.601600
   2556   2555   2558     1   108.7700466 392.459200
   2556   2555   2557     1   107.5800459 329.699200
   2557   2555   2558     1   108.7700466 392.459200
   2558   2560   2561     1   106.5500460 417.563200
   2564   2567   2568     1   109.8000471 387.438400
   2564   2567   2569     1   109.8000471 387.438400
   2565   2564   2567     1   109.5600471 388.275200
   2565   2564   2594     1   109.7800468 425.094400
   2565   2564   2566     1   108.4600466 328.025600
   2566   2564   2567     1   109.5600471 388.275200
   2566   2564   2594     1   109.7800468 425.094400
   2567   2570   2571     1   110.5600475 386.601600
   2567   2570   2572     1   110.5600475 386.601600
   2568   2567   2570     1   109.8000471 387.438400
   2568   2567   2569     1   107.5800459 329.699200
   2569   2567   2570     1   109.8000471 387.438400
   2570   2573   2595     1   110.1100470 384.091200
   2571   2570   2573     1   108.0100461 406.684800
   2571   2570   2572     1   109.7500473 328.025600
   2572   2570   2573     1   108.0100461 406.684800
   2573   2574   2575     1   108.0100461 406.684800
   2573   2574   2576     1   108.0100461 406.684800
   2573   2584   2585     1   108.0100461 406.684800
   2573   2584   2586     1   108.0100461 406.684800
   2574   2573   2595     1   110.1100470 384.091200
   2574   2577   2578     1   109.8000471 387.438400
   2574   2577   2579     1   109.8000471 387.438400
   2575   2574   2577     1   110.5600475 386.601600
   2575   2574   2576     1   109.7500473 328.025600
   2576   2574   2577     1   110.5600475 386.601600
   2578   2577   2580     1   108.7700466 392.459200
   2578   2577   2579     1   107.5800459 329.699200
   2579   2577   2580     1   108.7700466 392.459200
   2580   2582   2583     1   106.5500460 417.563200
   2584   2573   2595     1   110.1100470 384.091200
   2584   2587   2588     1   109.8000471 387.438400
   2584   2587   2589     1   109.8000471 387.438400
   2585   2584   2587     1   110.5600475 386.601600
   2585   2584   2586     1   109.7500473 328.025600
   2586   2584   2587     1   110.5600475 386.601600
   2588   2587   2590     1   108.7700466 392.459200
   2588   2587   2589     1   107.5800459 329.699200
   2589   2587   2590     1   108.7700466 392.459200
   2590   2592   2593     1   106.5500460 417.563200
   2596   2599   2600     1   109.8000471 387.438400
   2596   2599   2601     1   109.8000471 387.438400
   2597   2596   2599     1   109.5600471 388.275200
   2597   2596   2626     1   109.7800468 425.094400
   2597   2596   2598     1   108.4600466 328.025600
   2598   2596   2599     1   109.5600471 388.275200
   2598   2596   2626     1   109.7800468 425.094400
   2599   2602   2603     1   110.5600475 386.601600
   2599   2602   2604     1   110.5600475 386.601600
   2600   2599   2602     1   109.8000471 387.438400
   2600   2599   2601     1   107.5800459 329.699200
   2601   2599   2602     1   109.8000471 387.438400
   2602   2605   2627     1   110.1100470 384.091200
   2603   2602   2605     1   108.0100461 406.684800
   2603   2602   2604     1   109.7500473 328.025600
   2604   2602   2605     1   108.0100461 406.684800
   2605   2606   2607     1   108.0100461 406.684800
   2605   2606   2608     1   108.0100461 406.684800
   2605   2616   2617     1   108.0100461 406.684800
   2605   2616   2618     1   108.0100461 406.684800
   2606   2609   2610     1   109.8000471 387.438400
   2606   2609   2611     1   109.8000471 387.438400
   2606   2605   2627     1   110.1100470 384.091200
   2607   2606   2609     1   110.5600475 386.601600
   2607   2606   2608     1   109.7500473 328.025600
   2608   2606   2609     1   110.5600475 386.601600
   2610   2609   2612     1   108.7700466 392.459200
   2610   2609   2611     1   107.5800459 329.699200
   2611   2609   2612     1   108.7700466 392.459200
   2612   2614   2615     1   106.5500460 417.563200
   2616   2619   2620     1   109.8000471 387.438400
   2616   2619   2621     1   109.8000471 387.438400
   2616   2605   2627     1   110.1100470 384.091200
   2617   2616   2619     1   110.5600475 386.601600
   2617   2616   2618     1   109.7500473 328.025600
   2618   2616   2619     1   110.5600475 386.601600
   2620   2619   2622     1   108.7700466 392.459200
   2620   2619   2621     1   107.5800459 329.699200
   2621   2619   2622     1   108.7700466 392.459200
   2622   2624   2625     1   106.5500460 417.563200
   2628   2631   2632     1   109.8000471 387.438400
   2628   2631   2633     1   109.8000471 387.438400
   2629   2628   2631     1   109.5600471 388.275200
   2629   2628   2658     1   109.7800468 425.094400
   2629   2628   2630     1   108.4600466 328.025600
   2630   2628   2631     1   109.5600471 388.275200
   2630   2628   2658     1   109.7800468 425.094400
   2631   2634   2635     1   110.5600475 386.601600
   2631   2634   2636     1   110.5600475 386.601600
   2632   2631   2634     1   109.8000471 387.438400
   2632   2631   2633     1   107.5800459 329.699200
   2633   2631   2634     1   109.8000471 387.438400
   2634   2637   2659     1   110.1100470 384.091200
   2635   2634   2637     1   108.0100461 406.684800
   2635   2634   2636     1   109.7500473 328.025600
   2636   2634   2637     1   108.0100461 406.684800
   2637   2638   2639     1   108.0100461 406.684800
   2637   2638   2640     1   108.0100461 406.684800
   2637   2648   2649     1   108.0100461 406.684800
   2637   2648   2650     1   108.0100461 406.684800
   2638   2637   2659     1   110.1100470 384.091200
   2638   2641   2642     1   109.8000471 387.438400
   2638   2641   2643     1   109.8000471 387.438400
   2639   2638   2641     1   110.5600475 386.601600
   2639   2638   2640     1   109.7500473 328.025600
   2640   2638   2641     1   110.5600475 386.601600
   2642   2641   2644     1   108.7700466 392.459200
   2642   2641   2643     1   107.5800459 329.699200
   2643   2641   2644     1   108.7700466 392.459200
   2644   2646   2647     1   106.5500460 417.563200
   2648   2637   2659     1   110.1100470 384.091200
   2648   2651   2652     1   109.8000471 387.438400
   2648   2651   2653     1   109.8000471 387.438400
   2649   2648   2651     1   110.5600475 386.601600
   2649   2648   2650     1   109.7500473 328.025600
   2650   2648   2651     1   110.5600475 386.601600
   2652   2651   2654     1   108.7700466 392.459200
   2652   2651   2653     1   107.5800459 329.699200
   2653   2651   2654     1   108.7700466 392.459200
   2654   2656   2657     1   106.5500460 417.563200
   2660   2663   2664     1   109.8000471 387.438400
   2660   2663   2665     1   109.8000471 387.438400
   2661   2660   2663     1   109.5600471 388.275200
   2661   2660   2690     1   109.7800468 425.094400
   2661   2660   2662     1   108.4600466 328.025600
   2662   2660   2663     1   109.5600471 388.275200
   2662   2660   2690     1   109.7800468 425.094400
   2663   2666   2667     1   110.5600475 386.601600
   2663   2666   2668     1   110.5600475 386.601600
   2664   2663   2666     1   109.8000471 387.438400
   2664   2663   2665     1   107.5800459 329.699200
   2665   2663   2666     1   109.8000471 387.438400
   2666   2669   2691     1   110.1100470 384.091200
   2667   2666   2669     1   108.0100461 406.684800
   2667   2666   2668     1   109.7500473 328.025600
   2668   2666   2669     1   108.0100461 406.684800
   2669   2670   2671     1   108.0100461 406.684800
   2669   2670   2672     1   108.0100461 406.684800
   2669   2680   2681     1   108.0100461 406.684800
   2669   2680   2682     1   108.0100461 406.684800
   2670   2673   2674     1   109.8000471 387.438400
   2670   2673   2675     1   109.8000471 387.438400
   2670   2669   2691     1   110.1100470 384.091200
   2671   2670   2673     1   110.5600475 386.601600
   2671   2670   2672     1   109.7500473 328.025600
   2672   2670   2673     1   110.5600475 386.601600
   2674   2673   2676     1   108.7700466 392.459200
   2674   2673   2675     1   107.5800459 329.699200
   2675   2673   2676     1   108.7700466 392.459200
   2676   2678   2679     1   106.5500460 417.563200
   2680   2683   2684     1   109.8000471 387.438400
   2680   2683   2685     1   109.8000471 387.438400
   2680   2669   2691     1   110.1100470 384.091200
   2681   2680   2683     1   110.5600475 386.601600
   2681   2680   2682     1   109.7500473 328.025600
   2682   2680   2683     1   110.5600475 386.601600
   2684   2683   2686     1   108.7700466 392.459200
   2684   2683   2685     1   107.5800459 329.699200
   2685   2683   2686     1   108.7700466 392.459200
   2686   2688   2689     1   106.5500460 417.563200
   2692   2695   2696     1   109.8000471 387.438400
   2692   2695   2697     1   109.8000471 387.438400
   2693   2692   2695     1   109.5600471 388.275200
   2693   2692   2722     1   109.7800468 425.094400
   2693   2692   2694     1   108.4600466 328.025600
   2694   2692   2695     1   109.5600471 388.275200
   2694   2692   2722     1   109.7800468 425.094400
   2695   2698   2699     1   110.5600475 386.601600
   2695   2698   2700     1   110.5600475 386.601600
   2696   2695   2698     1   109.8000471 387.438400
   2696   2695   2697     1   107.5800459 329.699200
   2697   2695   2698     1   109.8000471 387.438400
   2698   2701   2723     1   110.1100470 384.091200
   2699   2698   2701     1   108.0100461 406.684800
   2699   2698   2700     1   109.7500473 328.025600
   2700   2698   2701     1   108.0100461 406.684800
   2701   2702   2703     1   108.0100461 406.684800
   2701   2702   2704     1   108.0100461 406.684800
   2701   2712   2713     1   108.0100461 406.684800
   2701   2712   2714     1   108.0100461 406.684800
   2702   2701   2723     1   110.1100470 384.091200
   2702   2705   2706     1   109.8000471 387.438400
   2702   2705   2707     1   109.8000471 387.438400
   2703   2702   2705     1   110.5600475 386.601600
   2703   2702   2704     1   109.7500473 328.025600
   2704   2702   2705     1   110.5600475 386.601600
   2706   2705   2708     1   108.7700466 392.459200
   2706   2705   2707     1   107.5800459 329.699200
   2707   2705   2708     1   108.7700466 392.459200
   2708   2710   2711     1   106.5500460 417.563200
   2712   2701   2723     1   110.1100470 384.091200
   2712   2715   2716     1   109.8000471 387.438400
   2712   2715   2717     1   109.8000471 387.438400
   2713   2712   2715     1   110.5600475 386.601600
   2713   2712   2714     1   109.7500473 328.025600
   2714   2712   2715     1   110.5600475 386.601600
   2716   2715   2718     1   108.7700466 392.459200
   2716   2715   2717     1   107.5800459 329.699200
   2717   2715   2718     1   108.7700466 392.459200
   2718   2720   2721     1   106.5500460 417.563200
   2724   2727   2728     1   109.8000471 387.438400
   2724   2727   2729     1   109.8000471 387.438400
   2725   2724   2727     1   109.5600471 388.275200
   2725   2724   2754     1   109.7800468 425.094400
   2725   2724   2726     1   108.4600466 328.025600
   2726   2724   2727     1   109.5600471 388.275200
   2726   2724   2754     1   109.7800468 425.094400
   2727   2730   2731     1   110.5600475 386.601600
   2727   2730   2732     1   110.5600475 386.601600
   2728   2727   2730     1   109.8000471 387.438400
   2728   2727   2729     1   107.5800459 329.699200
   2729   2727   2730     1   109.8000471 387.438400
   2730   2733   2755     1   110.1100470 384.091200
   2731   2730   2733     1   108.0100461 406.684800
   2731   2730   2732     1   109.7500473 328.025600
   2732   2730   2733     1   108.0100461 406.684800
   2733   2734   2735     1   108.0100461 406.684800
   2733   2734   2736     1   108.0100461 406.684800
   2733   2744   2745     1   108.0100461 406.684800
   2733   2744   2746     1   108.0100461 406.684800
   2734   2737   2738     1   109.8000471 387.438400
   2734   2737   2739     1   109.8000471 387.438400
   2734   2733   2755     1   110.1100470 384.091200
   2735   2734   2737     1   110.5600475 386.601600
   2735   2734   2736     1   109.7500473 328.025600
   2736   2734   2737     1   110.5600475 386.601600
   2738   2737   2740     1   108.7700466 392.459200
   2738   2737   2739     1   107.5800459 329.699200
   2739   2737   2740     1   108.7700466 392.459200
   2740   2742   2743     1   106.5500460 417.563200
   2744   2747   2748     1   109.8000471 387.438400
   2744   2747   2749     1   109.8000471 387.438400
   2744   2733   2755     1   110.1100470 384.091200
   2745   2744   2747     1   110.5600475 386.601600
   2745   2744   2746     1   109.7500473 328.025600
   2746   2744   2747     1   110.5600475 386.601600
   2748   2747   2750     1   108.7700466 392.459200
   2748   2747   2749     1   107.5800459 329.699200
   2749   2747   2750     1   108.7700466 392.459200
   2750   2752   2753     1   106.5500460 417.563200
   2756   2759   2760     1   109.8000471 387.438400
   2756   2759   2761     1   109.8000471 387.438400
   2757   2756   2759     1   109.5600471 388.275200
   2757   2756   2786     1   109.7800468 425.094400
   2757   2756   2758     1   108.4600466 328.025600
   2758   2756   2759     1   109.5600471 388.275200
   2758   2756   2786     1   109.7800468 425.094400
   2759   2762   2763     1   110.5600475 386.601600
   2759   2762   2764     1   110.5600475 386.601600
   2760   2759   2762     1   109.8000471 387.438400
   2760   2759   2761     1   107.5800459 329.699200
   2761   2759   2762     1   109.8000471 387.438400
   2762   2765   2787     1   110.1100470 384.091200
   2763   2762   2765     1   108.0100461 406.684800
   2763   2762   2764     1   109.7500473 328.025600
   2764   2762   2765     1   108.0100461 406.684800
   2765   2766   2767     1   108.0100461 406.684800
   2765   2766   2768     1   108.0100461 406.684800
   2765   2776   2777     1   108.0100461 406.684800
   2765   2776   2778     1   108.0100461 406.684800
   2766   2765   2787     1   110.1100470 384.091200
   2766   2769   2770     1   109.8000471 387.438400
   2766   2769   2771     1   109.8000471 387.438400
   2767   2766   2769     1   110.5600475 386.601600
   2767   2766   2768     1   109.7500473 328.025600
   2768   2766   2769     1   110.5600475 386.601600
   2770   2769   2772     1   108.7700466 392.459200
   2770   2769   2771     1   107.5800459 329.699200
   2771   2769   2772     1   108.7700466 392.459200
   2772   2774   2775     1   106.5500460 417.563200
   2776   2765   2787     1   110.1100470 384.091200
   2776   2779   2780     1   109.8000471 387.438400
   2776   2779   2781     1   109.8000471 387.438400
   2777   2776   2779     1   110.5600475 386.601600
   2777   2776   2778     1   109.7500473 328.025600
   2778   2776   2779     1   110.5600475 386.601600
   2780   2779   2782     1   108.7700466 392.459200
   2780   2779   2781     1   107.5800459 329.699200
   2781   2779   2782     1   108.7700466 392.459200
   2782   2784   2785     1   106.5500460 417.563200
   2788   2791   2792     1   109.8000471 387.438400
   2788   2791   2793     1   109.8000471 387.438400
   2789   2788   2791     1   109.5600471 388.275200
   2789   2788   2818     1   109.7800468 425.094400
   2789   2788   2790     1   108.4600466 328.025600
   2790   2788   2791     1   109.5600471 388.275200
   2790   2788   2818     1   109.7800468 425.094400
   2791   2794   2795     1   110.5600475 386.601600
   2791   2794   2796     1   110.5600475 386.601600
   2792   2791   2794     1   109.8000471 387.438400
   2792   2791   2793     1   107.5800459 329.699200
   2793   2791   2794     1   109.8000471 387.438400
   2794   2797   2819     1   110.1100470 384.091200
   2795   2794   2797     1   108.0100461 406.684800
   2795   2794   2796     1   109.7500473 328.025600
   2796   2794   2797     1   108.0100461 406.684800
   2797   2798   2799     1   108.0100461 406.684800
   2797   2798   2800     1   108.0100461 406.684800
   2797   2808   2809     1   108.0100461 406.684800
   2797   2808   2810     1   108.0100461 406.684800
   2798   2801   2802     1   109.8000471 387.438400
   2798   2801   2803     1   109.8000471 387.438400
   2798   2797   2819     1   110.1100470 384.091200
   2799   2798   2801     1   110.5600475 386.601600
   2799   2798   2800     1   109.7500473 328.025600
   2800   2798   2801     1   110.5600475 386.601600
   2802   2801   2804     1   108.7700466 392.459200
   2802   2801   2803     1   107.5800459 329.699200
   2803   2801   2804     1   108.7700466 392.459200
   2804   2806   2807     1   106.5500460 417.563200
   2808   2811   2812     1   109.8000471 387.438400
   2808   2811   2813     1   109.8000471 387.438400
   2808   2797   2819     1   110.1100470 384.091200
   2809   2808   2811     1   110.5600475 386.601600
   2809   2808   2810     1   109.7500473 328.025600
   2810   2808   2811     1   110.5600475 386.601600
   2812   2811   2814     1   108.7700466 392.459200
   2812   2811   2813     1   107.5800459 329.699200
   2813   2811   2814     1   108.7700466 392.459200
   2814   2816   2817     1   106.5500460 417.563200
   2820   2823   2824     1   109.8000471 387.438400
   2820   2823   2825     1   109.8000471 387.438400
   2821   2820   2823     1   109.5600471 388.275200
   2821   2820   2850     1   109.7800468 425.094400
   2821   2820   2822     1   108.4600466 328.025600
   2822   2820   2823     1   109.5600471 388.275200
   2822   2820   2850     1   109.7800468 425.094400
   2823   2826   2827     1   110.5600475 386.601600
   2823   2826   2828     1   110.5600475 386.601600
   2824   2823   2826     1   109.8000471 387.438400
   2824   2823   2825     1   107.5800459 329.699200
   2825   2823   2826     1   109.8000471 387.438400
   2826   2829   2851     1   110.1100470 384.091200
   2827   2826   2829     1   108.0100461 406.684800
   2827   2826   2828     1   109.7500473 328.025600
   2828   2826   2829     1   108.0100461 406.684800
   2829   2830   2831     1   108.0100461 406.684800
   2829   2830   2832     1   108.0100461 406.684800
   2829   2840   2841     1   108.0100461 406.684800
   2829   2840   2842     1   108.0100461 406.684800
   2830   2829   2851     1   110.1100470 384.091200
   2830   2833   2834     1   109.8000471 387.438400
   2830   2833   2835     1   109.8000471 387.438400
   2831   2830   2833     1   110.5600475 386.601600
   2831   2830   2832     1   109.7500473 328.025600
   2832   2830   2833     1   110.5600475 386.601600
   2834   2833   2836     1   108.7700466 392.459200
   2834   2833   2835     1   107.5800459 329.699200
   2835   2833   2836     1   108.7700466 392.459200
   2836   2838   2839     1   106.5500460 417.563200
   2840   2829   2851     1   110.1100470 384.091200
   2840   2843   2844     1   109.8000471 387.438400
   2840   2843   2845     1   109.8000471 387.438400
   2841   2840   2843     1   110.5600475 386.601600
   2841   2840   2842     1   109.7500473 328.025600
   2842   2840   2843     1   110.5600475 386.601600
   2844   2843   2846     1   108.7700466 392.459200
   2844   2843   2845     1   107.5800459 329.699200
   2845   2843   2846     1   108.7700466 392.459200
   2846   2848   2849     1   106.5500460 417.563200
   2852   2855   2856     1   109.8000471 387.438400
   2852   2855   2857     1   109.8000471 387.438400
   2853   2852   2855     1   109.5600471 388.275200
   2853   2852   2882     1   109.7800468 425.094400
   2853   2852   2854     1   108.4600466 328.025600
   2854   2852   2855     1   109.5600471 388.275200
   2854   2852   2882     1   109.7800468 425.094400
   2855   2858   2859     1   110.5600475 386.601600
   2855   2858   2860     1   110.5600475 386.601600
   2856   2855   2858     1   109.8000471 387.438400
   2856   2855   2857     1   107.5800459 329.699200
   2857   2855   2858     1   109.8000471 387.438400
   2858   2861   2883     1   110.1100470 384.091200
   2859   2858   2861     1   108.0100461 406.684800
   2859   2858   2860     1   109.7500473 328.025600
   2860   2858   2861     1   108.0100461 406.684800
   2861   2862   2863     1   108.0100461 406.684800
   2861   2862   2864     1   108.0100461 406.684800
   2861   2872   2873     1   108.0100461 406.684800
   2861   2872   2874     1   108.0100461 406.684800
   2862   2865   2866     1   109.8000471 387.438400
   2862   2865   2867     1   109.8000471 387.438400
   2862   2861   2883     1   110.1100470 384.091200
   2863   2862   2865     1   110.5600475 386.601600
   2863   2862   2864     1   109.7500473 328.025600
   2864   2862   2865     1   110.5600475 386.601600
   2866   2865   2868     1   108.7700466 392.459200
   2866   2865   2867     1   107.5800459 329.699200
   2867   2865   2868     1   108.7700466 392.459200
   2868   2870   2871     1   106.5500460 417.563200
   2872   2875   2876     1   109.8000471 387.438400
   2872   2875   2877     1   109.8000471 387.438400
   2872   2861   2883     1   110.1100470 384.091200
   2873   2872   2875     1   110.5600475 386.601600
   2873   2872   2874     1   109.7500473 328.025600
   2874   2872   2875     1   110.5600475 386.601600
   2876   2875   2878     1   108.7700466 392.459200
   2876   2875   2877     1   107.5800459 329.699200
   2877   2875   2878     1   108.7700466 392.459200
   2878   2880   2881     1   106.5500460 417.563200
   2884   2887   2888     1   109.8000471 387.438400
   2884   2887   2889     1   109.8000471 387.438400
   2885   2884   2887     1   109.5600471 388.275200
   2885   2884   2914     1   109.7800468 425.094400
   2885   2884   2886     1   108.4600466 328.025600
   2886   2884   2887     1   109.5600471 388.275200
   2886   2884   2914     1   109.7800468 425.094400
   2887   2890   2891     1   110.5600475 386.601600
   2887   2890   2892     1   110.5600475 386.601600
   2888   2887   2890     1   109.8000471 387.438400
   2888   2887   2889     1   107.5800459 329.699200
   2889   2887   2890     1   109.8000471 387.438400
   2890   2893   2915     1   110.1100470 384.091200
   2891   2890   2893     1   108.0100461 406.684800
   2891   2890   2892     1   109.7500473 328.025600
   2892   2890   2893     1   108.0100461 406.684800
   2893   2894   2895     1   108.0100461 406.684800
   2893   2894   2896     1   108.0100461 406.684800
   2893   2904   2905     1   108.0100461 406.684800
   2893   2904   2906     1   108.0100461 406.684800
   2894   2893   2915     1   110.1100470 384.091200
   2894   2897   2898     1   109.8000471 387.438400
   2894   2897   2899     1   109.8000471 387.438400
   2895   2894   2897     1   110.5600475 386.601600
   2895   2894   2896     1   109.7500473 328.025600
   2896   2894   2897     1   110.5600475 386.601600
   2898   2897   2900     1   108.7700466 392.459200
   2898   2897   2899     1   107.5800459 329.699200
   2899   2897   2900     1   108.7700466 392.459200
   2900   2902   2903     1   106.5500460 417.563200
   2904   2893   2915     1   110.1100470 384.091200
   2904   2907   2908     1   109.8000471 387.438400
   2904   2907   2909     1   109.8000471 387.438400
   2905   2904   2907     1   110.5600475 386.601600
   2905   2904   2906     1   109.7500473 328.025600
   2906   2904   2907     1   110.5600475 386.601600
   2908   2907   2910     1   108.7700466 392.459200
   2908   2907   2909     1   107.5800459 329.699200
   2909   2907   2910     1   108.7700466 392.459200
   2910   2912   2913     1   106.5500460 417.563200
   2916   2919   2920     1   109.8000471 387.438400
   2916   2919   2921     1   109.8000471 387.438400
   2917   2916   2919     1   109.5600471 388.275200
   2917   2916   2946     1   109.7800468 425.094400
   2917   2916   2918     1   108.4600466 328.025600
   2918   2916   2919     1   109.5600471 388.275200
   2918   2916   2946     1   109.7800468 425.094400
   2919   2922   2923     1   110.5600475 386.601600
   2919   2922   2924     1   110.5600475 386.601600
   2920   2919   2922     1   109.8000471 387.438400
   2920   2919   2921     1   107.5800459 329.699200
   2921   2919   2922     1   109.8000471 387.438400
   2922   2925   2947     1   110.1100470 384.091200
   2923   2922   2925     1   108.0100461 406.684800
   2923   2922   2924     1   109.7500473 328.025600
   2924   2922   2925     1   108.0100461 406.684800
   2925   2926   2927     1   108.0100461 406.684800
   2925   2926   2928     1   108.0100461 406.684800
   2925   2936   2937     1   108.0100461 406.684800
   2925   2936   2938     1   108.0100461 406.684800
   2926   2929   2930     1   109.8000471 387.438400
   2926   2929   2931     1   109.8000471 387.438400
   2926   2925   2947     1   110.1100470 384.091200
   2927   2926   2929     1   110.5600475 386.601600
   2927   2926   2928     1   109.7500473 328.025600
   2928   2926   2929     1   110.5600475 386.601600
   2930   2929   2932     1   108.7700466 392.459200
   2930   2929   2931     1   107.5800459 329.699200
   2931   2929   2932     1   108.7700466 392.459200
   2932   2934   2935     1   106.5500460 417.563200
   2936   2939   2940     1   109.8000471 387.438400
   2936   2939   2941     1   109.8000471 387.438400
   2936   2925   2947     1   110.1100470 384.091200
   2937   2936   2939     1   110.5600475 386.601600
   2937   2936   2938     1   109.7500473 328.025600
   2938   2936   2939     1   110.5600475 386.601600
   2940   2939   2942     1   108.7700466 392.459200
   2940   2939   2941     1   107.5800459 329.699200
   2941   2939   2942     1   108.7700466 392.459200
   2942   2944   2945     1   106.5500460 417.563200
   2948   2951   2952     1   109.8000471 387.438400
   2948   2951   2953     1   109.8000471 387.438400
   2949   2948   2951     1   109.5600471 388.275200
   2949   2948   2978     1   109.7800468 425.094400
   2949   2948   2950     1   108.4600466 328.025600
   2950   2948   2951     1   109.5600471 388.275200
   2950   2948   2978     1   109.7800468 425.094400
   2951   2954   2955     1   110.5600475 386.601600
   2951   2954   2956     1   110.5600475 386.601600
   2952   2951   2954     1   109.8000471 387.438400
   2952   2951   2953     1   107.5800459 329.699200
   2953   2951   2954     1   109.8000471 387.438400
   2954   2957   2979     1   110.1100470 384.091200
   2955   2954   2957     1   108.0100461 406.684800
   2955   2954   2956     1   109.7500473 328.025600
   2956   2954   2957     1   108.0100461 406.684800
   2957   2958   2959     1   108.0100461 406.684800
   2957   2958   2960     1   108.0100461 406.684800
   2957   2968   2969     1   108.0100461 406.684800
   2957   2968   2970     1   108.0100461 406.684800
   2958   2957   2979     1   110.1100470 384.091200
   2958   2961   2962     1   109.8000471 387.438400
   2958   2961   2963     1   109.8000471 387.438400
   2959   2958   2961     1   110.5600475 386.601600
   2959   2958   2960     1   109.7500473 328.025600
   2960   2958   2961     1   110.5600475 386.601600
   2962   2961   2964     1   108.7700466 392.459200
   2962   2961   2963     1   107.5800459 329.699200
   2963   2961   2964     1   108.7700466 392.459200
   2964   2966   2967     1   106.5500460 417.563200
   2968   2957   2979     1   110.1100470 384.091200
   2968   2971   2972     1   109.8000471 387.438400
   2968   2971   2973     1   109.8000471 387.438400
   2969   2968   2971     1   110.5600475 386.601600
   2969   2968   2970     1   109.7500473 328.025600
   2970   2968   2971     1   110.5600475 386.601600
   2972   2971   2974     1   108.7700466 392.459200
   2972   2971   2973     1   107.5800459 329.699200
   2973   2971   2974     1   108.7700466 392.459200
   2974   2976   2977     1   106.5500460 417.563200
   2980   2983   2984     1   109.8000471 387.438400
   2980   2983   2985     1   109.8000471 387.438400
   2981   2980   2983     1   109.5600471 388.275200
   2981   2980   3010     1   109.7800468 425.094400
   2981   2980   2982     1   108.4600466 328.025600
   2982   2980   2983     1   109.5600471 388.275200
   2982   2980   3010     1   109.7800468 425.094400
   2983   2986   2987     1   110.5600475 386.601600
   2983   2986   2988     1   110.5600475 386.601600
   2984   2983   2986     1   109.8000471 387.438400
   2984   2983   2985     1   107.5800459 329.699200
   2985   2983   2986     1   109.8000471 387.438400
   2986   2989   3011     1   110.1100470 384.091200
   2987   2986   2989     1   108.0100461 406.684800
   2987   2986   2988     1   109.7500473 328.025600
   2988   2986   2989     1   108.0100461 406.684800
   2989   2990   2991     1   108.0100461 406.684800
   2989   2990   2992     1   108.0100461 406.684800
   2989   3000   3001     1   108.0100461 406.684800
   2989   3000   3002     1   108.0100461 406.684800
   2990   2993   2994     1   109.8000471 387.438400
   2990   2993   2995     1   109.8000471 387.438400
   2990   2989   3011     1   110.1100470 384.091200
   2991   2990   2993     1   110.5600475 386.601600
   2991   2990   2992     1   109.7500473 328.025600
   2992   2990   2993     1   110.5600475 386.601600
   2994   2993   2996     1   108.7700466 392.459200
   2994   2993   2995     1   107.5800459 329.699200
   2995   2993   2996     1   108.7700466 392.459200
   2996   2998   2999     1   106.5500460 417.563200
   3000   3003   3004     1   109.8000471 387.438400
   3000   3003   3005     1   109.8000471 387.438400
   3000   2989   3011     1   110.1100470 384.091200
   3001   3000   3003     1   110.5600475 386.601600
   3001   3000   3002     1   109.7500473 328.025600
   3002   3000   3003     1   110.5600475 386.601600
   3004   3003   3006     1   108.7700466 392.459200
   3004   3003   3005     1   107.5800459 329.699200
   3005   3003   3006     1   108.7700466 392.459200
   3006   3008   3009     1   106.5500460 417.563200
   3012   3015   3016     1   109.8000471 387.438400
   3012   3015   3017     1   109.8000471 387.438400
   3013   3012   3015     1   109.5600471 388.275200
   3013   3012   3042     1   109.7800468 425.094400
   3013   3012   3014     1   108.4600466 328.025600
   3014   3012   3015     1   109.5600471 388.275200
   3014   3012   3042     1   109.7800468 425.094400
   3015   3018   3019     1   110.5600475 386.601600
   3015   3018   3020     1   110.5600475 386.601600
   3016   3015   3018     1   109.8000471 387.438400
   3016   3015   3017     1   107.5800459 329.699200
   3017   3015   3018     1   109.8000471 387.438400
   3018   3021   3043     1   110.1100470 384.091200
   3019   3018   3021     1   108.0100461 406.684800
   3019   3018   3020     1   109.7500473 328.025600
   3020   3018   3021     1   108.0100461 406.684800
   3021   3022   3023     1   108.0100461 406.684800
   3021   3022   3024     1   108.0100461 406.684800
   3021   3032   3033     1   108.0100461 406.684800
   3021   3032   3034     1   108.0100461 406.684800
   3022   3021   3043     1   110.1100470 384.091200
   3022   3025   3026     1   109.8000471 387.438400
   3022   3025   3027     1   109.8000471 387.438400
   3023   3022   3025     1   110.5600475 386.601600
   3023   3022   3024     1   109.7500473 328.025600
   3024   3022   3025     1   110.5600475 386.601600
   3026   3025   3028     1   108.7700466 392.459200
   3026   3025   3027     1   107.5800459 329.699200
   3027   3025   3028     1   108.7700466 392.459200
   3028   3030   3031     1   106.5500460 417.563200
   3032   3021   3043     1   110.1100470 384.091200
   3032   3035   3036     1   109.8000471 387.438400
   3032   3035   3037     1   109.8000471 387.438400
   3033   3032   3035     1   110.5600475 386.601600
   3033   3032   3034     1   109.7500473 328.025600
   3034   3032   3035     1   110.5600475 386.601600
   3036   3035   3038     1   108.7700466 392.459200
   3036   3035   3037     1   107.5800459 329.699200
   3037   3035   3038     1   108.7700466 392.459200
   3038   3040   3041     1   106.5500460 417.563200
   3044   3047   3048     1   109.8000471 387.438400
   3044   3047   3049     1   109.8000471 387.438400
   3045   3044   3047     1   109.5600471 388.275200
   3045   3044   3074     1   109.7800468 425.094400
   3045   3044   3046     1   108.4600466 328.025600
   3046   3044   3047     1   109.5600471 388.275200
   3046   3044   3074     1   109.7800468 425.094400
   3047   3050   3051     1   110.5600475 386.601600
   3047   3050   3052     1   110.5600475 386.601600
   3048   3047   3050     1   109.8000471 387.438400
   3048   3047   3049     1   107.5800459 329.699200
   3049   3047   3050     1   109.8000471 387.438400
   3050   3053   3075     1   110.1100470 384.091200
   3051   3050   3053     1   108.0100461 406.684800
   3051   3050   3052     1   109.7500473 328.025600
   3052   3050   3053     1   108.0100461 406.684800
   3053   3054   3055     1   108.0100461 406.684800
   3053   3054   3056     1   108.0100461 406.684800
   3053   3064   3065     1   108.0100461 406.684800
   3053   3064   3066     1   108.0100461 406.684800
   3054   3057   3058     1   109.8000471 387.438400
   3054   3057   3059     1   109.8000471 387.438400
   3054   3053   3075     1   110.1100470 384.091200
   3055   3054   3057     1   110.5600475 386.601600
   3055   3054   3056     1   109.7500473 328.025600
   3056   3054   3057     1   110.5600475 386.601600
   3058   3057   3060     1   108.7700466 392.459200
   3058   3057   3059     1   107.5800459 329.699200
   3059   3057   3060     1   108.7700466 392.459200
   3060   3062   3063     1   106.5500460 417.563200
   3064   3067   3068     1   109.8000471 387.438400
   3064   3067   3069     1   109.8000471 387.438400
   3064   3053   3075     1   110.1100470 384.091200
   3065   3064   3067     1   110.5600475 386.601600
   3065   3064   3066     1   109.7500473 328.025600
   3066   3064   3067     1   110.5600475 386.601600
   3068   3067   3070     1   108.7700466 392.459200
   3068   3067   3069     1   107.5800459 329.699200
   3069   3067   3070     1   108.7700466 392.459200
   3070   3072   3073     1   106.5500460 417.563200
   3076   3079   3080     1   109.8000471 387.438400
   3076   3079   3081     1   109.8000471 387.438400
   3077   3076   3079     1   109.5600471 388.275200
   3077   3076   3106     1   109.7800468 425.094400
   3077   3076   3078     1   108.4600466 328.025600
   3078   3076   3079     1   109.5600471 388.275200
   3078   3076   3106     1   109.7800468 425.094400
   3079   3082   3083     1   110.5600475 386.601600
   3079   3082   3084     1   110.5600475 386.601600
   3080   3079   3082     1   109.8000471 387.438400
   3080   3079   3081     1   107.5800459 329.699200
   3081   3079   3082     1   109.8000471 387.438400
   3082   3085   3107     1   110.1100470 384.091200
   3083   3082   3085     1   108.0100461 406.684800
   3083   3082   3084     1   109.7500473 328.025600
   3084   3082   3085     1   108.0100461 406.684800
   3085   3086   3087     1   108.0100461 406.684800
   3085   3086   3088     1   108.0100461 406.684800
   3085   3096   3097     1   108.0100461 406.684800
   3085   3096   3098     1   108.0100461 406.684800
   3086   3085   3107     1   110.1100470 384.091200
   3086   3089   3090     1   109.8000471 387.438400
   3086   3089   3091     1   109.8000471 387.438400
   3087   3086   3089     1   110.5600475 386.601600
   3087   3086   3088     1   109.7500473 328.025600
   3088   3086   3089     1   110.5600475 386.601600
   3090   3089   3092     1   108.7700466 392.459200
   3090   3089   3091     1   107.5800459 329.699200
   3091   3089   3092     1   108.7700466 392.459200
   3092   3094   3095     1   106.5500460 417.563200
   3096   3085   3107     1   110.1100470 384.091200
   3096   3099   3100     1   109.8000471 387.438400
   3096   3099   3101     1   109.8000471 387.438400
   3097   3096   3099     1   110.5600475 386.601600
   3097   3096   3098     1   109.7500473 328.025600
   3098   3096   3099     1   110.5600475 386.601600
   3100   3099   3102     1   108.7700466 392.459200
   3100   3099   3101     1   107.5800459 329.699200
   3101   3099   3102     1   108.7700466 392.459200
   3102   3104   3105     1   106.5500460 417.563200
   3108   3111   3112     1   109.8000471 387.438400
   3108   3111   3113     1   109.8000471 387.438400
   3109   3108   3111     1   109.5600471 388.275200
   3109   3108   3138     1   109.7800468 425.094400
   3109   3108   3110     1   108.4600466 328.025600
   3110   3108   3111     1   109.5600471 388.275200
   3110   3108   3138     1   109.7800468 425.094400
   3111   3114   3115     1   110.5600475 386.601600
   3111   3114   3116     1   110.5600475 386.601600
   3112   3111   3114     1   109.8000471 387.438400
   3112   3111   3113     1   107.5800459 329.699200
   3113   3111   3114     1   109.8000471 387.438400
   3114   3117   3139     1   110.1100470 384.091200
   3115   3114   3117     1   108.0100461 406.684800
   3115   3114   3116     1   109.7500473 328.025600
   3116   3114   3117     1   108.0100461 406.684800
   3117   3118   3119     1   108.0100461 406.684800
   3117   3118   3120     1   108.0100461 406.684800
   3117   3128   3129     1   108.0100461 406.684800
   3117   3128   3130     1   108.0100461 406.684800
   3118   3121   3122     1   109.8000471 387.438400
   3118   3121   3123     1   109.8000471 387.438400
   3118   3117   3139     1   110.1100470 384.091200
   3119   3118   3121     1   110.5600475 386.601600
   3119   3118   3120     1   109.7500473 328.025600
   3120   3118   3121     1   110.5600475 386.601600
   3122   3121   3124     1   108.7700466 392.459200
   3122   3121   3123     1   107.5800459 329.699200
   3123   3121   3124     1   108.7700466 392.459200
   3124   3126   3127     1   106.5500460 417.563200
   3128   3131   3132     1   109.8000471 387.438400
   3128   3131   3133     1   109.8000471 387.438400
   3128   3117   3139     1   110.1100470 384.091200
   3129   3128   3131     1   110.5600475 386.601600
   3129   3128   3130     1   109.7500473 328.025600
   3130   3128   3131     1   110.5600475 386.601600
   3132   3131   3134     1   108.7700466 392.459200
   3132   3131   3133     1   107.5800459 329.699200
   3133   3131   3134     1   108.7700466 392.459200
   3134   3136   3137     1   106.5500460 417.563200
   3140   3143   3144     1   109.8000471 387.438400
   3140   3143   3145     1   109.8000471 387.438400
   3141   3140   3143     1   109.5600471 388.275200
   3141   3140   3170     1   109.7800468 425.094400
   3141   3140   3142     1   108.4600466 328.025600
   3142   3140   3143     1   109.5600471 388.275200
   3142   3140   3170     1   109.7800468 425.094400
   3143   3146   3147     1   110.5600475 386.601600
   3143   3146   3148     1   110.5600475 386.601600
   3144   3143   3146     1   109.8000471 387.438400
   3144   3143   3145     1   107.5800459 329.699200
   3145   3143   3146     1   109.8000471 387.438400
   3146   3149   3171     1   110.1100470 384.091200
   3147   3146   3149     1   108.0100461 406.684800
   3147   3146   3148     1   109.7500473 328.025600
   3148   3146   3149     1   108.0100461 406.684800
   3149   3150   3151     1   108.0100461 406.684800
   3149   3150   3152     1   108.0100461 406.684800
   3149   3160   3161     1   108.0100461 406.684800
   3149   3160   3162     1   108.0100461 406.684800
   3150   3149   3171     1   110.1100470 384.091200
   3150   3153   3154     1   109.8000471 387.438400
   3150   3153   3155     1   109.8000471 387.438400
   3151   3150   3153     1   110.5600475 386.601600
   3151   3150   3152     1   109.7500473 328.025600
   3152   3150   3153     1   110.5600475 386.601600
   3154   3153   3156     1   108.7700466 392.459200
   3154   3153   3155     1   107.5800459 329.699200
   3155   3153   3156     1   108.7700466 392.459200
   3156   3158   3159     1   106.5500460 417.563200
   3160   3149   3171     1   110.1100470 384.091200
   3160   3163   3164     1   109.8000471 387.438400
   3160   3163   3165     1   109.8000471 387.438400
   3161   3160   3163     1   110.5600475 386.601600
   3161   3160   3162     1   109.7500473 328.025600
   3162   3160   3163     1   110.5600475 386.601600
   3164   3163   3166     1   108.7700466 392.459200
   3164   3163   3165     1   107.5800459 329.699200
   3165   3163   3166     1   108.7700466 392.459200
   3166   3168   3169     1   106.5500460 417.563200
   3172   3175   3176     1   109.8000471 387.438400
   3172   3175   3177     1   109.8000471 387.438400
   3173   3172   3175     1   109.5600471 388.275200
   3173   3172   3202     1   109.7800468 425.094400
   3173   3172   3174     1   108.4600466 328.025600
   3174   3172   3175     1   109.5600471 388.275200
   3174   3172   3202     1   109.7800468 425.094400
   3175   3178   3179     1   110.5600475 386.601600
   3175   3178   3180     1   110.5600475 386.601600
   3176   3175   3178     1   109.8000471 387.438400
   3176   3175   3177     1   107.5800459 329.699200
   3177   3175   3178     1   109.8000471 387.438400
   3178   3181   3203     1   110.1100470 384.091200
   3179   3178   3181     1   108.0100461 406.684800
   3179   3178   3180     1   109.7500473 328.025600
   3180   3178   3181     1   108.0100461 406.684800
   3181   3182   3183     1   108.0100461 406.684800
   3181   3182   3184     1   108.0100461 406.684800
   3181   3192   3193     1   108.0100461 406.684800
   3181   3192   3194     1   108.0100461 406.684800
   3182   3185   3186     1   109.8000471 387.438400
   3182   3185   3187     1   109.8000471 387.438400
   3182   3181   3203     1   110.1100470 384.091200
   3183   3182   3185     1   110.5600475 386.601600
   3183   3182   3184     1   109.7500473 328.025600
   3184   3182   3185     1   110.5600475 386.601600
   3186   3185   3188     1   108.7700466 392.459200
   3186   3185   3187     1   107.5800459 329.699200
   3187   3185   3188     1   108.7700466 392.459200
   3188   3190   3191     1   106.5500460 417.563200
   3192   3195   3196     1   109.8000471 387.438400
   3192   3195   3197     1   109.8000471 387.438400
   3192   3181   3203     1   110.1100470 384.091200
   3193   3192   3195     1   110.5600475 386.601600
   3193   3192   3194     1   109.7500473 328.025600
   3194   3192   3195     1   110.5600475 386.601600
   3196   3195   3198     1   108.7700466 392.459200
   3196   3195   3197     1   107.5800459 329.699200
   3197   3195   3198     1   108.7700466 392.459200
   3198   3200   3201     1   106.5500460 417.563200
   3204   3207   3208     1   109.8000471 387.438400
   3204   3207   3209     1   109.8000471 387.438400
   3205   3204   3207     1   109.5600471 388.275200
   3205   3204   3234     1   109.7800468 425.094400
   3205   3204   3206     1   108.4600466 328.025600
   3206   3204   3207     1   109.5600471 388.275200
   3206   3204   3234     1   109.7800468 425.094400
   3207   3210   3211     1   110.5600475 386.601600
   3207   3210   3212     1   110.5600475 386.601600
   3208   3207   3210     1   109.8000471 387.438400
   3208   3207   3209     1   107.5800459 329.699200
   3209   3207   3210     1   109.8000471 387.438400
   3210   3213   3235     1   110.1100470 384.091200
   3211   3210   3213     1   108.0100461 406.684800
   3211   3210   3212     1   109.7500473 328.025600
   3212   3210   3213     1   108.0100461 406.684800
   3213   3214   3215     1   108.0100461 406.684800
   3213   3214   3216     1   108.0100461 406.684800
   3213   3224   3225     1   108.0100461 406.684800
   3213   3224   3226     1   108.0100461 406.684800
   3214   3213   3235     1   110.1100470 384.091200
   3214   3217   3218     1   109.8000471 387.438400
   3214   3217   3219     1   109.8000471 387.438400
   3215   3214   3217     1   110.5600475 386.601600
   3215   3214   3216     1   109.7500473 328.025600
   3216   3214   3217     1   110.5600475 386.601600
   3218   3217   3220     1   108.7700466 392.459200
   3218   3217   3219     1   107.5800459 329.699200
   3219   3217   3220     1   108.7700466 392.459200
   3220   3222   3223     1   106.5500460 417.563200
   3224   3213   3235     1   110.1100470 384.091200
   3224   3227   3228     1   109.8000471 387.438400
   3224   3227   3229     1   109.8000471 387.438400
   3225   3224   3227     1   110.5600475 386.601600
   3225   3224   3226     1   109.7500473 328.025600
   3226   3224   3227     1   110.5600475 386.601600
   3228   3227   3230     1   108.7700466 392.459200
   3228   3227   3229     1   107.5800459 329.699200
   3229   3227   3230     1   108.7700466 392.459200
   3230   3232   3233     1   106.5500460 417.563200
   3236   3239   3240     1   109.8000471 387.438400
   3236   3239   3241     1   109.8000471 387.438400
   3237   3236   3239     1   109.5600471 388.275200
   3237   3236   3266     1   109.7800468 425.094400
   3237   3236   3238     1   108.4600466 328.025600
   3238   3236   3239     1   109.5600471 388.275200
   3238   3236   3266     1   109.7800468 425.094400
   3239   3242   3243     1   110.5600475 386.601600
   3239   3242   3244     1   110.5600475 386.601600
   3240   3239   3242     1   109.8000471 387.438400
   3240   3239   3241     1   107.5800459 329.699200
   3241   3239   3242     1   109.8000471 387.438400
   3242   3245   3267     1   110.1100470 384.091200
   3243   3242   3245     1   108.0100461 406.684800
   3243   3242   3244     1   109.7500473 328.025600
   3244   3242   3245     1   108.0100461 406.684800
   3245   3246   3247     1   108.0100461 406.684800
   3245   3246   3248     1   108.0100461 406.684800
   3245   3256   3257     1   108.0100461 406.684800
   3245   3256   3258     1   108.0100461 406.684800
   3246   3249   3250     1   109.8000471 387.438400
   3246   3249   3251     1   109.8000471 387.438400
   3246   3245   3267     1   110.1100470 384.091200
   3247   3246   3249     1   110.5600475 386.601600
   3247   3246   3248     1   109.7500473 328.025600
   3248   3246   3249     1   110.5600475 386.601600
   3250   3249   3252     1   108.7700466 392.459200
   3250   3249   3251     1   107.5800459 329.699200
   3251   3249   3252     1   108.7700466 392.459200
   3252   3254   3255     1   106.5500460 417.563200
   3256   3259   3260     1   109.8000471 387.438400
   3256   3259   3261     1   109.8000471 387.438400
   3256   3245   3267     1   110.1100470 384.091200
   3257   3256   3259     1   110.5600475 386.601600
   3257   3256   3258     1   109.7500473 328.025600
   3258   3256   3259     1   110.5600475 386.601600
   3260   3259   3262     1   108.7700466 392.459200
   3260   3259   3261     1   107.5800459 329.699200
   3261   3259   3262     1   108.7700466 392.459200
   3262   3264   3265     1   106.5500460 417.563200
   3268   3271   3272     1   109.8000471 387.438400
   3268   3271   3273     1   109.8000471 387.438400
   3269   3268   3271     1   109.5600471 388.275200
   3269   3268   3298     1   109.7800468 425.094400
   3269   3268   3270     1   108.4600466 328.025600
   3270   3268   3271     1   109.5600471 388.275200
   3270   3268   3298     1   109.7800468 425.094400
   3271   3274   3275     1   110.5600475 386.601600
   3271   3274   3276     1   110.5600475 386.601600
   3272   3271   3274     1   109.8000471 387.438400
   3272   3271   3273     1   107.5800459 329.699200
   3273   3271   3274     1   109.8000471 387.438400
   3274   3277   3299     1   110.1100470 384.091200
   3275   3274   3277     1   108.0100461 406.684800
   3275   3274   3276     1   109.7500473 328.025600
   3276   3274   3277     1   108.0100461 406.684800
   3277   3278   3279     1   108.0100461 406.684800
   3277   3278   3280     1   108.0100461 406.684800
   3277   3288   3289     1   108.0100461 406.684800
   3277   3288   3290     1   108.0100461 406.684800
   3278   3277   3299     1   110.1100470 384.091200
   3278   3281   3282     1   109.8000471 387.438400
   3278   3281   3283     1   109.8000471 387.438400
   3279   3278   3281     1   110.5600475 386.601600
   3279   3278   3280     1   109.7500473 328.025600
   3280   3278   3281     1   110.5600475 386.601600
   3282   3281   3284     1   108.7700466 392.459200
   3282   3281   3283     1   107.5800459 329.699200
   3283   3281   3284     1   108.7700466 392.459200
   3284   3286   3287     1   106.5500460 417.563200
   3288   3277   3299     1   110.1100470 384.091200
   3288   3291   3292     1   109.8000471 387.438400
   3288   3291   3293     1   109.8000471 387.438400
   3289   3288   3291     1   110.5600475 386.601600
   3289   3288   3290     1   109.7500473 328.025600
   3290   3288   3291     1   110.5600475 386.601600
   3292   3291   3294     1   108.7700466 392.459200
   3292   3291   3293     1   107.5800459 329.699200
   3293   3291   3294     1   108.7700466 392.459200
   3294   3296   3297     1   106.5500460 417.563200
   3300   3303   3304     1   109.8000471 387.438400
   3300   3303   3305     1   109.8000471 387.438400
   3301   3300   3303     1   109.5600471 388.275200
   3301   3300   3330     1   109.7800468 425.094400
   3301   3300   3302     1   108.4600466 328.025600
   3302   3300   3303     1   109.5600471 388.275200
   3302   3300   3330     1   109.7800468 425.094400
   3303   3306   3307     1   110.5600475 386.601600
   3303   3306   3308     1   110.5600475 386.601600
   3304   3303   3306     1   109.8000471 387.438400
   3304   3303   3305     1   107.5800459 329.699200
   3305   3303   3306     1   109.8000471 387.438400
   3306   3309   3331     1   110.1100470 384.091200
   3307   3306   3309     1   108.0100461 406.684800
   3307   3306   3308     1   109.7500473 328.025600
   3308   3306   3309     1   108.0100461 406.684800
   3309   3310   3311     1   108.0100461 406.684800
   3309   3310   3312     1   108.0100461 406.684800
   3309   3320   3321     1   108.0100461 406.684800
   3309   3320   3322     1   108.0100461 406.684800
   3310   3313   3314     1   109.8000471 387.438400
   3310   3313   3315     1   109.8000471 387.438400
   3310   3309   3331     1   110.1100470 384.091200
   3311   3310   3313     1   110.5600475 386.601600
   3311   3310   3312     1   109.7500473 328.025600
   3312   3310   3313     1   110.5600475 386.601600
   3314   3313   3316     1   108.7700466 392.459200
   3314   3313   3315     1   107.5800459 329.699200
   3315   3313   3316     1   108.7700466 392.459200
   3316   3318   3319     1   106.5500460 417.563200
   3320   3323   3324     1   109.8000471 387.438400
   3320   3323   3325     1   109.8000471 387.438400
   3320   3309   3331     1   110.1100470 384.091200
   3321   3320   3323     1   110.5600475 386.601600
   3321   3320   3322     1   109.7500473 328.025600
   3322   3320   3323     1   110.5600475 386.601600
   3324   3323   3326     1   108.7700466 392.459200
   3324   3323   3325     1   107.5800459 329.699200
   3325   3323   3326     1   108.7700466 392.459200
   3326   3328   3329     1   106.5500460 417.563200
   3332   3335   3336     1   109.8000471 387.438400
   3332   3335   3337     1   109.8000471 387.438400
   3333   3332   3335     1   109.5600471 388.275200
   3333   3332   3362     1   109.7800468 425.094400
   3333   3332   3334     1   108.4600466 328.025600
   3334   3332   3335     1   109.5600471 388.275200
   3334   3332   3362     1   109.7800468 425.094400
   3335   3338   3339     1   110.5600475 386.601600
   3335   3338   3340     1   110.5600475 386.601600
   3336   3335   3338     1   109.8000471 387.438400
   3336   3335   3337     1   107.5800459 329.699200
   3337   3335   3338     1   109.8000471 387.438400
   3338   3341   3363     1   110.1100470 384.091200
   3339   3338   3341     1   108.0100461 406.684800
   3339   3338   3340     1   109.7500473 328.025600
   3340   3338   3341     1   108.0100461 406.684800
   3341   3342   3343     1   108.0100461 406.684800
   3341   3342   3344     1   108.0100461 406.684800
   3341   3352   3353     1   108.0100461 406.684800
   3341   3352   3354     1   108.0100461 406.684800
   3342   3341   3363     1   110.1100470 384.091200
   3342   3345   3346     1   109.8000471 387.438400
   3342   3345   3347     1   109.8000471 387.438400
   3343   3342   3345     1   110.5600475 386.601600
   3343   3342   3344     1   109.7500473 328.025600
   3344   3342   3345     1   110.5600475 386.601600
   3346   3345   3348     1   108.7700466 392.459200
   3346   3345   3347     1   107.5800459 329.699200
   3347   3345   3348     1   108.7700466 392.459200
   3348   3350   3351     1   106.5500460 417.563200
   3352   3341   3363     1   110.1100470 384.091200
   3352   3355   3356     1   109.8000471 387.438400
   3352   3355   3357     1   109.8000471 387.438400
   3353   3352   3355     1   110.5600475 386.601600
   3353   3352   3354     1   109.7500473 328.025600
   3354   3352   3355     1   110.5600475 386.601600
   3356   3355   3358     1   108.7700466 392.459200
   3356   3355   3357     1   107.5800459 329.699200
   3357   3355   3358     1   108.7700466 392.459200
   3358   3360   3361     1   106.5500460 417.563200
   3364   3367   3368     1   109.8000471 387.438400
   3364   3367   3369     1   109.8000471 387.438400
   3365   3364   3367     1   109.5600471 388.275200
   3365   3364   3394     1   109.7800468 425.094400
   3365   3364   3366     1   108.4600466 328.025600
   3366   3364   3367     1   109.5600471 388.275200
   3366   3364   3394     1   109.7800468 425.094400
   3367   3370   3371     1   110.5600475 386.601600
   3367   3370   3372     1   110.5600475 386.601600
   3368   3367   3370     1   109.8000471 387.438400
   3368   3367   3369     1   107.5800459 329.699200
   3369   3367   3370     1   109.8000471 387.438400
   3370   3373   3395     1   110.1100470 384.091200
   3371   3370   3373     1   108.0100461 406.684800
   3371   3370   3372     1   109.7500473 328.025600
   3372   3370   3373     1   108.0100461 406.684800
   3373   3374   3375     1   108.0100461 406.684800
   3373   3374   3376     1   108.0100461 406.684800
   3373   3384   3385     1   108.0100461 406.684800
   3373   3384   3386     1   108.0100461 406.684800
   3374   3377   3378     1   109.8000471 387.438400
   3374   3377   3379     1   109.8000471 387.438400
   3374   3373   3395     1   110.1100470 384.091200
   3375   3374   3377     1   110.5600475 386.601600
   3375   3374   3376     1   109.7500473 328.025600
   3376   3374   3377     1   110.5600475 386.601600
   3378   3377   3380     1   108.7700466 392.459200
   3378   3377   3379     1   107.5800459 329.699200
   3379   3377   3380     1   108.7700466 392.459200
   3380   3382   3383     1   106.5500460 417.563200
   3384   3387   3388     1   109.8000471 387.438400
   3384   3387   3389     1   109.8000471 387.438400
   3384   3373   3395     1   110.1100470 384.091200
   3385   3384   3387     1   110.5600475 386.601600
   3385   3384   3386     1   109.7500473 328.025600
   3386   3384   3387     1   110.5600475 386.601600
   3388   3387   3390     1   108.7700466 392.459200
   3388   3387   3389     1   107.5800459 329.699200
   3389   3387   3390     1   108.7700466 392.459200
   3390   3392   3393     1   106.5500460 417.563200
   3396   3399   3400     1   109.8000471 387.438400
   3396   3399   3401     1   109.8000471 387.438400
   3397   3396   3399     1   109.5600471 388.275200
   3397   3396   3426     1   109.7800468 425.094400
   3397   3396   3398     1   108.4600466 328.025600
   3398   3396   3399     1   109.5600471 388.275200
   3398   3396   3426     1   109.7800468 425.094400
   3399   3402   3403     1   110.5600475 386.601600
   3399   3402   3404     1   110.5600475 386.601600
   3400   3399   3402     1   109.8000471 387.438400
   3400   3399   3401     1   107.5800459 329.699200
   3401   3399   3402     1   109.8000471 387.438400
   3402   3405   3427     1   110.1100470 384.091200
   3403   3402   3405     1   108.0100461 406.684800
   3403   3402   3404     1   109.7500473 328.025600
   3404   3402   3405     1   108.0100461 406.684800
   3405   3406   3407     1   108.0100461 406.684800
   3405   3406   3408     1   108.0100461 406.684800
   3405   3416   3417     1   108.0100461 406.684800
   3405   3416   3418     1   108.0100461 406.684800
   3406   3405   3427     1   110.1100470 384.091200
   3406   3409   3410     1   109.8000471 387.438400
   3406   3409   3411     1   109.8000471 387.438400
   3407   3406   3409     1   110.5600475 386.601600
   3407   3406   3408     1   109.7500473 328.025600
   3408   3406   3409     1   110.5600475 386.601600
   3410   3409   3412     1   108.7700466 392.459200
   3410   3409   3411     1   107.5800459 329.699200
   3411   3409   3412     1   108.7700466 392.459200
   3412   3414   3415     1   106.5500460 417.563200
   3416   3405   3427     1   110.1100470 384.091200
   3416   3419   3420     1   109.8000471 387.438400
   3416   3419   3421     1   109.8000471 387.438400
   3417   3416   3419     1   110.5600475 386.601600
   3417   3416   3418     1   109.7500473 328.025600
   3418   3416   3419     1   110.5600475 386.601600
   3420   3419   3422     1   108.7700466 392.459200
   3420   3419   3421     1   107.5800459 329.699200
   3421   3419   3422     1   108.7700466 392.459200
   3422   3424   3425     1   106.5500460 417.563200
   3428   3431   3432     1   109.8000471 387.438400
   3428   3431   3433     1   109.8000471 387.438400
   3429   3428   3431     1   109.5600471 388.275200
   3429   3428   3458     1   109.7800468 425.094400
   3429   3428   3430     1   108.4600466 328.025600
   3430   3428   3431     1   109.5600471 388.275200
   3430   3428   3458     1   109.7800468 425.094400
   3431   3434   3435     1   110.5600475 386.601600
   3431   3434   3436     1   110.5600475 386.601600
   3432   3431   3434     1   109.8000471 387.438400
   3432   3431   3433     1   107.5800459 329.699200
   3433   3431   3434     1   109.8000471 387.438400
   3434   3437   3459     1   110.1100470 384.091200
   3435   3434   3437     1   108.0100461 406.684800
   3435   3434   3436     1   109.7500473 328.025600
   3436   3434   3437     1   108.0100461 406.684800
   3437   3438   3439     1   108.0100461 406.684800
   3437   3438   3440     1   108.0100461 406.684800
   3437   3448   3449     1   108.0100461 406.684800
   3437   3448   3450     1   108.0100461 406.684800
   3438   3441   3442     1   109.8000471 387.438400
   3438   3441   3443     1   109.8000471 387.438400
   3438   3437   3459     1   110.1100470 384.091200
   3439   3438   3441     1   110.5600475 386.601600
   3439   3438   3440     1   109.7500473 328.025600
   3440   3438   3441     1   110.5600475 386.601600
   3442   3441   3444     1   108.7700466 392.459200
   3442   3441   3443     1   107.5800459 329.699200
   3443   3441   3444     1   108.7700466 392.459200
   3444   3446   3447     1   106.5500460 417.563200
   3448   3451   3452     1   109.8000471 387.438400
   3448   3451   3453     1   109.8000471 387.438400
   3448   3437   3459     1   110.1100470 384.091200
   3449   3448   3451     1   110.5600475 386.601600
   3449   3448   3450     1   109.7500473 328.025600
   3450   3448   3451     1   110.5600475 386.601600
   3452   3451   3454     1   108.7700466 392.459200
   3452   3451   3453     1   107.5800459 329.699200
   3453   3451   3454     1   108.7700466 392.459200
   3454   3456   3457     1   106.5500460 417.563200
   3460   3463   3464     1   109.8000471 387.438400
   3460   3463   3465     1   109.8000471 387.438400
   3461   3460   3463     1   109.5600471 388.275200
   3461   3460   3490     1   109.7800468 425.094400
   3461   3460   3462     1   108.4600466 328.025600
   3462   3460   3463     1   109.5600471 388.275200
   3462   3460   3490     1   109.7800468 425.094400
   3463   3466   3467     1   110.5600475 386.601600
   3463   3466   3468     1   110.5600475 386.601600
   3464   3463   3466     1   109.8000471 387.438400
   3464   3463   3465     1   107.5800459 329.699200
   3465   3463   3466     1   109.8000471 387.438400
   3466   3469   3491     1   110.1100470 384.091200
   3467   3466   3469     1   108.0100461 406.684800
   3467   3466   3468     1   109.7500473 328.025600
   3468   3466   3469     1   108.0100461 406.684800
   3469   3470   3471     1   108.0100461 406.684800
   3469   3470   3472     1   108.0100461 406.684800
   3469   3480   3481     1   108.0100461 406.684800
   3469   3480   3482     1   108.0100461 406.684800
   3470   3469   3491     1   110.1100470 384.091200
   3470   3473   3474     1   109.8000471 387.438400
   3470   3473   3475     1   109.8000471 387.438400
   3471   3470   3473     1   110.5600475 386.601600
   3471   3470   3472     1   109.7500473 328.025600
   3472   3470   3473     1   110.5600475 386.601600
   3474   3473   3476     1   108.7700466 392.459200
   3474   3473   3475     1   107.5800459 329.699200
   3475   3473   3476     1   108.7700466 392.459200
   3476   3478   3479     1   106.5500460 417.563200
   3480   3469   3491     1   110.1100470 384.091200
   3480   3483   3484     1   109.8000471 387.438400
   3480   3483   3485     1   109.8000471 387.438400
   3481   3480   3483     1   110.5600475 386.601600
   3481   3480   3482     1   109.7500473 328.025600
   3482   3480   3483     1   110.5600475 386.601600
   3484   3483   3486     1   108.7700466 392.459200
   3484   3483   3485     1   107.5800459 329.699200
   3485   3483   3486     1   108.7700466 392.459200
   3486   3488   3489     1   106.5500460 417.563200
   3492   3495   3496     1   109.8000471 387.438400
   3492   3495   3497     1   109.8000471 387.438400
   3493   3492   3495     1   109.5600471 388.275200
   3493   3492   3522     1   109.7800468 425.094400
   3493   3492   3494     1   108.4600466 328.025600
   3494   3492   3495     1   109.5600471 388.275200
   3494   3492   3522     1   109.7800468 425.094400
   3495   3498   3499     1   110.5600475 386.601600
   3495   3498   3500     1   110.5600475 386.601600
   3496   3495   3498     1   109.8000471 387.438400
   3496   3495   3497     1   107.5800459 329.699200
   3497   3495   3498     1   109.8000471 387.438400
   3498   3501   3523     1   110.1100470 384.091200
   3499   3498   3501     1   108.0100461 406.684800
   3499   3498   3500     1   109.7500473 328.025600
   3500   3498   3501     1   108.0100461 406.684800
   3501   3502   3503     1   108.0100461 406.684800
   3501   3502   3504     1   108.0100461 406.684800
   3501   3512   3513     1   108.0100461 406.684800
   3501   3512   3514     1   108.0100461 406.684800
   3502   3505   3506     1   109.8000471 387.438400
   3502   3505   3507     1   109.8000471 387.438400
   3502   3501   3523     1   110.1100470 384.091200
   3503   3502   3505     1   110.5600475 386.601600
   3503   3502   3504     1   109.7500473 328.025600
   3504   3502   3505     1   110.5600475 386.601600
   3506   3505   3508     1   108.7700466 392.459200
   3506   3505   3507     1   107.5800459 329.699200
   3507   3505   3508     1   108.7700466 392.459200
   3508   3510   3511     1   106.5500460 417.563200
   3512   3515   3516     1   109.8000471 387.438400
   3512   3515   3517     1   109.8000471 387.438400
   3512   3501   3523     1   110.1100470 384.091200
   3513   3512   3515     1   110.5600475 386.601600
   3513   3512   3514     1   109.7500473 328.025600
   3514   3512   3515     1   110.5600475 386.601600
   3516   3515   3518     1   108.7700466 392.459200
   3516   3515   3517     1   107.5800459 329.699200
   3517   3515   3518     1   108.7700466 392.459200
   3518   3520   3521     1   106.5500460 417.563200
   3524   3527   3528     1   109.8000471 387.438400
   3524   3527   3529     1   109.8000471 387.438400
   3525   3524   3527     1   109.5600471 388.275200
   3525   3524   3554     1   109.7800468 425.094400
   3525   3524   3526     1   108.4600466 328.025600
   3526   3524   3527     1   109.5600471 388.275200
   3526   3524   3554     1   109.7800468 425.094400
   3527   3530   3531     1   110.5600475 386.601600
   3527   3530   3532     1   110.5600475 386.601600
   3528   3527   3530     1   109.8000471 387.438400
   3528   3527   3529     1   107.5800459 329.699200
   3529   3527   3530     1   109.8000471 387.438400
   3530   3533   3555     1   110.1100470 384.091200
   3531   3530   3533     1   108.0100461 406.684800
   3531   3530   3532     1   109.7500473 328.025600
   3532   3530   3533     1   108.0100461 406.684800
   3533   3534   3535     1   108.0100461 406.684800
   3533   3534   3536     1   108.0100461 406.684800
   3533   3544   3545     1   108.0100461 406.684800
   3533   3544   3546     1   108.0100461 406.684800
   3534   3533   3555     1   110.1100470 384.091200
   3534   3537   3538     1   109.8000471 387.438400
   3534   3537   3539     1   109.8000471 387.438400
   3535   3534   3537     1   110.5600475 386.601600
   3535   3534   3536     1   109.7500473 328.025600
   3536   3534   3537     1   110.5600475 386.601600
   3538   3537   3540     1   108.7700466 392.459200
   3538   3537   3539     1   107.5800459 329.699200
   3539   3537   3540     1   108.7700466 392.459200
   3540   3542   3543     1   106.5500460 417.563200
   3544   3533   3555     1   110.1100470 384.091200
   3544   3547   3548     1   109.8000471 387.438400
   3544   3547   3549     1   109.8000471 387.438400
   3545   3544   3547     1   110.5600475 386.601600
   3545   3544   3546     1   109.7500473 328.025600
   3546   3544   3547     1   110.5600475 386.601600
   3548   3547   3550     1   108.7700466 392.459200
   3548   3547   3549     1   107.5800459 329.699200
   3549   3547   3550     1   108.7700466 392.459200
   3550   3552   3553     1   106.5500460 417.563200
   3556   3559   3560     1   109.8000471 387.438400
   3556   3559   3561     1   109.8000471 387.438400
   3557   3556   3559     1   109.5600471 388.275200
   3557   3556   3586     1   109.7800468 425.094400
   3557   3556   3558     1   108.4600466 328.025600
   3558   3556   3559     1   109.5600471 388.275200
   3558   3556   3586     1   109.7800468 425.094400
   3559   3562   3563     1   110.5600475 386.601600
   3559   3562   3564     1   110.5600475 386.601600
   3560   3559   3562     1   109.8000471 387.438400
   3560   3559   3561     1   107.5800459 329.699200
   3561   3559   3562     1   109.8000471 387.438400
   3562   3565   3587     1   110.1100470 384.091200
   3563   3562   3565     1   108.0100461 406.684800
   3563   3562   3564     1   109.7500473 328.025600
   3564   3562   3565     1   108.0100461 406.684800
   3565   3566   3567     1   108.0100461 406.684800
   3565   3566   3568     1   108.0100461 406.684800
   3565   3576   3577     1   108.0100461 406.684800
   3565   3576   3578     1   108.0100461 406.684800
   3566   3569   3570     1   109.8000471 387.438400
   3566   3569   3571     1   109.8000471 387.438400
   3566   3565   3587     1   110.1100470 384.091200
   3567   3566   3569     1   110.5600475 386.601600
   3567   3566   3568     1   109.7500473 328.025600
   3568   3566   3569     1   110.5600475 386.601600
   3570   3569   3572     1   108.7700466 392.459200
   3570   3569   3571     1   107.5800459 329.699200
   3571   3569   3572     1   108.7700466 392.459200
   3572   3574   3575     1   106.5500460 417.563200
   3576   3579   3580     1   109.8000471 387.438400
   3576   3579   3581     1   109.8000471 387.438400
   3576   3565   3587     1   110.1100470 384.091200
   3577   3576   3579     1   110.5600475 386.601600
   3577   3576   3578     1   109.7500473 328.025600
   3578   3576   3579     1   110.5600475 386.601600
   3580   3579   3582     1   108.7700466 392.459200
   3580   3579   3581     1   107.5800459 329.699200
   3581   3579   3582     1   108.7700466 392.459200
   3582   3584   3585     1   106.5500460 417.563200
   3588   3591   3592     1   109.8000471 387.438400
   3588   3591   3593     1   109.8000471 387.438400
   3589   3588   3591     1   109.5600471 388.275200
   3589   3588   3618     1   109.7800468 425.094400
   3589   3588   3590     1   108.4600466 328.025600
   3590   3588   3591     1   109.5600471 388.275200
   3590   3588   3618     1   109.7800468 425.094400
   3591   3594   3595     1   110.5600475 386.601600
   3591   3594   3596     1   110.5600475 386.601600
   3592   3591   3594     1   109.8000471 387.438400
   3592   3591   3593     1   107.5800459 329.699200
   3593   3591   3594     1   109.8000471 387.438400
   3594   3597   3619     1   110.1100470 384.091200
   3595   3594   3597     1   108.0100461 406.684800
   3595   3594   3596     1   109.7500473 328.025600
   3596   3594   3597     1   108.0100461 406.684800
   3597   3598   3599     1   108.0100461 406.684800
   3597   3598   3600     1   108.0100461 406.684800
   3597   3608   3609     1   108.0100461 406.684800
   3597   3608   3610     1   108.0100461 406.684800
   3598   3597   3619     1   110.1100470 384.091200
   3598   3601   3602     1   109.8000471 387.438400
   3598   3601   3603     1   109.8000471 387.438400
   3599   3598   3601     1   110.5600475 386.601600
   3599   3598   3600     1   109.7500473 328.025600
   3600   3598   3601     1   110.5600475 386.601600
   3602   3601   3604     1   108.7700466 392.459200
   3602   3601   3603     1   107.5800459 329.699200
   3603   3601   3604     1   108.7700466 392.459200
   3604   3606   3607     1   106.5500460 417.563200
   3608   3597   3619     1   110.1100470 384.091200
   3608   3611   3612     1   109.8000471 387.438400
   3608   3611   3613     1   109.8000471 387.438400
   3609   3608   3611     1   110.5600475 386.601600
   3609   3608   3610     1   109.7500473 328.025600
   3610   3608   3611     1   110.5600475 386.601600
   3612   3611   3614     1   108.7700466 392.459200
   3612   3611   3613     1   107.5800459 329.699200
   3613   3611   3614     1   108.7700466 392.459200
   3614   3616   3617     1   106.5500460 417.563200
   3620   3623   3624     1   109.8000471 387.438400
   3620   3623   3625     1   109.8000471 387.438400
   3621   3620   3623     1   109.5600471 388.275200
   3621   3620   3650     1   109.7800468 425.094400
   3621   3620   3622     1   108.4600466 328.025600
   3622   3620   3623     1   109.5600471 388.275200
   3622   3620   3650     1   109.7800468 425.094400
   3623   3626   3627     1   110.5600475 386.601600
   3623   3626   3628     1   110.5600475 386.601600
   3624   3623   3626     1   109.8000471 387.438400
   3624   3623   3625     1   107.5800459 329.699200
   3625   3623   3626     1   109.8000471 387.438400
   3626   3629   3651     1   110.1100470 384.091200
   3627   3626   3629     1   108.0100461 406.684800
   3627   3626   3628     1   109.7500473 328.025600
   3628   3626   3629     1   108.0100461 406.684800
   3629   3630   3631     1   108.0100461 406.684800
   3629   3630   3632     1   108.0100461 406.684800
   3629   3640   3641     1   108.0100461 406.684800
   3629   3640   3642     1   108.0100461 406.684800
   3630   3633   3634     1   109.8000471 387.438400
   3630   3633   3635     1   109.8000471 387.438400
   3630   3629   3651     1   110.1100470 384.091200
   3631   3630   3633     1   110.5600475 386.601600
   3631   3630   3632     1   109.7500473 328.025600
   3632   3630   3633     1   110.5600475 386.601600
   3634   3633   3636     1   108.7700466 392.459200
   3634   3633   3635     1   107.5800459 329.699200
   3635   3633   3636     1   108.7700466 392.459200
   3636   3638   3639     1   106.5500460 417.563200
   3640   3643   3644     1   109.8000471 387.438400
   3640   3643   3645     1   109.8000471 387.438400
   3640   3629   3651     1   110.1100470 384.091200
   3641   3640   3643     1   110.5600475 386.601600
   3641   3640   3642     1   109.7500473 328.025600
   3642   3640   3643     1   110.5600475 386.601600
   3644   3643   3646     1   108.7700466 392.459200
   3644   3643   3645     1   107.5800459 329.699200
   3645   3643   3646     1   108.7700466 392.459200
   3646   3648   3649     1   106.5500460 417.563200
   3652   3655   3656     1   109.8000471 387.438400
   3652   3655   3657     1   109.8000471 387.438400
   3653   3652   3655     1   109.5600471 388.275200
   3653   3652   3682     1   109.7800468 425.094400
   3653   3652   3654     1   108.4600466 328.025600
   3654   3652   3655     1   109.5600471 388.275200
   3654   3652   3682     1   109.7800468 425.094400
   3655   3658   3659     1   110.5600475 386.601600
   3655   3658   3660     1   110.5600475 386.601600
   3656   3655   3658     1   109.8000471 387.438400
   3656   3655   3657     1   107.5800459 329.699200
   3657   3655   3658     1   109.8000471 387.438400
   3658   3661   3683     1   110.1100470 384.091200
   3659   3658   3661     1   108.0100461 406.684800
   3659   3658   3660     1   109.7500473 328.025600
   3660   3658   3661     1   108.0100461 406.684800
   3661   3662   3663     1   108.0100461 406.684800
   3661   3662   3664     1   108.0100461 406.684800
   3661   3672   3673     1   108.0100461 406.684800
   3661   3672   3674     1   108.0100461 406.684800
   3662   3661   3683     1   110.1100470 384.091200
   3662   3665   3666     1   109.8000471 387.438400
   3662   3665   3667     1   109.8000471 387.438400
   3663   3662   3665     1   110.5600475 386.601600
   3663   3662   3664     1   109.7500473 328.025600
   3664   3662   3665     1   110.5600475 386.601600
   3666   3665   3668     1   108.7700466 392.459200
   3666   3665   3667     1   107.5800459 329.699200
   3667   3665   3668     1   108.7700466 392.459200
   3668   3670   3671     1   106.5500460 417.563200
   3672   3661   3683     1   110.1100470 384.091200
   3672   3675   3676     1   109.8000471 387.438400
   3672   3675   3677     1   109.8000471 387.438400
   3673   3672   3675     1   110.5600475 386.601600
   3673   3672   3674     1   109.7500473 328.025600
   3674   3672   3675     1   110.5600475 386.601600
   3676   3675   3678     1   108.7700466 392.459200
   3676   3675   3677     1   107.5800459 329.699200
   3677   3675   3678     1   108.7700466 392.459200
   3678   3680   3681     1   106.5500460 417.563200
   3684   3687   3688     1   109.8000471 387.438400
   3684   3687   3689     1   109.8000471 387.438400
   3685   3684   3687     1   109.5600471 388.275200
   3685   3684   3714     1   109.7800468 425.094400
   3685   3684   3686     1   108.4600466 328.025600
   3686   3684   3687     1   109.5600471 388.275200
   3686   3684   3714     1   109.7800468 425.094400
   3687   3690   3691     1   110.5600475 386.601600
   3687   3690   3692     1   110.5600475 386.601600
   3688   3687   3690     1   109.8000471 387.438400
   3688   3687   3689     1   107.5800459 329.699200
   3689   3687   3690     1   109.8000471 387.438400
   3690   3693   3715     1   110.1100470 384.091200
   3691   3690   3693     1   108.0100461 406.684800
   3691   3690   3692     1   109.7500473 328.025600
   3692   3690   3693     1   108.0100461 406.684800
   3693   3694   3695     1   108.0100461 406.684800
   3693   3694   3696     1   108.0100461 406.684800
   3693   3704   3705     1   108.0100461 406.684800
   3693   3704   3706     1   108.0100461 406.684800
   3694   3697   3698     1   109.8000471 387.438400
   3694   3697   3699     1   109.8000471 387.438400
   3694   3693   3715     1   110.1100470 384.091200
   3695   3694   3697     1   110.5600475 386.601600
   3695   3694   3696     1   109.7500473 328.025600
   3696   3694   3697     1   110.5600475 386.601600
   3698   3697   3700     1   108.7700466 392.459200
   3698   3697   3699     1   107.5800459 329.699200
   3699   3697   3700     1   108.7700466 392.459200
   3700   3702   3703     1   106.5500460 417.563200
   3704   3707   3708     1   109.8000471 387.438400
   3704   3707   3709     1   109.8000471 387.438400
   3704   3693   3715     1   110.1100470 384.091200
   3705   3704   3707     1   110.5600475 386.601600
   3705   3704   3706     1   109.7500473 328.025600
   3706   3704   3707     1   110.5600475 386.601600
   3708   3707   3710     1   108.7700466 392.459200
   3708   3707   3709     1   107.5800459 329.699200
   3709   3707   3710     1   108.7700466 392.459200
   3710   3712   3713     1   106.5500460 417.563200
   3716   3719   3720     1   109.8000471 387.438400
   3716   3719   3721     1   109.8000471 387.438400
   3717   3716   3719     1   109.5600471 388.275200
   3717   3716   3746     1   109.7800468 425.094400
   3717   3716   3718     1   108.4600466 328.025600
   3718   3716   3719     1   109.5600471 388.275200
   3718   3716   3746     1   109.7800468 425.094400
   3719   3722   3723     1   110.5600475 386.601600
   3719   3722   3724     1   110.5600475 386.601600
   3720   3719   3722     1   109.8000471 387.438400
   3720   3719   3721     1   107.5800459 329.699200
   3721   3719   3722     1   109.8000471 387.438400
   3722   3725   3747     1   110.1100470 384.091200
   3723   3722   3725     1   108.0100461 406.684800
   3723   3722   3724     1   109.7500473 328.025600
   3724   3722   3725     1   108.0100461 406.684800
   3725   3726   3727     1   108.0100461 406.684800
   3725   3726   3728     1   108.0100461 406.684800
   3725   3736   3737     1   108.0100461 406.684800
   3725   3736   3738     1   108.0100461 406.684800
   3726   3725   3747     1   110.1100470 384.091200
   3726   3729   3730     1   109.8000471 387.438400
   3726   3729   3731     1   109.8000471 387.438400
   3727   3726   3729     1   110.5600475 386.601600
   3727   3726   3728     1   109.7500473 328.025600
   3728   3726   3729     1   110.5600475 386.601600
   3730   3729   3732     1   108.7700466 392.459200
   3730   3729   3731     1   107.5800459 329.699200
   3731   3729   3732     1   108.7700466 392.459200
   3732   3734   3735     1   106.5500460 417.563200
   3736   3725   3747     1   110.1100470 384.091200
   3736   3739   3740     1   109.8000471 387.438400
   3736   3739   3741     1   109.8000471 387.438400
   3737   3736   3739     1   110.5600475 386.601600
   3737   3736   3738     1   109.7500473 328.025600
   3738   3736   3739     1   110.5600475 386.601600
   3740   3739   3742     1   108.7700466 392.459200
   3740   3739   3741     1   107.5800459 329.699200
   3741   3739   3742     1   108.7700466 392.459200
   3742   3744   3745     1   106.5500460 417.563200
   3748   3751   3752     1   109.8000471 387.438400
   3748   3751   3753     1   109.8000471 387.438400
   3749   3748   3751     1   109.5600471 388.275200
   3749   3748   3778     1   109.7800468 425.094400
   3749   3748   3750     1   108.4600466 328.025600
   3750   3748   3751     1   109.5600471 388.275200
   3750   3748   3778     1   109.7800468 425.094400
   3751   3754   3755     1   110.5600475 386.601600
   3751   3754   3756     1   110.5600475 386.601600
   3752   3751   3754     1   109.8000471 387.438400
   3752   3751   3753     1   107.5800459 329.699200
   3753   3751   3754     1   109.8000471 387.438400
   3754   3757   3779     1   110.1100470 384.091200
   3755   3754   3757     1   108.0100461 406.684800
   3755   3754   3756     1   109.7500473 328.025600
   3756   3754   3757     1   108.0100461 406.684800
   3757   3758   3759     1   108.0100461 406.684800
   3757   3758   3760     1   108.0100461 406.684800
   3757   3768   3769     1   108.0100461 406.684800
   3757   3768   3770     1   108.0100461 406.684800
   3758   3761   3762     1   109.8000471 387.438400
   3758   3761   3763     1   109.8000471 387.438400
   3758   3757   3779     1   110.1100470 384.091200
   3759   3758   3761     1   110.5600475 386.601600
   3759   3758   3760     1   109.7500473 328.025600
   3760   3758   3761     1   110.5600475 386.601600
   3762   3761   3764     1   108.7700466 392.459200
   3762   3761   3763     1   107.5800459 329.699200
   3763   3761   3764     1   108.7700466 392.459200
   3764   3766   3767     1   106.5500460 417.563200
   3768   3771   3772     1   109.8000471 387.438400
   3768   3771   3773     1   109.8000471 387.438400
   3768   3757   3779     1   110.1100470 384.091200
   3769   3768   3771     1   110.5600475 386.601600
   3769   3768   3770     1   109.7500473 328.025600
   3770   3768   3771     1   110.5600475 386.601600
   3772   3771   3774     1   108.7700466 392.459200
   3772   3771   3773     1   107.5800459 329.699200
   3773   3771   3774     1   108.7700466 392.459200
   3774   3776   3777     1   106.5500460 417.563200
   3780   3783   3784     1   109.8000471 387.438400
   3780   3783   3785     1   109.8000471 387.438400
   3781   3780   3783     1   109.5600471 388.275200
   3781   3780   3810     1   109.7800468 425.094400
   3781   3780   3782     1   108.4600466 328.025600
   3782   3780   3783     1   109.5600471 388.275200
   3782   3780   3810     1   109.7800468 425.094400
   3783   3786   3787     1   110.5600475 386.601600
   3783   3786   3788     1   110.5600475 386.601600
   3784   3783   3786     1   109.8000471 387.438400
   3784   3783   3785     1   107.5800459 329.699200
   3785   3783   3786     1   109.8000471 387.438400
   3786   3789   3811     1   110.1100470 384.091200
   3787   3786   3789     1   108.0100461 406.684800
   3787   3786   3788     1   109.7500473 328.025600
   3788   3786   3789     1   108.0100461 406.684800
   3789   3790   3791     1   108.0100461 406.684800
   3789   3790   3792     1   108.0100461 406.684800
   3789   3800   3801     1   108.0100461 406.684800
   3789   3800   3802     1   108.0100461 406.684800
   3790   3789   3811     1   110.1100470 384.091200
   3790   3793   3794     1   109.8000471 387.438400
   3790   3793   3795     1   109.8000471 387.438400
   3791   3790   3793     1   110.5600475 386.601600
   3791   3790   3792     1   109.7500473 328.025600
   3792   3790   3793     1   110.5600475 386.601600
   3794   3793   3796     1   108.7700466 392.459200
   3794   3793   3795     1   107.5800459 329.699200
   3795   3793   3796     1   108.7700466 392.459200
   3796   3798   3799     1   106.5500460 417.563200
   3800   3789   3811     1   110.1100470 384.091200
   3800   3803   3804     1   109.8000471 387.438400
   3800   3803   3805     1   109.8000471 387.438400
   3801   3800   3803     1   110.5600475 386.601600
   3801   3800   3802     1   109.7500473 328.025600
   3802   3800   3803     1   110.5600475 386.601600
   3804   3803   3806     1   108.7700466 392.459200
   3804   3803   3805     1   107.5800459 329.699200
   3805   3803   3806     1   108.7700466 392.459200
   3806   3808   3809     1   106.5500460 417.563200
   3812   3815   3816     1   109.8000471 387.438400
   3812   3815   3817     1   109.8000471 387.438400
   3813   3812   3815     1   109.5600471 388.275200
   3813   3812   3842     1   109.7800468 425.094400
   3813   3812   3814     1   108.4600466 328.025600
   3814   3812   3815     1   109.5600471 388.275200
   3814   3812   3842     1   109.7800468 425.094400
   3815   3818   3819     1   110.5600475 386.601600
   3815   3818   3820     1   110.5600475 386.601600
   3816   3815   3818     1   109.8000471 387.438400
   3816   3815   3817     1   107.5800459 329.699200
   3817   3815   3818     1   109.8000471 387.438400
   3818   3821   3843     1   110.1100470 384.091200
   3819   3818   3821     1   108.0100461 406.684800
   3819   3818   3820     1   109.7500473 328.025600
   3820   3818   3821     1   108.0100461 406.684800
   3821   3822   3823     1   108.0100461 406.684800
   3821   3822   3824     1   108.0100461 406.684800
   3821   3832   3833     1   108.0100461 406.684800
   3821   3832   3834     1   108.0100461 406.684800
   3822   3825   3826     1   109.8000471 387.438400
   3822   3825   3827     1   109.8000471 387.438400
   3822   3821   3843     1   110.1100470 384.091200
   3823   3822   3825     1   110.5600475 386.601600
   3823   3822   3824     1   109.7500473 328.025600
   3824   3822   3825     1   110.5600475 386.601600
   3826   3825   3828     1   108.7700466 392.459200
   3826   3825   3827     1   107.5800459 329.699200
   3827   3825   3828     1   108.7700466 392.459200
   3828   3830   3831     1   106.5500460 417.563200
   3832   3835   3836     1   109.8000471 387.438400
   3832   3835   3837     1   109.8000471 387.438400
   3832   3821   3843     1   110.1100470 384.091200
   3833   3832   3835     1   110.5600475 386.601600
   3833   3832   3834     1   109.7500473 328.025600
   3834   3832   3835     1   110.5600475 386.601600
   3836   3835   3838     1   108.7700466 392.459200
   3836   3835   3837     1   107.5800459 329.699200
   3837   3835   3838     1   108.7700466 392.459200
   3838   3840   3841     1   106.5500460 417.563200
   3844   3847   3848     1   109.8000471 387.438400
   3844   3847   3849     1   109.8000471 387.438400
   3845   3844   3847     1   109.5600471 388.275200
   3845   3844   3874     1   109.7800468 425.094400
   3845   3844   3846     1   108.4600466 328.025600
   3846   3844   3847     1   109.5600471 388.275200
   3846   3844   3874     1   109.7800468 425.094400
   3847   3850   3851     1   110.5600475 386.601600
   3847   3850   3852     1   110.5600475 386.601600
   3848   3847   3850     1   109.8000471 387.438400
   3848   3847   3849     1   107.5800459 329.699200
   3849   3847   3850     1   109.8000471 387.438400
   3850   3853   3875     1   110.1100470 384.091200
   3851   3850   3853     1   108.0100461 406.684800
   3851   3850   3852     1   109.7500473 328.025600
   3852   3850   3853     1   108.0100461 406.684800
   3853   3854   3855     1   108.0100461 406.684800
   3853   3854   3856     1   108.0100461 406.684800
   3853   3864   3865     1   108.0100461 406.684800
   3853   3864   3866     1   108.0100461 406.684800
   3854   3853   3875     1   110.1100470 384.091200
   3854   3857   3858     1   109.8000471 387.438400
   3854   3857   3859     1   109.8000471 387.438400
   3855   3854   3857     1   110.5600475 386.601600
   3855   3854   3856     1   109.7500473 328.025600
   3856   3854   3857     1   110.5600475 386.601600
   3858   3857   3860     1   108.7700466 392.459200
   3858   3857   3859     1   107.5800459 329.699200
   3859   3857   3860     1   108.7700466 392.459200
   3860   3862   3863     1   106.5500460 417.563200
   3864   3853   3875     1   110.1100470 384.091200
   3864   3867   3868     1   109.8000471 387.438400
   3864   3867   3869     1   109.8000471 387.438400
   3865   3864   3867     1   110.5600475 386.601600
   3865   3864   3866     1   109.7500473 328.025600
   3866   3864   3867     1   110.5600475 386.601600
   3868   3867   3870     1   108.7700466 392.459200
   3868   3867   3869     1   107.5800459 329.699200
   3869   3867   3870     1   108.7700466 392.459200
   3870   3872   3873     1   106.5500460 417.563200
   3876   3879   3880     1   109.8000471 387.438400
   3876   3879   3881     1   109.8000471 387.438400
   3877   3876   3879     1   109.5600471 388.275200
   3877   3876   3906     1   109.7800468 425.094400
   3877   3876   3878     1   108.4600466 328.025600
   3878   3876   3879     1   109.5600471 388.275200
   3878   3876   3906     1   109.7800468 425.094400
   3879   3882   3883     1   110.5600475 386.601600
   3879   3882   3884     1   110.5600475 386.601600
   3880   3879   3882     1   109.8000471 387.438400
   3880   3879   3881     1   107.5800459 329.699200
   3881   3879   3882     1   109.8000471 387.438400
   3882   3885   3907     1   110.1100470 384.091200
   3883   3882   3885     1   108.0100461 406.684800
   3883   3882   3884     1   109.7500473 328.025600
   3884   3882   3885     1   108.0100461 406.684800
   3885   3886   3887     1   108.0100461 406.684800
   3885   3886   3888     1   108.0100461 406.684800
   3885   3896   3897     1   108.0100461 406.684800
   3885   3896   3898     1   108.0100461 406.684800
   3886   3889   3890     1   109.8000471 387.438400
   3886   3889   3891     1   109.8000471 387.438400
   3886   3885   3907     1   110.1100470 384.091200
   3887   3886   3889     1   110.5600475 386.601600
   3887   3886   3888     1   109.7500473 328.025600
   3888   3886   3889     1   110.5600475 386.601600
   3890   3889   3892     1   108.7700466 392.459200
   3890   3889   3891     1   107.5800459 329.699200
   3891   3889   3892     1   108.7700466 392.459200
   3892   3894   3895     1   106.5500460 417.563200
   3896   3899   3900     1   109.8000471 387.438400
   3896   3899   3901     1   109.8000471 387.438400
   3896   3885   3907     1   110.1100470 384.091200
   3897   3896   3899     1   110.5600475 386.601600
   3897   3896   3898     1   109.7500473 328.025600
   3898   3896   3899     1   110.5600475 386.601600
   3900   3899   3902     1   108.7700466 392.459200
   3900   3899   3901     1   107.5800459 329.699200
   3901   3899   3902     1   108.7700466 392.459200
   3902   3904   3905     1   106.5500460 417.563200

[ dihedrals ]
;    ai     aj     ak     al funct         c0         c1         c2         c3         c4         c5
      1      2      8     14     1  0.0000000  0.6508444  3
      1      5     11     17     1  0.0000000  0.6508444  3
      2      1      5     11     1  180.0000771  0.4184000  2
      2      1      5     11     1  0.0000000  1.6024720  3
      2      8     14     20     1  0.0000000  0.6508444  3
      5      1      2      8     1  180.0000771  0.4184000  2
      5      1      2      8     1  0.0000000  1.6024720  3
      5     11     17     21     1  0.0000000  0.6508444  3
      8     14     20     28     1  0.0000000  0.6508444  3
      8     14     20     31     1  0.0000000  0.6508444  3
     11     17     21     22     1  0.0000000  0.6508444  3
     11     17     21     25     1  0.0000000  0.6508444  3
     14     20     28     40     1  0.0000000  0.6508444  3
     14     20     31     43     1  0.0000000  0.6508444  3
     17     21     22     34     1  0.0000000  0.6508444  3
     17     21     25     37     1  0.0000000  0.6508444  3
     20     28     40     49     1  0.0000000  0.6508444  3
     20     31     43     46     1  0.0000000  0.6508444  3
     21     22     34     55     1  0.0000000  0.6508444  3
     21     25     37     52     1  0.0000000  0.6508444  3
     22     21     25     37     1  0.0000000  0.6508444  3
     22     34     55    178     1  0.0000000  0.6508444  3
     25     21     22     34     1  0.0000000  0.6508444  3
     25     37     52    148     1  0.0000000  0.6508444  3
     28     20     31     43     1  0.0000000  0.6508444  3
     28     40     49    118     1  0.0000000  0.6508444  3
     31     20     28     40     1  0.0000000  0.6508444  3
     31     43     46     88     1  0.0000000  0.6508444  3
     34     55    178    169     1  180.0000771  0.4184000  2
     34     55    178    169     1  0.0000000  1.6024720  3
     37     52    148    139     1  180.0000771  0.4184000  2
     37     52    148    139     1  0.0000000  1.6024720  3
     40     49    118    109     1  180.0000771  0.4184000  2
     40     49    118    109     1  0.0000000  1.6024720  3
     43     46     88     79     1  180.0000771  0.4184000  2
     43     46     88     79     1  0.0000000  1.6024720  3
     46     88     79     70     1  180.0000771  0.4184000  2
     46     88     79     70     1  0.0000000  1.6024720  3
     49    118    109    100     1  180.0000771  0.4184000  2
     49    118    109    100     1  0.0000000  1.6024720  3
     52    148    139    130     1  180.0000771  0.4184000  2
     52    148    139    130     1  0.0000000  1.6024720  3
     55    178    169    160     1  180.0000771  0.4184000  2
     55    178    169    160     1  0.0000000  1.6024720  3
     60     61     73     85     1  0.0000000  0.6508444  3
     60     64     76     82     1  0.0000000  0.6508444  3
     60     67     70     79     1  0.0000000  0.6508444  3
     61     60     64     76     1  0.0000000  0.6508444  3
     61     60     67     70     1  0.0000000  0.6508444  3
     61     73     85    238     1  0.0000000  0.6508444  3
     64     60     61     73     1  0.0000000  0.6508444  3
     64     60     67     70     1  0.0000000  0.6508444  3
     64     76     82    208     1  0.0000000  0.6508444  3
     67     60     61     73     1  0.0000000  0.6508444  3
     67     60     64     76     1  0.0000000  0.6508444  3
     67     70     79     88     1  0.0000000  0.6508444  3
     73     85    238    229     1  180.0000771  0.4184000  2
     73     85    238    229     1  0.0000000  1.6024720  3
     76     82    208    199     1  180.0000771  0.4184000  2
     76     82    208    199     1  0.0000000  1.6024720  3
     82    208    199    190     1  180.0000771  0.4184000  2
     82    208    199    190     1  0.0000000  1.6024720  3
     85    238    229    220     1  180.0000771  0.4184000  2
     85    238    229    220     1  0.0000000  1.6024720  3
     90     91    103    115     1  0.0000000  0.6508444  3
     90     94    106    112     1  0.0000000  0.6508444  3
     90     97    100    109     1  0.0000000  0.6508444  3
     91     90     94    106     1  0.0000000  0.6508444  3
     91     90     97    100     1  0.0000000  0.6508444  3
     91    103    115    298     1  0.0000000  0.6508444  3
     94     90     91    103     1  0.0000000  0.6508444  3
     94     90     97    100     1  0.0000000  0.6508444  3
     94    106    112    268     1  0.0000000  0.6508444  3
     97     90     91    103     1  0.0000000  0.6508444  3
     97     90     94    106     1  0.0000000  0.6508444  3
     97    100    109    118     1  0.0000000  0.6508444  3
    103    115    298    289     1  180.0000771  0.4184000  2
    103    115    298    289     1  0.0000000  1.6024720  3
    106    112    268    259     1  180.0000771  0.4184000  2
    106    112    268    259     1  0.0000000  1.6024720  3
    112    268    259    250     1  180.0000771  0.4184000  2
    112    268    259    250     1  0.0000000  1.6024720  3
    115    298    289    280     1  180.0000771  0.4184000  2
    115    298    289    280     1  0.0000000  1.6024720  3
    120    121    133    145     1  0.0000000  0.6508444  3
    120    124    136    142     1  0.0000000  0.6508444  3
    120    127    130    139     1  0.0000000  0.6508444  3
    121    120    124    136     1  0.0000000  0.6508444  3
    121    120    127    130     1  0.0000000  0.6508444  3
    121    133    145    358     1  0.0000000  0.6508444  3
    124    120    121    133     1  0.0000000  0.6508444  3
    124    120    127    130     1  0.0000000  0.6508444  3
    124    136    142    328     1  0.0000000  0.6508444  3
    127    120    121    133     1  0.0000000  0.6508444  3
    127    120    124    136     1  0.0000000  0.6508444  3
    127    130    139    148     1  0.0000000  0.6508444  3
    133    145    358    349     1  180.0000771  0.4184000  2
    133    145    358    349     1  0.0000000  1.6024720  3
    136    142    328    319     1  180.0000771  0.4184000  2
    136    142    328    319     1  0.0000000  1.6024720  3
    142    328    319    310     1  180.0000771  0.4184000  2
    142    328    319    310     1  0.0000000  1.6024720  3
    145    358    349    340     1  180.0000771  0.4184000  2
    145    358    349    340     1  0.0000000  1.6024720  3
    150    151    163    175     1  0.0000000  0.6508444  3
    150    154    166    172     1  0.0000000  0.6508444  3
    150    157    160    169     1  0.0000000  0.6508444  3
    151    150    154    166     1  0.0000000  0.6508444  3
    151    150    157    160     1  0.0000000  0.6508444  3
    151    163    175    418     1  0.0000000  0.6508444  3
    154    150    151    163     1  0.0000000  0.6508444  3
    154    150    157    160     1  0.0000000  0.6508444  3
    154    166    172    388     1  0.0000000  0.6508444  3
    157    150    151    163     1  0.0000000  0.6508444  3
    157    150    154    166     1  0.0000000  0.6508444  3
    157    160    169    178     1  0.0000000  0.6508444  3
    163    175    418    409     1  180.0000771  0.4184000  2
    163    175    418    409     1  0.0000000  1.6024720  3
    166    172    388    379     1  180.0000771  0.4184000  2
    166    172    388    379     1  0.0000000  1.6024720  3
    172    388    379    370     1  180.0000771  0.4184000  2
    172    388    379    370     1  0.0000000  1.6024720  3
    175    418    409    400     1  180.0000771  0.4184000  2
    175    418    409    400     1  0.0000000  1.6024720  3
    180    181    193    205     1  0.0000000  0.6508444  3
    180    184    196    202     1  0.0000000  0.6508444  3
    180    187    190    199     1  0.0000000  0.6508444  3
    181    180    184    196     1  0.0000000  0.6508444  3
    181    180    187    190     1  0.0000000  0.6508444  3
    181    193    205    478     1  0.0000000  0.6508444  3
    184    180    181    193     1  0.0000000  0.6508444  3
    184    180    187    190     1  0.0000000  0.6508444  3
    184    196    202    448     1  0.0000000  0.6508444  3
    187    180    181    193     1  0.0000000  0.6508444  3
    187    180    184    196     1  0.0000000  0.6508444  3
    187    190    199    208     1  0.0000000  0.6508444  3
    193    205    478    469     1  180.0000771  0.4184000  2
    193    205    478    469     1  0.0000000  1.6024720  3
    196    202    448    439     1  180.0000771  0.4184000  2
    196    202    448    439     1  0.0000000  1.6024720  3
    202    448    439    430     1  180.0000771  0.4184000  2
    202    448    439    430     1  0.0000000  1.6024720  3
    205    478    469    460     1  180.0000771  0.4184000  2
    205    478    469    460     1  0.0000000  1.6024720  3
    210    211    223    235     1  0.0000000  0.6508444  3
    210    214    226    232     1  0.0000000  0.6508444  3
    210    217    220    229     1  0.0000000  0.6508444  3
    211    210    214    226     1  0.0000000  0.6508444  3
    211    210    217    220     1  0.0000000  0.6508444  3
    211    223    235    538     1  0.0000000  0.6508444  3
    214    210    211    223     1  0.0000000  0.6508444  3
    214    210    217    220     1  0.0000000  0.6508444  3
    214    226    232    508     1  0.0000000  0.6508444  3
    217    210    211    223     1  0.0000000  0.6508444  3
    217    210    214    226     1  0.0000000  0.6508444  3
    217    220    229    238     1  0.0000000  0.6508444  3
    223    235    538    529     1  180.0000771  0.4184000  2
    223    235    538    529     1  0.0000000  1.6024720  3
    226    232    508    499     1  180.0000771  0.4184000  2
    226    232    508    499     1  0.0000000  1.6024720  3
    232    508    499    490     1  180.0000771  0.4184000  2
    232    508    499    490     1  0.0000000  1.6024720  3
    235    538    529    520     1  180.0000771  0.4184000  2
    235    538    529    520     1  0.0000000  1.6024720  3
    240    241    253    265     1  0.0000000  0.6508444  3
    240    244    256    262     1  0.0000000  0.6508444  3
    240    247    250    259     1  0.0000000  0.6508444  3
    241    240    244    256     1  0.0000000  0.6508444  3
    241    240    247    250     1  0.0000000  0.6508444  3
    241    253    265    598     1  0.0000000  0.6508444  3
    244    240    241    253     1  0.0000000  0.6508444  3
    244    240    247    250     1  0.0000000  0.6508444  3
    244    256    262    568     1  0.0000000  0.6508444  3
    247    240    241    253     1  0.0000000  0.6508444  3
    247    240    244    256     1  0.0000000  0.6508444  3
    247    250    259    268     1  0.0000000  0.6508444  3
    253    265    598    589     1  180.0000771  0.4184000  2
    253    265    598    589     1  0.0000000  1.6024720  3
    256    262    568    559     1  180.0000771  0.4184000  2
    256    262    568    559     1  0.0000000  1.6024720  3
    262    568    559    550     1  180.0000771  0.4184000  2
    262    568    559    550     1  0.0000000  1.6024720  3
    265    598    589    580     1  180.0000771  0.4184000  2
    265    598    589    580     1  0.0000000  1.6024720  3
    270    271    283    295     1  0.0000000  0.6508444  3
    270    274    286    292     1  0.0000000  0.6508444  3
    270    277    280    289     1  0.0000000  0.6508444  3
    271    270    274    286     1  0.0000000  0.6508444  3
    271    270    277    280     1  0.0000000  0.6508444  3
    271    283    295    658     1  0.0000000  0.6508444  3
    274    270    271    283     1  0.0000000  0.6508444  3
    274    270    277    280     1  0.0000000  0.6508444  3
    274    286    292    628     1  0.0000000  0.6508444  3
    277    270    271    283     1  0.0000000  0.6508444  3
    277    270    274    286     1  0.0000000  0.6508444  3
    277    280    289    298     1  0.0000000  0.6508444  3
    283    295    658    649     1  180.0000771  0.4184000  2
    283    295    658    649     1  0.0000000  1.6024720  3
    286    292    628    619     1  180.0000771  0.4184000  2
    286    292    628    619     1  0.0000000  1.6024720  3
    292    628    619    610     1  180.0000771  0.4184000  2
    292    628    619    610     1  0.0000000  1.6024720  3
    295    658    649    640     1  180.0000771  0.4184000  2
    295    658    649    640     1  0.0000000  1.6024720  3
    300    301    313    325     1  0.0000000  0.6508444  3
    300    304    316    322     1  0.0000000  0.6508444  3
    300    307    310    319     1  0.0000000  0.6508444  3
    301    300    304    316     1  0.0000000  0.6508444  3
    301    300    307    310     1  0.0000000  0.6508444  3
    301    313    325    718     1  0.0000000  0.6508444  3
    304    300    301    313     1  0.0000000  0.6508444  3
    304    300    307    310     1  0.0000000  0.6508444  3
    304    316    322    688     1  0.0000000  0.6508444  3
    307    300    301    313     1  0.0000000  0.6508444  3
    307    300    304    316     1  0.0000000  0.6508444  3
    307    310    319    328     1  0.0000000  0.6508444  3
    313    325    718    709     1  180.0000771  0.4184000  2
    313    325    718    709     1  0.0000000  1.6024720  3
    316    322    688    679     1  180.0000771  0.4184000  2
    316    322    688    679     1  0.0000000  1.6024720  3
    322    688    679    670     1  180.0000771  0.4184000  2
    322    688    679    670     1  0.0000000  1.6024720  3
    325    718    709    700     1  180.0000771  0.4184000  2
    325    718    709    700     1  0.0000000  1.6024720  3
    330    331    343    355     1  0.0000000  0.6508444  3
    330    334    346    352     1  0.0000000  0.6508444  3
    330    337    340    349     1  0.0000000  0.6508444  3
    331    330    334    346     1  0.0000000  0.6508444  3
    331    330    337    340     1  0.0000000  0.6508444  3
    331    343    355    778     1  0.0000000  0.6508444  3
    334    330    331    343     1  0.0000000  0.6508444  3
    334    330    337    340     1  0.0000000  0.6508444  3
    334    346    352    748     1  0.0000000  0.6508444  3
    337    330    331    343     1  0.0000000  0.6508444  3
    337    330    334    346     1  0.0000000  0.6508444  3
    337    340    349    358     1  0.0000000  0.6508444  3
    343    355    778    769     1  180.0000771  0.4184000  2
    343    355    778    769     1  0.0000000  1.6024720  3
    346    352    748    739     1  180.0000771  0.4184000  2
    346    352    748    739     1  0.0000000  1.6024720  3
    352    748    739    730     1  180.0000771  0.4184000  2
    352    748    739    730     1  0.0000000  1.6024720  3
    355    778    769    760     1  180.0000771  0.4184000  2
    355    778    769    760     1  0.0000000  1.6024720  3
    360    361    373    385     1  0.0000000  0.6508444  3
    360    364    376    382     1  0.0000000  0.6508444  3
    360    367    370    379     1  0.0000000  0.6508444  3
    361    360    364    376     1  0.0000000  0.6508444  3
    361    360    367    370     1  0.0000000  0.6508444  3
    361    373    385    838     1  0.0000000  0.6508444  3
    364    360    361    373     1  0.0000000  0.6508444  3
    364    360    367    370     1  0.0000000  0.6508444  3
    364    376    382    808     1  0.0000000  0.6508444  3
    367    360    361    373     1  0.0000000  0.6508444  3
    367    360    364    376     1  0.0000000  0.6508444  3
    367    370    379    388     1  0.0000000  0.6508444  3
    373    385    838    829     1  180.0000771  0.4184000  2
    373    385    838    829     1  0.0000000  1.6024720  3
    376    382    808    799     1  180.0000771  0.4184000  2
    376    382    808    799     1  0.0000000  1.6024720  3
    382    808    799    790     1  180.0000771  0.4184000  2
    382    808    799    790     1  0.0000000  1.6024720  3
    385    838    829    820     1  180.0000771  0.4184000  2
    385    838    829    820     1  0.0000000  1.6024720  3
    390    391    403    415     1  0.0000000  0.6508444  3
    390    394    406    412     1  0.0000000  0.6508444  3
    390    397    400    409     1  0.0000000  0.6508444  3
    391    390    394    406     1  0.0000000  0.6508444  3
    391    390    397    400     1  0.0000000  0.6508444  3
    391    403    415    898     1  0.0000000  0.6508444  3
    394    390    391    403     1  0.0000000  0.6508444  3
    394    390    397    400     1  0.0000000  0.6508444  3
    394    406    412    868     1  0.0000000  0.6508444  3
    397    390    391    403     1  0.0000000  0.6508444  3
    397    390    394    406     1  0.0000000  0.6508444  3
    397    400    409    418     1  0.0000000  0.6508444  3
    403    415    898    889     1  180.0000771  0.4184000  2
    403    415    898    889     1  0.0000000  1.6024720  3
    406    412    868    859     1  180.0000771  0.4184000  2
    406    412    868    859     1  0.0000000  1.6024720  3
    412    868    859    850     1  180.0000771  0.4184000  2
    412    868    859    850     1  0.0000000  1.6024720  3
    415    898    889    880     1  180.0000771  0.4184000  2
    415    898    889    880     1  0.0000000  1.6024720  3
    420    421    433    445     1  0.0000000  0.6508444  3
    420    424    436    442     1  0.0000000  0.6508444  3
    420    427    430    439     1  0.0000000  0.6508444  3
    421    420    424    436     1  0.0000000  0.6508444  3
    421    420    427    430     1  0.0000000  0.6508444  3
    421    433    445    958     1  0.0000000  0.6508444  3
    424    420    421    433     1  0.0000000  0.6508444  3
    424    420    427    430     1  0.0000000  0.6508444  3
    424    436    442    928     1  0.0000000  0.6508444  3
    427    420    421    433     1  0.0000000  0.6508444  3
    427    420    424    436     1  0.0000000  0.6508444  3
    427    430    439    448     1  0.0000000  0.6508444  3
    433    445    958    949     1  180.0000771  0.4184000  2
    433    445    958    949     1  0.0000000  1.6024720  3
    436    442    928    919     1  180.0000771  0.4184000  2
    436    442    928    919     1  0.0000000  1.6024720  3
    442    928    919    910     1  180.0000771  0.4184000  2
    442    928    919    910     1  0.0000000  1.6024720  3
    445    958    949    940     1  180.0000771  0.4184000  2
    445    958    949    940     1  0.0000000  1.6024720  3
    450    451    463    475     1  0.0000000  0.6508444  3
    450    454    466    472     1  0.0000000  0.6508444  3
    450    457    460    469     1  0.0000000  0.6508444  3
    451    450    454    466     1  0.0000000  0.6508444  3
    451    450    457    460     1  0.0000000  0.6508444  3
    451    463    475   1018     1  0.0000000  0.6508444  3
    454    450    451    463     1  0.0000000  0.6508444  3
    454    450    457    460     1  0.0000000  0.6508444  3
    454    466    472    988     1  0.0000000  0.6508444  3
    457    450    451    463     1  0.0000000  0.6508444  3
    457    450    454    466     1  0.0000000  0.6508444  3
    457    460    469    478     1  0.0000000  0.6508444  3
    463    475   1018   1009     1  180.0000771  0.4184000  2
    463    475   1018   1009     1  0.0000000  1.6024720  3
    466    472    988    979     1  180.0000771  0.4184000  2
    466    472    988    979     1  0.0000000  1.6024720  3
    472    988    979    970     1  180.0000771  0.4184000  2
    472    988    979    970     1  0.0000000  1.6024720  3
    475   1018   1009   1000     1  180.0000771  0.4184000  2
    475   1018   1009   1000     1  0.0000000  1.6024720  3
    480    481    493    505     1  0.0000000  0.6508444  3
    480    484    496    502     1  0.0000000  0.6508444  3
    480    487    490    499     1  0.0000000  0.6508444  3
    481    480    484    496     1  0.0000000  0.6508444  3
    481    480    487    490     1  0.0000000  0.6508444  3
    481    493    505   1078     1  0.0000000  0.6508444  3
    484    480    481    493     1  0.0000000  0.6508444  3
    484    480    487    490     1  0.0000000  0.6508444  3
    484    496    502   1048     1  0.0000000  0.6508444  3
    487    480    481    493     1  0.0000000  0.6508444  3
    487    480    484    496     1  0.0000000  0.6508444  3
    487    490    499    508     1  0.0000000  0.6508444  3
    493    505   1078   1069     1  180.0000771  0.4184000  2
    493    505   1078   1069     1  0.0000000  1.6024720  3
    496    502   1048   1039     1  180.0000771  0.4184000  2
    496    502   1048   1039     1  0.0000000  1.6024720  3
    502   1048   1039   1030     1  180.0000771  0.4184000  2
    502   1048   1039   1030     1  0.0000000  1.6024720  3
    505   1078   1069   1060     1  180.0000771  0.4184000  2
    505   1078   1069   1060     1  0.0000000  1.6024720  3
    510    511    523    535     1  0.0000000  0.6508444  3
    510    514    526    532     1  0.0000000  0.6508444  3
    510    517    520    529     1  0.0000000  0.6508444  3
    511    510    514    526     1  0.0000000  0.6508444  3
    511    510    517    520     1  0.0000000  0.6508444  3
    511    523    535   1138     1  0.0000000  0.6508444  3
    514    510    511    523     1  0.0000000  0.6508444  3
    514    510    517    520     1  0.0000000  0.6508444  3
    514    526    532   1108     1  0.0000000  0.6508444  3
    517    510    511    523     1  0.0000000  0.6508444  3
    517    510    514    526     1  0.0000000  0.6508444  3
    517    520    529    538     1  0.0000000  0.6508444  3
    523    535   1138   1129     1  180.0000771  0.4184000  2
    523    535   1138   1129     1  0.0000000  1.6024720  3
    526    532   1108   1099     1  180.0000771  0.4184000  2
    526    532   1108   1099     1  0.0000000  1.6024720  3
    532   1108   1099   1090     1  180.0000771  0.4184000  2
    532   1108   1099   1090     1  0.0000000  1.6024720  3
    535   1138   1129   1120     1  180.0000771  0.4184000  2
    535   1138   1129   1120     1  0.0000000  1.6024720  3
    540    541    553    565     1  0.0000000  0.6508444  3
    540    544    556    562     1  0.0000000  0.6508444  3
    540    547    550    559     1  0.0000000  0.6508444  3
    541    540    544    556     1  0.0000000  0.6508444  3
    541    540    547    550     1  0.0000000  0.6508444  3
    541    553    565   1198     1  0.0000000  0.6508444  3
    544    540    541    553     1  0.0000000  0.6508444  3
    544    540    547    550     1  0.0000000  0.6508444  3
    544    556    562   1168     1  0.0000000  0.6508444  3
    547    540    541    553     1  0.0000000  0.6508444  3
    547    540    544    556     1  0.0000000  0.6508444  3
    547    550    559    568     1  0.0000000  0.6508444  3
    553    565   1198   1189     1  180.0000771  0.4184000  2
    553    565   1198   1189     1  0.0000000  1.6024720  3
    556    562   1168   1159     1  180.0000771  0.4184000  2
    556    562   1168   1159     1  0.0000000  1.6024720  3
    562   1168   1159   1150     1  180.0000771  0.4184000  2
    562   1168   1159   1150     1  0.0000000  1.6024720  3
    565   1198   1189   1180     1  180.0000771  0.4184000  2
    565   1198   1189   1180     1  0.0000000  1.6024720  3
    570    571    583    595     1  0.0000000  0.6508444  3
    570    574    586    592     1  0.0000000  0.6508444  3
    570    577    580    589     1  0.0000000  0.6508444  3
    571    570    574    586     1  0.0000000  0.6508444  3
    571    570    577    580     1  0.0000000  0.6508444  3
    571    583    595   1258     1  0.0000000  0.6508444  3
    574    570    571    583     1  0.0000000  0.6508444  3
    574    570    577    580     1  0.0000000  0.6508444  3
    574    586    592   1228     1  0.0000000  0.6508444  3
    577    570    571    583     1  0.0000000  0.6508444  3
    577    570    574    586     1  0.0000000  0.6508444  3
    577    580    589    598     1  0.0000000  0.6508444  3
    583    595   1258   1249     1  180.0000771  0.4184000  2
    583    595   1258   1249     1  0.0000000  1.6024720  3
    586    592   1228   1219     1  180.0000771  0.4184000  2
    586    592   1228   1219     1  0.0000000  1.6024720  3
    592   1228   1219   1210     1  180.0000771  0.4184000  2
    592   1228   1219   1210     1  0.0000000  1.6024720  3
    595   1258   1249   1240     1  180.0000771  0.4184000  2
    595   1258   1249   1240     1  0.0000000  1.6024720  3
    600    601    613    625     1  0.0000000  0.6508444  3
    600    604    616    622     1  0.0000000  0.6508444  3
    600    607    610    619     1  0.0000000  0.6508444  3
    601    600    604    616     1  0.0000000  0.6508444  3
    601    600    607    610     1  0.0000000  0.6508444  3
    601    613    625   1318     1  0.0000000  0.6508444  3
    604    600    601    613     1  0.0000000  0.6508444  3
    604    600    607    610     1  0.0000000  0.6508444  3
    604    616    622   1288     1  0.0000000  0.6508444  3
    607    600    601    613     1  0.0000000  0.6508444  3
    607    600    604    616     1  0.0000000  0.6508444  3
    607    610    619    628     1  0.0000000  0.6508444  3
    613    625   1318   1309     1  180.0000771  0.4184000  2
    613    625   1318   1309     1  0.0000000  1.6024720  3
    616    622   1288   1279     1  180.0000771  0.4184000  2
    616    622   1288   1279     1  0.0000000  1.6024720  3
    622   1288   1279   1270     1  180.0000771  0.4184000  2
    622   1288   1279   1270     1  0.0000000  1.6024720  3
    625   1318   1309   1300     1  180.0000771  0.4184000  2
    625   1318   1309   1300     1  0.0000000  1.6024720  3
    630    631    643    655     1  0.0000000  0.6508444  3
    630    634    646    652     1  0.0000000  0.6508444  3
    630    637    640    649     1  0.0000000  0.6508444  3
    631    630    634    646     1  0.0000000  0.6508444  3
    631    630    637    640     1  0.0000000  0.6508444  3
    631    643    655   1378     1  0.0000000  0.6508444  3
    634    630    631    643     1  0.0000000  0.6508444  3
    634    630    637    640     1  0.0000000  0.6508444  3
    634    646    652   1348     1  0.0000000  0.6508444  3
    637    630    631    643     1  0.0000000  0.6508444  3
    637    630    634    646     1  0.0000000  0.6508444  3
    637    640    649    658     1  0.0000000  0.6508444  3
    643    655   1378   1369     1  180.0000771  0.4184000  2
    643    655   1378   1369     1  0.0000000  1.6024720  3
    646    652   1348   1339     1  180.0000771  0.4184000  2
    646    652   1348   1339     1  0.0000000  1.6024720  3
    652   1348   1339   1330     1  180.0000771  0.4184000  2
    652   1348   1339   1330     1  0.0000000  1.6024720  3
    655   1378   1369   1360     1  180.0000771  0.4184000  2
    655   1378   1369   1360     1  0.0000000  1.6024720  3
    660    661    673    685     1  0.0000000  0.6508444  3
    660    664    676    682     1  0.0000000  0.6508444  3
    660    667    670    679     1  0.0000000  0.6508444  3
    661    660    664    676     1  0.0000000  0.6508444  3
    661    660    667    670     1  0.0000000  0.6508444  3
    661    673    685   1438     1  0.0000000  0.6508444  3
    664    660    661    673     1  0.0000000  0.6508444  3
    664    660    667    670     1  0.0000000  0.6508444  3
    664    676    682   1408     1  0.0000000  0.6508444  3
    667    660    661    673     1  0.0000000  0.6508444  3
    667    660    664    676     1  0.0000000  0.6508444  3
    667    670    679    688     1  0.0000000  0.6508444  3
    673    685   1438   1429     1  180.0000771  0.4184000  2
    673    685   1438   1429     1  0.0000000  1.6024720  3
    676    682   1408   1399     1  180.0000771  0.4184000  2
    676    682   1408   1399     1  0.0000000  1.6024720  3
    682   1408   1399   1390     1  180.0000771  0.4184000  2
    682   1408   1399   1390     1  0.0000000  1.6024720  3
    685   1438   1429   1420     1  180.0000771  0.4184000  2
    685   1438   1429   1420     1  0.0000000  1.6024720  3
    690    691    703    715     1  0.0000000  0.6508444  3
    690    694    706    712     1  0.0000000  0.6508444  3
    690    697    700    709     1  0.0000000  0.6508444  3
    691    690    694    706     1  0.0000000  0.6508444  3
    691    690    697    700     1  0.0000000  0.6508444  3
    691    703    715   1498     1  0.0000000  0.6508444  3
    694    690    691    703     1  0.0000000  0.6508444  3
    694    690    697    700     1  0.0000000  0.6508444  3
    694    706    712   1468     1  0.0000000  0.6508444  3
    697    690    691    703     1  0.0000000  0.6508444  3
    697    690    694    706     1  0.0000000  0.6508444  3
    697    700    709    718     1  0.0000000  0.6508444  3
    703    715   1498   1489     1  180.0000771  0.4184000  2
    703    715   1498   1489     1  0.0000000  1.6024720  3
    706    712   1468   1459     1  180.0000771  0.4184000  2
    706    712   1468   1459     1  0.0000000  1.6024720  3
    712   1468   1459   1450     1  180.0000771  0.4184000  2
    712   1468   1459   1450     1  0.0000000  1.6024720  3
    715   1498   1489   1480     1  180.0000771  0.4184000  2
    715   1498   1489   1480     1  0.0000000  1.6024720  3
    720    721    733    745     1  0.0000000  0.6508444  3
    720    724    736    742     1  0.0000000  0.6508444  3
    720    727    730    739     1  0.0000000  0.6508444  3
    721    720    724    736     1  0.0000000  0.6508444  3
    721    720    727    730     1  0.0000000  0.6508444  3
    721    733    745   1558     1  0.0000000  0.6508444  3
    724    720    721    733     1  0.0000000  0.6508444  3
    724    720    727    730     1  0.0000000  0.6508444  3
    724    736    742   1528     1  0.0000000  0.6508444  3
    727    720    721    733     1  0.0000000  0.6508444  3
    727    720    724    736     1  0.0000000  0.6508444  3
    727    730    739    748     1  0.0000000  0.6508444  3
    733    745   1558   1549     1  180.0000771  0.4184000  2
    733    745   1558   1549     1  0.0000000  1.6024720  3
    736    742   1528   1519     1  180.0000771  0.4184000  2
    736    742   1528   1519     1  0.0000000  1.6024720  3
    742   1528   1519   1510     1  180.0000771  0.4184000  2
    742   1528   1519   1510     1  0.0000000  1.6024720  3
    745   1558   1549   1540     1  180.0000771  0.4184000  2
    745   1558   1549   1540     1  0.0000000  1.6024720  3
    750    751    763    775     1  0.0000000  0.6508444  3
    750    754    766    772     1  0.0000000  0.6508444  3
    750    757    760    769     1  0.0000000  0.6508444  3
    751    750    754    766     1  0.0000000  0.6508444  3
    751    750    757    760     1  0.0000000  0.6508444  3
    751    763    775   1618     1  0.0000000  0.6508444  3
    754    750    751    763     1  0.0000000  0.6508444  3
    754    750    757    760     1  0.0000000  0.6508444  3
    754    766    772   1588     1  0.0000000  0.6508444  3
    757    750    751    763     1  0.0000000  0.6508444  3
    757    750    754    766     1  0.0000000  0.6508444  3
    757    760    769    778     1  0.0000000  0.6508444  3
    763    775   1618   1609     1  180.0000771  0.4184000  2
    763    775   1618   1609     1  0.0000000  1.6024720  3
    766    772   1588   1579     1  180.0000771  0.4184000  2
    766    772   1588   1579     1  0.0000000  1.6024720  3
    772   1588   1579   1570     1  180.0000771  0.4184000  2
    772   1588   1579   1570     1  0.0000000  1.6024720  3
    775   1618   1609   1600     1  180.0000771  0.4184000  2
    775   1618   1609   1600     1  0.0000000  1.6024720  3
    780    781    793    805     1  0.0000000  0.6508444  3
    780    784    796    802     1  0.0000000  0.6508444  3
    780    787    790    799     1  0.0000000  0.6508444  3
    781    780    784    796     1  0.0000000  0.6508444  3
    781    780    787    790     1  0.0000000  0.6508444  3
    781    793    805   1678     1  0.0000000  0.6508444  3
    784    780    781    793     1  0.0000000  0.6508444  3
    784    780    787    790     1  0.0000000  0.6508444  3
    784    796    802   1648     1  0.0000000  0.6508444  3
    787    780    781    793     1  0.0000000  0.6508444  3
    787    780    784    796     1  0.0000000  0.6508444  3
    787    790    799    808     1  0.0000000  0.6508444  3
    793    805   1678   1669     1  180.0000771  0.4184000  2
    793    805   1678   1669     1  0.0000000  1.6024720  3
    796    802   1648   1639     1  180.0000771  0.4184000  2
    796    802   1648   1639     1  0.0000000  1.6024720  3
    802   1648   1639   1630     1  180.0000771  0.4184000  2
    802   1648   1639   1630     1  0.0000000  1.6024720  3
    805   1678   1669   1660     1  180.0000771  0.4184000  2
    805   1678   1669   1660     1  0.0000000  1.6024720  3
    810    811    823    835     1  0.0000000  0.6508444  3
    810    814    826    832     1  0.0000000  0.6508444  3
    810    817    820    829     1  0.0000000  0.6508444  3
    811    810    814    826     1  0.0000000  0.6508444  3
    811    810    817    820     1  0.0000000  0.6508444  3
    811    823    835   1738     1  0.0000000  0.6508444  3
    814    810    811    823     1  0.0000000  0.6508444  3
    814    810    817    820     1  0.0000000  0.6508444  3
    814    826    832   1708     1  0.0000000  0.6508444  3
    817    810    811    823     1  0.0000000  0.6508444  3
    817    810    814    826     1  0.0000000  0.6508444  3
    817    820    829    838     1  0.0000000  0.6508444  3
    823    835   1738   1729     1  180.0000771  0.4184000  2
    823    835   1738   1729     1  0.0000000  1.6024720  3
    826    832   1708   1699     1  180.0000771  0.4184000  2
    826    832   1708   1699     1  0.0000000  1.6024720  3
    832   1708   1699   1690     1  180.0000771  0.4184000  2
    832   1708   1699   1690     1  0.0000000  1.6024720  3
    835   1738   1729   1720     1  180.0000771  0.4184000  2
    835   1738   1729   1720     1  0.0000000  1.6024720  3
    840    841    853    865     1  0.0000000  0.6508444  3
    840    844    856    862     1  0.0000000  0.6508444  3
    840    847    850    859     1  0.0000000  0.6508444  3
    841    840    844    856     1  0.0000000  0.6508444  3
    841    840    847    850     1  0.0000000  0.6508444  3
    841    853    865   1798     1  0.0000000  0.6508444  3
    844    840    841    853     1  0.0000000  0.6508444  3
    844    840    847    850     1  0.0000000  0.6508444  3
    844    856    862   1768     1  0.0000000  0.6508444  3
    847    840    841    853     1  0.0000000  0.6508444  3
    847    840    844    856     1  0.0000000  0.6508444  3
    847    850    859    868     1  0.0000000  0.6508444  3
    853    865   1798   1789     1  180.0000771  0.4184000  2
    853    865   1798   1789     1  0.0000000  1.6024720  3
    856    862   1768   1759     1  180.0000771  0.4184000  2
    856    862   1768   1759     1  0.0000000  1.6024720  3
    862   1768   1759   1750     1  180.0000771  0.4184000  2
    862   1768   1759   1750     1  0.0000000  1.6024720  3
    865   1798   1789   1780     1  180.0000771  0.4184000  2
    865   1798   1789   1780     1  0.0000000  1.6024720  3
    870    871    883    895     1  0.0000000  0.6508444  3
    870    874    886    892     1  0.0000000  0.6508444  3
    870    877    880    889     1  0.0000000  0.6508444  3
    871    870    874    886     1  0.0000000  0.6508444  3
    871    870    877    880     1  0.0000000  0.6508444  3
    871    883    895   1858     1  0.0000000  0.6508444  3
    874    870    871    883     1  0.0000000  0.6508444  3
    874    870    877    880     1  0.0000000  0.6508444  3
    874    886    892   1828     1  0.0000000  0.6508444  3
    877    870    871    883     1  0.0000000  0.6508444  3
    877    870    874    886     1  0.0000000  0.6508444  3
    877    880    889    898     1  0.0000000  0.6508444  3
    883    895   1858   1849     1  180.0000771  0.4184000  2
    883    895   1858   1849     1  0.0000000  1.6024720  3
    886    892   1828   1819     1  180.0000771  0.4184000  2
    886    892   1828   1819     1  0.0000000  1.6024720  3
    892   1828   1819   1810     1  180.0000771  0.4184000  2
    892   1828   1819   1810     1  0.0000000  1.6024720  3
    895   1858   1849   1840     1  180.0000771  0.4184000  2
    895   1858   1849   1840     1  0.0000000  1.6024720  3
    900    901    913    925     1  0.0000000  0.6508444  3
    900    904    916    922     1  0.0000000  0.6508444  3
    900    907    910    919     1  0.0000000  0.6508444  3
    901    900    904    916     1  0.0000000  0.6508444  3
    901    900    907    910     1  0.0000000  0.6508444  3
    901    913    925   1922     1  0.0000000  0.6508444  3
    904    900    901    913     1  0.0000000  0.6508444  3
    904    900    907    910     1  0.0000000  0.6508444  3
    904    916    922   1890     1  0.0000000  0.6508444  3
    907    900    901    913     1  0.0000000  0.6508444  3
    907    900    904    916     1  0.0000000  0.6508444  3
    907    910    919    928     1  0.0000000  0.6508444  3
    913    925   1922   1892     1  180.0000771  0.4184000  2
    913    925   1922   1892     1  0.0000000  1.6024720  3
    916    922   1890   1860     1  180.0000771  0.4184000  2
    916    922   1890   1860     1  0.0000000  1.6024720  3
    922   1890   1860   1863     1  180.0000771  0.4184000  2
    922   1890   1860   1863     1  0.0000000  1.6024720  3
    925   1922   1892   1895     1  180.0000771  0.4184000  2
    925   1922   1892   1895     1  0.0000000  1.6024720  3
    930    931    943    955     1  0.0000000  0.6508444  3
    930    934    946    952     1  0.0000000  0.6508444  3
    930    937    940    949     1  0.0000000  0.6508444  3
    931    930    934    946     1  0.0000000  0.6508444  3
    931    930    937    940     1  0.0000000  0.6508444  3
    931    943    955   1986     1  0.0000000  0.6508444  3
    934    930    931    943     1  0.0000000  0.6508444  3
    934    930    937    940     1  0.0000000  0.6508444  3
    934    946    952   1954     1  0.0000000  0.6508444  3
    937    930    931    943     1  0.0000000  0.6508444  3
    937    930    934    946     1  0.0000000  0.6508444  3
    937    940    949    958     1  0.0000000  0.6508444  3
    943    955   1986   1956     1  180.0000771  0.4184000  2
    943    955   1986   1956     1  0.0000000  1.6024720  3
    946    952   1954   1924     1  180.0000771  0.4184000  2
    946    952   1954   1924     1  0.0000000  1.6024720  3
    952   1954   1924   1927     1  180.0000771  0.4184000  2
    952   1954   1924   1927     1  0.0000000  1.6024720  3
    955   1986   1956   1959     1  180.0000771  0.4184000  2
    955   1986   1956   1959     1  0.0000000  1.6024720  3
    960    961    973    985     1  0.0000000  0.6508444  3
    960    964    976    982     1  0.0000000  0.6508444  3
    960    967    970    979     1  0.0000000  0.6508444  3
    961    960    964    976     1  0.0000000  0.6508444  3
    961    960    967    970     1  0.0000000  0.6508444  3
    961    973    985   2050     1  0.0000000  0.6508444  3
    964    960    961    973     1  0.0000000  0.6508444  3
    964    960    967    970     1  0.0000000  0.6508444  3
    964    976    982   2018     1  0.0000000  0.6508444  3
    967    960    961    973     1  0.0000000  0.6508444  3
    967    960    964    976     1  0.0000000  0.6508444  3
    967    970    979    988     1  0.0000000  0.6508444  3
    973    985   2050   2020     1  180.0000771  0.4184000  2
    973    985   2050   2020     1  0.0000000  1.6024720  3
    976    982   2018   1988     1  180.0000771  0.4184000  2
    976    982   2018   1988     1  0.0000000  1.6024720  3
    982   2018   1988   1991     1  180.0000771  0.4184000  2
    982   2018   1988   1991     1  0.0000000  1.6024720  3
    985   2050   2020   2023     1  180.0000771  0.4184000  2
    985   2050   2020   2023     1  0.0000000  1.6024720  3
    990    991   1003   1015     1  0.0000000  0.6508444  3
    990    994   1006   1012     1  0.0000000  0.6508444  3
    990    997   1000   1009     1  0.0000000  0.6508444  3
    991    990    994   1006     1  0.0000000  0.6508444  3
    991    990    997   1000     1  0.0000000  0.6508444  3
    991   1003   1015   2114     1  0.0000000  0.6508444  3
    994    990    991   1003     1  0.0000000  0.6508444  3
    994    990    997   1000     1  0.0000000  0.6508444  3
    994   1006   1012   2082     1  0.0000000  0.6508444  3
    997    990    991   1003     1  0.0000000  0.6508444  3
    997    990    994   1006     1  0.0000000  0.6508444  3
    997   1000   1009   1018     1  0.0000000  0.6508444  3
   1003   1015   2114   2084     1  180.0000771  0.4184000  2
   1003   1015   2114   2084     1  0.0000000  1.6024720  3
   1006   1012   2082   2052     1  180.0000771  0.4184000  2
   1006   1012   2082   2052     1  0.0000000  1.6024720  3
   1012   2082   2052   2055     1  180.0000771  0.4184000  2
   1012   2082   2052   2055     1  0.0000000  1.6024720  3
   1015   2114   2084   2087     1  180.0000771  0.4184000  2
   1015   2114   2084   2087     1  0.0000000  1.6024720  3
   1020   1021   1033   1045     1  0.0000000  0.6508444  3
   1020   1024   1036   1042     1  0.0000000  0.6508444  3
   1020   1027   1030   1039     1  0.0000000  0.6508444  3
   1021   1020   1024   1036     1  0.0000000  0.6508444  3
   1021   1020   1027   1030     1  0.0000000  0.6508444  3
   1021   1033   1045   2178     1  0.0000000  0.6508444  3
   1024   1020   1021   1033     1  0.0000000  0.6508444  3
   1024   1020   1027   1030     1  0.0000000  0.6508444  3
   1024   1036   1042   2146     1  0.0000000  0.6508444  3
   1027   1020   1021   1033     1  0.0000000  0.6508444  3
   1027   1020   1024   1036     1  0.0000000  0.6508444  3
   1027   1030   1039   1048     1  0.0000000  0.6508444  3
   1033   1045   2178   2148     1  180.0000771  0.4184000  2
   1033   1045   2178   2148     1  0.0000000  1.6024720  3
   1036   1042   2146   2116     1  180.0000771  0.4184000  2
   1036   1042   2146   2116     1  0.0000000  1.6024720  3
   1042   2146   2116   2119     1  180.0000771  0.4184000  2
   1042   2146   2116   2119     1  0.0000000  1.6024720  3
   1045   2178   2148   2151     1  180.0000771  0.4184000  2
   1045   2178   2148   2151     1  0.0000000  1.6024720  3
   1050   1051   1063   1075     1  0.0000000  0.6508444  3
   1050   1054   1066   1072     1  0.0000000  0.6508444  3
   1050   1057   1060   1069     1  0.0000000  0.6508444  3
   1051   1050   1054   1066     1  0.0000000  0.6508444  3
   1051   1050   1057   1060     1  0.0000000  0.6508444  3
   1051   1063   1075   2242     1  0.0000000  0.6508444  3
   1054   1050   1051   1063     1  0.0000000  0.6508444  3
   1054   1050   1057   1060     1  0.0000000  0.6508444  3
   1054   1066   1072   2210     1  0.0000000  0.6508444  3
   1057   1050   1051   1063     1  0.0000000  0.6508444  3
   1057   1050   1054   1066     1  0.0000000  0.6508444  3
   1057   1060   1069   1078     1  0.0000000  0.6508444  3
   1063   1075   2242   2212     1  180.0000771  0.4184000  2
   1063   1075   2242   2212     1  0.0000000  1.6024720  3
   1066   1072   2210   2180     1  180.0000771  0.4184000  2
   1066   1072   2210   2180     1  0.0000000  1.6024720  3
   1072   2210   2180   2183     1  180.0000771  0.4184000  2
   1072   2210   2180   2183     1  0.0000000  1.6024720  3
   1075   2242   2212   2215     1  180.0000771  0.4184000  2
   1075   2242   2212   2215     1  0.0000000  1.6024720  3
   1080   1081   1093   1105     1  0.0000000  0.6508444  3
   1080   1084   1096   1102     1  0.0000000  0.6508444  3
   1080   1087   1090   1099     1  0.0000000  0.6508444  3
   1081   1080   1084   1096     1  0.0000000  0.6508444  3
   1081   1080   1087   1090     1  0.0000000  0.6508444  3
   1081   1093   1105   2306     1  0.0000000  0.6508444  3
   1084   1080   1081   1093     1  0.0000000  0.6508444  3
   1084   1080   1087   1090     1  0.0000000  0.6508444  3
   1084   1096   1102   2274     1  0.0000000  0.6508444  3
   1087   1080   1081   1093     1  0.0000000  0.6508444  3
   1087   1080   1084   1096     1  0.0000000  0.6508444  3
   1087   1090   1099   1108     1  0.0000000  0.6508444  3
   1093   1105   2306   2276     1  180.0000771  0.4184000  2
   1093   1105   2306   2276     1  0.0000000  1.6024720  3
   1096   1102   2274   2244     1  180.0000771  0.4184000  2
   1096   1102   2274   2244     1  0.0000000  1.6024720  3
   1102   2274   2244   2247     1  180.0000771  0.4184000  2
   1102   2274   2244   2247     1  0.0000000  1.6024720  3
   1105   2306   2276   2279     1  180.0000771  0.4184000  2
   1105   2306   2276   2279     1  0.0000000  1.6024720  3
   1110   1111   1123   1135     1  0.0000000  0.6508444  3
   1110   1114   1126   1132     1  0.0000000  0.6508444  3
   1110   1117   1120   1129     1  0.0000000  0.6508444  3
   1111   1110   1114   1126     1  0.0000000  0.6508444  3
   1111   1110   1117   1120     1  0.0000000  0.6508444  3
   1111   1123   1135   2370     1  0.0000000  0.6508444  3
   1114   1110   1111   1123     1  0.0000000  0.6508444  3
   1114   1110   1117   1120     1  0.0000000  0.6508444  3
   1114   1126   1132   2338     1  0.0000000  0.6508444  3
   1117   1110   1111   1123     1  0.0000000  0.6508444  3
   1117   1110   1114   1126     1  0.0000000  0.6508444  3
   1117   1120   1129   1138     1  0.0000000  0.6508444  3
   1123   1135   2370   2340     1  180.0000771  0.4184000  2
   1123   1135   2370   2340     1  0.0000000  1.6024720  3
   1126   1132   2338   2308     1  180.0000771  0.4184000  2
   1126   1132   2338   2308     1  0.0000000  1.6024720  3
   1132   2338   2308   2311     1  180.0000771  0.4184000  2
   1132   2338   2308   2311     1  0.0000000  1.6024720  3
   1135   2370   2340   2343     1  180.0000771  0.4184000  2
   1135   2370   2340   2343     1  0.0000000  1.6024720  3
   1140   1141   1153   1165     1  0.0000000  0.6508444  3
   1140   1144   1156   1162     1  0.0000000  0.6508444  3
   1140   1147   1150   1159     1  0.0000000  0.6508444  3
   1141   1140   1144   1156     1  0.0000000  0.6508444  3
   1141   1140   1147   1150     1  0.0000000  0.6508444  3
   1141   1153   1165   2434     1  0.0000000  0.6508444  3
   1144   1140   1141   1153     1  0.0000000  0.6508444  3
   1144   1140   1147   1150     1  0.0000000  0.6508444  3
   1144   1156   1162   2402     1  0.0000000  0.6508444  3
   1147   1140   1141   1153     1  0.0000000  0.6508444  3
   1147   1140   1144   1156     1  0.0000000  0.6508444  3
   1147   1150   1159   1168     1  0.0000000  0.6508444  3
   1153   1165   2434   2404     1  180.0000771  0.4184000  2
   1153   1165   2434   2404     1  0.0000000  1.6024720  3
   1156   1162   2402   2372     1  180.0000771  0.4184000  2
   1156   1162   2402   2372     1  0.0000000  1.6024720  3
   1162   2402   2372   2375     1  180.0000771  0.4184000  2
   1162   2402   2372   2375     1  0.0000000  1.6024720  3
   1165   2434   2404   2407     1  180.0000771  0.4184000  2
   1165   2434   2404   2407     1  0.0000000  1.6024720  3
   1170   1171   1183   1195     1  0.0000000  0.6508444  3
   1170   1174   1186   1192     1  0.0000000  0.6508444  3
   1170   1177   1180   1189     1  0.0000000  0.6508444  3
   1171   1170   1174   1186     1  0.0000000  0.6508444  3
   1171   1170   1177   1180     1  0.0000000  0.6508444  3
   1171   1183   1195   2498     1  0.0000000  0.6508444  3
   1174   1170   1171   1183     1  0.0000000  0.6508444  3
   1174   1170   1177   1180     1  0.0000000  0.6508444  3
   1174   1186   1192   2466     1  0.0000000  0.6508444  3
   1177   1170   1171   1183     1  0.0000000  0.6508444  3
   1177   1170   1174   1186     1  0.0000000  0.6508444  3
   1177   1180   1189   1198     1  0.0000000  0.6508444  3
   1183   1195   2498   2468     1  180.0000771  0.4184000  2
   1183   1195   2498   2468     1  0.0000000  1.6024720  3
   1186   1192   2466   2436     1  180.0000771  0.4184000  2
   1186   1192   2466   2436     1  0.0000000  1.6024720  3
   1192   2466   2436   2439     1  180.0000771  0.4184000  2
   1192   2466   2436   2439     1  0.0000000  1.6024720  3
   1195   2498   2468   2471     1  180.0000771  0.4184000  2
   1195   2498   2468   2471     1  0.0000000  1.6024720  3
   1200   1201   1213   1225     1  0.0000000  0.6508444  3
   1200   1204   1216   1222     1  0.0000000  0.6508444  3
   1200   1207   1210   1219     1  0.0000000  0.6508444  3
   1201   1200   1204   1216     1  0.0000000  0.6508444  3
   1201   1200   1207   1210     1  0.0000000  0.6508444  3
   1201   1213   1225   2562     1  0.0000000  0.6508444  3
   1204   1200   1201   1213     1  0.0000000  0.6508444  3
   1204   1200   1207   1210     1  0.0000000  0.6508444  3
   1204   1216   1222   2530     1  0.0000000  0.6508444  3
   1207   1200   1201   1213     1  0.0000000  0.6508444  3
   1207   1200   1204   1216     1  0.0000000  0.6508444  3
   1207   1210   1219   1228     1  0.0000000  0.6508444  3
   1213   1225   2562   2532     1  180.0000771  0.4184000  2
   1213   1225   2562   2532     1  0.0000000  1.6024720  3
   1216   1222   2530   2500     1  180.0000771  0.4184000  2
   1216   1222   2530   2500     1  0.0000000  1.6024720  3
   1222   2530   2500   2503     1  180.0000771  0.4184000  2
   1222   2530   2500   2503     1  0.0000000  1.6024720  3
   1225   2562   2532   2535     1  180.0000771  0.4184000  2
   1225   2562   2532   2535     1  0.0000000  1.6024720  3
   1230   1231   1243   1255     1  0.0000000  0.6508444  3
   1230   1234   1246   1252     1  0.0000000  0.6508444  3
   1230   1237   1240   1249     1  0.0000000  0.6508444  3
   1231   1230   1234   1246     1  0.0000000  0.6508444  3
   1231   1230   1237   1240     1  0.0000000  0.6508444  3
   1231   1243   1255   2626     1  0.0000000  0.6508444  3
   1234   1230   1231   1243     1  0.0000000  0.6508444  3
   1234   1230   1237   1240     1  0.0000000  0.6508444  3
   1234   1246   1252   2594     1  0.0000000  0.6508444  3
   1237   1230   1231   1243     1  0.0000000  0.6508444  3
   1237   1230   1234   1246     1  0.0000000  0.6508444  3
   1237   1240   1249   1258     1  0.0000000  0.6508444  3
   1243   1255   2626   2596     1  180.0000771  0.4184000  2
   1243   1255   2626   2596     1  0.0000000  1.6024720  3
   1246   1252   2594   2564     1  180.0000771  0.4184000  2
   1246   1252   2594   2564     1  0.0000000  1.6024720  3
   1252   2594   2564   2567     1  180.0000771  0.4184000  2
   1252   2594   2564   2567     1  0.0000000  1.6024720  3
   1255   2626   2596   2599     1  180.0000771  0.4184000  2
   1255   2626   2596   2599     1  0.0000000  1.6024720  3
   1260   1261   1273   1285     1  0.0000000  0.6508444  3
   1260   1264   1276   1282     1  0.0000000  0.6508444  3
   1260   1267   1270   1279     1  0.0000000  0.6508444  3
   1261   1260   1264   1276     1  0.0000000  0.6508444  3
   1261   1260   1267   1270     1  0.0000000  0.6508444  3
   1261   1273   1285   2690     1  0.0000000  0.6508444  3
   1264   1260   1261   1273     1  0.0000000  0.6508444  3
   1264   1260   1267   1270     1  0.0000000  0.6508444  3
   1264   1276   1282   2658     1  0.0000000  0.6508444  3
   1267   1260   1261   1273     1  0.0000000  0.6508444  3
   1267   1260   1264   1276     1  0.0000000  0.6508444  3
   1267   1270   1279   1288     1  0.0000000  0.6508444  3
   1273   1285   2690   2660     1  180.0000771  0.4184000  2
   1273   1285   2690   2660     1  0.0000000  1.6024720  3
   1276   1282   2658   2628     1  180.0000771  0.4184000  2
   1276   1282   2658   2628     1  0.0000000  1.6024720  3
   1282   2658   2628   2631     1  180.0000771  0.4184000  2
   1282   2658   2628   2631     1  0.0000000  1.6024720  3
   1285   2690   2660   2663     1  180.0000771  0.4184000  2
   1285   2690   2660   2663     1  0.0000000  1.6024720  3
   1290   1291   1303   1315     1  0.0000000  0.6508444  3
   1290   1294   1306   1312     1  0.0000000  0.6508444  3
   1290   1297   1300   1309     1  0.0000000  0.6508444  3
   1291   1290   1294   1306     1  0.0000000  0.6508444  3
   1291   1290   1297   1300     1  0.0000000  0.6508444  3
   1291   1303   1315   2754     1  0.0000000  0.6508444  3
   1294   1290   1291   1303     1  0.0000000  0.6508444  3
   1294   1290   1297   1300     1  0.0000000  0.6508444  3
   1294   1306   1312   2722     1  0.0000000  0.6508444  3
   1297   1290   1291   1303     1  0.0000000  0.6508444  3
   1297   1290   1294   1306     1  0.0000000  0.6508444  3
   1297   1300   1309   1318     1  0.0000000  0.6508444  3
   1303   1315   2754   2724     1  180.0000771  0.4184000  2
   1303   1315   2754   2724     1  0.0000000  1.6024720  3
   1306   1312   2722   2692     1  180.0000771  0.4184000  2
   1306   1312   2722   2692     1  0.0000000  1.6024720  3
   1312   2722   2692   2695     1  180.0000771  0.4184000  2
   1312   2722   2692   2695     1  0.0000000  1.6024720  3
   1315   2754   2724   2727     1  180.0000771  0.4184000  2
   1315   2754   2724   2727     1  0.0000000  1.6024720  3
   1320   1321   1333   1345     1  0.0000000  0.6508444  3
   1320   1324   1336   1342     1  0.0000000  0.6508444  3
   1320   1327   1330   1339     1  0.0000000  0.6508444  3
   1321   1320   1324   1336     1  0.0000000  0.6508444  3
   1321   1320   1327   1330     1  0.0000000  0.6508444  3
   1321   1333   1345   2818     1  0.0000000  0.6508444  3
   1324   1320   1321   1333     1  0.0000000  0.6508444  3
   1324   1320   1327   1330     1  0.0000000  0.6508444  3
   1324   1336   1342   2786     1  0.0000000  0.6508444  3
   1327   1320   1321   1333     1  0.0000000  0.6508444  3
   1327   1320   1324   1336     1  0.0000000  0.6508444  3
   1327   1330   1339   1348     1  0.0000000  0.6508444  3
   1333   1345   2818   2788     1  180.0000771  0.4184000  2
   1333   1345   2818   2788     1  0.0000000  1.6024720  3
   1336   1342   2786   2756     1  180.0000771  0.4184000  2
   1336   1342   2786   2756     1  0.0000000  1.6024720  3
   1342   2786   2756   2759     1  180.0000771  0.4184000  2
   1342   2786   2756   2759     1  0.0000000  1.6024720  3
   1345   2818   2788   2791     1  180.0000771  0.4184000  2
   1345   2818   2788   2791     1  0.0000000  1.6024720  3
   1350   1351   1363   1375     1  0.0000000  0.6508444  3
   1350   1354   1366   1372     1  0.0000000  0.6508444  3
   1350   1357   1360   1369     1  0.0000000  0.6508444  3
   1351   1350   1354   1366     1  0.0000000  0.6508444  3
   1351   1350   1357   1360     1  0.0000000  0.6508444  3
   1351   1363   1375   2882     1  0.0000000  0.6508444  3
   1354   1350   1351   1363     1  0.0000000  0.6508444  3
   1354   1350   1357   1360     1  0.0000000  0.6508444  3
   1354   1366   1372   2850     1  0.0000000  0.6508444  3
   1357   1350   1351   1363     1  0.0000000  0.6508444  3
   1357   1350   1354   1366     1  0.0000000  0.6508444  3
   1357   1360   1369   1378     1  0.0000000  0.6508444  3
   1363   1375   2882   2852     1  180.0000771  0.4184000  2
   1363   1375   2882   2852     1  0.0000000  1.6024720  3
   1366   1372   2850   2820     1  180.0000771  0.4184000  2
   1366   1372   2850   2820     1  0.0000000  1.6024720  3
   1372   2850   2820   2823     1  180.0000771  0.4184000  2
   1372   2850   2820   2823     1  0.0000000  1.6024720  3
   1375   2882   2852   2855     1  180.0000771  0.4184000  2
   1375   2882   2852   2855     1  0.0000000  1.6024720  3
   1380   1381   1393   1405     1  0.0000000  0.6508444  3
   1380   1384   1396   1402     1  0.0000000  0.6508444  3
   1380   1387   1390   1399     1  0.0000000  0.6508444  3
   1381   1380   1384   1396     1  0.0000000  0.6508444  3
   1381   1380   1387   1390     1  0.0000000  0.6508444  3
   1381   1393   1405   2946     1  0.0000000  0.6508444  3
   1384   1380   1381   1393     1  0.0000000  0.6508444  3
   1384   1380   1387   1390     1  0.0000000  0.6508444  3
   1384   1396   1402   2914     1  0.0000000  0.6508444  3
   1387   1380   1381   1393     1  0.0000000  0.6508444  3
   1387   1380   1384   1396     1  0.0000000  0.6508444  3
   1387   1390   1399   1408     1  0.0000000  0.6508444  3
   1393   1405   2946   2916     1  180.0000771  0.4184000  2
   1393   1405   2946   2916     1  0.0000000  1.6024720  3
   1396   1402   2914   2884     1  180.0000771  0.4184000  2
   1396   1402   2914   2884     1  0.0000000  1.6024720  3
   1402   2914   2884   2887     1  180.0000771  0.4184000  2
   1402   2914   2884   2887     1  0.0000000  1.6024720  3
   1405   2946   2916   2919     1  180.0000771  0.4184000  2
   1405   2946   2916   2919     1  0.0000000  1.6024720  3
   1410   1411   1423   1435     1  0.0000000  0.6508444  3
   1410   1414   1426   1432     1  0.0000000  0.6508444  3
   1410   1417   1420   1429     1  0.0000000  0.6508444  3
   1411   1410   1414   1426     1  0.0000000  0.6508444  3
   1411   1410   1417   1420     1  0.0000000  0.6508444  3
   1411   1423   1435   3010     1  0.0000000  0.6508444  3
   1414   1410   1411   1423     1  0.0000000  0.6508444  3
   1414   1410   1417   1420     1  0.0000000  0.6508444  3
   1414   1426   1432   2978     1  0.0000000  0.6508444  3
   1417   1410   1411   1423     1  0.0000000  0.6508444  3
   1417   1410   1414   1426     1  0.0000000  0.6508444  3
   1417   1420   1429   1438     1  0.0000000  0.6508444  3
   1423   1435   3010   2980     1  180.0000771  0.4184000  2
   1423   1435   3010   2980     1  0.0000000  1.6024720  3
   1426   1432   2978   2948     1  180.0000771  0.4184000  2
   1426   1432   2978   2948     1  0.0000000  1.6024720  3
   1432   2978   2948   2951     1  180.0000771  0.4184000  2
   1432   2978   2948   2951     1  0.0000000  1.6024720  3
   1435   3010   2980   2983     1  180.0000771  0.4184000  2
   1435   3010   2980   2983     1  0.0000000  1.6024720  3
   1440   1441   1453   1465     1  0.0000000  0.6508444  3
   1440   1444   1456   1462     1  0.0000000  0.6508444  3
   1440   1447   1450   1459     1  0.0000000  0.6508444  3
   1441   1440   1444   1456     1  0.0000000  0.6508444  3
   1441   1440   1447   1450     1  0.0000000  0.6508444  3
   1441   1453   1465   3074     1  0.0000000  0.6508444  3
   1444   1440   1441   1453     1  0.0000000  0.6508444  3
   1444   1440   1447   1450     1  0.0000000  0.6508444  3
   1444   1456   1462   3042     1  0.0000000  0.6508444  3
   1447   1440   1441   1453     1  0.0000000  0.6508444  3
   1447   1440   1444   1456     1  0.0000000  0.6508444  3
   1447   1450   1459   1468     1  0.0000000  0.6508444  3
   1453   1465   3074   3044     1  180.0000771  0.4184000  2
   1453   1465   3074   3044     1  0.0000000  1.6024720  3
   1456   1462   3042   3012     1  180.0000771  0.4184000  2
   1456   1462   3042   3012     1  0.0000000  1.6024720  3
   1462   3042   3012   3015     1  180.0000771  0.4184000  2
   1462   3042   3012   3015     1  0.0000000  1.6024720  3
   1465   3074   3044   3047     1  180.0000771  0.4184000  2
   1465   3074   3044   3047     1  0.0000000  1.6024720  3
   1470   1471   1483   1495     1  0.0000000  0.6508444  3
   1470   1474   1486   1492     1  0.0000000  0.6508444  3
   1470   1477   1480   1489     1  0.0000000  0.6508444  3
   1471   1470   1474   1486     1  0.0000000  0.6508444  3
   1471   1470   1477   1480     1  0.0000000  0.6508444  3
   1471   1483   1495   3138     1  0.0000000  0.6508444  3
   1474   1470   1471   1483     1  0.0000000  0.6508444  3
   1474   1470   1477   1480     1  0.0000000  0.6508444  3
   1474   1486   1492   3106     1  0.0000000  0.6508444  3
   1477   1470   1471   1483     1  0.0000000  0.6508444  3
   1477   1470   1474   1486     1  0.0000000  0.6508444  3
   1477   1480   1489   1498     1  0.0000000  0.6508444  3
   1483   1495   3138   3108     1  180.0000771  0.4184000  2
   1483   1495   3138   3108     1  0.0000000  1.6024720  3
   1486   1492   3106   3076     1  180.0000771  0.4184000  2
   1486   1492   3106   3076     1  0.0000000  1.6024720  3
   1492   3106   3076   3079     1  180.0000771  0.4184000  2
   1492   3106   3076   3079     1  0.0000000  1.6024720  3
   1495   3138   3108   3111     1  180.0000771  0.4184000  2
   1495   3138   3108   3111     1  0.0000000  1.6024720  3
   1500   1501   1513   1525     1  0.0000000  0.6508444  3
   1500   1504   1516   1522     1  0.0000000  0.6508444  3
   1500   1507   1510   1519     1  0.0000000  0.6508444  3
   1501   1500   1504   1516     1  0.0000000  0.6508444  3
   1501   1500   1507   1510     1  0.0000000  0.6508444  3
   1501   1513   1525   3202     1  0.0000000  0.6508444  3
   1504   1500   1501   1513     1  0.0000000  0.6508444  3
   1504   1500   1507   1510     1  0.0000000  0.6508444  3
   1504   1516   1522   3170     1  0.0000000  0.6508444  3
   1507   1500   1501   1513     1  0.0000000  0.6508444  3
   1507   1500   1504   1516     1  0.0000000  0.6508444  3
   1507   1510   1519   1528     1  0.0000000  0.6508444  3
   1513   1525   3202   3172     1  180.0000771  0.4184000  2
   1513   1525   3202   3172     1  0.0000000  1.6024720  3
   1516   1522   3170   3140     1  180.0000771  0.4184000  2
   1516   1522   3170   3140     1  0.0000000  1.6024720  3
   1522   3170   3140   3143     1  180.0000771  0.4184000  2
   1522   3170   3140   3143     1  0.0000000  1.6024720  3
   1525   3202   3172   3175     1  180.0000771  0.4184000  2
   1525   3202   3172   3175     1  0.0000000  1.6024720  3
   1530   1531   1543   1555     1  0.0000000  0.6508444  3
   1530   1534   1546   1552     1  0.0000000  0.6508444  3
   1530   1537   1540   1549     1  0.0000000  0.6508444  3
   1531   1530   1534   1546     1  0.0000000  0.6508444  3
   1531   1530   1537   1540     1  0.0000000  0.6508444  3
   1531   1543   1555   3266     1  0.0000000  0.6508444  3
   1534   1530   1531   1543     1  0.0000000  0.6508444  3
   1534   1530   1537   1540     1  0.0000000  0.6508444  3
   1534   1546   1552   3234     1  0.0000000  0.6508444  3
   1537   1530   1531   1543     1  0.0000000  0.6508444  3
   1537   1530   1534   1546     1  0.0000000  0.6508444  3
   1537   1540   1549   1558     1  0.0000000  0.6508444  3
   1543   1555   3266   3236     1  180.0000771  0.4184000  2
   1543   1555   3266   3236     1  0.0000000  1.6024720  3
   1546   1552   3234   3204     1  180.0000771  0.4184000  2
   1546   1552   3234   3204     1  0.0000000  1.6024720  3
   1552   3234   3204   3207     1  180.0000771  0.4184000  2
   1552   3234   3204   3207     1  0.0000000  1.6024720  3
   1555   3266   3236   3239     1  180.0000771  0.4184000  2
   1555   3266   3236   3239     1  0.0000000  1.6024720  3
   1560   1561   1573   1585     1  0.0000000  0.6508444  3
   1560   1564   1576   1582     1  0.0000000  0.6508444  3
   1560   1567   1570   1579     1  0.0000000  0.6508444  3
   1561   1560   1564   1576     1  0.0000000  0.6508444  3
   1561   1560   1567   1570     1  0.0000000  0.6508444  3
   1561   1573   1585   3330     1  0.0000000  0.6508444  3
   1564   1560   1561   1573     1  0.0000000  0.6508444  3
   1564   1560   1567   1570     1  0.0000000  0.6508444  3
   1564   1576   1582   3298     1  0.0000000  0.6508444  3
   1567   1560   1561   1573     1  0.0000000  0.6508444  3
   1567   1560   1564   1576     1  0.0000000  0.6508444  3
   1567   1570   1579   1588     1  0.0000000  0.6508444  3
   1573   1585   3330   3300     1  180.0000771  0.4184000  2
   1573   1585   3330   3300     1  0.0000000  1.6024720  3
   1576   1582   3298   3268     1  180.0000771  0.4184000  2
   1576   1582   3298   3268     1  0.0000000  1.6024720  3
   1582   3298   3268   3271     1  180.0000771  0.4184000  2
   1582   3298   3268   3271     1  0.0000000  1.6024720  3
   1585   3330   3300   3303     1  180.0000771  0.4184000  2
   1585   3330   3300   3303     1  0.0000000  1.6024720  3
   1590   1591   1603   1615     1  0.0000000  0.6508444  3
   1590   1594   1606   1612     1  0.0000000  0.6508444  3
   1590   1597   1600   1609     1  0.0000000  0.6508444  3
   1591   1590   1594   1606     1  0.0000000  0.6508444  3
   1591   1590   1597   1600     1  0.0000000  0.6508444  3
   1591   1603   1615   3394     1  0.0000000  0.6508444  3
   1594   1590   1591   1603     1  0.0000000  0.6508444  3
   1594   1590   1597   1600     1  0.0000000  0.6508444  3
   1594   1606   1612   3362     1  0.0000000  0.6508444  3
   1597   1590   1591   1603     1  0.0000000  0.6508444  3
   1597   1590   1594   1606     1  0.0000000  0.6508444  3
   1597   1600   1609   1618     1  0.0000000  0.6508444  3
   1603   1615   3394   3364     1  180.0000771  0.4184000  2
   1603   1615   3394   3364     1  0.0000000  1.6024720  3
   1606   1612   3362   3332     1  180.0000771  0.4184000  2
   1606   1612   3362   3332     1  0.0000000  1.6024720  3
   1612   3362   3332   3335     1  180.0000771  0.4184000  2
   1612   3362   3332   3335     1  0.0000000  1.6024720  3
   1615   3394   3364   3367     1  180.0000771  0.4184000  2
   1615   3394   3364   3367     1  0.0000000  1.6024720  3
   1620   1621   1633   1645     1  0.0000000  0.6508444  3
   1620   1624   1636   1642     1  0.0000000  0.6508444  3
   1620   1627   1630   1639     1  0.0000000  0.6508444  3
   1621   1620   1624   1636     1  0.0000000  0.6508444  3
   1621   1620   1627   1630     1  0.0000000  0.6508444  3
   1621   1633   1645   3458     1  0.0000000  0.6508444  3
   1624   1620   1621   1633     1  0.0000000  0.6508444  3
   1624   1620   1627   1630     1  0.0000000  0.6508444  3
   1624   1636   1642   3426     1  0.0000000  0.6508444  3
   1627   1620   1621   1633     1  0.0000000  0.6508444  3
   1627   1620   1624   1636     1  0.0000000  0.6508444  3
   1627   1630   1639   1648     1  0.0000000  0.6508444  3
   1633   1645   3458   3428     1  180.0000771  0.4184000  2
   1633   1645   3458   3428     1  0.0000000  1.6024720  3
   1636   1642   3426   3396     1  180.0000771  0.4184000  2
   1636   1642   3426   3396     1  0.0000000  1.6024720  3
   1642   3426   3396   3399     1  180.0000771  0.4184000  2
   1642   3426   3396   3399     1  0.0000000  1.6024720  3
   1645   3458   3428   3431     1  180.0000771  0.4184000  2
   1645   3458   3428   3431     1  0.0000000  1.6024720  3
   1650   1651   1663   1675     1  0.0000000  0.6508444  3
   1650   1654   1666   1672     1  0.0000000  0.6508444  3
   1650   1657   1660   1669     1  0.0000000  0.6508444  3
   1651   1650   1654   1666     1  0.0000000  0.6508444  3
   1651   1650   1657   1660     1  0.0000000  0.6508444  3
   1651   1663   1675   3522     1  0.0000000  0.6508444  3
   1654   1650   1651   1663     1  0.0000000  0.6508444  3
   1654   1650   1657   1660     1  0.0000000  0.6508444  3
   1654   1666   1672   3490     1  0.0000000  0.6508444  3
   1657   1650   1651   1663     1  0.0000000  0.6508444  3
   1657   1650   1654   1666     1  0.0000000  0.6508444  3
   1657   1660   1669   1678     1  0.0000000  0.6508444  3
   1663   1675   3522   3492     1  180.0000771  0.4184000  2
   1663   1675   3522   3492     1  0.0000000  1.6024720  3
   1666   1672   3490   3460     1  180.0000771  0.4184000  2
   1666   1672   3490   3460     1  0.0000000  1.6024720  3
   1672   3490   3460   3463     1  180.0000771  0.4184000  2
   1672   3490   3460   3463     1  0.0000000  1.6024720  3
   1675   3522   3492   3495     1  180.0000771  0.4184000  2
   1675   3522   3492   3495     1  0.0000000  1.6024720  3
   1680   1681   1693   1705     1  0.0000000  0.6508444  3
   1680   1684   1696   1702     1  0.0000000  0.6508444  3
   1680   1687   1690   1699     1  0.0000000  0.6508444  3
   1681   1680   1684   1696     1  0.0000000  0.6508444  3
   1681   1680   1687   1690     1  0.0000000  0.6508444  3
   1681   1693   1705   3586     1  0.0000000  0.6508444  3
   1684   1680   1681   1693     1  0.0000000  0.6508444  3
   1684   1680   1687   1690     1  0.0000000  0.6508444  3
   1684   1696   1702   3554     1  0.0000000  0.6508444  3
   1687   1680   1681   1693     1  0.0000000  0.6508444  3
   1687   1680   1684   1696     1  0.0000000  0.6508444  3
   1687   1690   1699   1708     1  0.0000000  0.6508444  3
   1693   1705   3586   3556     1  180.0000771  0.4184000  2
   1693   1705   3586   3556     1  0.0000000  1.6024720  3
   1696   1702   3554   3524     1  180.0000771  0.4184000  2
   1696   1702   3554   3524     1  0.0000000  1.6024720  3
   1702   3554   3524   3527     1  180.0000771  0.4184000  2
   1702   3554   3524   3527     1  0.0000000  1.6024720  3
   1705   3586   3556   3559     1  180.0000771  0.4184000  2
   1705   3586   3556   3559     1  0.0000000  1.6024720  3
   1710   1711   1723   1735     1  0.0000000  0.6508444  3
   1710   1714   1726   1732     1  0.0000000  0.6508444  3
   1710   1717   1720   1729     1  0.0000000  0.6508444  3
   1711   1710   1714   1726     1  0.0000000  0.6508444  3
   1711   1710   1717   1720     1  0.0000000  0.6508444  3
   1711   1723   1735   3650     1  0.0000000  0.6508444  3
   1714   1710   1711   1723     1  0.0000000  0.6508444  3
   1714   1710   1717   1720     1  0.0000000  0.6508444  3
   1714   1726   1732   3618     1  0.0000000  0.6508444  3
   1717   1710   1711   1723     1  0.0000000  0.6508444  3
   1717   1710   1714   1726     1  0.0000000  0.6508444  3
   1717   1720   1729   1738     1  0.0000000  0.6508444  3
   1723   1735   3650   3620     1  180.0000771  0.4184000  2
   1723   1735   3650   3620     1  0.0000000  1.6024720  3
   1726   1732   3618   3588     1  180.0000771  0.4184000  2
   1726   1732   3618   3588     1  0.0000000  1.6024720  3
   1732   3618   3588   3591     1  180.0000771  0.4184000  2
   1732   3618   3588   3591     1  0.0000000  1.6024720  3
   1735   3650   3620   3623     1  180.0000771  0.4184000  2
   1735   3650   3620   3623     1  0.0000000  1.6024720  3
   1740   1741   1753   1765     1  0.0000000  0.6508444  3
   1740   1744   1756   1762     1  0.0000000  0.6508444  3
   1740   1747   1750   1759     1  0.0000000  0.6508444  3
   1741   1740   1744   1756     1  0.0000000  0.6508444  3
   1741   1740   1747   1750     1  0.0000000  0.6508444  3
   1741   1753   1765   3714     1  0.0000000  0.6508444  3
   1744   1740   1741   1753     1  0.0000000  0.6508444  3
   1744   1740   1747   1750     1  0.0000000  0.6508444  3
   1744   1756   1762   3682     1  0.0000000  0.6508444  3
   1747   1740   1741   1753     1  0.0000000  0.6508444  3
   1747   1740   1744   1756     1  0.0000000  0.6508444  3
   1747   1750   1759   1768     1  0.0000000  0.6508444  3
   1753   1765   3714   3684     1  180.0000771  0.4184000  2
   1753   1765   3714   3684     1  0.0000000  1.6024720  3
   1756   1762   3682   3652     1  180.0000771  0.4184000  2
   1756   1762   3682   3652     1  0.0000000  1.6024720  3
   1762   3682   3652   3655     1  180.0000771  0.4184000  2
   1762   3682   3652   3655     1  0.0000000  1.6024720  3
   1765   3714   3684   3687     1  180.0000771  0.4184000  2
   1765   3714   3684   3687     1  0.0000000  1.6024720  3
   1770   1771   1783   1795     1  0.0000000  0.6508444  3
   1770   1774   1786   1792     1  0.0000000  0.6508444  3
   1770   1777   1780   1789     1  0.0000000  0.6508444  3
   1771   1770   1774   1786     1  0.0000000  0.6508444  3
   1771   1770   1777   1780     1  0.0000000  0.6508444  3
   1771   1783   1795   3778     1  0.0000000  0.6508444  3
   1774   1770   1771   1783     1  0.0000000  0.6508444  3
   1774   1770   1777   1780     1  0.0000000  0.6508444  3
   1774   1786   1792   3746     1  0.0000000  0.6508444  3
   1777   1770   1771   1783     1  0.0000000  0.6508444  3
   1777   1770   1774   1786     1  0.0000000  0.6508444  3
   1777   1780   1789   1798     1  0.0000000  0.6508444  3
   1783   1795   3778   3748     1  180.0000771  0.4184000  2
   1783   1795   3778   3748     1  0.0000000  1.6024720  3
   1786   1792   3746   3716     1  180.0000771  0.4184000  2
   1786   1792   3746   3716     1  0.0000000  1.6024720  3
   1792   3746   3716   3719     1  180.0000771  0.4184000  2
   1792   3746   3716   3719     1  0.0000000  1.6024720  3
   1795   3778   3748   3751     1  180.0000771  0.4184000  2
   1795   3778   3748   3751     1  0.0000000  1.6024720  3
   1800   1801   1813   1825     1  0.0000000  0.6508444  3
   1800   1804   1816   1822     1  0.0000000  0.6508444  3
   1800   1807   1810   1819     1  0.0000000  0.6508444  3
   1801   1800   1804   1816     1  0.0000000  0.6508444  3
   1801   1800   1807   1810     1  0.0000000  0.6508444  3
   1801   1813   1825   3842     1  0.0000000  0.6508444  3
   1804   1800   1801   1813     1  0.0000000  0.6508444  3
   1804   1800   1807   1810     1  0.0000000  0.6508444  3
   1804   1816   1822   3810     1  0.0000000  0.6508444  3
   1807   1800   1801   1813     1  0.0000000  0.6508444  3
   1807   1800   1804   1816     1  0.0000000  0.6508444  3
   1807   1810   1819   1828     1  0.0000000  0.6508444  3
   1813   1825   3842   3812     1  180.0000771  0.4184000  2
   1813   1825   3842   3812     1  0.0000000  1.6024720  3
   1816   1822   3810   3780     1  180.0000771  0.4184000  2
   1816   1822   3810   3780     1  0.0000000  1.6024720  3
   1822   3810   3780   3783     1  180.0000771  0.4184000  2
   1822   3810   3780   3783     1  0.0000000  1.6024720  3
   1825   3842   3812   3815     1  180.0000771  0.4184000  2
   1825   3842   3812   3815     1  0.0000000  1.6024720  3
   1830   1831   1843   1855     1  0.0000000  0.6508444  3
   1830   1834   1846   1852     1  0.0000000  0.6508444  3
   1830   1837   1840   1849     1  0.0000000  0.6508444  3
   1831   1830   1834   1846     1  0.0000000  0.6508444  3
   1831   1830   1837   1840     1  0.0000000  0.6508444  3
   1831   1843   1855   3906     1  0.0000000  0.6508444  3
   1834   1830   1831   1843     1  0.0000000  0.6508444  3
   1834   1830   1837   1840     1  0.0000000  0.6508444  3
   1834   1846   1852   3874     1  0.0000000  0.6508444  3
   1837   1830   1831   1843     1  0.0000000  0.6508444  3
   1837   1830   1834   1846     1  0.0000000  0.6508444  3
   1837   1840   1849   1858     1  0.0000000  0.6508444  3
   1843   1855   3906   3876     1  180.0000771  0.4184000  2
   1843   1855   3906   3876     1  0.0000000  1.6024720  3
   1846   1852   3874   3844     1  180.0000771  0.4184000  2
   1846   1852   3874   3844     1  0.0000000  1.6024720  3
   1852   3874   3844   3847     1  180.0000771  0.4184000  2
   1852   3874   3844   3847     1  0.0000000  1.6024720  3
   1855   3906   3876   3879     1  180.0000771  0.4184000  2
   1855   3906   3876   3879     1  0.0000000  1.6024720  3
   1860   1863   1866   1869     1  0.0000000  0.6508444  3
   1863   1866   1869   1870     1  0.0000000  0.6508444  3
   1863   1866   1869   1880     1  0.0000000  0.6508444  3
   1866   1863   1860   1890     1  0.0000000  0.6508444  3
   1866   1869   1870   1873     1  0.0000000  0.6508444  3
   1866   1869   1880   1883     1  0.0000000  0.6508444  3
   1869   1870   1873   1876     1  0.0000000  0.6508444  3
   1869   1880   1883   1886     1  0.0000000  0.6508444  3
   1870   1869   1880   1883     1  0.0000000  0.6508444  3
   1870   1873   1876   1877     1  180.0000771  0.0000000  2
   1870   1873   1876   1878     1  180.0000771  0.0000000  2
   1873   1870   1869   1880     1  0.0000000  0.6508444  3
   1880   1883   1886   1887     1  180.0000771  0.0000000  2
   1880   1883   1886   1888     1  180.0000771  0.0000000  2
   1892   1895   1898   1901     1  0.0000000  0.6508444  3
   1895   1898   1901   1902     1  0.0000000  0.6508444  3
   1895   1898   1901   1912     1  0.0000000  0.6508444  3
   1898   1901   1902   1905     1  0.0000000  0.6508444  3
   1898   1901   1912   1915     1  0.0000000  0.6508444  3
   1898   1895   1892   1922     1  0.0000000  0.6508444  3
   1901   1902   1905   1908     1  0.0000000  0.6508444  3
   1901   1912   1915   1918     1  0.0000000  0.6508444  3
   1902   1905   1908   1909     1  180.0000771  0.0000000  2
   1902   1905   1908   1910     1  180.0000771  0.0000000  2
   1902   1901   1912   1915     1  0.0000000  0.6508444  3
   1905   1902   1901   1912     1  0.0000000  0.6508444  3
   1912   1915   1918   1919     1  180.0000771  0.0000000  2
   1912   1915   1918   1920     1  180.0000771  0.0000000  2
   1924   1927   1930   1933     1  0.0000000  0.6508444  3
   1927   1930   1933   1934     1  0.0000000  0.6508444  3
   1927   1930   1933   1944     1  0.0000000  0.6508444  3
   1930   1927   1924   1954     1  0.0000000  0.6508444  3
   1930   1933   1934   1937     1  0.0000000  0.6508444  3
   1930   1933   1944   1947     1  0.0000000  0.6508444  3
   1933   1934   1937   1940     1  0.0000000  0.6508444  3
   1933   1944   1947   1950     1  0.0000000  0.6508444  3
   1934   1933   1944   1947     1  0.0000000  0.6508444  3
   1934   1937   1940   1941     1  180.0000771  0.0000000  2
   1934   1937   1940   1942     1  180.0000771  0.0000000  2
   1937   1934   1933   1944     1  0.0000000  0.6508444  3
   1944   1947   1950   1951     1  180.0000771  0.0000000  2
   1944   1947   1950   1952     1  180.0000771  0.0000000  2
   1956   1959   1962   1965     1  0.0000000  0.6508444  3
   1959   1962   1965   1966     1  0.0000000  0.6508444  3
   1959   1962   1965   1976     1  0.0000000  0.6508444  3
   1962   1965   1966   1969     1  0.0000000  0.6508444  3
   1962   1965   1976   1979     1  0.0000000  0.6508444  3
   1962   1959   1956   1986     1  0.0000000  0.6508444  3
   1965   1966   1969   1972     1  0.0000000  0.6508444  3
   1965   1976   1979   1982     1  0.0000000  0.6508444  3
   1966   1969   1972   1973     1  180.0000771  0.0000000  2
   1966   1969   1972   1974     1  180.0000771  0.0000000  2
   1966   1965   1976   1979     1  0.0000000  0.6508444  3
   1969   1966   1965   1976     1  0.0000000  0.6508444  3
   1976   1979   1982   1983     1  180.0000771  0.0000000  2
   1976   1979   1982   1984     1  180.0000771  0.0000000  2
   1988   1991   1994   1997     1  0.0000000  0.6508444  3
   1991   1994   1997   1998     1  0.0000000  0.6508444  3
   1991   1994   1997   2008     1  0.0000000  0.6508444  3
   1994   1991   1988   2018     1  0.0000000  0.6508444  3
   1994   1997   1998   2001     1  0.0000000  0.6508444  3
   1994   1997   2008   2011     1  0.0000000  0.6508444  3
   1997   1998   2001   2004     1  0.0000000  0.6508444  3
   1997   2008   2011   2014     1  0.0000000  0.6508444  3
   1998   1997   2008   2011     1  0.0000000  0.6508444  3
   1998   2001   2004   2005     1  180.0000771  0.0000000  2
   1998   2001   2004   2006     1  180.0000771  0.0000000  2
   2001   1998   1997   2008     1  0.0000000  0.6508444  3
   2008   2011   2014   2015     1  180.0000771  0.0000000  2
   2008   2011   2014   2016     1  180.0000771  0.0000000  2
   2020   2023   2026   2029     1  0.0000000  0.6508444  3
   2023   2026   2029   2030     1  0.0000000  0.6508444  3
   2023   2026   2029   2040     1  0.0000000  0.6508444  3
   2026   2029   2030   2033     1  0.0000000  0.6508444  3
   2026   2029   2040   2043     1  0.0000000  0.6508444  3
   2026   2023   2020   2050     1  0.0000000  0.6508444  3
   2029   2030   2033   2036     1  0.0000000  0.6508444  3
   2029   2040   2043   2046     1  0.0000000  0.6508444  3
   2030   2033   2036   2037     1  180.0000771  0.0000000  2
   2030   2033   2036   2038     1  180.0000771  0.0000000  2
   2030   2029   2040   2043     1  0.0000000  0.6508444  3
   2033   2030   2029   2040     1  0.0000000  0.6508444  3
   2040   2043   2046   2047     1  180.0000771  0.0000000  2
   2040   2043   2046   2048     1  180.0000771  0.0000000  2
   2052   2055   2058   2061     1  0.0000000  0.6508444  3
   2055   2058   2061   2062     1  0.0000000  0.6508444  3
   2055   2058   2061   2072     1  0.0000000  0.6508444  3
   2058   2055   2052   2082     1  0.0000000  0.6508444  3
   2058   2061   2062   2065     1  0.0000000  0.6508444  3
   2058   2061   2072   2075     1  0.0000000  0.6508444  3
   2061   2062   2065   2068     1  0.0000000  0.6508444  3
   2061   2072   2075   2078     1  0.0000000  0.6508444  3
   2062   2061   2072   2075     1  0.0000000  0.6508444  3
   2062   2065   2068   2069     1  180.0000771  0.0000000  2
   2062   2065   2068   2070     1  180.0000771  0.0000000  2
   2065   2062   2061   2072     1  0.0000000  0.6508444  3
   2072   2075   2078   2079     1  180.0000771  0.0000000  2
   2072   2075   2078   2080     1  180.0000771  0.0000000  2
   2084   2087   2090   2093     1  0.0000000  0.6508444  3
   2087   2090   2093   2094     1  0.0000000  0.6508444  3
   2087   2090   2093   2104     1  0.0000000  0.6508444  3
   2090   2093   2094   2097     1  0.0000000  0.6508444  3
   2090   2093   2104   2107     1  0.0000000  0.6508444  3
   2090   2087   2084   2114     1  0.0000000  0.6508444  3
   2093   2094   2097   2100     1  0.0000000  0.6508444  3
   2093   2104   2107   2110     1  0.0000000  0.6508444  3
   2094   2097   2100   2101     1  180.0000771  0.0000000  2
   2094   2097   2100   2102     1  180.0000771  0.0000000  2
   2094   2093   2104   2107     1  0.0000000  0.6508444  3
   2097   2094   2093   2104     1  0.0000000  0.6508444  3
   2104   2107   2110   2111     1  180.0000771  0.0000000  2
   2104   2107   2110   2112     1  180.0000771  0.0000000  2
   2116   2119   2122   2125     1  0.0000000  0.6508444  3
   2119   2122   2125   2126     1  0.0000000  0.6508444  3
   2119   2122   2125   2136     1  0.0000000  0.6508444  3
   2122   2119   2116   2146     1  0.0000000  0.6508444  3
   2122   2125   2126   2129     1  0.0000000  0.6508444  3
   2122   2125   2136   2139     1  0.0000000  0.6508444  3
   2125   2126   2129   2132     1  0.0000000  0.6508444  3
   2125   2136   2139   2142     1  0.0000000  0.6508444  3
   2126   2125   2136   2139     1  0.0000000  0.6508444  3
   2126   2129   2132   2133     1  180.0000771  0.0000000  2
   2126   2129   2132   2134     1  180.0000771  0.0000000  2
   2129   2126   2125   2136     1  0.0000000  0.6508444  3
   2136   2139   2142   2143     1  180.0000771  0.0000000  2
   2136   2139   2142   2144     1  180.0000771  0.0000000  2
   2148   2151   2154   2157     1  0.0000000  0.6508444  3
   2151   2154   2157   2158     1  0.0000000  0.6508444  3
   2151   2154   2157   2168     1  0.0000000  0.6508444  3
   2154   2157   2158   2161     1  0.0000000  0.6508444  3
   2154   2157   2168   2171     1  0.0000000  0.6508444  3
   2154   2151   2148   2178     1  0.0000000  0.6508444  3
   2157   2158   2161   2164     1  0.0000000  0.6508444  3
   2157   2168   2171   2174     1  0.0000000  0.6508444  3
   2158   2161   2164   2165     1  180.0000771  0.0000000  2
   2158   2161   2164   2166     1  180.0000771  0.0000000  2
   2158   2157   2168   2171     1  0.0000000  0.6508444  3
   2161   2158   2157   2168     1  0.0000000  0.6508444  3
   2168   2171   2174   2175     1  180.0000771  0.0000000  2
   2168   2171   2174   2176     1  180.0000771  0.0000000  2
   2180   2183   2186   2189     1  0.0000000  0.6508444  3
   2183   2186   2189   2190     1  0.0000000  0.6508444  3
   2183   2186   2189   2200     1  0.0000000  0.6508444  3
   2186   2183   2180   2210     1  0.0000000  0.6508444  3
   2186   2189   2190   2193     1  0.0000000  0.6508444  3
   2186   2189   2200   2203     1  0.0000000  0.6508444  3
   2189   2190   2193   2196     1  0.0000000  0.6508444  3
   2189   2200   2203   2206     1  0.0000000  0.6508444  3
   2190   2189   2200   2203     1  0.0000000  0.6508444  3
   2190   2193   2196   2197     1  180.0000771  0.0000000  2
   2190   2193   2196   2198     1  180.0000771  0.0000000  2
   2193   2190   2189   2200     1  0.0000000  0.6508444  3
   2200   2203   2206   2207     1  180.0000771  0.0000000  2
   2200   2203   2206   2208     1  180.0000771  0.0000000  2
   2212   2215   2218   2221     1  0.0000000  0.6508444  3
   2215   2218   2221   2222     1  0.0000000  0.6508444  3
   2215   2218   2221   2232     1  0.0000000  0.6508444  3
   2218   2221   2222   2225     1  0.0000000  0.6508444  3
   2218   2221   2232   2235     1  0.0000000  0.6508444  3
   2218   2215   2212   2242     1  0.0000000  0.6508444  3
   2221   2222   2225   2228     1  0.0000000  0.6508444  3
   2221   2232   2235   2238     1  0.0000000  0.6508444  3
   2222   2225   2228   2229     1  180.0000771  0.0000000  2
   2222   2225   2228   2230     1  180.0000771  0.0000000  2
   2222   2221   2232   2235     1  0.0000000  0.6508444  3
   2225   2222   2221   2232     1  0.0000000  0.6508444  3
   2232   2235   2238   2239     1  180.0000771  0.0000000  2
   2232   2235   2238   2240     1  180.0000771  0.0000000  2
   2244   2247   2250   2253     1  0.0000000  0.6508444  3
   2247   2250   2253   2254     1  0.0000000  0.6508444  3
   2247   2250   2253   2264     1  0.0000000  0.6508444  3
   2250   2247   2244   2274     1  0.0000000  0.6508444  3
   2250   2253   2254   2257     1  0.0000000  0.6508444  3
   2250   2253   2264   2267     1  0.0000000  0.6508444  3
   2253   2254   2257   2260     1  0.0000000  0.6508444  3
   2253   2264   2267   2270     1  0.0000000  0.6508444  3
   2254   2253   2264   2267     1  0.0000000  0.6508444  3
   2254   2257   2260   2261     1  180.0000771  0.0000000  2
   2254   2257   2260   2262     1  180.0000771  0.0000000  2
   2257   2254   2253   2264     1  0.0000000  0.6508444  3
   2264   2267   2270   2271     1  180.0000771  0.0000000  2
   2264   2267   2270   2272     1  180.0000771  0.0000000  2
   2276   2279   2282   2285     1  0.0000000  0.6508444  3
   2279   2282   2285   2286     1  0.0000000  0.6508444  3
   2279   2282   2285   2296     1  0.0000000  0.6508444  3
   2282   2285   2286   2289     1  0.0000000  0.6508444  3
   2282   2285   2296   2299     1  0.0000000  0.6508444  3
   2282   2279   2276   2306     1  0.0000000  0.6508444  3
   2285   2286   2289   2292     1  0.0000000  0.6508444  3
   2285   2296   2299   2302     1  0.0000000  0.6508444  3
   2286   2289   2292   2293     1  180.0000771  0.0000000  2
   2286   2289   2292   2294     1  180.0000771  0.0000000  2
   2286   2285   2296   2299     1  0.0000000  0.6508444  3
   2289   2286   2285   2296     1  0.0000000  0.6508444  3
   2296   2299   2302   2303     1  180.0000771  0.0000000  2
   2296   2299   2302   2304     1  180.0000771  0.0000000  2
   2308   2311   2314   2317     1  0.0000000  0.6508444  3
   2311   2314   2317   2318     1  0.0000000  0.6508444  3
   2311   2314   2317   2328     1  0.0000000  0.6508444  3
   2314   2311   2308   2338     1  0.0000000  0.6508444  3
   2314   2317   2318   2321     1  0.0000000  0.6508444  3
   2314   2317   2328   2331     1  0.0000000  0.6508444  3
   2317   2318   2321   2324     1  0.0000000  0.6508444  3
   2317   2328   2331   2334     1  0.0000000  0.6508444  3
   2318   2317   2328   2331     1  0.0000000  0.6508444  3
   2318   2321   2324   2325     1  180.0000771  0.0000000  2
   2318   2321   2324   2326     1  180.0000771  0.0000000  2
   2321   2318   2317   2328     1  0.0000000  0.6508444  3
   2328   2331   2334   2335     1  180.0000771  0.0000000  2
   2328   2331   2334   2336     1  180.0000771  0.0000000  2
   2340   2343   2346   2349     1  0.0000000  0.6508444  3
   2343   2346   2349   2350     1  0.0000000  0.6508444  3
   2343   2346   2349   2360     1  0.0000000  0.6508444  3
   2346   2349   2350   2353     1  0.0000000  0.6508444  3
   2346   2349   2360   2363     1  0.0000000  0.6508444  3
   2346   2343   2340   2370     1  0.0000000  0.6508444  3
   2349   2350   2353   2356     1  0.0000000  0.6508444  3
   2349   2360   2363   2366     1  0.0000000  0.6508444  3
   2350   2353   2356   2357     1  180.0000771  0.0000000  2
   2350   2353   2356   2358     1  180.0000771  0.0000000  2
   2350   2349   2360   2363     1  0.0000000  0.6508444  3
   2353   2350   2349   2360     1  0.0000000  0.6508444  3
   2360   2363   2366   2367     1  180.0000771  0.0000000  2
   2360   2363   2366   2368     1  180.0000771  0.0000000  2
   2372   2375   2378   2381     1  0.0000000  0.6508444  3
   2375   2378   2381   2382     1  0.0000000  0.6508444  3
   2375   2378   2381   2392     1  0.0000000  0.6508444  3
   2378   2375   2372   2402     1  0.0000000  0.6508444  3
   2378   2381   2382   2385     1  0.0000000  0.6508444  3
   2378   2381   2392   2395     1  0.0000000  0.6508444  3
   2381   2382   2385   2388     1  0.0000000  0.6508444  3
   2381   2392   2395   2398     1  0.0000000  0.6508444  3
   2382   2381   2392   2395     1  0.0000000  0.6508444  3
   2382   2385   2388   2389     1  180.0000771  0.0000000  2
   2382   2385   2388   2390     1  180.0000771  0.0000000  2
   2385   2382   2381   2392     1  0.0000000  0.6508444  3
   2392   2395   2398   2399     1  180.0000771  0.0000000  2
   2392   2395   2398   2400     1  180.0000771  0.0000000  2
   2404   2407   2410   2413     1  0.0000000  0.6508444  3
   2407   2410   2413   2414     1  0.0000000  0.6508444  3
   2407   2410   2413   2424     1  0.0000000  0.6508444  3
   2410   2413   2414   2417     1  0.0000000  0.6508444  3
   2410   2413   2424   2427     1  0.0000000  0.6508444  3
   2410   2407   2404   2434     1  0.0000000  0.6508444  3
   2413   2414   2417   2420     1  0.0000000  0.6508444  3
   2413   2424   2427   2430     1  0.0000000  0.6508444  3
   2414   2417   2420   2421     1  180.0000771  0.0000000  2
   2414   2417   2420   2422     1  180.0000771  0.0000000  2
   2414   2413   2424   2427     1  0.0000000  0.6508444  3
   2417   2414   2413   2424     1  0.0000000  0.6508444  3
   2424   2427   2430   2431     1  180.0000771  0.0000000  2
   2424   2427   2430   2432     1  180.0000771  0.0000000  2
   2436   2439   2442   2445     1  0.0000000  0.6508444  3
   2439   2442   2445   2446     1  0.0000000  0.6508444  3
   2439   2442   2445   2456     1  0.0000000  0.6508444  3
   2442   2439   2436   2466     1  0.0000000  0.6508444  3
   2442   2445   2446   2449     1  0.0000000  0.6508444  3
   2442   2445   2456   2459     1  0.0000000  0.6508444  3
   2445   2446   2449   2452     1  0.0000000  0.6508444  3
   2445   2456   2459   2462     1  0.0000000  0.6508444  3
   2446   2445   2456   2459     1  0.0000000  0.6508444  3
   2446   2449   2452   2453     1  180.0000771  0.0000000  2
   2446   2449   2452   2454     1  180.0000771  0.0000000  2
   2449   2446   2445   2456     1  0.0000000  0.6508444  3
   2456   2459   2462   2463     1  180.0000771  0.0000000  2
   2456   2459   2462   2464     1  180.0000771  0.0000000  2
   2468   2471   2474   2477     1  0.0000000  0.6508444  3
   2471   2474   2477   2478     1  0.0000000  0.6508444  3
   2471   2474   2477   2488     1  0.0000000  0.6508444  3
   2474   2477   2478   2481     1  0.0000000  0.6508444  3
   2474   2477   2488   2491     1  0.0000000  0.6508444  3
   2474   2471   2468   2498     1  0.0000000  0.6508444  3
   2477   2478   2481   2484     1  0.0000000  0.6508444  3
   2477   2488   2491   2494     1  0.0000000  0.6508444  3
   2478   2481   2484   2485     1  180.0000771  0.0000000  2
   2478   2481   2484   2486     1  180.0000771  0.0000000  2
   2478   2477   2488   2491     1  0.0000000  0.6508444  3
   2481   2478   2477   2488     1  0.0000000  0.6508444  3
   2488   2491   2494   2495     1  180.0000771  0.0000000  2
   2488   2491   2494   2496     1  180.0000771  0.0000000  2
   2500   2503   2506   2509     1  0.0000000  0.6508444  3
   2503   2506   2509   2510     1  0.0000000  0.6508444  3
   2503   2506   2509   2520     1  0.0000000  0.6508444  3
   2506   2503   2500   2530     1  0.0000000  0.6508444  3
   2506   2509   2510   2513     1  0.0000000  0.6508444  3
   2506   2509   2520   2523     1  0.0000000  0.6508444  3
   2509   2510   2513   2516     1  0.0000000  0.6508444  3
   2509   2520   2523   2526     1  0.0000000  0.6508444  3
   2510   2509   2520   2523     1  0.0000000  0.6508444  3
   2510   2513   2516   2517     1  180.0000771  0.0000000  2
   2510   2513   2516   2518     1  180.0000771  0.0000000  2
   2513   2510   2509   2520     1  0.0000000  0.6508444  3
   2520   2523   2526   2527     1  180.0000771  0.0000000  2
   2520   2523   2526   2528     1  180.0000771  0.0000000  2
   2532   2535   2538   2541     1  0.0000000  0.6508444  3
   2535   2538   2541   2542     1  0.0000000  0.6508444  3
   2535   2538   2541   2552     1  0.0000000  0.6508444  3
   2538   2541   2542   2545     1  0.0000000  0.6508444  3
   2538   2541   2552   2555     1  0.0000000  0.6508444  3
   2538   2535   2532   2562     1  0.0000000  0.6508444  3
   2541   2542   2545   2548     1  0.0000000  0.6508444  3
   2541   2552   2555   2558     1  0.0000000  0.6508444  3
   2542   2545   2548   2549     1  180.0000771  0.0000000  2
   2542   2545   2548   2550     1  180.0000771  0.0000000  2
   2542   2541   2552   2555     1  0.0000000  0.6508444  3
   2545   2542   2541   2552     1  0.0000000  0.6508444  3
   2552   2555   2558   2559     1  180.0000771  0.0000000  2
   2552   2555   2558   2560     1  180.0000771  0.0000000  2
   2564   2567   2570   2573     1  0.0000000  0.6508444  3
   2567   2570   2573   2574     1  0.0000000  0.6508444  3
   2567   2570   2573   2584     1  0.0000000  0.6508444  3
   2570   2567   2564   2594     1  0.0000000  0.6508444  3
   2570   2573   2574   2577     1  0.0000000  0.6508444  3
   2570   2573   2584   2587     1  0.0000000  0.6508444  3
   2573   2574   2577   2580     1  0.0000000  0.6508444  3
   2573   2584   2587   2590     1  0.0000000  0.6508444  3
   2574   2573   2584   2587     1  0.0000000  0.6508444  3
   2574   2577   2580   2581     1  180.0000771  0.0000000  2
   2574   2577   2580   2582     1  180.0000771  0.0000000  2
   2577   2574   2573   2584     1  0.0000000  0.6508444  3
   2584   2587   2590   2591     1  180.0000771  0.0000000  2
   2584   2587   2590   2592     1  180.0000771  0.0000000  2
   2596   2599   2602   2605     1  0.0000000  0.6508444  3
   2599   2602   2605   2606     1  0.0000000  0.6508444  3
   2599   2602   2605   2616     1  0.0000000  0.6508444  3
   2602   2605   2606   2609     1  0.0000000  0.6508444  3
   2602   2605   2616   2619     1  0.0000000  0.6508444  3
   2602   2599   2596   2626     1  0.0000000  0.6508444  3
   2605   2606   2609   2612     1  0.0000000  0.6508444  3
   2605   2616   2619   2622     1  0.0000000  0.6508444  3
   2606   2609   2612   2613     1  180.0000771  0.0000000  2
   2606   2609   2612   2614     1  180.0000771  0.0000000  2
   2606   2605   2616   2619     1  0.0000000  0.6508444  3
   2609   2606   2605   2616     1  0.0000000  0.6508444  3
   2616   2619   2622   2623     1  180.0000771  0.0000000  2
   2616   2619   2622   2624     1  180.0000771  0.0000000  2
   2628   2631   2634   2637     1  0.0000000  0.6508444  3
   2631   2634   2637   2638     1  0.0000000  0.6508444  3
   2631   2634   2637   2648     1  0.0000000  0.6508444  3
   2634   2631   2628   2658     1  0.0000000  0.6508444  3
   2634   2637   2638   2641     1  0.0000000  0.6508444  3
   2634   2637   2648   2651     1  0.0000000  0.6508444  3
   2637   2638   2641   2644     1  0.0000000  0.6508444  3
   2637   2648   2651   2654     1  0.0000000  0.6508444  3
   2638   2637   2648   2651     1  0.0000000  0.6508444  3
   2638   2641   2644   2645     1  180.0000771  0.0000000  2
   2638   2641   2644   2646     1  180.0000771  0.0000000  2
   2641   2638   2637   2648     1  0.0000000  0.6508444  3
   2648   2651   2654   2655     1  180.0000771  0.0000000  2
   2648   2651   2654   2656     1  180.0000771  0.0000000  2
   2660   2663   2666   2669     1  0.0000000  0.6508444  3
   2663   2666   2669   2670     1  0.0000000  0.6508444  3
   2663   2666   2669   2680     1  0.0000000  0.6508444  3
   2666   2669   2670   2673     1  0.0000000  0.6508444  3
   2666   2669   2680   2683     1  0.0000000  0.6508444  3
   2666   2663   2660   2690     1  0.0000000  0.6508444  3
   2669   2670   2673   2676     1  0.0000000  0.6508444  3
   2669   2680   2683   2686     1  0.0000000  0.6508444  3
   2670   2673   2676   2677     1  180.0000771  0.0000000  2
   2670   2673   2676   2678     1  180.0000771  0.0000000  2
   2670   2669   2680   2683     1  0.0000000  0.6508444  3
   2673   2670   2669   2680     1  0.0000000  0.6508444  3
   2680   2683   2686   2687     1  180.0000771  0.0000000  2
   2680   2683   2686   2688     1  180.0000771  0.0000000  2
   2692   2695   2698   2701     1  0.0000000  0.6508444  3
   2695   2698   2701   2702     1  0.0000000  0.6508444  3
   2695   2698   2701   2712     1  0.0000000  0.6508444  3
   2698   2695   2692   2722     1  0.0000000  0.6508444  3
   2698   2701   2702   2705     1  0.0000000  0.6508444  3
   2698   2701   2712   2715     1  0.0000000  0.6508444  3
   2701   2702   2705   2708     1  0.0000000  0.6508444  3
   2701   2712   2715   2718     1  0.0000000  0.6508444  3
   2702   2701   2712   2715     1  0.0000000  0.6508444  3
   2702   2705   2708   2709     1  180.0000771  0.0000000  2
   2702   2705   2708   2710     1  180.0000771  0.0000000  2
   2705   2702   2701   2712     1  0.0000000  0.6508444  3
   2712   2715   2718   2719     1  180.0000771  0.0000000  2
   2712   2715   2718   2720     1  180.0000771  0.0000000  2
   2724   2727   2730   2733     1  0.0000000  0.6508444  3
   2727   2730   2733   2734     1  0.0000000  0.6508444  3
   2727   2730   2733   2744     1  0.0000000  0.6508444  3
   2730   2733   2734   2737     1  0.0000000  0.6508444  3
   2730   2733   2744   2747     1  0.0000000  0.6508444  3
   2730   2727   2724   2754     1  0.0000000  0.6508444  3
   2733   2734   2737   2740     1  0.0000000  0.6508444  3
   2733   2744   2747   2750     1  0.0000000  0.6508444  3
   2734   2737   2740   2741     1  180.0000771  0.0000000  2
   2734   2737   2740   2742     1  180.0000771  0.0000000  2
   2734   2733   2744   2747     1  0.0000000  0.6508444  3
   2737   2734   2733   2744     1  0.0000000  0.6508444  3
   2744   2747   2750   2751     1  180.0000771  0.0000000  2
   2744   2747   2750   2752     1  180.0000771  0.0000000  2
   2756   2759   2762   2765     1  0.0000000  0.6508444  3
   2759   2762   2765   2766     1  0.0000000  0.6508444  3
   2759   2762   2765   2776     1  0.0000000  0.6508444  3
   2762   2759   2756   2786     1  0.0000000  0.6508444  3
   2762   2765   2766   2769     1  0.0000000  0.6508444  3
   2762   2765   2776   2779     1  0.0000000  0.6508444  3
   2765   2766   2769   2772     1  0.0000000  0.6508444  3
   2765   2776   2779   2782     1  0.0000000  0.6508444  3
   2766   2765   2776   2779     1  0.0000000  0.6508444  3
   2766   2769   2772   2773     1  180.0000771  0.0000000  2
   2766   2769   2772   2774     1  180.0000771  0.0000000  2
   2769   2766   2765   2776     1  0.0000000  0.6508444  3
   2776   2779   2782   2783     1  180.0000771  0.0000000  2
   2776   2779   2782   2784     1  180.0000771  0.0000000  2
   2788   2791   2794   2797     1  0.0000000  0.6508444  3
   2791   2794   2797   2798     1  0.0000000  0.6508444  3
   2791   2794   2797   2808     1  0.0000000  0.6508444  3
   2794   2797   2798   2801     1  0.0000000  0.6508444  3
   2794   2797   2808   2811     1  0.0000000  0.6508444  3
   2794   2791   2788   2818     1  0.0000000  0.6508444  3
   2797   2798   2801   2804     1  0.0000000  0.6508444  3
   2797   2808   2811   2814     1  0.0000000  0.6508444  3
   2798   2801   2804   2805     1  180.0000771  0.0000000  2
   2798   2801   2804   2806     1  180.0000771  0.0000000  2
   2798   2797   2808   2811     1  0.0000000  0.6508444  3
   2801   2798   2797   2808     1  0.0000000  0.6508444  3
   2808   2811   2814   2815     1  180.0000771  0.0000000  2
   2808   2811   2814   2816     1  180.0000771  0.0000000  2
   2820   2823   2826   2829     1  0.0000000  0.6508444  3
   2823   2826   2829   2830     1  0.0000000  0.6508444  3
   2823   2826   2829   2840     1  0.0000000  0.6508444  3
   2826   2823   2820   2850     1  0.0000000  0.6508444  3
   2826   2829   2830   2833     1  0.0000000  0.6508444  3
   2826   2829   2840   2843     1  0.0000000  0.6508444  3
   2829   2830   2833   2836     1  0.0000000  0.6508444  3
   2829   2840   2843   2846     1  0.0000000  0.6508444  3
   2830   2829   2840   2843     1  0.0000000  0.6508444  3
   2830   2833   2836   2837     1  180.0000771  0.0000000  2
   2830   2833   2836   2838     1  180.0000771  0.0000000  2
   2833   2830   2829   2840     1  0.0000000  0.6508444  3
   2840   2843   2846   2847     1  180.0000771  0.0000000  2
   2840   2843   2846   2848     1  180.0000771  0.0000000  2
   2852   2855   2858   2861     1  0.0000000  0.6508444  3
   2855   2858   2861   2862     1  0.0000000  0.6508444  3
   2855   2858   2861   2872     1  0.0000000  0.6508444  3
   2858   2861   2862   2865     1  0.0000000  0.6508444  3
   2858   2861   2872   2875     1  0.0000000  0.6508444  3
   2858   2855   2852   2882     1  0.0000000  0.6508444  3
   2861   2862   2865   2868     1  0.0000000  0.6508444  3
   2861   2872   2875   2878     1  0.0000000  0.6508444  3
   2862   2865   2868   2869     1  180.0000771  0.0000000  2
   2862   2865   2868   2870     1  180.0000771  0.0000000  2
   2862   2861   2872   2875     1  0.0000000  0.6508444  3
   2865   2862   2861   2872     1  0.0000000  0.6508444  3
   2872   2875   2878   2879     1  180.0000771  0.0000000  2
   2872   2875   2878   2880     1  180.0000771  0.0000000  2
   2884   2887   2890   2893     1  0.0000000  0.6508444  3
   2887   2890   2893   2894     1  0.0000000  0.6508444  3
   2887   2890   2893   2904     1  0.0000000  0.6508444  3
   2890   2887   2884   2914     1  0.0000000  0.6508444  3
   2890   2893   2894   2897     1  0.0000000  0.6508444  3
   2890   2893   2904   2907     1  0.0000000  0.6508444  3
   2893   2894   2897   2900     1  0.0000000  0.6508444  3
   2893   2904   2907   2910     1  0.0000000  0.6508444  3
   2894   2893   2904   2907     1  0.0000000  0.6508444  3
   2894   2897   2900   2901     1  180.0000771  0.0000000  2
   2894   2897   2900   2902     1  180.0000771  0.0000000  2
   2897   2894   2893   2904     1  0.0000000  0.6508444  3
   2904   2907   2910   2911     1  180.0000771  0.0000000  2
   2904   2907   2910   2912     1  180.0000771  0.0000000  2
   2916   2919   2922   2925     1  0.0000000  0.6508444  3
   2919   2922   2925   2926     1  0.0000000  0.6508444  3
   2919   2922   2925   2936     1  0.0000000  0.6508444  3
   2922   2925   2926   2929     1  0.0000000  0.6508444  3
   2922   2925   2936   2939     1  0.0000000  0.6508444  3
   2922   2919   2916   2946     1  0.0000000  0.6508444  3
   2925   2926   2929   2932     1  0.0000000  0.6508444  3
   2925   2936   2939   2942     1  0.0000000  0.6508444  3
   2926   2929   2932   2933     1  180.0000771  0.0000000  2
   2926   2929   2932   2934     1  180.0000771  0.0000000  2
   2926   2925   2936   2939     1  0.0000000  0.6508444  3
   2929   2926   2925   2936     1  0.0000000  0.6508444  3
   2936   2939   2942   2943     1  180.0000771  0.0000000  2
   2936   2939   2942   2944     1  180.0000771  0.0000000  2
   2948   2951   2954   2957     1  0.0000000  0.6508444  3
   2951   2954   2957   2958     1  0.0000000  0.6508444  3
   2951   2954   2957   2968     1  0.0000000  0.6508444  3
   2954   2951   2948   2978     1  0.0000000  0.6508444  3
   2954   2957   2958   2961     1  0.0000000  0.6508444  3
   2954   2957   2968   2971     1  0.0000000  0.6508444  3
   2957   2958   2961   2964     1  0.0000000  0.6508444  3
   2957   2968   2971   2974     1  0.0000000  0.6508444  3
   2958   2957   2968   2971     1  0.0000000  0.6508444  3
   2958   2961   2964   2965     1  180.0000771  0.0000000  2
   2958   2961   2964   2966     1  180.0000771  0.0000000  2
   2961   2958   2957   2968     1  0.0000000  0.6508444  3
   2968   2971   2974   2975     1  180.0000771  0.0000000  2
   2968   2971   2974   2976     1  180.0000771  0.0000000  2
   2980   2983   2986   2989     1  0.0000000  0.6508444  3
   2983   2986   2989   2990     1  0.0000000  0.6508444  3
   2983   2986   2989   3000     1  0.0000000  0.6508444  3
   2986   2989   2990   2993     1  0.0000000  0.6508444  3
   2986   2989   3000   3003     1  0.0000000  0.6508444  3
   2986   2983   2980   3010     1  0.0000000  0.6508444  3
   2989   2990   2993   2996     1  0.0000000  0.6508444  3
   2989   3000   3003   3006     1  0.0000000  0.6508444  3
   2990   2993   2996   2997     1  180.0000771  0.0000000  2
   2990   2993   2996   2998     1  180.0000771  0.0000000  2
   2990   2989   3000   3003     1  0.0000000  0.6508444  3
   2993   2990   2989   3000     1  0.0000000  0.6508444  3
   3000   3003   3006   3007     1  180.0000771  0.0000000  2
   3000   3003   3006   3008     1  180.0000771  0.0000000  2
   3012   3015   3018   3021     1  0.0000000  0.6508444  3
   3015   3018   3021   3022     1  0.0000000  0.6508444  3
   3015   3018   3021   3032     1  0.0000000  0.6508444  3
   3018   3015   3012   3042     1  0.0000000  0.6508444  3
   3018   3021   3022   3025     1  0.0000000  0.6508444  3
   3018   3021   3032   3035     1  0.0000000  0.6508444  3
   3021   3022   3025   3028     1  0.0000000  0.6508444  3
   3021   3032   3035   3038     1  0.0000000  0.6508444  3
   3022   3021   3032   3035     1  0.0000000  0.6508444  3
   3022   3025   3028   3029     1  180.0000771  0.0000000  2
   3022   3025   3028   3030     1  180.0000771  0.0000000  2
   3025   3022   3021   3032     1  0.0000000  0.6508444  3
   3032   3035   3038   3039     1  180.0000771  0.0000000  2
   3032   3035   3038   3040     1  180.0000771  0.0000000  2
   3044   3047   3050   3053     1  0.0000000  0.6508444  3
   3047   3050   3053   3054     1  0.0000000  0.6508444  3
   3047   3050   3053   3064     1  0.0000000  0.6508444  3
   3050   3053   3054   3057     1  0.0000000  0.6508444  3
   3050   3053   3064   3067     1  0.0000000  0.6508444  3
   3050   3047   3044   3074     1  0.0000000  0.6508444  3
   3053   3054   3057   3060     1  0.0000000  0.6508444  3
   3053   3064   3067   3070     1  0.0000000  0.6508444  3
   3054   3057   3060   3061     1  180.0000771  0.0000000  2
   3054   3057   3060   3062     1  180.0000771  0.0000000  2
   3054   3053   3064   3067     1  0.0000000  0.6508444  3
   3057   3054   3053   3064     1  0.0000000  0.6508444  3
   3064   3067   3070   3071     1  180.0000771  0.0000000  2
   3064   3067   3070   3072     1  180.0000771  0.0000000  2
   3076   3079   3082   3085     1  0.0000000  0.6508444  3
   3079   3082   3085   3086     1  0.0000000  0.6508444  3
   3079   3082   3085   3096     1  0.0000000  0.6508444  3
   3082   3079   3076   3106     1  0.0000000  0.6508444  3
   3082   3085   3086   3089     1  0.0000000  0.6508444  3
   3082   3085   3096   3099     1  0.0000000  0.6508444  3
   3085   3086   3089   3092     1  0.0000000  0.6508444  3
   3085   3096   3099   3102     1  0.0000000  0.6508444  3
   3086   3085   3096   3099     1  0.0000000  0.6508444  3
   3086   3089   3092   3093     1  180.0000771  0.0000000  2
   3086   3089   3092   3094     1  180.0000771  0.0000000  2
   3089   3086   3085   3096     1  0.0000000  0.6508444  3
   3096   3099   3102   3103     1  180.0000771  0.0000000  2
   3096   3099   3102   3104     1  180.0000771  0.0000000  2
   3108   3111   3114   3117     1  0.0000000  0.6508444  3
   3111   3114   3117   3118     1  0.0000000  0.6508444  3
   3111   3114   3117   3128     1  0.0000000  0.6508444  3
   3114   3117   3118   3121     1  0.0000000  0.6508444  3
   3114   3117   3128   3131     1  0.0000000  0.6508444  3
   3114   3111   3108   3138     1  0.0000000  0.6508444  3
   3117   3118   3121   3124     1  0.0000000  0.6508444  3
   3117   3128   3131   3134     1  0.0000000  0.6508444  3
   3118   3121   3124   3125     1  180.0000771  0.0000000  2
   3118   3121   3124   3126     1  180.0000771  0.0000000  2
   3118   3117   3128   3131     1  0.0000000  0.6508444  3
   3121   3118   3117   3128     1  0.0000000  0.6508444  3
   3128   3131   3134   3135     1  180.0000771  0.0000000  2
   3128   3131   3134   3136     1  180.0000771  0.0000000  2
   3140   3143   3146   3149     1  0.0000000  0.6508444  3
   3143   3146   3149   3150     1  0.0000000  0.6508444  3
   3143   3146   3149   3160     1  0.0000000  0.6508444  3
   3146   3143   3140   3170     1  0.0000000  0.6508444  3
   3146   3149   3150   3153     1  0.0000000  0.6508444  3
   3146   3149   3160   3163     1  0.0000000  0.6508444  3
   3149   3150   3153   3156     1  0.0000000  0.6508444  3
   3149   3160   3163   3166     1  0.0000000  0.6508444  3
   3150   3149   3160   3163     1  0.0000000  0.6508444  3
   3150   3153   3156   3157     1  180.0000771  0.0000000  2
   3150   3153   3156   3158     1  180.0000771  0.0000000  2
   3153   3150   3149   3160     1  0.0000000  0.6508444  3
   3160   3163   3166   3167     1  180.0000771  0.0000000  2
   3160   3163   3166   3168     1  180.0000771  0.0000000  2
   3172   3175   3178   3181     1  0.0000000  0.6508444  3
   3175   3178   3181   3182     1  0.0000000  0.6508444  3
   3175   3178   3181   3192     1  0.0000000  0.6508444  3
   3178   3181   3182   3185     1  0.0000000  0.6508444  3
   3178   3181   3192   3195     1  0.0000000  0.6508444  3
   3178   3175   3172   3202     1  0.0000000  0.6508444  3
   3181   3182   3185   3188     1  0.0000000  0.6508444  3
   3181   3192   3195   3198     1  0.0000000  0.6508444  3
   3182   3185   3188   3189     1  180.0000771  0.0000000  2
   3182   3185   3188   3190     1  180.0000771  0.0000000  2
   3182   3181   3192   3195     1  0.0000000  0.6508444  3
   3185   3182   3181   3192     1  0.0000000  0.6508444  3
   3192   3195   3198   3199     1  180.0000771  0.0000000  2
   3192   3195   3198   3200     1  180.0000771  0.0000000  2
   3204   3207   3210   3213     1  0.0000000  0.6508444  3
   3207   3210   3213   3214     1  0.0000000  0.6508444  3
   3207   3210   3213   3224     1  0.0000000  0.6508444  3
   3210   3207   3204   3234     1  0.0000000  0.6508444  3
   3210   3213   3214   3217     1  0.0000000  0.6508444  3
   3210   3213   3224   3227     1  0.0000000  0.6508444  3
   3213   3214   3217   3220     1  0.0000000  0.6508444  3
   3213   3224   3227   3230     1  0.0000000  0.6508444  3
   3214   3213   3224   3227     1  0.0000000  0.6508444  3
   3214   3217   3220   3221     1  180.0000771  0.0000000  2
   3214   3217   3220   3222     1  180.0000771  0.0000000  2
   3217   3214   3213   3224     1  0.0000000  0.6508444  3
   3224   3227   3230   3231     1  180.0000771  0.0000000  2
   3224   3227   3230   3232     1  180.0000771  0.0000000  2
   3236   3239   3242   3245     1  0.0000000  0.6508444  3
   3239   3242   3245   3246     1  0.0000000  0.6508444  3
   3239   3242   3245   3256     1  0.0000000  0.6508444  3
   3242   3245   3246   3249     1  0.0000000  0.6508444  3
   3242   3245   3256   3259     1  0.0000000  0.6508444  3
   3242   3239   3236   3266     1  0.0000000  0.6508444  3
   3245   3246   3249   3252     1  0.0000000  0.6508444  3
   3245   3256   3259   3262     1  0.0000000  0.6508444  3
   3246   3249   3252   3253     1  180.0000771  0.0000000  2
   3246   3249   3252   3254     1  180.0000771  0.0000000  2
   3246   3245   3256   3259     1  0.0000000  0.6508444  3
   3249   3246   3245   3256     1  0.0000000  0.6508444  3
   3256   3259   3262   3263     1  180.0000771  0.0000000  2
   3256   3259   3262   3264     1  180.0000771  0.0000000  2
   3268   3271   3274   3277     1  0.0000000  0.6508444  3
   3271   3274   3277   3278     1  0.0000000  0.6508444  3
   3271   3274   3277   3288     1  0.0000000  0.6508444  3
   3274   3271   3268   3298     1  0.0000000  0.6508444  3
   3274   3277   3278   3281     1  0.0000000  0.6508444  3
   3274   3277   3288   3291     1  0.0000000  0.6508444  3
   3277   3278   3281   3284     1  0.0000000  0.6508444  3
   3277   3288   3291   3294     1  0.0000000  0.6508444  3
   3278   3277   3288   3291     1  0.0000000  0.6508444  3
   3278   3281   3284   3285     1  180.0000771  0.0000000  2
   3278   3281   3284   3286     1  180.0000771  0.0000000  2
   3281   3278   3277   3288     1  0.0000000  0.6508444  3
   3288   3291   3294   3295     1  180.0000771  0.0000000  2
   3288   3291   3294   3296     1  180.0000771  0.0000000  2
   3300   3303   3306   3309     1  0.0000000  0.6508444  3
   3303   3306   3309   3310     1  0.0000000  0.6508444  3
   3303   3306   3309   3320     1  0.0000000  0.6508444  3
   3306   3309   3310   3313     1  0.0000000  0.6508444  3
   3306   3309   3320   3323     1  0.0000000  0.6508444  3
   3306   3303   3300   3330     1  0.0000000  0.6508444  3
   3309   3310   3313   3316     1  0.0000000  0.6508444  3
   3309   3320   3323   3326     1  0.0000000  0.6508444  3
   3310   3313   3316   3317     1  180.0000771  0.0000000  2
   3310   3313   3316   3318     1  180.0000771  0.0000000  2
   3310   3309   3320   3323     1  0.0000000  0.6508444  3
   3313   3310   3309   3320     1  0.0000000  0.6508444  3
   3320   3323   3326   3327     1  180.0000771  0.0000000  2
   3320   3323   3326   3328     1  180.0000771  0.0000000  2
   3332   3335   3338   3341     1  0.0000000  0.6508444  3
   3335   3338   3341   3342     1  0.0000000  0.6508444  3
   3335   3338   3341   3352     1  0.0000000  0.6508444  3
   3338   3335   3332   3362     1  0.0000000  0.6508444  3
   3338   3341   3342   3345     1  0.0000000  0.6508444  3
   3338   3341   3352   3355     1  0.0000000  0.6508444  3
   3341   3342   3345   3348     1  0.0000000  0.6508444  3
   3341   3352   3355   3358     1  0.0000000  0.6508444  3
   3342   3341   3352   3355     1  0.0000000  0.6508444  3
   3342   3345   3348   3349     1  180.0000771  0.0000000  2
   3342   3345   3348   3350     1  180.0000771  0.0000000  2
   3345   3342   3341   3352     1  0.0000000  0.6508444  3
   3352   3355   3358   3359     1  180.0000771  0.0000000  2
   3352   3355   3358   3360     1  180.0000771  0.0000000  2
   3364   3367   3370   3373     1  0.0000000  0.6508444  3
   3367   3370   3373   3374     1  0.0000000  0.6508444  3
   3367   3370   3373   3384     1  0.0000000  0.6508444  3
   3370   3373   3374   3377     1  0.0000000  0.6508444  3
   3370   3373   3384   3387     1  0.0000000  0.6508444  3
   3370   3367   3364   3394     1  0.0000000  0.6508444  3
   3373   3374   3377   3380     1  0.0000000  0.6508444  3
   3373   3384   3387   3390     1  0.0000000  0.6508444  3
   3374   3377   3380   3381     1  180.0000771  0.0000000  2
   3374   3377   3380   3382     1  180.0000771  0.0000000  2
   3374   3373   3384   3387     1  0.0000000  0.6508444  3
   3377   3374   3373   3384     1  0.0000000  0.6508444  3
   3384   3387   3390   3391     1  180.0000771  0.0000000  2
   3384   3387   3390   3392     1  180.0000771  0.0000000  2
   3396   3399   3402   3405     1  0.0000000  0.6508444  3
   3399   3402   3405   3406     1  0.0000000  0.6508444  3
   3399   3402   3405   3416     1  0.0000000  0.6508444  3
   3402   3399   3396   3426     1  0.0000000  0.6508444  3
   3402   3405   3406   3409     1  0.0000000  0.6508444  3
   3402   3405   3416   3419     1  0.0000000  0.6508444  3
   3405   3406   3409   3412     1  0.0000000  0.6508444  3
   3405   3416   3419   3422     1  0.0000000  0.6508444  3
   3406   3405   3416   3419     1  0.0000000  0.6508444  3
   3406   3409   3412   3413     1  180.0000771  0.0000000  2
   3406   3409   3412   3414     1  180.0000771  0.0000000  2
   3409   3406   3405   3416     1  0.0000000  0.6508444  3
   3416   3419   3422   3423     1  180.0000771  0.0000000  2
   3416   3419   3422   3424     1  180.0000771  0.0000000  2
   3428   3431   3434   3437     1  0.0000000  0.6508444  3
   3431   3434   3437   3438     1  0.0000000  0.6508444  3
   3431   3434   3437   3448     1  0.0000000  0.6508444  3
   3434   3437   3438   3441     1  0.0000000  0.6508444  3
   3434   3437   3448   3451     1  0.0000000  0.6508444  3
   3434   3431   3428   3458     1  0.0000000  0.6508444  3
   3437   3438   3441   3444     1  0.0000000  0.6508444  3
   3437   3448   3451   3454     1  0.0000000  0.6508444  3
   3438   3441   3444   3445     1  180.0000771  0.0000000  2
   3438   3441   3444   3446     1  180.0000771  0.0000000  2
   3438   3437   3448   3451     1  0.0000000  0.6508444  3
   3441   3438   3437   3448     1  0.0000000  0.6508444  3
   3448   3451   3454   3455     1  180.0000771  0.0000000  2
   3448   3451   3454   3456     1  180.0000771  0.0000000  2
   3460   3463   3466   3469     1  0.0000000  0.6508444  3
   3463   3466   3469   3470     1  0.0000000  0.6508444  3
   3463   3466   3469   3480     1  0.0000000  0.6508444  3
   3466   3463   3460   3490     1  0.0000000  0.6508444  3
   3466   3469   3470   3473     1  0.0000000  0.6508444  3
   3466   3469   3480   3483     1  0.0000000  0.6508444  3
   3469   3470   3473   3476     1  0.0000000  0.6508444  3
   3469   3480   3483   3486     1  0.0000000  0.6508444  3
   3470   3469   3480   3483     1  0.0000000  0.6508444  3
   3470   3473   3476   3477     1  180.0000771  0.0000000  2
   3470   3473   3476   3478     1  180.0000771  0.0000000  2
   3473   3470   3469   3480     1  0.0000000  0.6508444  3
   3480   3483   3486   3487     1  180.0000771  0.0000000  2
   3480   3483   3486   3488     1  180.0000771  0.0000000  2
   3492   3495   3498   3501     1  0.0000000  0.6508444  3
   3495   3498   3501   3502     1  0.0000000  0.6508444  3
   3495   3498   3501   3512     1  0.0000000  0.6508444  3
   3498   3501   3502   3505     1  0.0000000  0.6508444  3
   3498   3501   3512   3515     1  0.0000000  0.6508444  3
   3498   3495   3492   3522     1  0.0000000  0.6508444  3
   3501   3502   3505   3508     1  0.0000000  0.6508444  3
   3501   3512   3515   3518     1  0.0000000  0.6508444  3
   3502   3505   3508   3509     1  180.0000771  0.0000000  2
   3502   3505   3508   3510     1  180.0000771  0.0000000  2
   3502   3501   3512   3515     1  0.0000000  0.6508444  3
   3505   3502   3501   3512     1  0.0000000  0.6508444  3
   3512   3515   3518   3519     1  180.0000771  0.0000000  2
   3512   3515   3518   3520     1  180.0000771  0.0000000  2
   3524   3527   3530   3533     1  0.0000000  0.6508444  3
   3527   3530   3533   3534     1  0.0000000  0.6508444  3
   3527   3530   3533   3544     1  0.0000000  0.6508444  3
   3530   3527   3524   3554     1  0.0000000  0.6508444  3
   3530   3533   3534   3537     1  0.0000000  0.6508444  3
   3530   3533   3544   3547     1  0.0000000  0.6508444  3
   3533   3534   3537   3540     1  0.0000000  0.6508444  3
   3533   3544   3547   3550     1  0.0000000  0.6508444  3
   3534   3533   3544   3547     1  0.0000000  0.6508444  3
   3534   3537   3540   3541     1  180.0000771  0.0000000  2
   3534   3537   3540   3542     1  180.0000771  0.0000000  2
   3537   3534   3533   3544     1  0.0000000  0.6508444  3
   3544   3547   3550   3551     1  180.0000771  0.0000000  2
   3544   3547   3550   3552     1  180.0000771  0.0000000  2
   3556   3559   3562   3565     1  0.0000000  0.6508444  3
   3559   3562   3565   3566     1  0.0000000  0.6508444  3
   3559   3562   3565   3576     1  0.0000000  0.6508444  3
   3562   3565   3566   3569     1  0.0000000  0.6508444  3
   3562   3565   3576   3579     1  0.0000000  0.6508444  3
   3562   3559   3556   3586     1  0.0000000  0.6508444  3
   3565   3566   3569   3572     1  0.0000000  0.6508444  3
   3565   3576   3579   3582     1  0.0000000  0.6508444  3
   3566   3569   3572   3573     1  180.0000771  0.0000000  2
   3566   3569   3572   3574     1  180.0000771  0.0000000  2
   3566   3565   3576   3579     1  0.0000000  0.6508444  3
   3569   3566   3565   3576     1  0.0000000  0.6508444  3
   3576   3579   3582   3583     1  180.0000771  0.0000000  2
   3576   3579   3582   3584     1  180.0000771  0.0000000  2
   3588   3591   3594   3597     1  0.0000000  0.6508444  3
   3591   3594   3597   3598     1  0.0000000  0.6508444  3
   3591   3594   3597   3608     1  0.0000000  0.6508444  3
   3594   3591   3588   3618     1  0.0000000  0.6508444  3
   3594   3597   3598   3601     1  0.0000000  0.6508444  3
   3594   3597   3608   3611     1  0.0000000  0.6508444  3
   3597   3598   3601   3604     1  0.0000000  0.6508444  3
   3597   3608   3611   3614     1  0.0000000  0.6508444  3
   3598   3597   3608   3611     1  0.0000000  0.6508444  3
   3598   3601   3604   3605     1  180.0000771  0.0000000  2
   3598   3601   3604   3606     1  180.0000771  0.0000000  2
   3601   3598   3597   3608     1  0.0000000  0.6508444  3
   3608   3611   3614   3615     1  180.0000771  0.0000000  2
   3608   3611   3614   3616     1  180.0000771  0.0000000  2
   3620   3623   3626   3629     1  0.0000000  0.6508444  3
   3623   3626   3629   3630     1  0.0000000  0.6508444  3
   3623   3626   3629   3640     1  0.0000000  0.6508444  3
   3626   3629   3630   3633     1  0.0000000  0.6508444  3
   3626   3629   3640   3643     1  0.0000000  0.6508444  3
   3626   3623   3620   3650     1  0.0000000  0.6508444  3
   3629   3630   3633   3636     1  0.0000000  0.6508444  3
   3629   3640   3643   3646     1  0.0000000  0.6508444  3
   3630   3633   3636   3637     1  180.0000771  0.0000000  2
   3630   3633   3636   3638     1  180.0000771  0.0000000  2
   3630   3629   3640   3643     1  0.0000000  0.6508444  3
   3633   3630   3629   3640     1  0.0000000  0.6508444  3
   3640   3643   3646   3647     1  180.0000771  0.0000000  2
   3640   3643   3646   3648     1  180.0000771  0.0000000  2
   3652   3655   3658   3661     1  0.0000000  0.6508444  3
   3655   3658   3661   3662     1  0.0000000  0.6508444  3
   3655   3658   3661   3672     1  0.0000000  0.6508444  3
   3658   3655   3652   3682     1  0.0000000  0.6508444  3
   3658   3661   3662   3665     1  0.0000000  0.6508444  3
   3658   3661   3672   3675     1  0.0000000  0.6508444  3
   3661   3662   3665   3668     1  0.0000000  0.6508444  3
   3661   3672   3675   3678     1  0.0000000  0.6508444  3
   3662   3661   3672   3675     1  0.0000000  0.6508444  3
   3662   3665   3668   3669     1  180.0000771  0.0000000  2
   3662   3665   3668   3670     1  180.0000771  0.0000000  2
   3665   3662   3661   3672     1  0.0000000  0.6508444  3
   3672   3675   3678   3679     1  180.0000771  0.0000000  2
   3672   3675   3678   3680     1  180.0000771  0.0000000  2
   3684   3687   3690   3693     1  0.0000000  0.6508444  3
   3687   3690   3693   3694     1  0.0000000  0.6508444  3
   3687   3690   3693   3704     1  0.0000000  0.6508444  3
   3690   3693   3694   3697     1  0.0000000  0.6508444  3
   3690   3693   3704   3707     1  0.0000000  0.6508444  3
   3690   3687   3684   3714     1  0.0000000  0.6508444  3
   3693   3694   3697   3700     1  0.0000000  0.6508444  3
   3693   3704   3707   3710     1  0.0000000  0.6508444  3
   3694   3697   3700   3701     1  180.0000771  0.0000000  2
   3694   3697   3700   3702     1  180.0000771  0.0000000  2
   3694   3693   3704   3707     1  0.0000000  0.6508444  3
   3697   3694   3693   3704     1  0.0000000  0.6508444  3
   3704   3707   3710   3711     1  180.0000771  0.0000000  2
   3704   3707   3710   3712     1  180.0000771  0.0000000  2
   3716   3719   3722   3725     1  0.0000000  0.6508444  3
   3719   3722   3725   3726     1  0.0000000  0.6508444  3
   3719   3722   3725   3736     1  0.0000000  0.6508444  3
   3722   3719   3716   3746     1  0.0000000  0.6508444  3
   3722   3725   3726   3729     1  0.0000000  0.6508444  3
   3722   3725   3736   3739     1  0.0000000  0.6508444  3
   3725   3726   3729   3732     1  0.0000000  0.6508444  3
   3725   3736   3739   3742     1  0.0000000  0.6508444  3
   3726   3725   3736   3739     1  0.0000000  0.6508444  3
   3726   3729   3732   3733     1  180.0000771  0.0000000  2
   3726   3729   3732   3734     1  180.0000771  0.0000000  2
   3729   3726   3725   3736     1  0.0000000  0.6508444  3
   3736   3739   3742   3743     1  180.0000771  0.0000000  2
   3736   3739   3742   3744     1  180.0000771  0.0000000  2
   3748   3751   3754   3757     1  0.0000000  0.6508444  3
   3751   3754   3757   3758     1  0.0000000  0.6508444  3
   3751   3754   3757   3768     1  0.0000000  0.6508444  3
   3754   3757   3758   3761     1  0.0000000  0.6508444  3
   3754   3757   3768   3771     1  0.0000000  0.6508444  3
   3754   3751   3748   3778     1  0.0000000  0.6508444  3
   3757   3758   3761   3764     1  0.0000000  0.6508444  3
   3757   3768   3771   3774     1  0.0000000  0.6508444  3
   3758   3761   3764   3765     1  180.0000771  0.0000000  2
   3758   3761   3764   3766     1  180.0000771  0.0000000  2
   3758   3757   3768   3771     1  0.0000000  0.6508444  3
   3761   3758   3757   3768     1  0.0000000  0.6508444  3
   3768   3771   3774   3775     1  180.0000771  0.0000000  2
   3768   3771   3774   3776     1  180.0000771  0.0000000  2
   3780   3783   3786   3789     1  0.0000000  0.6508444  3
   3783   3786   3789   3790     1  0.0000000  0.6508444  3
   3783   3786   3789   3800     1  0.0000000  0.6508444  3
   3786   3783   3780   3810     1  0.0000000  0.6508444  3
   3786   3789   3790   3793     1  0.0000000  0.6508444  3
   3786   3789   3800   3803     1  0.0000000  0.6508444  3
   3789   3790   3793   3796     1  0.0000000  0.6508444  3
   3789   3800   3803   3806     1  0.0000000  0.6508444  3
   3790   3789   3800   3803     1  0.0000000  0.6508444  3
   3790   3793   3796   3797     1  180.0000771  0.0000000  2
   3790   3793   3796   3798     1  180.0000771  0.0000000  2
   3793   3790   3789   3800     1  0.0000000  0.6508444  3
   3800   3803   3806   3807     1  180.0000771  0.0000000  2
   3800   3803   3806   3808     1  180.0000771  0.0000000  2
   3812   3815   3818   3821     1  0.0000000  0.6508444  3
   3815   3818   3821   3822     1  0.0000000  0.6508444  3
   3815   3818   3821   3832     1  0.0000000  0.6508444  3
   3818   3821   3822   3825     1  0.0000000  0.6508444  3
   3818   3821   3832   3835     1  0.0000000  0.6508444  3
   3818   3815   3812   3842     1  0.0000000  0.6508444  3
   3821   3822   3825   3828     1  0.0000000  0.6508444  3
   3821   3832   3835   3838     1  0.0000000  0.6508444  3
   3822   3825   3828   3829     1  180.0000771  0.0000000  2
   3822   3825   3828   3830     1  180.0000771  0.0000000  2
   3822   3821   3832   3835     1  0.0000000  0.6508444  3
   3825   3822   3821   3832     1  0.0000000  0.6508444  3
   3832   3835   3838   3839     1  180.0000771  0.0000000  2
   3832   3835   3838   3840     1  180.0000771  0.0000000  2
   3844   3847   3850   3853     1  0.0000000  0.6508444  3
   3847   3850   3853   3854     1  0.0000000  0.6508444  3
   3847   3850   3853   3864     1  0.0000000  0.6508444  3
   3850   3847   3844   3874     1  0.0000000  0.6508444  3
   3850   3853   3854   3857     1  0.0000000  0.6508444  3
   3850   3853   3864   3867     1  0.0000000  0.6508444  3
   3853   3854   3857   3860     1  0.0000000  0.6508444  3
   3853   3864   3867   3870     1  0.0000000  0.6508444  3
   3854   3853   3864   3867     1  0.0000000  0.6508444  3
   3854   3857   3860   3861     1  180.0000771  0.0000000  2
   3854   3857   3860   3862     1  180.0000771  0.0000000  2
   3857   3854   3853   3864     1  0.0000000  0.6508444  3
   3864   3867   3870   3871     1  180.0000771  0.0000000  2
   3864   3867   3870   3872     1  180.0000771  0.0000000  2
   3876   3879   3882   3885     1  0.0000000  0.6508444  3
   3879   3882   3885   3886     1  0.0000000  0.6508444  3
   3879   3882   3885   3896     1  0.0000000  0.6508444  3
   3882   3885   3886   3889     1  0.0000000  0.6508444  3
   3882   3885   3896   3899     1  0.0000000  0.6508444  3
   3882   3879   3876   3906     1  0.0000000  0.6508444  3
   3885   3886   3889   3892     1  0.0000000  0.6508444  3
   3885   3896   3899   3902     1  0.0000000  0.6508444  3
   3886   3889   3892   3893     1  180.0000771  0.0000000  2
   3886   3889   3892   3894     1  180.0000771  0.0000000  2
   3886   3885   3896   3899     1  0.0000000  0.6508444  3
   3889   3886   3885   3896     1  0.0000000  0.6508444  3
   3896   3899   3902   3903     1  180.0000771  0.0000000  2
   3896   3899   3902   3904     1  180.0000771  0.0000000  2
   1873   1877   1876   1878     4  180.0000771  4.6024000  2
   1883   1887   1886   1888     4  180.0000771  4.6024000  2
   1905   1909   1908   1910     4  180.0000771  4.6024000  2
   1915   1919   1918   1920     4  180.0000771  4.6024000  2
   1937   1941   1940   1942     4  180.0000771  4.6024000  2
   1947   1951   1950   1952     4  180.0000771  4.6024000  2
   1969   1973   1972   1974     4  180.0000771  4.6024000  2
   1979   1983   1982   1984     4  180.0000771  4.6024000  2
   2001   2005   2004   2006     4  180.0000771  4.6024000  2
   2011   2015   2014   2016     4  180.0000771  4.6024000  2
   2033   2037   2036   2038     4  180.0000771  4.6024000  2
   2043   2047   2046   2048     4  180.0000771  4.6024000  2
   2065   2069   2068   2070     4  180.0000771  4.6024000  2
   2075   2079   2078   2080     4  180.0000771  4.6024000  2
   2097   2101   2100   2102     4  180.0000771  4.6024000  2
   2107   2111   2110   2112     4  180.0000771  4.6024000  2
   2129   2133   2132   2134     4  180.0000771  4.6024000  2
   2139   2143   2142   2144     4  180.0000771  4.6024000  2
   2161   2165   2164   2166     4  180.0000771  4.6024000  2
   2171   2175   2174   2176     4  180.0000771  4.6024000  2
   2193   2197   2196   2198     4  180.0000771  4.6024000  2
   2203   2207   2206   2208     4  180.0000771  4.6024000  2
   2225   2229   2228   2230     4  180.0000771  4.6024000  2
   2235   2239   2238   2240     4  180.0000771  4.6024000  2
   2257   2261   2260   2262     4  180.0000771  4.6024000  2
   2267   2271   2270   2272     4  180.0000771  4.6024000  2
   2289   2293   2292   2294     4  180.0000771  4.6024000  2
   2299   2303   2302   2304     4  180.0000771  4.6024000  2
   2321   2325   2324   2326     4  180.0000771  4.6024000  2
   2331   2335   2334   2336     4  180.0000771  4.6024000  2
   2353   2357   2356   2358     4  180.0000771  4.6024000  2
   2363   2367   2366   2368     4  180.0000771  4.6024000  2
   2385   2389   2388   2390     4  180.0000771  4.6024000  2
   2395   2399   2398   2400     4  180.0000771  4.6024000  2
   2417   2421   2420   2422     4  180.0000771  4.6024000  2
   2427   2431   2430   2432     4  180.0000771  4.6024000  2
   2449   2453   2452   2454     4  180.0000771  4.6024000  2
   2459   2463   2462   2464     4  180.0000771  4.6024000  2
   2481   2485   2484   2486     4  180.0000771  4.6024000  2
   2491   2495   2494   2496     4  180.0000771  4.6024000  2
   2513   2517   2516   2518     4  180.0000771  4.6024000  2
   2523   2527   2526   2528     4  180.0000771  4.6024000  2
   2545   2549   2548   2550     4  180.0000771  4.6024000  2
   2555   2559   2558   2560     4  180.0000771  4.6024000  2
   2577   2581   2580   2582     4  180.0000771  4.6024000  2
   2587   2591   2590   2592     4  180.0000771  4.6024000  2
   2609   2613   2612   2614     4  180.0000771  4.6024000  2
   2619   2623   2622   2624     4  180.0000771  4.6024000  2
   2641   2645   2644   2646     4  180.0000771  4.6024000  2
   2651   2655   2654   2656     4  180.0000771  4.6024000  2
   2673   2677   2676   2678     4  180.0000771  4.6024000  2
   2683   2687   2686   2688     4  180.0000771  4.6024000  2
   2705   2709   2708   2710     4  180.0000771  4.6024000  2
   2715   2719   2718   2720     4  180.0000771  4.6024000  2
   2737   2741   2740   2742     4  180.0000771  4.6024000  2
   2747   2751   2750   2752     4  180.0000771  4.6024000  2
   2769   2773   2772   2774     4  180.0000771  4.6024000  2
   2779   2783   2782   2784     4  180.0000771  4.6024000  2
   2801   2805   2804   2806     4  180.0000771  4.6024000  2
   2811   2815   2814   2816     4  180.0000771  4.6024000  2
   2833   2837   2836   2838     4  180.0000771  4.6024000  2
   2843   2847   2846   2848     4  180.0000771  4.6024000  2
   2865   2869   2868   2870     4  180.0000771  4.6024000  2
   2875   2879   2878   2880     4  180.0000771  4.6024000  2
   2897   2901   2900   2902     4  180.0000771  4.6024000  2
   2907   2911   2910   2912     4  180.0000771  4.6024000  2
   2929   2933   2932   2934     4  180.0000771  4.6024000  2
   2939   2943   2942   2944     4  180.0000771  4.6024000  2
   2961   2965   2964   2966     4  180.0000771  4.6024000  2
   2971   2975   2974   2976     4  180.0000771  4.6024000  2
   2993   2997   2996   2998     4  180.0000771  4.6024000  2
   3003   3007   3006   3008     4  180.0000771  4.6024000  2
   3025   3029   3028   3030     4  180.0000771  4.6024000  2
   3035   3039   3038   3040     4  180.0000771  4.6024000  2
   3057   3061   3060   3062     4  180.0000771  4.6024000  2
   3067   3071   3070   3072     4  180.0000771  4.6024000  2
   3089   3093   3092   3094     4  180.0000771  4.6024000  2
   3099   3103   3102   3104     4  180.0000771  4.6024000  2
   3121   3125   3124   3126     4  180.0000771  4.6024000  2
   3131   3135   3134   3136     4  180.0000771  4.6024000  2
   3153   3157   3156   3158     4  180.0000771  4.6024000  2
   3163   3167   3166   3168     4  180.0000771  4.6024000  2
   3185   3189   3188   3190     4  180.0000771  4.6024000  2
   3195   3199   3198   3200     4  180.0000771  4.6024000  2
   3217   3221   3220   3222     4  180.0000771  4.6024000  2
   3227   3231   3230   3232     4  180.0000771  4.6024000  2
   3249   3253   3252   3254     4  180.0000771  4.6024000  2
   3259   3263   3262   3264     4  180.0000771  4.6024000  2
   3281   3285   3284   3286     4  180.0000771  4.6024000  2
   3291   3295   3294   3296     4  180.0000771  4.6024000  2
   3313   3317   3316   3318     4  180.0000771  4.6024000  2
   3323   3327   3326   3328     4  180.0000771  4.6024000  2
   3345   3349   3348   3350     4  180.0000771  4.6024000  2
   3355   3359   3358   3360     4  180.0000771  4.6024000  2
   3377   3381   3380   3382     4  180.0000771  4.6024000  2
   3387   3391   3390   3392     4  180.0000771  4.6024000  2
   3409   3413   3412   3414     4  180.0000771  4.6024000  2
   3419   3423   3422   3424     4  180.0000771  4.6024000  2
   3441   3445   3444   3446     4  180.0000771  4.6024000  2
   3451   3455   3454   3456     4  180.0000771  4.6024000  2
   3473   3477   3476   3478     4  180.0000771  4.6024000  2
   3483   3487   3486   3488     4  180.0000771  4.6024000  2
   3505   3509   3508   3510     4  180.0000771  4.6024000  2
   3515   3519   3518   3520     4  180.0000771  4.6024000  2
   3537   3541   3540   3542     4  180.0000771  4.6024000  2
   3547   3551   3550   3552     4  180.0000771  4.6024000  2
   3569   3573   3572   3574     4  180.0000771  4.6024000  2
   3579   3583   3582   3584     4  180.0000771  4.6024000  2
   3601   3605   3604   3606     4  180.0000771  4.6024000  2
   3611   3615   3614   3616     4  180.0000771  4.6024000  2
   3633   3637   3636   3638     4  180.0000771  4.6024000  2
   3643   3647   3646   3648     4  180.0000771  4.6024000  2
   3665   3669   3668   3670     4  180.0000771  4.6024000  2
   3675   3679   3678   3680     4  180.0000771  4.6024000  2
   3697   3701   3700   3702     4  180.0000771  4.6024000  2
   3707   3711   3710   3712     4  180.0000771  4.6024000  2
   3729   3733   3732   3734     4  180.0000771  4.6024000  2
   3739   3743   3742   3744     4  180.0000771  4.6024000  2
   3761   3765   3764   3766     4  180.0000771  4.6024000  2
   3771   3775   3774   3776     4  180.0000771  4.6024000  2
   3793   3797   3796   3798     4  180.0000771  4.6024000  2
   3803   3807   3806   3808     4  180.0000771  4.6024000  2
   3825   3829   3828   3830     4  180.0000771  4.6024000  2
   3835   3839   3838   3840     4  180.0000771  4.6024000  2
   3857   3861   3860   3862     4  180.0000771  4.6024000  2
   3867   3871   3870   3872     4  180.0000771  4.6024000  2
   3889   3893   3892   3894     4  180.0000771  4.6024000  2
   3899   3903   3902   3904     4  180.0000771  4.6024000  2
      1      2      8      9     1  0.0000000  1.0460000  1
      1      2      8      9     1  0.0000000  0.0000000  3
      1      2      8     10     1  0.0000000  1.0460000  1
      1      2      8     10     1  0.0000000  0.0000000  3
      1      5     11     12     1  0.0000000  1.0460000  1
      1      5     11     12     1  0.0000000  0.0000000  3
      1      5     11     13     1  0.0000000  1.0460000  1
      1      5     11     13     1  0.0000000  0.0000000  3
      2      1      5      6     1  0.0000000  1.6038667  3
      2      1      5      7     1  0.0000000  1.6038667  3
      2      8     14     15     1  0.0000000  0.6508444  3
      2      8     14     16     1  0.0000000  0.6508444  3
      5      1      2      3     1  0.0000000  1.6038667  3
      3      2      8     14     1  0.0000000  0.6508444  3
      3      2      8      9     1  0.0000000  0.6508444  3
      3      2      8     10     1  0.0000000  0.6508444  3
      5      1      2      4     1  0.0000000  1.6038667  3
      4      2      8     14     1  0.0000000  0.6508444  3
      4      2      8      9     1  0.0000000  0.6508444  3
      4      2      8     10     1  0.0000000  0.6508444  3
      5     11     17     18     1  0.0000000  0.6508444  3
      5     11     17     19     1  0.0000000  0.6508444  3
      6      5     11     17     1  0.0000000  0.6508444  3
      6      5     11     12     1  0.0000000  0.6508444  3
      6      5     11     13     1  0.0000000  0.6508444  3
      7      5     11     17     1  0.0000000  0.6508444  3
      7      5     11     12     1  0.0000000  0.6508444  3
      7      5     11     13     1  0.0000000  0.6508444  3
      8     14     20     58     1  0.0000000  0.6508444  3
      9      8     14     20     1  0.0000000  0.6508444  3
      9      8     14     15     1  0.0000000  0.6508444  3
      9      8     14     16     1  0.0000000  0.6508444  3
     10      8     14     20     1  0.0000000  0.6508444  3
     10      8     14     15     1  0.0000000  0.6508444  3
     10      8     14     16     1  0.0000000  0.6508444  3
     11     17     21     59     1  0.0000000  0.6508444  3
     12     11     17     21     1  0.0000000  0.6508444  3
     12     11     17     18     1  0.0000000  0.6508444  3
     12     11     17     19     1  0.0000000  0.6508444  3
     13     11     17     21     1  0.0000000  0.6508444  3
     13     11     17     18     1  0.0000000  0.6508444  3
     13     11     17     19     1  0.0000000  0.6508444  3
     14     20     28     29     1  0.0000000  0.6508444  3
     14     20     28     30     1  0.0000000  0.6508444  3
     14     20     31     32     1  0.0000000  0.6508444  3
     14     20     31     33     1  0.0000000  0.6508444  3
     15     14     20     28     1  0.0000000  0.6508444  3
     15     14     20     31     1  0.0000000  0.6508444  3
     15     14     20     58     1  0.0000000  0.6508444  3
     16     14     20     28     1  0.0000000  0.6508444  3
     16     14     20     31     1  0.0000000  0.6508444  3
     16     14     20     58     1  0.0000000  0.6508444  3
     17     21     22     23     1  0.0000000  0.6508444  3
     17     21     22     24     1  0.0000000  0.6508444  3
     17     21     25     26     1  0.0000000  0.6508444  3
     17     21     25     27     1  0.0000000  0.6508444  3
     18     17     21     22     1  0.0000000  0.6508444  3
     18     17     21     25     1  0.0000000  0.6508444  3
     18     17     21     59     1  0.0000000  0.6508444  3
     19     17     21     22     1  0.0000000  0.6508444  3
     19     17     21     25     1  0.0000000  0.6508444  3
     19     17     21     59     1  0.0000000  0.6508444  3
     20     28     40     41     1  0.0000000  0.6508444  3
     20     28     40     42     1  0.0000000  0.6508444  3
     20     31     43     44     1  0.0000000  0.6508444  3
     20     31     43     45     1  0.0000000  0.6508444  3
     21     22     34     35     1  0.0000000  0.6508444  3
     21     22     34     36     1  0.0000000  0.6508444  3
     21     25     37     38     1  0.0000000  0.6508444  3
     21     25     37     39     1  0.0000000  0.6508444  3
     22     21     25     26     1  0.0000000  0.6508444  3
     22     21     25     27     1  0.0000000  0.6508444  3
     22     34     55     56     1  0.0000000  0.6694400  3
     22     34     55     57     1  0.0000000  0.6694400  3
     23     22     21     25     1  0.0000000  0.6508444  3
     23     22     21     59     1  0.0000000  0.6508444  3
     23     22     34     55     1  0.0000000  0.6508444  3
     23     22     34     35     1  0.0000000  0.6508444  3
     23     22     34     36     1  0.0000000  0.6508444  3
     24     22     21     25     1  0.0000000  0.6508444  3
     24     22     21     59     1  0.0000000  0.6508444  3
     24     22     34     55     1  0.0000000  0.6508444  3
     24     22     34     35     1  0.0000000  0.6508444  3
     24     22     34     36     1  0.0000000  0.6508444  3
     25     37     52     53     1  0.0000000  0.6694400  3
     25     37     52     54     1  0.0000000  0.6694400  3
     26     25     21     59     1  0.0000000  0.6508444  3
     26     25     37     52     1  0.0000000  0.6508444  3
     26     25     37     38     1  0.0000000  0.6508444  3
     26     25     37     39     1  0.0000000  0.6508444  3
     27     25     21     59     1  0.0000000  0.6508444  3
     27     25     37     52     1  0.0000000  0.6508444  3
     27     25     37     38     1  0.0000000  0.6508444  3
     27     25     37     39     1  0.0000000  0.6508444  3
     28     20     31     32     1  0.0000000  0.6508444  3
     28     20     31     33     1  0.0000000  0.6508444  3
     28     40     49     50     1  0.0000000  0.6694400  3
     28     40     49     51     1  0.0000000  0.6694400  3
     29     28     20     31     1  0.0000000  0.6508444  3
     29     28     20     58     1  0.0000000  0.6508444  3
     29     28     40     49     1  0.0000000  0.6508444  3
     29     28     40     41     1  0.0000000  0.6508444  3
     29     28     40     42     1  0.0000000  0.6508444  3
     30     28     20     31     1  0.0000000  0.6508444  3
     30     28     20     58     1  0.0000000  0.6508444  3
     30     28     40     49     1  0.0000000  0.6508444  3
     30     28     40     41     1  0.0000000  0.6508444  3
     30     28     40     42     1  0.0000000  0.6508444  3
     31     43     46     47     1  0.0000000  0.6694400  3
     31     43     46     48     1  0.0000000  0.6694400  3
     32     31     20     58     1  0.0000000  0.6508444  3
     32     31     43     46     1  0.0000000  0.6508444  3
     32     31     43     44     1  0.0000000  0.6508444  3
     32     31     43     45     1  0.0000000  0.6508444  3
     33     31     20     58     1  0.0000000  0.6508444  3
     33     31     43     46     1  0.0000000  0.6508444  3
     33     31     43     44     1  0.0000000  0.6508444  3
     33     31     43     45     1  0.0000000  0.6508444  3
     34     22     21     59     1  0.0000000  0.6508444  3
     35     34     55    178     1  0.0000000  1.0460000  1
     35     34     55    178     1  0.0000000  0.0000000  3
     35     34     55     56     1  0.0000000  0.6276000  3
     35     34     55     57     1  0.0000000  0.6276000  3
     36     34     55    178     1  0.0000000  1.0460000  1
     36     34     55    178     1  0.0000000  0.0000000  3
     36     34     55     56     1  0.0000000  0.6276000  3
     36     34     55     57     1  0.0000000  0.6276000  3
     37     25     21     59     1  0.0000000  0.6508444  3
     38     37     52    148     1  0.0000000  1.0460000  1
     38     37     52    148     1  0.0000000  0.0000000  3
     38     37     52     53     1  0.0000000  0.6276000  3
     38     37     52     54     1  0.0000000  0.6276000  3
     39     37     52    148     1  0.0000000  1.0460000  1
     39     37     52    148     1  0.0000000  0.0000000  3
     39     37     52     53     1  0.0000000  0.6276000  3
     39     37     52     54     1  0.0000000  0.6276000  3
     40     28     20     58     1  0.0000000  0.6508444  3
     41     40     49    118     1  0.0000000  1.0460000  1
     41     40     49    118     1  0.0000000  0.0000000  3
     41     40     49     50     1  0.0000000  0.6276000  3
     41     40     49     51     1  0.0000000  0.6276000  3
     42     40     49    118     1  0.0000000  1.0460000  1
     42     40     49    118     1  0.0000000  0.0000000  3
     42     40     49     50     1  0.0000000  0.6276000  3
     42     40     49     51     1  0.0000000  0.6276000  3
     43     31     20     58     1  0.0000000  0.6508444  3
     44     43     46     88     1  0.0000000  1.0460000  1
     44     43     46     88     1  0.0000000  0.0000000  3
     44     43     46     47     1  0.0000000  0.6276000  3
     44     43     46     48     1  0.0000000  0.6276000  3
     45     43     46     88     1  0.0000000  1.0460000  1
     45     43     46     88     1  0.0000000  0.0000000  3
     45     43     46     47     1  0.0000000  0.6276000  3
     45     43     46     48     1  0.0000000  0.6276000  3
     46     88     79     80     1  0.0000000  1.6038667  3
     46     88     79     81     1  0.0000000  1.6038667  3
     47     46     88     79     1  0.0000000  1.6038667  3
     48     46     88     79     1  0.0000000  1.6038667  3
     49    118    109    110     1  0.0000000  1.6038667  3
     49    118    109    111     1  0.0000000  1.6038667  3
     50     49    118    109     1  0.0000000  1.6038667  3
     51     49    118    109     1  0.0000000  1.6038667  3
     52    148    139    140     1  0.0000000  1.6038667  3
     52    148    139    141     1  0.0000000  1.6038667  3
     53     52    148    139     1  0.0000000  1.6038667  3
     54     52    148    139     1  0.0000000  1.6038667  3
     55    178    169    170     1  0.0000000  1.6038667  3
     55    178    169    171     1  0.0000000  1.6038667  3
     56     55    178    169     1  0.0000000  1.6038667  3
     57     55    178    169     1  0.0000000  1.6038667  3
     60     61     73     74     1  0.0000000  0.6508444  3
     60     61     73     75     1  0.0000000  0.6508444  3
     60     64     76     77     1  0.0000000  0.6508444  3
     60     64     76     78     1  0.0000000  0.6508444  3
     60     67     70     71     1  0.0000000  0.6508444  3
     60     67     70     72     1  0.0000000  0.6508444  3
     61     60     64     65     1  0.0000000  0.6508444  3
     61     60     64     66     1  0.0000000  0.6508444  3
     61     60     67     68     1  0.0000000  0.6508444  3
     61     60     67     69     1  0.0000000  0.6508444  3
     61     73     85     86     1  0.0000000  0.6508444  3
     61     73     85     87     1  0.0000000  0.6508444  3
     62     61     60     64     1  0.0000000  0.6508444  3
     62     61     60     67     1  0.0000000  0.6508444  3
     62     61     60     89     1  0.0000000  0.6508444  3
     62     61     73     85     1  0.0000000  0.6508444  3
     62     61     73     74     1  0.0000000  0.6508444  3
     62     61     73     75     1  0.0000000  0.6508444  3
     63     61     60     64     1  0.0000000  0.6508444  3
     63     61     60     67     1  0.0000000  0.6508444  3
     63     61     60     89     1  0.0000000  0.6508444  3
     63     61     73     85     1  0.0000000  0.6508444  3
     63     61     73     74     1  0.0000000  0.6508444  3
     63     61     73     75     1  0.0000000  0.6508444  3
     64     60     67     68     1  0.0000000  0.6508444  3
     64     60     67     69     1  0.0000000  0.6508444  3
     64     76     82     83     1  0.0000000  0.6508444  3
     64     76     82     84     1  0.0000000  0.6508444  3
     65     64     60     67     1  0.0000000  0.6508444  3
     65     64     60     89     1  0.0000000  0.6508444  3
     65     64     76     82     1  0.0000000  0.6508444  3
     65     64     76     77     1  0.0000000  0.6508444  3
     65     64     76     78     1  0.0000000  0.6508444  3
     66     64     60     67     1  0.0000000  0.6508444  3
     66     64     60     89     1  0.0000000  0.6508444  3
     66     64     76     82     1  0.0000000  0.6508444  3
     66     64     76     77     1  0.0000000  0.6508444  3
     66     64     76     78     1  0.0000000  0.6508444  3
     67     70     79     80     1  0.0000000  0.6508444  3
     67     70     79     81     1  0.0000000  0.6508444  3
     68     67     60     89     1  0.0000000  0.6508444  3
     68     67     70     79     1  0.0000000  0.6508444  3
     68     67     70     71     1  0.0000000  0.6508444  3
     68     67     70     72     1  0.0000000  0.6508444  3
     69     67     60     89     1  0.0000000  0.6508444  3
     69     67     70     79     1  0.0000000  0.6508444  3
     69     67     70     71     1  0.0000000  0.6508444  3
     69     67     70     72     1  0.0000000  0.6508444  3
     70     67     60     89     1  0.0000000  0.6508444  3
     71     70     79     88     1  0.0000000  1.0460000  1
     71     70     79     88     1  0.0000000  0.0000000  3
     71     70     79     80     1  0.0000000  0.6508444  3
     71     70     79     81     1  0.0000000  0.6508444  3
     72     70     79     88     1  0.0000000  1.0460000  1
     72     70     79     88     1  0.0000000  0.0000000  3
     72     70     79     80     1  0.0000000  0.6508444  3
     72     70     79     81     1  0.0000000  0.6508444  3
     73     61     60     89     1  0.0000000  0.6508444  3
     74     73     85    238     1  0.0000000  1.0460000  1
     74     73     85    238     1  0.0000000  0.0000000  3
     74     73     85     86     1  0.0000000  0.6508444  3
     74     73     85     87     1  0.0000000  0.6508444  3
     75     73     85    238     1  0.0000000  1.0460000  1
     75     73     85    238     1  0.0000000  0.0000000  3
     75     73     85     86     1  0.0000000  0.6508444  3
     75     73     85     87     1  0.0000000  0.6508444  3
     76     64     60     89     1  0.0000000  0.6508444  3
     77     76     82    208     1  0.0000000  1.0460000  1
     77     76     82    208     1  0.0000000  0.0000000  3
     77     76     82     83     1  0.0000000  0.6508444  3
     77     76     82     84     1  0.0000000  0.6508444  3
     78     76     82    208     1  0.0000000  1.0460000  1
     78     76     82    208     1  0.0000000  0.0000000  3
     78     76     82     83     1  0.0000000  0.6508444  3
     78     76     82     84     1  0.0000000  0.6508444  3
     82    208    199    200     1  0.0000000  1.6038667  3
     82    208    199    201     1  0.0000000  1.6038667  3
     83     82    208    199     1  0.0000000  1.6038667  3
     84     82    208    199     1  0.0000000  1.6038667  3
     85    238    229    230     1  0.0000000  1.6038667  3
     85    238    229    231     1  0.0000000  1.6038667  3
     86     85    238    229     1  0.0000000  1.6038667  3
     87     85    238    229     1  0.0000000  1.6038667  3
     90     91    103    104     1  0.0000000  0.6508444  3
     90     91    103    105     1  0.0000000  0.6508444  3
     90     94    106    107     1  0.0000000  0.6508444  3
     90     94    106    108     1  0.0000000  0.6508444  3
     90     97    100    101     1  0.0000000  0.6508444  3
     90     97    100    102     1  0.0000000  0.6508444  3
     91     90     94     95     1  0.0000000  0.6508444  3
     91     90     94     96     1  0.0000000  0.6508444  3
     91     90     97     98     1  0.0000000  0.6508444  3
     91     90     97     99     1  0.0000000  0.6508444  3
     91    103    115    116     1  0.0000000  0.6508444  3
     91    103    115    117     1  0.0000000  0.6508444  3
     92     91     90     94     1  0.0000000  0.6508444  3
     92     91     90     97     1  0.0000000  0.6508444  3
     92     91     90    119     1  0.0000000  0.6508444  3
     92     91    103    115     1  0.0000000  0.6508444  3
     92     91    103    104     1  0.0000000  0.6508444  3
     92     91    103    105     1  0.0000000  0.6508444  3
     93     91     90     94     1  0.0000000  0.6508444  3
     93     91     90     97     1  0.0000000  0.6508444  3
     93     91     90    119     1  0.0000000  0.6508444  3
     93     91    103    115     1  0.0000000  0.6508444  3
     93     91    103    104     1  0.0000000  0.6508444  3
     93     91    103    105     1  0.0000000  0.6508444  3
     94     90     97     98     1  0.0000000  0.6508444  3
     94     90     97     99     1  0.0000000  0.6508444  3
     94    106    112    113     1  0.0000000  0.6508444  3
     94    106    112    114     1  0.0000000  0.6508444  3
     95     94     90     97     1  0.0000000  0.6508444  3
     95     94     90    119     1  0.0000000  0.6508444  3
     95     94    106    112     1  0.0000000  0.6508444  3
     95     94    106    107     1  0.0000000  0.6508444  3
     95     94    106    108     1  0.0000000  0.6508444  3
     96     94     90     97     1  0.0000000  0.6508444  3
     96     94     90    119     1  0.0000000  0.6508444  3
     96     94    106    112     1  0.0000000  0.6508444  3
     96     94    106    107     1  0.0000000  0.6508444  3
     96     94    106    108     1  0.0000000  0.6508444  3
     97    100    109    110     1  0.0000000  0.6508444  3
     97    100    109    111     1  0.0000000  0.6508444  3
     98     97     90    119     1  0.0000000  0.6508444  3
     98     97    100    109     1  0.0000000  0.6508444  3
     98     97    100    101     1  0.0000000  0.6508444  3
     98     97    100    102     1  0.0000000  0.6508444  3
     99     97     90    119     1  0.0000000  0.6508444  3
     99     97    100    109     1  0.0000000  0.6508444  3
     99     97    100    101     1  0.0000000  0.6508444  3
     99     97    100    102     1  0.0000000  0.6508444  3
    100     97     90    119     1  0.0000000  0.6508444  3
    101    100    109    118     1  0.0000000  1.0460000  1
    101    100    109    118     1  0.0000000  0.0000000  3
    101    100    109    110     1  0.0000000  0.6508444  3
    101    100    109    111     1  0.0000000  0.6508444  3
    102    100    109    118     1  0.0000000  1.0460000  1
    102    100    109    118     1  0.0000000  0.0000000  3
    102    100    109    110     1  0.0000000  0.6508444  3
    102    100    109    111     1  0.0000000  0.6508444  3
    103     91     90    119     1  0.0000000  0.6508444  3
    104    103    115    298     1  0.0000000  1.0460000  1
    104    103    115    298     1  0.0000000  0.0000000  3
    104    103    115    116     1  0.0000000  0.6508444  3
    104    103    115    117     1  0.0000000  0.6508444  3
    105    103    115    298     1  0.0000000  1.0460000  1
    105    103    115    298     1  0.0000000  0.0000000  3
    105    103    115    116     1  0.0000000  0.6508444  3
    105    103    115    117     1  0.0000000  0.6508444  3
    106     94     90    119     1  0.0000000  0.6508444  3
    107    106    112    268     1  0.0000000  1.0460000  1
    107    106    112    268     1  0.0000000  0.0000000  3
    107    106    112    113     1  0.0000000  0.6508444  3
    107    106    112    114     1  0.0000000  0.6508444  3
    108    106    112    268     1  0.0000000  1.0460000  1
    108    106    112    268     1  0.0000000  0.0000000  3
    108    106    112    113     1  0.0000000  0.6508444  3
    108    106    112    114     1  0.0000000  0.6508444  3
    112    268    259    260     1  0.0000000  1.6038667  3
    112    268    259    261     1  0.0000000  1.6038667  3
    113    112    268    259     1  0.0000000  1.6038667  3
    114    112    268    259     1  0.0000000  1.6038667  3
    115    298    289    290     1  0.0000000  1.6038667  3
    115    298    289    291     1  0.0000000  1.6038667  3
    116    115    298    289     1  0.0000000  1.6038667  3
    117    115    298    289     1  0.0000000  1.6038667  3
    120    121    133    134     1  0.0000000  0.6508444  3
    120    121    133    135     1  0.0000000  0.6508444  3
    120    124    136    137     1  0.0000000  0.6508444  3
    120    124    136    138     1  0.0000000  0.6508444  3
    120    127    130    131     1  0.0000000  0.6508444  3
    120    127    130    132     1  0.0000000  0.6508444  3
    121    120    124    125     1  0.0000000  0.6508444  3
    121    120    124    126     1  0.0000000  0.6508444  3
    121    120    127    128     1  0.0000000  0.6508444  3
    121    120    127    129     1  0.0000000  0.6508444  3
    121    133    145    146     1  0.0000000  0.6508444  3
    121    133    145    147     1  0.0000000  0.6508444  3
    122    121    120    124     1  0.0000000  0.6508444  3
    122    121    120    127     1  0.0000000  0.6508444  3
    122    121    120    149     1  0.0000000  0.6508444  3
    122    121    133    145     1  0.0000000  0.6508444  3
    122    121    133    134     1  0.0000000  0.6508444  3
    122    121    133    135     1  0.0000000  0.6508444  3
    123    121    120    124     1  0.0000000  0.6508444  3
    123    121    120    127     1  0.0000000  0.6508444  3
    123    121    120    149     1  0.0000000  0.6508444  3
    123    121    133    145     1  0.0000000  0.6508444  3
    123    121    133    134     1  0.0000000  0.6508444  3
    123    121    133    135     1  0.0000000  0.6508444  3
    124    120    127    128     1  0.0000000  0.6508444  3
    124    120    127    129     1  0.0000000  0.6508444  3
    124    136    142    143     1  0.0000000  0.6508444  3
    124    136    142    144     1  0.0000000  0.6508444  3
    125    124    120    127     1  0.0000000  0.6508444  3
    125    124    120    149     1  0.0000000  0.6508444  3
    125    124    136    142     1  0.0000000  0.6508444  3
    125    124    136    137     1  0.0000000  0.6508444  3
    125    124    136    138     1  0.0000000  0.6508444  3
    126    124    120    127     1  0.0000000  0.6508444  3
    126    124    120    149     1  0.0000000  0.6508444  3
    126    124    136    142     1  0.0000000  0.6508444  3
    126    124    136    137     1  0.0000000  0.6508444  3
    126    124    136    138     1  0.0000000  0.6508444  3
    127    130    139    140     1  0.0000000  0.6508444  3
    127    130    139    141     1  0.0000000  0.6508444  3
    128    127    120    149     1  0.0000000  0.6508444  3
    128    127    130    139     1  0.0000000  0.6508444  3
    128    127    130    131     1  0.0000000  0.6508444  3
    128    127    130    132     1  0.0000000  0.6508444  3
    129    127    120    149     1  0.0000000  0.6508444  3
    129    127    130    139     1  0.0000000  0.6508444  3
    129    127    130    131     1  0.0000000  0.6508444  3
    129    127    130    132     1  0.0000000  0.6508444  3
    130    127    120    149     1  0.0000000  0.6508444  3
    131    130    139    148     1  0.0000000  1.0460000  1
    131    130    139    148     1  0.0000000  0.0000000  3
    131    130    139    140     1  0.0000000  0.6508444  3
    131    130    139    141     1  0.0000000  0.6508444  3
    132    130    139    148     1  0.0000000  1.0460000  1
    132    130    139    148     1  0.0000000  0.0000000  3
    132    130    139    140     1  0.0000000  0.6508444  3
    132    130    139    141     1  0.0000000  0.6508444  3
    133    121    120    149     1  0.0000000  0.6508444  3
    134    133    145    358     1  0.0000000  1.0460000  1
    134    133    145    358     1  0.0000000  0.0000000  3
    134    133    145    146     1  0.0000000  0.6508444  3
    134    133    145    147     1  0.0000000  0.6508444  3
    135    133    145    358     1  0.0000000  1.0460000  1
    135    133    145    358     1  0.0000000  0.0000000  3
    135    133    145    146     1  0.0000000  0.6508444  3
    135    133    145    147     1  0.0000000  0.6508444  3
    136    124    120    149     1  0.0000000  0.6508444  3
    137    136    142    328     1  0.0000000  1.0460000  1
    137    136    142    328     1  0.0000000  0.0000000  3
    137    136    142    143     1  0.0000000  0.6508444  3
    137    136    142    144     1  0.0000000  0.6508444  3
    138    136    142    328     1  0.0000000  1.0460000  1
    138    136    142    328     1  0.0000000  0.0000000  3
    138    136    142    143     1  0.0000000  0.6508444  3
    138    136    142    144     1  0.0000000  0.6508444  3
    142    328    319    320     1  0.0000000  1.6038667  3
    142    328    319    321     1  0.0000000  1.6038667  3
    143    142    328    319     1  0.0000000  1.6038667  3
    144    142    328    319     1  0.0000000  1.6038667  3
    145    358    349    350     1  0.0000000  1.6038667  3
    145    358    349    351     1  0.0000000  1.6038667  3
    146    145    358    349     1  0.0000000  1.6038667  3
    147    145    358    349     1  0.0000000  1.6038667  3
    150    151    163    164     1  0.0000000  0.6508444  3
    150    151    163    165     1  0.0000000  0.6508444  3
    150    154    166    167     1  0.0000000  0.6508444  3
    150    154    166    168     1  0.0000000  0.6508444  3
    150    157    160    161     1  0.0000000  0.6508444  3
    150    157    160    162     1  0.0000000  0.6508444  3
    151    150    154    155     1  0.0000000  0.6508444  3
    151    150    154    156     1  0.0000000  0.6508444  3
    151    150    157    158     1  0.0000000  0.6508444  3
    151    150    157    159     1  0.0000000  0.6508444  3
    151    163    175    176     1  0.0000000  0.6508444  3
    151    163    175    177     1  0.0000000  0.6508444  3
    152    151    150    154     1  0.0000000  0.6508444  3
    152    151    150    157     1  0.0000000  0.6508444  3
    152    151    150    179     1  0.0000000  0.6508444  3
    152    151    163    175     1  0.0000000  0.6508444  3
    152    151    163    164     1  0.0000000  0.6508444  3
    152    151    163    165     1  0.0000000  0.6508444  3
    153    151    150    154     1  0.0000000  0.6508444  3
    153    151    150    157     1  0.0000000  0.6508444  3
    153    151    150    179     1  0.0000000  0.6508444  3
    153    151    163    175     1  0.0000000  0.6508444  3
    153    151    163    164     1  0.0000000  0.6508444  3
    153    151    163    165     1  0.0000000  0.6508444  3
    154    150    157    158     1  0.0000000  0.6508444  3
    154    150    157    159     1  0.0000000  0.6508444  3
    154    166    172    173     1  0.0000000  0.6508444  3
    154    166    172    174     1  0.0000000  0.6508444  3
    155    154    150    157     1  0.0000000  0.6508444  3
    155    154    150    179     1  0.0000000  0.6508444  3
    155    154    166    172     1  0.0000000  0.6508444  3
    155    154    166    167     1  0.0000000  0.6508444  3
    155    154    166    168     1  0.0000000  0.6508444  3
    156    154    150    157     1  0.0000000  0.6508444  3
    156    154    150    179     1  0.0000000  0.6508444  3
    156    154    166    172     1  0.0000000  0.6508444  3
    156    154    166    167     1  0.0000000  0.6508444  3
    156    154    166    168     1  0.0000000  0.6508444  3
    157    160    169    170     1  0.0000000  0.6508444  3
    157    160    169    171     1  0.0000000  0.6508444  3
    158    157    150    179     1  0.0000000  0.6508444  3
    158    157    160    169     1  0.0000000  0.6508444  3
    158    157    160    161     1  0.0000000  0.6508444  3
    158    157    160    162     1  0.0000000  0.6508444  3
    159    157    150    179     1  0.0000000  0.6508444  3
    159    157    160    169     1  0.0000000  0.6508444  3
    159    157    160    161     1  0.0000000  0.6508444  3
    159    157    160    162     1  0.0000000  0.6508444  3
    160    157    150    179     1  0.0000000  0.6508444  3
    161    160    169    178     1  0.0000000  1.0460000  1
    161    160    169    178     1  0.0000000  0.0000000  3
    161    160    169    170     1  0.0000000  0.6508444  3
    161    160    169    171     1  0.0000000  0.6508444  3
    162    160    169    178     1  0.0000000  1.0460000  1
    162    160    169    178     1  0.0000000  0.0000000  3
    162    160    169    170     1  0.0000000  0.6508444  3
    162    160    169    171     1  0.0000000  0.6508444  3
    163    151    150    179     1  0.0000000  0.6508444  3
    164    163    175    418     1  0.0000000  1.0460000  1
    164    163    175    418     1  0.0000000  0.0000000  3
    164    163    175    176     1  0.0000000  0.6508444  3
    164    163    175    177     1  0.0000000  0.6508444  3
    165    163    175    418     1  0.0000000  1.0460000  1
    165    163    175    418     1  0.0000000  0.0000000  3
    165    163    175    176     1  0.0000000  0.6508444  3
    165    163    175    177     1  0.0000000  0.6508444  3
    166    154    150    179     1  0.0000000  0.6508444  3
    167    166    172    388     1  0.0000000  1.0460000  1
    167    166    172    388     1  0.0000000  0.0000000  3
    167    166    172    173     1  0.0000000  0.6508444  3
    167    166    172    174     1  0.0000000  0.6508444  3
    168    166    172    388     1  0.0000000  1.0460000  1
    168    166    172    388     1  0.0000000  0.0000000  3
    168    166    172    173     1  0.0000000  0.6508444  3
    168    166    172    174     1  0.0000000  0.6508444  3
    172    388    379    380     1  0.0000000  1.6038667  3
    172    388    379    381     1  0.0000000  1.6038667  3
    173    172    388    379     1  0.0000000  1.6038667  3
    174    172    388    379     1  0.0000000  1.6038667  3
    175    418    409    410     1  0.0000000  1.6038667  3
    175    418    409    411     1  0.0000000  1.6038667  3
    176    175    418    409     1  0.0000000  1.6038667  3
    177    175    418    409     1  0.0000000  1.6038667  3
    180    181    193    194     1  0.0000000  0.6508444  3
    180    181    193    195     1  0.0000000  0.6508444  3
    180    184    196    197     1  0.0000000  0.6508444  3
    180    184    196    198     1  0.0000000  0.6508444  3
    180    187    190    191     1  0.0000000  0.6508444  3
    180    187    190    192     1  0.0000000  0.6508444  3
    181    180    184    185     1  0.0000000  0.6508444  3
    181    180    184    186     1  0.0000000  0.6508444  3
    181    180    187    188     1  0.0000000  0.6508444  3
    181    180    187    189     1  0.0000000  0.6508444  3
    181    193    205    206     1  0.0000000  0.6508444  3
    181    193    205    207     1  0.0000000  0.6508444  3
    182    181    180    184     1  0.0000000  0.6508444  3
    182    181    180    187     1  0.0000000  0.6508444  3
    182    181    180    209     1  0.0000000  0.6508444  3
    182    181    193    205     1  0.0000000  0.6508444  3
    182    181    193    194     1  0.0000000  0.6508444  3
    182    181    193    195     1  0.0000000  0.6508444  3
    183    181    180    184     1  0.0000000  0.6508444  3
    183    181    180    187     1  0.0000000  0.6508444  3
    183    181    180    209     1  0.0000000  0.6508444  3
    183    181    193    205     1  0.0000000  0.6508444  3
    183    181    193    194     1  0.0000000  0.6508444  3
    183    181    193    195     1  0.0000000  0.6508444  3
    184    180    187    188     1  0.0000000  0.6508444  3
    184    180    187    189     1  0.0000000  0.6508444  3
    184    196    202    203     1  0.0000000  0.6508444  3
    184    196    202    204     1  0.0000000  0.6508444  3
    185    184    180    187     1  0.0000000  0.6508444  3
    185    184    180    209     1  0.0000000  0.6508444  3
    185    184    196    202     1  0.0000000  0.6508444  3
    185    184    196    197     1  0.0000000  0.6508444  3
    185    184    196    198     1  0.0000000  0.6508444  3
    186    184    180    187     1  0.0000000  0.6508444  3
    186    184    180    209     1  0.0000000  0.6508444  3
    186    184    196    202     1  0.0000000  0.6508444  3
    186    184    196    197     1  0.0000000  0.6508444  3
    186    184    196    198     1  0.0000000  0.6508444  3
    187    190    199    200     1  0.0000000  0.6508444  3
    187    190    199    201     1  0.0000000  0.6508444  3
    188    187    180    209     1  0.0000000  0.6508444  3
    188    187    190    199     1  0.0000000  0.6508444  3
    188    187    190    191     1  0.0000000  0.6508444  3
    188    187    190    192     1  0.0000000  0.6508444  3
    189    187    180    209     1  0.0000000  0.6508444  3
    189    187    190    199     1  0.0000000  0.6508444  3
    189    187    190    191     1  0.0000000  0.6508444  3
    189    187    190    192     1  0.0000000  0.6508444  3
    190    187    180    209     1  0.0000000  0.6508444  3
    191    190    199    208     1  0.0000000  1.0460000  1
    191    190    199    208     1  0.0000000  0.0000000  3
    191    190    199    200     1  0.0000000  0.6508444  3
    191    190    199    201     1  0.0000000  0.6508444  3
    192    190    199    208     1  0.0000000  1.0460000  1
    192    190    199    208     1  0.0000000  0.0000000  3
    192    190    199    200     1  0.0000000  0.6508444  3
    192    190    199    201     1  0.0000000  0.6508444  3
    193    181    180    209     1  0.0000000  0.6508444  3
    194    193    205    478     1  0.0000000  1.0460000  1
    194    193    205    478     1  0.0000000  0.0000000  3
    194    193    205    206     1  0.0000000  0.6508444  3
    194    193    205    207     1  0.0000000  0.6508444  3
    195    193    205    478     1  0.0000000  1.0460000  1
    195    193    205    478     1  0.0000000  0.0000000  3
    195    193    205    206     1  0.0000000  0.6508444  3
    195    193    205    207     1  0.0000000  0.6508444  3
    196    184    180    209     1  0.0000000  0.6508444  3
    197    196    202    448     1  0.0000000  1.0460000  1
    197    196    202    448     1  0.0000000  0.0000000  3
    197    196    202    203     1  0.0000000  0.6508444  3
    197    196    202    204     1  0.0000000  0.6508444  3
    198    196    202    448     1  0.0000000  1.0460000  1
    198    196    202    448     1  0.0000000  0.0000000  3
    198    196    202    203     1  0.0000000  0.6508444  3
    198    196    202    204     1  0.0000000  0.6508444  3
    202    448    439    440     1  0.0000000  1.6038667  3
    202    448    439    441     1  0.0000000  1.6038667  3
    203    202    448    439     1  0.0000000  1.6038667  3
    204    202    448    439     1  0.0000000  1.6038667  3
    205    478    469    470     1  0.0000000  1.6038667  3
    205    478    469    471     1  0.0000000  1.6038667  3
    206    205    478    469     1  0.0000000  1.6038667  3
    207    205    478    469     1  0.0000000  1.6038667  3
    210    211    223    224     1  0.0000000  0.6508444  3
    210    211    223    225     1  0.0000000  0.6508444  3
    210    214    226    227     1  0.0000000  0.6508444  3
    210    214    226    228     1  0.0000000  0.6508444  3
    210    217    220    221     1  0.0000000  0.6508444  3
    210    217    220    222     1  0.0000000  0.6508444  3
    211    210    214    215     1  0.0000000  0.6508444  3
    211    210    214    216     1  0.0000000  0.6508444  3
    211    210    217    218     1  0.0000000  0.6508444  3
    211    210    217    219     1  0.0000000  0.6508444  3
    211    223    235    236     1  0.0000000  0.6508444  3
    211    223    235    237     1  0.0000000  0.6508444  3
    212    211    210    214     1  0.0000000  0.6508444  3
    212    211    210    217     1  0.0000000  0.6508444  3
    212    211    210    239     1  0.0000000  0.6508444  3
    212    211    223    235     1  0.0000000  0.6508444  3
    212    211    223    224     1  0.0000000  0.6508444  3
    212    211    223    225     1  0.0000000  0.6508444  3
    213    211    210    214     1  0.0000000  0.6508444  3
    213    211    210    217     1  0.0000000  0.6508444  3
    213    211    210    239     1  0.0000000  0.6508444  3
    213    211    223    235     1  0.0000000  0.6508444  3
    213    211    223    224     1  0.0000000  0.6508444  3
    213    211    223    225     1  0.0000000  0.6508444  3
    214    210    217    218     1  0.0000000  0.6508444  3
    214    210    217    219     1  0.0000000  0.6508444  3
    214    226    232    233     1  0.0000000  0.6508444  3
    214    226    232    234     1  0.0000000  0.6508444  3
    215    214    210    217     1  0.0000000  0.6508444  3
    215    214    210    239     1  0.0000000  0.6508444  3
    215    214    226    232     1  0.0000000  0.6508444  3
    215    214    226    227     1  0.0000000  0.6508444  3
    215    214    226    228     1  0.0000000  0.6508444  3
    216    214    210    217     1  0.0000000  0.6508444  3
    216    214    210    239     1  0.0000000  0.6508444  3
    216    214    226    232     1  0.0000000  0.6508444  3
    216    214    226    227     1  0.0000000  0.6508444  3
    216    214    226    228     1  0.0000000  0.6508444  3
    217    220    229    230     1  0.0000000  0.6508444  3
    217    220    229    231     1  0.0000000  0.6508444  3
    218    217    210    239     1  0.0000000  0.6508444  3
    218    217    220    229     1  0.0000000  0.6508444  3
    218    217    220    221     1  0.0000000  0.6508444  3
    218    217    220    222     1  0.0000000  0.6508444  3
    219    217    210    239     1  0.0000000  0.6508444  3
    219    217    220    229     1  0.0000000  0.6508444  3
    219    217    220    221     1  0.0000000  0.6508444  3
    219    217    220    222     1  0.0000000  0.6508444  3
    220    217    210    239     1  0.0000000  0.6508444  3
    221    220    229    238     1  0.0000000  1.0460000  1
    221    220    229    238     1  0.0000000  0.0000000  3
    221    220    229    230     1  0.0000000  0.6508444  3
    221    220    229    231     1  0.0000000  0.6508444  3
    222    220    229    238     1  0.0000000  1.0460000  1
    222    220    229    238     1  0.0000000  0.0000000  3
    222    220    229    230     1  0.0000000  0.6508444  3
    222    220    229    231     1  0.0000000  0.6508444  3
    223    211    210    239     1  0.0000000  0.6508444  3
    224    223    235    538     1  0.0000000  1.0460000  1
    224    223    235    538     1  0.0000000  0.0000000  3
    224    223    235    236     1  0.0000000  0.6508444  3
    224    223    235    237     1  0.0000000  0.6508444  3
    225    223    235    538     1  0.0000000  1.0460000  1
    225    223    235    538     1  0.0000000  0.0000000  3
    225    223    235    236     1  0.0000000  0.6508444  3
    225    223    235    237     1  0.0000000  0.6508444  3
    226    214    210    239     1  0.0000000  0.6508444  3
    227    226    232    508     1  0.0000000  1.0460000  1
    227    226    232    508     1  0.0000000  0.0000000  3
    227    226    232    233     1  0.0000000  0.6508444  3
    227    226    232    234     1  0.0000000  0.6508444  3
    228    226    232    508     1  0.0000000  1.0460000  1
    228    226    232    508     1  0.0000000  0.0000000  3
    228    226    232    233     1  0.0000000  0.6508444  3
    228    226    232    234     1  0.0000000  0.6508444  3
    232    508    499    500     1  0.0000000  1.6038667  3
    232    508    499    501     1  0.0000000  1.6038667  3
    233    232    508    499     1  0.0000000  1.6038667  3
    234    232    508    499     1  0.0000000  1.6038667  3
    235    538    529    530     1  0.0000000  1.6038667  3
    235    538    529    531     1  0.0000000  1.6038667  3
    236    235    538    529     1  0.0000000  1.6038667  3
    237    235    538    529     1  0.0000000  1.6038667  3
    240    241    253    254     1  0.0000000  0.6508444  3
    240    241    253    255     1  0.0000000  0.6508444  3
    240    244    256    257     1  0.0000000  0.6508444  3
    240    244    256    258     1  0.0000000  0.6508444  3
    240    247    250    251     1  0.0000000  0.6508444  3
    240    247    250    252     1  0.0000000  0.6508444  3
    241    240    244    245     1  0.0000000  0.6508444  3
    241    240    244    246     1  0.0000000  0.6508444  3
    241    240    247    248     1  0.0000000  0.6508444  3
    241    240    247    249     1  0.0000000  0.6508444  3
    241    253    265    266     1  0.0000000  0.6508444  3
    241    253    265    267     1  0.0000000  0.6508444  3
    242    241    240    244     1  0.0000000  0.6508444  3
    242    241    240    247     1  0.0000000  0.6508444  3
    242    241    240    269     1  0.0000000  0.6508444  3
    242    241    253    265     1  0.0000000  0.6508444  3
    242    241    253    254     1  0.0000000  0.6508444  3
    242    241    253    255     1  0.0000000  0.6508444  3
    243    241    240    244     1  0.0000000  0.6508444  3
    243    241    240    247     1  0.0000000  0.6508444  3
    243    241    240    269     1  0.0000000  0.6508444  3
    243    241    253    265     1  0.0000000  0.6508444  3
    243    241    253    254     1  0.0000000  0.6508444  3
    243    241    253    255     1  0.0000000  0.6508444  3
    244    240    247    248     1  0.0000000  0.6508444  3
    244    240    247    249     1  0.0000000  0.6508444  3
    244    256    262    263     1  0.0000000  0.6508444  3
    244    256    262    264     1  0.0000000  0.6508444  3
    245    244    240    247     1  0.0000000  0.6508444  3
    245    244    240    269     1  0.0000000  0.6508444  3
    245    244    256    262     1  0.0000000  0.6508444  3
    245    244    256    257     1  0.0000000  0.6508444  3
    245    244    256    258     1  0.0000000  0.6508444  3
    246    244    240    247     1  0.0000000  0.6508444  3
    246    244    240    269     1  0.0000000  0.6508444  3
    246    244    256    262     1  0.0000000  0.6508444  3
    246    244    256    257     1  0.0000000  0.6508444  3
    246    244    256    258     1  0.0000000  0.6508444  3
    247    250    259    260     1  0.0000000  0.6508444  3
    247    250    259    261     1  0.0000000  0.6508444  3
    248    247    240    269     1  0.0000000  0.6508444  3
    248    247    250    259     1  0.0000000  0.6508444  3
    248    247    250    251     1  0.0000000  0.6508444  3
    248    247    250    252     1  0.0000000  0.6508444  3
    249    247    240    269     1  0.0000000  0.6508444  3
    249    247    250    259     1  0.0000000  0.6508444  3
    249    247    250    251     1  0.0000000  0.6508444  3
    249    247    250    252     1  0.0000000  0.6508444  3
    250    247    240    269     1  0.0000000  0.6508444  3
    251    250    259    268     1  0.0000000  1.0460000  1
    251    250    259    268     1  0.0000000  0.0000000  3
    251    250    259    260     1  0.0000000  0.6508444  3
    251    250    259    261     1  0.0000000  0.6508444  3
    252    250    259    268     1  0.0000000  1.0460000  1
    252    250    259    268     1  0.0000000  0.0000000  3
    252    250    259    260     1  0.0000000  0.6508444  3
    252    250    259    261     1  0.0000000  0.6508444  3
    253    241    240    269     1  0.0000000  0.6508444  3
    254    253    265    598     1  0.0000000  1.0460000  1
    254    253    265    598     1  0.0000000  0.0000000  3
    254    253    265    266     1  0.0000000  0.6508444  3
    254    253    265    267     1  0.0000000  0.6508444  3
    255    253    265    598     1  0.0000000  1.0460000  1
    255    253    265    598     1  0.0000000  0.0000000  3
    255    253    265    266     1  0.0000000  0.6508444  3
    255    253    265    267     1  0.0000000  0.6508444  3
    256    244    240    269     1  0.0000000  0.6508444  3
    257    256    262    568     1  0.0000000  1.0460000  1
    257    256    262    568     1  0.0000000  0.0000000  3
    257    256    262    263     1  0.0000000  0.6508444  3
    257    256    262    264     1  0.0000000  0.6508444  3
    258    256    262    568     1  0.0000000  1.0460000  1
    258    256    262    568     1  0.0000000  0.0000000  3
    258    256    262    263     1  0.0000000  0.6508444  3
    258    256    262    264     1  0.0000000  0.6508444  3
    262    568    559    560     1  0.0000000  1.6038667  3
    262    568    559    561     1  0.0000000  1.6038667  3
    263    262    568    559     1  0.0000000  1.6038667  3
    264    262    568    559     1  0.0000000  1.6038667  3
    265    598    589    590     1  0.0000000  1.6038667  3
    265    598    589    591     1  0.0000000  1.6038667  3
    266    265    598    589     1  0.0000000  1.6038667  3
    267    265    598    589     1  0.0000000  1.6038667  3
    270    271    283    284     1  0.0000000  0.6508444  3
    270    271    283    285     1  0.0000000  0.6508444  3
    270    274    286    287     1  0.0000000  0.6508444  3
    270    274    286    288     1  0.0000000  0.6508444  3
    270    277    280    281     1  0.0000000  0.6508444  3
    270    277    280    282     1  0.0000000  0.6508444  3
    271    270    274    275     1  0.0000000  0.6508444  3
    271    270    274    276     1  0.0000000  0.6508444  3
    271    270    277    278     1  0.0000000  0.6508444  3
    271    270    277    279     1  0.0000000  0.6508444  3
    271    283    295    296     1  0.0000000  0.6508444  3
    271    283    295    297     1  0.0000000  0.6508444  3
    272    271    270    274     1  0.0000000  0.6508444  3
    272    271    270    277     1  0.0000000  0.6508444  3
    272    271    270    299     1  0.0000000  0.6508444  3
    272    271    283    295     1  0.0000000  0.6508444  3
    272    271    283    284     1  0.0000000  0.6508444  3
    272    271    283    285     1  0.0000000  0.6508444  3
    273    271    270    274     1  0.0000000  0.6508444  3
    273    271    270    277     1  0.0000000  0.6508444  3
    273    271    270    299     1  0.0000000  0.6508444  3
    273    271    283    295     1  0.0000000  0.6508444  3
    273    271    283    284     1  0.0000000  0.6508444  3
    273    271    283    285     1  0.0000000  0.6508444  3
    274    270    277    278     1  0.0000000  0.6508444  3
    274    270    277    279     1  0.0000000  0.6508444  3
    274    286    292    293     1  0.0000000  0.6508444  3
    274    286    292    294     1  0.0000000  0.6508444  3
    275    274    270    277     1  0.0000000  0.6508444  3
    275    274    270    299     1  0.0000000  0.6508444  3
    275    274    286    292     1  0.0000000  0.6508444  3
    275    274    286    287     1  0.0000000  0.6508444  3
    275    274    286    288     1  0.0000000  0.6508444  3
    276    274    270    277     1  0.0000000  0.6508444  3
    276    274    270    299     1  0.0000000  0.6508444  3
    276    274    286    292     1  0.0000000  0.6508444  3
    276    274    286    287     1  0.0000000  0.6508444  3
    276    274    286    288     1  0.0000000  0.6508444  3
    277    280    289    290     1  0.0000000  0.6508444  3
    277    280    289    291     1  0.0000000  0.6508444  3
    278    277    270    299     1  0.0000000  0.6508444  3
    278    277    280    289     1  0.0000000  0.6508444  3
    278    277    280    281     1  0.0000000  0.6508444  3
    278    277    280    282     1  0.0000000  0.6508444  3
    279    277    270    299     1  0.0000000  0.6508444  3
    279    277    280    289     1  0.0000000  0.6508444  3
    279    277    280    281     1  0.0000000  0.6508444  3
    279    277    280    282     1  0.0000000  0.6508444  3
    280    277    270    299     1  0.0000000  0.6508444  3
    281    280    289    298     1  0.0000000  1.0460000  1
    281    280    289    298     1  0.0000000  0.0000000  3
    281    280    289    290     1  0.0000000  0.6508444  3
    281    280    289    291     1  0.0000000  0.6508444  3
    282    280    289    298     1  0.0000000  1.0460000  1
    282    280    289    298     1  0.0000000  0.0000000  3
    282    280    289    290     1  0.0000000  0.6508444  3
    282    280    289    291     1  0.0000000  0.6508444  3
    283    271    270    299     1  0.0000000  0.6508444  3
    284    283    295    658     1  0.0000000  1.0460000  1
    284    283    295    658     1  0.0000000  0.0000000  3
    284    283    295    296     1  0.0000000  0.6508444  3
    284    283    295    297     1  0.0000000  0.6508444  3
    285    283    295    658     1  0.0000000  1.0460000  1
    285    283    295    658     1  0.0000000  0.0000000  3
    285    283    295    296     1  0.0000000  0.6508444  3
    285    283    295    297     1  0.0000000  0.6508444  3
    286    274    270    299     1  0.0000000  0.6508444  3
    287    286    292    628     1  0.0000000  1.0460000  1
    287    286    292    628     1  0.0000000  0.0000000  3
    287    286    292    293     1  0.0000000  0.6508444  3
    287    286    292    294     1  0.0000000  0.6508444  3
    288    286    292    628     1  0.0000000  1.0460000  1
    288    286    292    628     1  0.0000000  0.0000000  3
    288    286    292    293     1  0.0000000  0.6508444  3
    288    286    292    294     1  0.0000000  0.6508444  3
    292    628    619    620     1  0.0000000  1.6038667  3
    292    628    619    621     1  0.0000000  1.6038667  3
    293    292    628    619     1  0.0000000  1.6038667  3
    294    292    628    619     1  0.0000000  1.6038667  3
    295    658    649    650     1  0.0000000  1.6038667  3
    295    658    649    651     1  0.0000000  1.6038667  3
    296    295    658    649     1  0.0000000  1.6038667  3
    297    295    658    649     1  0.0000000  1.6038667  3
    300    301    313    314     1  0.0000000  0.6508444  3
    300    301    313    315     1  0.0000000  0.6508444  3
    300    304    316    317     1  0.0000000  0.6508444  3
    300    304    316    318     1  0.0000000  0.6508444  3
    300    307    310    311     1  0.0000000  0.6508444  3
    300    307    310    312     1  0.0000000  0.6508444  3
    301    300    304    305     1  0.0000000  0.6508444  3
    301    300    304    306     1  0.0000000  0.6508444  3
    301    300    307    308     1  0.0000000  0.6508444  3
    301    300    307    309     1  0.0000000  0.6508444  3
    301    313    325    326     1  0.0000000  0.6508444  3
    301    313    325    327     1  0.0000000  0.6508444  3
    302    301    300    304     1  0.0000000  0.6508444  3
    302    301    300    307     1  0.0000000  0.6508444  3
    302    301    300    329     1  0.0000000  0.6508444  3
    302    301    313    325     1  0.0000000  0.6508444  3
    302    301    313    314     1  0.0000000  0.6508444  3
    302    301    313    315     1  0.0000000  0.6508444  3
    303    301    300    304     1  0.0000000  0.6508444  3
    303    301    300    307     1  0.0000000  0.6508444  3
    303    301    300    329     1  0.0000000  0.6508444  3
    303    301    313    325     1  0.0000000  0.6508444  3
    303    301    313    314     1  0.0000000  0.6508444  3
    303    301    313    315     1  0.0000000  0.6508444  3
    304    300    307    308     1  0.0000000  0.6508444  3
    304    300    307    309     1  0.0000000  0.6508444  3
    304    316    322    323     1  0.0000000  0.6508444  3
    304    316    322    324     1  0.0000000  0.6508444  3
    305    304    300    307     1  0.0000000  0.6508444  3
    305    304    300    329     1  0.0000000  0.6508444  3
    305    304    316    322     1  0.0000000  0.6508444  3
    305    304    316    317     1  0.0000000  0.6508444  3
    305    304    316    318     1  0.0000000  0.6508444  3
    306    304    300    307     1  0.0000000  0.6508444  3
    306    304    300    329     1  0.0000000  0.6508444  3
    306    304    316    322     1  0.0000000  0.6508444  3
    306    304    316    317     1  0.0000000  0.6508444  3
    306    304    316    318     1  0.0000000  0.6508444  3
    307    310    319    320     1  0.0000000  0.6508444  3
    307    310    319    321     1  0.0000000  0.6508444  3
    308    307    300    329     1  0.0000000  0.6508444  3
    308    307    310    319     1  0.0000000  0.6508444  3
    308    307    310    311     1  0.0000000  0.6508444  3
    308    307    310    312     1  0.0000000  0.6508444  3
    309    307    300    329     1  0.0000000  0.6508444  3
    309    307    310    319     1  0.0000000  0.6508444  3
    309    307    310    311     1  0.0000000  0.6508444  3
    309    307    310    312     1  0.0000000  0.6508444  3
    310    307    300    329     1  0.0000000  0.6508444  3
    311    310    319    328     1  0.0000000  1.0460000  1
    311    310    319    328     1  0.0000000  0.0000000  3
    311    310    319    320     1  0.0000000  0.6508444  3
    311    310    319    321     1  0.0000000  0.6508444  3
    312    310    319    328     1  0.0000000  1.0460000  1
    312    310    319    328     1  0.0000000  0.0000000  3
    312    310    319    320     1  0.0000000  0.6508444  3
    312    310    319    321     1  0.0000000  0.6508444  3
    313    301    300    329     1  0.0000000  0.6508444  3
    314    313    325    718     1  0.0000000  1.0460000  1
    314    313    325    718     1  0.0000000  0.0000000  3
    314    313    325    326     1  0.0000000  0.6508444  3
    314    313    325    327     1  0.0000000  0.6508444  3
    315    313    325    718     1  0.0000000  1.0460000  1
    315    313    325    718     1  0.0000000  0.0000000  3
    315    313    325    326     1  0.0000000  0.6508444  3
    315    313    325    327     1  0.0000000  0.6508444  3
    316    304    300    329     1  0.0000000  0.6508444  3
    317    316    322    688     1  0.0000000  1.0460000  1
    317    316    322    688     1  0.0000000  0.0000000  3
    317    316    322    323     1  0.0000000  0.6508444  3
    317    316    322    324     1  0.0000000  0.6508444  3
    318    316    322    688     1  0.0000000  1.0460000  1
    318    316    322    688     1  0.0000000  0.0000000  3
    318    316    322    323     1  0.0000000  0.6508444  3
    318    316    322    324     1  0.0000000  0.6508444  3
    322    688    679    680     1  0.0000000  1.6038667  3
    322    688    679    681     1  0.0000000  1.6038667  3
    323    322    688    679     1  0.0000000  1.6038667  3
    324    322    688    679     1  0.0000000  1.6038667  3
    325    718    709    710     1  0.0000000  1.6038667  3
    325    718    709    711     1  0.0000000  1.6038667  3
    326    325    718    709     1  0.0000000  1.6038667  3
    327    325    718    709     1  0.0000000  1.6038667  3
    330    331    343    344     1  0.0000000  0.6508444  3
    330    331    343    345     1  0.0000000  0.6508444  3
    330    334    346    347     1  0.0000000  0.6508444  3
    330    334    346    348     1  0.0000000  0.6508444  3
    330    337    340    341     1  0.0000000  0.6508444  3
    330    337    340    342     1  0.0000000  0.6508444  3
    331    330    334    335     1  0.0000000  0.6508444  3
    331    330    334    336     1  0.0000000  0.6508444  3
    331    330    337    338     1  0.0000000  0.6508444  3
    331    330    337    339     1  0.0000000  0.6508444  3
    331    343    355    356     1  0.0000000  0.6508444  3
    331    343    355    357     1  0.0000000  0.6508444  3
    332    331    330    334     1  0.0000000  0.6508444  3
    332    331    330    337     1  0.0000000  0.6508444  3
    332    331    330    359     1  0.0000000  0.6508444  3
    332    331    343    355     1  0.0000000  0.6508444  3
    332    331    343    344     1  0.0000000  0.6508444  3
    332    331    343    345     1  0.0000000  0.6508444  3
    333    331    330    334     1  0.0000000  0.6508444  3
    333    331    330    337     1  0.0000000  0.6508444  3
    333    331    330    359     1  0.0000000  0.6508444  3
    333    331    343    355     1  0.0000000  0.6508444  3
    333    331    343    344     1  0.0000000  0.6508444  3
    333    331    343    345     1  0.0000000  0.6508444  3
    334    330    337    338     1  0.0000000  0.6508444  3
    334    330    337    339     1  0.0000000  0.6508444  3
    334    346    352    353     1  0.0000000  0.6508444  3
    334    346    352    354     1  0.0000000  0.6508444  3
    335    334    330    337     1  0.0000000  0.6508444  3
    335    334    330    359     1  0.0000000  0.6508444  3
    335    334    346    352     1  0.0000000  0.6508444  3
    335    334    346    347     1  0.0000000  0.6508444  3
    335    334    346    348     1  0.0000000  0.6508444  3
    336    334    330    337     1  0.0000000  0.6508444  3
    336    334    330    359     1  0.0000000  0.6508444  3
    336    334    346    352     1  0.0000000  0.6508444  3
    336    334    346    347     1  0.0000000  0.6508444  3
    336    334    346    348     1  0.0000000  0.6508444  3
    337    340    349    350     1  0.0000000  0.6508444  3
    337    340    349    351     1  0.0000000  0.6508444  3
    338    337    330    359     1  0.0000000  0.6508444  3
    338    337    340    349     1  0.0000000  0.6508444  3
    338    337    340    341     1  0.0000000  0.6508444  3
    338    337    340    342     1  0.0000000  0.6508444  3
    339    337    330    359     1  0.0000000  0.6508444  3
    339    337    340    349     1  0.0000000  0.6508444  3
    339    337    340    341     1  0.0000000  0.6508444  3
    339    337    340    342     1  0.0000000  0.6508444  3
    340    337    330    359     1  0.0000000  0.6508444  3
    341    340    349    358     1  0.0000000  1.0460000  1
    341    340    349    358     1  0.0000000  0.0000000  3
    341    340    349    350     1  0.0000000  0.6508444  3
    341    340    349    351     1  0.0000000  0.6508444  3
    342    340    349    358     1  0.0000000  1.0460000  1
    342    340    349    358     1  0.0000000  0.0000000  3
    342    340    349    350     1  0.0000000  0.6508444  3
    342    340    349    351     1  0.0000000  0.6508444  3
    343    331    330    359     1  0.0000000  0.6508444  3
    344    343    355    778     1  0.0000000  1.0460000  1
    344    343    355    778     1  0.0000000  0.0000000  3
    344    343    355    356     1  0.0000000  0.6508444  3
    344    343    355    357     1  0.0000000  0.6508444  3
    345    343    355    778     1  0.0000000  1.0460000  1
    345    343    355    778     1  0.0000000  0.0000000  3
    345    343    355    356     1  0.0000000  0.6508444  3
    345    343    355    357     1  0.0000000  0.6508444  3
    346    334    330    359     1  0.0000000  0.6508444  3
    347    346    352    748     1  0.0000000  1.0460000  1
    347    346    352    748     1  0.0000000  0.0000000  3
    347    346    352    353     1  0.0000000  0.6508444  3
    347    346    352    354     1  0.0000000  0.6508444  3
    348    346    352    748     1  0.0000000  1.0460000  1
    348    346    352    748     1  0.0000000  0.0000000  3
    348    346    352    353     1  0.0000000  0.6508444  3
    348    346    352    354     1  0.0000000  0.6508444  3
    352    748    739    740     1  0.0000000  1.6038667  3
    352    748    739    741     1  0.0000000  1.6038667  3
    353    352    748    739     1  0.0000000  1.6038667  3
    354    352    748    739     1  0.0000000  1.6038667  3
    355    778    769    770     1  0.0000000  1.6038667  3
    355    778    769    771     1  0.0000000  1.6038667  3
    356    355    778    769     1  0.0000000  1.6038667  3
    357    355    778    769     1  0.0000000  1.6038667  3
    360    361    373    374     1  0.0000000  0.6508444  3
    360    361    373    375     1  0.0000000  0.6508444  3
    360    364    376    377     1  0.0000000  0.6508444  3
    360    364    376    378     1  0.0000000  0.6508444  3
    360    367    370    371     1  0.0000000  0.6508444  3
    360    367    370    372     1  0.0000000  0.6508444  3
    361    360    364    365     1  0.0000000  0.6508444  3
    361    360    364    366     1  0.0000000  0.6508444  3
    361    360    367    368     1  0.0000000  0.6508444  3
    361    360    367    369     1  0.0000000  0.6508444  3
    361    373    385    386     1  0.0000000  0.6508444  3
    361    373    385    387     1  0.0000000  0.6508444  3
    362    361    360    364     1  0.0000000  0.6508444  3
    362    361    360    367     1  0.0000000  0.6508444  3
    362    361    360    389     1  0.0000000  0.6508444  3
    362    361    373    385     1  0.0000000  0.6508444  3
    362    361    373    374     1  0.0000000  0.6508444  3
    362    361    373    375     1  0.0000000  0.6508444  3
    363    361    360    364     1  0.0000000  0.6508444  3
    363    361    360    367     1  0.0000000  0.6508444  3
    363    361    360    389     1  0.0000000  0.6508444  3
    363    361    373    385     1  0.0000000  0.6508444  3
    363    361    373    374     1  0.0000000  0.6508444  3
    363    361    373    375     1  0.0000000  0.6508444  3
    364    360    367    368     1  0.0000000  0.6508444  3
    364    360    367    369     1  0.0000000  0.6508444  3
    364    376    382    383     1  0.0000000  0.6508444  3
    364    376    382    384     1  0.0000000  0.6508444  3
    365    364    360    367     1  0.0000000  0.6508444  3
    365    364    360    389     1  0.0000000  0.6508444  3
    365    364    376    382     1  0.0000000  0.6508444  3
    365    364    376    377     1  0.0000000  0.6508444  3
    365    364    376    378     1  0.0000000  0.6508444  3
    366    364    360    367     1  0.0000000  0.6508444  3
    366    364    360    389     1  0.0000000  0.6508444  3
    366    364    376    382     1  0.0000000  0.6508444  3
    366    364    376    377     1  0.0000000  0.6508444  3
    366    364    376    378     1  0.0000000  0.6508444  3
    367    370    379    380     1  0.0000000  0.6508444  3
    367    370    379    381     1  0.0000000  0.6508444  3
    368    367    360    389     1  0.0000000  0.6508444  3
    368    367    370    379     1  0.0000000  0.6508444  3
    368    367    370    371     1  0.0000000  0.6508444  3
    368    367    370    372     1  0.0000000  0.6508444  3
    369    367    360    389     1  0.0000000  0.6508444  3
    369    367    370    379     1  0.0000000  0.6508444  3
    369    367    370    371     1  0.0000000  0.6508444  3
    369    367    370    372     1  0.0000000  0.6508444  3
    370    367    360    389     1  0.0000000  0.6508444  3
    371    370    379    388     1  0.0000000  1.0460000  1
    371    370    379    388     1  0.0000000  0.0000000  3
    371    370    379    380     1  0.0000000  0.6508444  3
    371    370    379    381     1  0.0000000  0.6508444  3
    372    370    379    388     1  0.0000000  1.0460000  1
    372    370    379    388     1  0.0000000  0.0000000  3
    372    370    379    380     1  0.0000000  0.6508444  3
    372    370    379    381     1  0.0000000  0.6508444  3
    373    361    360    389     1  0.0000000  0.6508444  3
    374    373    385    838     1  0.0000000  1.0460000  1
    374    373    385    838     1  0.0000000  0.0000000  3
    374    373    385    386     1  0.0000000  0.6508444  3
    374    373    385    387     1  0.0000000  0.6508444  3
    375    373    385    838     1  0.0000000  1.0460000  1
    375    373    385    838     1  0.0000000  0.0000000  3
    375    373    385    386     1  0.0000000  0.6508444  3
    375    373    385    387     1  0.0000000  0.6508444  3
    376    364    360    389     1  0.0000000  0.6508444  3
    377    376    382    808     1  0.0000000  1.0460000  1
    377    376    382    808     1  0.0000000  0.0000000  3
    377    376    382    383     1  0.0000000  0.6508444  3
    377    376    382    384     1  0.0000000  0.6508444  3
    378    376    382    808     1  0.0000000  1.0460000  1
    378    376    382    808     1  0.0000000  0.0000000  3
    378    376    382    383     1  0.0000000  0.6508444  3
    378    376    382    384     1  0.0000000  0.6508444  3
    382    808    799    800     1  0.0000000  1.6038667  3
    382    808    799    801     1  0.0000000  1.6038667  3
    383    382    808    799     1  0.0000000  1.6038667  3
    384    382    808    799     1  0.0000000  1.6038667  3
    385    838    829    830     1  0.0000000  1.6038667  3
    385    838    829    831     1  0.0000000  1.6038667  3
    386    385    838    829     1  0.0000000  1.6038667  3
    387    385    838    829     1  0.0000000  1.6038667  3
    390    391    403    404     1  0.0000000  0.6508444  3
    390    391    403    405     1  0.0000000  0.6508444  3
    390    394    406    407     1  0.0000000  0.6508444  3
    390    394    406    408     1  0.0000000  0.6508444  3
    390    397    400    401     1  0.0000000  0.6508444  3
    390    397    400    402     1  0.0000000  0.6508444  3
    391    390    394    395     1  0.0000000  0.6508444  3
    391    390    394    396     1  0.0000000  0.6508444  3
    391    390    397    398     1  0.0000000  0.6508444  3
    391    390    397    399     1  0.0000000  0.6508444  3
    391    403    415    416     1  0.0000000  0.6508444  3
    391    403    415    417     1  0.0000000  0.6508444  3
    392    391    390    394     1  0.0000000  0.6508444  3
    392    391    390    397     1  0.0000000  0.6508444  3
    392    391    390    419     1  0.0000000  0.6508444  3
    392    391    403    415     1  0.0000000  0.6508444  3
    392    391    403    404     1  0.0000000  0.6508444  3
    392    391    403    405     1  0.0000000  0.6508444  3
    393    391    390    394     1  0.0000000  0.6508444  3
    393    391    390    397     1  0.0000000  0.6508444  3
    393    391    390    419     1  0.0000000  0.6508444  3
    393    391    403    415     1  0.0000000  0.6508444  3
    393    391    403    404     1  0.0000000  0.6508444  3
    393    391    403    405     1  0.0000000  0.6508444  3
    394    390    397    398     1  0.0000000  0.6508444  3
    394    390    397    399     1  0.0000000  0.6508444  3
    394    406    412    413     1  0.0000000  0.6508444  3
    394    406    412    414     1  0.0000000  0.6508444  3
    395    394    390    397     1  0.0000000  0.6508444  3
    395    394    390    419     1  0.0000000  0.6508444  3
    395    394    406    412     1  0.0000000  0.6508444  3
    395    394    406    407     1  0.0000000  0.6508444  3
    395    394    406    408     1  0.0000000  0.6508444  3
    396    394    390    397     1  0.0000000  0.6508444  3
    396    394    390    419     1  0.0000000  0.6508444  3
    396    394    406    412     1  0.0000000  0.6508444  3
    396    394    406    407     1  0.0000000  0.6508444  3
    396    394    406    408     1  0.0000000  0.6508444  3
    397    400    409    410     1  0.0000000  0.6508444  3
    397    400    409    411     1  0.0000000  0.6508444  3
    398    397    390    419     1  0.0000000  0.6508444  3
    398    397    400    409     1  0.0000000  0.6508444  3
    398    397    400    401     1  0.0000000  0.6508444  3
    398    397    400    402     1  0.0000000  0.6508444  3
    399    397    390    419     1  0.0000000  0.6508444  3
    399    397    400    409     1  0.0000000  0.6508444  3
    399    397    400    401     1  0.0000000  0.6508444  3
    399    397    400    402     1  0.0000000  0.6508444  3
    400    397    390    419     1  0.0000000  0.6508444  3
    401    400    409    418     1  0.0000000  1.0460000  1
    401    400    409    418     1  0.0000000  0.0000000  3
    401    400    409    410     1  0.0000000  0.6508444  3
    401    400    409    411     1  0.0000000  0.6508444  3
    402    400    409    418     1  0.0000000  1.0460000  1
    402    400    409    418     1  0.0000000  0.0000000  3
    402    400    409    410     1  0.0000000  0.6508444  3
    402    400    409    411     1  0.0000000  0.6508444  3
    403    391    390    419     1  0.0000000  0.6508444  3
    404    403    415    898     1  0.0000000  1.0460000  1
    404    403    415    898     1  0.0000000  0.0000000  3
    404    403    415    416     1  0.0000000  0.6508444  3
    404    403    415    417     1  0.0000000  0.6508444  3
    405    403    415    898     1  0.0000000  1.0460000  1
    405    403    415    898     1  0.0000000  0.0000000  3
    405    403    415    416     1  0.0000000  0.6508444  3
    405    403    415    417     1  0.0000000  0.6508444  3
    406    394    390    419     1  0.0000000  0.6508444  3
    407    406    412    868     1  0.0000000  1.0460000  1
    407    406    412    868     1  0.0000000  0.0000000  3
    407    406    412    413     1  0.0000000  0.6508444  3
    407    406    412    414     1  0.0000000  0.6508444  3
    408    406    412    868     1  0.0000000  1.0460000  1
    408    406    412    868     1  0.0000000  0.0000000  3
    408    406    412    413     1  0.0000000  0.6508444  3
    408    406    412    414     1  0.0000000  0.6508444  3
    412    868    859    860     1  0.0000000  1.6038667  3
    412    868    859    861     1  0.0000000  1.6038667  3
    413    412    868    859     1  0.0000000  1.6038667  3
    414    412    868    859     1  0.0000000  1.6038667  3
    415    898    889    890     1  0.0000000  1.6038667  3
    415    898    889    891     1  0.0000000  1.6038667  3
    416    415    898    889     1  0.0000000  1.6038667  3
    417    415    898    889     1  0.0000000  1.6038667  3
    420    421    433    434     1  0.0000000  0.6508444  3
    420    421    433    435     1  0.0000000  0.6508444  3
    420    424    436    437     1  0.0000000  0.6508444  3
    420    424    436    438     1  0.0000000  0.6508444  3
    420    427    430    431     1  0.0000000  0.6508444  3
    420    427    430    432     1  0.0000000  0.6508444  3
    421    420    424    425     1  0.0000000  0.6508444  3
    421    420    424    426     1  0.0000000  0.6508444  3
    421    420    427    428     1  0.0000000  0.6508444  3
    421    420    427    429     1  0.0000000  0.6508444  3
    421    433    445    446     1  0.0000000  0.6508444  3
    421    433    445    447     1  0.0000000  0.6508444  3
    422    421    420    424     1  0.0000000  0.6508444  3
    422    421    420    427     1  0.0000000  0.6508444  3
    422    421    420    449     1  0.0000000  0.6508444  3
    422    421    433    445     1  0.0000000  0.6508444  3
    422    421    433    434     1  0.0000000  0.6508444  3
    422    421    433    435     1  0.0000000  0.6508444  3
    423    421    420    424     1  0.0000000  0.6508444  3
    423    421    420    427     1  0.0000000  0.6508444  3
    423    421    420    449     1  0.0000000  0.6508444  3
    423    421    433    445     1  0.0000000  0.6508444  3
    423    421    433    434     1  0.0000000  0.6508444  3
    423    421    433    435     1  0.0000000  0.6508444  3
    424    420    427    428     1  0.0000000  0.6508444  3
    424    420    427    429     1  0.0000000  0.6508444  3
    424    436    442    443     1  0.0000000  0.6508444  3
    424    436    442    444     1  0.0000000  0.6508444  3
    425    424    420    427     1  0.0000000  0.6508444  3
    425    424    420    449     1  0.0000000  0.6508444  3
    425    424    436    442     1  0.0000000  0.6508444  3
    425    424    436    437     1  0.0000000  0.6508444  3
    425    424    436    438     1  0.0000000  0.6508444  3
    426    424    420    427     1  0.0000000  0.6508444  3
    426    424    420    449     1  0.0000000  0.6508444  3
    426    424    436    442     1  0.0000000  0.6508444  3
    426    424    436    437     1  0.0000000  0.6508444  3
    426    424    436    438     1  0.0000000  0.6508444  3
    427    430    439    440     1  0.0000000  0.6508444  3
    427    430    439    441     1  0.0000000  0.6508444  3
    428    427    420    449     1  0.0000000  0.6508444  3
    428    427    430    439     1  0.0000000  0.6508444  3
    428    427    430    431     1  0.0000000  0.6508444  3
    428    427    430    432     1  0.0000000  0.6508444  3
    429    427    420    449     1  0.0000000  0.6508444  3
    429    427    430    439     1  0.0000000  0.6508444  3
    429    427    430    431     1  0.0000000  0.6508444  3
    429    427    430    432     1  0.0000000  0.6508444  3
    430    427    420    449     1  0.0000000  0.6508444  3
    431    430    439    448     1  0.0000000  1.0460000  1
    431    430    439    448     1  0.0000000  0.0000000  3
    431    430    439    440     1  0.0000000  0.6508444  3
    431    430    439    441     1  0.0000000  0.6508444  3
    432    430    439    448     1  0.0000000  1.0460000  1
    432    430    439    448     1  0.0000000  0.0000000  3
    432    430    439    440     1  0.0000000  0.6508444  3
    432    430    439    441     1  0.0000000  0.6508444  3
    433    421    420    449     1  0.0000000  0.6508444  3
    434    433    445    958     1  0.0000000  1.0460000  1
    434    433    445    958     1  0.0000000  0.0000000  3
    434    433    445    446     1  0.0000000  0.6508444  3
    434    433    445    447     1  0.0000000  0.6508444  3
    435    433    445    958     1  0.0000000  1.0460000  1
    435    433    445    958     1  0.0000000  0.0000000  3
    435    433    445    446     1  0.0000000  0.6508444  3
    435    433    445    447     1  0.0000000  0.6508444  3
    436    424    420    449     1  0.0000000  0.6508444  3
    437    436    442    928     1  0.0000000  1.0460000  1
    437    436    442    928     1  0.0000000  0.0000000  3
    437    436    442    443     1  0.0000000  0.6508444  3
    437    436    442    444     1  0.0000000  0.6508444  3
    438    436    442    928     1  0.0000000  1.0460000  1
    438    436    442    928     1  0.0000000  0.0000000  3
    438    436    442    443     1  0.0000000  0.6508444  3
    438    436    442    444     1  0.0000000  0.6508444  3
    442    928    919    920     1  0.0000000  1.6038667  3
    442    928    919    921     1  0.0000000  1.6038667  3
    443    442    928    919     1  0.0000000  1.6038667  3
    444    442    928    919     1  0.0000000  1.6038667  3
    445    958    949    950     1  0.0000000  1.6038667  3
    445    958    949    951     1  0.0000000  1.6038667  3
    446    445    958    949     1  0.0000000  1.6038667  3
    447    445    958    949     1  0.0000000  1.6038667  3
    450    451    463    464     1  0.0000000  0.6508444  3
    450    451    463    465     1  0.0000000  0.6508444  3
    450    454    466    467     1  0.0000000  0.6508444  3
    450    454    466    468     1  0.0000000  0.6508444  3
    450    457    460    461     1  0.0000000  0.6508444  3
    450    457    460    462     1  0.0000000  0.6508444  3
    451    450    454    455     1  0.0000000  0.6508444  3
    451    450    454    456     1  0.0000000  0.6508444  3
    451    450    457    458     1  0.0000000  0.6508444  3
    451    450    457    459     1  0.0000000  0.6508444  3
    451    463    475    476     1  0.0000000  0.6508444  3
    451    463    475    477     1  0.0000000  0.6508444  3
    452    451    450    454     1  0.0000000  0.6508444  3
    452    451    450    457     1  0.0000000  0.6508444  3
    452    451    450    479     1  0.0000000  0.6508444  3
    452    451    463    475     1  0.0000000  0.6508444  3
    452    451    463    464     1  0.0000000  0.6508444  3
    452    451    463    465     1  0.0000000  0.6508444  3
    453    451    450    454     1  0.0000000  0.6508444  3
    453    451    450    457     1  0.0000000  0.6508444  3
    453    451    450    479     1  0.0000000  0.6508444  3
    453    451    463    475     1  0.0000000  0.6508444  3
    453    451    463    464     1  0.0000000  0.6508444  3
    453    451    463    465     1  0.0000000  0.6508444  3
    454    450    457    458     1  0.0000000  0.6508444  3
    454    450    457    459     1  0.0000000  0.6508444  3
    454    466    472    473     1  0.0000000  0.6508444  3
    454    466    472    474     1  0.0000000  0.6508444  3
    455    454    450    457     1  0.0000000  0.6508444  3
    455    454    450    479     1  0.0000000  0.6508444  3
    455    454    466    472     1  0.0000000  0.6508444  3
    455    454    466    467     1  0.0000000  0.6508444  3
    455    454    466    468     1  0.0000000  0.6508444  3
    456    454    450    457     1  0.0000000  0.6508444  3
    456    454    450    479     1  0.0000000  0.6508444  3
    456    454    466    472     1  0.0000000  0.6508444  3
    456    454    466    467     1  0.0000000  0.6508444  3
    456    454    466    468     1  0.0000000  0.6508444  3
    457    460    469    470     1  0.0000000  0.6508444  3
    457    460    469    471     1  0.0000000  0.6508444  3
    458    457    450    479     1  0.0000000  0.6508444  3
    458    457    460    469     1  0.0000000  0.6508444  3
    458    457    460    461     1  0.0000000  0.6508444  3
    458    457    460    462     1  0.0000000  0.6508444  3
    459    457    450    479     1  0.0000000  0.6508444  3
    459    457    460    469     1  0.0000000  0.6508444  3
    459    457    460    461     1  0.0000000  0.6508444  3
    459    457    460    462     1  0.0000000  0.6508444  3
    460    457    450    479     1  0.0000000  0.6508444  3
    461    460    469    478     1  0.0000000  1.0460000  1
    461    460    469    478     1  0.0000000  0.0000000  3
    461    460    469    470     1  0.0000000  0.6508444  3
    461    460    469    471     1  0.0000000  0.6508444  3
    462    460    469    478     1  0.0000000  1.0460000  1
    462    460    469    478     1  0.0000000  0.0000000  3
    462    460    469    470     1  0.0000000  0.6508444  3
    462    460    469    471     1  0.0000000  0.6508444  3
    463    451    450    479     1  0.0000000  0.6508444  3
    464    463    475   1018     1  0.0000000  1.0460000  1
    464    463    475   1018     1  0.0000000  0.0000000  3
    464    463    475    476     1  0.0000000  0.6508444  3
    464    463    475    477     1  0.0000000  0.6508444  3
    465    463    475   1018     1  0.0000000  1.0460000  1
    465    463    475   1018     1  0.0000000  0.0000000  3
    465    463    475    476     1  0.0000000  0.6508444  3
    465    463    475    477     1  0.0000000  0.6508444  3
    466    454    450    479     1  0.0000000  0.6508444  3
    467    466    472    988     1  0.0000000  1.0460000  1
    467    466    472    988     1  0.0000000  0.0000000  3
    467    466    472    473     1  0.0000000  0.6508444  3
    467    466    472    474     1  0.0000000  0.6508444  3
    468    466    472    988     1  0.0000000  1.0460000  1
    468    466    472    988     1  0.0000000  0.0000000  3
    468    466    472    473     1  0.0000000  0.6508444  3
    468    466    472    474     1  0.0000000  0.6508444  3
    472    988    979    980     1  0.0000000  1.6038667  3
    472    988    979    981     1  0.0000000  1.6038667  3
    473    472    988    979     1  0.0000000  1.6038667  3
    474    472    988    979     1  0.0000000  1.6038667  3
    475   1018   1009   1010     1  0.0000000  1.6038667  3
    475   1018   1009   1011     1  0.0000000  1.6038667  3
    476    475   1018   1009     1  0.0000000  1.6038667  3
    477    475   1018   1009     1  0.0000000  1.6038667  3
    480    481    493    494     1  0.0000000  0.6508444  3
    480    481    493    495     1  0.0000000  0.6508444  3
    480    484    496    497     1  0.0000000  0.6508444  3
    480    484    496    498     1  0.0000000  0.6508444  3
    480    487    490    491     1  0.0000000  0.6508444  3
    480    487    490    492     1  0.0000000  0.6508444  3
    481    480    484    485     1  0.0000000  0.6508444  3
    481    480    484    486     1  0.0000000  0.6508444  3
    481    480    487    488     1  0.0000000  0.6508444  3
    481    480    487    489     1  0.0000000  0.6508444  3
    481    493    505    506     1  0.0000000  0.6508444  3
    481    493    505    507     1  0.0000000  0.6508444  3
    482    481    480    484     1  0.0000000  0.6508444  3
    482    481    480    487     1  0.0000000  0.6508444  3
    482    481    480    509     1  0.0000000  0.6508444  3
    482    481    493    505     1  0.0000000  0.6508444  3
    482    481    493    494     1  0.0000000  0.6508444  3
    482    481    493    495     1  0.0000000  0.6508444  3
    483    481    480    484     1  0.0000000  0.6508444  3
    483    481    480    487     1  0.0000000  0.6508444  3
    483    481    480    509     1  0.0000000  0.6508444  3
    483    481    493    505     1  0.0000000  0.6508444  3
    483    481    493    494     1  0.0000000  0.6508444  3
    483    481    493    495     1  0.0000000  0.6508444  3
    484    480    487    488     1  0.0000000  0.6508444  3
    484    480    487    489     1  0.0000000  0.6508444  3
    484    496    502    503     1  0.0000000  0.6508444  3
    484    496    502    504     1  0.0000000  0.6508444  3
    485    484    480    487     1  0.0000000  0.6508444  3
    485    484    480    509     1  0.0000000  0.6508444  3
    485    484    496    502     1  0.0000000  0.6508444  3
    485    484    496    497     1  0.0000000  0.6508444  3
    485    484    496    498     1  0.0000000  0.6508444  3
    486    484    480    487     1  0.0000000  0.6508444  3
    486    484    480    509     1  0.0000000  0.6508444  3
    486    484    496    502     1  0.0000000  0.6508444  3
    486    484    496    497     1  0.0000000  0.6508444  3
    486    484    496    498     1  0.0000000  0.6508444  3
    487    490    499    500     1  0.0000000  0.6508444  3
    487    490    499    501     1  0.0000000  0.6508444  3
    488    487    480    509     1  0.0000000  0.6508444  3
    488    487    490    499     1  0.0000000  0.6508444  3
    488    487    490    491     1  0.0000000  0.6508444  3
    488    487    490    492     1  0.0000000  0.6508444  3
    489    487    480    509     1  0.0000000  0.6508444  3
    489    487    490    499     1  0.0000000  0.6508444  3
    489    487    490    491     1  0.0000000  0.6508444  3
    489    487    490    492     1  0.0000000  0.6508444  3
    490    487    480    509     1  0.0000000  0.6508444  3
    491    490    499    508     1  0.0000000  1.0460000  1
    491    490    499    508     1  0.0000000  0.0000000  3
    491    490    499    500     1  0.0000000  0.6508444  3
    491    490    499    501     1  0.0000000  0.6508444  3
    492    490    499    508     1  0.0000000  1.0460000  1
    492    490    499    508     1  0.0000000  0.0000000  3
    492    490    499    500     1  0.0000000  0.6508444  3
    492    490    499    501     1  0.0000000  0.6508444  3
    493    481    480    509     1  0.0000000  0.6508444  3
    494    493    505   1078     1  0.0000000  1.0460000  1
    494    493    505   1078     1  0.0000000  0.0000000  3
    494    493    505    506     1  0.0000000  0.6508444  3
    494    493    505    507     1  0.0000000  0.6508444  3
    495    493    505   1078     1  0.0000000  1.0460000  1
    495    493    505   1078     1  0.0000000  0.0000000  3
    495    493    505    506     1  0.0000000  0.6508444  3
    495    493    505    507     1  0.0000000  0.6508444  3
    496    484    480    509     1  0.0000000  0.6508444  3
    497    496    502   1048     1  0.0000000  1.0460000  1
    497    496    502   1048     1  0.0000000  0.0000000  3
    497    496    502    503     1  0.0000000  0.6508444  3
    497    496    502    504     1  0.0000000  0.6508444  3
    498    496    502   1048     1  0.0000000  1.0460000  1
    498    496    502   1048     1  0.0000000  0.0000000  3
    498    496    502    503     1  0.0000000  0.6508444  3
    498    496    502    504     1  0.0000000  0.6508444  3
    502   1048   1039   1040     1  0.0000000  1.6038667  3
    502   1048   1039   1041     1  0.0000000  1.6038667  3
    503    502   1048   1039     1  0.0000000  1.6038667  3
    504    502   1048   1039     1  0.0000000  1.6038667  3
    505   1078   1069   1070     1  0.0000000  1.6038667  3
    505   1078   1069   1071     1  0.0000000  1.6038667  3
    506    505   1078   1069     1  0.0000000  1.6038667  3
    507    505   1078   1069     1  0.0000000  1.6038667  3
    510    511    523    524     1  0.0000000  0.6508444  3
    510    511    523    525     1  0.0000000  0.6508444  3
    510    514    526    527     1  0.0000000  0.6508444  3
    510    514    526    528     1  0.0000000  0.6508444  3
    510    517    520    521     1  0.0000000  0.6508444  3
    510    517    520    522     1  0.0000000  0.6508444  3
    511    510    514    515     1  0.0000000  0.6508444  3
    511    510    514    516     1  0.0000000  0.6508444  3
    511    510    517    518     1  0.0000000  0.6508444  3
    511    510    517    519     1  0.0000000  0.6508444  3
    511    523    535    536     1  0.0000000  0.6508444  3
    511    523    535    537     1  0.0000000  0.6508444  3
    512    511    510    514     1  0.0000000  0.6508444  3
    512    511    510    517     1  0.0000000  0.6508444  3
    512    511    510    539     1  0.0000000  0.6508444  3
    512    511    523    535     1  0.0000000  0.6508444  3
    512    511    523    524     1  0.0000000  0.6508444  3
    512    511    523    525     1  0.0000000  0.6508444  3
    513    511    510    514     1  0.0000000  0.6508444  3
    513    511    510    517     1  0.0000000  0.6508444  3
    513    511    510    539     1  0.0000000  0.6508444  3
    513    511    523    535     1  0.0000000  0.6508444  3
    513    511    523    524     1  0.0000000  0.6508444  3
    513    511    523    525     1  0.0000000  0.6508444  3
    514    510    517    518     1  0.0000000  0.6508444  3
    514    510    517    519     1  0.0000000  0.6508444  3
    514    526    532    533     1  0.0000000  0.6508444  3
    514    526    532    534     1  0.0000000  0.6508444  3
    515    514    510    517     1  0.0000000  0.6508444  3
    515    514    510    539     1  0.0000000  0.6508444  3
    515    514    526    532     1  0.0000000  0.6508444  3
    515    514    526    527     1  0.0000000  0.6508444  3
    515    514    526    528     1  0.0000000  0.6508444  3
    516    514    510    517     1  0.0000000  0.6508444  3
    516    514    510    539     1  0.0000000  0.6508444  3
    516    514    526    532     1  0.0000000  0.6508444  3
    516    514    526    527     1  0.0000000  0.6508444  3
    516    514    526    528     1  0.0000000  0.6508444  3
    517    520    529    530     1  0.0000000  0.6508444  3
    517    520    529    531     1  0.0000000  0.6508444  3
    518    517    510    539     1  0.0000000  0.6508444  3
    518    517    520    529     1  0.0000000  0.6508444  3
    518    517    520    521     1  0.0000000  0.6508444  3
    518    517    520    522     1  0.0000000  0.6508444  3
    519    517    510    539     1  0.0000000  0.6508444  3
    519    517    520    529     1  0.0000000  0.6508444  3
    519    517    520    521     1  0.0000000  0.6508444  3
    519    517    520    522     1  0.0000000  0.6508444  3
    520    517    510    539     1  0.0000000  0.6508444  3
    521    520    529    538     1  0.0000000  1.0460000  1
    521    520    529    538     1  0.0000000  0.0000000  3
    521    520    529    530     1  0.0000000  0.6508444  3
    521    520    529    531     1  0.0000000  0.6508444  3
    522    520    529    538     1  0.0000000  1.0460000  1
    522    520    529    538     1  0.0000000  0.0000000  3
    522    520    529    530     1  0.0000000  0.6508444  3
    522    520    529    531     1  0.0000000  0.6508444  3
    523    511    510    539     1  0.0000000  0.6508444  3
    524    523    535   1138     1  0.0000000  1.0460000  1
    524    523    535   1138     1  0.0000000  0.0000000  3
    524    523    535    536     1  0.0000000  0.6508444  3
    524    523    535    537     1  0.0000000  0.6508444  3
    525    523    535   1138     1  0.0000000  1.0460000  1
    525    523    535   1138     1  0.0000000  0.0000000  3
    525    523    535    536     1  0.0000000  0.6508444  3
    525    523    535    537     1  0.0000000  0.6508444  3
    526    514    510    539     1  0.0000000  0.6508444  3
    527    526    532   1108     1  0.0000000  1.0460000  1
    527    526    532   1108     1  0.0000000  0.0000000  3
    527    526    532    533     1  0.0000000  0.6508444  3
    527    526    532    534     1  0.0000000  0.6508444  3
    528    526    532   1108     1  0.0000000  1.0460000  1
    528    526    532   1108     1  0.0000000  0.0000000  3
    528    526    532    533     1  0.0000000  0.6508444  3
    528    526    532    534     1  0.0000000  0.6508444  3
    532   1108   1099   1100     1  0.0000000  1.6038667  3
    532   1108   1099   1101     1  0.0000000  1.6038667  3
    533    532   1108   1099     1  0.0000000  1.6038667  3
    534    532   1108   1099     1  0.0000000  1.6038667  3
    535   1138   1129   1130     1  0.0000000  1.6038667  3
    535   1138   1129   1131     1  0.0000000  1.6038667  3
    536    535   1138   1129     1  0.0000000  1.6038667  3
    537    535   1138   1129     1  0.0000000  1.6038667  3
    540    541    553    554     1  0.0000000  0.6508444  3
    540    541    553    555     1  0.0000000  0.6508444  3
    540    544    556    557     1  0.0000000  0.6508444  3
    540    544    556    558     1  0.0000000  0.6508444  3
    540    547    550    551     1  0.0000000  0.6508444  3
    540    547    550    552     1  0.0000000  0.6508444  3
    541    540    544    545     1  0.0000000  0.6508444  3
    541    540    544    546     1  0.0000000  0.6508444  3
    541    540    547    548     1  0.0000000  0.6508444  3
    541    540    547    549     1  0.0000000  0.6508444  3
    541    553    565    566     1  0.0000000  0.6508444  3
    541    553    565    567     1  0.0000000  0.6508444  3
    542    541    540    544     1  0.0000000  0.6508444  3
    542    541    540    547     1  0.0000000  0.6508444  3
    542    541    540    569     1  0.0000000  0.6508444  3
    542    541    553    565     1  0.0000000  0.6508444  3
    542    541    553    554     1  0.0000000  0.6508444  3
    542    541    553    555     1  0.0000000  0.6508444  3
    543    541    540    544     1  0.0000000  0.6508444  3
    543    541    540    547     1  0.0000000  0.6508444  3
    543    541    540    569     1  0.0000000  0.6508444  3
    543    541    553    565     1  0.0000000  0.6508444  3
    543    541    553    554     1  0.0000000  0.6508444  3
    543    541    553    555     1  0.0000000  0.6508444  3
    544    540    547    548     1  0.0000000  0.6508444  3
    544    540    547    549     1  0.0000000  0.6508444  3
    544    556    562    563     1  0.0000000  0.6508444  3
    544    556    562    564     1  0.0000000  0.6508444  3
    545    544    540    547     1  0.0000000  0.6508444  3
    545    544    540    569     1  0.0000000  0.6508444  3
    545    544    556    562     1  0.0000000  0.6508444  3
    545    544    556    557     1  0.0000000  0.6508444  3
    545    544    556    558     1  0.0000000  0.6508444  3
    546    544    540    547     1  0.0000000  0.6508444  3
    546    544    540    569     1  0.0000000  0.6508444  3
    546    544    556    562     1  0.0000000  0.6508444  3
    546    544    556    557     1  0.0000000  0.6508444  3
    546    544    556    558     1  0.0000000  0.6508444  3
    547    550    559    560     1  0.0000000  0.6508444  3
    547    550    559    561     1  0.0000000  0.6508444  3
    548    547    540    569     1  0.0000000  0.6508444  3
    548    547    550    559     1  0.0000000  0.6508444  3
    548    547    550    551     1  0.0000000  0.6508444  3
    548    547    550    552     1  0.0000000  0.6508444  3
    549    547    540    569     1  0.0000000  0.6508444  3
    549    547    550    559     1  0.0000000  0.6508444  3
    549    547    550    551     1  0.0000000  0.6508444  3
    549    547    550    552     1  0.0000000  0.6508444  3
    550    547    540    569     1  0.0000000  0.6508444  3
    551    550    559    568     1  0.0000000  1.0460000  1
    551    550    559    568     1  0.0000000  0.0000000  3
    551    550    559    560     1  0.0000000  0.6508444  3
    551    550    559    561     1  0.0000000  0.6508444  3
    552    550    559    568     1  0.0000000  1.0460000  1
    552    550    559    568     1  0.0000000  0.0000000  3
    552    550    559    560     1  0.0000000  0.6508444  3
    552    550    559    561     1  0.0000000  0.6508444  3
    553    541    540    569     1  0.0000000  0.6508444  3
    554    553    565   1198     1  0.0000000  1.0460000  1
    554    553    565   1198     1  0.0000000  0.0000000  3
    554    553    565    566     1  0.0000000  0.6508444  3
    554    553    565    567     1  0.0000000  0.6508444  3
    555    553    565   1198     1  0.0000000  1.0460000  1
    555    553    565   1198     1  0.0000000  0.0000000  3
    555    553    565    566     1  0.0000000  0.6508444  3
    555    553    565    567     1  0.0000000  0.6508444  3
    556    544    540    569     1  0.0000000  0.6508444  3
    557    556    562   1168     1  0.0000000  1.0460000  1
    557    556    562   1168     1  0.0000000  0.0000000  3
    557    556    562    563     1  0.0000000  0.6508444  3
    557    556    562    564     1  0.0000000  0.6508444  3
    558    556    562   1168     1  0.0000000  1.0460000  1
    558    556    562   1168     1  0.0000000  0.0000000  3
    558    556    562    563     1  0.0000000  0.6508444  3
    558    556    562    564     1  0.0000000  0.6508444  3
    562   1168   1159   1160     1  0.0000000  1.6038667  3
    562   1168   1159   1161     1  0.0000000  1.6038667  3
    563    562   1168   1159     1  0.0000000  1.6038667  3
    564    562   1168   1159     1  0.0000000  1.6038667  3
    565   1198   1189   1190     1  0.0000000  1.6038667  3
    565   1198   1189   1191     1  0.0000000  1.6038667  3
    566    565   1198   1189     1  0.0000000  1.6038667  3
    567    565   1198   1189     1  0.0000000  1.6038667  3
    570    571    583    584     1  0.0000000  0.6508444  3
    570    571    583    585     1  0.0000000  0.6508444  3
    570    574    586    587     1  0.0000000  0.6508444  3
    570    574    586    588     1  0.0000000  0.6508444  3
    570    577    580    581     1  0.0000000  0.6508444  3
    570    577    580    582     1  0.0000000  0.6508444  3
    571    570    574    575     1  0.0000000  0.6508444  3
    571    570    574    576     1  0.0000000  0.6508444  3
    571    570    577    578     1  0.0000000  0.6508444  3
    571    570    577    579     1  0.0000000  0.6508444  3
    571    583    595    596     1  0.0000000  0.6508444  3
    571    583    595    597     1  0.0000000  0.6508444  3
    572    571    570    574     1  0.0000000  0.6508444  3
    572    571    570    577     1  0.0000000  0.6508444  3
    572    571    570    599     1  0.0000000  0.6508444  3
    572    571    583    595     1  0.0000000  0.6508444  3
    572    571    583    584     1  0.0000000  0.6508444  3
    572    571    583    585     1  0.0000000  0.6508444  3
    573    571    570    574     1  0.0000000  0.6508444  3
    573    571    570    577     1  0.0000000  0.6508444  3
    573    571    570    599     1  0.0000000  0.6508444  3
    573    571    583    595     1  0.0000000  0.6508444  3
    573    571    583    584     1  0.0000000  0.6508444  3
    573    571    583    585     1  0.0000000  0.6508444  3
    574    570    577    578     1  0.0000000  0.6508444  3
    574    570    577    579     1  0.0000000  0.6508444  3
    574    586    592    593     1  0.0000000  0.6508444  3
    574    586    592    594     1  0.0000000  0.6508444  3
    575    574    570    577     1  0.0000000  0.6508444  3
    575    574    570    599     1  0.0000000  0.6508444  3
    575    574    586    592     1  0.0000000  0.6508444  3
    575    574    586    587     1  0.0000000  0.6508444  3
    575    574    586    588     1  0.0000000  0.6508444  3
    576    574    570    577     1  0.0000000  0.6508444  3
    576    574    570    599     1  0.0000000  0.6508444  3
    576    574    586    592     1  0.0000000  0.6508444  3
    576    574    586    587     1  0.0000000  0.6508444  3
    576    574    586    588     1  0.0000000  0.6508444  3
    577    580    589    590     1  0.0000000  0.6508444  3
    577    580    589    591     1  0.0000000  0.6508444  3
    578    577    570    599     1  0.0000000  0.6508444  3
    578    577    580    589     1  0.0000000  0.6508444  3
    578    577    580    581     1  0.0000000  0.6508444  3
    578    577    580    582     1  0.0000000  0.6508444  3
    579    577    570    599     1  0.0000000  0.6508444  3
    579    577    580    589     1  0.0000000  0.6508444  3
    579    577    580    581     1  0.0000000  0.6508444  3
    579    577    580    582     1  0.0000000  0.6508444  3
    580    577    570    599     1  0.0000000  0.6508444  3
    581    580    589    598     1  0.0000000  1.0460000  1
    581    580    589    598     1  0.0000000  0.0000000  3
    581    580    589    590     1  0.0000000  0.6508444  3
    581    580    589    591     1  0.0000000  0.6508444  3
    582    580    589    598     1  0.0000000  1.0460000  1
    582    580    589    598     1  0.0000000  0.0000000  3
    582    580    589    590     1  0.0000000  0.6508444  3
    582    580    589    591     1  0.0000000  0.6508444  3
    583    571    570    599     1  0.0000000  0.6508444  3
    584    583    595   1258     1  0.0000000  1.0460000  1
    584    583    595   1258     1  0.0000000  0.0000000  3
    584    583    595    596     1  0.0000000  0.6508444  3
    584    583    595    597     1  0.0000000  0.6508444  3
    585    583    595   1258     1  0.0000000  1.0460000  1
    585    583    595   1258     1  0.0000000  0.0000000  3
    585    583    595    596     1  0.0000000  0.6508444  3
    585    583    595    597     1  0.0000000  0.6508444  3
    586    574    570    599     1  0.0000000  0.6508444  3
    587    586    592   1228     1  0.0000000  1.0460000  1
    587    586    592   1228     1  0.0000000  0.0000000  3
    587    586    592    593     1  0.0000000  0.6508444  3
    587    586    592    594     1  0.0000000  0.6508444  3
    588    586    592   1228     1  0.0000000  1.0460000  1
    588    586    592   1228     1  0.0000000  0.0000000  3
    588    586    592    593     1  0.0000000  0.6508444  3
    588    586    592    594     1  0.0000000  0.6508444  3
    592   1228   1219   1220     1  0.0000000  1.6038667  3
    592   1228   1219   1221     1  0.0000000  1.6038667  3
    593    592   1228   1219     1  0.0000000  1.6038667  3
    594    592   1228   1219     1  0.0000000  1.6038667  3
    595   1258   1249   1250     1  0.0000000  1.6038667  3
    595   1258   1249   1251     1  0.0000000  1.6038667  3
    596    595   1258   1249     1  0.0000000  1.6038667  3
    597    595   1258   1249     1  0.0000000  1.6038667  3
    600    601    613    614     1  0.0000000  0.6508444  3
    600    601    613    615     1  0.0000000  0.6508444  3
    600    604    616    617     1  0.0000000  0.6508444  3
    600    604    616    618     1  0.0000000  0.6508444  3
    600    607    610    611     1  0.0000000  0.6508444  3
    600    607    610    612     1  0.0000000  0.6508444  3
    601    600    604    605     1  0.0000000  0.6508444  3
    601    600    604    606     1  0.0000000  0.6508444  3
    601    600    607    608     1  0.0000000  0.6508444  3
    601    600    607    609     1  0.0000000  0.6508444  3
    601    613    625    626     1  0.0000000  0.6508444  3
    601    613    625    627     1  0.0000000  0.6508444  3
    602    601    600    604     1  0.0000000  0.6508444  3
    602    601    600    607     1  0.0000000  0.6508444  3
    602    601    600    629     1  0.0000000  0.6508444  3
    602    601    613    625     1  0.0000000  0.6508444  3
    602    601    613    614     1  0.0000000  0.6508444  3
    602    601    613    615     1  0.0000000  0.6508444  3
    603    601    600    604     1  0.0000000  0.6508444  3
    603    601    600    607     1  0.0000000  0.6508444  3
    603    601    600    629     1  0.0000000  0.6508444  3
    603    601    613    625     1  0.0000000  0.6508444  3
    603    601    613    614     1  0.0000000  0.6508444  3
    603    601    613    615     1  0.0000000  0.6508444  3
    604    600    607    608     1  0.0000000  0.6508444  3
    604    600    607    609     1  0.0000000  0.6508444  3
    604    616    622    623     1  0.0000000  0.6508444  3
    604    616    622    624     1  0.0000000  0.6508444  3
    605    604    600    607     1  0.0000000  0.6508444  3
    605    604    600    629     1  0.0000000  0.6508444  3
    605    604    616    622     1  0.0000000  0.6508444  3
    605    604    616    617     1  0.0000000  0.6508444  3
    605    604    616    618     1  0.0000000  0.6508444  3
    606    604    600    607     1  0.0000000  0.6508444  3
    606    604    600    629     1  0.0000000  0.6508444  3
    606    604    616    622     1  0.0000000  0.6508444  3
    606    604    616    617     1  0.0000000  0.6508444  3
    606    604    616    618     1  0.0000000  0.6508444  3
    607    610    619    620     1  0.0000000  0.6508444  3
    607    610    619    621     1  0.0000000  0.6508444  3
    608    607    600    629     1  0.0000000  0.6508444  3
    608    607    610    619     1  0.0000000  0.6508444  3
    608    607    610    611     1  0.0000000  0.6508444  3
    608    607    610    612     1  0.0000000  0.6508444  3
    609    607    600    629     1  0.0000000  0.6508444  3
    609    607    610    619     1  0.0000000  0.6508444  3
    609    607    610    611     1  0.0000000  0.6508444  3
    609    607    610    612     1  0.0000000  0.6508444  3
    610    607    600    629     1  0.0000000  0.6508444  3
    611    610    619    628     1  0.0000000  1.0460000  1
    611    610    619    628     1  0.0000000  0.0000000  3
    611    610    619    620     1  0.0000000  0.6508444  3
    611    610    619    621     1  0.0000000  0.6508444  3
    612    610    619    628     1  0.0000000  1.0460000  1
    612    610    619    628     1  0.0000000  0.0000000  3
    612    610    619    620     1  0.0000000  0.6508444  3
    612    610    619    621     1  0.0000000  0.6508444  3
    613    601    600    629     1  0.0000000  0.6508444  3
    614    613    625   1318     1  0.0000000  1.0460000  1
    614    613    625   1318     1  0.0000000  0.0000000  3
    614    613    625    626     1  0.0000000  0.6508444  3
    614    613    625    627     1  0.0000000  0.6508444  3
    615    613    625   1318     1  0.0000000  1.0460000  1
    615    613    625   1318     1  0.0000000  0.0000000  3
    615    613    625    626     1  0.0000000  0.6508444  3
    615    613    625    627     1  0.0000000  0.6508444  3
    616    604    600    629     1  0.0000000  0.6508444  3
    617    616    622   1288     1  0.0000000  1.0460000  1
    617    616    622   1288     1  0.0000000  0.0000000  3
    617    616    622    623     1  0.0000000  0.6508444  3
    617    616    622    624     1  0.0000000  0.6508444  3
    618    616    622   1288     1  0.0000000  1.0460000  1
    618    616    622   1288     1  0.0000000  0.0000000  3
    618    616    622    623     1  0.0000000  0.6508444  3
    618    616    622    624     1  0.0000000  0.6508444  3
    622   1288   1279   1280     1  0.0000000  1.6038667  3
    622   1288   1279   1281     1  0.0000000  1.6038667  3
    623    622   1288   1279     1  0.0000000  1.6038667  3
    624    622   1288   1279     1  0.0000000  1.6038667  3
    625   1318   1309   1310     1  0.0000000  1.6038667  3
    625   1318   1309   1311     1  0.0000000  1.6038667  3
    626    625   1318   1309     1  0.0000000  1.6038667  3
    627    625   1318   1309     1  0.0000000  1.6038667  3
    630    631    643    644     1  0.0000000  0.6508444  3
    630    631    643    645     1  0.0000000  0.6508444  3
    630    634    646    647     1  0.0000000  0.6508444  3
    630    634    646    648     1  0.0000000  0.6508444  3
    630    637    640    641     1  0.0000000  0.6508444  3
    630    637    640    642     1  0.0000000  0.6508444  3
    631    630    634    635     1  0.0000000  0.6508444  3
    631    630    634    636     1  0.0000000  0.6508444  3
    631    630    637    638     1  0.0000000  0.6508444  3
    631    630    637    639     1  0.0000000  0.6508444  3
    631    643    655    656     1  0.0000000  0.6508444  3
    631    643    655    657     1  0.0000000  0.6508444  3
    632    631    630    634     1  0.0000000  0.6508444  3
    632    631    630    637     1  0.0000000  0.6508444  3
    632    631    630    659     1  0.0000000  0.6508444  3
    632    631    643    655     1  0.0000000  0.6508444  3
    632    631    643    644     1  0.0000000  0.6508444  3
    632    631    643    645     1  0.0000000  0.6508444  3
    633    631    630    634     1  0.0000000  0.6508444  3
    633    631    630    637     1  0.0000000  0.6508444  3
    633    631    630    659     1  0.0000000  0.6508444  3
    633    631    643    655     1  0.0000000  0.6508444  3
    633    631    643    644     1  0.0000000  0.6508444  3
    633    631    643    645     1  0.0000000  0.6508444  3
    634    630    637    638     1  0.0000000  0.6508444  3
    634    630    637    639     1  0.0000000  0.6508444  3
    634    646    652    653     1  0.0000000  0.6508444  3
    634    646    652    654     1  0.0000000  0.6508444  3
    635    634    630    637     1  0.0000000  0.6508444  3
    635    634    630    659     1  0.0000000  0.6508444  3
    635    634    646    652     1  0.0000000  0.6508444  3
    635    634    646    647     1  0.0000000  0.6508444  3
    635    634    646    648     1  0.0000000  0.6508444  3
    636    634    630    637     1  0.0000000  0.6508444  3
    636    634    630    659     1  0.0000000  0.6508444  3
    636    634    646    652     1  0.0000000  0.6508444  3
    636    634    646    647     1  0.0000000  0.6508444  3
    636    634    646    648     1  0.0000000  0.6508444  3
    637    640    649    650     1  0.0000000  0.6508444  3
    637    640    649    651     1  0.0000000  0.6508444  3
    638    637    630    659     1  0.0000000  0.6508444  3
    638    637    640    649     1  0.0000000  0.6508444  3
    638    637    640    641     1  0.0000000  0.6508444  3
    638    637    640    642     1  0.0000000  0.6508444  3
    639    637    630    659     1  0.0000000  0.6508444  3
    639    637    640    649     1  0.0000000  0.6508444  3
    639    637    640    641     1  0.0000000  0.6508444  3
    639    637    640    642     1  0.0000000  0.6508444  3
    640    637    630    659     1  0.0000000  0.6508444  3
    641    640    649    658     1  0.0000000  1.0460000  1
    641    640    649    658     1  0.0000000  0.0000000  3
    641    640    649    650     1  0.0000000  0.6508444  3
    641    640    649    651     1  0.0000000  0.6508444  3
    642    640    649    658     1  0.0000000  1.0460000  1
    642    640    649    658     1  0.0000000  0.0000000  3
    642    640    649    650     1  0.0000000  0.6508444  3
    642    640    649    651     1  0.0000000  0.6508444  3
    643    631    630    659     1  0.0000000  0.6508444  3
    644    643    655   1378     1  0.0000000  1.0460000  1
    644    643    655   1378     1  0.0000000  0.0000000  3
    644    643    655    656     1  0.0000000  0.6508444  3
    644    643    655    657     1  0.0000000  0.6508444  3
    645    643    655   1378     1  0.0000000  1.0460000  1
    645    643    655   1378     1  0.0000000  0.0000000  3
    645    643    655    656     1  0.0000000  0.6508444  3
    645    643    655    657     1  0.0000000  0.6508444  3
    646    634    630    659     1  0.0000000  0.6508444  3
    647    646    652   1348     1  0.0000000  1.0460000  1
    647    646    652   1348     1  0.0000000  0.0000000  3
    647    646    652    653     1  0.0000000  0.6508444  3
    647    646    652    654     1  0.0000000  0.6508444  3
    648    646    652   1348     1  0.0000000  1.0460000  1
    648    646    652   1348     1  0.0000000  0.0000000  3
    648    646    652    653     1  0.0000000  0.6508444  3
    648    646    652    654     1  0.0000000  0.6508444  3
    652   1348   1339   1340     1  0.0000000  1.6038667  3
    652   1348   1339   1341     1  0.0000000  1.6038667  3
    653    652   1348   1339     1  0.0000000  1.6038667  3
    654    652   1348   1339     1  0.0000000  1.6038667  3
    655   1378   1369   1370     1  0.0000000  1.6038667  3
    655   1378   1369   1371     1  0.0000000  1.6038667  3
    656    655   1378   1369     1  0.0000000  1.6038667  3
    657    655   1378   1369     1  0.0000000  1.6038667  3
    660    661    673    674     1  0.0000000  0.6508444  3
    660    661    673    675     1  0.0000000  0.6508444  3
    660    664    676    677     1  0.0000000  0.6508444  3
    660    664    676    678     1  0.0000000  0.6508444  3
    660    667    670    671     1  0.0000000  0.6508444  3
    660    667    670    672     1  0.0000000  0.6508444  3
    661    660    664    665     1  0.0000000  0.6508444  3
    661    660    664    666     1  0.0000000  0.6508444  3
    661    660    667    668     1  0.0000000  0.6508444  3
    661    660    667    669     1  0.0000000  0.6508444  3
    661    673    685    686     1  0.0000000  0.6508444  3
    661    673    685    687     1  0.0000000  0.6508444  3
    662    661    660    664     1  0.0000000  0.6508444  3
    662    661    660    667     1  0.0000000  0.6508444  3
    662    661    660    689     1  0.0000000  0.6508444  3
    662    661    673    685     1  0.0000000  0.6508444  3
    662    661    673    674     1  0.0000000  0.6508444  3
    662    661    673    675     1  0.0000000  0.6508444  3
    663    661    660    664     1  0.0000000  0.6508444  3
    663    661    660    667     1  0.0000000  0.6508444  3
    663    661    660    689     1  0.0000000  0.6508444  3
    663    661    673    685     1  0.0000000  0.6508444  3
    663    661    673    674     1  0.0000000  0.6508444  3
    663    661    673    675     1  0.0000000  0.6508444  3
    664    660    667    668     1  0.0000000  0.6508444  3
    664    660    667    669     1  0.0000000  0.6508444  3
    664    676    682    683     1  0.0000000  0.6508444  3
    664    676    682    684     1  0.0000000  0.6508444  3
    665    664    660    667     1  0.0000000  0.6508444  3
    665    664    660    689     1  0.0000000  0.6508444  3
    665    664    676    682     1  0.0000000  0.6508444  3
    665    664    676    677     1  0.0000000  0.6508444  3
    665    664    676    678     1  0.0000000  0.6508444  3
    666    664    660    667     1  0.0000000  0.6508444  3
    666    664    660    689     1  0.0000000  0.6508444  3
    666    664    676    682     1  0.0000000  0.6508444  3
    666    664    676    677     1  0.0000000  0.6508444  3
    666    664    676    678     1  0.0000000  0.6508444  3
    667    670    679    680     1  0.0000000  0.6508444  3
    667    670    679    681     1  0.0000000  0.6508444  3
    668    667    660    689     1  0.0000000  0.6508444  3
    668    667    670    679     1  0.0000000  0.6508444  3
    668    667    670    671     1  0.0000000  0.6508444  3
    668    667    670    672     1  0.0000000  0.6508444  3
    669    667    660    689     1  0.0000000  0.6508444  3
    669    667    670    679     1  0.0000000  0.6508444  3
    669    667    670    671     1  0.0000000  0.6508444  3
    669    667    670    672     1  0.0000000  0.6508444  3
    670    667    660    689     1  0.0000000  0.6508444  3
    671    670    679    688     1  0.0000000  1.0460000  1
    671    670    679    688     1  0.0000000  0.0000000  3
    671    670    679    680     1  0.0000000  0.6508444  3
    671    670    679    681     1  0.0000000  0.6508444  3
    672    670    679    688     1  0.0000000  1.0460000  1
    672    670    679    688     1  0.0000000  0.0000000  3
    672    670    679    680     1  0.0000000  0.6508444  3
    672    670    679    681     1  0.0000000  0.6508444  3
    673    661    660    689     1  0.0000000  0.6508444  3
    674    673    685   1438     1  0.0000000  1.0460000  1
    674    673    685   1438     1  0.0000000  0.0000000  3
    674    673    685    686     1  0.0000000  0.6508444  3
    674    673    685    687     1  0.0000000  0.6508444  3
    675    673    685   1438     1  0.0000000  1.0460000  1
    675    673    685   1438     1  0.0000000  0.0000000  3
    675    673    685    686     1  0.0000000  0.6508444  3
    675    673    685    687     1  0.0000000  0.6508444  3
    676    664    660    689     1  0.0000000  0.6508444  3
    677    676    682   1408     1  0.0000000  1.0460000  1
    677    676    682   1408     1  0.0000000  0.0000000  3
    677    676    682    683     1  0.0000000  0.6508444  3
    677    676    682    684     1  0.0000000  0.6508444  3
    678    676    682   1408     1  0.0000000  1.0460000  1
    678    676    682   1408     1  0.0000000  0.0000000  3
    678    676    682    683     1  0.0000000  0.6508444  3
    678    676    682    684     1  0.0000000  0.6508444  3
    682   1408   1399   1400     1  0.0000000  1.6038667  3
    682   1408   1399   1401     1  0.0000000  1.6038667  3
    683    682   1408   1399     1  0.0000000  1.6038667  3
    684    682   1408   1399     1  0.0000000  1.6038667  3
    685   1438   1429   1430     1  0.0000000  1.6038667  3
    685   1438   1429   1431     1  0.0000000  1.6038667  3
    686    685   1438   1429     1  0.0000000  1.6038667  3
    687    685   1438   1429     1  0.0000000  1.6038667  3
    690    691    703    704     1  0.0000000  0.6508444  3
    690    691    703    705     1  0.0000000  0.6508444  3
    690    694    706    707     1  0.0000000  0.6508444  3
    690    694    706    708     1  0.0000000  0.6508444  3
    690    697    700    701     1  0.0000000  0.6508444  3
    690    697    700    702     1  0.0000000  0.6508444  3
    691    690    694    695     1  0.0000000  0.6508444  3
    691    690    694    696     1  0.0000000  0.6508444  3
    691    690    697    698     1  0.0000000  0.6508444  3
    691    690    697    699     1  0.0000000  0.6508444  3
    691    703    715    716     1  0.0000000  0.6508444  3
    691    703    715    717     1  0.0000000  0.6508444  3
    692    691    690    694     1  0.0000000  0.6508444  3
    692    691    690    697     1  0.0000000  0.6508444  3
    692    691    690    719     1  0.0000000  0.6508444  3
    692    691    703    715     1  0.0000000  0.6508444  3
    692    691    703    704     1  0.0000000  0.6508444  3
    692    691    703    705     1  0.0000000  0.6508444  3
    693    691    690    694     1  0.0000000  0.6508444  3
    693    691    690    697     1  0.0000000  0.6508444  3
    693    691    690    719     1  0.0000000  0.6508444  3
    693    691    703    715     1  0.0000000  0.6508444  3
    693    691    703    704     1  0.0000000  0.6508444  3
    693    691    703    705     1  0.0000000  0.6508444  3
    694    690    697    698     1  0.0000000  0.6508444  3
    694    690    697    699     1  0.0000000  0.6508444  3
    694    706    712    713     1  0.0000000  0.6508444  3
    694    706    712    714     1  0.0000000  0.6508444  3
    695    694    690    697     1  0.0000000  0.6508444  3
    695    694    690    719     1  0.0000000  0.6508444  3
    695    694    706    712     1  0.0000000  0.6508444  3
    695    694    706    707     1  0.0000000  0.6508444  3
    695    694    706    708     1  0.0000000  0.6508444  3
    696    694    690    697     1  0.0000000  0.6508444  3
    696    694    690    719     1  0.0000000  0.6508444  3
    696    694    706    712     1  0.0000000  0.6508444  3
    696    694    706    707     1  0.0000000  0.6508444  3
    696    694    706    708     1  0.0000000  0.6508444  3
    697    700    709    710     1  0.0000000  0.6508444  3
    697    700    709    711     1  0.0000000  0.6508444  3
    698    697    690    719     1  0.0000000  0.6508444  3
    698    697    700    709     1  0.0000000  0.6508444  3
    698    697    700    701     1  0.0000000  0.6508444  3
    698    697    700    702     1  0.0000000  0.6508444  3
    699    697    690    719     1  0.0000000  0.6508444  3
    699    697    700    709     1  0.0000000  0.6508444  3
    699    697    700    701     1  0.0000000  0.6508444  3
    699    697    700    702     1  0.0000000  0.6508444  3
    700    697    690    719     1  0.0000000  0.6508444  3
    701    700    709    718     1  0.0000000  1.0460000  1
    701    700    709    718     1  0.0000000  0.0000000  3
    701    700    709    710     1  0.0000000  0.6508444  3
    701    700    709    711     1  0.0000000  0.6508444  3
    702    700    709    718     1  0.0000000  1.0460000  1
    702    700    709    718     1  0.0000000  0.0000000  3
    702    700    709    710     1  0.0000000  0.6508444  3
    702    700    709    711     1  0.0000000  0.6508444  3
    703    691    690    719     1  0.0000000  0.6508444  3
    704    703    715   1498     1  0.0000000  1.0460000  1
    704    703    715   1498     1  0.0000000  0.0000000  3
    704    703    715    716     1  0.0000000  0.6508444  3
    704    703    715    717     1  0.0000000  0.6508444  3
    705    703    715   1498     1  0.0000000  1.0460000  1
    705    703    715   1498     1  0.0000000  0.0000000  3
    705    703    715    716     1  0.0000000  0.6508444  3
    705    703    715    717     1  0.0000000  0.6508444  3
    706    694    690    719     1  0.0000000  0.6508444  3
    707    706    712   1468     1  0.0000000  1.0460000  1
    707    706    712   1468     1  0.0000000  0.0000000  3
    707    706    712    713     1  0.0000000  0.6508444  3
    707    706    712    714     1  0.0000000  0.6508444  3
    708    706    712   1468     1  0.0000000  1.0460000  1
    708    706    712   1468     1  0.0000000  0.0000000  3
    708    706    712    713     1  0.0000000  0.6508444  3
    708    706    712    714     1  0.0000000  0.6508444  3
    712   1468   1459   1460     1  0.0000000  1.6038667  3
    712   1468   1459   1461     1  0.0000000  1.6038667  3
    713    712   1468   1459     1  0.0000000  1.6038667  3
    714    712   1468   1459     1  0.0000000  1.6038667  3
    715   1498   1489   1490     1  0.0000000  1.6038667  3
    715   1498   1489   1491     1  0.0000000  1.6038667  3
    716    715   1498   1489     1  0.0000000  1.6038667  3
    717    715   1498   1489     1  0.0000000  1.6038667  3
    720    721    733    734     1  0.0000000  0.6508444  3
    720    721    733    735     1  0.0000000  0.6508444  3
    720    724    736    737     1  0.0000000  0.6508444  3
    720    724    736    738     1  0.0000000  0.6508444  3
    720    727    730    731     1  0.0000000  0.6508444  3
    720    727    730    732     1  0.0000000  0.6508444  3
    721    720    724    725     1  0.0000000  0.6508444  3
    721    720    724    726     1  0.0000000  0.6508444  3
    721    720    727    728     1  0.0000000  0.6508444  3
    721    720    727    729     1  0.0000000  0.6508444  3
    721    733    745    746     1  0.0000000  0.6508444  3
    721    733    745    747     1  0.0000000  0.6508444  3
    722    721    720    724     1  0.0000000  0.6508444  3
    722    721    720    727     1  0.0000000  0.6508444  3
    722    721    720    749     1  0.0000000  0.6508444  3
    722    721    733    745     1  0.0000000  0.6508444  3
    722    721    733    734     1  0.0000000  0.6508444  3
    722    721    733    735     1  0.0000000  0.6508444  3
    723    721    720    724     1  0.0000000  0.6508444  3
    723    721    720    727     1  0.0000000  0.6508444  3
    723    721    720    749     1  0.0000000  0.6508444  3
    723    721    733    745     1  0.0000000  0.6508444  3
    723    721    733    734     1  0.0000000  0.6508444  3
    723    721    733    735     1  0.0000000  0.6508444  3
    724    720    727    728     1  0.0000000  0.6508444  3
    724    720    727    729     1  0.0000000  0.6508444  3
    724    736    742    743     1  0.0000000  0.6508444  3
    724    736    742    744     1  0.0000000  0.6508444  3
    725    724    720    727     1  0.0000000  0.6508444  3
    725    724    720    749     1  0.0000000  0.6508444  3
    725    724    736    742     1  0.0000000  0.6508444  3
    725    724    736    737     1  0.0000000  0.6508444  3
    725    724    736    738     1  0.0000000  0.6508444  3
    726    724    720    727     1  0.0000000  0.6508444  3
    726    724    720    749     1  0.0000000  0.6508444  3
    726    724    736    742     1  0.0000000  0.6508444  3
    726    724    736    737     1  0.0000000  0.6508444  3
    726    724    736    738     1  0.0000000  0.6508444  3
    727    730    739    740     1  0.0000000  0.6508444  3
    727    730    739    741     1  0.0000000  0.6508444  3
    728    727    720    749     1  0.0000000  0.6508444  3
    728    727    730    739     1  0.0000000  0.6508444  3
    728    727    730    731     1  0.0000000  0.6508444  3
    728    727    730    732     1  0.0000000  0.6508444  3
    729    727    720    749     1  0.0000000  0.6508444  3
    729    727    730    739     1  0.0000000  0.6508444  3
    729    727    730    731     1  0.0000000  0.6508444  3
    729    727    730    732     1  0.0000000  0.6508444  3
    730    727    720    749     1  0.0000000  0.6508444  3
    731    730    739    748     1  0.0000000  1.0460000  1
    731    730    739    748     1  0.0000000  0.0000000  3
    731    730    739    740     1  0.0000000  0.6508444  3
    731    730    739    741     1  0.0000000  0.6508444  3
    732    730    739    748     1  0.0000000  1.0460000  1
    732    730    739    748     1  0.0000000  0.0000000  3
    732    730    739    740     1  0.0000000  0.6508444  3
    732    730    739    741     1  0.0000000  0.6508444  3
    733    721    720    749     1  0.0000000  0.6508444  3
    734    733    745   1558     1  0.0000000  1.0460000  1
    734    733    745   1558     1  0.0000000  0.0000000  3
    734    733    745    746     1  0.0000000  0.6508444  3
    734    733    745    747     1  0.0000000  0.6508444  3
    735    733    745   1558     1  0.0000000  1.0460000  1
    735    733    745   1558     1  0.0000000  0.0000000  3
    735    733    745    746     1  0.0000000  0.6508444  3
    735    733    745    747     1  0.0000000  0.6508444  3
    736    724    720    749     1  0.0000000  0.6508444  3
    737    736    742   1528     1  0.0000000  1.0460000  1
    737    736    742   1528     1  0.0000000  0.0000000  3
    737    736    742    743     1  0.0000000  0.6508444  3
    737    736    742    744     1  0.0000000  0.6508444  3
    738    736    742   1528     1  0.0000000  1.0460000  1
    738    736    742   1528     1  0.0000000  0.0000000  3
    738    736    742    743     1  0.0000000  0.6508444  3
    738    736    742    744     1  0.0000000  0.6508444  3
    742   1528   1519   1520     1  0.0000000  1.6038667  3
    742   1528   1519   1521     1  0.0000000  1.6038667  3
    743    742   1528   1519     1  0.0000000  1.6038667  3
    744    742   1528   1519     1  0.0000000  1.6038667  3
    745   1558   1549   1550     1  0.0000000  1.6038667  3
    745   1558   1549   1551     1  0.0000000  1.6038667  3
    746    745   1558   1549     1  0.0000000  1.6038667  3
    747    745   1558   1549     1  0.0000000  1.6038667  3
    750    751    763    764     1  0.0000000  0.6508444  3
    750    751    763    765     1  0.0000000  0.6508444  3
    750    754    766    767     1  0.0000000  0.6508444  3
    750    754    766    768     1  0.0000000  0.6508444  3
    750    757    760    761     1  0.0000000  0.6508444  3
    750    757    760    762     1  0.0000000  0.6508444  3
    751    750    754    755     1  0.0000000  0.6508444  3
    751    750    754    756     1  0.0000000  0.6508444  3
    751    750    757    758     1  0.0000000  0.6508444  3
    751    750    757    759     1  0.0000000  0.6508444  3
    751    763    775    776     1  0.0000000  0.6508444  3
    751    763    775    777     1  0.0000000  0.6508444  3
    752    751    750    754     1  0.0000000  0.6508444  3
    752    751    750    757     1  0.0000000  0.6508444  3
    752    751    750    779     1  0.0000000  0.6508444  3
    752    751    763    775     1  0.0000000  0.6508444  3
    752    751    763    764     1  0.0000000  0.6508444  3
    752    751    763    765     1  0.0000000  0.6508444  3
    753    751    750    754     1  0.0000000  0.6508444  3
    753    751    750    757     1  0.0000000  0.6508444  3
    753    751    750    779     1  0.0000000  0.6508444  3
    753    751    763    775     1  0.0000000  0.6508444  3
    753    751    763    764     1  0.0000000  0.6508444  3
    753    751    763    765     1  0.0000000  0.6508444  3
    754    750    757    758     1  0.0000000  0.6508444  3
    754    750    757    759     1  0.0000000  0.6508444  3
    754    766    772    773     1  0.0000000  0.6508444  3
    754    766    772    774     1  0.0000000  0.6508444  3
    755    754    750    757     1  0.0000000  0.6508444  3
    755    754    750    779     1  0.0000000  0.6508444  3
    755    754    766    772     1  0.0000000  0.6508444  3
    755    754    766    767     1  0.0000000  0.6508444  3
    755    754    766    768     1  0.0000000  0.6508444  3
    756    754    750    757     1  0.0000000  0.6508444  3
    756    754    750    779     1  0.0000000  0.6508444  3
    756    754    766    772     1  0.0000000  0.6508444  3
    756    754    766    767     1  0.0000000  0.6508444  3
    756    754    766    768     1  0.0000000  0.6508444  3
    757    760    769    770     1  0.0000000  0.6508444  3
    757    760    769    771     1  0.0000000  0.6508444  3
    758    757    750    779     1  0.0000000  0.6508444  3
    758    757    760    769     1  0.0000000  0.6508444  3
    758    757    760    761     1  0.0000000  0.6508444  3
    758    757    760    762     1  0.0000000  0.6508444  3
    759    757    750    779     1  0.0000000  0.6508444  3
    759    757    760    769     1  0.0000000  0.6508444  3
    759    757    760    761     1  0.0000000  0.6508444  3
    759    757    760    762     1  0.0000000  0.6508444  3
    760    757    750    779     1  0.0000000  0.6508444  3
    761    760    769    778     1  0.0000000  1.0460000  1
    761    760    769    778     1  0.0000000  0.0000000  3
    761    760    769    770     1  0.0000000  0.6508444  3
    761    760    769    771     1  0.0000000  0.6508444  3
    762    760    769    778     1  0.0000000  1.0460000  1
    762    760    769    778     1  0.0000000  0.0000000  3
    762    760    769    770     1  0.0000000  0.6508444  3
    762    760    769    771     1  0.0000000  0.6508444  3
    763    751    750    779     1  0.0000000  0.6508444  3
    764    763    775   1618     1  0.0000000  1.0460000  1
    764    763    775   1618     1  0.0000000  0.0000000  3
    764    763    775    776     1  0.0000000  0.6508444  3
    764    763    775    777     1  0.0000000  0.6508444  3
    765    763    775   1618     1  0.0000000  1.0460000  1
    765    763    775   1618     1  0.0000000  0.0000000  3
    765    763    775    776     1  0.0000000  0.6508444  3
    765    763    775    777     1  0.0000000  0.6508444  3
    766    754    750    779     1  0.0000000  0.6508444  3
    767    766    772   1588     1  0.0000000  1.0460000  1
    767    766    772   1588     1  0.0000000  0.0000000  3
    767    766    772    773     1  0.0000000  0.6508444  3
    767    766    772    774     1  0.0000000  0.6508444  3
    768    766    772   1588     1  0.0000000  1.0460000  1
    768    766    772   1588     1  0.0000000  0.0000000  3
    768    766    772    773     1  0.0000000  0.6508444  3
    768    766    772    774     1  0.0000000  0.6508444  3
    772   1588   1579   1580     1  0.0000000  1.6038667  3
    772   1588   1579   1581     1  0.0000000  1.6038667  3
    773    772   1588   1579     1  0.0000000  1.6038667  3
    774    772   1588   1579     1  0.0000000  1.6038667  3
    775   1618   1609   1610     1  0.0000000  1.6038667  3
    775   1618   1609   1611     1  0.0000000  1.6038667  3
    776    775   1618   1609     1  0.0000000  1.6038667  3
    777    775   1618   1609     1  0.0000000  1.6038667  3
    780    781    793    794     1  0.0000000  0.6508444  3
    780    781    793    795     1  0.0000000  0.6508444  3
    780    784    796    797     1  0.0000000  0.6508444  3
    780    784    796    798     1  0.0000000  0.6508444  3
    780    787    790    791     1  0.0000000  0.6508444  3
    780    787    790    792     1  0.0000000  0.6508444  3
    781    780    784    785     1  0.0000000  0.6508444  3
    781    780    784    786     1  0.0000000  0.6508444  3
    781    780    787    788     1  0.0000000  0.6508444  3
    781    780    787    789     1  0.0000000  0.6508444  3
    781    793    805    806     1  0.0000000  0.6508444  3
    781    793    805    807     1  0.0000000  0.6508444  3
    782    781    780    784     1  0.0000000  0.6508444  3
    782    781    780    787     1  0.0000000  0.6508444  3
    782    781    780    809     1  0.0000000  0.6508444  3
    782    781    793    805     1  0.0000000  0.6508444  3
    782    781    793    794     1  0.0000000  0.6508444  3
    782    781    793    795     1  0.0000000  0.6508444  3
    783    781    780    784     1  0.0000000  0.6508444  3
    783    781    780    787     1  0.0000000  0.6508444  3
    783    781    780    809     1  0.0000000  0.6508444  3
    783    781    793    805     1  0.0000000  0.6508444  3
    783    781    793    794     1  0.0000000  0.6508444  3
    783    781    793    795     1  0.0000000  0.6508444  3
    784    780    787    788     1  0.0000000  0.6508444  3
    784    780    787    789     1  0.0000000  0.6508444  3
    784    796    802    803     1  0.0000000  0.6508444  3
    784    796    802    804     1  0.0000000  0.6508444  3
    785    784    780    787     1  0.0000000  0.6508444  3
    785    784    780    809     1  0.0000000  0.6508444  3
    785    784    796    802     1  0.0000000  0.6508444  3
    785    784    796    797     1  0.0000000  0.6508444  3
    785    784    796    798     1  0.0000000  0.6508444  3
    786    784    780    787     1  0.0000000  0.6508444  3
    786    784    780    809     1  0.0000000  0.6508444  3
    786    784    796    802     1  0.0000000  0.6508444  3
    786    784    796    797     1  0.0000000  0.6508444  3
    786    784    796    798     1  0.0000000  0.6508444  3
    787    790    799    800     1  0.0000000  0.6508444  3
    787    790    799    801     1  0.0000000  0.6508444  3
    788    787    780    809     1  0.0000000  0.6508444  3
    788    787    790    799     1  0.0000000  0.6508444  3
    788    787    790    791     1  0.0000000  0.6508444  3
    788    787    790    792     1  0.0000000  0.6508444  3
    789    787    780    809     1  0.0000000  0.6508444  3
    789    787    790    799     1  0.0000000  0.6508444  3
    789    787    790    791     1  0.0000000  0.6508444  3
    789    787    790    792     1  0.0000000  0.6508444  3
    790    787    780    809     1  0.0000000  0.6508444  3
    791    790    799    808     1  0.0000000  1.0460000  1
    791    790    799    808     1  0.0000000  0.0000000  3
    791    790    799    800     1  0.0000000  0.6508444  3
    791    790    799    801     1  0.0000000  0.6508444  3
    792    790    799    808     1  0.0000000  1.0460000  1
    792    790    799    808     1  0.0000000  0.0000000  3
    792    790    799    800     1  0.0000000  0.6508444  3
    792    790    799    801     1  0.0000000  0.6508444  3
    793    781    780    809     1  0.0000000  0.6508444  3
    794    793    805   1678     1  0.0000000  1.0460000  1
    794    793    805   1678     1  0.0000000  0.0000000  3
    794    793    805    806     1  0.0000000  0.6508444  3
    794    793    805    807     1  0.0000000  0.6508444  3
    795    793    805   1678     1  0.0000000  1.0460000  1
    795    793    805   1678     1  0.0000000  0.0000000  3
    795    793    805    806     1  0.0000000  0.6508444  3
    795    793    805    807     1  0.0000000  0.6508444  3
    796    784    780    809     1  0.0000000  0.6508444  3
    797    796    802   1648     1  0.0000000  1.0460000  1
    797    796    802   1648     1  0.0000000  0.0000000  3
    797    796    802    803     1  0.0000000  0.6508444  3
    797    796    802    804     1  0.0000000  0.6508444  3
    798    796    802   1648     1  0.0000000  1.0460000  1
    798    796    802   1648     1  0.0000000  0.0000000  3
    798    796    802    803     1  0.0000000  0.6508444  3
    798    796    802    804     1  0.0000000  0.6508444  3
    802   1648   1639   1640     1  0.0000000  1.6038667  3
    802   1648   1639   1641     1  0.0000000  1.6038667  3
    803    802   1648   1639     1  0.0000000  1.6038667  3
    804    802   1648   1639     1  0.0000000  1.6038667  3
    805   1678   1669   1670     1  0.0000000  1.6038667  3
    805   1678   1669   1671     1  0.0000000  1.6038667  3
    806    805   1678   1669     1  0.0000000  1.6038667  3
    807    805   1678   1669     1  0.0000000  1.6038667  3
    810    811    823    824     1  0.0000000  0.6508444  3
    810    811    823    825     1  0.0000000  0.6508444  3
    810    814    826    827     1  0.0000000  0.6508444  3
    810    814    826    828     1  0.0000000  0.6508444  3
    810    817    820    821     1  0.0000000  0.6508444  3
    810    817    820    822     1  0.0000000  0.6508444  3
    811    810    814    815     1  0.0000000  0.6508444  3
    811    810    814    816     1  0.0000000  0.6508444  3
    811    810    817    818     1  0.0000000  0.6508444  3
    811    810    817    819     1  0.0000000  0.6508444  3
    811    823    835    836     1  0.0000000  0.6508444  3
    811    823    835    837     1  0.0000000  0.6508444  3
    812    811    810    814     1  0.0000000  0.6508444  3
    812    811    810    817     1  0.0000000  0.6508444  3
    812    811    810    839     1  0.0000000  0.6508444  3
    812    811    823    835     1  0.0000000  0.6508444  3
    812    811    823    824     1  0.0000000  0.6508444  3
    812    811    823    825     1  0.0000000  0.6508444  3
    813    811    810    814     1  0.0000000  0.6508444  3
    813    811    810    817     1  0.0000000  0.6508444  3
    813    811    810    839     1  0.0000000  0.6508444  3
    813    811    823    835     1  0.0000000  0.6508444  3
    813    811    823    824     1  0.0000000  0.6508444  3
    813    811    823    825     1  0.0000000  0.6508444  3
    814    810    817    818     1  0.0000000  0.6508444  3
    814    810    817    819     1  0.0000000  0.6508444  3
    814    826    832    833     1  0.0000000  0.6508444  3
    814    826    832    834     1  0.0000000  0.6508444  3
    815    814    810    817     1  0.0000000  0.6508444  3
    815    814    810    839     1  0.0000000  0.6508444  3
    815    814    826    832     1  0.0000000  0.6508444  3
    815    814    826    827     1  0.0000000  0.6508444  3
    815    814    826    828     1  0.0000000  0.6508444  3
    816    814    810    817     1  0.0000000  0.6508444  3
    816    814    810    839     1  0.0000000  0.6508444  3
    816    814    826    832     1  0.0000000  0.6508444  3
    816    814    826    827     1  0.0000000  0.6508444  3
    816    814    826    828     1  0.0000000  0.6508444  3
    817    820    829    830     1  0.0000000  0.6508444  3
    817    820    829    831     1  0.0000000  0.6508444  3
    818    817    810    839     1  0.0000000  0.6508444  3
    818    817    820    829     1  0.0000000  0.6508444  3
    818    817    820    821     1  0.0000000  0.6508444  3
    818    817    820    822     1  0.0000000  0.6508444  3
    819    817    810    839     1  0.0000000  0.6508444  3
    819    817    820    829     1  0.0000000  0.6508444  3
    819    817    820    821     1  0.0000000  0.6508444  3
    819    817    820    822     1  0.0000000  0.6508444  3
    820    817    810    839     1  0.0000000  0.6508444  3
    821    820    829    838     1  0.0000000  1.0460000  1
    821    820    829    838     1  0.0000000  0.0000000  3
    821    820    829    830     1  0.0000000  0.6508444  3
    821    820    829    831     1  0.0000000  0.6508444  3
    822    820    829    838     1  0.0000000  1.0460000  1
    822    820    829    838     1  0.0000000  0.0000000  3
    822    820    829    830     1  0.0000000  0.6508444  3
    822    820    829    831     1  0.0000000  0.6508444  3
    823    811    810    839     1  0.0000000  0.6508444  3
    824    823    835   1738     1  0.0000000  1.0460000  1
    824    823    835   1738     1  0.0000000  0.0000000  3
    824    823    835    836     1  0.0000000  0.6508444  3
    824    823    835    837     1  0.0000000  0.6508444  3
    825    823    835   1738     1  0.0000000  1.0460000  1
    825    823    835   1738     1  0.0000000  0.0000000  3
    825    823    835    836     1  0.0000000  0.6508444  3
    825    823    835    837     1  0.0000000  0.6508444  3
    826    814    810    839     1  0.0000000  0.6508444  3
    827    826    832   1708     1  0.0000000  1.0460000  1
    827    826    832   1708     1  0.0000000  0.0000000  3
    827    826    832    833     1  0.0000000  0.6508444  3
    827    826    832    834     1  0.0000000  0.6508444  3
    828    826    832   1708     1  0.0000000  1.0460000  1
    828    826    832   1708     1  0.0000000  0.0000000  3
    828    826    832    833     1  0.0000000  0.6508444  3
    828    826    832    834     1  0.0000000  0.6508444  3
    832   1708   1699   1700     1  0.0000000  1.6038667  3
    832   1708   1699   1701     1  0.0000000  1.6038667  3
    833    832   1708   1699     1  0.0000000  1.6038667  3
    834    832   1708   1699     1  0.0000000  1.6038667  3
    835   1738   1729   1730     1  0.0000000  1.6038667  3
    835   1738   1729   1731     1  0.0000000  1.6038667  3
    836    835   1738   1729     1  0.0000000  1.6038667  3
    837    835   1738   1729     1  0.0000000  1.6038667  3
    840    841    853    854     1  0.0000000  0.6508444  3
    840    841    853    855     1  0.0000000  0.6508444  3
    840    844    856    857     1  0.0000000  0.6508444  3
    840    844    856    858     1  0.0000000  0.6508444  3
    840    847    850    851     1  0.0000000  0.6508444  3
    840    847    850    852     1  0.0000000  0.6508444  3
    841    840    844    845     1  0.0000000  0.6508444  3
    841    840    844    846     1  0.0000000  0.6508444  3
    841    840    847    848     1  0.0000000  0.6508444  3
    841    840    847    849     1  0.0000000  0.6508444  3
    841    853    865    866     1  0.0000000  0.6508444  3
    841    853    865    867     1  0.0000000  0.6508444  3
    842    841    840    844     1  0.0000000  0.6508444  3
    842    841    840    847     1  0.0000000  0.6508444  3
    842    841    840    869     1  0.0000000  0.6508444  3
    842    841    853    865     1  0.0000000  0.6508444  3
    842    841    853    854     1  0.0000000  0.6508444  3
    842    841    853    855     1  0.0000000  0.6508444  3
    843    841    840    844     1  0.0000000  0.6508444  3
    843    841    840    847     1  0.0000000  0.6508444  3
    843    841    840    869     1  0.0000000  0.6508444  3
    843    841    853    865     1  0.0000000  0.6508444  3
    843    841    853    854     1  0.0000000  0.6508444  3
    843    841    853    855     1  0.0000000  0.6508444  3
    844    840    847    848     1  0.0000000  0.6508444  3
    844    840    847    849     1  0.0000000  0.6508444  3
    844    856    862    863     1  0.0000000  0.6508444  3
    844    856    862    864     1  0.0000000  0.6508444  3
    845    844    840    847     1  0.0000000  0.6508444  3
    845    844    840    869     1  0.0000000  0.6508444  3
    845    844    856    862     1  0.0000000  0.6508444  3
    845    844    856    857     1  0.0000000  0.6508444  3
    845    844    856    858     1  0.0000000  0.6508444  3
    846    844    840    847     1  0.0000000  0.6508444  3
    846    844    840    869     1  0.0000000  0.6508444  3
    846    844    856    862     1  0.0000000  0.6508444  3
    846    844    856    857     1  0.0000000  0.6508444  3
    846    844    856    858     1  0.0000000  0.6508444  3
    847    850    859    860     1  0.0000000  0.6508444  3
    847    850    859    861     1  0.0000000  0.6508444  3
    848    847    840    869     1  0.0000000  0.6508444  3
    848    847    850    859     1  0.0000000  0.6508444  3
    848    847    850    851     1  0.0000000  0.6508444  3
    848    847    850    852     1  0.0000000  0.6508444  3
    849    847    840    869     1  0.0000000  0.6508444  3
    849    847    850    859     1  0.0000000  0.6508444  3
    849    847    850    851     1  0.0000000  0.6508444  3
    849    847    850    852     1  0.0000000  0.6508444  3
    850    847    840    869     1  0.0000000  0.6508444  3
    851    850    859    868     1  0.0000000  1.0460000  1
    851    850    859    868     1  0.0000000  0.0000000  3
    851    850    859    860     1  0.0000000  0.6508444  3
    851    850    859    861     1  0.0000000  0.6508444  3
    852    850    859    868     1  0.0000000  1.0460000  1
    852    850    859    868     1  0.0000000  0.0000000  3
    852    850    859    860     1  0.0000000  0.6508444  3
    852    850    859    861     1  0.0000000  0.6508444  3
    853    841    840    869     1  0.0000000  0.6508444  3
    854    853    865   1798     1  0.0000000  1.0460000  1
    854    853    865   1798     1  0.0000000  0.0000000  3
    854    853    865    866     1  0.0000000  0.6508444  3
    854    853    865    867     1  0.0000000  0.6508444  3
    855    853    865   1798     1  0.0000000  1.0460000  1
    855    853    865   1798     1  0.0000000  0.0000000  3
    855    853    865    866     1  0.0000000  0.6508444  3
    855    853    865    867     1  0.0000000  0.6508444  3
    856    844    840    869     1  0.0000000  0.6508444  3
    857    856    862   1768     1  0.0000000  1.0460000  1
    857    856    862   1768     1  0.0000000  0.0000000  3
    857    856    862    863     1  0.0000000  0.6508444  3
    857    856    862    864     1  0.0000000  0.6508444  3
    858    856    862   1768     1  0.0000000  1.0460000  1
    858    856    862   1768     1  0.0000000  0.0000000  3
    858    856    862    863     1  0.0000000  0.6508444  3
    858    856    862    864     1  0.0000000  0.6508444  3
    862   1768   1759   1760     1  0.0000000  1.6038667  3
    862   1768   1759   1761     1  0.0000000  1.6038667  3
    863    862   1768   1759     1  0.0000000  1.6038667  3
    864    862   1768   1759     1  0.0000000  1.6038667  3
    865   1798   1789   1790     1  0.0000000  1.6038667  3
    865   1798   1789   1791     1  0.0000000  1.6038667  3
    866    865   1798   1789     1  0.0000000  1.6038667  3
    867    865   1798   1789     1  0.0000000  1.6038667  3
    870    871    883    884     1  0.0000000  0.6508444  3
    870    871    883    885     1  0.0000000  0.6508444  3
    870    874    886    887     1  0.0000000  0.6508444  3
    870    874    886    888     1  0.0000000  0.6508444  3
    870    877    880    881     1  0.0000000  0.6508444  3
    870    877    880    882     1  0.0000000  0.6508444  3
    871    870    874    875     1  0.0000000  0.6508444  3
    871    870    874    876     1  0.0000000  0.6508444  3
    871    870    877    878     1  0.0000000  0.6508444  3
    871    870    877    879     1  0.0000000  0.6508444  3
    871    883    895    896     1  0.0000000  0.6508444  3
    871    883    895    897     1  0.0000000  0.6508444  3
    872    871    870    874     1  0.0000000  0.6508444  3
    872    871    870    877     1  0.0000000  0.6508444  3
    872    871    870    899     1  0.0000000  0.6508444  3
    872    871    883    895     1  0.0000000  0.6508444  3
    872    871    883    884     1  0.0000000  0.6508444  3
    872    871    883    885     1  0.0000000  0.6508444  3
    873    871    870    874     1  0.0000000  0.6508444  3
    873    871    870    877     1  0.0000000  0.6508444  3
    873    871    870    899     1  0.0000000  0.6508444  3
    873    871    883    895     1  0.0000000  0.6508444  3
    873    871    883    884     1  0.0000000  0.6508444  3
    873    871    883    885     1  0.0000000  0.6508444  3
    874    870    877    878     1  0.0000000  0.6508444  3
    874    870    877    879     1  0.0000000  0.6508444  3
    874    886    892    893     1  0.0000000  0.6508444  3
    874    886    892    894     1  0.0000000  0.6508444  3
    875    874    870    877     1  0.0000000  0.6508444  3
    875    874    870    899     1  0.0000000  0.6508444  3
    875    874    886    892     1  0.0000000  0.6508444  3
    875    874    886    887     1  0.0000000  0.6508444  3
    875    874    886    888     1  0.0000000  0.6508444  3
    876    874    870    877     1  0.0000000  0.6508444  3
    876    874    870    899     1  0.0000000  0.6508444  3
    876    874    886    892     1  0.0000000  0.6508444  3
    876    874    886    887     1  0.0000000  0.6508444  3
    876    874    886    888     1  0.0000000  0.6508444  3
    877    880    889    890     1  0.0000000  0.6508444  3
    877    880    889    891     1  0.0000000  0.6508444  3
    878    877    870    899     1  0.0000000  0.6508444  3
    878    877    880    889     1  0.0000000  0.6508444  3
    878    877    880    881     1  0.0000000  0.6508444  3
    878    877    880    882     1  0.0000000  0.6508444  3
    879    877    870    899     1  0.0000000  0.6508444  3
    879    877    880    889     1  0.0000000  0.6508444  3
    879    877    880    881     1  0.0000000  0.6508444  3
    879    877    880    882     1  0.0000000  0.6508444  3
    880    877    870    899     1  0.0000000  0.6508444  3
    881    880    889    898     1  0.0000000  1.0460000  1
    881    880    889    898     1  0.0000000  0.0000000  3
    881    880    889    890     1  0.0000000  0.6508444  3
    881    880    889    891     1  0.0000000  0.6508444  3
    882    880    889    898     1  0.0000000  1.0460000  1
    882    880    889    898     1  0.0000000  0.0000000  3
    882    880    889    890     1  0.0000000  0.6508444  3
    882    880    889    891     1  0.0000000  0.6508444  3
    883    871    870    899     1  0.0000000  0.6508444  3
    884    883    895   1858     1  0.0000000  1.0460000  1
    884    883    895   1858     1  0.0000000  0.0000000  3
    884    883    895    896     1  0.0000000  0.6508444  3
    884    883    895    897     1  0.0000000  0.6508444  3
    885    883    895   1858     1  0.0000000  1.0460000  1
    885    883    895   1858     1  0.0000000  0.0000000  3
    885    883    895    896     1  0.0000000  0.6508444  3
    885    883    895    897     1  0.0000000  0.6508444  3
    886    874    870    899     1  0.0000000  0.6508444  3
    887    886    892   1828     1  0.0000000  1.0460000  1
    887    886    892   1828     1  0.0000000  0.0000000  3
    887    886    892    893     1  0.0000000  0.6508444  3
    887    886    892    894     1  0.0000000  0.6508444  3
    888    886    892   1828     1  0.0000000  1.0460000  1
    888    886    892   1828     1  0.0000000  0.0000000  3
    888    886    892    893     1  0.0000000  0.6508444  3
    888    886    892    894     1  0.0000000  0.6508444  3
    892   1828   1819   1820     1  0.0000000  1.6038667  3
    892   1828   1819   1821     1  0.0000000  1.6038667  3
    893    892   1828   1819     1  0.0000000  1.6038667  3
    894    892   1828   1819     1  0.0000000  1.6038667  3
    895   1858   1849   1850     1  0.0000000  1.6038667  3
    895   1858   1849   1851     1  0.0000000  1.6038667  3
    896    895   1858   1849     1  0.0000000  1.6038667  3
    897    895   1858   1849     1  0.0000000  1.6038667  3
    900    901    913    914     1  0.0000000  0.6508444  3
    900    901    913    915     1  0.0000000  0.6508444  3
    900    904    916    917     1  0.0000000  0.6508444  3
    900    904    916    918     1  0.0000000  0.6508444  3
    900    907    910    911     1  0.0000000  0.6508444  3
    900    907    910    912     1  0.0000000  0.6508444  3
    901    900    904    905     1  0.0000000  0.6508444  3
    901    900    904    906     1  0.0000000  0.6508444  3
    901    900    907    908     1  0.0000000  0.6508444  3
    901    900    907    909     1  0.0000000  0.6508444  3
    901    913    925    926     1  0.0000000  0.6508444  3
    901    913    925    927     1  0.0000000  0.6508444  3
    902    901    900    904     1  0.0000000  0.6508444  3
    902    901    900    907     1  0.0000000  0.6508444  3
    902    901    900    929     1  0.0000000  0.6508444  3
    902    901    913    925     1  0.0000000  0.6508444  3
    902    901    913    914     1  0.0000000  0.6508444  3
    902    901    913    915     1  0.0000000  0.6508444  3
    903    901    900    904     1  0.0000000  0.6508444  3
    903    901    900    907     1  0.0000000  0.6508444  3
    903    901    900    929     1  0.0000000  0.6508444  3
    903    901    913    925     1  0.0000000  0.6508444  3
    903    901    913    914     1  0.0000000  0.6508444  3
    903    901    913    915     1  0.0000000  0.6508444  3
    904    900    907    908     1  0.0000000  0.6508444  3
    904    900    907    909     1  0.0000000  0.6508444  3
    904    916    922    923     1  0.0000000  0.6508444  3
    904    916    922    924     1  0.0000000  0.6508444  3
    905    904    900    907     1  0.0000000  0.6508444  3
    905    904    900    929     1  0.0000000  0.6508444  3
    905    904    916    922     1  0.0000000  0.6508444  3
    905    904    916    917     1  0.0000000  0.6508444  3
    905    904    916    918     1  0.0000000  0.6508444  3
    906    904    900    907     1  0.0000000  0.6508444  3
    906    904    900    929     1  0.0000000  0.6508444  3
    906    904    916    922     1  0.0000000  0.6508444  3
    906    904    916    917     1  0.0000000  0.6508444  3
    906    904    916    918     1  0.0000000  0.6508444  3
    907    910    919    920     1  0.0000000  0.6508444  3
    907    910    919    921     1  0.0000000  0.6508444  3
    908    907    900    929     1  0.0000000  0.6508444  3
    908    907    910    919     1  0.0000000  0.6508444  3
    908    907    910    911     1  0.0000000  0.6508444  3
    908    907    910    912     1  0.0000000  0.6508444  3
    909    907    900    929     1  0.0000000  0.6508444  3
    909    907    910    919     1  0.0000000  0.6508444  3
    909    907    910    911     1  0.0000000  0.6508444  3
    909    907    910    912     1  0.0000000  0.6508444  3
    910    907    900    929     1  0.0000000  0.6508444  3
    911    910    919    928     1  0.0000000  1.0460000  1
    911    910    919    928     1  0.0000000  0.0000000  3
    911    910    919    920     1  0.0000000  0.6508444  3
    911    910    919    921     1  0.0000000  0.6508444  3
    912    910    919    928     1  0.0000000  1.0460000  1
    912    910    919    928     1  0.0000000  0.0000000  3
    912    910    919    920     1  0.0000000  0.6508444  3
    912    910    919    921     1  0.0000000  0.6508444  3
    913    901    900    929     1  0.0000000  0.6508444  3
    914    913    925   1922     1  0.0000000  1.0460000  1
    914    913    925   1922     1  0.0000000  0.0000000  3
    914    913    925    926     1  0.0000000  0.6508444  3
    914    913    925    927     1  0.0000000  0.6508444  3
    915    913    925   1922     1  0.0000000  1.0460000  1
    915    913    925   1922     1  0.0000000  0.0000000  3
    915    913    925    926     1  0.0000000  0.6508444  3
    915    913    925    927     1  0.0000000  0.6508444  3
    916    904    900    929     1  0.0000000  0.6508444  3
    917    916    922   1890     1  0.0000000  1.0460000  1
    917    916    922   1890     1  0.0000000  0.0000000  3
    917    916    922    923     1  0.0000000  0.6508444  3
    917    916    922    924     1  0.0000000  0.6508444  3
    918    916    922   1890     1  0.0000000  1.0460000  1
    918    916    922   1890     1  0.0000000  0.0000000  3
    918    916    922    923     1  0.0000000  0.6508444  3
    918    916    922    924     1  0.0000000  0.6508444  3
    922   1890   1860   1861     1  0.0000000  1.6038667  3
    922   1890   1860   1862     1  0.0000000  1.6038667  3
    923    922   1890   1860     1  0.0000000  1.6038667  3
    924    922   1890   1860     1  0.0000000  1.6038667  3
    925   1922   1892   1893     1  0.0000000  1.6038667  3
    925   1922   1892   1894     1  0.0000000  1.6038667  3
    926    925   1922   1892     1  0.0000000  1.6038667  3
    927    925   1922   1892     1  0.0000000  1.6038667  3
    930    931    943    944     1  0.0000000  0.6508444  3
    930    931    943    945     1  0.0000000  0.6508444  3
    930    934    946    947     1  0.0000000  0.6508444  3
    930    934    946    948     1  0.0000000  0.6508444  3
    930    937    940    941     1  0.0000000  0.6508444  3
    930    937    940    942     1  0.0000000  0.6508444  3
    931    930    934    935     1  0.0000000  0.6508444  3
    931    930    934    936     1  0.0000000  0.6508444  3
    931    930    937    938     1  0.0000000  0.6508444  3
    931    930    937    939     1  0.0000000  0.6508444  3
    931    943    955    956     1  0.0000000  0.6508444  3
    931    943    955    957     1  0.0000000  0.6508444  3
    932    931    930    934     1  0.0000000  0.6508444  3
    932    931    930    937     1  0.0000000  0.6508444  3
    932    931    930    959     1  0.0000000  0.6508444  3
    932    931    943    955     1  0.0000000  0.6508444  3
    932    931    943    944     1  0.0000000  0.6508444  3
    932    931    943    945     1  0.0000000  0.6508444  3
    933    931    930    934     1  0.0000000  0.6508444  3
    933    931    930    937     1  0.0000000  0.6508444  3
    933    931    930    959     1  0.0000000  0.6508444  3
    933    931    943    955     1  0.0000000  0.6508444  3
    933    931    943    944     1  0.0000000  0.6508444  3
    933    931    943    945     1  0.0000000  0.6508444  3
    934    930    937    938     1  0.0000000  0.6508444  3
    934    930    937    939     1  0.0000000  0.6508444  3
    934    946    952    953     1  0.0000000  0.6508444  3
    934    946    952    954     1  0.0000000  0.6508444  3
    935    934    930    937     1  0.0000000  0.6508444  3
    935    934    930    959     1  0.0000000  0.6508444  3
    935    934    946    952     1  0.0000000  0.6508444  3
    935    934    946    947     1  0.0000000  0.6508444  3
    935    934    946    948     1  0.0000000  0.6508444  3
    936    934    930    937     1  0.0000000  0.6508444  3
    936    934    930    959     1  0.0000000  0.6508444  3
    936    934    946    952     1  0.0000000  0.6508444  3
    936    934    946    947     1  0.0000000  0.6508444  3
    936    934    946    948     1  0.0000000  0.6508444  3
    937    940    949    950     1  0.0000000  0.6508444  3
    937    940    949    951     1  0.0000000  0.6508444  3
    938    937    930    959     1  0.0000000  0.6508444  3
    938    937    940    949     1  0.0000000  0.6508444  3
    938    937    940    941     1  0.0000000  0.6508444  3
    938    937    940    942     1  0.0000000  0.6508444  3
    939    937    930    959     1  0.0000000  0.6508444  3
    939    937    940    949     1  0.0000000  0.6508444  3
    939    937    940    941     1  0.0000000  0.6508444  3
    939    937    940    942     1  0.0000000  0.6508444  3
    940    937    930    959     1  0.0000000  0.6508444  3
    941    940    949    958     1  0.0000000  1.0460000  1
    941    940    949    958     1  0.0000000  0.0000000  3
    941    940    949    950     1  0.0000000  0.6508444  3
    941    940    949    951     1  0.0000000  0.6508444  3
    942    940    949    958     1  0.0000000  1.0460000  1
    942    940    949    958     1  0.0000000  0.0000000  3
    942    940    949    950     1  0.0000000  0.6508444  3
    942    940    949    951     1  0.0000000  0.6508444  3
    943    931    930    959     1  0.0000000  0.6508444  3
    944    943    955   1986     1  0.0000000  1.0460000  1
    944    943    955   1986     1  0.0000000  0.0000000  3
    944    943    955    956     1  0.0000000  0.6508444  3
    944    943    955    957     1  0.0000000  0.6508444  3
    945    943    955   1986     1  0.0000000  1.0460000  1
    945    943    955   1986     1  0.0000000  0.0000000  3
    945    943    955    956     1  0.0000000  0.6508444  3
    945    943    955    957     1  0.0000000  0.6508444  3
    946    934    930    959     1  0.0000000  0.6508444  3
    947    946    952   1954     1  0.0000000  1.0460000  1
    947    946    952   1954     1  0.0000000  0.0000000  3
    947    946    952    953     1  0.0000000  0.6508444  3
    947    946    952    954     1  0.0000000  0.6508444  3
    948    946    952   1954     1  0.0000000  1.0460000  1
    948    946    952   1954     1  0.0000000  0.0000000  3
    948    946    952    953     1  0.0000000  0.6508444  3
    948    946    952    954     1  0.0000000  0.6508444  3
    952   1954   1924   1925     1  0.0000000  1.6038667  3
    952   1954   1924   1926     1  0.0000000  1.6038667  3
    953    952   1954   1924     1  0.0000000  1.6038667  3
    954    952   1954   1924     1  0.0000000  1.6038667  3
    955   1986   1956   1957     1  0.0000000  1.6038667  3
    955   1986   1956   1958     1  0.0000000  1.6038667  3
    956    955   1986   1956     1  0.0000000  1.6038667  3
    957    955   1986   1956     1  0.0000000  1.6038667  3
    960    961    973    974     1  0.0000000  0.6508444  3
    960    961    973    975     1  0.0000000  0.6508444  3
    960    964    976    977     1  0.0000000  0.6508444  3
    960    964    976    978     1  0.0000000  0.6508444  3
    960    967    970    971     1  0.0000000  0.6508444  3
    960    967    970    972     1  0.0000000  0.6508444  3
    961    960    964    965     1  0.0000000  0.6508444  3
    961    960    964    966     1  0.0000000  0.6508444  3
    961    960    967    968     1  0.0000000  0.6508444  3
    961    960    967    969     1  0.0000000  0.6508444  3
    961    973    985    986     1  0.0000000  0.6508444  3
    961    973    985    987     1  0.0000000  0.6508444  3
    962    961    960    964     1  0.0000000  0.6508444  3
    962    961    960    967     1  0.0000000  0.6508444  3
    962    961    960    989     1  0.0000000  0.6508444  3
    962    961    973    985     1  0.0000000  0.6508444  3
    962    961    973    974     1  0.0000000  0.6508444  3
    962    961    973    975     1  0.0000000  0.6508444  3
    963    961    960    964     1  0.0000000  0.6508444  3
    963    961    960    967     1  0.0000000  0.6508444  3
    963    961    960    989     1  0.0000000  0.6508444  3
    963    961    973    985     1  0.0000000  0.6508444  3
    963    961    973    974     1  0.0000000  0.6508444  3
    963    961    973    975     1  0.0000000  0.6508444  3
    964    960    967    968     1  0.0000000  0.6508444  3
    964    960    967    969     1  0.0000000  0.6508444  3
    964    976    982    983     1  0.0000000  0.6508444  3
    964    976    982    984     1  0.0000000  0.6508444  3
    965    964    960    967     1  0.0000000  0.6508444  3
    965    964    960    989     1  0.0000000  0.6508444  3
    965    964    976    982     1  0.0000000  0.6508444  3
    965    964    976    977     1  0.0000000  0.6508444  3
    965    964    976    978     1  0.0000000  0.6508444  3
    966    964    960    967     1  0.0000000  0.6508444  3
    966    964    960    989     1  0.0000000  0.6508444  3
    966    964    976    982     1  0.0000000  0.6508444  3
    966    964    976    977     1  0.0000000  0.6508444  3
    966    964    976    978     1  0.0000000  0.6508444  3
    967    970    979    980     1  0.0000000  0.6508444  3
    967    970    979    981     1  0.0000000  0.6508444  3
    968    967    960    989     1  0.0000000  0.6508444  3
    968    967    970    979     1  0.0000000  0.6508444  3
    968    967    970    971     1  0.0000000  0.6508444  3
    968    967    970    972     1  0.0000000  0.6508444  3
    969    967    960    989     1  0.0000000  0.6508444  3
    969    967    970    979     1  0.0000000  0.6508444  3
    969    967    970    971     1  0.0000000  0.6508444  3
    969    967    970    972     1  0.0000000  0.6508444  3
    970    967    960    989     1  0.0000000  0.6508444  3
    971    970    979    988     1  0.0000000  1.0460000  1
    971    970    979    988     1  0.0000000  0.0000000  3
    971    970    979    980     1  0.0000000  0.6508444  3
    971    970    979    981     1  0.0000000  0.6508444  3
    972    970    979    988     1  0.0000000  1.0460000  1
    972    970    979    988     1  0.0000000  0.0000000  3
    972    970    979    980     1  0.0000000  0.6508444  3
    972    970    979    981     1  0.0000000  0.6508444  3
    973    961    960    989     1  0.0000000  0.6508444  3
    974    973    985   2050     1  0.0000000  1.0460000  1
    974    973    985   2050     1  0.0000000  0.0000000  3
    974    973    985    986     1  0.0000000  0.6508444  3
    974    973    985    987     1  0.0000000  0.6508444  3
    975    973    985   2050     1  0.0000000  1.0460000  1
    975    973    985   2050     1  0.0000000  0.0000000  3
    975    973    985    986     1  0.0000000  0.6508444  3
    975    973    985    987     1  0.0000000  0.6508444  3
    976    964    960    989     1  0.0000000  0.6508444  3
    977    976    982   2018     1  0.0000000  1.0460000  1
    977    976    982   2018     1  0.0000000  0.0000000  3
    977    976    982    983     1  0.0000000  0.6508444  3
    977    976    982    984     1  0.0000000  0.6508444  3
    978    976    982   2018     1  0.0000000  1.0460000  1
    978    976    982   2018     1  0.0000000  0.0000000  3
    978    976    982    983     1  0.0000000  0.6508444  3
    978    976    982    984     1  0.0000000  0.6508444  3
    982   2018   1988   1989     1  0.0000000  1.6038667  3
    982   2018   1988   1990     1  0.0000000  1.6038667  3
    983    982   2018   1988     1  0.0000000  1.6038667  3
    984    982   2018   1988     1  0.0000000  1.6038667  3
    985   2050   2020   2021     1  0.0000000  1.6038667  3
    985   2050   2020   2022     1  0.0000000  1.6038667  3
    986    985   2050   2020     1  0.0000000  1.6038667  3
    987    985   2050   2020     1  0.0000000  1.6038667  3
    990    991   1003   1004     1  0.0000000  0.6508444  3
    990    991   1003   1005     1  0.0000000  0.6508444  3
    990    994   1006   1007     1  0.0000000  0.6508444  3
    990    994   1006   1008     1  0.0000000  0.6508444  3
    990    997   1000   1001     1  0.0000000  0.6508444  3
    990    997   1000   1002     1  0.0000000  0.6508444  3
    991    990    994    995     1  0.0000000  0.6508444  3
    991    990    994    996     1  0.0000000  0.6508444  3
    991    990    997    998     1  0.0000000  0.6508444  3
    991    990    997    999     1  0.0000000  0.6508444  3
    991   1003   1015   1016     1  0.0000000  0.6508444  3
    991   1003   1015   1017     1  0.0000000  0.6508444  3
    992    991    990    994     1  0.0000000  0.6508444  3
    992    991    990    997     1  0.0000000  0.6508444  3
    992    991    990   1019     1  0.0000000  0.6508444  3
    992    991   1003   1015     1  0.0000000  0.6508444  3
    992    991   1003   1004     1  0.0000000  0.6508444  3
    992    991   1003   1005     1  0.0000000  0.6508444  3
    993    991    990    994     1  0.0000000  0.6508444  3
    993    991    990    997     1  0.0000000  0.6508444  3
    993    991    990   1019     1  0.0000000  0.6508444  3
    993    991   1003   1015     1  0.0000000  0.6508444  3
    993    991   1003   1004     1  0.0000000  0.6508444  3
    993    991   1003   1005     1  0.0000000  0.6508444  3
    994    990    997    998     1  0.0000000  0.6508444  3
    994    990    997    999     1  0.0000000  0.6508444  3
    994   1006   1012   1013     1  0.0000000  0.6508444  3
    994   1006   1012   1014     1  0.0000000  0.6508444  3
    995    994    990    997     1  0.0000000  0.6508444  3
    995    994    990   1019     1  0.0000000  0.6508444  3
    995    994   1006   1012     1  0.0000000  0.6508444  3
    995    994   1006   1007     1  0.0000000  0.6508444  3
    995    994   1006   1008     1  0.0000000  0.6508444  3
    996    994    990    997     1  0.0000000  0.6508444  3
    996    994    990   1019     1  0.0000000  0.6508444  3
    996    994   1006   1012     1  0.0000000  0.6508444  3
    996    994   1006   1007     1  0.0000000  0.6508444  3
    996    994   1006   1008     1  0.0000000  0.6508444  3
    997   1000   1009   1010     1  0.0000000  0.6508444  3
    997   1000   1009   1011     1  0.0000000  0.6508444  3
    998    997    990   1019     1  0.0000000  0.6508444  3
    998    997   1000   1009     1  0.0000000  0.6508444  3
    998    997   1000   1001     1  0.0000000  0.6508444  3
    998    997   1000   1002     1  0.0000000  0.6508444  3
    999    997    990   1019     1  0.0000000  0.6508444  3
    999    997   1000   1009     1  0.0000000  0.6508444  3
    999    997   1000   1001     1  0.0000000  0.6508444  3
    999    997   1000   1002     1  0.0000000  0.6508444  3
   1000    997    990   1019     1  0.0000000  0.6508444  3
   1001   1000   1009   1018     1  0.0000000  1.0460000  1
   1001   1000   1009   1018     1  0.0000000  0.0000000  3
   1001   1000   1009   1010     1  0.0000000  0.6508444  3
   1001   1000   1009   1011     1  0.0000000  0.6508444  3
   1002   1000   1009   1018     1  0.0000000  1.0460000  1
   1002   1000   1009   1018     1  0.0000000  0.0000000  3
   1002   1000   1009   1010     1  0.0000000  0.6508444  3
   1002   1000   1009   1011     1  0.0000000  0.6508444  3
   1003    991    990   1019     1  0.0000000  0.6508444  3
   1004   1003   1015   2114     1  0.0000000  1.0460000  1
   1004   1003   1015   2114     1  0.0000000  0.0000000  3
   1004   1003   1015   1016     1  0.0000000  0.6508444  3
   1004   1003   1015   1017     1  0.0000000  0.6508444  3
   1005   1003   1015   2114     1  0.0000000  1.0460000  1
   1005   1003   1015   2114     1  0.0000000  0.0000000  3
   1005   1003   1015   1016     1  0.0000000  0.6508444  3
   1005   1003   1015   1017     1  0.0000000  0.6508444  3
   1006    994    990   1019     1  0.0000000  0.6508444  3
   1007   1006   1012   2082     1  0.0000000  1.0460000  1
   1007   1006   1012   2082     1  0.0000000  0.0000000  3
   1007   1006   1012   1013     1  0.0000000  0.6508444  3
   1007   1006   1012   1014     1  0.0000000  0.6508444  3
   1008   1006   1012   2082     1  0.0000000  1.0460000  1
   1008   1006   1012   2082     1  0.0000000  0.0000000  3
   1008   1006   1012   1013     1  0.0000000  0.6508444  3
   1008   1006   1012   1014     1  0.0000000  0.6508444  3
   1012   2082   2052   2053     1  0.0000000  1.6038667  3
   1012   2082   2052   2054     1  0.0000000  1.6038667  3
   1013   1012   2082   2052     1  0.0000000  1.6038667  3
   1014   1012   2082   2052     1  0.0000000  1.6038667  3
   1015   2114   2084   2085     1  0.0000000  1.6038667  3
   1015   2114   2084   2086     1  0.0000000  1.6038667  3
   1016   1015   2114   2084     1  0.0000000  1.6038667  3
   1017   1015   2114   2084     1  0.0000000  1.6038667  3
   1020   1021   1033   1034     1  0.0000000  0.6508444  3
   1020   1021   1033   1035     1  0.0000000  0.6508444  3
   1020   1024   1036   1037     1  0.0000000  0.6508444  3
   1020   1024   1036   1038     1  0.0000000  0.6508444  3
   1020   1027   1030   1031     1  0.0000000  0.6508444  3
   1020   1027   1030   1032     1  0.0000000  0.6508444  3
   1021   1020   1024   1025     1  0.0000000  0.6508444  3
   1021   1020   1024   1026     1  0.0000000  0.6508444  3
   1021   1020   1027   1028     1  0.0000000  0.6508444  3
   1021   1020   1027   1029     1  0.0000000  0.6508444  3
   1021   1033   1045   1046     1  0.0000000  0.6508444  3
   1021   1033   1045   1047     1  0.0000000  0.6508444  3
   1022   1021   1020   1024     1  0.0000000  0.6508444  3
   1022   1021   1020   1027     1  0.0000000  0.6508444  3
   1022   1021   1020   1049     1  0.0000000  0.6508444  3
   1022   1021   1033   1045     1  0.0000000  0.6508444  3
   1022   1021   1033   1034     1  0.0000000  0.6508444  3
   1022   1021   1033   1035     1  0.0000000  0.6508444  3
   1023   1021   1020   1024     1  0.0000000  0.6508444  3
   1023   1021   1020   1027     1  0.0000000  0.6508444  3
   1023   1021   1020   1049     1  0.0000000  0.6508444  3
   1023   1021   1033   1045     1  0.0000000  0.6508444  3
   1023   1021   1033   1034     1  0.0000000  0.6508444  3
   1023   1021   1033   1035     1  0.0000000  0.6508444  3
   1024   1020   1027   1028     1  0.0000000  0.6508444  3
   1024   1020   1027   1029     1  0.0000000  0.6508444  3
   1024   1036   1042   1043     1  0.0000000  0.6508444  3
   1024   1036   1042   1044     1  0.0000000  0.6508444  3
   1025   1024   1020   1027     1  0.0000000  0.6508444  3
   1025   1024   1020   1049     1  0.0000000  0.6508444  3
   1025   1024   1036   1042     1  0.0000000  0.6508444  3
   1025   1024   1036   1037     1  0.0000000  0.6508444  3
   1025   1024   1036   1038     1  0.0000000  0.6508444  3
   1026   1024   1020   1027     1  0.0000000  0.6508444  3
   1026   1024   1020   1049     1  0.0000000  0.6508444  3
   1026   1024   1036   1042     1  0.0000000  0.6508444  3
   1026   1024   1036   1037     1  0.0000000  0.6508444  3
   1026   1024   1036   1038     1  0.0000000  0.6508444  3
   1027   1030   1039   1040     1  0.0000000  0.6508444  3
   1027   1030   1039   1041     1  0.0000000  0.6508444  3
   1028   1027   1020   1049     1  0.0000000  0.6508444  3
   1028   1027   1030   1039     1  0.0000000  0.6508444  3
   1028   1027   1030   1031     1  0.0000000  0.6508444  3
   1028   1027   1030   1032     1  0.0000000  0.6508444  3
   1029   1027   1020   1049     1  0.0000000  0.6508444  3
   1029   1027   1030   1039     1  0.0000000  0.6508444  3
   1029   1027   1030   1031     1  0.0000000  0.6508444  3
   1029   1027   1030   1032     1  0.0000000  0.6508444  3
   1030   1027   1020   1049     1  0.0000000  0.6508444  3
   1031   1030   1039   1048     1  0.0000000  1.0460000  1
   1031   1030   1039   1048     1  0.0000000  0.0000000  3
   1031   1030   1039   1040     1  0.0000000  0.6508444  3
   1031   1030   1039   1041     1  0.0000000  0.6508444  3
   1032   1030   1039   1048     1  0.0000000  1.0460000  1
   1032   1030   1039   1048     1  0.0000000  0.0000000  3
   1032   1030   1039   1040     1  0.0000000  0.6508444  3
   1032   1030   1039   1041     1  0.0000000  0.6508444  3
   1033   1021   1020   1049     1  0.0000000  0.6508444  3
   1034   1033   1045   2178     1  0.0000000  1.0460000  1
   1034   1033   1045   2178     1  0.0000000  0.0000000  3
   1034   1033   1045   1046     1  0.0000000  0.6508444  3
   1034   1033   1045   1047     1  0.0000000  0.6508444  3
   1035   1033   1045   2178     1  0.0000000  1.0460000  1
   1035   1033   1045   2178     1  0.0000000  0.0000000  3
   1035   1033   1045   1046     1  0.0000000  0.6508444  3
   1035   1033   1045   1047     1  0.0000000  0.6508444  3
   1036   1024   1020   1049     1  0.0000000  0.6508444  3
   1037   1036   1042   2146     1  0.0000000  1.0460000  1
   1037   1036   1042   2146     1  0.0000000  0.0000000  3
   1037   1036   1042   1043     1  0.0000000  0.6508444  3
   1037   1036   1042   1044     1  0.0000000  0.6508444  3
   1038   1036   1042   2146     1  0.0000000  1.0460000  1
   1038   1036   1042   2146     1  0.0000000  0.0000000  3
   1038   1036   1042   1043     1  0.0000000  0.6508444  3
   1038   1036   1042   1044     1  0.0000000  0.6508444  3
   1042   2146   2116   2117     1  0.0000000  1.6038667  3
   1042   2146   2116   2118     1  0.0000000  1.6038667  3
   1043   1042   2146   2116     1  0.0000000  1.6038667  3
   1044   1042   2146   2116     1  0.0000000  1.6038667  3
   1045   2178   2148   2149     1  0.0000000  1.6038667  3
   1045   2178   2148   2150     1  0.0000000  1.6038667  3
   1046   1045   2178   2148     1  0.0000000  1.6038667  3
   1047   1045   2178   2148     1  0.0000000  1.6038667  3
   1050   1051   1063   1064     1  0.0000000  0.6508444  3
   1050   1051   1063   1065     1  0.0000000  0.6508444  3
   1050   1054   1066   1067     1  0.0000000  0.6508444  3
   1050   1054   1066   1068     1  0.0000000  0.6508444  3
   1050   1057   1060   1061     1  0.0000000  0.6508444  3
   1050   1057   1060   1062     1  0.0000000  0.6508444  3
   1051   1050   1054   1055     1  0.0000000  0.6508444  3
   1051   1050   1054   1056     1  0.0000000  0.6508444  3
   1051   1050   1057   1058     1  0.0000000  0.6508444  3
   1051   1050   1057   1059     1  0.0000000  0.6508444  3
   1051   1063   1075   1076     1  0.0000000  0.6508444  3
   1051   1063   1075   1077     1  0.0000000  0.6508444  3
   1052   1051   1050   1054     1  0.0000000  0.6508444  3
   1052   1051   1050   1057     1  0.0000000  0.6508444  3
   1052   1051   1050   1079     1  0.0000000  0.6508444  3
   1052   1051   1063   1075     1  0.0000000  0.6508444  3
   1052   1051   1063   1064     1  0.0000000  0.6508444  3
   1052   1051   1063   1065     1  0.0000000  0.6508444  3
   1053   1051   1050   1054     1  0.0000000  0.6508444  3
   1053   1051   1050   1057     1  0.0000000  0.6508444  3
   1053   1051   1050   1079     1  0.0000000  0.6508444  3
   1053   1051   1063   1075     1  0.0000000  0.6508444  3
   1053   1051   1063   1064     1  0.0000000  0.6508444  3
   1053   1051   1063   1065     1  0.0000000  0.6508444  3
   1054   1050   1057   1058     1  0.0000000  0.6508444  3
   1054   1050   1057   1059     1  0.0000000  0.6508444  3
   1054   1066   1072   1073     1  0.0000000  0.6508444  3
   1054   1066   1072   1074     1  0.0000000  0.6508444  3
   1055   1054   1050   1057     1  0.0000000  0.6508444  3
   1055   1054   1050   1079     1  0.0000000  0.6508444  3
   1055   1054   1066   1072     1  0.0000000  0.6508444  3
   1055   1054   1066   1067     1  0.0000000  0.6508444  3
   1055   1054   1066   1068     1  0.0000000  0.6508444  3
   1056   1054   1050   1057     1  0.0000000  0.6508444  3
   1056   1054   1050   1079     1  0.0000000  0.6508444  3
   1056   1054   1066   1072     1  0.0000000  0.6508444  3
   1056   1054   1066   1067     1  0.0000000  0.6508444  3
   1056   1054   1066   1068     1  0.0000000  0.6508444  3
   1057   1060   1069   1070     1  0.0000000  0.6508444  3
   1057   1060   1069   1071     1  0.0000000  0.6508444  3
   1058   1057   1050   1079     1  0.0000000  0.6508444  3
   1058   1057   1060   1069     1  0.0000000  0.6508444  3
   1058   1057   1060   1061     1  0.0000000  0.6508444  3
   1058   1057   1060   1062     1  0.0000000  0.6508444  3
   1059   1057   1050   1079     1  0.0000000  0.6508444  3
   1059   1057   1060   1069     1  0.0000000  0.6508444  3
   1059   1057   1060   1061     1  0.0000000  0.6508444  3
   1059   1057   1060   1062     1  0.0000000  0.6508444  3
   1060   1057   1050   1079     1  0.0000000  0.6508444  3
   1061   1060   1069   1078     1  0.0000000  1.0460000  1
   1061   1060   1069   1078     1  0.0000000  0.0000000  3
   1061   1060   1069   1070     1  0.0000000  0.6508444  3
   1061   1060   1069   1071     1  0.0000000  0.6508444  3
   1062   1060   1069   1078     1  0.0000000  1.0460000  1
   1062   1060   1069   1078     1  0.0000000  0.0000000  3
   1062   1060   1069   1070     1  0.0000000  0.6508444  3
   1062   1060   1069   1071     1  0.0000000  0.6508444  3
   1063   1051   1050   1079     1  0.0000000  0.6508444  3
   1064   1063   1075   2242     1  0.0000000  1.0460000  1
   1064   1063   1075   2242     1  0.0000000  0.0000000  3
   1064   1063   1075   1076     1  0.0000000  0.6508444  3
   1064   1063   1075   1077     1  0.0000000  0.6508444  3
   1065   1063   1075   2242     1  0.0000000  1.0460000  1
   1065   1063   1075   2242     1  0.0000000  0.0000000  3
   1065   1063   1075   1076     1  0.0000000  0.6508444  3
   1065   1063   1075   1077     1  0.0000000  0.6508444  3
   1066   1054   1050   1079     1  0.0000000  0.6508444  3
   1067   1066   1072   2210     1  0.0000000  1.0460000  1
   1067   1066   1072   2210     1  0.0000000  0.0000000  3
   1067   1066   1072   1073     1  0.0000000  0.6508444  3
   1067   1066   1072   1074     1  0.0000000  0.6508444  3
   1068   1066   1072   2210     1  0.0000000  1.0460000  1
   1068   1066   1072   2210     1  0.0000000  0.0000000  3
   1068   1066   1072   1073     1  0.0000000  0.6508444  3
   1068   1066   1072   1074     1  0.0000000  0.6508444  3
   1072   2210   2180   2181     1  0.0000000  1.6038667  3
   1072   2210   2180   2182     1  0.0000000  1.6038667  3
   1073   1072   2210   2180     1  0.0000000  1.6038667  3
   1074   1072   2210   2180     1  0.0000000  1.6038667  3
   1075   2242   2212   2213     1  0.0000000  1.6038667  3
   1075   2242   2212   2214     1  0.0000000  1.6038667  3
   1076   1075   2242   2212     1  0.0000000  1.6038667  3
   1077   1075   2242   2212     1  0.0000000  1.6038667  3
   1080   1081   1093   1094     1  0.0000000  0.6508444  3
   1080   1081   1093   1095     1  0.0000000  0.6508444  3
   1080   1084   1096   1097     1  0.0000000  0.6508444  3
   1080   1084   1096   1098     1  0.0000000  0.6508444  3
   1080   1087   1090   1091     1  0.0000000  0.6508444  3
   1080   1087   1090   1092     1  0.0000000  0.6508444  3
   1081   1080   1084   1085     1  0.0000000  0.6508444  3
   1081   1080   1084   1086     1  0.0000000  0.6508444  3
   1081   1080   1087   1088     1  0.0000000  0.6508444  3
   1081   1080   1087   1089     1  0.0000000  0.6508444  3
   1081   1093   1105   1106     1  0.0000000  0.6508444  3
   1081   1093   1105   1107     1  0.0000000  0.6508444  3
   1082   1081   1080   1084     1  0.0000000  0.6508444  3
   1082   1081   1080   1087     1  0.0000000  0.6508444  3
   1082   1081   1080   1109     1  0.0000000  0.6508444  3
   1082   1081   1093   1105     1  0.0000000  0.6508444  3
   1082   1081   1093   1094     1  0.0000000  0.6508444  3
   1082   1081   1093   1095     1  0.0000000  0.6508444  3
   1083   1081   1080   1084     1  0.0000000  0.6508444  3
   1083   1081   1080   1087     1  0.0000000  0.6508444  3
   1083   1081   1080   1109     1  0.0000000  0.6508444  3
   1083   1081   1093   1105     1  0.0000000  0.6508444  3
   1083   1081   1093   1094     1  0.0000000  0.6508444  3
   1083   1081   1093   1095     1  0.0000000  0.6508444  3
   1084   1080   1087   1088     1  0.0000000  0.6508444  3
   1084   1080   1087   1089     1  0.0000000  0.6508444  3
   1084   1096   1102   1103     1  0.0000000  0.6508444  3
   1084   1096   1102   1104     1  0.0000000  0.6508444  3
   1085   1084   1080   1087     1  0.0000000  0.6508444  3
   1085   1084   1080   1109     1  0.0000000  0.6508444  3
   1085   1084   1096   1102     1  0.0000000  0.6508444  3
   1085   1084   1096   1097     1  0.0000000  0.6508444  3
   1085   1084   1096   1098     1  0.0000000  0.6508444  3
   1086   1084   1080   1087     1  0.0000000  0.6508444  3
   1086   1084   1080   1109     1  0.0000000  0.6508444  3
   1086   1084   1096   1102     1  0.0000000  0.6508444  3
   1086   1084   1096   1097     1  0.0000000  0.6508444  3
   1086   1084   1096   1098     1  0.0000000  0.6508444  3
   1087   1090   1099   1100     1  0.0000000  0.6508444  3
   1087   1090   1099   1101     1  0.0000000  0.6508444  3
   1088   1087   1080   1109     1  0.0000000  0.6508444  3
   1088   1087   1090   1099     1  0.0000000  0.6508444  3
   1088   1087   1090   1091     1  0.0000000  0.6508444  3
   1088   1087   1090   1092     1  0.0000000  0.6508444  3
   1089   1087   1080   1109     1  0.0000000  0.6508444  3
   1089   1087   1090   1099     1  0.0000000  0.6508444  3
   1089   1087   1090   1091     1  0.0000000  0.6508444  3
   1089   1087   1090   1092     1  0.0000000  0.6508444  3
   1090   1087   1080   1109     1  0.0000000  0.6508444  3
   1091   1090   1099   1108     1  0.0000000  1.0460000  1
   1091   1090   1099   1108     1  0.0000000  0.0000000  3
   1091   1090   1099   1100     1  0.0000000  0.6508444  3
   1091   1090   1099   1101     1  0.0000000  0.6508444  3
   1092   1090   1099   1108     1  0.0000000  1.0460000  1
   1092   1090   1099   1108     1  0.0000000  0.0000000  3
   1092   1090   1099   1100     1  0.0000000  0.6508444  3
   1092   1090   1099   1101     1  0.0000000  0.6508444  3
   1093   1081   1080   1109     1  0.0000000  0.6508444  3
   1094   1093   1105   2306     1  0.0000000  1.0460000  1
   1094   1093   1105   2306     1  0.0000000  0.0000000  3
   1094   1093   1105   1106     1  0.0000000  0.6508444  3
   1094   1093   1105   1107     1  0.0000000  0.6508444  3
   1095   1093   1105   2306     1  0.0000000  1.0460000  1
   1095   1093   1105   2306     1  0.0000000  0.0000000  3
   1095   1093   1105   1106     1  0.0000000  0.6508444  3
   1095   1093   1105   1107     1  0.0000000  0.6508444  3
   1096   1084   1080   1109     1  0.0000000  0.6508444  3
   1097   1096   1102   2274     1  0.0000000  1.0460000  1
   1097   1096   1102   2274     1  0.0000000  0.0000000  3
   1097   1096   1102   1103     1  0.0000000  0.6508444  3
   1097   1096   1102   1104     1  0.0000000  0.6508444  3
   1098   1096   1102   2274     1  0.0000000  1.0460000  1
   1098   1096   1102   2274     1  0.0000000  0.0000000  3
   1098   1096   1102   1103     1  0.0000000  0.6508444  3
   1098   1096   1102   1104     1  0.0000000  0.6508444  3
   1102   2274   2244   2245     1  0.0000000  1.6038667  3
   1102   2274   2244   2246     1  0.0000000  1.6038667  3
   1103   1102   2274   2244     1  0.0000000  1.6038667  3
   1104   1102   2274   2244     1  0.0000000  1.6038667  3
   1105   2306   2276   2277     1  0.0000000  1.6038667  3
   1105   2306   2276   2278     1  0.0000000  1.6038667  3
   1106   1105   2306   2276     1  0.0000000  1.6038667  3
   1107   1105   2306   2276     1  0.0000000  1.6038667  3
   1110   1111   1123   1124     1  0.0000000  0.6508444  3
   1110   1111   1123   1125     1  0.0000000  0.6508444  3
   1110   1114   1126   1127     1  0.0000000  0.6508444  3
   1110   1114   1126   1128     1  0.0000000  0.6508444  3
   1110   1117   1120   1121     1  0.0000000  0.6508444  3
   1110   1117   1120   1122     1  0.0000000  0.6508444  3
   1111   1110   1114   1115     1  0.0000000  0.6508444  3
   1111   1110   1114   1116     1  0.0000000  0.6508444  3
   1111   1110   1117   1118     1  0.0000000  0.6508444  3
   1111   1110   1117   1119     1  0.0000000  0.6508444  3
   1111   1123   1135   1136     1  0.0000000  0.6508444  3
   1111   1123   1135   1137     1  0.0000000  0.6508444  3
   1112   1111   1110   1114     1  0.0000000  0.6508444  3
   1112   1111   1110   1117     1  0.0000000  0.6508444  3
   1112   1111   1110   1139     1  0.0000000  0.6508444  3
   1112   1111   1123   1135     1  0.0000000  0.6508444  3
   1112   1111   1123   1124     1  0.0000000  0.6508444  3
   1112   1111   1123   1125     1  0.0000000  0.6508444  3
   1113   1111   1110   1114     1  0.0000000  0.6508444  3
   1113   1111   1110   1117     1  0.0000000  0.6508444  3
   1113   1111   1110   1139     1  0.0000000  0.6508444  3
   1113   1111   1123   1135     1  0.0000000  0.6508444  3
   1113   1111   1123   1124     1  0.0000000  0.6508444  3
   1113   1111   1123   1125     1  0.0000000  0.6508444  3
   1114   1110   1117   1118     1  0.0000000  0.6508444  3
   1114   1110   1117   1119     1  0.0000000  0.6508444  3
   1114   1126   1132   1133     1  0.0000000  0.6508444  3
   1114   1126   1132   1134     1  0.0000000  0.6508444  3
   1115   1114   1110   1117     1  0.0000000  0.6508444  3
   1115   1114   1110   1139     1  0.0000000  0.6508444  3
   1115   1114   1126   1132     1  0.0000000  0.6508444  3
   1115   1114   1126   1127     1  0.0000000  0.6508444  3
   1115   1114   1126   1128     1  0.0000000  0.6508444  3
   1116   1114   1110   1117     1  0.0000000  0.6508444  3
   1116   1114   1110   1139     1  0.0000000  0.6508444  3
   1116   1114   1126   1132     1  0.0000000  0.6508444  3
   1116   1114   1126   1127     1  0.0000000  0.6508444  3
   1116   1114   1126   1128     1  0.0000000  0.6508444  3
   1117   1120   1129   1130     1  0.0000000  0.6508444  3
   1117   1120   1129   1131     1  0.0000000  0.6508444  3
   1118   1117   1110   1139     1  0.0000000  0.6508444  3
   1118   1117   1120   1129     1  0.0000000  0.6508444  3
   1118   1117   1120   1121     1  0.0000000  0.6508444  3
   1118   1117   1120   1122     1  0.0000000  0.6508444  3
   1119   1117   1110   1139     1  0.0000000  0.6508444  3
   1119   1117   1120   1129     1  0.0000000  0.6508444  3
   1119   1117   1120   1121     1  0.0000000  0.6508444  3
   1119   1117   1120   1122     1  0.0000000  0.6508444  3
   1120   1117   1110   1139     1  0.0000000  0.6508444  3
   1121   1120   1129   1138     1  0.0000000  1.0460000  1
   1121   1120   1129   1138     1  0.0000000  0.0000000  3
   1121   1120   1129   1130     1  0.0000000  0.6508444  3
   1121   1120   1129   1131     1  0.0000000  0.6508444  3
   1122   1120   1129   1138     1  0.0000000  1.0460000  1
   1122   1120   1129   1138     1  0.0000000  0.0000000  3
   1122   1120   1129   1130     1  0.0000000  0.6508444  3
   1122   1120   1129   1131     1  0.0000000  0.6508444  3
   1123   1111   1110   1139     1  0.0000000  0.6508444  3
   1124   1123   1135   2370     1  0.0000000  1.0460000  1
   1124   1123   1135   2370     1  0.0000000  0.0000000  3
   1124   1123   1135   1136     1  0.0000000  0.6508444  3
   1124   1123   1135   1137     1  0.0000000  0.6508444  3
   1125   1123   1135   2370     1  0.0000000  1.0460000  1
   1125   1123   1135   2370     1  0.0000000  0.0000000  3
   1125   1123   1135   1136     1  0.0000000  0.6508444  3
   1125   1123   1135   1137     1  0.0000000  0.6508444  3
   1126   1114   1110   1139     1  0.0000000  0.6508444  3
   1127   1126   1132   2338     1  0.0000000  1.0460000  1
   1127   1126   1132   2338     1  0.0000000  0.0000000  3
   1127   1126   1132   1133     1  0.0000000  0.6508444  3
   1127   1126   1132   1134     1  0.0000000  0.6508444  3
   1128   1126   1132   2338     1  0.0000000  1.0460000  1
   1128   1126   1132   2338     1  0.0000000  0.0000000  3
   1128   1126   1132   1133     1  0.0000000  0.6508444  3
   1128   1126   1132   1134     1  0.0000000  0.6508444  3
   1132   2338   2308   2309     1  0.0000000  1.6038667  3
   1132   2338   2308   2310     1  0.0000000  1.6038667  3
   1133   1132   2338   2308     1  0.0000000  1.6038667  3
   1134   1132   2338   2308     1  0.0000000  1.6038667  3
   1135   2370   2340   2341     1  0.0000000  1.6038667  3
   1135   2370   2340   2342     1  0.0000000  1.6038667  3
   1136   1135   2370   2340     1  0.0000000  1.6038667  3
   1137   1135   2370   2340     1  0.0000000  1.6038667  3
   1140   1141   1153   1154     1  0.0000000  0.6508444  3
   1140   1141   1153   1155     1  0.0000000  0.6508444  3
   1140   1144   1156   1157     1  0.0000000  0.6508444  3
   1140   1144   1156   1158     1  0.0000000  0.6508444  3
   1140   1147   1150   1151     1  0.0000000  0.6508444  3
   1140   1147   1150   1152     1  0.0000000  0.6508444  3
   1141   1140   1144   1145     1  0.0000000  0.6508444  3
   1141   1140   1144   1146     1  0.0000000  0.6508444  3
   1141   1140   1147   1148     1  0.0000000  0.6508444  3
   1141   1140   1147   1149     1  0.0000000  0.6508444  3
   1141   1153   1165   1166     1  0.0000000  0.6508444  3
   1141   1153   1165   1167     1  0.0000000  0.6508444  3
   1142   1141   1140   1144     1  0.0000000  0.6508444  3
   1142   1141   1140   1147     1  0.0000000  0.6508444  3
   1142   1141   1140   1169     1  0.0000000  0.6508444  3
   1142   1141   1153   1165     1  0.0000000  0.6508444  3
   1142   1141   1153   1154     1  0.0000000  0.6508444  3
   1142   1141   1153   1155     1  0.0000000  0.6508444  3
   1143   1141   1140   1144     1  0.0000000  0.6508444  3
   1143   1141   1140   1147     1  0.0000000  0.6508444  3
   1143   1141   1140   1169     1  0.0000000  0.6508444  3
   1143   1141   1153   1165     1  0.0000000  0.6508444  3
   1143   1141   1153   1154     1  0.0000000  0.6508444  3
   1143   1141   1153   1155     1  0.0000000  0.6508444  3
   1144   1140   1147   1148     1  0.0000000  0.6508444  3
   1144   1140   1147   1149     1  0.0000000  0.6508444  3
   1144   1156   1162   1163     1  0.0000000  0.6508444  3
   1144   1156   1162   1164     1  0.0000000  0.6508444  3
   1145   1144   1140   1147     1  0.0000000  0.6508444  3
   1145   1144   1140   1169     1  0.0000000  0.6508444  3
   1145   1144   1156   1162     1  0.0000000  0.6508444  3
   1145   1144   1156   1157     1  0.0000000  0.6508444  3
   1145   1144   1156   1158     1  0.0000000  0.6508444  3
   1146   1144   1140   1147     1  0.0000000  0.6508444  3
   1146   1144   1140   1169     1  0.0000000  0.6508444  3
   1146   1144   1156   1162     1  0.0000000  0.6508444  3
   1146   1144   1156   1157     1  0.0000000  0.6508444  3
   1146   1144   1156   1158     1  0.0000000  0.6508444  3
   1147   1150   1159   1160     1  0.0000000  0.6508444  3
   1147   1150   1159   1161     1  0.0000000  0.6508444  3
   1148   1147   1140   1169     1  0.0000000  0.6508444  3
   1148   1147   1150   1159     1  0.0000000  0.6508444  3
   1148   1147   1150   1151     1  0.0000000  0.6508444  3
   1148   1147   1150   1152     1  0.0000000  0.6508444  3
   1149   1147   1140   1169     1  0.0000000  0.6508444  3
   1149   1147   1150   1159     1  0.0000000  0.6508444  3
   1149   1147   1150   1151     1  0.0000000  0.6508444  3
   1149   1147   1150   1152     1  0.0000000  0.6508444  3
   1150   1147   1140   1169     1  0.0000000  0.6508444  3
   1151   1150   1159   1168     1  0.0000000  1.0460000  1
   1151   1150   1159   1168     1  0.0000000  0.0000000  3
   1151   1150   1159   1160     1  0.0000000  0.6508444  3
   1151   1150   1159   1161     1  0.0000000  0.6508444  3
   1152   1150   1159   1168     1  0.0000000  1.0460000  1
   1152   1150   1159   1168     1  0.0000000  0.0000000  3
   1152   1150   1159   1160     1  0.0000000  0.6508444  3
   1152   1150   1159   1161     1  0.0000000  0.6508444  3
   1153   1141   1140   1169     1  0.0000000  0.6508444  3
   1154   1153   1165   2434     1  0.0000000  1.0460000  1
   1154   1153   1165   2434     1  0.0000000  0.0000000  3
   1154   1153   1165   1166     1  0.0000000  0.6508444  3
   1154   1153   1165   1167     1  0.0000000  0.6508444  3
   1155   1153   1165   2434     1  0.0000000  1.0460000  1
   1155   1153   1165   2434     1  0.0000000  0.0000000  3
   1155   1153   1165   1166     1  0.0000000  0.6508444  3
   1155   1153   1165   1167     1  0.0000000  0.6508444  3
   1156   1144   1140   1169     1  0.0000000  0.6508444  3
   1157   1156   1162   2402     1  0.0000000  1.0460000  1
   1157   1156   1162   2402     1  0.0000000  0.0000000  3
   1157   1156   1162   1163     1  0.0000000  0.6508444  3
   1157   1156   1162   1164     1  0.0000000  0.6508444  3
   1158   1156   1162   2402     1  0.0000000  1.0460000  1
   1158   1156   1162   2402     1  0.0000000  0.0000000  3
   1158   1156   1162   1163     1  0.0000000  0.6508444  3
   1158   1156   1162   1164     1  0.0000000  0.6508444  3
   1162   2402   2372   2373     1  0.0000000  1.6038667  3
   1162   2402   2372   2374     1  0.0000000  1.6038667  3
   1163   1162   2402   2372     1  0.0000000  1.6038667  3
   1164   1162   2402   2372     1  0.0000000  1.6038667  3
   1165   2434   2404   2405     1  0.0000000  1.6038667  3
   1165   2434   2404   2406     1  0.0000000  1.6038667  3
   1166   1165   2434   2404     1  0.0000000  1.6038667  3
   1167   1165   2434   2404     1  0.0000000  1.6038667  3
   1170   1171   1183   1184     1  0.0000000  0.6508444  3
   1170   1171   1183   1185     1  0.0000000  0.6508444  3
   1170   1174   1186   1187     1  0.0000000  0.6508444  3
   1170   1174   1186   1188     1  0.0000000  0.6508444  3
   1170   1177   1180   1181     1  0.0000000  0.6508444  3
   1170   1177   1180   1182     1  0.0000000  0.6508444  3
   1171   1170   1174   1175     1  0.0000000  0.6508444  3
   1171   1170   1174   1176     1  0.0000000  0.6508444  3
   1171   1170   1177   1178     1  0.0000000  0.6508444  3
   1171   1170   1177   1179     1  0.0000000  0.6508444  3
   1171   1183   1195   1196     1  0.0000000  0.6508444  3
   1171   1183   1195   1197     1  0.0000000  0.6508444  3
   1172   1171   1170   1174     1  0.0000000  0.6508444  3
   1172   1171   1170   1177     1  0.0000000  0.6508444  3
   1172   1171   1170   1199     1  0.0000000  0.6508444  3
   1172   1171   1183   1195     1  0.0000000  0.6508444  3
   1172   1171   1183   1184     1  0.0000000  0.6508444  3
   1172   1171   1183   1185     1  0.0000000  0.6508444  3
   1173   1171   1170   1174     1  0.0000000  0.6508444  3
   1173   1171   1170   1177     1  0.0000000  0.6508444  3
   1173   1171   1170   1199     1  0.0000000  0.6508444  3
   1173   1171   1183   1195     1  0.0000000  0.6508444  3
   1173   1171   1183   1184     1  0.0000000  0.6508444  3
   1173   1171   1183   1185     1  0.0000000  0.6508444  3
   1174   1170   1177   1178     1  0.0000000  0.6508444  3
   1174   1170   1177   1179     1  0.0000000  0.6508444  3
   1174   1186   1192   1193     1  0.0000000  0.6508444  3
   1174   1186   1192   1194     1  0.0000000  0.6508444  3
   1175   1174   1170   1177     1  0.0000000  0.6508444  3
   1175   1174   1170   1199     1  0.0000000  0.6508444  3
   1175   1174   1186   1192     1  0.0000000  0.6508444  3
   1175   1174   1186   1187     1  0.0000000  0.6508444  3
   1175   1174   1186   1188     1  0.0000000  0.6508444  3
   1176   1174   1170   1177     1  0.0000000  0.6508444  3
   1176   1174   1170   1199     1  0.0000000  0.6508444  3
   1176   1174   1186   1192     1  0.0000000  0.6508444  3
   1176   1174   1186   1187     1  0.0000000  0.6508444  3
   1176   1174   1186   1188     1  0.0000000  0.6508444  3
   1177   1180   1189   1190     1  0.0000000  0.6508444  3
   1177   1180   1189   1191     1  0.0000000  0.6508444  3
   1178   1177   1170   1199     1  0.0000000  0.6508444  3
   1178   1177   1180   1189     1  0.0000000  0.6508444  3
   1178   1177   1180   1181     1  0.0000000  0.6508444  3
   1178   1177   1180   1182     1  0.0000000  0.6508444  3
   1179   1177   1170   1199     1  0.0000000  0.6508444  3
   1179   1177   1180   1189     1  0.0000000  0.6508444  3
   1179   1177   1180   1181     1  0.0000000  0.6508444  3
   1179   1177   1180   1182     1  0.0000000  0.6508444  3
   1180   1177   1170   1199     1  0.0000000  0.6508444  3
   1181   1180   1189   1198     1  0.0000000  1.0460000  1
   1181   1180   1189   1198     1  0.0000000  0.0000000  3
   1181   1180   1189   1190     1  0.0000000  0.6508444  3
   1181   1180   1189   1191     1  0.0000000  0.6508444  3
   1182   1180   1189   1198     1  0.0000000  1.0460000  1
   1182   1180   1189   1198     1  0.0000000  0.0000000  3
   1182   1180   1189   1190     1  0.0000000  0.6508444  3
   1182   1180   1189   1191     1  0.0000000  0.6508444  3
   1183   1171   1170   1199     1  0.0000000  0.6508444  3
   1184   1183   1195   2498     1  0.0000000  1.0460000  1
   1184   1183   1195   2498     1  0.0000000  0.0000000  3
   1184   1183   1195   1196     1  0.0000000  0.6508444  3
   1184   1183   1195   1197     1  0.0000000  0.6508444  3
   1185   1183   1195   2498     1  0.0000000  1.0460000  1
   1185   1183   1195   2498     1  0.0000000  0.0000000  3
   1185   1183   1195   1196     1  0.0000000  0.6508444  3
   1185   1183   1195   1197     1  0.0000000  0.6508444  3
   1186   1174   1170   1199     1  0.0000000  0.6508444  3
   1187   1186   1192   2466     1  0.0000000  1.0460000  1
   1187   1186   1192   2466     1  0.0000000  0.0000000  3
   1187   1186   1192   1193     1  0.0000000  0.6508444  3
   1187   1186   1192   1194     1  0.0000000  0.6508444  3
   1188   1186   1192   2466     1  0.0000000  1.0460000  1
   1188   1186   1192   2466     1  0.0000000  0.0000000  3
   1188   1186   1192   1193     1  0.0000000  0.6508444  3
   1188   1186   1192   1194     1  0.0000000  0.6508444  3
   1192   2466   2436   2437     1  0.0000000  1.6038667  3
   1192   2466   2436   2438     1  0.0000000  1.6038667  3
   1193   1192   2466   2436     1  0.0000000  1.6038667  3
   1194   1192   2466   2436     1  0.0000000  1.6038667  3
   1195   2498   2468   2469     1  0.0000000  1.6038667  3
   1195   2498   2468   2470     1  0.0000000  1.6038667  3
   1196   1195   2498   2468     1  0.0000000  1.6038667  3
   1197   1195   2498   2468     1  0.0000000  1.6038667  3
   1200   1201   1213   1214     1  0.0000000  0.6508444  3
   1200   1201   1213   1215     1  0.0000000  0.6508444  3
   1200   1204   1216   1217     1  0.0000000  0.6508444  3
   1200   1204   1216   1218     1  0.0000000  0.6508444  3
   1200   1207   1210   1211     1  0.0000000  0.6508444  3
   1200   1207   1210   1212     1  0.0000000  0.6508444  3
   1201   1200   1204   1205     1  0.0000000  0.6508444  3
   1201   1200   1204   1206     1  0.0000000  0.6508444  3
   1201   1200   1207   1208     1  0.0000000  0.6508444  3
   1201   1200   1207   1209     1  0.0000000  0.6508444  3
   1201   1213   1225   1226     1  0.0000000  0.6508444  3
   1201   1213   1225   1227     1  0.0000000  0.6508444  3
   1202   1201   1200   1204     1  0.0000000  0.6508444  3
   1202   1201   1200   1207     1  0.0000000  0.6508444  3
   1202   1201   1200   1229     1  0.0000000  0.6508444  3
   1202   1201   1213   1225     1  0.0000000  0.6508444  3
   1202   1201   1213   1214     1  0.0000000  0.6508444  3
   1202   1201   1213   1215     1  0.0000000  0.6508444  3
   1203   1201   1200   1204     1  0.0000000  0.6508444  3
   1203   1201   1200   1207     1  0.0000000  0.6508444  3
   1203   1201   1200   1229     1  0.0000000  0.6508444  3
   1203   1201   1213   1225     1  0.0000000  0.6508444  3
   1203   1201   1213   1214     1  0.0000000  0.6508444  3
   1203   1201   1213   1215     1  0.0000000  0.6508444  3
   1204   1200   1207   1208     1  0.0000000  0.6508444  3
   1204   1200   1207   1209     1  0.0000000  0.6508444  3
   1204   1216   1222   1223     1  0.0000000  0.6508444  3
   1204   1216   1222   1224     1  0.0000000  0.6508444  3
   1205   1204   1200   1207     1  0.0000000  0.6508444  3
   1205   1204   1200   1229     1  0.0000000  0.6508444  3
   1205   1204   1216   1222     1  0.0000000  0.6508444  3
   1205   1204   1216   1217     1  0.0000000  0.6508444  3
   1205   1204   1216   1218     1  0.0000000  0.6508444  3
   1206   1204   1200   1207     1  0.0000000  0.6508444  3
   1206   1204   1200   1229     1  0.0000000  0.6508444  3
   1206   1204   1216   1222     1  0.0000000  0.6508444  3
   1206   1204   1216   1217     1  0.0000000  0.6508444  3
   1206   1204   1216   1218     1  0.0000000  0.6508444  3
   1207   1210   1219   1220     1  0.0000000  0.6508444  3
   1207   1210   1219   1221     1  0.0000000  0.6508444  3
   1208   1207   1200   1229     1  0.0000000  0.6508444  3
   1208   1207   1210   1219     1  0.0000000  0.6508444  3
   1208   1207   1210   1211     1  0.0000000  0.6508444  3
   1208   1207   1210   1212     1  0.0000000  0.6508444  3
   1209   1207   1200   1229     1  0.0000000  0.6508444  3
   1209   1207   1210   1219     1  0.0000000  0.6508444  3
   1209   1207   1210   1211     1  0.0000000  0.6508444  3
   1209   1207   1210   1212     1  0.0000000  0.6508444  3
   1210   1207   1200   1229     1  0.0000000  0.6508444  3
   1211   1210   1219   1228     1  0.0000000  1.0460000  1
   1211   1210   1219   1228     1  0.0000000  0.0000000  3
   1211   1210   1219   1220     1  0.0000000  0.6508444  3
   1211   1210   1219   1221     1  0.0000000  0.6508444  3
   1212   1210   1219   1228     1  0.0000000  1.0460000  1
   1212   1210   1219   1228     1  0.0000000  0.0000000  3
   1212   1210   1219   1220     1  0.0000000  0.6508444  3
   1212   1210   1219   1221     1  0.0000000  0.6508444  3
   1213   1201   1200   1229     1  0.0000000  0.6508444  3
   1214   1213   1225   2562     1  0.0000000  1.0460000  1
   1214   1213   1225   2562     1  0.0000000  0.0000000  3
   1214   1213   1225   1226     1  0.0000000  0.6508444  3
   1214   1213   1225   1227     1  0.0000000  0.6508444  3
   1215   1213   1225   2562     1  0.0000000  1.0460000  1
   1215   1213   1225   2562     1  0.0000000  0.0000000  3
   1215   1213   1225   1226     1  0.0000000  0.6508444  3
   1215   1213   1225   1227     1  0.0000000  0.6508444  3
   1216   1204   1200   1229     1  0.0000000  0.6508444  3
   1217   1216   1222   2530     1  0.0000000  1.0460000  1
   1217   1216   1222   2530     1  0.0000000  0.0000000  3
   1217   1216   1222   1223     1  0.0000000  0.6508444  3
   1217   1216   1222   1224     1  0.0000000  0.6508444  3
   1218   1216   1222   2530     1  0.0000000  1.0460000  1
   1218   1216   1222   2530     1  0.0000000  0.0000000  3
   1218   1216   1222   1223     1  0.0000000  0.6508444  3
   1218   1216   1222   1224     1  0.0000000  0.6508444  3
   1222   2530   2500   2501     1  0.0000000  1.6038667  3
   1222   2530   2500   2502     1  0.0000000  1.6038667  3
   1223   1222   2530   2500     1  0.0000000  1.6038667  3
   1224   1222   2530   2500     1  0.0000000  1.6038667  3
   1225   2562   2532   2533     1  0.0000000  1.6038667  3
   1225   2562   2532   2534     1  0.0000000  1.6038667  3
   1226   1225   2562   2532     1  0.0000000  1.6038667  3
   1227   1225   2562   2532     1  0.0000000  1.6038667  3
   1230   1231   1243   1244     1  0.0000000  0.6508444  3
   1230   1231   1243   1245     1  0.0000000  0.6508444  3
   1230   1234   1246   1247     1  0.0000000  0.6508444  3
   1230   1234   1246   1248     1  0.0000000  0.6508444  3
   1230   1237   1240   1241     1  0.0000000  0.6508444  3
   1230   1237   1240   1242     1  0.0000000  0.6508444  3
   1231   1230   1234   1235     1  0.0000000  0.6508444  3
   1231   1230   1234   1236     1  0.0000000  0.6508444  3
   1231   1230   1237   1238     1  0.0000000  0.6508444  3
   1231   1230   1237   1239     1  0.0000000  0.6508444  3
   1231   1243   1255   1256     1  0.0000000  0.6508444  3
   1231   1243   1255   1257     1  0.0000000  0.6508444  3
   1232   1231   1230   1234     1  0.0000000  0.6508444  3
   1232   1231   1230   1237     1  0.0000000  0.6508444  3
   1232   1231   1230   1259     1  0.0000000  0.6508444  3
   1232   1231   1243   1255     1  0.0000000  0.6508444  3
   1232   1231   1243   1244     1  0.0000000  0.6508444  3
   1232   1231   1243   1245     1  0.0000000  0.6508444  3
   1233   1231   1230   1234     1  0.0000000  0.6508444  3
   1233   1231   1230   1237     1  0.0000000  0.6508444  3
   1233   1231   1230   1259     1  0.0000000  0.6508444  3
   1233   1231   1243   1255     1  0.0000000  0.6508444  3
   1233   1231   1243   1244     1  0.0000000  0.6508444  3
   1233   1231   1243   1245     1  0.0000000  0.6508444  3
   1234   1230   1237   1238     1  0.0000000  0.6508444  3
   1234   1230   1237   1239     1  0.0000000  0.6508444  3
   1234   1246   1252   1253     1  0.0000000  0.6508444  3
   1234   1246   1252   1254     1  0.0000000  0.6508444  3
   1235   1234   1230   1237     1  0.0000000  0.6508444  3
   1235   1234   1230   1259     1  0.0000000  0.6508444  3
   1235   1234   1246   1252     1  0.0000000  0.6508444  3
   1235   1234   1246   1247     1  0.0000000  0.6508444  3
   1235   1234   1246   1248     1  0.0000000  0.6508444  3
   1236   1234   1230   1237     1  0.0000000  0.6508444  3
   1236   1234   1230   1259     1  0.0000000  0.6508444  3
   1236   1234   1246   1252     1  0.0000000  0.6508444  3
   1236   1234   1246   1247     1  0.0000000  0.6508444  3
   1236   1234   1246   1248     1  0.0000000  0.6508444  3
   1237   1240   1249   1250     1  0.0000000  0.6508444  3
   1237   1240   1249   1251     1  0.0000000  0.6508444  3
   1238   1237   1230   1259     1  0.0000000  0.6508444  3
   1238   1237   1240   1249     1  0.0000000  0.6508444  3
   1238   1237   1240   1241     1  0.0000000  0.6508444  3
   1238   1237   1240   1242     1  0.0000000  0.6508444  3
   1239   1237   1230   1259     1  0.0000000  0.6508444  3
   1239   1237   1240   1249     1  0.0000000  0.6508444  3
   1239   1237   1240   1241     1  0.0000000  0.6508444  3
   1239   1237   1240   1242     1  0.0000000  0.6508444  3
   1240   1237   1230   1259     1  0.0000000  0.6508444  3
   1241   1240   1249   1258     1  0.0000000  1.0460000  1
   1241   1240   1249   1258     1  0.0000000  0.0000000  3
   1241   1240   1249   1250     1  0.0000000  0.6508444  3
   1241   1240   1249   1251     1  0.0000000  0.6508444  3
   1242   1240   1249   1258     1  0.0000000  1.0460000  1
   1242   1240   1249   1258     1  0.0000000  0.0000000  3
   1242   1240   1249   1250     1  0.0000000  0.6508444  3
   1242   1240   1249   1251     1  0.0000000  0.6508444  3
   1243   1231   1230   1259     1  0.0000000  0.6508444  3
   1244   1243   1255   2626     1  0.0000000  1.0460000  1
   1244   1243   1255   2626     1  0.0000000  0.0000000  3
   1244   1243   1255   1256     1  0.0000000  0.6508444  3
   1244   1243   1255   1257     1  0.0000000  0.6508444  3
   1245   1243   1255   2626     1  0.0000000  1.0460000  1
   1245   1243   1255   2626     1  0.0000000  0.0000000  3
   1245   1243   1255   1256     1  0.0000000  0.6508444  3
   1245   1243   1255   1257     1  0.0000000  0.6508444  3
   1246   1234   1230   1259     1  0.0000000  0.6508444  3
   1247   1246   1252   2594     1  0.0000000  1.0460000  1
   1247   1246   1252   2594     1  0.0000000  0.0000000  3
   1247   1246   1252   1253     1  0.0000000  0.6508444  3
   1247   1246   1252   1254     1  0.0000000  0.6508444  3
   1248   1246   1252   2594     1  0.0000000  1.0460000  1
   1248   1246   1252   2594     1  0.0000000  0.0000000  3
   1248   1246   1252   1253     1  0.0000000  0.6508444  3
   1248   1246   1252   1254     1  0.0000000  0.6508444  3
   1252   2594   2564   2565     1  0.0000000  1.6038667  3
   1252   2594   2564   2566     1  0.0000000  1.6038667  3
   1253   1252   2594   2564     1  0.0000000  1.6038667  3
   1254   1252   2594   2564     1  0.0000000  1.6038667  3
   1255   2626   2596   2597     1  0.0000000  1.6038667  3
   1255   2626   2596   2598     1  0.0000000  1.6038667  3
   1256   1255   2626   2596     1  0.0000000  1.6038667  3
   1257   1255   2626   2596     1  0.0000000  1.6038667  3
   1260   1261   1273   1274     1  0.0000000  0.6508444  3
   1260   1261   1273   1275     1  0.0000000  0.6508444  3
   1260   1264   1276   1277     1  0.0000000  0.6508444  3
   1260   1264   1276   1278     1  0.0000000  0.6508444  3
   1260   1267   1270   1271     1  0.0000000  0.6508444  3
   1260   1267   1270   1272     1  0.0000000  0.6508444  3
   1261   1260   1264   1265     1  0.0000000  0.6508444  3
   1261   1260   1264   1266     1  0.0000000  0.6508444  3
   1261   1260   1267   1268     1  0.0000000  0.6508444  3
   1261   1260   1267   1269     1  0.0000000  0.6508444  3
   1261   1273   1285   1286     1  0.0000000  0.6508444  3
   1261   1273   1285   1287     1  0.0000000  0.6508444  3
   1262   1261   1260   1264     1  0.0000000  0.6508444  3
   1262   1261   1260   1267     1  0.0000000  0.6508444  3
   1262   1261   1260   1289     1  0.0000000  0.6508444  3
   1262   1261   1273   1285     1  0.0000000  0.6508444  3
   1262   1261   1273   1274     1  0.0000000  0.6508444  3
   1262   1261   1273   1275     1  0.0000000  0.6508444  3
   1263   1261   1260   1264     1  0.0000000  0.6508444  3
   1263   1261   1260   1267     1  0.0000000  0.6508444  3
   1263   1261   1260   1289     1  0.0000000  0.6508444  3
   1263   1261   1273   1285     1  0.0000000  0.6508444  3
   1263   1261   1273   1274     1  0.0000000  0.6508444  3
   1263   1261   1273   1275     1  0.0000000  0.6508444  3
   1264   1260   1267   1268     1  0.0000000  0.6508444  3
   1264   1260   1267   1269     1  0.0000000  0.6508444  3
   1264   1276   1282   1283     1  0.0000000  0.6508444  3
   1264   1276   1282   1284     1  0.0000000  0.6508444  3
   1265   1264   1260   1267     1  0.0000000  0.6508444  3
   1265   1264   1260   1289     1  0.0000000  0.6508444  3
   1265   1264   1276   1282     1  0.0000000  0.6508444  3
   1265   1264   1276   1277     1  0.0000000  0.6508444  3
   1265   1264   1276   1278     1  0.0000000  0.6508444  3
   1266   1264   1260   1267     1  0.0000000  0.6508444  3
   1266   1264   1260   1289     1  0.0000000  0.6508444  3
   1266   1264   1276   1282     1  0.0000000  0.6508444  3
   1266   1264   1276   1277     1  0.0000000  0.6508444  3
   1266   1264   1276   1278     1  0.0000000  0.6508444  3
   1267   1270   1279   1280     1  0.0000000  0.6508444  3
   1267   1270   1279   1281     1  0.0000000  0.6508444  3
   1268   1267   1260   1289     1  0.0000000  0.6508444  3
   1268   1267   1270   1279     1  0.0000000  0.6508444  3
   1268   1267   1270   1271     1  0.0000000  0.6508444  3
   1268   1267   1270   1272     1  0.0000000  0.6508444  3
   1269   1267   1260   1289     1  0.0000000  0.6508444  3
   1269   1267   1270   1279     1  0.0000000  0.6508444  3
   1269   1267   1270   1271     1  0.0000000  0.6508444  3
   1269   1267   1270   1272     1  0.0000000  0.6508444  3
   1270   1267   1260   1289     1  0.0000000  0.6508444  3
   1271   1270   1279   1288     1  0.0000000  1.0460000  1
   1271   1270   1279   1288     1  0.0000000  0.0000000  3
   1271   1270   1279   1280     1  0.0000000  0.6508444  3
   1271   1270   1279   1281     1  0.0000000  0.6508444  3
   1272   1270   1279   1288     1  0.0000000  1.0460000  1
   1272   1270   1279   1288     1  0.0000000  0.0000000  3
   1272   1270   1279   1280     1  0.0000000  0.6508444  3
   1272   1270   1279   1281     1  0.0000000  0.6508444  3
   1273   1261   1260   1289     1  0.0000000  0.6508444  3
   1274   1273   1285   2690     1  0.0000000  1.0460000  1
   1274   1273   1285   2690     1  0.0000000  0.0000000  3
   1274   1273   1285   1286     1  0.0000000  0.6508444  3
   1274   1273   1285   1287     1  0.0000000  0.6508444  3
   1275   1273   1285   2690     1  0.0000000  1.0460000  1
   1275   1273   1285   2690     1  0.0000000  0.0000000  3
   1275   1273   1285   1286     1  0.0000000  0.6508444  3
   1275   1273   1285   1287     1  0.0000000  0.6508444  3
   1276   1264   1260   1289     1  0.0000000  0.6508444  3
   1277   1276   1282   2658     1  0.0000000  1.0460000  1
   1277   1276   1282   2658     1  0.0000000  0.0000000  3
   1277   1276   1282   1283     1  0.0000000  0.6508444  3
   1277   1276   1282   1284     1  0.0000000  0.6508444  3
   1278   1276   1282   2658     1  0.0000000  1.0460000  1
   1278   1276   1282   2658     1  0.0000000  0.0000000  3
   1278   1276   1282   1283     1  0.0000000  0.6508444  3
   1278   1276   1282   1284     1  0.0000000  0.6508444  3
   1282   2658   2628   2629     1  0.0000000  1.6038667  3
   1282   2658   2628   2630     1  0.0000000  1.6038667  3
   1283   1282   2658   2628     1  0.0000000  1.6038667  3
   1284   1282   2658   2628     1  0.0000000  1.6038667  3
   1285   2690   2660   2661     1  0.0000000  1.6038667  3
   1285   2690   2660   2662     1  0.0000000  1.6038667  3
   1286   1285   2690   2660     1  0.0000000  1.6038667  3
   1287   1285   2690   2660     1  0.0000000  1.6038667  3
   1290   1291   1303   1304     1  0.0000000  0.6508444  3
   1290   1291   1303   1305     1  0.0000000  0.6508444  3
   1290   1294   1306   1307     1  0.0000000  0.6508444  3
   1290   1294   1306   1308     1  0.0000000  0.6508444  3
   1290   1297   1300   1301     1  0.0000000  0.6508444  3
   1290   1297   1300   1302     1  0.0000000  0.6508444  3
   1291   1290   1294   1295     1  0.0000000  0.6508444  3
   1291   1290   1294   1296     1  0.0000000  0.6508444  3
   1291   1290   1297   1298     1  0.0000000  0.6508444  3
   1291   1290   1297   1299     1  0.0000000  0.6508444  3
   1291   1303   1315   1316     1  0.0000000  0.6508444  3
   1291   1303   1315   1317     1  0.0000000  0.6508444  3
   1292   1291   1290   1294     1  0.0000000  0.6508444  3
   1292   1291   1290   1297     1  0.0000000  0.6508444  3
   1292   1291   1290   1319     1  0.0000000  0.6508444  3
   1292   1291   1303   1315     1  0.0000000  0.6508444  3
   1292   1291   1303   1304     1  0.0000000  0.6508444  3
   1292   1291   1303   1305     1  0.0000000  0.6508444  3
   1293   1291   1290   1294     1  0.0000000  0.6508444  3
   1293   1291   1290   1297     1  0.0000000  0.6508444  3
   1293   1291   1290   1319     1  0.0000000  0.6508444  3
   1293   1291   1303   1315     1  0.0000000  0.6508444  3
   1293   1291   1303   1304     1  0.0000000  0.6508444  3
   1293   1291   1303   1305     1  0.0000000  0.6508444  3
   1294   1290   1297   1298     1  0.0000000  0.6508444  3
   1294   1290   1297   1299     1  0.0000000  0.6508444  3
   1294   1306   1312   1313     1  0.0000000  0.6508444  3
   1294   1306   1312   1314     1  0.0000000  0.6508444  3
   1295   1294   1290   1297     1  0.0000000  0.6508444  3
   1295   1294   1290   1319     1  0.0000000  0.6508444  3
   1295   1294   1306   1312     1  0.0000000  0.6508444  3
   1295   1294   1306   1307     1  0.0000000  0.6508444  3
   1295   1294   1306   1308     1  0.0000000  0.6508444  3
   1296   1294   1290   1297     1  0.0000000  0.6508444  3
   1296   1294   1290   1319     1  0.0000000  0.6508444  3
   1296   1294   1306   1312     1  0.0000000  0.6508444  3
   1296   1294   1306   1307     1  0.0000000  0.6508444  3
   1296   1294   1306   1308     1  0.0000000  0.6508444  3
   1297   1300   1309   1310     1  0.0000000  0.6508444  3
   1297   1300   1309   1311     1  0.0000000  0.6508444  3
   1298   1297   1290   1319     1  0.0000000  0.6508444  3
   1298   1297   1300   1309     1  0.0000000  0.6508444  3
   1298   1297   1300   1301     1  0.0000000  0.6508444  3
   1298   1297   1300   1302     1  0.0000000  0.6508444  3
   1299   1297   1290   1319     1  0.0000000  0.6508444  3
   1299   1297   1300   1309     1  0.0000000  0.6508444  3
   1299   1297   1300   1301     1  0.0000000  0.6508444  3
   1299   1297   1300   1302     1  0.0000000  0.6508444  3
   1300   1297   1290   1319     1  0.0000000  0.6508444  3
   1301   1300   1309   1318     1  0.0000000  1.0460000  1
   1301   1300   1309   1318     1  0.0000000  0.0000000  3
   1301   1300   1309   1310     1  0.0000000  0.6508444  3
   1301   1300   1309   1311     1  0.0000000  0.6508444  3
   1302   1300   1309   1318     1  0.0000000  1.0460000  1
   1302   1300   1309   1318     1  0.0000000  0.0000000  3
   1302   1300   1309   1310     1  0.0000000  0.6508444  3
   1302   1300   1309   1311     1  0.0000000  0.6508444  3
   1303   1291   1290   1319     1  0.0000000  0.6508444  3
   1304   1303   1315   2754     1  0.0000000  1.0460000  1
   1304   1303   1315   2754     1  0.0000000  0.0000000  3
   1304   1303   1315   1316     1  0.0000000  0.6508444  3
   1304   1303   1315   1317     1  0.0000000  0.6508444  3
   1305   1303   1315   2754     1  0.0000000  1.0460000  1
   1305   1303   1315   2754     1  0.0000000  0.0000000  3
   1305   1303   1315   1316     1  0.0000000  0.6508444  3
   1305   1303   1315   1317     1  0.0000000  0.6508444  3
   1306   1294   1290   1319     1  0.0000000  0.6508444  3
   1307   1306   1312   2722     1  0.0000000  1.0460000  1
   1307   1306   1312   2722     1  0.0000000  0.0000000  3
   1307   1306   1312   1313     1  0.0000000  0.6508444  3
   1307   1306   1312   1314     1  0.0000000  0.6508444  3
   1308   1306   1312   2722     1  0.0000000  1.0460000  1
   1308   1306   1312   2722     1  0.0000000  0.0000000  3
   1308   1306   1312   1313     1  0.0000000  0.6508444  3
   1308   1306   1312   1314     1  0.0000000  0.6508444  3
   1312   2722   2692   2693     1  0.0000000  1.6038667  3
   1312   2722   2692   2694     1  0.0000000  1.6038667  3
   1313   1312   2722   2692     1  0.0000000  1.6038667  3
   1314   1312   2722   2692     1  0.0000000  1.6038667  3
   1315   2754   2724   2725     1  0.0000000  1.6038667  3
   1315   2754   2724   2726     1  0.0000000  1.6038667  3
   1316   1315   2754   2724     1  0.0000000  1.6038667  3
   1317   1315   2754   2724     1  0.0000000  1.6038667  3
   1320   1321   1333   1334     1  0.0000000  0.6508444  3
   1320   1321   1333   1335     1  0.0000000  0.6508444  3
   1320   1324   1336   1337     1  0.0000000  0.6508444  3
   1320   1324   1336   1338     1  0.0000000  0.6508444  3
   1320   1327   1330   1331     1  0.0000000  0.6508444  3
   1320   1327   1330   1332     1  0.0000000  0.6508444  3
   1321   1320   1324   1325     1  0.0000000  0.6508444  3
   1321   1320   1324   1326     1  0.0000000  0.6508444  3
   1321   1320   1327   1328     1  0.0000000  0.6508444  3
   1321   1320   1327   1329     1  0.0000000  0.6508444  3
   1321   1333   1345   1346     1  0.0000000  0.6508444  3
   1321   1333   1345   1347     1  0.0000000  0.6508444  3
   1322   1321   1320   1324     1  0.0000000  0.6508444  3
   1322   1321   1320   1327     1  0.0000000  0.6508444  3
   1322   1321   1320   1349     1  0.0000000  0.6508444  3
   1322   1321   1333   1345     1  0.0000000  0.6508444  3
   1322   1321   1333   1334     1  0.0000000  0.6508444  3
   1322   1321   1333   1335     1  0.0000000  0.6508444  3
   1323   1321   1320   1324     1  0.0000000  0.6508444  3
   1323   1321   1320   1327     1  0.0000000  0.6508444  3
   1323   1321   1320   1349     1  0.0000000  0.6508444  3
   1323   1321   1333   1345     1  0.0000000  0.6508444  3
   1323   1321   1333   1334     1  0.0000000  0.6508444  3
   1323   1321   1333   1335     1  0.0000000  0.6508444  3
   1324   1320   1327   1328     1  0.0000000  0.6508444  3
   1324   1320   1327   1329     1  0.0000000  0.6508444  3
   1324   1336   1342   1343     1  0.0000000  0.6508444  3
   1324   1336   1342   1344     1  0.0000000  0.6508444  3
   1325   1324   1320   1327     1  0.0000000  0.6508444  3
   1325   1324   1320   1349     1  0.0000000  0.6508444  3
   1325   1324   1336   1342     1  0.0000000  0.6508444  3
   1325   1324   1336   1337     1  0.0000000  0.6508444  3
   1325   1324   1336   1338     1  0.0000000  0.6508444  3
   1326   1324   1320   1327     1  0.0000000  0.6508444  3
   1326   1324   1320   1349     1  0.0000000  0.6508444  3
   1326   1324   1336   1342     1  0.0000000  0.6508444  3
   1326   1324   1336   1337     1  0.0000000  0.6508444  3
   1326   1324   1336   1338     1  0.0000000  0.6508444  3
   1327   1330   1339   1340     1  0.0000000  0.6508444  3
   1327   1330   1339   1341     1  0.0000000  0.6508444  3
   1328   1327   1320   1349     1  0.0000000  0.6508444  3
   1328   1327   1330   1339     1  0.0000000  0.6508444  3
   1328   1327   1330   1331     1  0.0000000  0.6508444  3
   1328   1327   1330   1332     1  0.0000000  0.6508444  3
   1329   1327   1320   1349     1  0.0000000  0.6508444  3
   1329   1327   1330   1339     1  0.0000000  0.6508444  3
   1329   1327   1330   1331     1  0.0000000  0.6508444  3
   1329   1327   1330   1332     1  0.0000000  0.6508444  3
   1330   1327   1320   1349     1  0.0000000  0.6508444  3
   1331   1330   1339   1348     1  0.0000000  1.0460000  1
   1331   1330   1339   1348     1  0.0000000  0.0000000  3
   1331   1330   1339   1340     1  0.0000000  0.6508444  3
   1331   1330   1339   1341     1  0.0000000  0.6508444  3
   1332   1330   1339   1348     1  0.0000000  1.0460000  1
   1332   1330   1339   1348     1  0.0000000  0.0000000  3
   1332   1330   1339   1340     1  0.0000000  0.6508444  3
   1332   1330   1339   1341     1  0.0000000  0.6508444  3
   1333   1321   1320   1349     1  0.0000000  0.6508444  3
   1334   1333   1345   2818     1  0.0000000  1.0460000  1
   1334   1333   1345   2818     1  0.0000000  0.0000000  3
   1334   1333   1345   1346     1  0.0000000  0.6508444  3
   1334   1333   1345   1347     1  0.0000000  0.6508444  3
   1335   1333   1345   2818     1  0.0000000  1.0460000  1
   1335   1333   1345   2818     1  0.0000000  0.0000000  3
   1335   1333   1345   1346     1  0.0000000  0.6508444  3
   1335   1333   1345   1347     1  0.0000000  0.6508444  3
   1336   1324   1320   1349     1  0.0000000  0.6508444  3
   1337   1336   1342   2786     1  0.0000000  1.0460000  1
   1337   1336   1342   2786     1  0.0000000  0.0000000  3
   1337   1336   1342   1343     1  0.0000000  0.6508444  3
   1337   1336   1342   1344     1  0.0000000  0.6508444  3
   1338   1336   1342   2786     1  0.0000000  1.0460000  1
   1338   1336   1342   2786     1  0.0000000  0.0000000  3
   1338   1336   1342   1343     1  0.0000000  0.6508444  3
   1338   1336   1342   1344     1  0.0000000  0.6508444  3
   1342   2786   2756   2757     1  0.0000000  1.6038667  3
   1342   2786   2756   2758     1  0.0000000  1.6038667  3
   1343   1342   2786   2756     1  0.0000000  1.6038667  3
   1344   1342   2786   2756     1  0.0000000  1.6038667  3
   1345   2818   2788   2789     1  0.0000000  1.6038667  3
   1345   2818   2788   2790     1  0.0000000  1.6038667  3
   1346   1345   2818   2788     1  0.0000000  1.6038667  3
   1347   1345   2818   2788     1  0.0000000  1.6038667  3
   1350   1351   1363   1364     1  0.0000000  0.6508444  3
   1350   1351   1363   1365     1  0.0000000  0.6508444  3
   1350   1354   1366   1367     1  0.0000000  0.6508444  3
   1350   1354   1366   1368     1  0.0000000  0.6508444  3
   1350   1357   1360   1361     1  0.0000000  0.6508444  3
   1350   1357   1360   1362     1  0.0000000  0.6508444  3
   1351   1350   1354   1355     1  0.0000000  0.6508444  3
   1351   1350   1354   1356     1  0.0000000  0.6508444  3
   1351   1350   1357   1358     1  0.0000000  0.6508444  3
   1351   1350   1357   1359     1  0.0000000  0.6508444  3
   1351   1363   1375   1376     1  0.0000000  0.6508444  3
   1351   1363   1375   1377     1  0.0000000  0.6508444  3
   1352   1351   1350   1354     1  0.0000000  0.6508444  3
   1352   1351   1350   1357     1  0.0000000  0.6508444  3
   1352   1351   1350   1379     1  0.0000000  0.6508444  3
   1352   1351   1363   1375     1  0.0000000  0.6508444  3
   1352   1351   1363   1364     1  0.0000000  0.6508444  3
   1352   1351   1363   1365     1  0.0000000  0.6508444  3
   1353   1351   1350   1354     1  0.0000000  0.6508444  3
   1353   1351   1350   1357     1  0.0000000  0.6508444  3
   1353   1351   1350   1379     1  0.0000000  0.6508444  3
   1353   1351   1363   1375     1  0.0000000  0.6508444  3
   1353   1351   1363   1364     1  0.0000000  0.6508444  3
   1353   1351   1363   1365     1  0.0000000  0.6508444  3
   1354   1350   1357   1358     1  0.0000000  0.6508444  3
   1354   1350   1357   1359     1  0.0000000  0.6508444  3
   1354   1366   1372   1373     1  0.0000000  0.6508444  3
   1354   1366   1372   1374     1  0.0000000  0.6508444  3
   1355   1354   1350   1357     1  0.0000000  0.6508444  3
   1355   1354   1350   1379     1  0.0000000  0.6508444  3
   1355   1354   1366   1372     1  0.0000000  0.6508444  3
   1355   1354   1366   1367     1  0.0000000  0.6508444  3
   1355   1354   1366   1368     1  0.0000000  0.6508444  3
   1356   1354   1350   1357     1  0.0000000  0.6508444  3
   1356   1354   1350   1379     1  0.0000000  0.6508444  3
   1356   1354   1366   1372     1  0.0000000  0.6508444  3
   1356   1354   1366   1367     1  0.0000000  0.6508444  3
   1356   1354   1366   1368     1  0.0000000  0.6508444  3
   1357   1360   1369   1370     1  0.0000000  0.6508444  3
   1357   1360   1369   1371     1  0.0000000  0.6508444  3
   1358   1357   1350   1379     1  0.0000000  0.6508444  3
   1358   1357   1360   1369     1  0.0000000  0.6508444  3
   1358   1357   1360   1361     1  0.0000000  0.6508444  3
   1358   1357   1360   1362     1  0.0000000  0.6508444  3
   1359   1357   1350   1379     1  0.0000000  0.6508444  3
   1359   1357   1360   1369     1  0.0000000  0.6508444  3
   1359   1357   1360   1361     1  0.0000000  0.6508444  3
   1359   1357   1360   1362     1  0.0000000  0.6508444  3
   1360   1357   1350   1379     1  0.0000000  0.6508444  3
   1361   1360   1369   1378     1  0.0000000  1.0460000  1
   1361   1360   1369   1378     1  0.0000000  0.0000000  3
   1361   1360   1369   1370     1  0.0000000  0.6508444  3
   1361   1360   1369   1371     1  0.0000000  0.6508444  3
   1362   1360   1369   1378     1  0.0000000  1.0460000  1
   1362   1360   1369   1378     1  0.0000000  0.0000000  3
   1362   1360   1369   1370     1  0.0000000  0.6508444  3
   1362   1360   1369   1371     1  0.0000000  0.6508444  3
   1363   1351   1350   1379     1  0.0000000  0.6508444  3
   1364   1363   1375   2882     1  0.0000000  1.0460000  1
   1364   1363   1375   2882     1  0.0000000  0.0000000  3
   1364   1363   1375   1376     1  0.0000000  0.6508444  3
   1364   1363   1375   1377     1  0.0000000  0.6508444  3
   1365   1363   1375   2882     1  0.0000000  1.0460000  1
   1365   1363   1375   2882     1  0.0000000  0.0000000  3
   1365   1363   1375   1376     1  0.0000000  0.6508444  3
   1365   1363   1375   1377     1  0.0000000  0.6508444  3
   1366   1354   1350   1379     1  0.0000000  0.6508444  3
   1367   1366   1372   2850     1  0.0000000  1.0460000  1
   1367   1366   1372   2850     1  0.0000000  0.0000000  3
   1367   1366   1372   1373     1  0.0000000  0.6508444  3
   1367   1366   1372   1374     1  0.0000000  0.6508444  3
   1368   1366   1372   2850     1  0.0000000  1.0460000  1
   1368   1366   1372   2850     1  0.0000000  0.0000000  3
   1368   1366   1372   1373     1  0.0000000  0.6508444  3
   1368   1366   1372   1374     1  0.0000000  0.6508444  3
   1372   2850   2820   2821     1  0.0000000  1.6038667  3
   1372   2850   2820   2822     1  0.0000000  1.6038667  3
   1373   1372   2850   2820     1  0.0000000  1.6038667  3
   1374   1372   2850   2820     1  0.0000000  1.6038667  3
   1375   2882   2852   2853     1  0.0000000  1.6038667  3
   1375   2882   2852   2854     1  0.0000000  1.6038667  3
   1376   1375   2882   2852     1  0.0000000  1.6038667  3
   1377   1375   2882   2852     1  0.0000000  1.6038667  3
   1380   1381   1393   1394     1  0.0000000  0.6508444  3
   1380   1381   1393   1395     1  0.0000000  0.6508444  3
   1380   1384   1396   1397     1  0.0000000  0.6508444  3
   1380   1384   1396   1398     1  0.0000000  0.6508444  3
   1380   1387   1390   1391     1  0.0000000  0.6508444  3
   1380   1387   1390   1392     1  0.0000000  0.6508444  3
   1381   1380   1384   1385     1  0.0000000  0.6508444  3
   1381   1380   1384   1386     1  0.0000000  0.6508444  3
   1381   1380   1387   1388     1  0.0000000  0.6508444  3
   1381   1380   1387   1389     1  0.0000000  0.6508444  3
   1381   1393   1405   1406     1  0.0000000  0.6508444  3
   1381   1393   1405   1407     1  0.0000000  0.6508444  3
   1382   1381   1380   1384     1  0.0000000  0.6508444  3
   1382   1381   1380   1387     1  0.0000000  0.6508444  3
   1382   1381   1380   1409     1  0.0000000  0.6508444  3
   1382   1381   1393   1405     1  0.0000000  0.6508444  3
   1382   1381   1393   1394     1  0.0000000  0.6508444  3
   1382   1381   1393   1395     1  0.0000000  0.6508444  3
   1383   1381   1380   1384     1  0.0000000  0.6508444  3
   1383   1381   1380   1387     1  0.0000000  0.6508444  3
   1383   1381   1380   1409     1  0.0000000  0.6508444  3
   1383   1381   1393   1405     1  0.0000000  0.6508444  3
   1383   1381   1393   1394     1  0.0000000  0.6508444  3
   1383   1381   1393   1395     1  0.0000000  0.6508444  3
   1384   1380   1387   1388     1  0.0000000  0.6508444  3
   1384   1380   1387   1389     1  0.0000000  0.6508444  3
   1384   1396   1402   1403     1  0.0000000  0.6508444  3
   1384   1396   1402   1404     1  0.0000000  0.6508444  3
   1385   1384   1380   1387     1  0.0000000  0.6508444  3
   1385   1384   1380   1409     1  0.0000000  0.6508444  3
   1385   1384   1396   1402     1  0.0000000  0.6508444  3
   1385   1384   1396   1397     1  0.0000000  0.6508444  3
   1385   1384   1396   1398     1  0.0000000  0.6508444  3
   1386   1384   1380   1387     1  0.0000000  0.6508444  3
   1386   1384   1380   1409     1  0.0000000  0.6508444  3
   1386   1384   1396   1402     1  0.0000000  0.6508444  3
   1386   1384   1396   1397     1  0.0000000  0.6508444  3
   1386   1384   1396   1398     1  0.0000000  0.6508444  3
   1387   1390   1399   1400     1  0.0000000  0.6508444  3
   1387   1390   1399   1401     1  0.0000000  0.6508444  3
   1388   1387   1380   1409     1  0.0000000  0.6508444  3
   1388   1387   1390   1399     1  0.0000000  0.6508444  3
   1388   1387   1390   1391     1  0.0000000  0.6508444  3
   1388   1387   1390   1392     1  0.0000000  0.6508444  3
   1389   1387   1380   1409     1  0.0000000  0.6508444  3
   1389   1387   1390   1399     1  0.0000000  0.6508444  3
   1389   1387   1390   1391     1  0.0000000  0.6508444  3
   1389   1387   1390   1392     1  0.0000000  0.6508444  3
   1390   1387   1380   1409     1  0.0000000  0.6508444  3
   1391   1390   1399   1408     1  0.0000000  1.0460000  1
   1391   1390   1399   1408     1  0.0000000  0.0000000  3
   1391   1390   1399   1400     1  0.0000000  0.6508444  3
   1391   1390   1399   1401     1  0.0000000  0.6508444  3
   1392   1390   1399   1408     1  0.0000000  1.0460000  1
   1392   1390   1399   1408     1  0.0000000  0.0000000  3
   1392   1390   1399   1400     1  0.0000000  0.6508444  3
   1392   1390   1399   1401     1  0.0000000  0.6508444  3
   1393   1381   1380   1409     1  0.0000000  0.6508444  3
   1394   1393   1405   2946     1  0.0000000  1.0460000  1
   1394   1393   1405   2946     1  0.0000000  0.0000000  3
   1394   1393   1405   1406     1  0.0000000  0.6508444  3
   1394   1393   1405   1407     1  0.0000000  0.6508444  3
   1395   1393   1405   2946     1  0.0000000  1.0460000  1
   1395   1393   1405   2946     1  0.0000000  0.0000000  3
   1395   1393   1405   1406     1  0.0000000  0.6508444  3
   1395   1393   1405   1407     1  0.0000000  0.6508444  3
   1396   1384   1380   1409     1  0.0000000  0.6508444  3
   1397   1396   1402   2914     1  0.0000000  1.0460000  1
   1397   1396   1402   2914     1  0.0000000  0.0000000  3
   1397   1396   1402   1403     1  0.0000000  0.6508444  3
   1397   1396   1402   1404     1  0.0000000  0.6508444  3
   1398   1396   1402   2914     1  0.0000000  1.0460000  1
   1398   1396   1402   2914     1  0.0000000  0.0000000  3
   1398   1396   1402   1403     1  0.0000000  0.6508444  3
   1398   1396   1402   1404     1  0.0000000  0.6508444  3
   1402   2914   2884   2885     1  0.0000000  1.6038667  3
   1402   2914   2884   2886     1  0.0000000  1.6038667  3
   1403   1402   2914   2884     1  0.0000000  1.6038667  3
   1404   1402   2914   2884     1  0.0000000  1.6038667  3
   1405   2946   2916   2917     1  0.0000000  1.6038667  3
   1405   2946   2916   2918     1  0.0000000  1.6038667  3
   1406   1405   2946   2916     1  0.0000000  1.6038667  3
   1407   1405   2946   2916     1  0.0000000  1.6038667  3
   1410   1411   1423   1424     1  0.0000000  0.6508444  3
   1410   1411   1423   1425     1  0.0000000  0.6508444  3
   1410   1414   1426   1427     1  0.0000000  0.6508444  3
   1410   1414   1426   1428     1  0.0000000  0.6508444  3
   1410   1417   1420   1421     1  0.0000000  0.6508444  3
   1410   1417   1420   1422     1  0.0000000  0.6508444  3
   1411   1410   1414   1415     1  0.0000000  0.6508444  3
   1411   1410   1414   1416     1  0.0000000  0.6508444  3
   1411   1410   1417   1418     1  0.0000000  0.6508444  3
   1411   1410   1417   1419     1  0.0000000  0.6508444  3
   1411   1423   1435   1436     1  0.0000000  0.6508444  3
   1411   1423   1435   1437     1  0.0000000  0.6508444  3
   1412   1411   1410   1414     1  0.0000000  0.6508444  3
   1412   1411   1410   1417     1  0.0000000  0.6508444  3
   1412   1411   1410   1439     1  0.0000000  0.6508444  3
   1412   1411   1423   1435     1  0.0000000  0.6508444  3
   1412   1411   1423   1424     1  0.0000000  0.6508444  3
   1412   1411   1423   1425     1  0.0000000  0.6508444  3
   1413   1411   1410   1414     1  0.0000000  0.6508444  3
   1413   1411   1410   1417     1  0.0000000  0.6508444  3
   1413   1411   1410   1439     1  0.0000000  0.6508444  3
   1413   1411   1423   1435     1  0.0000000  0.6508444  3
   1413   1411   1423   1424     1  0.0000000  0.6508444  3
   1413   1411   1423   1425     1  0.0000000  0.6508444  3
   1414   1410   1417   1418     1  0.0000000  0.6508444  3
   1414   1410   1417   1419     1  0.0000000  0.6508444  3
   1414   1426   1432   1433     1  0.0000000  0.6508444  3
   1414   1426   1432   1434     1  0.0000000  0.6508444  3
   1415   1414   1410   1417     1  0.0000000  0.6508444  3
   1415   1414   1410   1439     1  0.0000000  0.6508444  3
   1415   1414   1426   1432     1  0.0000000  0.6508444  3
   1415   1414   1426   1427     1  0.0000000  0.6508444  3
   1415   1414   1426   1428     1  0.0000000  0.6508444  3
   1416   1414   1410   1417     1  0.0000000  0.6508444  3
   1416   1414   1410   1439     1  0.0000000  0.6508444  3
   1416   1414   1426   1432     1  0.0000000  0.6508444  3
   1416   1414   1426   1427     1  0.0000000  0.6508444  3
   1416   1414   1426   1428     1  0.0000000  0.6508444  3
   1417   1420   1429   1430     1  0.0000000  0.6508444  3
   1417   1420   1429   1431     1  0.0000000  0.6508444  3
   1418   1417   1410   1439     1  0.0000000  0.6508444  3
   1418   1417   1420   1429     1  0.0000000  0.6508444  3
   1418   1417   1420   1421     1  0.0000000  0.6508444  3
   1418   1417   1420   1422     1  0.0000000  0.6508444  3
   1419   1417   1410   1439     1  0.0000000  0.6508444  3
   1419   1417   1420   1429     1  0.0000000  0.6508444  3
   1419   1417   1420   1421     1  0.0000000  0.6508444  3
   1419   1417   1420   1422     1  0.0000000  0.6508444  3
   1420   1417   1410   1439     1  0.0000000  0.6508444  3
   1421   1420   1429   1438     1  0.0000000  1.0460000  1
   1421   1420   1429   1438     1  0.0000000  0.0000000  3
   1421   1420   1429   1430     1  0.0000000  0.6508444  3
   1421   1420   1429   1431     1  0.0000000  0.6508444  3
   1422   1420   1429   1438     1  0.0000000  1.0460000  1
   1422   1420   1429   1438     1  0.0000000  0.0000000  3
   1422   1420   1429   1430     1  0.0000000  0.6508444  3
   1422   1420   1429   1431     1  0.0000000  0.6508444  3
   1423   1411   1410   1439     1  0.0000000  0.6508444  3
   1424   1423   1435   3010     1  0.0000000  1.0460000  1
   1424   1423   1435   3010     1  0.0000000  0.0000000  3
   1424   1423   1435   1436     1  0.0000000  0.6508444  3
   1424   1423   1435   1437     1  0.0000000  0.6508444  3
   1425   1423   1435   3010     1  0.0000000  1.0460000  1
   1425   1423   1435   3010     1  0.0000000  0.0000000  3
   1425   1423   1435   1436     1  0.0000000  0.6508444  3
   1425   1423   1435   1437     1  0.0000000  0.6508444  3
   1426   1414   1410   1439     1  0.0000000  0.6508444  3
   1427   1426   1432   2978     1  0.0000000  1.0460000  1
   1427   1426   1432   2978     1  0.0000000  0.0000000  3
   1427   1426   1432   1433     1  0.0000000  0.6508444  3
   1427   1426   1432   1434     1  0.0000000  0.6508444  3
   1428   1426   1432   2978     1  0.0000000  1.0460000  1
   1428   1426   1432   2978     1  0.0000000  0.0000000  3
   1428   1426   1432   1433     1  0.0000000  0.6508444  3
   1428   1426   1432   1434     1  0.0000000  0.6508444  3
   1432   2978   2948   2949     1  0.0000000  1.6038667  3
   1432   2978   2948   2950     1  0.0000000  1.6038667  3
   1433   1432   2978   2948     1  0.0000000  1.6038667  3
   1434   1432   2978   2948     1  0.0000000  1.6038667  3
   1435   3010   2980   2981     1  0.0000000  1.6038667  3
   1435   3010   2980   2982     1  0.0000000  1.6038667  3
   1436   1435   3010   2980     1  0.0000000  1.6038667  3
   1437   1435   3010   2980     1  0.0000000  1.6038667  3
   1440   1441   1453   1454     1  0.0000000  0.6508444  3
   1440   1441   1453   1455     1  0.0000000  0.6508444  3
   1440   1444   1456   1457     1  0.0000000  0.6508444  3
   1440   1444   1456   1458     1  0.0000000  0.6508444  3
   1440   1447   1450   1451     1  0.0000000  0.6508444  3
   1440   1447   1450   1452     1  0.0000000  0.6508444  3
   1441   1440   1444   1445     1  0.0000000  0.6508444  3
   1441   1440   1444   1446     1  0.0000000  0.6508444  3
   1441   1440   1447   1448     1  0.0000000  0.6508444  3
   1441   1440   1447   1449     1  0.0000000  0.6508444  3
   1441   1453   1465   1466     1  0.0000000  0.6508444  3
   1441   1453   1465   1467     1  0.0000000  0.6508444  3
   1442   1441   1440   1444     1  0.0000000  0.6508444  3
   1442   1441   1440   1447     1  0.0000000  0.6508444  3
   1442   1441   1440   1469     1  0.0000000  0.6508444  3
   1442   1441   1453   1465     1  0.0000000  0.6508444  3
   1442   1441   1453   1454     1  0.0000000  0.6508444  3
   1442   1441   1453   1455     1  0.0000000  0.6508444  3
   1443   1441   1440   1444     1  0.0000000  0.6508444  3
   1443   1441   1440   1447     1  0.0000000  0.6508444  3
   1443   1441   1440   1469     1  0.0000000  0.6508444  3
   1443   1441   1453   1465     1  0.0000000  0.6508444  3
   1443   1441   1453   1454     1  0.0000000  0.6508444  3
   1443   1441   1453   1455     1  0.0000000  0.6508444  3
   1444   1440   1447   1448     1  0.0000000  0.6508444  3
   1444   1440   1447   1449     1  0.0000000  0.6508444  3
   1444   1456   1462   1463     1  0.0000000  0.6508444  3
   1444   1456   1462   1464     1  0.0000000  0.6508444  3
   1445   1444   1440   1447     1  0.0000000  0.6508444  3
   1445   1444   1440   1469     1  0.0000000  0.6508444  3
   1445   1444   1456   1462     1  0.0000000  0.6508444  3
   1445   1444   1456   1457     1  0.0000000  0.6508444  3
   1445   1444   1456   1458     1  0.0000000  0.6508444  3
   1446   1444   1440   1447     1  0.0000000  0.6508444  3
   1446   1444   1440   1469     1  0.0000000  0.6508444  3
   1446   1444   1456   1462     1  0.0000000  0.6508444  3
   1446   1444   1456   1457     1  0.0000000  0.6508444  3
   1446   1444   1456   1458     1  0.0000000  0.6508444  3
   1447   1450   1459   1460     1  0.0000000  0.6508444  3
   1447   1450   1459   1461     1  0.0000000  0.6508444  3
   1448   1447   1440   1469     1  0.0000000  0.6508444  3
   1448   1447   1450   1459     1  0.0000000  0.6508444  3
   1448   1447   1450   1451     1  0.0000000  0.6508444  3
   1448   1447   1450   1452     1  0.0000000  0.6508444  3
   1449   1447   1440   1469     1  0.0000000  0.6508444  3
   1449   1447   1450   1459     1  0.0000000  0.6508444  3
   1449   1447   1450   1451     1  0.0000000  0.6508444  3
   1449   1447   1450   1452     1  0.0000000  0.6508444  3
   1450   1447   1440   1469     1  0.0000000  0.6508444  3
   1451   1450   1459   1468     1  0.0000000  1.0460000  1
   1451   1450   1459   1468     1  0.0000000  0.0000000  3
   1451   1450   1459   1460     1  0.0000000  0.6508444  3
   1451   1450   1459   1461     1  0.0000000  0.6508444  3
   1452   1450   1459   1468     1  0.0000000  1.0460000  1
   1452   1450   1459   1468     1  0.0000000  0.0000000  3
   1452   1450   1459   1460     1  0.0000000  0.6508444  3
   1452   1450   1459   1461     1  0.0000000  0.6508444  3
   1453   1441   1440   1469     1  0.0000000  0.6508444  3
   1454   1453   1465   3074     1  0.0000000  1.0460000  1
   1454   1453   1465   3074     1  0.0000000  0.0000000  3
   1454   1453   1465   1466     1  0.0000000  0.6508444  3
   1454   1453   1465   1467     1  0.0000000  0.6508444  3
   1455   1453   1465   3074     1  0.0000000  1.0460000  1
   1455   1453   1465   3074     1  0.0000000  0.0000000  3
   1455   1453   1465   1466     1  0.0000000  0.6508444  3
   1455   1453   1465   1467     1  0.0000000  0.6508444  3
   1456   1444   1440   1469     1  0.0000000  0.6508444  3
   1457   1456   1462   3042     1  0.0000000  1.0460000  1
   1457   1456   1462   3042     1  0.0000000  0.0000000  3
   1457   1456   1462   1463     1  0.0000000  0.6508444  3
   1457   1456   1462   1464     1  0.0000000  0.6508444  3
   1458   1456   1462   3042     1  0.0000000  1.0460000  1
   1458   1456   1462   3042     1  0.0000000  0.0000000  3
   1458   1456   1462   1463     1  0.0000000  0.6508444  3
   1458   1456   1462   1464     1  0.0000000  0.6508444  3
   1462   3042   3012   3013     1  0.0000000  1.6038667  3
   1462   3042   3012   3014     1  0.0000000  1.6038667  3
   1463   1462   3042   3012     1  0.0000000  1.6038667  3
   1464   1462   3042   3012     1  0.0000000  1.6038667  3
   1465   3074   3044   3045     1  0.0000000  1.6038667  3
   1465   3074   3044   3046     1  0.0000000  1.6038667  3
   1466   1465   3074   3044     1  0.0000000  1.6038667  3
   1467   1465   3074   3044     1  0.0000000  1.6038667  3
   1470   1471   1483   1484     1  0.0000000  0.6508444  3
   1470   1471   1483   1485     1  0.0000000  0.6508444  3
   1470   1474   1486   1487     1  0.0000000  0.6508444  3
   1470   1474   1486   1488     1  0.0000000  0.6508444  3
   1470   1477   1480   1481     1  0.0000000  0.6508444  3
   1470   1477   1480   1482     1  0.0000000  0.6508444  3
   1471   1470   1474   1475     1  0.0000000  0.6508444  3
   1471   1470   1474   1476     1  0.0000000  0.6508444  3
   1471   1470   1477   1478     1  0.0000000  0.6508444  3
   1471   1470   1477   1479     1  0.0000000  0.6508444  3
   1471   1483   1495   1496     1  0.0000000  0.6508444  3
   1471   1483   1495   1497     1  0.0000000  0.6508444  3
   1472   1471   1470   1474     1  0.0000000  0.6508444  3
   1472   1471   1470   1477     1  0.0000000  0.6508444  3
   1472   1471   1470   1499     1  0.0000000  0.6508444  3
   1472   1471   1483   1495     1  0.0000000  0.6508444  3
   1472   1471   1483   1484     1  0.0000000  0.6508444  3
   1472   1471   1483   1485     1  0.0000000  0.6508444  3
   1473   1471   1470   1474     1  0.0000000  0.6508444  3
   1473   1471   1470   1477     1  0.0000000  0.6508444  3
   1473   1471   1470   1499     1  0.0000000  0.6508444  3
   1473   1471   1483   1495     1  0.0000000  0.6508444  3
   1473   1471   1483   1484     1  0.0000000  0.6508444  3
   1473   1471   1483   1485     1  0.0000000  0.6508444  3
   1474   1470   1477   1478     1  0.0000000  0.6508444  3
   1474   1470   1477   1479     1  0.0000000  0.6508444  3
   1474   1486   1492   1493     1  0.0000000  0.6508444  3
   1474   1486   1492   1494     1  0.0000000  0.6508444  3
   1475   1474   1470   1477     1  0.0000000  0.6508444  3
   1475   1474   1470   1499     1  0.0000000  0.6508444  3
   1475   1474   1486   1492     1  0.0000000  0.6508444  3
   1475   1474   1486   1487     1  0.0000000  0.6508444  3
   1475   1474   1486   1488     1  0.0000000  0.6508444  3
   1476   1474   1470   1477     1  0.0000000  0.6508444  3
   1476   1474   1470   1499     1  0.0000000  0.6508444  3
   1476   1474   1486   1492     1  0.0000000  0.6508444  3
   1476   1474   1486   1487     1  0.0000000  0.6508444  3
   1476   1474   1486   1488     1  0.0000000  0.6508444  3
   1477   1480   1489   1490     1  0.0000000  0.6508444  3
   1477   1480   1489   1491     1  0.0000000  0.6508444  3
   1478   1477   1470   1499     1  0.0000000  0.6508444  3
   1478   1477   1480   1489     1  0.0000000  0.6508444  3
   1478   1477   1480   1481     1  0.0000000  0.6508444  3
   1478   1477   1480   1482     1  0.0000000  0.6508444  3
   1479   1477   1470   1499     1  0.0000000  0.6508444  3
   1479   1477   1480   1489     1  0.0000000  0.6508444  3
   1479   1477   1480   1481     1  0.0000000  0.6508444  3
   1479   1477   1480   1482     1  0.0000000  0.6508444  3
   1480   1477   1470   1499     1  0.0000000  0.6508444  3
   1481   1480   1489   1498     1  0.0000000  1.0460000  1
   1481   1480   1489   1498     1  0.0000000  0.0000000  3
   1481   1480   1489   1490     1  0.0000000  0.6508444  3
   1481   1480   1489   1491     1  0.0000000  0.6508444  3
   1482   1480   1489   1498     1  0.0000000  1.0460000  1
   1482   1480   1489   1498     1  0.0000000  0.0000000  3
   1482   1480   1489   1490     1  0.0000000  0.6508444  3
   1482   1480   1489   1491     1  0.0000000  0.6508444  3
   1483   1471   1470   1499     1  0.0000000  0.6508444  3
   1484   1483   1495   3138     1  0.0000000  1.0460000  1
   1484   1483   1495   3138     1  0.0000000  0.0000000  3
   1484   1483   1495   1496     1  0.0000000  0.6508444  3
   1484   1483   1495   1497     1  0.0000000  0.6508444  3
   1485   1483   1495   3138     1  0.0000000  1.0460000  1
   1485   1483   1495   3138     1  0.0000000  0.0000000  3
   1485   1483   1495   1496     1  0.0000000  0.6508444  3
   1485   1483   1495   1497     1  0.0000000  0.6508444  3
   1486   1474   1470   1499     1  0.0000000  0.6508444  3
   1487   1486   1492   3106     1  0.0000000  1.0460000  1
   1487   1486   1492   3106     1  0.0000000  0.0000000  3
   1487   1486   1492   1493     1  0.0000000  0.6508444  3
   1487   1486   1492   1494     1  0.0000000  0.6508444  3
   1488   1486   1492   3106     1  0.0000000  1.0460000  1
   1488   1486   1492   3106     1  0.0000000  0.0000000  3
   1488   1486   1492   1493     1  0.0000000  0.6508444  3
   1488   1486   1492   1494     1  0.0000000  0.6508444  3
   1492   3106   3076   3077     1  0.0000000  1.6038667  3
   1492   3106   3076   3078     1  0.0000000  1.6038667  3
   1493   1492   3106   3076     1  0.0000000  1.6038667  3
   1494   1492   3106   3076     1  0.0000000  1.6038667  3
   1495   3138   3108   3109     1  0.0000000  1.6038667  3
   1495   3138   3108   3110     1  0.0000000  1.6038667  3
   1496   1495   3138   3108     1  0.0000000  1.6038667  3
   1497   1495   3138   3108     1  0.0000000  1.6038667  3
   1500   1501   1513   1514     1  0.0000000  0.6508444  3
   1500   1501   1513   1515     1  0.0000000  0.6508444  3
   1500   1504   1516   1517     1  0.0000000  0.6508444  3
   1500   1504   1516   1518     1  0.0000000  0.6508444  3
   1500   1507   1510   1511     1  0.0000000  0.6508444  3
   1500   1507   1510   1512     1  0.0000000  0.6508444  3
   1501   1500   1504   1505     1  0.0000000  0.6508444  3
   1501   1500   1504   1506     1  0.0000000  0.6508444  3
   1501   1500   1507   1508     1  0.0000000  0.6508444  3
   1501   1500   1507   1509     1  0.0000000  0.6508444  3
   1501   1513   1525   1526     1  0.0000000  0.6508444  3
   1501   1513   1525   1527     1  0.0000000  0.6508444  3
   1502   1501   1500   1504     1  0.0000000  0.6508444  3
   1502   1501   1500   1507     1  0.0000000  0.6508444  3
   1502   1501   1500   1529     1  0.0000000  0.6508444  3
   1502   1501   1513   1525     1  0.0000000  0.6508444  3
   1502   1501   1513   1514     1  0.0000000  0.6508444  3
   1502   1501   1513   1515     1  0.0000000  0.6508444  3
   1503   1501   1500   1504     1  0.0000000  0.6508444  3
   1503   1501   1500   1507     1  0.0000000  0.6508444  3
   1503   1501   1500   1529     1  0.0000000  0.6508444  3
   1503   1501   1513   1525     1  0.0000000  0.6508444  3
   1503   1501   1513   1514     1  0.0000000  0.6508444  3
   1503   1501   1513   1515     1  0.0000000  0.6508444  3
   1504   1500   1507   1508     1  0.0000000  0.6508444  3
   1504   1500   1507   1509     1  0.0000000  0.6508444  3
   1504   1516   1522   1523     1  0.0000000  0.6508444  3
   1504   1516   1522   1524     1  0.0000000  0.6508444  3
   1505   1504   1500   1507     1  0.0000000  0.6508444  3
   1505   1504   1500   1529     1  0.0000000  0.6508444  3
   1505   1504   1516   1522     1  0.0000000  0.6508444  3
   1505   1504   1516   1517     1  0.0000000  0.6508444  3
   1505   1504   1516   1518     1  0.0000000  0.6508444  3
   1506   1504   1500   1507     1  0.0000000  0.6508444  3
   1506   1504   1500   1529     1  0.0000000  0.6508444  3
   1506   1504   1516   1522     1  0.0000000  0.6508444  3
   1506   1504   1516   1517     1  0.0000000  0.6508444  3
   1506   1504   1516   1518     1  0.0000000  0.6508444  3
   1507   1510   1519   1520     1  0.0000000  0.6508444  3
   1507   1510   1519   1521     1  0.0000000  0.6508444  3
   1508   1507   1500   1529     1  0.0000000  0.6508444  3
   1508   1507   1510   1519     1  0.0000000  0.6508444  3
   1508   1507   1510   1511     1  0.0000000  0.6508444  3
   1508   1507   1510   1512     1  0.0000000  0.6508444  3
   1509   1507   1500   1529     1  0.0000000  0.6508444  3
   1509   1507   1510   1519     1  0.0000000  0.6508444  3
   1509   1507   1510   1511     1  0.0000000  0.6508444  3
   1509   1507   1510   1512     1  0.0000000  0.6508444  3
   1510   1507   1500   1529     1  0.0000000  0.6508444  3
   1511   1510   1519   1528     1  0.0000000  1.0460000  1
   1511   1510   1519   1528     1  0.0000000  0.0000000  3
   1511   1510   1519   1520     1  0.0000000  0.6508444  3
   1511   1510   1519   1521     1  0.0000000  0.6508444  3
   1512   1510   1519   1528     1  0.0000000  1.0460000  1
   1512   1510   1519   1528     1  0.0000000  0.0000000  3
   1512   1510   1519   1520     1  0.0000000  0.6508444  3
   1512   1510   1519   1521     1  0.0000000  0.6508444  3
   1513   1501   1500   1529     1  0.0000000  0.6508444  3
   1514   1513   1525   3202     1  0.0000000  1.0460000  1
   1514   1513   1525   3202     1  0.0000000  0.0000000  3
   1514   1513   1525   1526     1  0.0000000  0.6508444  3
   1514   1513   1525   1527     1  0.0000000  0.6508444  3
   1515   1513   1525   3202     1  0.0000000  1.0460000  1
   1515   1513   1525   3202     1  0.0000000  0.0000000  3
   1515   1513   1525   1526     1  0.0000000  0.6508444  3
   1515   1513   1525   1527     1  0.0000000  0.6508444  3
   1516   1504   1500   1529     1  0.0000000  0.6508444  3
   1517   1516   1522   3170     1  0.0000000  1.0460000  1
   1517   1516   1522   3170     1  0.0000000  0.0000000  3
   1517   1516   1522   1523     1  0.0000000  0.6508444  3
   1517   1516   1522   1524     1  0.0000000  0.6508444  3
   1518   1516   1522   3170     1  0.0000000  1.0460000  1
   1518   1516   1522   3170     1  0.0000000  0.0000000  3
   1518   1516   1522   1523     1  0.0000000  0.6508444  3
   1518   1516   1522   1524     1  0.0000000  0.6508444  3
   1522   3170   3140   3141     1  0.0000000  1.6038667  3
   1522   3170   3140   3142     1  0.0000000  1.6038667  3
   1523   1522   3170   3140     1  0.0000000  1.6038667  3
   1524   1522   3170   3140     1  0.0000000  1.6038667  3
   1525   3202   3172   3173     1  0.0000000  1.6038667  3
   1525   3202   3172   3174     1  0.0000000  1.6038667  3
   1526   1525   3202   3172     1  0.0000000  1.6038667  3
   1527   1525   3202   3172     1  0.0000000  1.6038667  3
   1530   1531   1543   1544     1  0.0000000  0.6508444  3
   1530   1531   1543   1545     1  0.0000000  0.6508444  3
   1530   1534   1546   1547     1  0.0000000  0.6508444  3
   1530   1534   1546   1548     1  0.0000000  0.6508444  3
   1530   1537   1540   1541     1  0.0000000  0.6508444  3
   1530   1537   1540   1542     1  0.0000000  0.6508444  3
   1531   1530   1534   1535     1  0.0000000  0.6508444  3
   1531   1530   1534   1536     1  0.0000000  0.6508444  3
   1531   1530   1537   1538     1  0.0000000  0.6508444  3
   1531   1530   1537   1539     1  0.0000000  0.6508444  3
   1531   1543   1555   1556     1  0.0000000  0.6508444  3
   1531   1543   1555   1557     1  0.0000000  0.6508444  3
   1532   1531   1530   1534     1  0.0000000  0.6508444  3
   1532   1531   1530   1537     1  0.0000000  0.6508444  3
   1532   1531   1530   1559     1  0.0000000  0.6508444  3
   1532   1531   1543   1555     1  0.0000000  0.6508444  3
   1532   1531   1543   1544     1  0.0000000  0.6508444  3
   1532   1531   1543   1545     1  0.0000000  0.6508444  3
   1533   1531   1530   1534     1  0.0000000  0.6508444  3
   1533   1531   1530   1537     1  0.0000000  0.6508444  3
   1533   1531   1530   1559     1  0.0000000  0.6508444  3
   1533   1531   1543   1555     1  0.0000000  0.6508444  3
   1533   1531   1543   1544     1  0.0000000  0.6508444  3
   1533   1531   1543   1545     1  0.0000000  0.6508444  3
   1534   1530   1537   1538     1  0.0000000  0.6508444  3
   1534   1530   1537   1539     1  0.0000000  0.6508444  3
   1534   1546   1552   1553     1  0.0000000  0.6508444  3
   1534   1546   1552   1554     1  0.0000000  0.6508444  3
   1535   1534   1530   1537     1  0.0000000  0.6508444  3
   1535   1534   1530   1559     1  0.0000000  0.6508444  3
   1535   1534   1546   1552     1  0.0000000  0.6508444  3
   1535   1534   1546   1547     1  0.0000000  0.6508444  3
   1535   1534   1546   1548     1  0.0000000  0.6508444  3
   1536   1534   1530   1537     1  0.0000000  0.6508444  3
   1536   1534   1530   1559     1  0.0000000  0.6508444  3
   1536   1534   1546   1552     1  0.0000000  0.6508444  3
   1536   1534   1546   1547     1  0.0000000  0.6508444  3
   1536   1534   1546   1548     1  0.0000000  0.6508444  3
   1537   1540   1549   1550     1  0.0000000  0.6508444  3
   1537   1540   1549   1551     1  0.0000000  0.6508444  3
   1538   1537   1530   1559     1  0.0000000  0.6508444  3
   1538   1537   1540   1549     1  0.0000000  0.6508444  3
   1538   1537   1540   1541     1  0.0000000  0.6508444  3
   1538   1537   1540   1542     1  0.0000000  0.6508444  3
   1539   1537   1530   1559     1  0.0000000  0.6508444  3
   1539   1537   1540   1549     1  0.0000000  0.6508444  3
   1539   1537   1540   1541     1  0.0000000  0.6508444  3
   1539   1537   1540   1542     1  0.0000000  0.6508444  3
   1540   1537   1530   1559     1  0.0000000  0.6508444  3
   1541   1540   1549   1558     1  0.0000000  1.0460000  1
   1541   1540   1549   1558     1  0.0000000  0.0000000  3
   1541   1540   1549   1550     1  0.0000000  0.6508444  3
   1541   1540   1549   1551     1  0.0000000  0.6508444  3
   1542   1540   1549   1558     1  0.0000000  1.0460000  1
   1542   1540   1549   1558     1  0.0000000  0.0000000  3
   1542   1540   1549   1550     1  0.0000000  0.6508444  3
   1542   1540   1549   1551     1  0.0000000  0.6508444  3
   1543   1531   1530   1559     1  0.0000000  0.6508444  3
   1544   1543   1555   3266     1  0.0000000  1.0460000  1
   1544   1543   1555   3266     1  0.0000000  0.0000000  3
   1544   1543   1555   1556     1  0.0000000  0.6508444  3
   1544   1543   1555   1557     1  0.0000000  0.6508444  3
   1545   1543   1555   3266     1  0.0000000  1.0460000  1
   1545   1543   1555   3266     1  0.0000000  0.0000000  3
   1545   1543   1555   1556     1  0.0000000  0.6508444  3
   1545   1543   1555   1557     1  0.0000000  0.6508444  3
   1546   1534   1530   1559     1  0.0000000  0.6508444  3
   1547   1546   1552   3234     1  0.0000000  1.0460000  1
   1547   1546   1552   3234     1  0.0000000  0.0000000  3
   1547   1546   1552   1553     1  0.0000000  0.6508444  3
   1547   1546   1552   1554     1  0.0000000  0.6508444  3
   1548   1546   1552   3234     1  0.0000000  1.0460000  1
   1548   1546   1552   3234     1  0.0000000  0.0000000  3
   1548   1546   1552   1553     1  0.0000000  0.6508444  3
   1548   1546   1552   1554     1  0.0000000  0.6508444  3
   1552   3234   3204   3205     1  0.0000000  1.6038667  3
   1552   3234   3204   3206     1  0.0000000  1.6038667  3
   1553   1552   3234   3204     1  0.0000000  1.6038667  3
   1554   1552   3234   3204     1  0.0000000  1.6038667  3
   1555   3266   3236   3237     1  0.0000000  1.6038667  3
   1555   3266   3236   3238     1  0.0000000  1.6038667  3
   1556   1555   3266   3236     1  0.0000000  1.6038667  3
   1557   1555   3266   3236     1  0.0000000  1.6038667  3
   1560   1561   1573   1574     1  0.0000000  0.6508444  3
   1560   1561   1573   1575     1  0.0000000  0.6508444  3
   1560   1564   1576   1577     1  0.0000000  0.6508444  3
   1560   1564   1576   1578     1  0.0000000  0.6508444  3
   1560   1567   1570   1571     1  0.0000000  0.6508444  3
   1560   1567   1570   1572     1  0.0000000  0.6508444  3
   1561   1560   1564   1565     1  0.0000000  0.6508444  3
   1561   1560   1564   1566     1  0.0000000  0.6508444  3
   1561   1560   1567   1568     1  0.0000000  0.6508444  3
   1561   1560   1567   1569     1  0.0000000  0.6508444  3
   1561   1573   1585   1586     1  0.0000000  0.6508444  3
   1561   1573   1585   1587     1  0.0000000  0.6508444  3
   1562   1561   1560   1564     1  0.0000000  0.6508444  3
   1562   1561   1560   1567     1  0.0000000  0.6508444  3
   1562   1561   1560   1589     1  0.0000000  0.6508444  3
   1562   1561   1573   1585     1  0.0000000  0.6508444  3
   1562   1561   1573   1574     1  0.0000000  0.6508444  3
   1562   1561   1573   1575     1  0.0000000  0.6508444  3
   1563   1561   1560   1564     1  0.0000000  0.6508444  3
   1563   1561   1560   1567     1  0.0000000  0.6508444  3
   1563   1561   1560   1589     1  0.0000000  0.6508444  3
   1563   1561   1573   1585     1  0.0000000  0.6508444  3
   1563   1561   1573   1574     1  0.0000000  0.6508444  3
   1563   1561   1573   1575     1  0.0000000  0.6508444  3
   1564   1560   1567   1568     1  0.0000000  0.6508444  3
   1564   1560   1567   1569     1  0.0000000  0.6508444  3
   1564   1576   1582   1583     1  0.0000000  0.6508444  3
   1564   1576   1582   1584     1  0.0000000  0.6508444  3
   1565   1564   1560   1567     1  0.0000000  0.6508444  3
   1565   1564   1560   1589     1  0.0000000  0.6508444  3
   1565   1564   1576   1582     1  0.0000000  0.6508444  3
   1565   1564   1576   1577     1  0.0000000  0.6508444  3
   1565   1564   1576   1578     1  0.0000000  0.6508444  3
   1566   1564   1560   1567     1  0.0000000  0.6508444  3
   1566   1564   1560   1589     1  0.0000000  0.6508444  3
   1566   1564   1576   1582     1  0.0000000  0.6508444  3
   1566   1564   1576   1577     1  0.0000000  0.6508444  3
   1566   1564   1576   1578     1  0.0000000  0.6508444  3
   1567   1570   1579   1580     1  0.0000000  0.6508444  3
   1567   1570   1579   1581     1  0.0000000  0.6508444  3
   1568   1567   1560   1589     1  0.0000000  0.6508444  3
   1568   1567   1570   1579     1  0.0000000  0.6508444  3
   1568   1567   1570   1571     1  0.0000000  0.6508444  3
   1568   1567   1570   1572     1  0.0000000  0.6508444  3
   1569   1567   1560   1589     1  0.0000000  0.6508444  3
   1569   1567   1570   1579     1  0.0000000  0.6508444  3
   1569   1567   1570   1571     1  0.0000000  0.6508444  3
   1569   1567   1570   1572     1  0.0000000  0.6508444  3
   1570   1567   1560   1589     1  0.0000000  0.6508444  3
   1571   1570   1579   1588     1  0.0000000  1.0460000  1
   1571   1570   1579   1588     1  0.0000000  0.0000000  3
   1571   1570   1579   1580     1  0.0000000  0.6508444  3
   1571   1570   1579   1581     1  0.0000000  0.6508444  3
   1572   1570   1579   1588     1  0.0000000  1.0460000  1
   1572   1570   1579   1588     1  0.0000000  0.0000000  3
   1572   1570   1579   1580     1  0.0000000  0.6508444  3
   1572   1570   1579   1581     1  0.0000000  0.6508444  3
   1573   1561   1560   1589     1  0.0000000  0.6508444  3
   1574   1573   1585   3330     1  0.0000000  1.0460000  1
   1574   1573   1585   3330     1  0.0000000  0.0000000  3
   1574   1573   1585   1586     1  0.0000000  0.6508444  3
   1574   1573   1585   1587     1  0.0000000  0.6508444  3
   1575   1573   1585   3330     1  0.0000000  1.0460000  1
   1575   1573   1585   3330     1  0.0000000  0.0000000  3
   1575   1573   1585   1586     1  0.0000000  0.6508444  3
   1575   1573   1585   1587     1  0.0000000  0.6508444  3
   1576   1564   1560   1589     1  0.0000000  0.6508444  3
   1577   1576   1582   3298     1  0.0000000  1.0460000  1
   1577   1576   1582   3298     1  0.0000000  0.0000000  3
   1577   1576   1582   1583     1  0.0000000  0.6508444  3
   1577   1576   1582   1584     1  0.0000000  0.6508444  3
   1578   1576   1582   3298     1  0.0000000  1.0460000  1
   1578   1576   1582   3298     1  0.0000000  0.0000000  3
   1578   1576   1582   1583     1  0.0000000  0.6508444  3
   1578   1576   1582   1584     1  0.0000000  0.6508444  3
   1582   3298   3268   3269     1  0.0000000  1.6038667  3
   1582   3298   3268   3270     1  0.0000000  1.6038667  3
   1583   1582   3298   3268     1  0.0000000  1.6038667  3
   1584   1582   3298   3268     1  0.0000000  1.6038667  3
   1585   3330   3300   3301     1  0.0000000  1.6038667  3
   1585   3330   3300   3302     1  0.0000000  1.6038667  3
   1586   1585   3330   3300     1  0.0000000  1.6038667  3
   1587   1585   3330   3300     1  0.0000000  1.6038667  3
   1590   1591   1603   1604     1  0.0000000  0.6508444  3
   1590   1591   1603   1605     1  0.0000000  0.6508444  3
   1590   1594   1606   1607     1  0.0000000  0.6508444  3
   1590   1594   1606   1608     1  0.0000000  0.6508444  3
   1590   1597   1600   1601     1  0.0000000  0.6508444  3
   1590   1597   1600   1602     1  0.0000000  0.6508444  3
   1591   1590   1594   1595     1  0.0000000  0.6508444  3
   1591   1590   1594   1596     1  0.0000000  0.6508444  3
   1591   1590   1597   1598     1  0.0000000  0.6508444  3
   1591   1590   1597   1599     1  0.0000000  0.6508444  3
   1591   1603   1615   1616     1  0.0000000  0.6508444  3
   1591   1603   1615   1617     1  0.0000000  0.6508444  3
   1592   1591   1590   1594     1  0.0000000  0.6508444  3
   1592   1591   1590   1597     1  0.0000000  0.6508444  3
   1592   1591   1590   1619     1  0.0000000  0.6508444  3
   1592   1591   1603   1615     1  0.0000000  0.6508444  3
   1592   1591   1603   1604     1  0.0000000  0.6508444  3
   1592   1591   1603   1605     1  0.0000000  0.6508444  3
   1593   1591   1590   1594     1  0.0000000  0.6508444  3
   1593   1591   1590   1597     1  0.0000000  0.6508444  3
   1593   1591   1590   1619     1  0.0000000  0.6508444  3
   1593   1591   1603   1615     1  0.0000000  0.6508444  3
   1593   1591   1603   1604     1  0.0000000  0.6508444  3
   1593   1591   1603   1605     1  0.0000000  0.6508444  3
   1594   1590   1597   1598     1  0.0000000  0.6508444  3
   1594   1590   1597   1599     1  0.0000000  0.6508444  3
   1594   1606   1612   1613     1  0.0000000  0.6508444  3
   1594   1606   1612   1614     1  0.0000000  0.6508444  3
   1595   1594   1590   1597     1  0.0000000  0.6508444  3
   1595   1594   1590   1619     1  0.0000000  0.6508444  3
   1595   1594   1606   1612     1  0.0000000  0.6508444  3
   1595   1594   1606   1607     1  0.0000000  0.6508444  3
   1595   1594   1606   1608     1  0.0000000  0.6508444  3
   1596   1594   1590   1597     1  0.0000000  0.6508444  3
   1596   1594   1590   1619     1  0.0000000  0.6508444  3
   1596   1594   1606   1612     1  0.0000000  0.6508444  3
   1596   1594   1606   1607     1  0.0000000  0.6508444  3
   1596   1594   1606   1608     1  0.0000000  0.6508444  3
   1597   1600   1609   1610     1  0.0000000  0.6508444  3
   1597   1600   1609   1611     1  0.0000000  0.6508444  3
   1598   1597   1590   1619     1  0.0000000  0.6508444  3
   1598   1597   1600   1609     1  0.0000000  0.6508444  3
   1598   1597   1600   1601     1  0.0000000  0.6508444  3
   1598   1597   1600   1602     1  0.0000000  0.6508444  3
   1599   1597   1590   1619     1  0.0000000  0.6508444  3
   1599   1597   1600   1609     1  0.0000000  0.6508444  3
   1599   1597   1600   1601     1  0.0000000  0.6508444  3
   1599   1597   1600   1602     1  0.0000000  0.6508444  3
   1600   1597   1590   1619     1  0.0000000  0.6508444  3
   1601   1600   1609   1618     1  0.0000000  1.0460000  1
   1601   1600   1609   1618     1  0.0000000  0.0000000  3
   1601   1600   1609   1610     1  0.0000000  0.6508444  3
   1601   1600   1609   1611     1  0.0000000  0.6508444  3
   1602   1600   1609   1618     1  0.0000000  1.0460000  1
   1602   1600   1609   1618     1  0.0000000  0.0000000  3
   1602   1600   1609   1610     1  0.0000000  0.6508444  3
   1602   1600   1609   1611     1  0.0000000  0.6508444  3
   1603   1591   1590   1619     1  0.0000000  0.6508444  3
   1604   1603   1615   3394     1  0.0000000  1.0460000  1
   1604   1603   1615   3394     1  0.0000000  0.0000000  3
   1604   1603   1615   1616     1  0.0000000  0.6508444  3
   1604   1603   1615   1617     1  0.0000000  0.6508444  3
   1605   1603   1615   3394     1  0.0000000  1.0460000  1
   1605   1603   1615   3394     1  0.0000000  0.0000000  3
   1605   1603   1615   1616     1  0.0000000  0.6508444  3
   1605   1603   1615   1617     1  0.0000000  0.6508444  3
   1606   1594   1590   1619     1  0.0000000  0.6508444  3
   1607   1606   1612   3362     1  0.0000000  1.0460000  1
   1607   1606   1612   3362     1  0.0000000  0.0000000  3
   1607   1606   1612   1613     1  0.0000000  0.6508444  3
   1607   1606   1612   1614     1  0.0000000  0.6508444  3
   1608   1606   1612   3362     1  0.0000000  1.0460000  1
   1608   1606   1612   3362     1  0.0000000  0.0000000  3
   1608   1606   1612   1613     1  0.0000000  0.6508444  3
   1608   1606   1612   1614     1  0.0000000  0.6508444  3
   1612   3362   3332   3333     1  0.0000000  1.6038667  3
   1612   3362   3332   3334     1  0.0000000  1.6038667  3
   1613   1612   3362   3332     1  0.0000000  1.6038667  3
   1614   1612   3362   3332     1  0.0000000  1.6038667  3
   1615   3394   3364   3365     1  0.0000000  1.6038667  3
   1615   3394   3364   3366     1  0.0000000  1.6038667  3
   1616   1615   3394   3364     1  0.0000000  1.6038667  3
   1617   1615   3394   3364     1  0.0000000  1.6038667  3
   1620   1621   1633   1634     1  0.0000000  0.6508444  3
   1620   1621   1633   1635     1  0.0000000  0.6508444  3
   1620   1624   1636   1637     1  0.0000000  0.6508444  3
   1620   1624   1636   1638     1  0.0000000  0.6508444  3
   1620   1627   1630   1631     1  0.0000000  0.6508444  3
   1620   1627   1630   1632     1  0.0000000  0.6508444  3
   1621   1620   1624   1625     1  0.0000000  0.6508444  3
   1621   1620   1624   1626     1  0.0000000  0.6508444  3
   1621   1620   1627   1628     1  0.0000000  0.6508444  3
   1621   1620   1627   1629     1  0.0000000  0.6508444  3
   1621   1633   1645   1646     1  0.0000000  0.6508444  3
   1621   1633   1645   1647     1  0.0000000  0.6508444  3
   1622   1621   1620   1624     1  0.0000000  0.6508444  3
   1622   1621   1620   1627     1  0.0000000  0.6508444  3
   1622   1621   1620   1649     1  0.0000000  0.6508444  3
   1622   1621   1633   1645     1  0.0000000  0.6508444  3
   1622   1621   1633   1634     1  0.0000000  0.6508444  3
   1622   1621   1633   1635     1  0.0000000  0.6508444  3
   1623   1621   1620   1624     1  0.0000000  0.6508444  3
   1623   1621   1620   1627     1  0.0000000  0.6508444  3
   1623   1621   1620   1649     1  0.0000000  0.6508444  3
   1623   1621   1633   1645     1  0.0000000  0.6508444  3
   1623   1621   1633   1634     1  0.0000000  0.6508444  3
   1623   1621   1633   1635     1  0.0000000  0.6508444  3
   1624   1620   1627   1628     1  0.0000000  0.6508444  3
   1624   1620   1627   1629     1  0.0000000  0.6508444  3
   1624   1636   1642   1643     1  0.0000000  0.6508444  3
   1624   1636   1642   1644     1  0.0000000  0.6508444  3
   1625   1624   1620   1627     1  0.0000000  0.6508444  3
   1625   1624   1620   1649     1  0.0000000  0.6508444  3
   1625   1624   1636   1642     1  0.0000000  0.6508444  3
   1625   1624   1636   1637     1  0.0000000  0.6508444  3
   1625   1624   1636   1638     1  0.0000000  0.6508444  3
   1626   1624   1620   1627     1  0.0000000  0.6508444  3
   1626   1624   1620   1649     1  0.0000000  0.6508444  3
   1626   1624   1636   1642     1  0.0000000  0.6508444  3
   1626   1624   1636   1637     1  0.0000000  0.6508444  3
   1626   1624   1636   1638     1  0.0000000  0.6508444  3
   1627   1630   1639   1640     1  0.0000000  0.6508444  3
   1627   1630   1639   1641     1  0.0000000  0.6508444  3
   1628   1627   1620   1649     1  0.0000000  0.6508444  3
   1628   1627   1630   1639     1  0.0000000  0.6508444  3
   1628   1627   1630   1631     1  0.0000000  0.6508444  3
   1628   1627   1630   1632     1  0.0000000  0.6508444  3
   1629   1627   1620   1649     1  0.0000000  0.6508444  3
   1629   1627   1630   1639     1  0.0000000  0.6508444  3
   1629   1627   1630   1631     1  0.0000000  0.6508444  3
   1629   1627   1630   1632     1  0.0000000  0.6508444  3
   1630   1627   1620   1649     1  0.0000000  0.6508444  3
   1631   1630   1639   1648     1  0.0000000  1.0460000  1
   1631   1630   1639   1648     1  0.0000000  0.0000000  3
   1631   1630   1639   1640     1  0.0000000  0.6508444  3
   1631   1630   1639   1641     1  0.0000000  0.6508444  3
   1632   1630   1639   1648     1  0.0000000  1.0460000  1
   1632   1630   1639   1648     1  0.0000000  0.0000000  3
   1632   1630   1639   1640     1  0.0000000  0.6508444  3
   1632   1630   1639   1641     1  0.0000000  0.6508444  3
   1633   1621   1620   1649     1  0.0000000  0.6508444  3
   1634   1633   1645   3458     1  0.0000000  1.0460000  1
   1634   1633   1645   3458     1  0.0000000  0.0000000  3
   1634   1633   1645   1646     1  0.0000000  0.6508444  3
   1634   1633   1645   1647     1  0.0000000  0.6508444  3
   1635   1633   1645   3458     1  0.0000000  1.0460000  1
   1635   1633   1645   3458     1  0.0000000  0.0000000  3
   1635   1633   1645   1646     1  0.0000000  0.6508444  3
   1635   1633   1645   1647     1  0.0000000  0.6508444  3
   1636   1624   1620   1649     1  0.0000000  0.6508444  3
   1637   1636   1642   3426     1  0.0000000  1.0460000  1
   1637   1636   1642   3426     1  0.0000000  0.0000000  3
   1637   1636   1642   1643     1  0.0000000  0.6508444  3
   1637   1636   1642   1644     1  0.0000000  0.6508444  3
   1638   1636   1642   3426     1  0.0000000  1.0460000  1
   1638   1636   1642   3426     1  0.0000000  0.0000000  3
   1638   1636   1642   1643     1  0.0000000  0.6508444  3
   1638   1636   1642   1644     1  0.0000000  0.6508444  3
   1642   3426   3396   3397     1  0.0000000  1.6038667  3
   1642   3426   3396   3398     1  0.0000000  1.6038667  3
   1643   1642   3426   3396     1  0.0000000  1.6038667  3
   1644   1642   3426   3396     1  0.0000000  1.6038667  3
   1645   3458   3428   3429     1  0.0000000  1.6038667  3
   1645   3458   3428   3430     1  0.0000000  1.6038667  3
   1646   1645   3458   3428     1  0.0000000  1.6038667  3
   1647   1645   3458   3428     1  0.0000000  1.6038667  3
   1650   1651   1663   1664     1  0.0000000  0.6508444  3
   1650   1651   1663   1665     1  0.0000000  0.6508444  3
   1650   1654   1666   1667     1  0.0000000  0.6508444  3
   1650   1654   1666   1668     1  0.0000000  0.6508444  3
   1650   1657   1660   1661     1  0.0000000  0.6508444  3
   1650   1657   1660   1662     1  0.0000000  0.6508444  3
   1651   1650   1654   1655     1  0.0000000  0.6508444  3
   1651   1650   1654   1656     1  0.0000000  0.6508444  3
   1651   1650   1657   1658     1  0.0000000  0.6508444  3
   1651   1650   1657   1659     1  0.0000000  0.6508444  3
   1651   1663   1675   1676     1  0.0000000  0.6508444  3
   1651   1663   1675   1677     1  0.0000000  0.6508444  3
   1652   1651   1650   1654     1  0.0000000  0.6508444  3
   1652   1651   1650   1657     1  0.0000000  0.6508444  3
   1652   1651   1650   1679     1  0.0000000  0.6508444  3
   1652   1651   1663   1675     1  0.0000000  0.6508444  3
   1652   1651   1663   1664     1  0.0000000  0.6508444  3
   1652   1651   1663   1665     1  0.0000000  0.6508444  3
   1653   1651   1650   1654     1  0.0000000  0.6508444  3
   1653   1651   1650   1657     1  0.0000000  0.6508444  3
   1653   1651   1650   1679     1  0.0000000  0.6508444  3
   1653   1651   1663   1675     1  0.0000000  0.6508444  3
   1653   1651   1663   1664     1  0.0000000  0.6508444  3
   1653   1651   1663   1665     1  0.0000000  0.6508444  3
   1654   1650   1657   1658     1  0.0000000  0.6508444  3
   1654   1650   1657   1659     1  0.0000000  0.6508444  3
   1654   1666   1672   1673     1  0.0000000  0.6508444  3
   1654   1666   1672   1674     1  0.0000000  0.6508444  3
   1655   1654   1650   1657     1  0.0000000  0.6508444  3
   1655   1654   1650   1679     1  0.0000000  0.6508444  3
   1655   1654   1666   1672     1  0.0000000  0.6508444  3
   1655   1654   1666   1667     1  0.0000000  0.6508444  3
   1655   1654   1666   1668     1  0.0000000  0.6508444  3
   1656   1654   1650   1657     1  0.0000000  0.6508444  3
   1656   1654   1650   1679     1  0.0000000  0.6508444  3
   1656   1654   1666   1672     1  0.0000000  0.6508444  3
   1656   1654   1666   1667     1  0.0000000  0.6508444  3
   1656   1654   1666   1668     1  0.0000000  0.6508444  3
   1657   1660   1669   1670     1  0.0000000  0.6508444  3
   1657   1660   1669   1671     1  0.0000000  0.6508444  3
   1658   1657   1650   1679     1  0.0000000  0.6508444  3
   1658   1657   1660   1669     1  0.0000000  0.6508444  3
   1658   1657   1660   1661     1  0.0000000  0.6508444  3
   1658   1657   1660   1662     1  0.0000000  0.6508444  3
   1659   1657   1650   1679     1  0.0000000  0.6508444  3
   1659   1657   1660   1669     1  0.0000000  0.6508444  3
   1659   1657   1660   1661     1  0.0000000  0.6508444  3
   1659   1657   1660   1662     1  0.0000000  0.6508444  3
   1660   1657   1650   1679     1  0.0000000  0.6508444  3
   1661   1660   1669   1678     1  0.0000000  1.0460000  1
   1661   1660   1669   1678     1  0.0000000  0.0000000  3
   1661   1660   1669   1670     1  0.0000000  0.6508444  3
   1661   1660   1669   1671     1  0.0000000  0.6508444  3
   1662   1660   1669   1678     1  0.0000000  1.0460000  1
   1662   1660   1669   1678     1  0.0000000  0.0000000  3
   1662   1660   1669   1670     1  0.0000000  0.6508444  3
   1662   1660   1669   1671     1  0.0000000  0.6508444  3
   1663   1651   1650   1679     1  0.0000000  0.6508444  3
   1664   1663   1675   3522     1  0.0000000  1.0460000  1
   1664   1663   1675   3522     1  0.0000000  0.0000000  3
   1664   1663   1675   1676     1  0.0000000  0.6508444  3
   1664   1663   1675   1677     1  0.0000000  0.6508444  3
   1665   1663   1675   3522     1  0.0000000  1.0460000  1
   1665   1663   1675   3522     1  0.0000000  0.0000000  3
   1665   1663   1675   1676     1  0.0000000  0.6508444  3
   1665   1663   1675   1677     1  0.0000000  0.6508444  3
   1666   1654   1650   1679     1  0.0000000  0.6508444  3
   1667   1666   1672   3490     1  0.0000000  1.0460000  1
   1667   1666   1672   3490     1  0.0000000  0.0000000  3
   1667   1666   1672   1673     1  0.0000000  0.6508444  3
   1667   1666   1672   1674     1  0.0000000  0.6508444  3
   1668   1666   1672   3490     1  0.0000000  1.0460000  1
   1668   1666   1672   3490     1  0.0000000  0.0000000  3
   1668   1666   1672   1673     1  0.0000000  0.6508444  3
   1668   1666   1672   1674     1  0.0000000  0.6508444  3
   1672   3490   3460   3461     1  0.0000000  1.6038667  3
   1672   3490   3460   3462     1  0.0000000  1.6038667  3
   1673   1672   3490   3460     1  0.0000000  1.6038667  3
   1674   1672   3490   3460     1  0.0000000  1.6038667  3
   1675   3522   3492   3493     1  0.0000000  1.6038667  3
   1675   3522   3492   3494     1  0.0000000  1.6038667  3
   1676   1675   3522   3492     1  0.0000000  1.6038667  3
   1677   1675   3522   3492     1  0.0000000  1.6038667  3
   1680   1681   1693   1694     1  0.0000000  0.6508444  3
   1680   1681   1693   1695     1  0.0000000  0.6508444  3
   1680   1684   1696   1697     1  0.0000000  0.6508444  3
   1680   1684   1696   1698     1  0.0000000  0.6508444  3
   1680   1687   1690   1691     1  0.0000000  0.6508444  3
   1680   1687   1690   1692     1  0.0000000  0.6508444  3
   1681   1680   1684   1685     1  0.0000000  0.6508444  3
   1681   1680   1684   1686     1  0.0000000  0.6508444  3
   1681   1680   1687   1688     1  0.0000000  0.6508444  3
   1681   1680   1687   1689     1  0.0000000  0.6508444  3
   1681   1693   1705   1706     1  0.0000000  0.6508444  3
   1681   1693   1705   1707     1  0.0000000  0.6508444  3
   1682   1681   1680   1684     1  0.0000000  0.6508444  3
   1682   1681   1680   1687     1  0.0000000  0.6508444  3
   1682   1681   1680   1709     1  0.0000000  0.6508444  3
   1682   1681   1693   1705     1  0.0000000  0.6508444  3
   1682   1681   1693   1694     1  0.0000000  0.6508444  3
   1682   1681   1693   1695     1  0.0000000  0.6508444  3
   1683   1681   1680   1684     1  0.0000000  0.6508444  3
   1683   1681   1680   1687     1  0.0000000  0.6508444  3
   1683   1681   1680   1709     1  0.0000000  0.6508444  3
   1683   1681   1693   1705     1  0.0000000  0.6508444  3
   1683   1681   1693   1694     1  0.0000000  0.6508444  3
   1683   1681   1693   1695     1  0.0000000  0.6508444  3
   1684   1680   1687   1688     1  0.0000000  0.6508444  3
   1684   1680   1687   1689     1  0.0000000  0.6508444  3
   1684   1696   1702   1703     1  0.0000000  0.6508444  3
   1684   1696   1702   1704     1  0.0000000  0.6508444  3
   1685   1684   1680   1687     1  0.0000000  0.6508444  3
   1685   1684   1680   1709     1  0.0000000  0.6508444  3
   1685   1684   1696   1702     1  0.0000000  0.6508444  3
   1685   1684   1696   1697     1  0.0000000  0.6508444  3
   1685   1684   1696   1698     1  0.0000000  0.6508444  3
   1686   1684   1680   1687     1  0.0000000  0.6508444  3
   1686   1684   1680   1709     1  0.0000000  0.6508444  3
   1686   1684   1696   1702     1  0.0000000  0.6508444  3
   1686   1684   1696   1697     1  0.0000000  0.6508444  3
   1686   1684   1696   1698     1  0.0000000  0.6508444  3
   1687   1690   1699   1700     1  0.0000000  0.6508444  3
   1687   1690   1699   1701     1  0.0000000  0.6508444  3
   1688   1687   1680   1709     1  0.0000000  0.6508444  3
   1688   1687   1690   1699     1  0.0000000  0.6508444  3
   1688   1687   1690   1691     1  0.0000000  0.6508444  3
   1688   1687   1690   1692     1  0.0000000  0.6508444  3
   1689   1687   1680   1709     1  0.0000000  0.6508444  3
   1689   1687   1690   1699     1  0.0000000  0.6508444  3
   1689   1687   1690   1691     1  0.0000000  0.6508444  3
   1689   1687   1690   1692     1  0.0000000  0.6508444  3
   1690   1687   1680   1709     1  0.0000000  0.6508444  3
   1691   1690   1699   1708     1  0.0000000  1.0460000  1
   1691   1690   1699   1708     1  0.0000000  0.0000000  3
   1691   1690   1699   1700     1  0.0000000  0.6508444  3
   1691   1690   1699   1701     1  0.0000000  0.6508444  3
   1692   1690   1699   1708     1  0.0000000  1.0460000  1
   1692   1690   1699   1708     1  0.0000000  0.0000000  3
   1692   1690   1699   1700     1  0.0000000  0.6508444  3
   1692   1690   1699   1701     1  0.0000000  0.6508444  3
   1693   1681   1680   1709     1  0.0000000  0.6508444  3
   1694   1693   1705   3586     1  0.0000000  1.0460000  1
   1694   1693   1705   3586     1  0.0000000  0.0000000  3
   1694   1693   1705   1706     1  0.0000000  0.6508444  3
   1694   1693   1705   1707     1  0.0000000  0.6508444  3
   1695   1693   1705   3586     1  0.0000000  1.0460000  1
   1695   1693   1705   3586     1  0.0000000  0.0000000  3
   1695   1693   1705   1706     1  0.0000000  0.6508444  3
   1695   1693   1705   1707     1  0.0000000  0.6508444  3
   1696   1684   1680   1709     1  0.0000000  0.6508444  3
   1697   1696   1702   3554     1  0.0000000  1.0460000  1
   1697   1696   1702   3554     1  0.0000000  0.0000000  3
   1697   1696   1702   1703     1  0.0000000  0.6508444  3
   1697   1696   1702   1704     1  0.0000000  0.6508444  3
   1698   1696   1702   3554     1  0.0000000  1.0460000  1
   1698   1696   1702   3554     1  0.0000000  0.0000000  3
   1698   1696   1702   1703     1  0.0000000  0.6508444  3
   1698   1696   1702   1704     1  0.0000000  0.6508444  3
   1702   3554   3524   3525     1  0.0000000  1.6038667  3
   1702   3554   3524   3526     1  0.0000000  1.6038667  3
   1703   1702   3554   3524     1  0.0000000  1.6038667  3
   1704   1702   3554   3524     1  0.0000000  1.6038667  3
   1705   3586   3556   3557     1  0.0000000  1.6038667  3
   1705   3586   3556   3558     1  0.0000000  1.6038667  3
   1706   1705   3586   3556     1  0.0000000  1.6038667  3
   1707   1705   3586   3556     1  0.0000000  1.6038667  3
   1710   1711   1723   1724     1  0.0000000  0.6508444  3
   1710   1711   1723   1725     1  0.0000000  0.6508444  3
   1710   1714   1726   1727     1  0.0000000  0.6508444  3
   1710   1714   1726   1728     1  0.0000000  0.6508444  3
   1710   1717   1720   1721     1  0.0000000  0.6508444  3
   1710   1717   1720   1722     1  0.0000000  0.6508444  3
   1711   1710   1714   1715     1  0.0000000  0.6508444  3
   1711   1710   1714   1716     1  0.0000000  0.6508444  3
   1711   1710   1717   1718     1  0.0000000  0.6508444  3
   1711   1710   1717   1719     1  0.0000000  0.6508444  3
   1711   1723   1735   1736     1  0.0000000  0.6508444  3
   1711   1723   1735   1737     1  0.0000000  0.6508444  3
   1712   1711   1710   1714     1  0.0000000  0.6508444  3
   1712   1711   1710   1717     1  0.0000000  0.6508444  3
   1712   1711   1710   1739     1  0.0000000  0.6508444  3
   1712   1711   1723   1735     1  0.0000000  0.6508444  3
   1712   1711   1723   1724     1  0.0000000  0.6508444  3
   1712   1711   1723   1725     1  0.0000000  0.6508444  3
   1713   1711   1710   1714     1  0.0000000  0.6508444  3
   1713   1711   1710   1717     1  0.0000000  0.6508444  3
   1713   1711   1710   1739     1  0.0000000  0.6508444  3
   1713   1711   1723   1735     1  0.0000000  0.6508444  3
   1713   1711   1723   1724     1  0.0000000  0.6508444  3
   1713   1711   1723   1725     1  0.0000000  0.6508444  3
   1714   1710   1717   1718     1  0.0000000  0.6508444  3
   1714   1710   1717   1719     1  0.0000000  0.6508444  3
   1714   1726   1732   1733     1  0.0000000  0.6508444  3
   1714   1726   1732   1734     1  0.0000000  0.6508444  3
   1715   1714   1710   1717     1  0.0000000  0.6508444  3
   1715   1714   1710   1739     1  0.0000000  0.6508444  3
   1715   1714   1726   1732     1  0.0000000  0.6508444  3
   1715   1714   1726   1727     1  0.0000000  0.6508444  3
   1715   1714   1726   1728     1  0.0000000  0.6508444  3
   1716   1714   1710   1717     1  0.0000000  0.6508444  3
   1716   1714   1710   1739     1  0.0000000  0.6508444  3
   1716   1714   1726   1732     1  0.0000000  0.6508444  3
   1716   1714   1726   1727     1  0.0000000  0.6508444  3
   1716   1714   1726   1728     1  0.0000000  0.6508444  3
   1717   1720   1729   1730     1  0.0000000  0.6508444  3
   1717   1720   1729   1731     1  0.0000000  0.6508444  3
   1718   1717   1710   1739     1  0.0000000  0.6508444  3
   1718   1717   1720   1729     1  0.0000000  0.6508444  3
   1718   1717   1720   1721     1  0.0000000  0.6508444  3
   1718   1717   1720   1722     1  0.0000000  0.6508444  3
   1719   1717   1710   1739     1  0.0000000  0.6508444  3
   1719   1717   1720   1729     1  0.0000000  0.6508444  3
   1719   1717   1720   1721     1  0.0000000  0.6508444  3
   1719   1717   1720   1722     1  0.0000000  0.6508444  3
   1720   1717   1710   1739     1  0.0000000  0.6508444  3
   1721   1720   1729   1738     1  0.0000000  1.0460000  1
   1721   1720   1729   1738     1  0.0000000  0.0000000  3
   1721   1720   1729   1730     1  0.0000000  0.6508444  3
   1721   1720   1729   1731     1  0.0000000  0.6508444  3
   1722   1720   1729   1738     1  0.0000000  1.0460000  1
   1722   1720   1729   1738     1  0.0000000  0.0000000  3
   1722   1720   1729   1730     1  0.0000000  0.6508444  3
   1722   1720   1729   1731     1  0.0000000  0.6508444  3
   1723   1711   1710   1739     1  0.0000000  0.6508444  3
   1724   1723   1735   3650     1  0.0000000  1.0460000  1
   1724   1723   1735   3650     1  0.0000000  0.0000000  3
   1724   1723   1735   1736     1  0.0000000  0.6508444  3
   1724   1723   1735   1737     1  0.0000000  0.6508444  3
   1725   1723   1735   3650     1  0.0000000  1.0460000  1
   1725   1723   1735   3650     1  0.0000000  0.0000000  3
   1725   1723   1735   1736     1  0.0000000  0.6508444  3
   1725   1723   1735   1737     1  0.0000000  0.6508444  3
   1726   1714   1710   1739     1  0.0000000  0.6508444  3
   1727   1726   1732   3618     1  0.0000000  1.0460000  1
   1727   1726   1732   3618     1  0.0000000  0.0000000  3
   1727   1726   1732   1733     1  0.0000000  0.6508444  3
   1727   1726   1732   1734     1  0.0000000  0.6508444  3
   1728   1726   1732   3618     1  0.0000000  1.0460000  1
   1728   1726   1732   3618     1  0.0000000  0.0000000  3
   1728   1726   1732   1733     1  0.0000000  0.6508444  3
   1728   1726   1732   1734     1  0.0000000  0.6508444  3
   1732   3618   3588   3589     1  0.0000000  1.6038667  3
   1732   3618   3588   3590     1  0.0000000  1.6038667  3
   1733   1732   3618   3588     1  0.0000000  1.6038667  3
   1734   1732   3618   3588     1  0.0000000  1.6038667  3
   1735   3650   3620   3621     1  0.0000000  1.6038667  3
   1735   3650   3620   3622     1  0.0000000  1.6038667  3
   1736   1735   3650   3620     1  0.0000000  1.6038667  3
   1737   1735   3650   3620     1  0.0000000  1.6038667  3
   1740   1741   1753   1754     1  0.0000000  0.6508444  3
   1740   1741   1753   1755     1  0.0000000  0.6508444  3
   1740   1744   1756   1757     1  0.0000000  0.6508444  3
   1740   1744   1756   1758     1  0.0000000  0.6508444  3
   1740   1747   1750   1751     1  0.0000000  0.6508444  3
   1740   1747   1750   1752     1  0.0000000  0.6508444  3
   1741   1740   1744   1745     1  0.0000000  0.6508444  3
   1741   1740   1744   1746     1  0.0000000  0.6508444  3
   1741   1740   1747   1748     1  0.0000000  0.6508444  3
   1741   1740   1747   1749     1  0.0000000  0.6508444  3
   1741   1753   1765   1766     1  0.0000000  0.6508444  3
   1741   1753   1765   1767     1  0.0000000  0.6508444  3
   1742   1741   1740   1744     1  0.0000000  0.6508444  3
   1742   1741   1740   1747     1  0.0000000  0.6508444  3
   1742   1741   1740   1769     1  0.0000000  0.6508444  3
   1742   1741   1753   1765     1  0.0000000  0.6508444  3
   1742   1741   1753   1754     1  0.0000000  0.6508444  3
   1742   1741   1753   1755     1  0.0000000  0.6508444  3
   1743   1741   1740   1744     1  0.0000000  0.6508444  3
   1743   1741   1740   1747     1  0.0000000  0.6508444  3
   1743   1741   1740   1769     1  0.0000000  0.6508444  3
   1743   1741   1753   1765     1  0.0000000  0.6508444  3
   1743   1741   1753   1754     1  0.0000000  0.6508444  3
   1743   1741   1753   1755     1  0.0000000  0.6508444  3
   1744   1740   1747   1748     1  0.0000000  0.6508444  3
   1744   1740   1747   1749     1  0.0000000  0.6508444  3
   1744   1756   1762   1763     1  0.0000000  0.6508444  3
   1744   1756   1762   1764     1  0.0000000  0.6508444  3
   1745   1744   1740   1747     1  0.0000000  0.6508444  3
   1745   1744   1740   1769     1  0.0000000  0.6508444  3
   1745   1744   1756   1762     1  0.0000000  0.6508444  3
   1745   1744   1756   1757     1  0.0000000  0.6508444  3
   1745   1744   1756   1758     1  0.0000000  0.6508444  3
   1746   1744   1740   1747     1  0.0000000  0.6508444  3
   1746   1744   1740   1769     1  0.0000000  0.6508444  3
   1746   1744   1756   1762     1  0.0000000  0.6508444  3
   1746   1744   1756   1757     1  0.0000000  0.6508444  3
   1746   1744   1756   1758     1  0.0000000  0.6508444  3
   1747   1750   1759   1760     1  0.0000000  0.6508444  3
   1747   1750   1759   1761     1  0.0000000  0.6508444  3
   1748   1747   1740   1769     1  0.0000000  0.6508444  3
   1748   1747   1750   1759     1  0.0000000  0.6508444  3
   1748   1747   1750   1751     1  0.0000000  0.6508444  3
   1748   1747   1750   1752     1  0.0000000  0.6508444  3
   1749   1747   1740   1769     1  0.0000000  0.6508444  3
   1749   1747   1750   1759     1  0.0000000  0.6508444  3
   1749   1747   1750   1751     1  0.0000000  0.6508444  3
   1749   1747   1750   1752     1  0.0000000  0.6508444  3
   1750   1747   1740   1769     1  0.0000000  0.6508444  3
   1751   1750   1759   1768     1  0.0000000  1.0460000  1
   1751   1750   1759   1768     1  0.0000000  0.0000000  3
   1751   1750   1759   1760     1  0.0000000  0.6508444  3
   1751   1750   1759   1761     1  0.0000000  0.6508444  3
   1752   1750   1759   1768     1  0.0000000  1.0460000  1
   1752   1750   1759   1768     1  0.0000000  0.0000000  3
   1752   1750   1759   1760     1  0.0000000  0.6508444  3
   1752   1750   1759   1761     1  0.0000000  0.6508444  3
   1753   1741   1740   1769     1  0.0000000  0.6508444  3
   1754   1753   1765   3714     1  0.0000000  1.0460000  1
   1754   1753   1765   3714     1  0.0000000  0.0000000  3
   1754   1753   1765   1766     1  0.0000000  0.6508444  3
   1754   1753   1765   1767     1  0.0000000  0.6508444  3
   1755   1753   1765   3714     1  0.0000000  1.0460000  1
   1755   1753   1765   3714     1  0.0000000  0.0000000  3
   1755   1753   1765   1766     1  0.0000000  0.6508444  3
   1755   1753   1765   1767     1  0.0000000  0.6508444  3
   1756   1744   1740   1769     1  0.0000000  0.6508444  3
   1757   1756   1762   3682     1  0.0000000  1.0460000  1
   1757   1756   1762   3682     1  0.0000000  0.0000000  3
   1757   1756   1762   1763     1  0.0000000  0.6508444  3
   1757   1756   1762   1764     1  0.0000000  0.6508444  3
   1758   1756   1762   3682     1  0.0000000  1.0460000  1
   1758   1756   1762   3682     1  0.0000000  0.0000000  3
   1758   1756   1762   1763     1  0.0000000  0.6508444  3
   1758   1756   1762   1764     1  0.0000000  0.6508444  3
   1762   3682   3652   3653     1  0.0000000  1.6038667  3
   1762   3682   3652   3654     1  0.0000000  1.6038667  3
   1763   1762   3682   3652     1  0.0000000  1.6038667  3
   1764   1762   3682   3652     1  0.0000000  1.6038667  3
   1765   3714   3684   3685     1  0.0000000  1.6038667  3
   1765   3714   3684   3686     1  0.0000000  1.6038667  3
   1766   1765   3714   3684     1  0.0000000  1.6038667  3
   1767   1765   3714   3684     1  0.0000000  1.6038667  3
   1770   1771   1783   1784     1  0.0000000  0.6508444  3
   1770   1771   1783   1785     1  0.0000000  0.6508444  3
   1770   1774   1786   1787     1  0.0000000  0.6508444  3
   1770   1774   1786   1788     1  0.0000000  0.6508444  3
   1770   1777   1780   1781     1  0.0000000  0.6508444  3
   1770   1777   1780   1782     1  0.0000000  0.6508444  3
   1771   1770   1774   1775     1  0.0000000  0.6508444  3
   1771   1770   1774   1776     1  0.0000000  0.6508444  3
   1771   1770   1777   1778     1  0.0000000  0.6508444  3
   1771   1770   1777   1779     1  0.0000000  0.6508444  3
   1771   1783   1795   1796     1  0.0000000  0.6508444  3
   1771   1783   1795   1797     1  0.0000000  0.6508444  3
   1772   1771   1770   1774     1  0.0000000  0.6508444  3
   1772   1771   1770   1777     1  0.0000000  0.6508444  3
   1772   1771   1770   1799     1  0.0000000  0.6508444  3
   1772   1771   1783   1795     1  0.0000000  0.6508444  3
   1772   1771   1783   1784     1  0.0000000  0.6508444  3
   1772   1771   1783   1785     1  0.0000000  0.6508444  3
   1773   1771   1770   1774     1  0.0000000  0.6508444  3
   1773   1771   1770   1777     1  0.0000000  0.6508444  3
   1773   1771   1770   1799     1  0.0000000  0.6508444  3
   1773   1771   1783   1795     1  0.0000000  0.6508444  3
   1773   1771   1783   1784     1  0.0000000  0.6508444  3
   1773   1771   1783   1785     1  0.0000000  0.6508444  3
   1774   1770   1777   1778     1  0.0000000  0.6508444  3
   1774   1770   1777   1779     1  0.0000000  0.6508444  3
   1774   1786   1792   1793     1  0.0000000  0.6508444  3
   1774   1786   1792   1794     1  0.0000000  0.6508444  3
   1775   1774   1770   1777     1  0.0000000  0.6508444  3
   1775   1774   1770   1799     1  0.0000000  0.6508444  3
   1775   1774   1786   1792     1  0.0000000  0.6508444  3
   1775   1774   1786   1787     1  0.0000000  0.6508444  3
   1775   1774   1786   1788     1  0.0000000  0.6508444  3
   1776   1774   1770   1777     1  0.0000000  0.6508444  3
   1776   1774   1770   1799     1  0.0000000  0.6508444  3
   1776   1774   1786   1792     1  0.0000000  0.6508444  3
   1776   1774   1786   1787     1  0.0000000  0.6508444  3
   1776   1774   1786   1788     1  0.0000000  0.6508444  3
   1777   1780   1789   1790     1  0.0000000  0.6508444  3
   1777   1780   1789   1791     1  0.0000000  0.6508444  3
   1778   1777   1770   1799     1  0.0000000  0.6508444  3
   1778   1777   1780   1789     1  0.0000000  0.6508444  3
   1778   1777   1780   1781     1  0.0000000  0.6508444  3
   1778   1777   1780   1782     1  0.0000000  0.6508444  3
   1779   1777   1770   1799     1  0.0000000  0.6508444  3
   1779   1777   1780   1789     1  0.0000000  0.6508444  3
   1779   1777   1780   1781     1  0.0000000  0.6508444  3
   1779   1777   1780   1782     1  0.0000000  0.6508444  3
   1780   1777   1770   1799     1  0.0000000  0.6508444  3
   1781   1780   1789   1798     1  0.0000000  1.0460000  1
   1781   1780   1789   1798     1  0.0000000  0.0000000  3
   1781   1780   1789   1790     1  0.0000000  0.6508444  3
   1781   1780   1789   1791     1  0.0000000  0.6508444  3
   1782   1780   1789   1798     1  0.0000000  1.0460000  1
   1782   1780   1789   1798     1  0.0000000  0.0000000  3
   1782   1780   1789   1790     1  0.0000000  0.6508444  3
   1782   1780   1789   1791     1  0.0000000  0.6508444  3
   1783   1771   1770   1799     1  0.0000000  0.6508444  3
   1784   1783   1795   3778     1  0.0000000  1.0460000  1
   1784   1783   1795   3778     1  0.0000000  0.0000000  3
   1784   1783   1795   1796     1  0.0000000  0.6508444  3
   1784   1783   1795   1797     1  0.0000000  0.6508444  3
   1785   1783   1795   3778     1  0.0000000  1.0460000  1
   1785   1783   1795   3778     1  0.0000000  0.0000000  3
   1785   1783   1795   1796     1  0.0000000  0.6508444  3
   1785   1783   1795   1797     1  0.0000000  0.6508444  3
   1786   1774   1770   1799     1  0.0000000  0.6508444  3
   1787   1786   1792   3746     1  0.0000000  1.0460000  1
   1787   1786   1792   3746     1  0.0000000  0.0000000  3
   1787   1786   1792   1793     1  0.0000000  0.6508444  3
   1787   1786   1792   1794     1  0.0000000  0.6508444  3
   1788   1786   1792   3746     1  0.0000000  1.0460000  1
   1788   1786   1792   3746     1  0.0000000  0.0000000  3
   1788   1786   1792   1793     1  0.0000000  0.6508444  3
   1788   1786   1792   1794     1  0.0000000  0.6508444  3
   1792   3746   3716   3717     1  0.0000000  1.6038667  3
   1792   3746   3716   3718     1  0.0000000  1.6038667  3
   1793   1792   3746   3716     1  0.0000000  1.6038667  3
   1794   1792   3746   3716     1  0.0000000  1.6038667  3
   1795   3778   3748   3749     1  0.0000000  1.6038667  3
   1795   3778   3748   3750     1  0.0000000  1.6038667  3
   1796   1795   3778   3748     1  0.0000000  1.6038667  3
   1797   1795   3778   3748     1  0.0000000  1.6038667  3
   1800   1801   1813   1814     1  0.0000000  0.6508444  3
   1800   1801   1813   1815     1  0.0000000  0.6508444  3
   1800   1804   1816   1817     1  0.0000000  0.6508444  3
   1800   1804   1816   1818     1  0.0000000  0.6508444  3
   1800   1807   1810   1811     1  0.0000000  0.6508444  3
   1800   1807   1810   1812     1  0.0000000  0.6508444  3
   1801   1800   1804   1805     1  0.0000000  0.6508444  3
   1801   1800   1804   1806     1  0.0000000  0.6508444  3
   1801   1800   1807   1808     1  0.0000000  0.6508444  3
   1801   1800   1807   1809     1  0.0000000  0.6508444  3
   1801   1813   1825   1826     1  0.0000000  0.6508444  3
   1801   1813   1825   1827     1  0.0000000  0.6508444  3
   1802   1801   1800   1804     1  0.0000000  0.6508444  3
   1802   1801   1800   1807     1  0.0000000  0.6508444  3
   1802   1801   1800   1829     1  0.0000000  0.6508444  3
   1802   1801   1813   1825     1  0.0000000  0.6508444  3
   1802   1801   1813   1814     1  0.0000000  0.6508444  3
   1802   1801   1813   1815     1  0.0000000  0.6508444  3
   1803   1801   1800   1804     1  0.0000000  0.6508444  3
   1803   1801   1800   1807     1  0.0000000  0.6508444  3
   1803   1801   1800   1829     1  0.0000000  0.6508444  3
   1803   1801   1813   1825     1  0.0000000  0.6508444  3
   1803   1801   1813   1814     1  0.0000000  0.6508444  3
   1803   1801   1813   1815     1  0.0000000  0.6508444  3
   1804   1800   1807   1808     1  0.0000000  0.6508444  3
   1804   1800   1807   1809     1  0.0000000  0.6508444  3
   1804   1816   1822   1823     1  0.0000000  0.6508444  3
   1804   1816   1822   1824     1  0.0000000  0.6508444  3
   1805   1804   1800   1807     1  0.0000000  0.6508444  3
   1805   1804   1800   1829     1  0.0000000  0.6508444  3
   1805   1804   1816   1822     1  0.0000000  0.6508444  3
   1805   1804   1816   1817     1  0.0000000  0.6508444  3
   1805   1804   1816   1818     1  0.0000000  0.6508444  3
   1806   1804   1800   1807     1  0.0000000  0.6508444  3
   1806   1804   1800   1829     1  0.0000000  0.6508444  3
   1806   1804   1816   1822     1  0.0000000  0.6508444  3
   1806   1804   1816   1817     1  0.0000000  0.6508444  3
   1806   1804   1816   1818     1  0.0000000  0.6508444  3
   1807   1810   1819   1820     1  0.0000000  0.6508444  3
   1807   1810   1819   1821     1  0.0000000  0.6508444  3
   1808   1807   1800   1829     1  0.0000000  0.6508444  3
   1808   1807   1810   1819     1  0.0000000  0.6508444  3
   1808   1807   1810   1811     1  0.0000000  0.6508444  3
   1808   1807   1810   1812     1  0.0000000  0.6508444  3
   1809   1807   1800   1829     1  0.0000000  0.6508444  3
   1809   1807   1810   1819     1  0.0000000  0.6508444  3
   1809   1807   1810   1811     1  0.0000000  0.6508444  3
   1809   1807   1810   1812     1  0.0000000  0.6508444  3
   1810   1807   1800   1829     1  0.0000000  0.6508444  3
   1811   1810   1819   1828     1  0.0000000  1.0460000  1
   1811   1810   1819   1828     1  0.0000000  0.0000000  3
   1811   1810   1819   1820     1  0.0000000  0.6508444  3
   1811   1810   1819   1821     1  0.0000000  0.6508444  3
   1812   1810   1819   1828     1  0.0000000  1.0460000  1
   1812   1810   1819   1828     1  0.0000000  0.0000000  3
   1812   1810   1819   1820     1  0.0000000  0.6508444  3
   1812   1810   1819   1821     1  0.0000000  0.6508444  3
   1813   1801   1800   1829     1  0.0000000  0.6508444  3
   1814   1813   1825   3842     1  0.0000000  1.0460000  1
   1814   1813   1825   3842     1  0.0000000  0.0000000  3
   1814   1813   1825   1826     1  0.0000000  0.6508444  3
   1814   1813   1825   1827     1  0.0000000  0.6508444  3
   1815   1813   1825   3842     1  0.0000000  1.0460000  1
   1815   1813   1825   3842     1  0.0000000  0.0000000  3
   1815   1813   1825   1826     1  0.0000000  0.6508444  3
   1815   1813   1825   1827     1  0.0000000  0.6508444  3
   1816   1804   1800   1829     1  0.0000000  0.6508444  3
   1817   1816   1822   3810     1  0.0000000  1.0460000  1
   1817   1816   1822   3810     1  0.0000000  0.0000000  3
   1817   1816   1822   1823     1  0.0000000  0.6508444  3
   1817   1816   1822   1824     1  0.0000000  0.6508444  3
   1818   1816   1822   3810     1  0.0000000  1.0460000  1
   1818   1816   1822   3810     1  0.0000000  0.0000000  3
   1818   1816   1822   1823     1  0.0000000  0.6508444  3
   1818   1816   1822   1824     1  0.0000000  0.6508444  3
   1822   3810   3780   3781     1  0.0000000  1.6038667  3
   1822   3810   3780   3782     1  0.0000000  1.6038667  3
   1823   1822   3810   3780     1  0.0000000  1.6038667  3
   1824   1822   3810   3780     1  0.0000000  1.6038667  3
   1825   3842   3812   3813     1  0.0000000  1.6038667  3
   1825   3842   3812   3814     1  0.0000000  1.6038667  3
   1826   1825   3842   3812     1  0.0000000  1.6038667  3
   1827   1825   3842   3812     1  0.0000000  1.6038667  3
   1830   1831   1843   1844     1  0.0000000  0.6508444  3
   1830   1831   1843   1845     1  0.0000000  0.6508444  3
   1830   1834   1846   1847     1  0.0000000  0.6508444  3
   1830   1834   1846   1848     1  0.0000000  0.6508444  3
   1830   1837   1840   1841     1  0.0000000  0.6508444  3
   1830   1837   1840   1842     1  0.0000000  0.6508444  3
   1831   1830   1834   1835     1  0.0000000  0.6508444  3
   1831   1830   1834   1836     1  0.0000000  0.6508444  3
   1831   1830   1837   1838     1  0.0000000  0.6508444  3
   1831   1830   1837   1839     1  0.0000000  0.6508444  3
   1831   1843   1855   1856     1  0.0000000  0.6508444  3
   1831   1843   1855   1857     1  0.0000000  0.6508444  3
   1832   1831   1830   1834     1  0.0000000  0.6508444  3
   1832   1831   1830   1837     1  0.0000000  0.6508444  3
   1832   1831   1830   1859     1  0.0000000  0.6508444  3
   1832   1831   1843   1855     1  0.0000000  0.6508444  3
   1832   1831   1843   1844     1  0.0000000  0.6508444  3
   1832   1831   1843   1845     1  0.0000000  0.6508444  3
   1833   1831   1830   1834     1  0.0000000  0.6508444  3
   1833   1831   1830   1837     1  0.0000000  0.6508444  3
   1833   1831   1830   1859     1  0.0000000  0.6508444  3
   1833   1831   1843   1855     1  0.0000000  0.6508444  3
   1833   1831   1843   1844     1  0.0000000  0.6508444  3
   1833   1831   1843   1845     1  0.0000000  0.6508444  3
   1834   1830   1837   1838     1  0.0000000  0.6508444  3
   1834   1830   1837   1839     1  0.0000000  0.6508444  3
   1834   1846   1852   1853     1  0.0000000  0.6508444  3
   1834   1846   1852   1854     1  0.0000000  0.6508444  3
   1835   1834   1830   1837     1  0.0000000  0.6508444  3
   1835   1834   1830   1859     1  0.0000000  0.6508444  3
   1835   1834   1846   1852     1  0.0000000  0.6508444  3
   1835   1834   1846   1847     1  0.0000000  0.6508444  3
   1835   1834   1846   1848     1  0.0000000  0.6508444  3
   1836   1834   1830   1837     1  0.0000000  0.6508444  3
   1836   1834   1830   1859     1  0.0000000  0.6508444  3
   1836   1834   1846   1852     1  0.0000000  0.6508444  3
   1836   1834   1846   1847     1  0.0000000  0.6508444  3
   1836   1834   1846   1848     1  0.0000000  0.6508444  3
   1837   1840   1849   1850     1  0.0000000  0.6508444  3
   1837   1840   1849   1851     1  0.0000000  0.6508444  3
   1838   1837   1830   1859     1  0.0000000  0.6508444  3
   1838   1837   1840   1849     1  0.0000000  0.6508444  3
   1838   1837   1840   1841     1  0.0000000  0.6508444  3
   1838   1837   1840   1842     1  0.0000000  0.6508444  3
   1839   1837   1830   1859     1  0.0000000  0.6508444  3
   1839   1837   1840   1849     1  0.0000000  0.6508444  3
   1839   1837   1840   1841     1  0.0000000  0.6508444  3
   1839   1837   1840   1842     1  0.0000000  0.6508444  3
   1840   1837   1830   1859     1  0.0000000  0.6508444  3
   1841   1840   1849   1858     1  0.0000000  1.0460000  1
   1841   1840   1849   1858     1  0.0000000  0.0000000  3
   1841   1840   1849   1850     1  0.0000000  0.6508444  3
   1841   1840   1849   1851     1  0.0000000  0.6508444  3
   1842   1840   1849   1858     1  0.0000000  1.0460000  1
   1842   1840   1849   1858     1  0.0000000  0.0000000  3
   1842   1840   1849   1850     1  0.0000000  0.6508444  3
   1842   1840   1849   1851     1  0.0000000  0.6508444  3
   1843   1831   1830   1859     1  0.0000000  0.6508444  3
   1844   1843   1855   3906     1  0.0000000  1.0460000  1
   1844   1843   1855   3906     1  0.0000000  0.0000000  3
   1844   1843   1855   1856     1  0.0000000  0.6508444  3
   1844   1843   1855   1857     1  0.0000000  0.6508444  3
   1845   1843   1855   3906     1  0.0000000  1.0460000  1
   1845   1843   1855   3906     1  0.0000000  0.0000000  3
   1845   1843   1855   1856     1  0.0000000  0.6508444  3
   1845   1843   1855   1857     1  0.0000000  0.6508444  3
   1846   1834   1830   1859     1  0.0000000  0.6508444  3
   1847   1846   1852   3874     1  0.0000000  1.0460000  1
   1847   1846   1852   3874     1  0.0000000  0.0000000  3
   1847   1846   1852   1853     1  0.0000000  0.6508444  3
   1847   1846   1852   1854     1  0.0000000  0.6508444  3
   1848   1846   1852   3874     1  0.0000000  1.0460000  1
   1848   1846   1852   3874     1  0.0000000  0.0000000  3
   1848   1846   1852   1853     1  0.0000000  0.6508444  3
   1848   1846   1852   1854     1  0.0000000  0.6508444  3
   1852   3874   3844   3845     1  0.0000000  1.6038667  3
   1852   3874   3844   3846     1  0.0000000  1.6038667  3
   1853   1852   3874   3844     1  0.0000000  1.6038667  3
   1854   1852   3874   3844     1  0.0000000  1.6038667  3
   1855   3906   3876   3877     1  0.0000000  1.6038667  3
   1855   3906   3876   3878     1  0.0000000  1.6038667  3
   1856   1855   3906   3876     1  0.0000000  1.6038667  3
   1857   1855   3906   3876     1  0.0000000  1.6038667  3
   1860   1863   1866   1867     1  0.0000000  0.6508444  3
   1860   1863   1866   1868     1  0.0000000  0.6508444  3
   1861   1860   1863   1866     1  0.0000000  0.6508444  3
   1861   1860   1863   1864     1  0.0000000  0.6508444  3
   1861   1860   1863   1865     1  0.0000000  0.6508444  3
   1862   1860   1863   1866     1  0.0000000  0.6508444  3
   1862   1860   1863   1864     1  0.0000000  0.6508444  3
   1862   1860   1863   1865     1  0.0000000  0.6508444  3
   1863   1866   1869   1891     1  0.0000000  0.6508444  3
   1864   1863   1860   1890     1  0.0000000  1.0460000  1
   1864   1863   1860   1890     1  0.0000000  0.0000000  3
   1864   1863   1866   1869     1  0.0000000  0.6508444  3
   1864   1863   1866   1867     1  0.0000000  0.6508444  3
   1864   1863   1866   1868     1  0.0000000  0.6508444  3
   1865   1863   1860   1890     1  0.0000000  1.0460000  1
   1865   1863   1860   1890     1  0.0000000  0.0000000  3
   1865   1863   1866   1869     1  0.0000000  0.6508444  3
   1865   1863   1866   1867     1  0.0000000  0.6508444  3
   1865   1863   1866   1868     1  0.0000000  0.6508444  3
   1866   1869   1870   1871     1  0.0000000  0.6508444  3
   1866   1869   1870   1872     1  0.0000000  0.6508444  3
   1866   1869   1880   1881     1  0.0000000  0.6508444  3
   1866   1869   1880   1882     1  0.0000000  0.6508444  3
   1867   1866   1869   1870     1  0.0000000  0.6508444  3
   1867   1866   1869   1880     1  0.0000000  0.6508444  3
   1867   1866   1869   1891     1  0.0000000  0.6508444  3
   1868   1866   1869   1870     1  0.0000000  0.6508444  3
   1868   1866   1869   1880     1  0.0000000  0.6508444  3
   1868   1866   1869   1891     1  0.0000000  0.6508444  3
   1869   1870   1873   1874     1  0.0000000  0.6508444  3
   1869   1870   1873   1875     1  0.0000000  0.6508444  3
   1869   1880   1883   1884     1  0.0000000  0.6508444  3
   1869   1880   1883   1885     1  0.0000000  0.6508444  3
   1870   1869   1880   1881     1  0.0000000  0.6508444  3
   1870   1869   1880   1882     1  0.0000000  0.6508444  3
   1871   1870   1869   1880     1  0.0000000  0.6508444  3
   1871   1870   1869   1891     1  0.0000000  0.6508444  3
   1871   1870   1873   1876     1  0.0000000  0.6508444  3
   1871   1870   1873   1874     1  0.0000000  0.6508444  3
   1871   1870   1873   1875     1  0.0000000  0.6508444  3
   1872   1870   1869   1880     1  0.0000000  0.6508444  3
   1872   1870   1869   1891     1  0.0000000  0.6508444  3
   1872   1870   1873   1876     1  0.0000000  0.6508444  3
   1872   1870   1873   1874     1  0.0000000  0.6508444  3
   1872   1870   1873   1875     1  0.0000000  0.6508444  3
   1873   1870   1869   1891     1  0.0000000  0.6508444  3
   1873   1876   1878   1879     1  180.0000771  9.6232000  2
   1874   1873   1876   1877     1  0.0000000  3.3472000  1
   1874   1873   1876   1877     1  0.0000000  0.0000000  2
   1874   1873   1876   1877     1  180.0000771  0.3347200  3
   1874   1873   1876   1878     1  180.0000771  0.0000000  2
   1875   1873   1876   1877     1  0.0000000  3.3472000  1
   1875   1873   1876   1877     1  0.0000000  0.0000000  2
   1875   1873   1876   1877     1  180.0000771  0.3347200  3
   1875   1873   1876   1878     1  180.0000771  0.0000000  2
   1877   1876   1878   1879     1  0.0000000  7.9496000  1
   1877   1876   1878   1879     1  180.0000771  9.6232000  2
   1881   1880   1869   1891     1  0.0000000  0.6508444  3
   1881   1880   1883   1886     1  0.0000000  0.6508444  3
   1881   1880   1883   1884     1  0.0000000  0.6508444  3
   1881   1880   1883   1885     1  0.0000000  0.6508444  3
   1882   1880   1869   1891     1  0.0000000  0.6508444  3
   1882   1880   1883   1886     1  0.0000000  0.6508444  3
   1882   1880   1883   1884     1  0.0000000  0.6508444  3
   1882   1880   1883   1885     1  0.0000000  0.6508444  3
   1883   1880   1869   1891     1  0.0000000  0.6508444  3
   1883   1886   1888   1889     1  180.0000771  9.6232000  2
   1884   1883   1886   1887     1  0.0000000  3.3472000  1
   1884   1883   1886   1887     1  0.0000000  0.0000000  2
   1884   1883   1886   1887     1  180.0000771  0.3347200  3
   1884   1883   1886   1888     1  180.0000771  0.0000000  2
   1885   1883   1886   1887     1  0.0000000  3.3472000  1
   1885   1883   1886   1887     1  0.0000000  0.0000000  2
   1885   1883   1886   1887     1  180.0000771  0.3347200  3
   1885   1883   1886   1888     1  180.0000771  0.0000000  2
   1887   1886   1888   1889     1  0.0000000  7.9496000  1
   1887   1886   1888   1889     1  180.0000771  9.6232000  2
   1892   1895   1898   1899     1  0.0000000  0.6508444  3
   1892   1895   1898   1900     1  0.0000000  0.6508444  3
   1893   1892   1895   1898     1  0.0000000  0.6508444  3
   1893   1892   1895   1896     1  0.0000000  0.6508444  3
   1893   1892   1895   1897     1  0.0000000  0.6508444  3
   1894   1892   1895   1898     1  0.0000000  0.6508444  3
   1894   1892   1895   1896     1  0.0000000  0.6508444  3
   1894   1892   1895   1897     1  0.0000000  0.6508444  3
   1895   1898   1901   1923     1  0.0000000  0.6508444  3
   1896   1895   1898   1901     1  0.0000000  0.6508444  3
   1896   1895   1898   1899     1  0.0000000  0.6508444  3
   1896   1895   1898   1900     1  0.0000000  0.6508444  3
   1896   1895   1892   1922     1  0.0000000  1.0460000  1
   1896   1895   1892   1922     1  0.0000000  0.0000000  3
   1897   1895   1898   1901     1  0.0000000  0.6508444  3
   1897   1895   1898   1899     1  0.0000000  0.6508444  3
   1897   1895   1898   1900     1  0.0000000  0.6508444  3
   1897   1895   1892   1922     1  0.0000000  1.0460000  1
   1897   1895   1892   1922     1  0.0000000  0.0000000  3
   1898   1901   1902   1903     1  0.0000000  0.6508444  3
   1898   1901   1902   1904     1  0.0000000  0.6508444  3
   1898   1901   1912   1913     1  0.0000000  0.6508444  3
   1898   1901   1912   1914     1  0.0000000  0.6508444  3
   1899   1898   1901   1902     1  0.0000000  0.6508444  3
   1899   1898   1901   1912     1  0.0000000  0.6508444  3
   1899   1898   1901   1923     1  0.0000000  0.6508444  3
   1900   1898   1901   1902     1  0.0000000  0.6508444  3
   1900   1898   1901   1912     1  0.0000000  0.6508444  3
   1900   1898   1901   1923     1  0.0000000  0.6508444  3
   1901   1902   1905   1906     1  0.0000000  0.6508444  3
   1901   1902   1905   1907     1  0.0000000  0.6508444  3
   1901   1912   1915   1916     1  0.0000000  0.6508444  3
   1901   1912   1915   1917     1  0.0000000  0.6508444  3
   1902   1901   1912   1913     1  0.0000000  0.6508444  3
   1902   1901   1912   1914     1  0.0000000  0.6508444  3
   1903   1902   1905   1908     1  0.0000000  0.6508444  3
   1903   1902   1905   1906     1  0.0000000  0.6508444  3
   1903   1902   1905   1907     1  0.0000000  0.6508444  3
   1903   1902   1901   1912     1  0.0000000  0.6508444  3
   1903   1902   1901   1923     1  0.0000000  0.6508444  3
   1904   1902   1905   1908     1  0.0000000  0.6508444  3
   1904   1902   1905   1906     1  0.0000000  0.6508444  3
   1904   1902   1905   1907     1  0.0000000  0.6508444  3
   1904   1902   1901   1912     1  0.0000000  0.6508444  3
   1904   1902   1901   1923     1  0.0000000  0.6508444  3
   1905   1908   1910   1911     1  180.0000771  9.6232000  2
   1905   1902   1901   1923     1  0.0000000  0.6508444  3
   1906   1905   1908   1909     1  0.0000000  3.3472000  1
   1906   1905   1908   1909     1  0.0000000  0.0000000  2
   1906   1905   1908   1909     1  180.0000771  0.3347200  3
   1906   1905   1908   1910     1  180.0000771  0.0000000  2
   1907   1905   1908   1909     1  0.0000000  3.3472000  1
   1907   1905   1908   1909     1  0.0000000  0.0000000  2
   1907   1905   1908   1909     1  180.0000771  0.3347200  3
   1907   1905   1908   1910     1  180.0000771  0.0000000  2
   1909   1908   1910   1911     1  0.0000000  7.9496000  1
   1909   1908   1910   1911     1  180.0000771  9.6232000  2
   1913   1912   1915   1918     1  0.0000000  0.6508444  3
   1913   1912   1915   1916     1  0.0000000  0.6508444  3
   1913   1912   1915   1917     1  0.0000000  0.6508444  3
   1913   1912   1901   1923     1  0.0000000  0.6508444  3
   1914   1912   1915   1918     1  0.0000000  0.6508444  3
   1914   1912   1915   1916     1  0.0000000  0.6508444  3
   1914   1912   1915   1917     1  0.0000000  0.6508444  3
   1914   1912   1901   1923     1  0.0000000  0.6508444  3
   1915   1918   1920   1921     1  180.0000771  9.6232000  2
   1915   1912   1901   1923     1  0.0000000  0.6508444  3
   1916   1915   1918   1919     1  0.0000000  3.3472000  1
   1916   1915   1918   1919     1  0.0000000  0.0000000  2
   1916   1915   1918   1919     1  180.0000771  0.3347200  3
   1916   1915   1918   1920     1  180.0000771  0.0000000  2
   1917   1915   1918   1919     1  0.0000000  3.3472000  1
   1917   1915   1918   1919     1  0.0000000  0.0000000  2
   1917   1915   1918   1919     1  180.0000771  0.3347200  3
   1917   1915   1918   1920     1  180.0000771  0.0000000  2
   1919   1918   1920   1921     1  0.0000000  7.9496000  1
   1919   1918   1920   1921     1  180.0000771  9.6232000  2
   1924   1927   1930   1931     1  0.0000000  0.6508444  3
   1924   1927   1930   1932     1  0.0000000  0.6508444  3
   1925   1924   1927   1930     1  0.0000000  0.6508444  3
   1925   1924   1927   1928     1  0.0000000  0.6508444  3
   1925   1924   1927   1929     1  0.0000000  0.6508444  3
   1926   1924   1927   1930     1  0.0000000  0.6508444  3
   1926   1924   1927   1928     1  0.0000000  0.6508444  3
   1926   1924   1927   1929     1  0.0000000  0.6508444  3
   1927   1930   1933   1955     1  0.0000000  0.6508444  3
   1928   1927   1924   1954     1  0.0000000  1.0460000  1
   1928   1927   1924   1954     1  0.0000000  0.0000000  3
   1928   1927   1930   1933     1  0.0000000  0.6508444  3
   1928   1927   1930   1931     1  0.0000000  0.6508444  3
   1928   1927   1930   1932     1  0.0000000  0.6508444  3
   1929   1927   1924   1954     1  0.0000000  1.0460000  1
   1929   1927   1924   1954     1  0.0000000  0.0000000  3
   1929   1927   1930   1933     1  0.0000000  0.6508444  3
   1929   1927   1930   1931     1  0.0000000  0.6508444  3
   1929   1927   1930   1932     1  0.0000000  0.6508444  3
   1930   1933   1934   1935     1  0.0000000  0.6508444  3
   1930   1933   1934   1936     1  0.0000000  0.6508444  3
   1930   1933   1944   1945     1  0.0000000  0.6508444  3
   1930   1933   1944   1946     1  0.0000000  0.6508444  3
   1931   1930   1933   1934     1  0.0000000  0.6508444  3
   1931   1930   1933   1944     1  0.0000000  0.6508444  3
   1931   1930   1933   1955     1  0.0000000  0.6508444  3
   1932   1930   1933   1934     1  0.0000000  0.6508444  3
   1932   1930   1933   1944     1  0.0000000  0.6508444  3
   1932   1930   1933   1955     1  0.0000000  0.6508444  3
   1933   1934   1937   1938     1  0.0000000  0.6508444  3
   1933   1934   1937   1939     1  0.0000000  0.6508444  3
   1933   1944   1947   1948     1  0.0000000  0.6508444  3
   1933   1944   1947   1949     1  0.0000000  0.6508444  3
   1934   1933   1944   1945     1  0.0000000  0.6508444  3
   1934   1933   1944   1946     1  0.0000000  0.6508444  3
   1935   1934   1933   1944     1  0.0000000  0.6508444  3
   1935   1934   1933   1955     1  0.0000000  0.6508444  3
   1935   1934   1937   1940     1  0.0000000  0.6508444  3
   1935   1934   1937   1938     1  0.0000000  0.6508444  3
   1935   1934   1937   1939     1  0.0000000  0.6508444  3
   1936   1934   1933   1944     1  0.0000000  0.6508444  3
   1936   1934   1933   1955     1  0.0000000  0.6508444  3
   1936   1934   1937   1940     1  0.0000000  0.6508444  3
   1936   1934   1937   1938     1  0.0000000  0.6508444  3
   1936   1934   1937   1939     1  0.0000000  0.6508444  3
   1937   1934   1933   1955     1  0.0000000  0.6508444  3
   1937   1940   1942   1943     1  180.0000771  9.6232000  2
   1938   1937   1940   1941     1  0.0000000  3.3472000  1
   1938   1937   1940   1941     1  0.0000000  0.0000000  2
   1938   1937   1940   1941     1  180.0000771  0.3347200  3
   1938   1937   1940   1942     1  180.0000771  0.0000000  2
   1939   1937   1940   1941     1  0.0000000  3.3472000  1
   1939   1937   1940   1941     1  0.0000000  0.0000000  2
   1939   1937   1940   1941     1  180.0000771  0.3347200  3
   1939   1937   1940   1942     1  180.0000771  0.0000000  2
   1941   1940   1942   1943     1  0.0000000  7.9496000  1
   1941   1940   1942   1943     1  180.0000771  9.6232000  2
   1945   1944   1933   1955     1  0.0000000  0.6508444  3
   1945   1944   1947   1950     1  0.0000000  0.6508444  3
   1945   1944   1947   1948     1  0.0000000  0.6508444  3
   1945   1944   1947   1949     1  0.0000000  0.6508444  3
   1946   1944   1933   1955     1  0.0000000  0.6508444  3
   1946   1944   1947   1950     1  0.0000000  0.6508444  3
   1946   1944   1947   1948     1  0.0000000  0.6508444  3
   1946   1944   1947   1949     1  0.0000000  0.6508444  3
   1947   1944   1933   1955     1  0.0000000  0.6508444  3
   1947   1950   1952   1953     1  180.0000771  9.6232000  2
   1948   1947   1950   1951     1  0.0000000  3.3472000  1
   1948   1947   1950   1951     1  0.0000000  0.0000000  2
   1948   1947   1950   1951     1  180.0000771  0.3347200  3
   1948   1947   1950   1952     1  180.0000771  0.0000000  2
   1949   1947   1950   1951     1  0.0000000  3.3472000  1
   1949   1947   1950   1951     1  0.0000000  0.0000000  2
   1949   1947   1950   1951     1  180.0000771  0.3347200  3
   1949   1947   1950   1952     1  180.0000771  0.0000000  2
   1951   1950   1952   1953     1  0.0000000  7.9496000  1
   1951   1950   1952   1953     1  180.0000771  9.6232000  2
   1956   1959   1962   1963     1  0.0000000  0.6508444  3
   1956   1959   1962   1964     1  0.0000000  0.6508444  3
   1957   1956   1959   1962     1  0.0000000  0.6508444  3
   1957   1956   1959   1960     1  0.0000000  0.6508444  3
   1957   1956   1959   1961     1  0.0000000  0.6508444  3
   1958   1956   1959   1962     1  0.0000000  0.6508444  3
   1958   1956   1959   1960     1  0.0000000  0.6508444  3
   1958   1956   1959   1961     1  0.0000000  0.6508444  3
   1959   1962   1965   1987     1  0.0000000  0.6508444  3
   1960   1959   1962   1965     1  0.0000000  0.6508444  3
   1960   1959   1962   1963     1  0.0000000  0.6508444  3
   1960   1959   1962   1964     1  0.0000000  0.6508444  3
   1960   1959   1956   1986     1  0.0000000  1.0460000  1
   1960   1959   1956   1986     1  0.0000000  0.0000000  3
   1961   1959   1962   1965     1  0.0000000  0.6508444  3
   1961   1959   1962   1963     1  0.0000000  0.6508444  3
   1961   1959   1962   1964     1  0.0000000  0.6508444  3
   1961   1959   1956   1986     1  0.0000000  1.0460000  1
   1961   1959   1956   1986     1  0.0000000  0.0000000  3
   1962   1965   1966   1967     1  0.0000000  0.6508444  3
   1962   1965   1966   1968     1  0.0000000  0.6508444  3
   1962   1965   1976   1977     1  0.0000000  0.6508444  3
   1962   1965   1976   1978     1  0.0000000  0.6508444  3
   1963   1962   1965   1966     1  0.0000000  0.6508444  3
   1963   1962   1965   1976     1  0.0000000  0.6508444  3
   1963   1962   1965   1987     1  0.0000000  0.6508444  3
   1964   1962   1965   1966     1  0.0000000  0.6508444  3
   1964   1962   1965   1976     1  0.0000000  0.6508444  3
   1964   1962   1965   1987     1  0.0000000  0.6508444  3
   1965   1966   1969   1970     1  0.0000000  0.6508444  3
   1965   1966   1969   1971     1  0.0000000  0.6508444  3
   1965   1976   1979   1980     1  0.0000000  0.6508444  3
   1965   1976   1979   1981     1  0.0000000  0.6508444  3
   1966   1965   1976   1977     1  0.0000000  0.6508444  3
   1966   1965   1976   1978     1  0.0000000  0.6508444  3
   1967   1966   1969   1972     1  0.0000000  0.6508444  3
   1967   1966   1969   1970     1  0.0000000  0.6508444  3
   1967   1966   1969   1971     1  0.0000000  0.6508444  3
   1967   1966   1965   1976     1  0.0000000  0.6508444  3
   1967   1966   1965   1987     1  0.0000000  0.6508444  3
   1968   1966   1969   1972     1  0.0000000  0.6508444  3
   1968   1966   1969   1970     1  0.0000000  0.6508444  3
   1968   1966   1969   1971     1  0.0000000  0.6508444  3
   1968   1966   1965   1976     1  0.0000000  0.6508444  3
   1968   1966   1965   1987     1  0.0000000  0.6508444  3
   1969   1972   1974   1975     1  180.0000771  9.6232000  2
   1969   1966   1965   1987     1  0.0000000  0.6508444  3
   1970   1969   1972   1973     1  0.0000000  3.3472000  1
   1970   1969   1972   1973     1  0.0000000  0.0000000  2
   1970   1969   1972   1973     1  180.0000771  0.3347200  3
   1970   1969   1972   1974     1  180.0000771  0.0000000  2
   1971   1969   1972   1973     1  0.0000000  3.3472000  1
   1971   1969   1972   1973     1  0.0000000  0.0000000  2
   1971   1969   1972   1973     1  180.0000771  0.3347200  3
   1971   1969   1972   1974     1  180.0000771  0.0000000  2
   1973   1972   1974   1975     1  0.0000000  7.9496000  1
   1973   1972   1974   1975     1  180.0000771  9.6232000  2
   1977   1976   1979   1982     1  0.0000000  0.6508444  3
   1977   1976   1979   1980     1  0.0000000  0.6508444  3
   1977   1976   1979   1981     1  0.0000000  0.6508444  3
   1977   1976   1965   1987     1  0.0000000  0.6508444  3
   1978   1976   1979   1982     1  0.0000000  0.6508444  3
   1978   1976   1979   1980     1  0.0000000  0.6508444  3
   1978   1976   1979   1981     1  0.0000000  0.6508444  3
   1978   1976   1965   1987     1  0.0000000  0.6508444  3
   1979   1982   1984   1985     1  180.0000771  9.6232000  2
   1979   1976   1965   1987     1  0.0000000  0.6508444  3
   1980   1979   1982   1983     1  0.0000000  3.3472000  1
   1980   1979   1982   1983     1  0.0000000  0.0000000  2
   1980   1979   1982   1983     1  180.0000771  0.3347200  3
   1980   1979   1982   1984     1  180.0000771  0.0000000  2
   1981   1979   1982   1983     1  0.0000000  3.3472000  1
   1981   1979   1982   1983     1  0.0000000  0.0000000  2
   1981   1979   1982   1983     1  180.0000771  0.3347200  3
   1981   1979   1982   1984     1  180.0000771  0.0000000  2
   1983   1982   1984   1985     1  0.0000000  7.9496000  1
   1983   1982   1984   1985     1  180.0000771  9.6232000  2
   1988   1991   1994   1995     1  0.0000000  0.6508444  3
   1988   1991   1994   1996     1  0.0000000  0.6508444  3
   1989   1988   1991   1994     1  0.0000000  0.6508444  3
   1989   1988   1991   1992     1  0.0000000  0.6508444  3
   1989   1988   1991   1993     1  0.0000000  0.6508444  3
   1990   1988   1991   1994     1  0.0000000  0.6508444  3
   1990   1988   1991   1992     1  0.0000000  0.6508444  3
   1990   1988   1991   1993     1  0.0000000  0.6508444  3
   1991   1994   1997   2019     1  0.0000000  0.6508444  3
   1992   1991   1988   2018     1  0.0000000  1.0460000  1
   1992   1991   1988   2018     1  0.0000000  0.0000000  3
   1992   1991   1994   1997     1  0.0000000  0.6508444  3
   1992   1991   1994   1995     1  0.0000000  0.6508444  3
   1992   1991   1994   1996     1  0.0000000  0.6508444  3
   1993   1991   1988   2018     1  0.0000000  1.0460000  1
   1993   1991   1988   2018     1  0.0000000  0.0000000  3
   1993   1991   1994   1997     1  0.0000000  0.6508444  3
   1993   1991   1994   1995     1  0.0000000  0.6508444  3
   1993   1991   1994   1996     1  0.0000000  0.6508444  3
   1994   1997   1998   1999     1  0.0000000  0.6508444  3
   1994   1997   1998   2000     1  0.0000000  0.6508444  3
   1994   1997   2008   2009     1  0.0000000  0.6508444  3
   1994   1997   2008   2010     1  0.0000000  0.6508444  3
   1995   1994   1997   1998     1  0.0000000  0.6508444  3
   1995   1994   1997   2008     1  0.0000000  0.6508444  3
   1995   1994   1997   2019     1  0.0000000  0.6508444  3
   1996   1994   1997   1998     1  0.0000000  0.6508444  3
   1996   1994   1997   2008     1  0.0000000  0.6508444  3
   1996   1994   1997   2019     1  0.0000000  0.6508444  3
   1997   1998   2001   2002     1  0.0000000  0.6508444  3
   1997   1998   2001   2003     1  0.0000000  0.6508444  3
   1997   2008   2011   2012     1  0.0000000  0.6508444  3
   1997   2008   2011   2013     1  0.0000000  0.6508444  3
   1998   1997   2008   2009     1  0.0000000  0.6508444  3
   1998   1997   2008   2010     1  0.0000000  0.6508444  3
   1999   1998   1997   2008     1  0.0000000  0.6508444  3
   1999   1998   1997   2019     1  0.0000000  0.6508444  3
   1999   1998   2001   2004     1  0.0000000  0.6508444  3
   1999   1998   2001   2002     1  0.0000000  0.6508444  3
   1999   1998   2001   2003     1  0.0000000  0.6508444  3
   2000   1998   1997   2008     1  0.0000000  0.6508444  3
   2000   1998   1997   2019     1  0.0000000  0.6508444  3
   2000   1998   2001   2004     1  0.0000000  0.6508444  3
   2000   1998   2001   2002     1  0.0000000  0.6508444  3
   2000   1998   2001   2003     1  0.0000000  0.6508444  3
   2001   1998   1997   2019     1  0.0000000  0.6508444  3
   2001   2004   2006   2007     1  180.0000771  9.6232000  2
   2002   2001   2004   2005     1  0.0000000  3.3472000  1
   2002   2001   2004   2005     1  0.0000000  0.0000000  2
   2002   2001   2004   2005     1  180.0000771  0.3347200  3
   2002   2001   2004   2006     1  180.0000771  0.0000000  2
   2003   2001   2004   2005     1  0.0000000  3.3472000  1
   2003   2001   2004   2005     1  0.0000000  0.0000000  2
   2003   2001   2004   2005     1  180.0000771  0.3347200  3
   2003   2001   2004   2006     1  180.0000771  0.0000000  2
   2005   2004   2006   2007     1  0.0000000  7.9496000  1
   2005   2004   2006   2007     1  180.0000771  9.6232000  2
   2009   2008   1997   2019     1  0.0000000  0.6508444  3
   2009   2008   2011   2014     1  0.0000000  0.6508444  3
   2009   2008   2011   2012     1  0.0000000  0.6508444  3
   2009   2008   2011   2013     1  0.0000000  0.6508444  3
   2010   2008   1997   2019     1  0.0000000  0.6508444  3
   2010   2008   2011   2014     1  0.0000000  0.6508444  3
   2010   2008   2011   2012     1  0.0000000  0.6508444  3
   2010   2008   2011   2013     1  0.0000000  0.6508444  3
   2011   2008   1997   2019     1  0.0000000  0.6508444  3
   2011   2014   2016   2017     1  180.0000771  9.6232000  2
   2012   2011   2014   2015     1  0.0000000  3.3472000  1
   2012   2011   2014   2015     1  0.0000000  0.0000000  2
   2012   2011   2014   2015     1  180.0000771  0.3347200  3
   2012   2011   2014   2016     1  180.0000771  0.0000000  2
   2013   2011   2014   2015     1  0.0000000  3.3472000  1
   2013   2011   2014   2015     1  0.0000000  0.0000000  2
   2013   2011   2014   2015     1  180.0000771  0.3347200  3
   2013   2011   2014   2016     1  180.0000771  0.0000000  2
   2015   2014   2016   2017     1  0.0000000  7.9496000  1
   2015   2014   2016   2017     1  180.0000771  9.6232000  2
   2020   2023   2026   2027     1  0.0000000  0.6508444  3
   2020   2023   2026   2028     1  0.0000000  0.6508444  3
   2021   2020   2023   2026     1  0.0000000  0.6508444  3
   2021   2020   2023   2024     1  0.0000000  0.6508444  3
   2021   2020   2023   2025     1  0.0000000  0.6508444  3
   2022   2020   2023   2026     1  0.0000000  0.6508444  3
   2022   2020   2023   2024     1  0.0000000  0.6508444  3
   2022   2020   2023   2025     1  0.0000000  0.6508444  3
   2023   2026   2029   2051     1  0.0000000  0.6508444  3
   2024   2023   2026   2029     1  0.0000000  0.6508444  3
   2024   2023   2026   2027     1  0.0000000  0.6508444  3
   2024   2023   2026   2028     1  0.0000000  0.6508444  3
   2024   2023   2020   2050     1  0.0000000  1.0460000  1
   2024   2023   2020   2050     1  0.0000000  0.0000000  3
   2025   2023   2026   2029     1  0.0000000  0.6508444  3
   2025   2023   2026   2027     1  0.0000000  0.6508444  3
   2025   2023   2026   2028     1  0.0000000  0.6508444  3
   2025   2023   2020   2050     1  0.0000000  1.0460000  1
   2025   2023   2020   2050     1  0.0000000  0.0000000  3
   2026   2029   2030   2031     1  0.0000000  0.6508444  3
   2026   2029   2030   2032     1  0.0000000  0.6508444  3
   2026   2029   2040   2041     1  0.0000000  0.6508444  3
   2026   2029   2040   2042     1  0.0000000  0.6508444  3
   2027   2026   2029   2030     1  0.0000000  0.6508444  3
   2027   2026   2029   2040     1  0.0000000  0.6508444  3
   2027   2026   2029   2051     1  0.0000000  0.6508444  3
   2028   2026   2029   2030     1  0.0000000  0.6508444  3
   2028   2026   2029   2040     1  0.0000000  0.6508444  3
   2028   2026   2029   2051     1  0.0000000  0.6508444  3
   2029   2030   2033   2034     1  0.0000000  0.6508444  3
   2029   2030   2033   2035     1  0.0000000  0.6508444  3
   2029   2040   2043   2044     1  0.0000000  0.6508444  3
   2029   2040   2043   2045     1  0.0000000  0.6508444  3
   2030   2029   2040   2041     1  0.0000000  0.6508444  3
   2030   2029   2040   2042     1  0.0000000  0.6508444  3
   2031   2030   2033   2036     1  0.0000000  0.6508444  3
   2031   2030   2033   2034     1  0.0000000  0.6508444  3
   2031   2030   2033   2035     1  0.0000000  0.6508444  3
   2031   2030   2029   2040     1  0.0000000  0.6508444  3
   2031   2030   2029   2051     1  0.0000000  0.6508444  3
   2032   2030   2033   2036     1  0.0000000  0.6508444  3
   2032   2030   2033   2034     1  0.0000000  0.6508444  3
   2032   2030   2033   2035     1  0.0000000  0.6508444  3
   2032   2030   2029   2040     1  0.0000000  0.6508444  3
   2032   2030   2029   2051     1  0.0000000  0.6508444  3
   2033   2036   2038   2039     1  180.0000771  9.6232000  2
   2033   2030   2029   2051     1  0.0000000  0.6508444  3
   2034   2033   2036   2037     1  0.0000000  3.3472000  1
   2034   2033   2036   2037     1  0.0000000  0.0000000  2
   2034   2033   2036   2037     1  180.0000771  0.3347200  3
   2034   2033   2036   2038     1  180.0000771  0.0000000  2
   2035   2033   2036   2037     1  0.0000000  3.3472000  1
   2035   2033   2036   2037     1  0.0000000  0.0000000  2
   2035   2033   2036   2037     1  180.0000771  0.3347200  3
   2035   2033   2036   2038     1  180.0000771  0.0000000  2
   2037   2036   2038   2039     1  0.0000000  7.9496000  1
   2037   2036   2038   2039     1  180.0000771  9.6232000  2
   2041   2040   2043   2046     1  0.0000000  0.6508444  3
   2041   2040   2043   2044     1  0.0000000  0.6508444  3
   2041   2040   2043   2045     1  0.0000000  0.6508444  3
   2041   2040   2029   2051     1  0.0000000  0.6508444  3
   2042   2040   2043   2046     1  0.0000000  0.6508444  3
   2042   2040   2043   2044     1  0.0000000  0.6508444  3
   2042   2040   2043   2045     1  0.0000000  0.6508444  3
   2042   2040   2029   2051     1  0.0000000  0.6508444  3
   2043   2046   2048   2049     1  180.0000771  9.6232000  2
   2043   2040   2029   2051     1  0.0000000  0.6508444  3
   2044   2043   2046   2047     1  0.0000000  3.3472000  1
   2044   2043   2046   2047     1  0.0000000  0.0000000  2
   2044   2043   2046   2047     1  180.0000771  0.3347200  3
   2044   2043   2046   2048     1  180.0000771  0.0000000  2
   2045   2043   2046   2047     1  0.0000000  3.3472000  1
   2045   2043   2046   2047     1  0.0000000  0.0000000  2
   2045   2043   2046   2047     1  180.0000771  0.3347200  3
   2045   2043   2046   2048     1  180.0000771  0.0000000  2
   2047   2046   2048   2049     1  0.0000000  7.9496000  1
   2047   2046   2048   2049     1  180.0000771  9.6232000  2
   2052   2055   2058   2059     1  0.0000000  0.6508444  3
   2052   2055   2058   2060     1  0.0000000  0.6508444  3
   2053   2052   2055   2058     1  0.0000000  0.6508444  3
   2053   2052   2055   2056     1  0.0000000  0.6508444  3
   2053   2052   2055   2057     1  0.0000000  0.6508444  3
   2054   2052   2055   2058     1  0.0000000  0.6508444  3
   2054   2052   2055   2056     1  0.0000000  0.6508444  3
   2054   2052   2055   2057     1  0.0000000  0.6508444  3
   2055   2058   2061   2083     1  0.0000000  0.6508444  3
   2056   2055   2052   2082     1  0.0000000  1.0460000  1
   2056   2055   2052   2082     1  0.0000000  0.0000000  3
   2056   2055   2058   2061     1  0.0000000  0.6508444  3
   2056   2055   2058   2059     1  0.0000000  0.6508444  3
   2056   2055   2058   2060     1  0.0000000  0.6508444  3
   2057   2055   2052   2082     1  0.0000000  1.0460000  1
   2057   2055   2052   2082     1  0.0000000  0.0000000  3
   2057   2055   2058   2061     1  0.0000000  0.6508444  3
   2057   2055   2058   2059     1  0.0000000  0.6508444  3
   2057   2055   2058   2060     1  0.0000000  0.6508444  3
   2058   2061   2062   2063     1  0.0000000  0.6508444  3
   2058   2061   2062   2064     1  0.0000000  0.6508444  3
   2058   2061   2072   2073     1  0.0000000  0.6508444  3
   2058   2061   2072   2074     1  0.0000000  0.6508444  3
   2059   2058   2061   2062     1  0.0000000  0.6508444  3
   2059   2058   2061   2072     1  0.0000000  0.6508444  3
   2059   2058   2061   2083     1  0.0000000  0.6508444  3
   2060   2058   2061   2062     1  0.0000000  0.6508444  3
   2060   2058   2061   2072     1  0.0000000  0.6508444  3
   2060   2058   2061   2083     1  0.0000000  0.6508444  3
   2061   2062   2065   2066     1  0.0000000  0.6508444  3
   2061   2062   2065   2067     1  0.0000000  0.6508444  3
   2061   2072   2075   2076     1  0.0000000  0.6508444  3
   2061   2072   2075   2077     1  0.0000000  0.6508444  3
   2062   2061   2072   2073     1  0.0000000  0.6508444  3
   2062   2061   2072   2074     1  0.0000000  0.6508444  3
   2063   2062   2061   2072     1  0.0000000  0.6508444  3
   2063   2062   2061   2083     1  0.0000000  0.6508444  3
   2063   2062   2065   2068     1  0.0000000  0.6508444  3
   2063   2062   2065   2066     1  0.0000000  0.6508444  3
   2063   2062   2065   2067     1  0.0000000  0.6508444  3
   2064   2062   2061   2072     1  0.0000000  0.6508444  3
   2064   2062   2061   2083     1  0.0000000  0.6508444  3
   2064   2062   2065   2068     1  0.0000000  0.6508444  3
   2064   2062   2065   2066     1  0.0000000  0.6508444  3
   2064   2062   2065   2067     1  0.0000000  0.6508444  3
   2065   2062   2061   2083     1  0.0000000  0.6508444  3
   2065   2068   2070   2071     1  180.0000771  9.6232000  2
   2066   2065   2068   2069     1  0.0000000  3.3472000  1
   2066   2065   2068   2069     1  0.0000000  0.0000000  2
   2066   2065   2068   2069     1  180.0000771  0.3347200  3
   2066   2065   2068   2070     1  180.0000771  0.0000000  2
   2067   2065   2068   2069     1  0.0000000  3.3472000  1
   2067   2065   2068   2069     1  0.0000000  0.0000000  2
   2067   2065   2068   2069     1  180.0000771  0.3347200  3
   2067   2065   2068   2070     1  180.0000771  0.0000000  2
   2069   2068   2070   2071     1  0.0000000  7.9496000  1
   2069   2068   2070   2071     1  180.0000771  9.6232000  2
   2073   2072   2061   2083     1  0.0000000  0.6508444  3
   2073   2072   2075   2078     1  0.0000000  0.6508444  3
   2073   2072   2075   2076     1  0.0000000  0.6508444  3
   2073   2072   2075   2077     1  0.0000000  0.6508444  3
   2074   2072   2061   2083     1  0.0000000  0.6508444  3
   2074   2072   2075   2078     1  0.0000000  0.6508444  3
   2074   2072   2075   2076     1  0.0000000  0.6508444  3
   2074   2072   2075   2077     1  0.0000000  0.6508444  3
   2075   2072   2061   2083     1  0.0000000  0.6508444  3
   2075   2078   2080   2081     1  180.0000771  9.6232000  2
   2076   2075   2078   2079     1  0.0000000  3.3472000  1
   2076   2075   2078   2079     1  0.0000000  0.0000000  2
   2076   2075   2078   2079     1  180.0000771  0.3347200  3
   2076   2075   2078   2080     1  180.0000771  0.0000000  2
   2077   2075   2078   2079     1  0.0000000  3.3472000  1
   2077   2075   2078   2079     1  0.0000000  0.0000000  2
   2077   2075   2078   2079     1  180.0000771  0.3347200  3
   2077   2075   2078   2080     1  180.0000771  0.0000000  2
   2079   2078   2080   2081     1  0.0000000  7.9496000  1
   2079   2078   2080   2081     1  180.0000771  9.6232000  2
   2084   2087   2090   2091     1  0.0000000  0.6508444  3
   2084   2087   2090   2092     1  0.0000000  0.6508444  3
   2085   2084   2087   2090     1  0.0000000  0.6508444  3
   2085   2084   2087   2088     1  0.0000000  0.6508444  3
   2085   2084   2087   2089     1  0.0000000  0.6508444  3
   2086   2084   2087   2090     1  0.0000000  0.6508444  3
   2086   2084   2087   2088     1  0.0000000  0.6508444  3
   2086   2084   2087   2089     1  0.0000000  0.6508444  3
   2087   2090   2093   2115     1  0.0000000  0.6508444  3
   2088   2087   2090   2093     1  0.0000000  0.6508444  3
   2088   2087   2090   2091     1  0.0000000  0.6508444  3
   2088   2087   2090   2092     1  0.0000000  0.6508444  3
   2088   2087   2084   2114     1  0.0000000  1.0460000  1
   2088   2087   2084   2114     1  0.0000000  0.0000000  3
   2089   2087   2090   2093     1  0.0000000  0.6508444  3
   2089   2087   2090   2091     1  0.0000000  0.6508444  3
   2089   2087   2090   2092     1  0.0000000  0.6508444  3
   2089   2087   2084   2114     1  0.0000000  1.0460000  1
   2089   2087   2084   2114     1  0.0000000  0.0000000  3
   2090   2093   2094   2095     1  0.0000000  0.6508444  3
   2090   2093   2094   2096     1  0.0000000  0.6508444  3
   2090   2093   2104   2105     1  0.0000000  0.6508444  3
   2090   2093   2104   2106     1  0.0000000  0.6508444  3
   2091   2090   2093   2094     1  0.0000000  0.6508444  3
   2091   2090   2093   2104     1  0.0000000  0.6508444  3
   2091   2090   2093   2115     1  0.0000000  0.6508444  3
   2092   2090   2093   2094     1  0.0000000  0.6508444  3
   2092   2090   2093   2104     1  0.0000000  0.6508444  3
   2092   2090   2093   2115     1  0.0000000  0.6508444  3
   2093   2094   2097   2098     1  0.0000000  0.6508444  3
   2093   2094   2097   2099     1  0.0000000  0.6508444  3
   2093   2104   2107   2108     1  0.0000000  0.6508444  3
   2093   2104   2107   2109     1  0.0000000  0.6508444  3
   2094   2093   2104   2105     1  0.0000000  0.6508444  3
   2094   2093   2104   2106     1  0.0000000  0.6508444  3
   2095   2094   2097   2100     1  0.0000000  0.6508444  3
   2095   2094   2097   2098     1  0.0000000  0.6508444  3
   2095   2094   2097   2099     1  0.0000000  0.6508444  3
   2095   2094   2093   2104     1  0.0000000  0.6508444  3
   2095   2094   2093   2115     1  0.0000000  0.6508444  3
   2096   2094   2097   2100     1  0.0000000  0.6508444  3
   2096   2094   2097   2098     1  0.0000000  0.6508444  3
   2096   2094   2097   2099     1  0.0000000  0.6508444  3
   2096   2094   2093   2104     1  0.0000000  0.6508444  3
   2096   2094   2093   2115     1  0.0000000  0.6508444  3
   2097   2100   2102   2103     1  180.0000771  9.6232000  2
   2097   2094   2093   2115     1  0.0000000  0.6508444  3
   2098   2097   2100   2101     1  0.0000000  3.3472000  1
   2098   2097   2100   2101     1  0.0000000  0.0000000  2
   2098   2097   2100   2101     1  180.0000771  0.3347200  3
   2098   2097   2100   2102     1  180.0000771  0.0000000  2
   2099   2097   2100   2101     1  0.0000000  3.3472000  1
   2099   2097   2100   2101     1  0.0000000  0.0000000  2
   2099   2097   2100   2101     1  180.0000771  0.3347200  3
   2099   2097   2100   2102     1  180.0000771  0.0000000  2
   2101   2100   2102   2103     1  0.0000000  7.9496000  1
   2101   2100   2102   2103     1  180.0000771  9.6232000  2
   2105   2104   2107   2110     1  0.0000000  0.6508444  3
   2105   2104   2107   2108     1  0.0000000  0.6508444  3
   2105   2104   2107   2109     1  0.0000000  0.6508444  3
   2105   2104   2093   2115     1  0.0000000  0.6508444  3
   2106   2104   2107   2110     1  0.0000000  0.6508444  3
   2106   2104   2107   2108     1  0.0000000  0.6508444  3
   2106   2104   2107   2109     1  0.0000000  0.6508444  3
   2106   2104   2093   2115     1  0.0000000  0.6508444  3
   2107   2110   2112   2113     1  180.0000771  9.6232000  2
   2107   2104   2093   2115     1  0.0000000  0.6508444  3
   2108   2107   2110   2111     1  0.0000000  3.3472000  1
   2108   2107   2110   2111     1  0.0000000  0.0000000  2
   2108   2107   2110   2111     1  180.0000771  0.3347200  3
   2108   2107   2110   2112     1  180.0000771  0.0000000  2
   2109   2107   2110   2111     1  0.0000000  3.3472000  1
   2109   2107   2110   2111     1  0.0000000  0.0000000  2
   2109   2107   2110   2111     1  180.0000771  0.3347200  3
   2109   2107   2110   2112     1  180.0000771  0.0000000  2
   2111   2110   2112   2113     1  0.0000000  7.9496000  1
   2111   2110   2112   2113     1  180.0000771  9.6232000  2
   2116   2119   2122   2123     1  0.0000000  0.6508444  3
   2116   2119   2122   2124     1  0.0000000  0.6508444  3
   2117   2116   2119   2122     1  0.0000000  0.6508444  3
   2117   2116   2119   2120     1  0.0000000  0.6508444  3
   2117   2116   2119   2121     1  0.0000000  0.6508444  3
   2118   2116   2119   2122     1  0.0000000  0.6508444  3
   2118   2116   2119   2120     1  0.0000000  0.6508444  3
   2118   2116   2119   2121     1  0.0000000  0.6508444  3
   2119   2122   2125   2147     1  0.0000000  0.6508444  3
   2120   2119   2116   2146     1  0.0000000  1.0460000  1
   2120   2119   2116   2146     1  0.0000000  0.0000000  3
   2120   2119   2122   2125     1  0.0000000  0.6508444  3
   2120   2119   2122   2123     1  0.0000000  0.6508444  3
   2120   2119   2122   2124     1  0.0000000  0.6508444  3
   2121   2119   2116   2146     1  0.0000000  1.0460000  1
   2121   2119   2116   2146     1  0.0000000  0.0000000  3
   2121   2119   2122   2125     1  0.0000000  0.6508444  3
   2121   2119   2122   2123     1  0.0000000  0.6508444  3
   2121   2119   2122   2124     1  0.0000000  0.6508444  3
   2122   2125   2126   2127     1  0.0000000  0.6508444  3
   2122   2125   2126   2128     1  0.0000000  0.6508444  3
   2122   2125   2136   2137     1  0.0000000  0.6508444  3
   2122   2125   2136   2138     1  0.0000000  0.6508444  3
   2123   2122   2125   2126     1  0.0000000  0.6508444  3
   2123   2122   2125   2136     1  0.0000000  0.6508444  3
   2123   2122   2125   2147     1  0.0000000  0.6508444  3
   2124   2122   2125   2126     1  0.0000000  0.6508444  3
   2124   2122   2125   2136     1  0.0000000  0.6508444  3
   2124   2122   2125   2147     1  0.0000000  0.6508444  3
   2125   2126   2129   2130     1  0.0000000  0.6508444  3
   2125   2126   2129   2131     1  0.0000000  0.6508444  3
   2125   2136   2139   2140     1  0.0000000  0.6508444  3
   2125   2136   2139   2141     1  0.0000000  0.6508444  3
   2126   2125   2136   2137     1  0.0000000  0.6508444  3
   2126   2125   2136   2138     1  0.0000000  0.6508444  3
   2127   2126   2125   2136     1  0.0000000  0.6508444  3
   2127   2126   2125   2147     1  0.0000000  0.6508444  3
   2127   2126   2129   2132     1  0.0000000  0.6508444  3
   2127   2126   2129   2130     1  0.0000000  0.6508444  3
   2127   2126   2129   2131     1  0.0000000  0.6508444  3
   2128   2126   2125   2136     1  0.0000000  0.6508444  3
   2128   2126   2125   2147     1  0.0000000  0.6508444  3
   2128   2126   2129   2132     1  0.0000000  0.6508444  3
   2128   2126   2129   2130     1  0.0000000  0.6508444  3
   2128   2126   2129   2131     1  0.0000000  0.6508444  3
   2129   2126   2125   2147     1  0.0000000  0.6508444  3
   2129   2132   2134   2135     1  180.0000771  9.6232000  2
   2130   2129   2132   2133     1  0.0000000  3.3472000  1
   2130   2129   2132   2133     1  0.0000000  0.0000000  2
   2130   2129   2132   2133     1  180.0000771  0.3347200  3
   2130   2129   2132   2134     1  180.0000771  0.0000000  2
   2131   2129   2132   2133     1  0.0000000  3.3472000  1
   2131   2129   2132   2133     1  0.0000000  0.0000000  2
   2131   2129   2132   2133     1  180.0000771  0.3347200  3
   2131   2129   2132   2134     1  180.0000771  0.0000000  2
   2133   2132   2134   2135     1  0.0000000  7.9496000  1
   2133   2132   2134   2135     1  180.0000771  9.6232000  2
   2137   2136   2125   2147     1  0.0000000  0.6508444  3
   2137   2136   2139   2142     1  0.0000000  0.6508444  3
   2137   2136   2139   2140     1  0.0000000  0.6508444  3
   2137   2136   2139   2141     1  0.0000000  0.6508444  3
   2138   2136   2125   2147     1  0.0000000  0.6508444  3
   2138   2136   2139   2142     1  0.0000000  0.6508444  3
   2138   2136   2139   2140     1  0.0000000  0.6508444  3
   2138   2136   2139   2141     1  0.0000000  0.6508444  3
   2139   2136   2125   2147     1  0.0000000  0.6508444  3
   2139   2142   2144   2145     1  180.0000771  9.6232000  2
   2140   2139   2142   2143     1  0.0000000  3.3472000  1
   2140   2139   2142   2143     1  0.0000000  0.0000000  2
   2140   2139   2142   2143     1  180.0000771  0.3347200  3
   2140   2139   2142   2144     1  180.0000771  0.0000000  2
   2141   2139   2142   2143     1  0.0000000  3.3472000  1
   2141   2139   2142   2143     1  0.0000000  0.0000000  2
   2141   2139   2142   2143     1  180.0000771  0.3347200  3
   2141   2139   2142   2144     1  180.0000771  0.0000000  2
   2143   2142   2144   2145     1  0.0000000  7.9496000  1
   2143   2142   2144   2145     1  180.0000771  9.6232000  2
   2148   2151   2154   2155     1  0.0000000  0.6508444  3
   2148   2151   2154   2156     1  0.0000000  0.6508444  3
   2149   2148   2151   2154     1  0.0000000  0.6508444  3
   2149   2148   2151   2152     1  0.0000000  0.6508444  3
   2149   2148   2151   2153     1  0.0000000  0.6508444  3
   2150   2148   2151   2154     1  0.0000000  0.6508444  3
   2150   2148   2151   2152     1  0.0000000  0.6508444  3
   2150   2148   2151   2153     1  0.0000000  0.6508444  3
   2151   2154   2157   2179     1  0.0000000  0.6508444  3
   2152   2151   2154   2157     1  0.0000000  0.6508444  3
   2152   2151   2154   2155     1  0.0000000  0.6508444  3
   2152   2151   2154   2156     1  0.0000000  0.6508444  3
   2152   2151   2148   2178     1  0.0000000  1.0460000  1
   2152   2151   2148   2178     1  0.0000000  0.0000000  3
   2153   2151   2154   2157     1  0.0000000  0.6508444  3
   2153   2151   2154   2155     1  0.0000000  0.6508444  3
   2153   2151   2154   2156     1  0.0000000  0.6508444  3
   2153   2151   2148   2178     1  0.0000000  1.0460000  1
   2153   2151   2148   2178     1  0.0000000  0.0000000  3
   2154   2157   2158   2159     1  0.0000000  0.6508444  3
   2154   2157   2158   2160     1  0.0000000  0.6508444  3
   2154   2157   2168   2169     1  0.0000000  0.6508444  3
   2154   2157   2168   2170     1  0.0000000  0.6508444  3
   2155   2154   2157   2158     1  0.0000000  0.6508444  3
   2155   2154   2157   2168     1  0.0000000  0.6508444  3
   2155   2154   2157   2179     1  0.0000000  0.6508444  3
   2156   2154   2157   2158     1  0.0000000  0.6508444  3
   2156   2154   2157   2168     1  0.0000000  0.6508444  3
   2156   2154   2157   2179     1  0.0000000  0.6508444  3
   2157   2158   2161   2162     1  0.0000000  0.6508444  3
   2157   2158   2161   2163     1  0.0000000  0.6508444  3
   2157   2168   2171   2172     1  0.0000000  0.6508444  3
   2157   2168   2171   2173     1  0.0000000  0.6508444  3
   2158   2157   2168   2169     1  0.0000000  0.6508444  3
   2158   2157   2168   2170     1  0.0000000  0.6508444  3
   2159   2158   2161   2164     1  0.0000000  0.6508444  3
   2159   2158   2161   2162     1  0.0000000  0.6508444  3
   2159   2158   2161   2163     1  0.0000000  0.6508444  3
   2159   2158   2157   2168     1  0.0000000  0.6508444  3
   2159   2158   2157   2179     1  0.0000000  0.6508444  3
   2160   2158   2161   2164     1  0.0000000  0.6508444  3
   2160   2158   2161   2162     1  0.0000000  0.6508444  3
   2160   2158   2161   2163     1  0.0000000  0.6508444  3
   2160   2158   2157   2168     1  0.0000000  0.6508444  3
   2160   2158   2157   2179     1  0.0000000  0.6508444  3
   2161   2164   2166   2167     1  180.0000771  9.6232000  2
   2161   2158   2157   2179     1  0.0000000  0.6508444  3
   2162   2161   2164   2165     1  0.0000000  3.3472000  1
   2162   2161   2164   2165     1  0.0000000  0.0000000  2
   2162   2161   2164   2165     1  180.0000771  0.3347200  3
   2162   2161   2164   2166     1  180.0000771  0.0000000  2
   2163   2161   2164   2165     1  0.0000000  3.3472000  1
   2163   2161   2164   2165     1  0.0000000  0.0000000  2
   2163   2161   2164   2165     1  180.0000771  0.3347200  3
   2163   2161   2164   2166     1  180.0000771  0.0000000  2
   2165   2164   2166   2167     1  0.0000000  7.9496000  1
   2165   2164   2166   2167     1  180.0000771  9.6232000  2
   2169   2168   2171   2174     1  0.0000000  0.6508444  3
   2169   2168   2171   2172     1  0.0000000  0.6508444  3
   2169   2168   2171   2173     1  0.0000000  0.6508444  3
   2169   2168   2157   2179     1  0.0000000  0.6508444  3
   2170   2168   2171   2174     1  0.0000000  0.6508444  3
   2170   2168   2171   2172     1  0.0000000  0.6508444  3
   2170   2168   2171   2173     1  0.0000000  0.6508444  3
   2170   2168   2157   2179     1  0.0000000  0.6508444  3
   2171   2174   2176   2177     1  180.0000771  9.6232000  2
   2171   2168   2157   2179     1  0.0000000  0.6508444  3
   2172   2171   2174   2175     1  0.0000000  3.3472000  1
   2172   2171   2174   2175     1  0.0000000  0.0000000  2
   2172   2171   2174   2175     1  180.0000771  0.3347200  3
   2172   2171   2174   2176     1  180.0000771  0.0000000  2
   2173   2171   2174   2175     1  0.0000000  3.3472000  1
   2173   2171   2174   2175     1  0.0000000  0.0000000  2
   2173   2171   2174   2175     1  180.0000771  0.3347200  3
   2173   2171   2174   2176     1  180.0000771  0.0000000  2
   2175   2174   2176   2177     1  0.0000000  7.9496000  1
   2175   2174   2176   2177     1  180.0000771  9.6232000  2
   2180   2183   2186   2187     1  0.0000000  0.6508444  3
   2180   2183   2186   2188     1  0.0000000  0.6508444  3
   2181   2180   2183   2186     1  0.0000000  0.6508444  3
   2181   2180   2183   2184     1  0.0000000  0.6508444  3
   2181   2180   2183   2185     1  0.0000000  0.6508444  3
   2182   2180   2183   2186     1  0.0000000  0.6508444  3
   2182   2180   2183   2184     1  0.0000000  0.6508444  3
   2182   2180   2183   2185     1  0.0000000  0.6508444  3
   2183   2186   2189   2211     1  0.0000000  0.6508444  3
   2184   2183   2180   2210     1  0.0000000  1.0460000  1
   2184   2183   2180   2210     1  0.0000000  0.0000000  3
   2184   2183   2186   2189     1  0.0000000  0.6508444  3
   2184   2183   2186   2187     1  0.0000000  0.6508444  3
   2184   2183   2186   2188     1  0.0000000  0.6508444  3
   2185   2183   2180   2210     1  0.0000000  1.0460000  1
   2185   2183   2180   2210     1  0.0000000  0.0000000  3
   2185   2183   2186   2189     1  0.0000000  0.6508444  3
   2185   2183   2186   2187     1  0.0000000  0.6508444  3
   2185   2183   2186   2188     1  0.0000000  0.6508444  3
   2186   2189   2190   2191     1  0.0000000  0.6508444  3
   2186   2189   2190   2192     1  0.0000000  0.6508444  3
   2186   2189   2200   2201     1  0.0000000  0.6508444  3
   2186   2189   2200   2202     1  0.0000000  0.6508444  3
   2187   2186   2189   2190     1  0.0000000  0.6508444  3
   2187   2186   2189   2200     1  0.0000000  0.6508444  3
   2187   2186   2189   2211     1  0.0000000  0.6508444  3
   2188   2186   2189   2190     1  0.0000000  0.6508444  3
   2188   2186   2189   2200     1  0.0000000  0.6508444  3
   2188   2186   2189   2211     1  0.0000000  0.6508444  3
   2189   2190   2193   2194     1  0.0000000  0.6508444  3
   2189   2190   2193   2195     1  0.0000000  0.6508444  3
   2189   2200   2203   2204     1  0.0000000  0.6508444  3
   2189   2200   2203   2205     1  0.0000000  0.6508444  3
   2190   2189   2200   2201     1  0.0000000  0.6508444  3
   2190   2189   2200   2202     1  0.0000000  0.6508444  3
   2191   2190   2189   2200     1  0.0000000  0.6508444  3
   2191   2190   2189   2211     1  0.0000000  0.6508444  3
   2191   2190   2193   2196     1  0.0000000  0.6508444  3
   2191   2190   2193   2194     1  0.0000000  0.6508444  3
   2191   2190   2193   2195     1  0.0000000  0.6508444  3
   2192   2190   2189   2200     1  0.0000000  0.6508444  3
   2192   2190   2189   2211     1  0.0000000  0.6508444  3
   2192   2190   2193   2196     1  0.0000000  0.6508444  3
   2192   2190   2193   2194     1  0.0000000  0.6508444  3
   2192   2190   2193   2195     1  0.0000000  0.6508444  3
   2193   2190   2189   2211     1  0.0000000  0.6508444  3
   2193   2196   2198   2199     1  180.0000771  9.6232000  2
   2194   2193   2196   2197     1  0.0000000  3.3472000  1
   2194   2193   2196   2197     1  0.0000000  0.0000000  2
   2194   2193   2196   2197     1  180.0000771  0.3347200  3
   2194   2193   2196   2198     1  180.0000771  0.0000000  2
   2195   2193   2196   2197     1  0.0000000  3.3472000  1
   2195   2193   2196   2197     1  0.0000000  0.0000000  2
   2195   2193   2196   2197     1  180.0000771  0.3347200  3
   2195   2193   2196   2198     1  180.0000771  0.0000000  2
   2197   2196   2198   2199     1  0.0000000  7.9496000  1
   2197   2196   2198   2199     1  180.0000771  9.6232000  2
   2201   2200   2189   2211     1  0.0000000  0.6508444  3
   2201   2200   2203   2206     1  0.0000000  0.6508444  3
   2201   2200   2203   2204     1  0.0000000  0.6508444  3
   2201   2200   2203   2205     1  0.0000000  0.6508444  3
   2202   2200   2189   2211     1  0.0000000  0.6508444  3
   2202   2200   2203   2206     1  0.0000000  0.6508444  3
   2202   2200   2203   2204     1  0.0000000  0.6508444  3
   2202   2200   2203   2205     1  0.0000000  0.6508444  3
   2203   2200   2189   2211     1  0.0000000  0.6508444  3
   2203   2206   2208   2209     1  180.0000771  9.6232000  2
   2204   2203   2206   2207     1  0.0000000  3.3472000  1
   2204   2203   2206   2207     1  0.0000000  0.0000000  2
   2204   2203   2206   2207     1  180.0000771  0.3347200  3
   2204   2203   2206   2208     1  180.0000771  0.0000000  2
   2205   2203   2206   2207     1  0.0000000  3.3472000  1
   2205   2203   2206   2207     1  0.0000000  0.0000000  2
   2205   2203   2206   2207     1  180.0000771  0.3347200  3
   2205   2203   2206   2208     1  180.0000771  0.0000000  2
   2207   2206   2208   2209     1  0.0000000  7.9496000  1
   2207   2206   2208   2209     1  180.0000771  9.6232000  2
   2212   2215   2218   2219     1  0.0000000  0.6508444  3
   2212   2215   2218   2220     1  0.0000000  0.6508444  3
   2213   2212   2215   2218     1  0.0000000  0.6508444  3
   2213   2212   2215   2216     1  0.0000000  0.6508444  3
   2213   2212   2215   2217     1  0.0000000  0.6508444  3
   2214   2212   2215   2218     1  0.0000000  0.6508444  3
   2214   2212   2215   2216     1  0.0000000  0.6508444  3
   2214   2212   2215   2217     1  0.0000000  0.6508444  3
   2215   2218   2221   2243     1  0.0000000  0.6508444  3
   2216   2215   2218   2221     1  0.0000000  0.6508444  3
   2216   2215   2218   2219     1  0.0000000  0.6508444  3
   2216   2215   2218   2220     1  0.0000000  0.6508444  3
   2216   2215   2212   2242     1  0.0000000  1.0460000  1
   2216   2215   2212   2242     1  0.0000000  0.0000000  3
   2217   2215   2218   2221     1  0.0000000  0.6508444  3
   2217   2215   2218   2219     1  0.0000000  0.6508444  3
   2217   2215   2218   2220     1  0.0000000  0.6508444  3
   2217   2215   2212   2242     1  0.0000000  1.0460000  1
   2217   2215   2212   2242     1  0.0000000  0.0000000  3
   2218   2221   2222   2223     1  0.0000000  0.6508444  3
   2218   2221   2222   2224     1  0.0000000  0.6508444  3
   2218   2221   2232   2233     1  0.0000000  0.6508444  3
   2218   2221   2232   2234     1  0.0000000  0.6508444  3
   2219   2218   2221   2222     1  0.0000000  0.6508444  3
   2219   2218   2221   2232     1  0.0000000  0.6508444  3
   2219   2218   2221   2243     1  0.0000000  0.6508444  3
   2220   2218   2221   2222     1  0.0000000  0.6508444  3
   2220   2218   2221   2232     1  0.0000000  0.6508444  3
   2220   2218   2221   2243     1  0.0000000  0.6508444  3
   2221   2222   2225   2226     1  0.0000000  0.6508444  3
   2221   2222   2225   2227     1  0.0000000  0.6508444  3
   2221   2232   2235   2236     1  0.0000000  0.6508444  3
   2221   2232   2235   2237     1  0.0000000  0.6508444  3
   2222   2221   2232   2233     1  0.0000000  0.6508444  3
   2222   2221   2232   2234     1  0.0000000  0.6508444  3
   2223   2222   2225   2228     1  0.0000000  0.6508444  3
   2223   2222   2225   2226     1  0.0000000  0.6508444  3
   2223   2222   2225   2227     1  0.0000000  0.6508444  3
   2223   2222   2221   2232     1  0.0000000  0.6508444  3
   2223   2222   2221   2243     1  0.0000000  0.6508444  3
   2224   2222   2225   2228     1  0.0000000  0.6508444  3
   2224   2222   2225   2226     1  0.0000000  0.6508444  3
   2224   2222   2225   2227     1  0.0000000  0.6508444  3
   2224   2222   2221   2232     1  0.0000000  0.6508444  3
   2224   2222   2221   2243     1  0.0000000  0.6508444  3
   2225   2228   2230   2231     1  180.0000771  9.6232000  2
   2225   2222   2221   2243     1  0.0000000  0.6508444  3
   2226   2225   2228   2229     1  0.0000000  3.3472000  1
   2226   2225   2228   2229     1  0.0000000  0.0000000  2
   2226   2225   2228   2229     1  180.0000771  0.3347200  3
   2226   2225   2228   2230     1  180.0000771  0.0000000  2
   2227   2225   2228   2229     1  0.0000000  3.3472000  1
   2227   2225   2228   2229     1  0.0000000  0.0000000  2
   2227   2225   2228   2229     1  180.0000771  0.3347200  3
   2227   2225   2228   2230     1  180.0000771  0.0000000  2
   2229   2228   2230   2231     1  0.0000000  7.9496000  1
   2229   2228   2230   2231     1  180.0000771  9.6232000  2
   2233   2232   2235   2238     1  0.0000000  0.6508444  3
   2233   2232   2235   2236     1  0.0000000  0.6508444  3
   2233   2232   2235   2237     1  0.0000000  0.6508444  3
   2233   2232   2221   2243     1  0.0000000  0.6508444  3
   2234   2232   2235   2238     1  0.0000000  0.6508444  3
   2234   2232   2235   2236     1  0.0000000  0.6508444  3
   2234   2232   2235   2237     1  0.0000000  0.6508444  3
   2234   2232   2221   2243     1  0.0000000  0.6508444  3
   2235   2238   2240   2241     1  180.0000771  9.6232000  2
   2235   2232   2221   2243     1  0.0000000  0.6508444  3
   2236   2235   2238   2239     1  0.0000000  3.3472000  1
   2236   2235   2238   2239     1  0.0000000  0.0000000  2
   2236   2235   2238   2239     1  180.0000771  0.3347200  3
   2236   2235   2238   2240     1  180.0000771  0.0000000  2
   2237   2235   2238   2239     1  0.0000000  3.3472000  1
   2237   2235   2238   2239     1  0.0000000  0.0000000  2
   2237   2235   2238   2239     1  180.0000771  0.3347200  3
   2237   2235   2238   2240     1  180.0000771  0.0000000  2
   2239   2238   2240   2241     1  0.0000000  7.9496000  1
   2239   2238   2240   2241     1  180.0000771  9.6232000  2
   2244   2247   2250   2251     1  0.0000000  0.6508444  3
   2244   2247   2250   2252     1  0.0000000  0.6508444  3
   2245   2244   2247   2250     1  0.0000000  0.6508444  3
   2245   2244   2247   2248     1  0.0000000  0.6508444  3
   2245   2244   2247   2249     1  0.0000000  0.6508444  3
   2246   2244   2247   2250     1  0.0000000  0.6508444  3
   2246   2244   2247   2248     1  0.0000000  0.6508444  3
   2246   2244   2247   2249     1  0.0000000  0.6508444  3
   2247   2250   2253   2275     1  0.0000000  0.6508444  3
   2248   2247   2244   2274     1  0.0000000  1.0460000  1
   2248   2247   2244   2274     1  0.0000000  0.0000000  3
   2248   2247   2250   2253     1  0.0000000  0.6508444  3
   2248   2247   2250   2251     1  0.0000000  0.6508444  3
   2248   2247   2250   2252     1  0.0000000  0.6508444  3
   2249   2247   2244   2274     1  0.0000000  1.0460000  1
   2249   2247   2244   2274     1  0.0000000  0.0000000  3
   2249   2247   2250   2253     1  0.0000000  0.6508444  3
   2249   2247   2250   2251     1  0.0000000  0.6508444  3
   2249   2247   2250   2252     1  0.0000000  0.6508444  3
   2250   2253   2254   2255     1  0.0000000  0.6508444  3
   2250   2253   2254   2256     1  0.0000000  0.6508444  3
   2250   2253   2264   2265     1  0.0000000  0.6508444  3
   2250   2253   2264   2266     1  0.0000000  0.6508444  3
   2251   2250   2253   2254     1  0.0000000  0.6508444  3
   2251   2250   2253   2264     1  0.0000000  0.6508444  3
   2251   2250   2253   2275     1  0.0000000  0.6508444  3
   2252   2250   2253   2254     1  0.0000000  0.6508444  3
   2252   2250   2253   2264     1  0.0000000  0.6508444  3
   2252   2250   2253   2275     1  0.0000000  0.6508444  3
   2253   2254   2257   2258     1  0.0000000  0.6508444  3
   2253   2254   2257   2259     1  0.0000000  0.6508444  3
   2253   2264   2267   2268     1  0.0000000  0.6508444  3
   2253   2264   2267   2269     1  0.0000000  0.6508444  3
   2254   2253   2264   2265     1  0.0000000  0.6508444  3
   2254   2253   2264   2266     1  0.0000000  0.6508444  3
   2255   2254   2253   2264     1  0.0000000  0.6508444  3
   2255   2254   2253   2275     1  0.0000000  0.6508444  3
   2255   2254   2257   2260     1  0.0000000  0.6508444  3
   2255   2254   2257   2258     1  0.0000000  0.6508444  3
   2255   2254   2257   2259     1  0.0000000  0.6508444  3
   2256   2254   2253   2264     1  0.0000000  0.6508444  3
   2256   2254   2253   2275     1  0.0000000  0.6508444  3
   2256   2254   2257   2260     1  0.0000000  0.6508444  3
   2256   2254   2257   2258     1  0.0000000  0.6508444  3
   2256   2254   2257   2259     1  0.0000000  0.6508444  3
   2257   2254   2253   2275     1  0.0000000  0.6508444  3
   2257   2260   2262   2263     1  180.0000771  9.6232000  2
   2258   2257   2260   2261     1  0.0000000  3.3472000  1
   2258   2257   2260   2261     1  0.0000000  0.0000000  2
   2258   2257   2260   2261     1  180.0000771  0.3347200  3
   2258   2257   2260   2262     1  180.0000771  0.0000000  2
   2259   2257   2260   2261     1  0.0000000  3.3472000  1
   2259   2257   2260   2261     1  0.0000000  0.0000000  2
   2259   2257   2260   2261     1  180.0000771  0.3347200  3
   2259   2257   2260   2262     1  180.0000771  0.0000000  2
   2261   2260   2262   2263     1  0.0000000  7.9496000  1
   2261   2260   2262   2263     1  180.0000771  9.6232000  2
   2265   2264   2253   2275     1  0.0000000  0.6508444  3
   2265   2264   2267   2270     1  0.0000000  0.6508444  3
   2265   2264   2267   2268     1  0.0000000  0.6508444  3
   2265   2264   2267   2269     1  0.0000000  0.6508444  3
   2266   2264   2253   2275     1  0.0000000  0.6508444  3
   2266   2264   2267   2270     1  0.0000000  0.6508444  3
   2266   2264   2267   2268     1  0.0000000  0.6508444  3
   2266   2264   2267   2269     1  0.0000000  0.6508444  3
   2267   2264   2253   2275     1  0.0000000  0.6508444  3
   2267   2270   2272   2273     1  180.0000771  9.6232000  2
   2268   2267   2270   2271     1  0.0000000  3.3472000  1
   2268   2267   2270   2271     1  0.0000000  0.0000000  2
   2268   2267   2270   2271     1  180.0000771  0.3347200  3
   2268   2267   2270   2272     1  180.0000771  0.0000000  2
   2269   2267   2270   2271     1  0.0000000  3.3472000  1
   2269   2267   2270   2271     1  0.0000000  0.0000000  2
   2269   2267   2270   2271     1  180.0000771  0.3347200  3
   2269   2267   2270   2272     1  180.0000771  0.0000000  2
   2271   2270   2272   2273     1  0.0000000  7.9496000  1
   2271   2270   2272   2273     1  180.0000771  9.6232000  2
   2276   2279   2282   2283     1  0.0000000  0.6508444  3
   2276   2279   2282   2284     1  0.0000000  0.6508444  3
   2277   2276   2279   2282     1  0.0000000  0.6508444  3
   2277   2276   2279   2280     1  0.0000000  0.6508444  3
   2277   2276   2279   2281     1  0.0000000  0.6508444  3
   2278   2276   2279   2282     1  0.0000000  0.6508444  3
   2278   2276   2279   2280     1  0.0000000  0.6508444  3
   2278   2276   2279   2281     1  0.0000000  0.6508444  3
   2279   2282   2285   2307     1  0.0000000  0.6508444  3
   2280   2279   2282   2285     1  0.0000000  0.6508444  3
   2280   2279   2282   2283     1  0.0000000  0.6508444  3
   2280   2279   2282   2284     1  0.0000000  0.6508444  3
   2280   2279   2276   2306     1  0.0000000  1.0460000  1
   2280   2279   2276   2306     1  0.0000000  0.0000000  3
   2281   2279   2282   2285     1  0.0000000  0.6508444  3
   2281   2279   2282   2283     1  0.0000000  0.6508444  3
   2281   2279   2282   2284     1  0.0000000  0.6508444  3
   2281   2279   2276   2306     1  0.0000000  1.0460000  1
   2281   2279   2276   2306     1  0.0000000  0.0000000  3
   2282   2285   2286   2287     1  0.0000000  0.6508444  3
   2282   2285   2286   2288     1  0.0000000  0.6508444  3
   2282   2285   2296   2297     1  0.0000000  0.6508444  3
   2282   2285   2296   2298     1  0.0000000  0.6508444  3
   2283   2282   2285   2286     1  0.0000000  0.6508444  3
   2283   2282   2285   2296     1  0.0000000  0.6508444  3
   2283   2282   2285   2307     1  0.0000000  0.6508444  3
   2284   2282   2285   2286     1  0.0000000  0.6508444  3
   2284   2282   2285   2296     1  0.0000000  0.6508444  3
   2284   2282   2285   2307     1  0.0000000  0.6508444  3
   2285   2286   2289   2290     1  0.0000000  0.6508444  3
   2285   2286   2289   2291     1  0.0000000  0.6508444  3
   2285   2296   2299   2300     1  0.0000000  0.6508444  3
   2285   2296   2299   2301     1  0.0000000  0.6508444  3
   2286   2285   2296   2297     1  0.0000000  0.6508444  3
   2286   2285   2296   2298     1  0.0000000  0.6508444  3
   2287   2286   2289   2292     1  0.0000000  0.6508444  3
   2287   2286   2289   2290     1  0.0000000  0.6508444  3
   2287   2286   2289   2291     1  0.0000000  0.6508444  3
   2287   2286   2285   2296     1  0.0000000  0.6508444  3
   2287   2286   2285   2307     1  0.0000000  0.6508444  3
   2288   2286   2289   2292     1  0.0000000  0.6508444  3
   2288   2286   2289   2290     1  0.0000000  0.6508444  3
   2288   2286   2289   2291     1  0.0000000  0.6508444  3
   2288   2286   2285   2296     1  0.0000000  0.6508444  3
   2288   2286   2285   2307     1  0.0000000  0.6508444  3
   2289   2292   2294   2295     1  180.0000771  9.6232000  2
   2289   2286   2285   2307     1  0.0000000  0.6508444  3
   2290   2289   2292   2293     1  0.0000000  3.3472000  1
   2290   2289   2292   2293     1  0.0000000  0.0000000  2
   2290   2289   2292   2293     1  180.0000771  0.3347200  3
   2290   2289   2292   2294     1  180.0000771  0.0000000  2
   2291   2289   2292   2293     1  0.0000000  3.3472000  1
   2291   2289   2292   2293     1  0.0000000  0.0000000  2
   2291   2289   2292   2293     1  180.0000771  0.3347200  3
   2291   2289   2292   2294     1  180.0000771  0.0000000  2
   2293   2292   2294   2295     1  0.0000000  7.9496000  1
   2293   2292   2294   2295     1  180.0000771  9.6232000  2
   2297   2296   2299   2302     1  0.0000000  0.6508444  3
   2297   2296   2299   2300     1  0.0000000  0.6508444  3
   2297   2296   2299   2301     1  0.0000000  0.6508444  3
   2297   2296   2285   2307     1  0.0000000  0.6508444  3
   2298   2296   2299   2302     1  0.0000000  0.6508444  3
   2298   2296   2299   2300     1  0.0000000  0.6508444  3
   2298   2296   2299   2301     1  0.0000000  0.6508444  3
   2298   2296   2285   2307     1  0.0000000  0.6508444  3
   2299   2302   2304   2305     1  180.0000771  9.6232000  2
   2299   2296   2285   2307     1  0.0000000  0.6508444  3
   2300   2299   2302   2303     1  0.0000000  3.3472000  1
   2300   2299   2302   2303     1  0.0000000  0.0000000  2
   2300   2299   2302   2303     1  180.0000771  0.3347200  3
   2300   2299   2302   2304     1  180.0000771  0.0000000  2
   2301   2299   2302   2303     1  0.0000000  3.3472000  1
   2301   2299   2302   2303     1  0.0000000  0.0000000  2
   2301   2299   2302   2303     1  180.0000771  0.3347200  3
   2301   2299   2302   2304     1  180.0000771  0.0000000  2
   2303   2302   2304   2305     1  0.0000000  7.9496000  1
   2303   2302   2304   2305     1  180.0000771  9.6232000  2
   2308   2311   2314   2315     1  0.0000000  0.6508444  3
   2308   2311   2314   2316     1  0.0000000  0.6508444  3
   2309   2308   2311   2314     1  0.0000000  0.6508444  3
   2309   2308   2311   2312     1  0.0000000  0.6508444  3
   2309   2308   2311   2313     1  0.0000000  0.6508444  3
   2310   2308   2311   2314     1  0.0000000  0.6508444  3
   2310   2308   2311   2312     1  0.0000000  0.6508444  3
   2310   2308   2311   2313     1  0.0000000  0.6508444  3
   2311   2314   2317   2339     1  0.0000000  0.6508444  3
   2312   2311   2308   2338     1  0.0000000  1.0460000  1
   2312   2311   2308   2338     1  0.0000000  0.0000000  3
   2312   2311   2314   2317     1  0.0000000  0.6508444  3
   2312   2311   2314   2315     1  0.0000000  0.6508444  3
   2312   2311   2314   2316     1  0.0000000  0.6508444  3
   2313   2311   2308   2338     1  0.0000000  1.0460000  1
   2313   2311   2308   2338     1  0.0000000  0.0000000  3
   2313   2311   2314   2317     1  0.0000000  0.6508444  3
   2313   2311   2314   2315     1  0.0000000  0.6508444  3
   2313   2311   2314   2316     1  0.0000000  0.6508444  3
   2314   2317   2318   2319     1  0.0000000  0.6508444  3
   2314   2317   2318   2320     1  0.0000000  0.6508444  3
   2314   2317   2328   2329     1  0.0000000  0.6508444  3
   2314   2317   2328   2330     1  0.0000000  0.6508444  3
   2315   2314   2317   2318     1  0.0000000  0.6508444  3
   2315   2314   2317   2328     1  0.0000000  0.6508444  3
   2315   2314   2317   2339     1  0.0000000  0.6508444  3
   2316   2314   2317   2318     1  0.0000000  0.6508444  3
   2316   2314   2317   2328     1  0.0000000  0.6508444  3
   2316   2314   2317   2339     1  0.0000000  0.6508444  3
   2317   2318   2321   2322     1  0.0000000  0.6508444  3
   2317   2318   2321   2323     1  0.0000000  0.6508444  3
   2317   2328   2331   2332     1  0.0000000  0.6508444  3
   2317   2328   2331   2333     1  0.0000000  0.6508444  3
   2318   2317   2328   2329     1  0.0000000  0.6508444  3
   2318   2317   2328   2330     1  0.0000000  0.6508444  3
   2319   2318   2317   2328     1  0.0000000  0.6508444  3
   2319   2318   2317   2339     1  0.0000000  0.6508444  3
   2319   2318   2321   2324     1  0.0000000  0.6508444  3
   2319   2318   2321   2322     1  0.0000000  0.6508444  3
   2319   2318   2321   2323     1  0.0000000  0.6508444  3
   2320   2318   2317   2328     1  0.0000000  0.6508444  3
   2320   2318   2317   2339     1  0.0000000  0.6508444  3
   2320   2318   2321   2324     1  0.0000000  0.6508444  3
   2320   2318   2321   2322     1  0.0000000  0.6508444  3
   2320   2318   2321   2323     1  0.0000000  0.6508444  3
   2321   2318   2317   2339     1  0.0000000  0.6508444  3
   2321   2324   2326   2327     1  180.0000771  9.6232000  2
   2322   2321   2324   2325     1  0.0000000  3.3472000  1
   2322   2321   2324   2325     1  0.0000000  0.0000000  2
   2322   2321   2324   2325     1  180.0000771  0.3347200  3
   2322   2321   2324   2326     1  180.0000771  0.0000000  2
   2323   2321   2324   2325     1  0.0000000  3.3472000  1
   2323   2321   2324   2325     1  0.0000000  0.0000000  2
   2323   2321   2324   2325     1  180.0000771  0.3347200  3
   2323   2321   2324   2326     1  180.0000771  0.0000000  2
   2325   2324   2326   2327     1  0.0000000  7.9496000  1
   2325   2324   2326   2327     1  180.0000771  9.6232000  2
   2329   2328   2317   2339     1  0.0000000  0.6508444  3
   2329   2328   2331   2334     1  0.0000000  0.6508444  3
   2329   2328   2331   2332     1  0.0000000  0.6508444  3
   2329   2328   2331   2333     1  0.0000000  0.6508444  3
   2330   2328   2317   2339     1  0.0000000  0.6508444  3
   2330   2328   2331   2334     1  0.0000000  0.6508444  3
   2330   2328   2331   2332     1  0.0000000  0.6508444  3
   2330   2328   2331   2333     1  0.0000000  0.6508444  3
   2331   2328   2317   2339     1  0.0000000  0.6508444  3
   2331   2334   2336   2337     1  180.0000771  9.6232000  2
   2332   2331   2334   2335     1  0.0000000  3.3472000  1
   2332   2331   2334   2335     1  0.0000000  0.0000000  2
   2332   2331   2334   2335     1  180.0000771  0.3347200  3
   2332   2331   2334   2336     1  180.0000771  0.0000000  2
   2333   2331   2334   2335     1  0.0000000  3.3472000  1
   2333   2331   2334   2335     1  0.0000000  0.0000000  2
   2333   2331   2334   2335     1  180.0000771  0.3347200  3
   2333   2331   2334   2336     1  180.0000771  0.0000000  2
   2335   2334   2336   2337     1  0.0000000  7.9496000  1
   2335   2334   2336   2337     1  180.0000771  9.6232000  2
   2340   2343   2346   2347     1  0.0000000  0.6508444  3
   2340   2343   2346   2348     1  0.0000000  0.6508444  3
   2341   2340   2343   2346     1  0.0000000  0.6508444  3
   2341   2340   2343   2344     1  0.0000000  0.6508444  3
   2341   2340   2343   2345     1  0.0000000  0.6508444  3
   2342   2340   2343   2346     1  0.0000000  0.6508444  3
   2342   2340   2343   2344     1  0.0000000  0.6508444  3
   2342   2340   2343   2345     1  0.0000000  0.6508444  3
   2343   2346   2349   2371     1  0.0000000  0.6508444  3
   2344   2343   2346   2349     1  0.0000000  0.6508444  3
   2344   2343   2346   2347     1  0.0000000  0.6508444  3
   2344   2343   2346   2348     1  0.0000000  0.6508444  3
   2344   2343   2340   2370     1  0.0000000  1.0460000  1
   2344   2343   2340   2370     1  0.0000000  0.0000000  3
   2345   2343   2346   2349     1  0.0000000  0.6508444  3
   2345   2343   2346   2347     1  0.0000000  0.6508444  3
   2345   2343   2346   2348     1  0.0000000  0.6508444  3
   2345   2343   2340   2370     1  0.0000000  1.0460000  1
   2345   2343   2340   2370     1  0.0000000  0.0000000  3
   2346   2349   2350   2351     1  0.0000000  0.6508444  3
   2346   2349   2350   2352     1  0.0000000  0.6508444  3
   2346   2349   2360   2361     1  0.0000000  0.6508444  3
   2346   2349   2360   2362     1  0.0000000  0.6508444  3
   2347   2346   2349   2350     1  0.0000000  0.6508444  3
   2347   2346   2349   2360     1  0.0000000  0.6508444  3
   2347   2346   2349   2371     1  0.0000000  0.6508444  3
   2348   2346   2349   2350     1  0.0000000  0.6508444  3
   2348   2346   2349   2360     1  0.0000000  0.6508444  3
   2348   2346   2349   2371     1  0.0000000  0.6508444  3
   2349   2350   2353   2354     1  0.0000000  0.6508444  3
   2349   2350   2353   2355     1  0.0000000  0.6508444  3
   2349   2360   2363   2364     1  0.0000000  0.6508444  3
   2349   2360   2363   2365     1  0.0000000  0.6508444  3
   2350   2349   2360   2361     1  0.0000000  0.6508444  3
   2350   2349   2360   2362     1  0.0000000  0.6508444  3
   2351   2350   2353   2356     1  0.0000000  0.6508444  3
   2351   2350   2353   2354     1  0.0000000  0.6508444  3
   2351   2350   2353   2355     1  0.0000000  0.6508444  3
   2351   2350   2349   2360     1  0.0000000  0.6508444  3
   2351   2350   2349   2371     1  0.0000000  0.6508444  3
   2352   2350   2353   2356     1  0.0000000  0.6508444  3
   2352   2350   2353   2354     1  0.0000000  0.6508444  3
   2352   2350   2353   2355     1  0.0000000  0.6508444  3
   2352   2350   2349   2360     1  0.0000000  0.6508444  3
   2352   2350   2349   2371     1  0.0000000  0.6508444  3
   2353   2356   2358   2359     1  180.0000771  9.6232000  2
   2353   2350   2349   2371     1  0.0000000  0.6508444  3
   2354   2353   2356   2357     1  0.0000000  3.3472000  1
   2354   2353   2356   2357     1  0.0000000  0.0000000  2
   2354   2353   2356   2357     1  180.0000771  0.3347200  3
   2354   2353   2356   2358     1  180.0000771  0.0000000  2
   2355   2353   2356   2357     1  0.0000000  3.3472000  1
   2355   2353   2356   2357     1  0.0000000  0.0000000  2
   2355   2353   2356   2357     1  180.0000771  0.3347200  3
   2355   2353   2356   2358     1  180.0000771  0.0000000  2
   2357   2356   2358   2359     1  0.0000000  7.9496000  1
   2357   2356   2358   2359     1  180.0000771  9.6232000  2
   2361   2360   2363   2366     1  0.0000000  0.6508444  3
   2361   2360   2363   2364     1  0.0000000  0.6508444  3
   2361   2360   2363   2365     1  0.0000000  0.6508444  3
   2361   2360   2349   2371     1  0.0000000  0.6508444  3
   2362   2360   2363   2366     1  0.0000000  0.6508444  3
   2362   2360   2363   2364     1  0.0000000  0.6508444  3
   2362   2360   2363   2365     1  0.0000000  0.6508444  3
   2362   2360   2349   2371     1  0.0000000  0.6508444  3
   2363   2366   2368   2369     1  180.0000771  9.6232000  2
   2363   2360   2349   2371     1  0.0000000  0.6508444  3
   2364   2363   2366   2367     1  0.0000000  3.3472000  1
   2364   2363   2366   2367     1  0.0000000  0.0000000  2
   2364   2363   2366   2367     1  180.0000771  0.3347200  3
   2364   2363   2366   2368     1  180.0000771  0.0000000  2
   2365   2363   2366   2367     1  0.0000000  3.3472000  1
   2365   2363   2366   2367     1  0.0000000  0.0000000  2
   2365   2363   2366   2367     1  180.0000771  0.3347200  3
   2365   2363   2366   2368     1  180.0000771  0.0000000  2
   2367   2366   2368   2369     1  0.0000000  7.9496000  1
   2367   2366   2368   2369     1  180.0000771  9.6232000  2
   2372   2375   2378   2379     1  0.0000000  0.6508444  3
   2372   2375   2378   2380     1  0.0000000  0.6508444  3
   2373   2372   2375   2378     1  0.0000000  0.6508444  3
   2373   2372   2375   2376     1  0.0000000  0.6508444  3
   2373   2372   2375   2377     1  0.0000000  0.6508444  3
   2374   2372   2375   2378     1  0.0000000  0.6508444  3
   2374   2372   2375   2376     1  0.0000000  0.6508444  3
   2374   2372   2375   2377     1  0.0000000  0.6508444  3
   2375   2378   2381   2403     1  0.0000000  0.6508444  3
   2376   2375   2372   2402     1  0.0000000  1.0460000  1
   2376   2375   2372   2402     1  0.0000000  0.0000000  3
   2376   2375   2378   2381     1  0.0000000  0.6508444  3
   2376   2375   2378   2379     1  0.0000000  0.6508444  3
   2376   2375   2378   2380     1  0.0000000  0.6508444  3
   2377   2375   2372   2402     1  0.0000000  1.0460000  1
   2377   2375   2372   2402     1  0.0000000  0.0000000  3
   2377   2375   2378   2381     1  0.0000000  0.6508444  3
   2377   2375   2378   2379     1  0.0000000  0.6508444  3
   2377   2375   2378   2380     1  0.0000000  0.6508444  3
   2378   2381   2382   2383     1  0.0000000  0.6508444  3
   2378   2381   2382   2384     1  0.0000000  0.6508444  3
   2378   2381   2392   2393     1  0.0000000  0.6508444  3
   2378   2381   2392   2394     1  0.0000000  0.6508444  3
   2379   2378   2381   2382     1  0.0000000  0.6508444  3
   2379   2378   2381   2392     1  0.0000000  0.6508444  3
   2379   2378   2381   2403     1  0.0000000  0.6508444  3
   2380   2378   2381   2382     1  0.0000000  0.6508444  3
   2380   2378   2381   2392     1  0.0000000  0.6508444  3
   2380   2378   2381   2403     1  0.0000000  0.6508444  3
   2381   2382   2385   2386     1  0.0000000  0.6508444  3
   2381   2382   2385   2387     1  0.0000000  0.6508444  3
   2381   2392   2395   2396     1  0.0000000  0.6508444  3
   2381   2392   2395   2397     1  0.0000000  0.6508444  3
   2382   2381   2392   2393     1  0.0000000  0.6508444  3
   2382   2381   2392   2394     1  0.0000000  0.6508444  3
   2383   2382   2381   2392     1  0.0000000  0.6508444  3
   2383   2382   2381   2403     1  0.0000000  0.6508444  3
   2383   2382   2385   2388     1  0.0000000  0.6508444  3
   2383   2382   2385   2386     1  0.0000000  0.6508444  3
   2383   2382   2385   2387     1  0.0000000  0.6508444  3
   2384   2382   2381   2392     1  0.0000000  0.6508444  3
   2384   2382   2381   2403     1  0.0000000  0.6508444  3
   2384   2382   2385   2388     1  0.0000000  0.6508444  3
   2384   2382   2385   2386     1  0.0000000  0.6508444  3
   2384   2382   2385   2387     1  0.0000000  0.6508444  3
   2385   2382   2381   2403     1  0.0000000  0.6508444  3
   2385   2388   2390   2391     1  180.0000771  9.6232000  2
   2386   2385   2388   2389     1  0.0000000  3.3472000  1
   2386   2385   2388   2389     1  0.0000000  0.0000000  2
   2386   2385   2388   2389     1  180.0000771  0.3347200  3
   2386   2385   2388   2390     1  180.0000771  0.0000000  2
   2387   2385   2388   2389     1  0.0000000  3.3472000  1
   2387   2385   2388   2389     1  0.0000000  0.0000000  2
   2387   2385   2388   2389     1  180.0000771  0.3347200  3
   2387   2385   2388   2390     1  180.0000771  0.0000000  2
   2389   2388   2390   2391     1  0.0000000  7.9496000  1
   2389   2388   2390   2391     1  180.0000771  9.6232000  2
   2393   2392   2381   2403     1  0.0000000  0.6508444  3
   2393   2392   2395   2398     1  0.0000000  0.6508444  3
   2393   2392   2395   2396     1  0.0000000  0.6508444  3
   2393   2392   2395   2397     1  0.0000000  0.6508444  3
   2394   2392   2381   2403     1  0.0000000  0.6508444  3
   2394   2392   2395   2398     1  0.0000000  0.6508444  3
   2394   2392   2395   2396     1  0.0000000  0.6508444  3
   2394   2392   2395   2397     1  0.0000000  0.6508444  3
   2395   2392   2381   2403     1  0.0000000  0.6508444  3
   2395   2398   2400   2401     1  180.0000771  9.6232000  2
   2396   2395   2398   2399     1  0.0000000  3.3472000  1
   2396   2395   2398   2399     1  0.0000000  0.0000000  2
   2396   2395   2398   2399     1  180.0000771  0.3347200  3
   2396   2395   2398   2400     1  180.0000771  0.0000000  2
   2397   2395   2398   2399     1  0.0000000  3.3472000  1
   2397   2395   2398   2399     1  0.0000000  0.0000000  2
   2397   2395   2398   2399     1  180.0000771  0.3347200  3
   2397   2395   2398   2400     1  180.0000771  0.0000000  2
   2399   2398   2400   2401     1  0.0000000  7.9496000  1
   2399   2398   2400   2401     1  180.0000771  9.6232000  2
   2404   2407   2410   2411     1  0.0000000  0.6508444  3
   2404   2407   2410   2412     1  0.0000000  0.6508444  3
   2405   2404   2407   2410     1  0.0000000  0.6508444  3
   2405   2404   2407   2408     1  0.0000000  0.6508444  3
   2405   2404   2407   2409     1  0.0000000  0.6508444  3
   2406   2404   2407   2410     1  0.0000000  0.6508444  3
   2406   2404   2407   2408     1  0.0000000  0.6508444  3
   2406   2404   2407   2409     1  0.0000000  0.6508444  3
   2407   2410   2413   2435     1  0.0000000  0.6508444  3
   2408   2407   2410   2413     1  0.0000000  0.6508444  3
   2408   2407   2410   2411     1  0.0000000  0.6508444  3
   2408   2407   2410   2412     1  0.0000000  0.6508444  3
   2408   2407   2404   2434     1  0.0000000  1.0460000  1
   2408   2407   2404   2434     1  0.0000000  0.0000000  3
   2409   2407   2410   2413     1  0.0000000  0.6508444  3
   2409   2407   2410   2411     1  0.0000000  0.6508444  3
   2409   2407   2410   2412     1  0.0000000  0.6508444  3
   2409   2407   2404   2434     1  0.0000000  1.0460000  1
   2409   2407   2404   2434     1  0.0000000  0.0000000  3
   2410   2413   2414   2415     1  0.0000000  0.6508444  3
   2410   2413   2414   2416     1  0.0000000  0.6508444  3
   2410   2413   2424   2425     1  0.0000000  0.6508444  3
   2410   2413   2424   2426     1  0.0000000  0.6508444  3
   2411   2410   2413   2414     1  0.0000000  0.6508444  3
   2411   2410   2413   2424     1  0.0000000  0.6508444  3
   2411   2410   2413   2435     1  0.0000000  0.6508444  3
   2412   2410   2413   2414     1  0.0000000  0.6508444  3
   2412   2410   2413   2424     1  0.0000000  0.6508444  3
   2412   2410   2413   2435     1  0.0000000  0.6508444  3
   2413   2414   2417   2418     1  0.0000000  0.6508444  3
   2413   2414   2417   2419     1  0.0000000  0.6508444  3
   2413   2424   2427   2428     1  0.0000000  0.6508444  3
   2413   2424   2427   2429     1  0.0000000  0.6508444  3
   2414   2413   2424   2425     1  0.0000000  0.6508444  3
   2414   2413   2424   2426     1  0.0000000  0.6508444  3
   2415   2414   2417   2420     1  0.0000000  0.6508444  3
   2415   2414   2417   2418     1  0.0000000  0.6508444  3
   2415   2414   2417   2419     1  0.0000000  0.6508444  3
   2415   2414   2413   2424     1  0.0000000  0.6508444  3
   2415   2414   2413   2435     1  0.0000000  0.6508444  3
   2416   2414   2417   2420     1  0.0000000  0.6508444  3
   2416   2414   2417   2418     1  0.0000000  0.6508444  3
   2416   2414   2417   2419     1  0.0000000  0.6508444  3
   2416   2414   2413   2424     1  0.0000000  0.6508444  3
   2416   2414   2413   2435     1  0.0000000  0.6508444  3
   2417   2420   2422   2423     1  180.0000771  9.6232000  2
   2417   2414   2413   2435     1  0.0000000  0.6508444  3
   2418   2417   2420   2421     1  0.0000000  3.3472000  1
   2418   2417   2420   2421     1  0.0000000  0.0000000  2
   2418   2417   2420   2421     1  180.0000771  0.3347200  3
   2418   2417   2420   2422     1  180.0000771  0.0000000  2
   2419   2417   2420   2421     1  0.0000000  3.3472000  1
   2419   2417   2420   2421     1  0.0000000  0.0000000  2
   2419   2417   2420   2421     1  180.0000771  0.3347200  3
   2419   2417   2420   2422     1  180.0000771  0.0000000  2
   2421   2420   2422   2423     1  0.0000000  7.9496000  1
   2421   2420   2422   2423     1  180.0000771  9.6232000  2
   2425   2424   2427   2430     1  0.0000000  0.6508444  3
   2425   2424   2427   2428     1  0.0000000  0.6508444  3
   2425   2424   2427   2429     1  0.0000000  0.6508444  3
   2425   2424   2413   2435     1  0.0000000  0.6508444  3
   2426   2424   2427   2430     1  0.0000000  0.6508444  3
   2426   2424   2427   2428     1  0.0000000  0.6508444  3
   2426   2424   2427   2429     1  0.0000000  0.6508444  3
   2426   2424   2413   2435     1  0.0000000  0.6508444  3
   2427   2430   2432   2433     1  180.0000771  9.6232000  2
   2427   2424   2413   2435     1  0.0000000  0.6508444  3
   2428   2427   2430   2431     1  0.0000000  3.3472000  1
   2428   2427   2430   2431     1  0.0000000  0.0000000  2
   2428   2427   2430   2431     1  180.0000771  0.3347200  3
   2428   2427   2430   2432     1  180.0000771  0.0000000  2
   2429   2427   2430   2431     1  0.0000000  3.3472000  1
   2429   2427   2430   2431     1  0.0000000  0.0000000  2
   2429   2427   2430   2431     1  180.0000771  0.3347200  3
   2429   2427   2430   2432     1  180.0000771  0.0000000  2
   2431   2430   2432   2433     1  0.0000000  7.9496000  1
   2431   2430   2432   2433     1  180.0000771  9.6232000  2
   2436   2439   2442   2443     1  0.0000000  0.6508444  3
   2436   2439   2442   2444     1  0.0000000  0.6508444  3
   2437   2436   2439   2442     1  0.0000000  0.6508444  3
   2437   2436   2439   2440     1  0.0000000  0.6508444  3
   2437   2436   2439   2441     1  0.0000000  0.6508444  3
   2438   2436   2439   2442     1  0.0000000  0.6508444  3
   2438   2436   2439   2440     1  0.0000000  0.6508444  3
   2438   2436   2439   2441     1  0.0000000  0.6508444  3
   2439   2442   2445   2467     1  0.0000000  0.6508444  3
   2440   2439   2436   2466     1  0.0000000  1.0460000  1
   2440   2439   2436   2466     1  0.0000000  0.0000000  3
   2440   2439   2442   2445     1  0.0000000  0.6508444  3
   2440   2439   2442   2443     1  0.0000000  0.6508444  3
   2440   2439   2442   2444     1  0.0000000  0.6508444  3
   2441   2439   2436   2466     1  0.0000000  1.0460000  1
   2441   2439   2436   2466     1  0.0000000  0.0000000  3
   2441   2439   2442   2445     1  0.0000000  0.6508444  3
   2441   2439   2442   2443     1  0.0000000  0.6508444  3
   2441   2439   2442   2444     1  0.0000000  0.6508444  3
   2442   2445   2446   2447     1  0.0000000  0.6508444  3
   2442   2445   2446   2448     1  0.0000000  0.6508444  3
   2442   2445   2456   2457     1  0.0000000  0.6508444  3
   2442   2445   2456   2458     1  0.0000000  0.6508444  3
   2443   2442   2445   2446     1  0.0000000  0.6508444  3
   2443   2442   2445   2456     1  0.0000000  0.6508444  3
   2443   2442   2445   2467     1  0.0000000  0.6508444  3
   2444   2442   2445   2446     1  0.0000000  0.6508444  3
   2444   2442   2445   2456     1  0.0000000  0.6508444  3
   2444   2442   2445   2467     1  0.0000000  0.6508444  3
   2445   2446   2449   2450     1  0.0000000  0.6508444  3
   2445   2446   2449   2451     1  0.0000000  0.6508444  3
   2445   2456   2459   2460     1  0.0000000  0.6508444  3
   2445   2456   2459   2461     1  0.0000000  0.6508444  3
   2446   2445   2456   2457     1  0.0000000  0.6508444  3
   2446   2445   2456   2458     1  0.0000000  0.6508444  3
   2447   2446   2445   2456     1  0.0000000  0.6508444  3
   2447   2446   2445   2467     1  0.0000000  0.6508444  3
   2447   2446   2449   2452     1  0.0000000  0.6508444  3
   2447   2446   2449   2450     1  0.0000000  0.6508444  3
   2447   2446   2449   2451     1  0.0000000  0.6508444  3
   2448   2446   2445   2456     1  0.0000000  0.6508444  3
   2448   2446   2445   2467     1  0.0000000  0.6508444  3
   2448   2446   2449   2452     1  0.0000000  0.6508444  3
   2448   2446   2449   2450     1  0.0000000  0.6508444  3
   2448   2446   2449   2451     1  0.0000000  0.6508444  3
   2449   2446   2445   2467     1  0.0000000  0.6508444  3
   2449   2452   2454   2455     1  180.0000771  9.6232000  2
   2450   2449   2452   2453     1  0.0000000  3.3472000  1
   2450   2449   2452   2453     1  0.0000000  0.0000000  2
   2450   2449   2452   2453     1  180.0000771  0.3347200  3
   2450   2449   2452   2454     1  180.0000771  0.0000000  2
   2451   2449   2452   2453     1  0.0000000  3.3472000  1
   2451   2449   2452   2453     1  0.0000000  0.0000000  2
   2451   2449   2452   2453     1  180.0000771  0.3347200  3
   2451   2449   2452   2454     1  180.0000771  0.0000000  2
   2453   2452   2454   2455     1  0.0000000  7.9496000  1
   2453   2452   2454   2455     1  180.0000771  9.6232000  2
   2457   2456   2445   2467     1  0.0000000  0.6508444  3
   2457   2456   2459   2462     1  0.0000000  0.6508444  3
   2457   2456   2459   2460     1  0.0000000  0.6508444  3
   2457   2456   2459   2461     1  0.0000000  0.6508444  3
   2458   2456   2445   2467     1  0.0000000  0.6508444  3
   2458   2456   2459   2462     1  0.0000000  0.6508444  3
   2458   2456   2459   2460     1  0.0000000  0.6508444  3
   2458   2456   2459   2461     1  0.0000000  0.6508444  3
   2459   2456   2445   2467     1  0.0000000  0.6508444  3
   2459   2462   2464   2465     1  180.0000771  9.6232000  2
   2460   2459   2462   2463     1  0.0000000  3.3472000  1
   2460   2459   2462   2463     1  0.0000000  0.0000000  2
   2460   2459   2462   2463     1  180.0000771  0.3347200  3
   2460   2459   2462   2464     1  180.0000771  0.0000000  2
   2461   2459   2462   2463     1  0.0000000  3.3472000  1
   2461   2459   2462   2463     1  0.0000000  0.0000000  2
   2461   2459   2462   2463     1  180.0000771  0.3347200  3
   2461   2459   2462   2464     1  180.0000771  0.0000000  2
   2463   2462   2464   2465     1  0.0000000  7.9496000  1
   2463   2462   2464   2465     1  180.0000771  9.6232000  2
   2468   2471   2474   2475     1  0.0000000  0.6508444  3
   2468   2471   2474   2476     1  0.0000000  0.6508444  3
   2469   2468   2471   2474     1  0.0000000  0.6508444  3
   2469   2468   2471   2472     1  0.0000000  0.6508444  3
   2469   2468   2471   2473     1  0.0000000  0.6508444  3
   2470   2468   2471   2474     1  0.0000000  0.6508444  3
   2470   2468   2471   2472     1  0.0000000  0.6508444  3
   2470   2468   2471   2473     1  0.0000000  0.6508444  3
   2471   2474   2477   2499     1  0.0000000  0.6508444  3
   2472   2471   2474   2477     1  0.0000000  0.6508444  3
   2472   2471   2474   2475     1  0.0000000  0.6508444  3
   2472   2471   2474   2476     1  0.0000000  0.6508444  3
   2472   2471   2468   2498     1  0.0000000  1.0460000  1
   2472   2471   2468   2498     1  0.0000000  0.0000000  3
   2473   2471   2474   2477     1  0.0000000  0.6508444  3
   2473   2471   2474   2475     1  0.0000000  0.6508444  3
   2473   2471   2474   2476     1  0.0000000  0.6508444  3
   2473   2471   2468   2498     1  0.0000000  1.0460000  1
   2473   2471   2468   2498     1  0.0000000  0.0000000  3
   2474   2477   2478   2479     1  0.0000000  0.6508444  3
   2474   2477   2478   2480     1  0.0000000  0.6508444  3
   2474   2477   2488   2489     1  0.0000000  0.6508444  3
   2474   2477   2488   2490     1  0.0000000  0.6508444  3
   2475   2474   2477   2478     1  0.0000000  0.6508444  3
   2475   2474   2477   2488     1  0.0000000  0.6508444  3
   2475   2474   2477   2499     1  0.0000000  0.6508444  3
   2476   2474   2477   2478     1  0.0000000  0.6508444  3
   2476   2474   2477   2488     1  0.0000000  0.6508444  3
   2476   2474   2477   2499     1  0.0000000  0.6508444  3
   2477   2478   2481   2482     1  0.0000000  0.6508444  3
   2477   2478   2481   2483     1  0.0000000  0.6508444  3
   2477   2488   2491   2492     1  0.0000000  0.6508444  3
   2477   2488   2491   2493     1  0.0000000  0.6508444  3
   2478   2477   2488   2489     1  0.0000000  0.6508444  3
   2478   2477   2488   2490     1  0.0000000  0.6508444  3
   2479   2478   2481   2484     1  0.0000000  0.6508444  3
   2479   2478   2481   2482     1  0.0000000  0.6508444  3
   2479   2478   2481   2483     1  0.0000000  0.6508444  3
   2479   2478   2477   2488     1  0.0000000  0.6508444  3
   2479   2478   2477   2499     1  0.0000000  0.6508444  3
   2480   2478   2481   2484     1  0.0000000  0.6508444  3
   2480   2478   2481   2482     1  0.0000000  0.6508444  3
   2480   2478   2481   2483     1  0.0000000  0.6508444  3
   2480   2478   2477   2488     1  0.0000000  0.6508444  3
   2480   2478   2477   2499     1  0.0000000  0.6508444  3
   2481   2484   2486   2487     1  180.0000771  9.6232000  2
   2481   2478   2477   2499     1  0.0000000  0.6508444  3
   2482   2481   2484   2485     1  0.0000000  3.3472000  1
   2482   2481   2484   2485     1  0.0000000  0.0000000  2
   2482   2481   2484   2485     1  180.0000771  0.3347200  3
   2482   2481   2484   2486     1  180.0000771  0.0000000  2
   2483   2481   2484   2485     1  0.0000000  3.3472000  1
   2483   2481   2484   2485     1  0.0000000  0.0000000  2
   2483   2481   2484   2485     1  180.0000771  0.3347200  3
   2483   2481   2484   2486     1  180.0000771  0.0000000  2
   2485   2484   2486   2487     1  0.0000000  7.9496000  1
   2485   2484   2486   2487     1  180.0000771  9.6232000  2
   2489   2488   2491   2494     1  0.0000000  0.6508444  3
   2489   2488   2491   2492     1  0.0000000  0.6508444  3
   2489   2488   2491   2493     1  0.0000000  0.6508444  3
   2489   2488   2477   2499     1  0.0000000  0.6508444  3
   2490   2488   2491   2494     1  0.0000000  0.6508444  3
   2490   2488   2491   2492     1  0.0000000  0.6508444  3
   2490   2488   2491   2493     1  0.0000000  0.6508444  3
   2490   2488   2477   2499     1  0.0000000  0.6508444  3
   2491   2494   2496   2497     1  180.0000771  9.6232000  2
   2491   2488   2477   2499     1  0.0000000  0.6508444  3
   2492   2491   2494   2495     1  0.0000000  3.3472000  1
   2492   2491   2494   2495     1  0.0000000  0.0000000  2
   2492   2491   2494   2495     1  180.0000771  0.3347200  3
   2492   2491   2494   2496     1  180.0000771  0.0000000  2
   2493   2491   2494   2495     1  0.0000000  3.3472000  1
   2493   2491   2494   2495     1  0.0000000  0.0000000  2
   2493   2491   2494   2495     1  180.0000771  0.3347200  3
   2493   2491   2494   2496     1  180.0000771  0.0000000  2
   2495   2494   2496   2497     1  0.0000000  7.9496000  1
   2495   2494   2496   2497     1  180.0000771  9.6232000  2
   2500   2503   2506   2507     1  0.0000000  0.6508444  3
   2500   2503   2506   2508     1  0.0000000  0.6508444  3
   2501   2500   2503   2506     1  0.0000000  0.6508444  3
   2501   2500   2503   2504     1  0.0000000  0.6508444  3
   2501   2500   2503   2505     1  0.0000000  0.6508444  3
   2502   2500   2503   2506     1  0.0000000  0.6508444  3
   2502   2500   2503   2504     1  0.0000000  0.6508444  3
   2502   2500   2503   2505     1  0.0000000  0.6508444  3
   2503   2506   2509   2531     1  0.0000000  0.6508444  3
   2504   2503   2500   2530     1  0.0000000  1.0460000  1
   2504   2503   2500   2530     1  0.0000000  0.0000000  3
   2504   2503   2506   2509     1  0.0000000  0.6508444  3
   2504   2503   2506   2507     1  0.0000000  0.6508444  3
   2504   2503   2506   2508     1  0.0000000  0.6508444  3
   2505   2503   2500   2530     1  0.0000000  1.0460000  1
   2505   2503   2500   2530     1  0.0000000  0.0000000  3
   2505   2503   2506   2509     1  0.0000000  0.6508444  3
   2505   2503   2506   2507     1  0.0000000  0.6508444  3
   2505   2503   2506   2508     1  0.0000000  0.6508444  3
   2506   2509   2510   2511     1  0.0000000  0.6508444  3
   2506   2509   2510   2512     1  0.0000000  0.6508444  3
   2506   2509   2520   2521     1  0.0000000  0.6508444  3
   2506   2509   2520   2522     1  0.0000000  0.6508444  3
   2507   2506   2509   2510     1  0.0000000  0.6508444  3
   2507   2506   2509   2520     1  0.0000000  0.6508444  3
   2507   2506   2509   2531     1  0.0000000  0.6508444  3
   2508   2506   2509   2510     1  0.0000000  0.6508444  3
   2508   2506   2509   2520     1  0.0000000  0.6508444  3
   2508   2506   2509   2531     1  0.0000000  0.6508444  3
   2509   2510   2513   2514     1  0.0000000  0.6508444  3
   2509   2510   2513   2515     1  0.0000000  0.6508444  3
   2509   2520   2523   2524     1  0.0000000  0.6508444  3
   2509   2520   2523   2525     1  0.0000000  0.6508444  3
   2510   2509   2520   2521     1  0.0000000  0.6508444  3
   2510   2509   2520   2522     1  0.0000000  0.6508444  3
   2511   2510   2509   2520     1  0.0000000  0.6508444  3
   2511   2510   2509   2531     1  0.0000000  0.6508444  3
   2511   2510   2513   2516     1  0.0000000  0.6508444  3
   2511   2510   2513   2514     1  0.0000000  0.6508444  3
   2511   2510   2513   2515     1  0.0000000  0.6508444  3
   2512   2510   2509   2520     1  0.0000000  0.6508444  3
   2512   2510   2509   2531     1  0.0000000  0.6508444  3
   2512   2510   2513   2516     1  0.0000000  0.6508444  3
   2512   2510   2513   2514     1  0.0000000  0.6508444  3
   2512   2510   2513   2515     1  0.0000000  0.6508444  3
   2513   2510   2509   2531     1  0.0000000  0.6508444  3
   2513   2516   2518   2519     1  180.0000771  9.6232000  2
   2514   2513   2516   2517     1  0.0000000  3.3472000  1
   2514   2513   2516   2517     1  0.0000000  0.0000000  2
   2514   2513   2516   2517     1  180.0000771  0.3347200  3
   2514   2513   2516   2518     1  180.0000771  0.0000000  2
   2515   2513   2516   2517     1  0.0000000  3.3472000  1
   2515   2513   2516   2517     1  0.0000000  0.0000000  2
   2515   2513   2516   2517     1  180.0000771  0.3347200  3
   2515   2513   2516   2518     1  180.0000771  0.0000000  2
   2517   2516   2518   2519     1  0.0000000  7.9496000  1
   2517   2516   2518   2519     1  180.0000771  9.6232000  2
   2521   2520   2509   2531     1  0.0000000  0.6508444  3
   2521   2520   2523   2526     1  0.0000000  0.6508444  3
   2521   2520   2523   2524     1  0.0000000  0.6508444  3
   2521   2520   2523   2525     1  0.0000000  0.6508444  3
   2522   2520   2509   2531     1  0.0000000  0.6508444  3
   2522   2520   2523   2526     1  0.0000000  0.6508444  3
   2522   2520   2523   2524     1  0.0000000  0.6508444  3
   2522   2520   2523   2525     1  0.0000000  0.6508444  3
   2523   2520   2509   2531     1  0.0000000  0.6508444  3
   2523   2526   2528   2529     1  180.0000771  9.6232000  2
   2524   2523   2526   2527     1  0.0000000  3.3472000  1
   2524   2523   2526   2527     1  0.0000000  0.0000000  2
   2524   2523   2526   2527     1  180.0000771  0.3347200  3
   2524   2523   2526   2528     1  180.0000771  0.0000000  2
   2525   2523   2526   2527     1  0.0000000  3.3472000  1
   2525   2523   2526   2527     1  0.0000000  0.0000000  2
   2525   2523   2526   2527     1  180.0000771  0.3347200  3
   2525   2523   2526   2528     1  180.0000771  0.0000000  2
   2527   2526   2528   2529     1  0.0000000  7.9496000  1
   2527   2526   2528   2529     1  180.0000771  9.6232000  2
   2532   2535   2538   2539     1  0.0000000  0.6508444  3
   2532   2535   2538   2540     1  0.0000000  0.6508444  3
   2533   2532   2535   2538     1  0.0000000  0.6508444  3
   2533   2532   2535   2536     1  0.0000000  0.6508444  3
   2533   2532   2535   2537     1  0.0000000  0.6508444  3
   2534   2532   2535   2538     1  0.0000000  0.6508444  3
   2534   2532   2535   2536     1  0.0000000  0.6508444  3
   2534   2532   2535   2537     1  0.0000000  0.6508444  3
   2535   2538   2541   2563     1  0.0000000  0.6508444  3
   2536   2535   2538   2541     1  0.0000000  0.6508444  3
   2536   2535   2538   2539     1  0.0000000  0.6508444  3
   2536   2535   2538   2540     1  0.0000000  0.6508444  3
   2536   2535   2532   2562     1  0.0000000  1.0460000  1
   2536   2535   2532   2562     1  0.0000000  0.0000000  3
   2537   2535   2538   2541     1  0.0000000  0.6508444  3
   2537   2535   2538   2539     1  0.0000000  0.6508444  3
   2537   2535   2538   2540     1  0.0000000  0.6508444  3
   2537   2535   2532   2562     1  0.0000000  1.0460000  1
   2537   2535   2532   2562     1  0.0000000  0.0000000  3
   2538   2541   2542   2543     1  0.0000000  0.6508444  3
   2538   2541   2542   2544     1  0.0000000  0.6508444  3
   2538   2541   2552   2553     1  0.0000000  0.6508444  3
   2538   2541   2552   2554     1  0.0000000  0.6508444  3
   2539   2538   2541   2542     1  0.0000000  0.6508444  3
   2539   2538   2541   2552     1  0.0000000  0.6508444  3
   2539   2538   2541   2563     1  0.0000000  0.6508444  3
   2540   2538   2541   2542     1  0.0000000  0.6508444  3
   2540   2538   2541   2552     1  0.0000000  0.6508444  3
   2540   2538   2541   2563     1  0.0000000  0.6508444  3
   2541   2542   2545   2546     1  0.0000000  0.6508444  3
   2541   2542   2545   2547     1  0.0000000  0.6508444  3
   2541   2552   2555   2556     1  0.0000000  0.6508444  3
   2541   2552   2555   2557     1  0.0000000  0.6508444  3
   2542   2541   2552   2553     1  0.0000000  0.6508444  3
   2542   2541   2552   2554     1  0.0000000  0.6508444  3
   2543   2542   2545   2548     1  0.0000000  0.6508444  3
   2543   2542   2545   2546     1  0.0000000  0.6508444  3
   2543   2542   2545   2547     1  0.0000000  0.6508444  3
   2543   2542   2541   2552     1  0.0000000  0.6508444  3
   2543   2542   2541   2563     1  0.0000000  0.6508444  3
   2544   2542   2545   2548     1  0.0000000  0.6508444  3
   2544   2542   2545   2546     1  0.0000000  0.6508444  3
   2544   2542   2545   2547     1  0.0000000  0.6508444  3
   2544   2542   2541   2552     1  0.0000000  0.6508444  3
   2544   2542   2541   2563     1  0.0000000  0.6508444  3
   2545   2548   2550   2551     1  180.0000771  9.6232000  2
   2545   2542   2541   2563     1  0.0000000  0.6508444  3
   2546   2545   2548   2549     1  0.0000000  3.3472000  1
   2546   2545   2548   2549     1  0.0000000  0.0000000  2
   2546   2545   2548   2549     1  180.0000771  0.3347200  3
   2546   2545   2548   2550     1  180.0000771  0.0000000  2
   2547   2545   2548   2549     1  0.0000000  3.3472000  1
   2547   2545   2548   2549     1  0.0000000  0.0000000  2
   2547   2545   2548   2549     1  180.0000771  0.3347200  3
   2547   2545   2548   2550     1  180.0000771  0.0000000  2
   2549   2548   2550   2551     1  0.0000000  7.9496000  1
   2549   2548   2550   2551     1  180.0000771  9.6232000  2
   2553   2552   2555   2558     1  0.0000000  0.6508444  3
   2553   2552   2555   2556     1  0.0000000  0.6508444  3
   2553   2552   2555   2557     1  0.0000000  0.6508444  3
   2553   2552   2541   2563     1  0.0000000  0.6508444  3
   2554   2552   2555   2558     1  0.0000000  0.6508444  3
   2554   2552   2555   2556     1  0.0000000  0.6508444  3
   2554   2552   2555   2557     1  0.0000000  0.6508444  3
   2554   2552   2541   2563     1  0.0000000  0.6508444  3
   2555   2558   2560   2561     1  180.0000771  9.6232000  2
   2555   2552   2541   2563     1  0.0000000  0.6508444  3
   2556   2555   2558   2559     1  0.0000000  3.3472000  1
   2556   2555   2558   2559     1  0.0000000  0.0000000  2
   2556   2555   2558   2559     1  180.0000771  0.3347200  3
   2556   2555   2558   2560     1  180.0000771  0.0000000  2
   2557   2555   2558   2559     1  0.0000000  3.3472000  1
   2557   2555   2558   2559     1  0.0000000  0.0000000  2
   2557   2555   2558   2559     1  180.0000771  0.3347200  3
   2557   2555   2558   2560     1  180.0000771  0.0000000  2
   2559   2558   2560   2561     1  0.0000000  7.9496000  1
   2559   2558   2560   2561     1  180.0000771  9.6232000  2
   2564   2567   2570   2571     1  0.0000000  0.6508444  3
   2564   2567   2570   2572     1  0.0000000  0.6508444  3
   2565   2564   2567   2570     1  0.0000000  0.6508444  3
   2565   2564   2567   2568     1  0.0000000  0.6508444  3
   2565   2564   2567   2569     1  0.0000000  0.6508444  3
   2566   2564   2567   2570     1  0.0000000  0.6508444  3
   2566   2564   2567   2568     1  0.0000000  0.6508444  3
   2566   2564   2567   2569     1  0.0000000  0.6508444  3
   2567   2570   2573   2595     1  0.0000000  0.6508444  3
   2568   2567   2564   2594     1  0.0000000  1.0460000  1
   2568   2567   2564   2594     1  0.0000000  0.0000000  3
   2568   2567   2570   2573     1  0.0000000  0.6508444  3
   2568   2567   2570   2571     1  0.0000000  0.6508444  3
   2568   2567   2570   2572     1  0.0000000  0.6508444  3
   2569   2567   2564   2594     1  0.0000000  1.0460000  1
   2569   2567   2564   2594     1  0.0000000  0.0000000  3
   2569   2567   2570   2573     1  0.0000000  0.6508444  3
   2569   2567   2570   2571     1  0.0000000  0.6508444  3
   2569   2567   2570   2572     1  0.0000000  0.6508444  3
   2570   2573   2574   2575     1  0.0000000  0.6508444  3
   2570   2573   2574   2576     1  0.0000000  0.6508444  3
   2570   2573   2584   2585     1  0.0000000  0.6508444  3
   2570   2573   2584   2586     1  0.0000000  0.6508444  3
   2571   2570   2573   2574     1  0.0000000  0.6508444  3
   2571   2570   2573   2584     1  0.0000000  0.6508444  3
   2571   2570   2573   2595     1  0.0000000  0.6508444  3
   2572   2570   2573   2574     1  0.0000000  0.6508444  3
   2572   2570   2573   2584     1  0.0000000  0.6508444  3
   2572   2570   2573   2595     1  0.0000000  0.6508444  3
   2573   2574   2577   2578     1  0.0000000  0.6508444  3
   2573   2574   2577   2579     1  0.0000000  0.6508444  3
   2573   2584   2587   2588     1  0.0000000  0.6508444  3
   2573   2584   2587   2589     1  0.0000000  0.6508444  3
   2574   2573   2584   2585     1  0.0000000  0.6508444  3
   2574   2573   2584   2586     1  0.0000000  0.6508444  3
   2575   2574   2573   2584     1  0.0000000  0.6508444  3
   2575   2574   2573   2595     1  0.0000000  0.6508444  3
   2575   2574   2577   2580     1  0.0000000  0.6508444  3
   2575   2574   2577   2578     1  0.0000000  0.6508444  3
   2575   2574   2577   2579     1  0.0000000  0.6508444  3
   2576   2574   2573   2584     1  0.0000000  0.6508444  3
   2576   2574   2573   2595     1  0.0000000  0.6508444  3
   2576   2574   2577   2580     1  0.0000000  0.6508444  3
   2576   2574   2577   2578     1  0.0000000  0.6508444  3
   2576   2574   2577   2579     1  0.0000000  0.6508444  3
   2577   2574   2573   2595     1  0.0000000  0.6508444  3
   2577   2580   2582   2583     1  180.0000771  9.6232000  2
   2578   2577   2580   2581     1  0.0000000  3.3472000  1
   2578   2577   2580   2581     1  0.0000000  0.0000000  2
   2578   2577   2580   2581     1  180.0000771  0.3347200  3
   2578   2577   2580   2582     1  180.0000771  0.0000000  2
   2579   2577   2580   2581     1  0.0000000  3.3472000  1
   2579   2577   2580   2581     1  0.0000000  0.0000000  2
   2579   2577   2580   2581     1  180.0000771  0.3347200  3
   2579   2577   2580   2582     1  180.0000771  0.0000000  2
   2581   2580   2582   2583     1  0.0000000  7.9496000  1
   2581   2580   2582   2583     1  180.0000771  9.6232000  2
   2585   2584   2573   2595     1  0.0000000  0.6508444  3
   2585   2584   2587   2590     1  0.0000000  0.6508444  3
   2585   2584   2587   2588     1  0.0000000  0.6508444  3
   2585   2584   2587   2589     1  0.0000000  0.6508444  3
   2586   2584   2573   2595     1  0.0000000  0.6508444  3
   2586   2584   2587   2590     1  0.0000000  0.6508444  3
   2586   2584   2587   2588     1  0.0000000  0.6508444  3
   2586   2584   2587   2589     1  0.0000000  0.6508444  3
   2587   2584   2573   2595     1  0.0000000  0.6508444  3
   2587   2590   2592   2593     1  180.0000771  9.6232000  2
   2588   2587   2590   2591     1  0.0000000  3.3472000  1
   2588   2587   2590   2591     1  0.0000000  0.0000000  2
   2588   2587   2590   2591     1  180.0000771  0.3347200  3
   2588   2587   2590   2592     1  180.0000771  0.0000000  2
   2589   2587   2590   2591     1  0.0000000  3.3472000  1
   2589   2587   2590   2591     1  0.0000000  0.0000000  2
   2589   2587   2590   2591     1  180.0000771  0.3347200  3
   2589   2587   2590   2592     1  180.0000771  0.0000000  2
   2591   2590   2592   2593     1  0.0000000  7.9496000  1
   2591   2590   2592   2593     1  180.0000771  9.6232000  2
   2596   2599   2602   2603     1  0.0000000  0.6508444  3
   2596   2599   2602   2604     1  0.0000000  0.6508444  3
   2597   2596   2599   2602     1  0.0000000  0.6508444  3
   2597   2596   2599   2600     1  0.0000000  0.6508444  3
   2597   2596   2599   2601     1  0.0000000  0.6508444  3
   2598   2596   2599   2602     1  0.0000000  0.6508444  3
   2598   2596   2599   2600     1  0.0000000  0.6508444  3
   2598   2596   2599   2601     1  0.0000000  0.6508444  3
   2599   2602   2605   2627     1  0.0000000  0.6508444  3
   2600   2599   2602   2605     1  0.0000000  0.6508444  3
   2600   2599   2602   2603     1  0.0000000  0.6508444  3
   2600   2599   2602   2604     1  0.0000000  0.6508444  3
   2600   2599   2596   2626     1  0.0000000  1.0460000  1
   2600   2599   2596   2626     1  0.0000000  0.0000000  3
   2601   2599   2602   2605     1  0.0000000  0.6508444  3
   2601   2599   2602   2603     1  0.0000000  0.6508444  3
   2601   2599   2602   2604     1  0.0000000  0.6508444  3
   2601   2599   2596   2626     1  0.0000000  1.0460000  1
   2601   2599   2596   2626     1  0.0000000  0.0000000  3
   2602   2605   2606   2607     1  0.0000000  0.6508444  3
   2602   2605   2606   2608     1  0.0000000  0.6508444  3
   2602   2605   2616   2617     1  0.0000000  0.6508444  3
   2602   2605   2616   2618     1  0.0000000  0.6508444  3
   2603   2602   2605   2606     1  0.0000000  0.6508444  3
   2603   2602   2605   2616     1  0.0000000  0.6508444  3
   2603   2602   2605   2627     1  0.0000000  0.6508444  3
   2604   2602   2605   2606     1  0.0000000  0.6508444  3
   2604   2602   2605   2616     1  0.0000000  0.6508444  3
   2604   2602   2605   2627     1  0.0000000  0.6508444  3
   2605   2606   2609   2610     1  0.0000000  0.6508444  3
   2605   2606   2609   2611     1  0.0000000  0.6508444  3
   2605   2616   2619   2620     1  0.0000000  0.6508444  3
   2605   2616   2619   2621     1  0.0000000  0.6508444  3
   2606   2605   2616   2617     1  0.0000000  0.6508444  3
   2606   2605   2616   2618     1  0.0000000  0.6508444  3
   2607   2606   2609   2612     1  0.0000000  0.6508444  3
   2607   2606   2609   2610     1  0.0000000  0.6508444  3
   2607   2606   2609   2611     1  0.0000000  0.6508444  3
   2607   2606   2605   2616     1  0.0000000  0.6508444  3
   2607   2606   2605   2627     1  0.0000000  0.6508444  3
   2608   2606   2609   2612     1  0.0000000  0.6508444  3
   2608   2606   2609   2610     1  0.0000000  0.6508444  3
   2608   2606   2609   2611     1  0.0000000  0.6508444  3
   2608   2606   2605   2616     1  0.0000000  0.6508444  3
   2608   2606   2605   2627     1  0.0000000  0.6508444  3
   2609   2612   2614   2615     1  180.0000771  9.6232000  2
   2609   2606   2605   2627     1  0.0000000  0.6508444  3
   2610   2609   2612   2613     1  0.0000000  3.3472000  1
   2610   2609   2612   2613     1  0.0000000  0.0000000  2
   2610   2609   2612   2613     1  180.0000771  0.3347200  3
   2610   2609   2612   2614     1  180.0000771  0.0000000  2
   2611   2609   2612   2613     1  0.0000000  3.3472000  1
   2611   2609   2612   2613     1  0.0000000  0.0000000  2
   2611   2609   2612   2613     1  180.0000771  0.3347200  3
   2611   2609   2612   2614     1  180.0000771  0.0000000  2
   2613   2612   2614   2615     1  0.0000000  7.9496000  1
   2613   2612   2614   2615     1  180.0000771  9.6232000  2
   2617   2616   2619   2622     1  0.0000000  0.6508444  3
   2617   2616   2619   2620     1  0.0000000  0.6508444  3
   2617   2616   2619   2621     1  0.0000000  0.6508444  3
   2617   2616   2605   2627     1  0.0000000  0.6508444  3
   2618   2616   2619   2622     1  0.0000000  0.6508444  3
   2618   2616   2619   2620     1  0.0000000  0.6508444  3
   2618   2616   2619   2621     1  0.0000000  0.6508444  3
   2618   2616   2605   2627     1  0.0000000  0.6508444  3
   2619   2622   2624   2625     1  180.0000771  9.6232000  2
   2619   2616   2605   2627     1  0.0000000  0.6508444  3
   2620   2619   2622   2623     1  0.0000000  3.3472000  1
   2620   2619   2622   2623     1  0.0000000  0.0000000  2
   2620   2619   2622   2623     1  180.0000771  0.3347200  3
   2620   2619   2622   2624     1  180.0000771  0.0000000  2
   2621   2619   2622   2623     1  0.0000000  3.3472000  1
   2621   2619   2622   2623     1  0.0000000  0.0000000  2
   2621   2619   2622   2623     1  180.0000771  0.3347200  3
   2621   2619   2622   2624     1  180.0000771  0.0000000  2
   2623   2622   2624   2625     1  0.0000000  7.9496000  1
   2623   2622   2624   2625     1  180.0000771  9.6232000  2
   2628   2631   2634   2635     1  0.0000000  0.6508444  3
   2628   2631   2634   2636     1  0.0000000  0.6508444  3
   2629   2628   2631   2634     1  0.0000000  0.6508444  3
   2629   2628   2631   2632     1  0.0000000  0.6508444  3
   2629   2628   2631   2633     1  0.0000000  0.6508444  3
   2630   2628   2631   2634     1  0.0000000  0.6508444  3
   2630   2628   2631   2632     1  0.0000000  0.6508444  3
   2630   2628   2631   2633     1  0.0000000  0.6508444  3
   2631   2634   2637   2659     1  0.0000000  0.6508444  3
   2632   2631   2628   2658     1  0.0000000  1.0460000  1
   2632   2631   2628   2658     1  0.0000000  0.0000000  3
   2632   2631   2634   2637     1  0.0000000  0.6508444  3
   2632   2631   2634   2635     1  0.0000000  0.6508444  3
   2632   2631   2634   2636     1  0.0000000  0.6508444  3
   2633   2631   2628   2658     1  0.0000000  1.0460000  1
   2633   2631   2628   2658     1  0.0000000  0.0000000  3
   2633   2631   2634   2637     1  0.0000000  0.6508444  3
   2633   2631   2634   2635     1  0.0000000  0.6508444  3
   2633   2631   2634   2636     1  0.0000000  0.6508444  3
   2634   2637   2638   2639     1  0.0000000  0.6508444  3
   2634   2637   2638   2640     1  0.0000000  0.6508444  3
   2634   2637   2648   2649     1  0.0000000  0.6508444  3
   2634   2637   2648   2650     1  0.0000000  0.6508444  3
   2635   2634   2637   2638     1  0.0000000  0.6508444  3
   2635   2634   2637   2648     1  0.0000000  0.6508444  3
   2635   2634   2637   2659     1  0.0000000  0.6508444  3
   2636   2634   2637   2638     1  0.0000000  0.6508444  3
   2636   2634   2637   2648     1  0.0000000  0.6508444  3
   2636   2634   2637   2659     1  0.0000000  0.6508444  3
   2637   2638   2641   2642     1  0.0000000  0.6508444  3
   2637   2638   2641   2643     1  0.0000000  0.6508444  3
   2637   2648   2651   2652     1  0.0000000  0.6508444  3
   2637   2648   2651   2653     1  0.0000000  0.6508444  3
   2638   2637   2648   2649     1  0.0000000  0.6508444  3
   2638   2637   2648   2650     1  0.0000000  0.6508444  3
   2639   2638   2637   2648     1  0.0000000  0.6508444  3
   2639   2638   2637   2659     1  0.0000000  0.6508444  3
   2639   2638   2641   2644     1  0.0000000  0.6508444  3
   2639   2638   2641   2642     1  0.0000000  0.6508444  3
   2639   2638   2641   2643     1  0.0000000  0.6508444  3
   2640   2638   2637   2648     1  0.0000000  0.6508444  3
   2640   2638   2637   2659     1  0.0000000  0.6508444  3
   2640   2638   2641   2644     1  0.0000000  0.6508444  3
   2640   2638   2641   2642     1  0.0000000  0.6508444  3
   2640   2638   2641   2643     1  0.0000000  0.6508444  3
   2641   2638   2637   2659     1  0.0000000  0.6508444  3
   2641   2644   2646   2647     1  180.0000771  9.6232000  2
   2642   2641   2644   2645     1  0.0000000  3.3472000  1
   2642   2641   2644   2645     1  0.0000000  0.0000000  2
   2642   2641   2644   2645     1  180.0000771  0.3347200  3
   2642   2641   2644   2646     1  180.0000771  0.0000000  2
   2643   2641   2644   2645     1  0.0000000  3.3472000  1
   2643   2641   2644   2645     1  0.0000000  0.0000000  2
   2643   2641   2644   2645     1  180.0000771  0.3347200  3
   2643   2641   2644   2646     1  180.0000771  0.0000000  2
   2645   2644   2646   2647     1  0.0000000  7.9496000  1
   2645   2644   2646   2647     1  180.0000771  9.6232000  2
   2649   2648   2637   2659     1  0.0000000  0.6508444  3
   2649   2648   2651   2654     1  0.0000000  0.6508444  3
   2649   2648   2651   2652     1  0.0000000  0.6508444  3
   2649   2648   2651   2653     1  0.0000000  0.6508444  3
   2650   2648   2637   2659     1  0.0000000  0.6508444  3
   2650   2648   2651   2654     1  0.0000000  0.6508444  3
   2650   2648   2651   2652     1  0.0000000  0.6508444  3
   2650   2648   2651   2653     1  0.0000000  0.6508444  3
   2651   2648   2637   2659     1  0.0000000  0.6508444  3
   2651   2654   2656   2657     1  180.0000771  9.6232000  2
   2652   2651   2654   2655     1  0.0000000  3.3472000  1
   2652   2651   2654   2655     1  0.0000000  0.0000000  2
   2652   2651   2654   2655     1  180.0000771  0.3347200  3
   2652   2651   2654   2656     1  180.0000771  0.0000000  2
   2653   2651   2654   2655     1  0.0000000  3.3472000  1
   2653   2651   2654   2655     1  0.0000000  0.0000000  2
   2653   2651   2654   2655     1  180.0000771  0.3347200  3
   2653   2651   2654   2656     1  180.0000771  0.0000000  2
   2655   2654   2656   2657     1  0.0000000  7.9496000  1
   2655   2654   2656   2657     1  180.0000771  9.6232000  2
   2660   2663   2666   2667     1  0.0000000  0.6508444  3
   2660   2663   2666   2668     1  0.0000000  0.6508444  3
   2661   2660   2663   2666     1  0.0000000  0.6508444  3
   2661   2660   2663   2664     1  0.0000000  0.6508444  3
   2661   2660   2663   2665     1  0.0000000  0.6508444  3
   2662   2660   2663   2666     1  0.0000000  0.6508444  3
   2662   2660   2663   2664     1  0.0000000  0.6508444  3
   2662   2660   2663   2665     1  0.0000000  0.6508444  3
   2663   2666   2669   2691     1  0.0000000  0.6508444  3
   2664   2663   2666   2669     1  0.0000000  0.6508444  3
   2664   2663   2666   2667     1  0.0000000  0.6508444  3
   2664   2663   2666   2668     1  0.0000000  0.6508444  3
   2664   2663   2660   2690     1  0.0000000  1.0460000  1
   2664   2663   2660   2690     1  0.0000000  0.0000000  3
   2665   2663   2666   2669     1  0.0000000  0.6508444  3
   2665   2663   2666   2667     1  0.0000000  0.6508444  3
   2665   2663   2666   2668     1  0.0000000  0.6508444  3
   2665   2663   2660   2690     1  0.0000000  1.0460000  1
   2665   2663   2660   2690     1  0.0000000  0.0000000  3
   2666   2669   2670   2671     1  0.0000000  0.6508444  3
   2666   2669   2670   2672     1  0.0000000  0.6508444  3
   2666   2669   2680   2681     1  0.0000000  0.6508444  3
   2666   2669   2680   2682     1  0.0000000  0.6508444  3
   2667   2666   2669   2670     1  0.0000000  0.6508444  3
   2667   2666   2669   2680     1  0.0000000  0.6508444  3
   2667   2666   2669   2691     1  0.0000000  0.6508444  3
   2668   2666   2669   2670     1  0.0000000  0.6508444  3
   2668   2666   2669   2680     1  0.0000000  0.6508444  3
   2668   2666   2669   2691     1  0.0000000  0.6508444  3
   2669   2670   2673   2674     1  0.0000000  0.6508444  3
   2669   2670   2673   2675     1  0.0000000  0.6508444  3
   2669   2680   2683   2684     1  0.0000000  0.6508444  3
   2669   2680   2683   2685     1  0.0000000  0.6508444  3
   2670   2669   2680   2681     1  0.0000000  0.6508444  3
   2670   2669   2680   2682     1  0.0000000  0.6508444  3
   2671   2670   2673   2676     1  0.0000000  0.6508444  3
   2671   2670   2673   2674     1  0.0000000  0.6508444  3
   2671   2670   2673   2675     1  0.0000000  0.6508444  3
   2671   2670   2669   2680     1  0.0000000  0.6508444  3
   2671   2670   2669   2691     1  0.0000000  0.6508444  3
   2672   2670   2673   2676     1  0.0000000  0.6508444  3
   2672   2670   2673   2674     1  0.0000000  0.6508444  3
   2672   2670   2673   2675     1  0.0000000  0.6508444  3
   2672   2670   2669   2680     1  0.0000000  0.6508444  3
   2672   2670   2669   2691     1  0.0000000  0.6508444  3
   2673   2676   2678   2679     1  180.0000771  9.6232000  2
   2673   2670   2669   2691     1  0.0000000  0.6508444  3
   2674   2673   2676   2677     1  0.0000000  3.3472000  1
   2674   2673   2676   2677     1  0.0000000  0.0000000  2
   2674   2673   2676   2677     1  180.0000771  0.3347200  3
   2674   2673   2676   2678     1  180.0000771  0.0000000  2
   2675   2673   2676   2677     1  0.0000000  3.3472000  1
   2675   2673   2676   2677     1  0.0000000  0.0000000  2
   2675   2673   2676   2677     1  180.0000771  0.3347200  3
   2675   2673   2676   2678     1  180.0000771  0.0000000  2
   2677   2676   2678   2679     1  0.0000000  7.9496000  1
   2677   2676   2678   2679     1  180.0000771  9.6232000  2
   2681   2680   2683   2686     1  0.0000000  0.6508444  3
   2681   2680   2683   2684     1  0.0000000  0.6508444  3
   2681   2680   2683   2685     1  0.0000000  0.6508444  3
   2681   2680   2669   2691     1  0.0000000  0.6508444  3
   2682   2680   2683   2686     1  0.0000000  0.6508444  3
   2682   2680   2683   2684     1  0.0000000  0.6508444  3
   2682   2680   2683   2685     1  0.0000000  0.6508444  3
   2682   2680   2669   2691     1  0.0000000  0.6508444  3
   2683   2686   2688   2689     1  180.0000771  9.6232000  2
   2683   2680   2669   2691     1  0.0000000  0.6508444  3
   2684   2683   2686   2687     1  0.0000000  3.3472000  1
   2684   2683   2686   2687     1  0.0000000  0.0000000  2
   2684   2683   2686   2687     1  180.0000771  0.3347200  3
   2684   2683   2686   2688     1  180.0000771  0.0000000  2
   2685   2683   2686   2687     1  0.0000000  3.3472000  1
   2685   2683   2686   2687     1  0.0000000  0.0000000  2
   2685   2683   2686   2687     1  180.0000771  0.3347200  3
   2685   2683   2686   2688     1  180.0000771  0.0000000  2
   2687   2686   2688   2689     1  0.0000000  7.9496000  1
   2687   2686   2688   2689     1  180.0000771  9.6232000  2
   2692   2695   2698   2699     1  0.0000000  0.6508444  3
   2692   2695   2698   2700     1  0.0000000  0.6508444  3
   2693   2692   2695   2698     1  0.0000000  0.6508444  3
   2693   2692   2695   2696     1  0.0000000  0.6508444  3
   2693   2692   2695   2697     1  0.0000000  0.6508444  3
   2694   2692   2695   2698     1  0.0000000  0.6508444  3
   2694   2692   2695   2696     1  0.0000000  0.6508444  3
   2694   2692   2695   2697     1  0.0000000  0.6508444  3
   2695   2698   2701   2723     1  0.0000000  0.6508444  3
   2696   2695   2692   2722     1  0.0000000  1.0460000  1
   2696   2695   2692   2722     1  0.0000000  0.0000000  3
   2696   2695   2698   2701     1  0.0000000  0.6508444  3
   2696   2695   2698   2699     1  0.0000000  0.6508444  3
   2696   2695   2698   2700     1  0.0000000  0.6508444  3
   2697   2695   2692   2722     1  0.0000000  1.0460000  1
   2697   2695   2692   2722     1  0.0000000  0.0000000  3
   2697   2695   2698   2701     1  0.0000000  0.6508444  3
   2697   2695   2698   2699     1  0.0000000  0.6508444  3
   2697   2695   2698   2700     1  0.0000000  0.6508444  3
   2698   2701   2702   2703     1  0.0000000  0.6508444  3
   2698   2701   2702   2704     1  0.0000000  0.6508444  3
   2698   2701   2712   2713     1  0.0000000  0.6508444  3
   2698   2701   2712   2714     1  0.0000000  0.6508444  3
   2699   2698   2701   2702     1  0.0000000  0.6508444  3
   2699   2698   2701   2712     1  0.0000000  0.6508444  3
   2699   2698   2701   2723     1  0.0000000  0.6508444  3
   2700   2698   2701   2702     1  0.0000000  0.6508444  3
   2700   2698   2701   2712     1  0.0000000  0.6508444  3
   2700   2698   2701   2723     1  0.0000000  0.6508444  3
   2701   2702   2705   2706     1  0.0000000  0.6508444  3
   2701   2702   2705   2707     1  0.0000000  0.6508444  3
   2701   2712   2715   2716     1  0.0000000  0.6508444  3
   2701   2712   2715   2717     1  0.0000000  0.6508444  3
   2702   2701   2712   2713     1  0.0000000  0.6508444  3
   2702   2701   2712   2714     1  0.0000000  0.6508444  3
   2703   2702   2701   2712     1  0.0000000  0.6508444  3
   2703   2702   2701   2723     1  0.0000000  0.6508444  3
   2703   2702   2705   2708     1  0.0000000  0.6508444  3
   2703   2702   2705   2706     1  0.0000000  0.6508444  3
   2703   2702   2705   2707     1  0.0000000  0.6508444  3
   2704   2702   2701   2712     1  0.0000000  0.6508444  3
   2704   2702   2701   2723     1  0.0000000  0.6508444  3
   2704   2702   2705   2708     1  0.0000000  0.6508444  3
   2704   2702   2705   2706     1  0.0000000  0.6508444  3
   2704   2702   2705   2707     1  0.0000000  0.6508444  3
   2705   2702   2701   2723     1  0.0000000  0.6508444  3
   2705   2708   2710   2711     1  180.0000771  9.6232000  2
   2706   2705   2708   2709     1  0.0000000  3.3472000  1
   2706   2705   2708   2709     1  0.0000000  0.0000000  2
   2706   2705   2708   2709     1  180.0000771  0.3347200  3
   2706   2705   2708   2710     1  180.0000771  0.0000000  2
   2707   2705   2708   2709     1  0.0000000  3.3472000  1
   2707   2705   2708   2709     1  0.0000000  0.0000000  2
   2707   2705   2708   2709     1  180.0000771  0.3347200  3
   2707   2705   2708   2710     1  180.0000771  0.0000000  2
   2709   2708   2710   2711     1  0.0000000  7.9496000  1
   2709   2708   2710   2711     1  180.0000771  9.6232000  2
   2713   2712   2701   2723     1  0.0000000  0.6508444  3
   2713   2712   2715   2718     1  0.0000000  0.6508444  3
   2713   2712   2715   2716     1  0.0000000  0.6508444  3
   2713   2712   2715   2717     1  0.0000000  0.6508444  3
   2714   2712   2701   2723     1  0.0000000  0.6508444  3
   2714   2712   2715   2718     1  0.0000000  0.6508444  3
   2714   2712   2715   2716     1  0.0000000  0.6508444  3
   2714   2712   2715   2717     1  0.0000000  0.6508444  3
   2715   2712   2701   2723     1  0.0000000  0.6508444  3
   2715   2718   2720   2721     1  180.0000771  9.6232000  2
   2716   2715   2718   2719     1  0.0000000  3.3472000  1
   2716   2715   2718   2719     1  0.0000000  0.0000000  2
   2716   2715   2718   2719     1  180.0000771  0.3347200  3
   2716   2715   2718   2720     1  180.0000771  0.0000000  2
   2717   2715   2718   2719     1  0.0000000  3.3472000  1
   2717   2715   2718   2719     1  0.0000000  0.0000000  2
   2717   2715   2718   2719     1  180.0000771  0.3347200  3
   2717   2715   2718   2720     1  180.0000771  0.0000000  2
   2719   2718   2720   2721     1  0.0000000  7.9496000  1
   2719   2718   2720   2721     1  180.0000771  9.6232000  2
   2724   2727   2730   2731     1  0.0000000  0.6508444  3
   2724   2727   2730   2732     1  0.0000000  0.6508444  3
   2725   2724   2727   2730     1  0.0000000  0.6508444  3
   2725   2724   2727   2728     1  0.0000000  0.6508444  3
   2725   2724   2727   2729     1  0.0000000  0.6508444  3
   2726   2724   2727   2730     1  0.0000000  0.6508444  3
   2726   2724   2727   2728     1  0.0000000  0.6508444  3
   2726   2724   2727   2729     1  0.0000000  0.6508444  3
   2727   2730   2733   2755     1  0.0000000  0.6508444  3
   2728   2727   2730   2733     1  0.0000000  0.6508444  3
   2728   2727   2730   2731     1  0.0000000  0.6508444  3
   2728   2727   2730   2732     1  0.0000000  0.6508444  3
   2728   2727   2724   2754     1  0.0000000  1.0460000  1
   2728   2727   2724   2754     1  0.0000000  0.0000000  3
   2729   2727   2730   2733     1  0.0000000  0.6508444  3
   2729   2727   2730   2731     1  0.0000000  0.6508444  3
   2729   2727   2730   2732     1  0.0000000  0.6508444  3
   2729   2727   2724   2754     1  0.0000000  1.0460000  1
   2729   2727   2724   2754     1  0.0000000  0.0000000  3
   2730   2733   2734   2735     1  0.0000000  0.6508444  3
   2730   2733   2734   2736     1  0.0000000  0.6508444  3
   2730   2733   2744   2745     1  0.0000000  0.6508444  3
   2730   2733   2744   2746     1  0.0000000  0.6508444  3
   2731   2730   2733   2734     1  0.0000000  0.6508444  3
   2731   2730   2733   2744     1  0.0000000  0.6508444  3
   2731   2730   2733   2755     1  0.0000000  0.6508444  3
   2732   2730   2733   2734     1  0.0000000  0.6508444  3
   2732   2730   2733   2744     1  0.0000000  0.6508444  3
   2732   2730   2733   2755     1  0.0000000  0.6508444  3
   2733   2734   2737   2738     1  0.0000000  0.6508444  3
   2733   2734   2737   2739     1  0.0000000  0.6508444  3
   2733   2744   2747   2748     1  0.0000000  0.6508444  3
   2733   2744   2747   2749     1  0.0000000  0.6508444  3
   2734   2733   2744   2745     1  0.0000000  0.6508444  3
   2734   2733   2744   2746     1  0.0000000  0.6508444  3
   2735   2734   2737   2740     1  0.0000000  0.6508444  3
   2735   2734   2737   2738     1  0.0000000  0.6508444  3
   2735   2734   2737   2739     1  0.0000000  0.6508444  3
   2735   2734   2733   2744     1  0.0000000  0.6508444  3
   2735   2734   2733   2755     1  0.0000000  0.6508444  3
   2736   2734   2737   2740     1  0.0000000  0.6508444  3
   2736   2734   2737   2738     1  0.0000000  0.6508444  3
   2736   2734   2737   2739     1  0.0000000  0.6508444  3
   2736   2734   2733   2744     1  0.0000000  0.6508444  3
   2736   2734   2733   2755     1  0.0000000  0.6508444  3
   2737   2740   2742   2743     1  180.0000771  9.6232000  2
   2737   2734   2733   2755     1  0.0000000  0.6508444  3
   2738   2737   2740   2741     1  0.0000000  3.3472000  1
   2738   2737   2740   2741     1  0.0000000  0.0000000  2
   2738   2737   2740   2741     1  180.0000771  0.3347200  3
   2738   2737   2740   2742     1  180.0000771  0.0000000  2
   2739   2737   2740   2741     1  0.0000000  3.3472000  1
   2739   2737   2740   2741     1  0.0000000  0.0000000  2
   2739   2737   2740   2741     1  180.0000771  0.3347200  3
   2739   2737   2740   2742     1  180.0000771  0.0000000  2
   2741   2740   2742   2743     1  0.0000000  7.9496000  1
   2741   2740   2742   2743     1  180.0000771  9.6232000  2
   2745   2744   2747   2750     1  0.0000000  0.6508444  3
   2745   2744   2747   2748     1  0.0000000  0.6508444  3
   2745   2744   2747   2749     1  0.0000000  0.6508444  3
   2745   2744   2733   2755     1  0.0000000  0.6508444  3
   2746   2744   2747   2750     1  0.0000000  0.6508444  3
   2746   2744   2747   2748     1  0.0000000  0.6508444  3
   2746   2744   2747   2749     1  0.0000000  0.6508444  3
   2746   2744   2733   2755     1  0.0000000  0.6508444  3
   2747   2750   2752   2753     1  180.0000771  9.6232000  2
   2747   2744   2733   2755     1  0.0000000  0.6508444  3
   2748   2747   2750   2751     1  0.0000000  3.3472000  1
   2748   2747   2750   2751     1  0.0000000  0.0000000  2
   2748   2747   2750   2751     1  180.0000771  0.3347200  3
   2748   2747   2750   2752     1  180.0000771  0.0000000  2
   2749   2747   2750   2751     1  0.0000000  3.3472000  1
   2749   2747   2750   2751     1  0.0000000  0.0000000  2
   2749   2747   2750   2751     1  180.0000771  0.3347200  3
   2749   2747   2750   2752     1  180.0000771  0.0000000  2
   2751   2750   2752   2753     1  0.0000000  7.9496000  1
   2751   2750   2752   2753     1  180.0000771  9.6232000  2
   2756   2759   2762   2763     1  0.0000000  0.6508444  3
   2756   2759   2762   2764     1  0.0000000  0.6508444  3
   2757   2756   2759   2762     1  0.0000000  0.6508444  3
   2757   2756   2759   2760     1  0.0000000  0.6508444  3
   2757   2756   2759   2761     1  0.0000000  0.6508444  3
   2758   2756   2759   2762     1  0.0000000  0.6508444  3
   2758   2756   2759   2760     1  0.0000000  0.6508444  3
   2758   2756   2759   2761     1  0.0000000  0.6508444  3
   2759   2762   2765   2787     1  0.0000000  0.6508444  3
   2760   2759   2756   2786     1  0.0000000  1.0460000  1
   2760   2759   2756   2786     1  0.0000000  0.0000000  3
   2760   2759   2762   2765     1  0.0000000  0.6508444  3
   2760   2759   2762   2763     1  0.0000000  0.6508444  3
   2760   2759   2762   2764     1  0.0000000  0.6508444  3
   2761   2759   2756   2786     1  0.0000000  1.0460000  1
   2761   2759   2756   2786     1  0.0000000  0.0000000  3
   2761   2759   2762   2765     1  0.0000000  0.6508444  3
   2761   2759   2762   2763     1  0.0000000  0.6508444  3
   2761   2759   2762   2764     1  0.0000000  0.6508444  3
   2762   2765   2766   2767     1  0.0000000  0.6508444  3
   2762   2765   2766   2768     1  0.0000000  0.6508444  3
   2762   2765   2776   2777     1  0.0000000  0.6508444  3
   2762   2765   2776   2778     1  0.0000000  0.6508444  3
   2763   2762   2765   2766     1  0.0000000  0.6508444  3
   2763   2762   2765   2776     1  0.0000000  0.6508444  3
   2763   2762   2765   2787     1  0.0000000  0.6508444  3
   2764   2762   2765   2766     1  0.0000000  0.6508444  3
   2764   2762   2765   2776     1  0.0000000  0.6508444  3
   2764   2762   2765   2787     1  0.0000000  0.6508444  3
   2765   2766   2769   2770     1  0.0000000  0.6508444  3
   2765   2766   2769   2771     1  0.0000000  0.6508444  3
   2765   2776   2779   2780     1  0.0000000  0.6508444  3
   2765   2776   2779   2781     1  0.0000000  0.6508444  3
   2766   2765   2776   2777     1  0.0000000  0.6508444  3
   2766   2765   2776   2778     1  0.0000000  0.6508444  3
   2767   2766   2765   2776     1  0.0000000  0.6508444  3
   2767   2766   2765   2787     1  0.0000000  0.6508444  3
   2767   2766   2769   2772     1  0.0000000  0.6508444  3
   2767   2766   2769   2770     1  0.0000000  0.6508444  3
   2767   2766   2769   2771     1  0.0000000  0.6508444  3
   2768   2766   2765   2776     1  0.0000000  0.6508444  3
   2768   2766   2765   2787     1  0.0000000  0.6508444  3
   2768   2766   2769   2772     1  0.0000000  0.6508444  3
   2768   2766   2769   2770     1  0.0000000  0.6508444  3
   2768   2766   2769   2771     1  0.0000000  0.6508444  3
   2769   2766   2765   2787     1  0.0000000  0.6508444  3
   2769   2772   2774   2775     1  180.0000771  9.6232000  2
   2770   2769   2772   2773     1  0.0000000  3.3472000  1
   2770   2769   2772   2773     1  0.0000000  0.0000000  2
   2770   2769   2772   2773     1  180.0000771  0.3347200  3
   2770   2769   2772   2774     1  180.0000771  0.0000000  2
   2771   2769   2772   2773     1  0.0000000  3.3472000  1
   2771   2769   2772   2773     1  0.0000000  0.0000000  2
   2771   2769   2772   2773     1  180.0000771  0.3347200  3
   2771   2769   2772   2774     1  180.0000771  0.0000000  2
   2773   2772   2774   2775     1  0.0000000  7.9496000  1
   2773   2772   2774   2775     1  180.0000771  9.6232000  2
   2777   2776   2765   2787     1  0.0000000  0.6508444  3
   2777   2776   2779   2782     1  0.0000000  0.6508444  3
   2777   2776   2779   2780     1  0.0000000  0.6508444  3
   2777   2776   2779   2781     1  0.0000000  0.6508444  3
   2778   2776   2765   2787     1  0.0000000  0.6508444  3
   2778   2776   2779   2782     1  0.0000000  0.6508444  3
   2778   2776   2779   2780     1  0.0000000  0.6508444  3
   2778   2776   2779   2781     1  0.0000000  0.6508444  3
   2779   2776   2765   2787     1  0.0000000  0.6508444  3
   2779   2782   2784   2785     1  180.0000771  9.6232000  2
   2780   2779   2782   2783     1  0.0000000  3.3472000  1
   2780   2779   2782   2783     1  0.0000000  0.0000000  2
   2780   2779   2782   2783     1  180.0000771  0.3347200  3
   2780   2779   2782   2784     1  180.0000771  0.0000000  2
   2781   2779   2782   2783     1  0.0000000  3.3472000  1
   2781   2779   2782   2783     1  0.0000000  0.0000000  2
   2781   2779   2782   2783     1  180.0000771  0.3347200  3
   2781   2779   2782   2784     1  180.0000771  0.0000000  2
   2783   2782   2784   2785     1  0.0000000  7.9496000  1
   2783   2782   2784   2785     1  180.0000771  9.6232000  2
   2788   2791   2794   2795     1  0.0000000  0.6508444  3
   2788   2791   2794   2796     1  0.0000000  0.6508444  3
   2789   2788   2791   2794     1  0.0000000  0.6508444  3
   2789   2788   2791   2792     1  0.0000000  0.6508444  3
   2789   2788   2791   2793     1  0.0000000  0.6508444  3
   2790   2788   2791   2794     1  0.0000000  0.6508444  3
   2790   2788   2791   2792     1  0.0000000  0.6508444  3
   2790   2788   2791   2793     1  0.0000000  0.6508444  3
   2791   2794   2797   2819     1  0.0000000  0.6508444  3
   2792   2791   2794   2797     1  0.0000000  0.6508444  3
   2792   2791   2794   2795     1  0.0000000  0.6508444  3
   2792   2791   2794   2796     1  0.0000000  0.6508444  3
   2792   2791   2788   2818     1  0.0000000  1.0460000  1
   2792   2791   2788   2818     1  0.0000000  0.0000000  3
   2793   2791   2794   2797     1  0.0000000  0.6508444  3
   2793   2791   2794   2795     1  0.0000000  0.6508444  3
   2793   2791   2794   2796     1  0.0000000  0.6508444  3
   2793   2791   2788   2818     1  0.0000000  1.0460000  1
   2793   2791   2788   2818     1  0.0000000  0.0000000  3
   2794   2797   2798   2799     1  0.0000000  0.6508444  3
   2794   2797   2798   2800     1  0.0000000  0.6508444  3
   2794   2797   2808   2809     1  0.0000000  0.6508444  3
   2794   2797   2808   2810     1  0.0000000  0.6508444  3
   2795   2794   2797   2798     1  0.0000000  0.6508444  3
   2795   2794   2797   2808     1  0.0000000  0.6508444  3
   2795   2794   2797   2819     1  0.0000000  0.6508444  3
   2796   2794   2797   2798     1  0.0000000  0.6508444  3
   2796   2794   2797   2808     1  0.0000000  0.6508444  3
   2796   2794   2797   2819     1  0.0000000  0.6508444  3
   2797   2798   2801   2802     1  0.0000000  0.6508444  3
   2797   2798   2801   2803     1  0.0000000  0.6508444  3
   2797   2808   2811   2812     1  0.0000000  0.6508444  3
   2797   2808   2811   2813     1  0.0000000  0.6508444  3
   2798   2797   2808   2809     1  0.0000000  0.6508444  3
   2798   2797   2808   2810     1  0.0000000  0.6508444  3
   2799   2798   2801   2804     1  0.0000000  0.6508444  3
   2799   2798   2801   2802     1  0.0000000  0.6508444  3
   2799   2798   2801   2803     1  0.0000000  0.6508444  3
   2799   2798   2797   2808     1  0.0000000  0.6508444  3
   2799   2798   2797   2819     1  0.0000000  0.6508444  3
   2800   2798   2801   2804     1  0.0000000  0.6508444  3
   2800   2798   2801   2802     1  0.0000000  0.6508444  3
   2800   2798   2801   2803     1  0.0000000  0.6508444  3
   2800   2798   2797   2808     1  0.0000000  0.6508444  3
   2800   2798   2797   2819     1  0.0000000  0.6508444  3
   2801   2804   2806   2807     1  180.0000771  9.6232000  2
   2801   2798   2797   2819     1  0.0000000  0.6508444  3
   2802   2801   2804   2805     1  0.0000000  3.3472000  1
   2802   2801   2804   2805     1  0.0000000  0.0000000  2
   2802   2801   2804   2805     1  180.0000771  0.3347200  3
   2802   2801   2804   2806     1  180.0000771  0.0000000  2
   2803   2801   2804   2805     1  0.0000000  3.3472000  1
   2803   2801   2804   2805     1  0.0000000  0.0000000  2
   2803   2801   2804   2805     1  180.0000771  0.3347200  3
   2803   2801   2804   2806     1  180.0000771  0.0000000  2
   2805   2804   2806   2807     1  0.0000000  7.9496000  1
   2805   2804   2806   2807     1  180.0000771  9.6232000  2
   2809   2808   2811   2814     1  0.0000000  0.6508444  3
   2809   2808   2811   2812     1  0.0000000  0.6508444  3
   2809   2808   2811   2813     1  0.0000000  0.6508444  3
   2809   2808   2797   2819     1  0.0000000  0.6508444  3
   2810   2808   2811   2814     1  0.0000000  0.6508444  3
   2810   2808   2811   2812     1  0.0000000  0.6508444  3
   2810   2808   2811   2813     1  0.0000000  0.6508444  3
   2810   2808   2797   2819     1  0.0000000  0.6508444  3
   2811   2814   2816   2817     1  180.0000771  9.6232000  2
   2811   2808   2797   2819     1  0.0000000  0.6508444  3
   2812   2811   2814   2815     1  0.0000000  3.3472000  1
   2812   2811   2814   2815     1  0.0000000  0.0000000  2
   2812   2811   2814   2815     1  180.0000771  0.3347200  3
   2812   2811   2814   2816     1  180.0000771  0.0000000  2
   2813   2811   2814   2815     1  0.0000000  3.3472000  1
   2813   2811   2814   2815     1  0.0000000  0.0000000  2
   2813   2811   2814   2815     1  180.0000771  0.3347200  3
   2813   2811   2814   2816     1  180.0000771  0.0000000  2
   2815   2814   2816   2817     1  0.0000000  7.9496000  1
   2815   2814   2816   2817     1  180.0000771  9.6232000  2
   2820   2823   2826   2827     1  0.0000000  0.6508444  3
   2820   2823   2826   2828     1  0.0000000  0.6508444  3
   2821   2820   2823   2826     1  0.0000000  0.6508444  3
   2821   2820   2823   2824     1  0.0000000  0.6508444  3
   2821   2820   2823   2825     1  0.0000000  0.6508444  3
   2822   2820   2823   2826     1  0.0000000  0.6508444  3
   2822   2820   2823   2824     1  0.0000000  0.6508444  3
   2822   2820   2823   2825     1  0.0000000  0.6508444  3
   2823   2826   2829   2851     1  0.0000000  0.6508444  3
   2824   2823   2820   2850     1  0.0000000  1.0460000  1
   2824   2823   2820   2850     1  0.0000000  0.0000000  3
   2824   2823   2826   2829     1  0.0000000  0.6508444  3
   2824   2823   2826   2827     1  0.0000000  0.6508444  3
   2824   2823   2826   2828     1  0.0000000  0.6508444  3
   2825   2823   2820   2850     1  0.0000000  1.0460000  1
   2825   2823   2820   2850     1  0.0000000  0.0000000  3
   2825   2823   2826   2829     1  0.0000000  0.6508444  3
   2825   2823   2826   2827     1  0.0000000  0.6508444  3
   2825   2823   2826   2828     1  0.0000000  0.6508444  3
   2826   2829   2830   2831     1  0.0000000  0.6508444  3
   2826   2829   2830   2832     1  0.0000000  0.6508444  3
   2826   2829   2840   2841     1  0.0000000  0.6508444  3
   2826   2829   2840   2842     1  0.0000000  0.6508444  3
   2827   2826   2829   2830     1  0.0000000  0.6508444  3
   2827   2826   2829   2840     1  0.0000000  0.6508444  3
   2827   2826   2829   2851     1  0.0000000  0.6508444  3
   2828   2826   2829   2830     1  0.0000000  0.6508444  3
   2828   2826   2829   2840     1  0.0000000  0.6508444  3
   2828   2826   2829   2851     1  0.0000000  0.6508444  3
   2829   2830   2833   2834     1  0.0000000  0.6508444  3
   2829   2830   2833   2835     1  0.0000000  0.6508444  3
   2829   2840   2843   2844     1  0.0000000  0.6508444  3
   2829   2840   2843   2845     1  0.0000000  0.6508444  3
   2830   2829   2840   2841     1  0.0000000  0.6508444  3
   2830   2829   2840   2842     1  0.0000000  0.6508444  3
   2831   2830   2829   2840     1  0.0000000  0.6508444  3
   2831   2830   2829   2851     1  0.0000000  0.6508444  3
   2831   2830   2833   2836     1  0.0000000  0.6508444  3
   2831   2830   2833   2834     1  0.0000000  0.6508444  3
   2831   2830   2833   2835     1  0.0000000  0.6508444  3
   2832   2830   2829   2840     1  0.0000000  0.6508444  3
   2832   2830   2829   2851     1  0.0000000  0.6508444  3
   2832   2830   2833   2836     1  0.0000000  0.6508444  3
   2832   2830   2833   2834     1  0.0000000  0.6508444  3
   2832   2830   2833   2835     1  0.0000000  0.6508444  3
   2833   2830   2829   2851     1  0.0000000  0.6508444  3
   2833   2836   2838   2839     1  180.0000771  9.6232000  2
   2834   2833   2836   2837     1  0.0000000  3.3472000  1
   2834   2833   2836   2837     1  0.0000000  0.0000000  2
   2834   2833   2836   2837     1  180.0000771  0.3347200  3
   2834   2833   2836   2838     1  180.0000771  0.0000000  2
   2835   2833   2836   2837     1  0.0000000  3.3472000  1
   2835   2833   2836   2837     1  0.0000000  0.0000000  2
   2835   2833   2836   2837     1  180.0000771  0.3347200  3
   2835   2833   2836   2838     1  180.0000771  0.0000000  2
   2837   2836   2838   2839     1  0.0000000  7.9496000  1
   2837   2836   2838   2839     1  180.0000771  9.6232000  2
   2841   2840   2829   2851     1  0.0000000  0.6508444  3
   2841   2840   2843   2846     1  0.0000000  0.6508444  3
   2841   2840   2843   2844     1  0.0000000  0.6508444  3
   2841   2840   2843   2845     1  0.0000000  0.6508444  3
   2842   2840   2829   2851     1  0.0000000  0.6508444  3
   2842   2840   2843   2846     1  0.0000000  0.6508444  3
   2842   2840   2843   2844     1  0.0000000  0.6508444  3
   2842   2840   2843   2845     1  0.0000000  0.6508444  3
   2843   2840   2829   2851     1  0.0000000  0.6508444  3
   2843   2846   2848   2849     1  180.0000771  9.6232000  2
   2844   2843   2846   2847     1  0.0000000  3.3472000  1
   2844   2843   2846   2847     1  0.0000000  0.0000000  2
   2844   2843   2846   2847     1  180.0000771  0.3347200  3
   2844   2843   2846   2848     1  180.0000771  0.0000000  2
   2845   2843   2846   2847     1  0.0000000  3.3472000  1
   2845   2843   2846   2847     1  0.0000000  0.0000000  2
   2845   2843   2846   2847     1  180.0000771  0.3347200  3
   2845   2843   2846   2848     1  180.0000771  0.0000000  2
   2847   2846   2848   2849     1  0.0000000  7.9496000  1
   2847   2846   2848   2849     1  180.0000771  9.6232000  2
   2852   2855   2858   2859     1  0.0000000  0.6508444  3
   2852   2855   2858   2860     1  0.0000000  0.6508444  3
   2853   2852   2855   2858     1  0.0000000  0.6508444  3
   2853   2852   2855   2856     1  0.0000000  0.6508444  3
   2853   2852   2855   2857     1  0.0000000  0.6508444  3
   2854   2852   2855   2858     1  0.0000000  0.6508444  3
   2854   2852   2855   2856     1  0.0000000  0.6508444  3
   2854   2852   2855   2857     1  0.0000000  0.6508444  3
   2855   2858   2861   2883     1  0.0000000  0.6508444  3
   2856   2855   2858   2861     1  0.0000000  0.6508444  3
   2856   2855   2858   2859     1  0.0000000  0.6508444  3
   2856   2855   2858   2860     1  0.0000000  0.6508444  3
   2856   2855   2852   2882     1  0.0000000  1.0460000  1
   2856   2855   2852   2882     1  0.0000000  0.0000000  3
   2857   2855   2858   2861     1  0.0000000  0.6508444  3
   2857   2855   2858   2859     1  0.0000000  0.6508444  3
   2857   2855   2858   2860     1  0.0000000  0.6508444  3
   2857   2855   2852   2882     1  0.0000000  1.0460000  1
   2857   2855   2852   2882     1  0.0000000  0.0000000  3
   2858   2861   2862   2863     1  0.0000000  0.6508444  3
   2858   2861   2862   2864     1  0.0000000  0.6508444  3
   2858   2861   2872   2873     1  0.0000000  0.6508444  3
   2858   2861   2872   2874     1  0.0000000  0.6508444  3
   2859   2858   2861   2862     1  0.0000000  0.6508444  3
   2859   2858   2861   2872     1  0.0000000  0.6508444  3
   2859   2858   2861   2883     1  0.0000000  0.6508444  3
   2860   2858   2861   2862     1  0.0000000  0.6508444  3
   2860   2858   2861   2872     1  0.0000000  0.6508444  3
   2860   2858   2861   2883     1  0.0000000  0.6508444  3
   2861   2862   2865   2866     1  0.0000000  0.6508444  3
   2861   2862   2865   2867     1  0.0000000  0.6508444  3
   2861   2872   2875   2876     1  0.0000000  0.6508444  3
   2861   2872   2875   2877     1  0.0000000  0.6508444  3
   2862   2861   2872   2873     1  0.0000000  0.6508444  3
   2862   2861   2872   2874     1  0.0000000  0.6508444  3
   2863   2862   2865   2868     1  0.0000000  0.6508444  3
   2863   2862   2865   2866     1  0.0000000  0.6508444  3
   2863   2862   2865   2867     1  0.0000000  0.6508444  3
   2863   2862   2861   2872     1  0.0000000  0.6508444  3
   2863   2862   2861   2883     1  0.0000000  0.6508444  3
   2864   2862   2865   2868     1  0.0000000  0.6508444  3
   2864   2862   2865   2866     1  0.0000000  0.6508444  3
   2864   2862   2865   2867     1  0.0000000  0.6508444  3
   2864   2862   2861   2872     1  0.0000000  0.6508444  3
   2864   2862   2861   2883     1  0.0000000  0.6508444  3
   2865   2868   2870   2871     1  180.0000771  9.6232000  2
   2865   2862   2861   2883     1  0.0000000  0.6508444  3
   2866   2865   2868   2869     1  0.0000000  3.3472000  1
   2866   2865   2868   2869     1  0.0000000  0.0000000  2
   2866   2865   2868   2869     1  180.0000771  0.3347200  3
   2866   2865   2868   2870     1  180.0000771  0.0000000  2
   2867   2865   2868   2869     1  0.0000000  3.3472000  1
   2867   2865   2868   2869     1  0.0000000  0.0000000  2
   2867   2865   2868   2869     1  180.0000771  0.3347200  3
   2867   2865   2868   2870     1  180.0000771  0.0000000  2
   2869   2868   2870   2871     1  0.0000000  7.9496000  1
   2869   2868   2870   2871     1  180.0000771  9.6232000  2
   2873   2872   2875   2878     1  0.0000000  0.6508444  3
   2873   2872   2875   2876     1  0.0000000  0.6508444  3
   2873   2872   2875   2877     1  0.0000000  0.6508444  3
   2873   2872   2861   2883     1  0.0000000  0.6508444  3
   2874   2872   2875   2878     1  0.0000000  0.6508444  3
   2874   2872   2875   2876     1  0.0000000  0.6508444  3
   2874   2872   2875   2877     1  0.0000000  0.6508444  3
   2874   2872   2861   2883     1  0.0000000  0.6508444  3
   2875   2878   2880   2881     1  180.0000771  9.6232000  2
   2875   2872   2861   2883     1  0.0000000  0.6508444  3
   2876   2875   2878   2879     1  0.0000000  3.3472000  1
   2876   2875   2878   2879     1  0.0000000  0.0000000  2
   2876   2875   2878   2879     1  180.0000771  0.3347200  3
   2876   2875   2878   2880     1  180.0000771  0.0000000  2
   2877   2875   2878   2879     1  0.0000000  3.3472000  1
   2877   2875   2878   2879     1  0.0000000  0.0000000  2
   2877   2875   2878   2879     1  180.0000771  0.3347200  3
   2877   2875   2878   2880     1  180.0000771  0.0000000  2
   2879   2878   2880   2881     1  0.0000000  7.9496000  1
   2879   2878   2880   2881     1  180.0000771  9.6232000  2
   2884   2887   2890   2891     1  0.0000000  0.6508444  3
   2884   2887   2890   2892     1  0.0000000  0.6508444  3
   2885   2884   2887   2890     1  0.0000000  0.6508444  3
   2885   2884   2887   2888     1  0.0000000  0.6508444  3
   2885   2884   2887   2889     1  0.0000000  0.6508444  3
   2886   2884   2887   2890     1  0.0000000  0.6508444  3
   2886   2884   2887   2888     1  0.0000000  0.6508444  3
   2886   2884   2887   2889     1  0.0000000  0.6508444  3
   2887   2890   2893   2915     1  0.0000000  0.6508444  3
   2888   2887   2884   2914     1  0.0000000  1.0460000  1
   2888   2887   2884   2914     1  0.0000000  0.0000000  3
   2888   2887   2890   2893     1  0.0000000  0.6508444  3
   2888   2887   2890   2891     1  0.0000000  0.6508444  3
   2888   2887   2890   2892     1  0.0000000  0.6508444  3
   2889   2887   2884   2914     1  0.0000000  1.0460000  1
   2889   2887   2884   2914     1  0.0000000  0.0000000  3
   2889   2887   2890   2893     1  0.0000000  0.6508444  3
   2889   2887   2890   2891     1  0.0000000  0.6508444  3
   2889   2887   2890   2892     1  0.0000000  0.6508444  3
   2890   2893   2894   2895     1  0.0000000  0.6508444  3
   2890   2893   2894   2896     1  0.0000000  0.6508444  3
   2890   2893   2904   2905     1  0.0000000  0.6508444  3
   2890   2893   2904   2906     1  0.0000000  0.6508444  3
   2891   2890   2893   2894     1  0.0000000  0.6508444  3
   2891   2890   2893   2904     1  0.0000000  0.6508444  3
   2891   2890   2893   2915     1  0.0000000  0.6508444  3
   2892   2890   2893   2894     1  0.0000000  0.6508444  3
   2892   2890   2893   2904     1  0.0000000  0.6508444  3
   2892   2890   2893   2915     1  0.0000000  0.6508444  3
   2893   2894   2897   2898     1  0.0000000  0.6508444  3
   2893   2894   2897   2899     1  0.0000000  0.6508444  3
   2893   2904   2907   2908     1  0.0000000  0.6508444  3
   2893   2904   2907   2909     1  0.0000000  0.6508444  3
   2894   2893   2904   2905     1  0.0000000  0.6508444  3
   2894   2893   2904   2906     1  0.0000000  0.6508444  3
   2895   2894   2893   2904     1  0.0000000  0.6508444  3
   2895   2894   2893   2915     1  0.0000000  0.6508444  3
   2895   2894   2897   2900     1  0.0000000  0.6508444  3
   2895   2894   2897   2898     1  0.0000000  0.6508444  3
   2895   2894   2897   2899     1  0.0000000  0.6508444  3
   2896   2894   2893   2904     1  0.0000000  0.6508444  3
   2896   2894   2893   2915     1  0.0000000  0.6508444  3
   2896   2894   2897   2900     1  0.0000000  0.6508444  3
   2896   2894   2897   2898     1  0.0000000  0.6508444  3
   2896   2894   2897   2899     1  0.0000000  0.6508444  3
   2897   2894   2893   2915     1  0.0000000  0.6508444  3
   2897   2900   2902   2903     1  180.0000771  9.6232000  2
   2898   2897   2900   2901     1  0.0000000  3.3472000  1
   2898   2897   2900   2901     1  0.0000000  0.0000000  2
   2898   2897   2900   2901     1  180.0000771  0.3347200  3
   2898   2897   2900   2902     1  180.0000771  0.0000000  2
   2899   2897   2900   2901     1  0.0000000  3.3472000  1
   2899   2897   2900   2901     1  0.0000000  0.0000000  2
   2899   2897   2900   2901     1  180.0000771  0.3347200  3
   2899   2897   2900   2902     1  180.0000771  0.0000000  2
   2901   2900   2902   2903     1  0.0000000  7.9496000  1
   2901   2900   2902   2903     1  180.0000771  9.6232000  2
   2905   2904   2893   2915     1  0.0000000  0.6508444  3
   2905   2904   2907   2910     1  0.0000000  0.6508444  3
   2905   2904   2907   2908     1  0.0000000  0.6508444  3
   2905   2904   2907   2909     1  0.0000000  0.6508444  3
   2906   2904   2893   2915     1  0.0000000  0.6508444  3
   2906   2904   2907   2910     1  0.0000000  0.6508444  3
   2906   2904   2907   2908     1  0.0000000  0.6508444  3
   2906   2904   2907   2909     1  0.0000000  0.6508444  3
   2907   2904   2893   2915     1  0.0000000  0.6508444  3
   2907   2910   2912   2913     1  180.0000771  9.6232000  2
   2908   2907   2910   2911     1  0.0000000  3.3472000  1
   2908   2907   2910   2911     1  0.0000000  0.0000000  2
   2908   2907   2910   2911     1  180.0000771  0.3347200  3
   2908   2907   2910   2912     1  180.0000771  0.0000000  2
   2909   2907   2910   2911     1  0.0000000  3.3472000  1
   2909   2907   2910   2911     1  0.0000000  0.0000000  2
   2909   2907   2910   2911     1  180.0000771  0.3347200  3
   2909   2907   2910   2912     1  180.0000771  0.0000000  2
   2911   2910   2912   2913     1  0.0000000  7.9496000  1
   2911   2910   2912   2913     1  180.0000771  9.6232000  2
   2916   2919   2922   2923     1  0.0000000  0.6508444  3
   2916   2919   2922   2924     1  0.0000000  0.6508444  3
   2917   2916   2919   2922     1  0.0000000  0.6508444  3
   2917   2916   2919   2920     1  0.0000000  0.6508444  3
   2917   2916   2919   2921     1  0.0000000  0.6508444  3
   2918   2916   2919   2922     1  0.0000000  0.6508444  3
   2918   2916   2919   2920     1  0.0000000  0.6508444  3
   2918   2916   2919   2921     1  0.0000000  0.6508444  3
   2919   2922   2925   2947     1  0.0000000  0.6508444  3
   2920   2919   2922   2925     1  0.0000000  0.6508444  3
   2920   2919   2922   2923     1  0.0000000  0.6508444  3
   2920   2919   2922   2924     1  0.0000000  0.6508444  3
   2920   2919   2916   2946     1  0.0000000  1.0460000  1
   2920   2919   2916   2946     1  0.0000000  0.0000000  3
   2921   2919   2922   2925     1  0.0000000  0.6508444  3
   2921   2919   2922   2923     1  0.0000000  0.6508444  3
   2921   2919   2922   2924     1  0.0000000  0.6508444  3
   2921   2919   2916   2946     1  0.0000000  1.0460000  1
   2921   2919   2916   2946     1  0.0000000  0.0000000  3
   2922   2925   2926   2927     1  0.0000000  0.6508444  3
   2922   2925   2926   2928     1  0.0000000  0.6508444  3
   2922   2925   2936   2937     1  0.0000000  0.6508444  3
   2922   2925   2936   2938     1  0.0000000  0.6508444  3
   2923   2922   2925   2926     1  0.0000000  0.6508444  3
   2923   2922   2925   2936     1  0.0000000  0.6508444  3
   2923   2922   2925   2947     1  0.0000000  0.6508444  3
   2924   2922   2925   2926     1  0.0000000  0.6508444  3
   2924   2922   2925   2936     1  0.0000000  0.6508444  3
   2924   2922   2925   2947     1  0.0000000  0.6508444  3
   2925   2926   2929   2930     1  0.0000000  0.6508444  3
   2925   2926   2929   2931     1  0.0000000  0.6508444  3
   2925   2936   2939   2940     1  0.0000000  0.6508444  3
   2925   2936   2939   2941     1  0.0000000  0.6508444  3
   2926   2925   2936   2937     1  0.0000000  0.6508444  3
   2926   2925   2936   2938     1  0.0000000  0.6508444  3
   2927   2926   2929   2932     1  0.0000000  0.6508444  3
   2927   2926   2929   2930     1  0.0000000  0.6508444  3
   2927   2926   2929   2931     1  0.0000000  0.6508444  3
   2927   2926   2925   2936     1  0.0000000  0.6508444  3
   2927   2926   2925   2947     1  0.0000000  0.6508444  3
   2928   2926   2929   2932     1  0.0000000  0.6508444  3
   2928   2926   2929   2930     1  0.0000000  0.6508444  3
   2928   2926   2929   2931     1  0.0000000  0.6508444  3
   2928   2926   2925   2936     1  0.0000000  0.6508444  3
   2928   2926   2925   2947     1  0.0000000  0.6508444  3
   2929   2932   2934   2935     1  180.0000771  9.6232000  2
   2929   2926   2925   2947     1  0.0000000  0.6508444  3
   2930   2929   2932   2933     1  0.0000000  3.3472000  1
   2930   2929   2932   2933     1  0.0000000  0.0000000  2
   2930   2929   2932   2933     1  180.0000771  0.3347200  3
   2930   2929   2932   2934     1  180.0000771  0.0000000  2
   2931   2929   2932   2933     1  0.0000000  3.3472000  1
   2931   2929   2932   2933     1  0.0000000  0.0000000  2
   2931   2929   2932   2933     1  180.0000771  0.3347200  3
   2931   2929   2932   2934     1  180.0000771  0.0000000  2
   2933   2932   2934   2935     1  0.0000000  7.9496000  1
   2933   2932   2934   2935     1  180.0000771  9.6232000  2
   2937   2936   2939   2942     1  0.0000000  0.6508444  3
   2937   2936   2939   2940     1  0.0000000  0.6508444  3
   2937   2936   2939   2941     1  0.0000000  0.6508444  3
   2937   2936   2925   2947     1  0.0000000  0.6508444  3
   2938   2936   2939   2942     1  0.0000000  0.6508444  3
   2938   2936   2939   2940     1  0.0000000  0.6508444  3
   2938   2936   2939   2941     1  0.0000000  0.6508444  3
   2938   2936   2925   2947     1  0.0000000  0.6508444  3
   2939   2942   2944   2945     1  180.0000771  9.6232000  2
   2939   2936   2925   2947     1  0.0000000  0.6508444  3
   2940   2939   2942   2943     1  0.0000000  3.3472000  1
   2940   2939   2942   2943     1  0.0000000  0.0000000  2
   2940   2939   2942   2943     1  180.0000771  0.3347200  3
   2940   2939   2942   2944     1  180.0000771  0.0000000  2
   2941   2939   2942   2943     1  0.0000000  3.3472000  1
   2941   2939   2942   2943     1  0.0000000  0.0000000  2
   2941   2939   2942   2943     1  180.0000771  0.3347200  3
   2941   2939   2942   2944     1  180.0000771  0.0000000  2
   2943   2942   2944   2945     1  0.0000000  7.9496000  1
   2943   2942   2944   2945     1  180.0000771  9.6232000  2
   2948   2951   2954   2955     1  0.0000000  0.6508444  3
   2948   2951   2954   2956     1  0.0000000  0.6508444  3
   2949   2948   2951   2954     1  0.0000000  0.6508444  3
   2949   2948   2951   2952     1  0.0000000  0.6508444  3
   2949   2948   2951   2953     1  0.0000000  0.6508444  3
   2950   2948   2951   2954     1  0.0000000  0.6508444  3
   2950   2948   2951   2952     1  0.0000000  0.6508444  3
   2950   2948   2951   2953     1  0.0000000  0.6508444  3
   2951   2954   2957   2979     1  0.0000000  0.6508444  3
   2952   2951   2948   2978     1  0.0000000  1.0460000  1
   2952   2951   2948   2978     1  0.0000000  0.0000000  3
   2952   2951   2954   2957     1  0.0000000  0.6508444  3
   2952   2951   2954   2955     1  0.0000000  0.6508444  3
   2952   2951   2954   2956     1  0.0000000  0.6508444  3
   2953   2951   2948   2978     1  0.0000000  1.0460000  1
   2953   2951   2948   2978     1  0.0000000  0.0000000  3
   2953   2951   2954   2957     1  0.0000000  0.6508444  3
   2953   2951   2954   2955     1  0.0000000  0.6508444  3
   2953   2951   2954   2956     1  0.0000000  0.6508444  3
   2954   2957   2958   2959     1  0.0000000  0.6508444  3
   2954   2957   2958   2960     1  0.0000000  0.6508444  3
   2954   2957   2968   2969     1  0.0000000  0.6508444  3
   2954   2957   2968   2970     1  0.0000000  0.6508444  3
   2955   2954   2957   2958     1  0.0000000  0.6508444  3
   2955   2954   2957   2968     1  0.0000000  0.6508444  3
   2955   2954   2957   2979     1  0.0000000  0.6508444  3
   2956   2954   2957   2958     1  0.0000000  0.6508444  3
   2956   2954   2957   2968     1  0.0000000  0.6508444  3
   2956   2954   2957   2979     1  0.0000000  0.6508444  3
   2957   2958   2961   2962     1  0.0000000  0.6508444  3
   2957   2958   2961   2963     1  0.0000000  0.6508444  3
   2957   2968   2971   2972     1  0.0000000  0.6508444  3
   2957   2968   2971   2973     1  0.0000000  0.6508444  3
   2958   2957   2968   2969     1  0.0000000  0.6508444  3
   2958   2957   2968   2970     1  0.0000000  0.6508444  3
   2959   2958   2957   2968     1  0.0000000  0.6508444  3
   2959   2958   2957   2979     1  0.0000000  0.6508444  3
   2959   2958   2961   2964     1  0.0000000  0.6508444  3
   2959   2958   2961   2962     1  0.0000000  0.6508444  3
   2959   2958   2961   2963     1  0.0000000  0.6508444  3
   2960   2958   2957   2968     1  0.0000000  0.6508444  3
   2960   2958   2957   2979     1  0.0000000  0.6508444  3
   2960   2958   2961   2964     1  0.0000000  0.6508444  3
   2960   2958   2961   2962     1  0.0000000  0.6508444  3
   2960   2958   2961   2963     1  0.0000000  0.6508444  3
   2961   2958   2957   2979     1  0.0000000  0.6508444  3
   2961   2964   2966   2967     1  180.0000771  9.6232000  2
   2962   2961   2964   2965     1  0.0000000  3.3472000  1
   2962   2961   2964   2965     1  0.0000000  0.0000000  2
   2962   2961   2964   2965     1  180.0000771  0.3347200  3
   2962   2961   2964   2966     1  180.0000771  0.0000000  2
   2963   2961   2964   2965     1  0.0000000  3.3472000  1
   2963   2961   2964   2965     1  0.0000000  0.0000000  2
   2963   2961   2964   2965     1  180.0000771  0.3347200  3
   2963   2961   2964   2966     1  180.0000771  0.0000000  2
   2965   2964   2966   2967     1  0.0000000  7.9496000  1
   2965   2964   2966   2967     1  180.0000771  9.6232000  2
   2969   2968   2957   2979     1  0.0000000  0.6508444  3
   2969   2968   2971   2974     1  0.0000000  0.6508444  3
   2969   2968   2971   2972     1  0.0000000  0.6508444  3
   2969   2968   2971   2973     1  0.0000000  0.6508444  3
   2970   2968   2957   2979     1  0.0000000  0.6508444  3
   2970   2968   2971   2974     1  0.0000000  0.6508444  3
   2970   2968   2971   2972     1  0.0000000  0.6508444  3
   2970   2968   2971   2973     1  0.0000000  0.6508444  3
   2971   2968   2957   2979     1  0.0000000  0.6508444  3
   2971   2974   2976   2977     1  180.0000771  9.6232000  2
   2972   2971   2974   2975     1  0.0000000  3.3472000  1
   2972   2971   2974   2975     1  0.0000000  0.0000000  2
   2972   2971   2974   2975     1  180.0000771  0.3347200  3
   2972   2971   2974   2976     1  180.0000771  0.0000000  2
   2973   2971   2974   2975     1  0.0000000  3.3472000  1
   2973   2971   2974   2975     1  0.0000000  0.0000000  2
   2973   2971   2974   2975     1  180.0000771  0.3347200  3
   2973   2971   2974   2976     1  180.0000771  0.0000000  2
   2975   2974   2976   2977     1  0.0000000  7.9496000  1
   2975   2974   2976   2977     1  180.0000771  9.6232000  2
   2980   2983   2986   2987     1  0.0000000  0.6508444  3
   2980   2983   2986   2988     1  0.0000000  0.6508444  3
   2981   2980   2983   2986     1  0.0000000  0.6508444  3
   2981   2980   2983   2984     1  0.0000000  0.6508444  3
   2981   2980   2983   2985     1  0.0000000  0.6508444  3
   2982   2980   2983   2986     1  0.0000000  0.6508444  3
   2982   2980   2983   2984     1  0.0000000  0.6508444  3
   2982   2980   2983   2985     1  0.0000000  0.6508444  3
   2983   2986   2989   3011     1  0.0000000  0.6508444  3
   2984   2983   2986   2989     1  0.0000000  0.6508444  3
   2984   2983   2986   2987     1  0.0000000  0.6508444  3
   2984   2983   2986   2988     1  0.0000000  0.6508444  3
   2984   2983   2980   3010     1  0.0000000  1.0460000  1
   2984   2983   2980   3010     1  0.0000000  0.0000000  3
   2985   2983   2986   2989     1  0.0000000  0.6508444  3
   2985   2983   2986   2987     1  0.0000000  0.6508444  3
   2985   2983   2986   2988     1  0.0000000  0.6508444  3
   2985   2983   2980   3010     1  0.0000000  1.0460000  1
   2985   2983   2980   3010     1  0.0000000  0.0000000  3
   2986   2989   2990   2991     1  0.0000000  0.6508444  3
   2986   2989   2990   2992     1  0.0000000  0.6508444  3
   2986   2989   3000   3001     1  0.0000000  0.6508444  3
   2986   2989   3000   3002     1  0.0000000  0.6508444  3
   2987   2986   2989   2990     1  0.0000000  0.6508444  3
   2987   2986   2989   3000     1  0.0000000  0.6508444  3
   2987   2986   2989   3011     1  0.0000000  0.6508444  3
   2988   2986   2989   2990     1  0.0000000  0.6508444  3
   2988   2986   2989   3000     1  0.0000000  0.6508444  3
   2988   2986   2989   3011     1  0.0000000  0.6508444  3
   2989   2990   2993   2994     1  0.0000000  0.6508444  3
   2989   2990   2993   2995     1  0.0000000  0.6508444  3
   2989   3000   3003   3004     1  0.0000000  0.6508444  3
   2989   3000   3003   3005     1  0.0000000  0.6508444  3
   2990   2989   3000   3001     1  0.0000000  0.6508444  3
   2990   2989   3000   3002     1  0.0000000  0.6508444  3
   2991   2990   2993   2996     1  0.0000000  0.6508444  3
   2991   2990   2993   2994     1  0.0000000  0.6508444  3
   2991   2990   2993   2995     1  0.0000000  0.6508444  3
   2991   2990   2989   3000     1  0.0000000  0.6508444  3
   2991   2990   2989   3011     1  0.0000000  0.6508444  3
   2992   2990   2993   2996     1  0.0000000  0.6508444  3
   2992   2990   2993   2994     1  0.0000000  0.6508444  3
   2992   2990   2993   2995     1  0.0000000  0.6508444  3
   2992   2990   2989   3000     1  0.0000000  0.6508444  3
   2992   2990   2989   3011     1  0.0000000  0.6508444  3
   2993   2996   2998   2999     1  180.0000771  9.6232000  2
   2993   2990   2989   3011     1  0.0000000  0.6508444  3
   2994   2993   2996   2997     1  0.0000000  3.3472000  1
   2994   2993   2996   2997     1  0.0000000  0.0000000  2
   2994   2993   2996   2997     1  180.0000771  0.3347200  3
   2994   2993   2996   2998     1  180.0000771  0.0000000  2
   2995   2993   2996   2997     1  0.0000000  3.3472000  1
   2995   2993   2996   2997     1  0.0000000  0.0000000  2
   2995   2993   2996   2997     1  180.0000771  0.3347200  3
   2995   2993   2996   2998     1  180.0000771  0.0000000  2
   2997   2996   2998   2999     1  0.0000000  7.9496000  1
   2997   2996   2998   2999     1  180.0000771  9.6232000  2
   3001   3000   3003   3006     1  0.0000000  0.6508444  3
   3001   3000   3003   3004     1  0.0000000  0.6508444  3
   3001   3000   3003   3005     1  0.0000000  0.6508444  3
   3001   3000   2989   3011     1  0.0000000  0.6508444  3
   3002   3000   3003   3006     1  0.0000000  0.6508444  3
   3002   3000   3003   3004     1  0.0000000  0.6508444  3
   3002   3000   3003   3005     1  0.0000000  0.6508444  3
   3002   3000   2989   3011     1  0.0000000  0.6508444  3
   3003   3006   3008   3009     1  180.0000771  9.6232000  2
   3003   3000   2989   3011     1  0.0000000  0.6508444  3
   3004   3003   3006   3007     1  0.0000000  3.3472000  1
   3004   3003   3006   3007     1  0.0000000  0.0000000  2
   3004   3003   3006   3007     1  180.0000771  0.3347200  3
   3004   3003   3006   3008     1  180.0000771  0.0000000  2
   3005   3003   3006   3007     1  0.0000000  3.3472000  1
   3005   3003   3006   3007     1  0.0000000  0.0000000  2
   3005   3003   3006   3007     1  180.0000771  0.3347200  3
   3005   3003   3006   3008     1  180.0000771  0.0000000  2
   3007   3006   3008   3009     1  0.0000000  7.9496000  1
   3007   3006   3008   3009     1  180.0000771  9.6232000  2
   3012   3015   3018   3019     1  0.0000000  0.6508444  3
   3012   3015   3018   3020     1  0.0000000  0.6508444  3
   3013   3012   3015   3018     1  0.0000000  0.6508444  3
   3013   3012   3015   3016     1  0.0000000  0.6508444  3
   3013   3012   3015   3017     1  0.0000000  0.6508444  3
   3014   3012   3015   3018     1  0.0000000  0.6508444  3
   3014   3012   3015   3016     1  0.0000000  0.6508444  3
   3014   3012   3015   3017     1  0.0000000  0.6508444  3
   3015   3018   3021   3043     1  0.0000000  0.6508444  3
   3016   3015   3012   3042     1  0.0000000  1.0460000  1
   3016   3015   3012   3042     1  0.0000000  0.0000000  3
   3016   3015   3018   3021     1  0.0000000  0.6508444  3
   3016   3015   3018   3019     1  0.0000000  0.6508444  3
   3016   3015   3018   3020     1  0.0000000  0.6508444  3
   3017   3015   3012   3042     1  0.0000000  1.0460000  1
   3017   3015   3012   3042     1  0.0000000  0.0000000  3
   3017   3015   3018   3021     1  0.0000000  0.6508444  3
   3017   3015   3018   3019     1  0.0000000  0.6508444  3
   3017   3015   3018   3020     1  0.0000000  0.6508444  3
   3018   3021   3022   3023     1  0.0000000  0.6508444  3
   3018   3021   3022   3024     1  0.0000000  0.6508444  3
   3018   3021   3032   3033     1  0.0000000  0.6508444  3
   3018   3021   3032   3034     1  0.0000000  0.6508444  3
   3019   3018   3021   3022     1  0.0000000  0.6508444  3
   3019   3018   3021   3032     1  0.0000000  0.6508444  3
   3019   3018   3021   3043     1  0.0000000  0.6508444  3
   3020   3018   3021   3022     1  0.0000000  0.6508444  3
   3020   3018   3021   3032     1  0.0000000  0.6508444  3
   3020   3018   3021   3043     1  0.0000000  0.6508444  3
   3021   3022   3025   3026     1  0.0000000  0.6508444  3
   3021   3022   3025   3027     1  0.0000000  0.6508444  3
   3021   3032   3035   3036     1  0.0000000  0.6508444  3
   3021   3032   3035   3037     1  0.0000000  0.6508444  3
   3022   3021   3032   3033     1  0.0000000  0.6508444  3
   3022   3021   3032   3034     1  0.0000000  0.6508444  3
   3023   3022   3021   3032     1  0.0000000  0.6508444  3
   3023   3022   3021   3043     1  0.0000000  0.6508444  3
   3023   3022   3025   3028     1  0.0000000  0.6508444  3
   3023   3022   3025   3026     1  0.0000000  0.6508444  3
   3023   3022   3025   3027     1  0.0000000  0.6508444  3
   3024   3022   3021   3032     1  0.0000000  0.6508444  3
   3024   3022   3021   3043     1  0.0000000  0.6508444  3
   3024   3022   3025   3028     1  0.0000000  0.6508444  3
   3024   3022   3025   3026     1  0.0000000  0.6508444  3
   3024   3022   3025   3027     1  0.0000000  0.6508444  3
   3025   3022   3021   3043     1  0.0000000  0.6508444  3
   3025   3028   3030   3031     1  180.0000771  9.6232000  2
   3026   3025   3028   3029     1  0.0000000  3.3472000  1
   3026   3025   3028   3029     1  0.0000000  0.0000000  2
   3026   3025   3028   3029     1  180.0000771  0.3347200  3
   3026   3025   3028   3030     1  180.0000771  0.0000000  2
   3027   3025   3028   3029     1  0.0000000  3.3472000  1
   3027   3025   3028   3029     1  0.0000000  0.0000000  2
   3027   3025   3028   3029     1  180.0000771  0.3347200  3
   3027   3025   3028   3030     1  180.0000771  0.0000000  2
   3029   3028   3030   3031     1  0.0000000  7.9496000  1
   3029   3028   3030   3031     1  180.0000771  9.6232000  2
   3033   3032   3021   3043     1  0.0000000  0.6508444  3
   3033   3032   3035   3038     1  0.0000000  0.6508444  3
   3033   3032   3035   3036     1  0.0000000  0.6508444  3
   3033   3032   3035   3037     1  0.0000000  0.6508444  3
   3034   3032   3021   3043     1  0.0000000  0.6508444  3
   3034   3032   3035   3038     1  0.0000000  0.6508444  3
   3034   3032   3035   3036     1  0.0000000  0.6508444  3
   3034   3032   3035   3037     1  0.0000000  0.6508444  3
   3035   3032   3021   3043     1  0.0000000  0.6508444  3
   3035   3038   3040   3041     1  180.0000771  9.6232000  2
   3036   3035   3038   3039     1  0.0000000  3.3472000  1
   3036   3035   3038   3039     1  0.0000000  0.0000000  2
   3036   3035   3038   3039     1  180.0000771  0.3347200  3
   3036   3035   3038   3040     1  180.0000771  0.0000000  2
   3037   3035   3038   3039     1  0.0000000  3.3472000  1
   3037   3035   3038   3039     1  0.0000000  0.0000000  2
   3037   3035   3038   3039     1  180.0000771  0.3347200  3
   3037   3035   3038   3040     1  180.0000771  0.0000000  2
   3039   3038   3040   3041     1  0.0000000  7.9496000  1
   3039   3038   3040   3041     1  180.0000771  9.6232000  2
   3044   3047   3050   3051     1  0.0000000  0.6508444  3
   3044   3047   3050   3052     1  0.0000000  0.6508444  3
   3045   3044   3047   3050     1  0.0000000  0.6508444  3
   3045   3044   3047   3048     1  0.0000000  0.6508444  3
   3045   3044   3047   3049     1  0.0000000  0.6508444  3
   3046   3044   3047   3050     1  0.0000000  0.6508444  3
   3046   3044   3047   3048     1  0.0000000  0.6508444  3
   3046   3044   3047   3049     1  0.0000000  0.6508444  3
   3047   3050   3053   3075     1  0.0000000  0.6508444  3
   3048   3047   3050   3053     1  0.0000000  0.6508444  3
   3048   3047   3050   3051     1  0.0000000  0.6508444  3
   3048   3047   3050   3052     1  0.0000000  0.6508444  3
   3048   3047   3044   3074     1  0.0000000  1.0460000  1
   3048   3047   3044   3074     1  0.0000000  0.0000000  3
   3049   3047   3050   3053     1  0.0000000  0.6508444  3
   3049   3047   3050   3051     1  0.0000000  0.6508444  3
   3049   3047   3050   3052     1  0.0000000  0.6508444  3
   3049   3047   3044   3074     1  0.0000000  1.0460000  1
   3049   3047   3044   3074     1  0.0000000  0.0000000  3
   3050   3053   3054   3055     1  0.0000000  0.6508444  3
   3050   3053   3054   3056     1  0.0000000  0.6508444  3
   3050   3053   3064   3065     1  0.0000000  0.6508444  3
   3050   3053   3064   3066     1  0.0000000  0.6508444  3
   3051   3050   3053   3054     1  0.0000000  0.6508444  3
   3051   3050   3053   3064     1  0.0000000  0.6508444  3
   3051   3050   3053   3075     1  0.0000000  0.6508444  3
   3052   3050   3053   3054     1  0.0000000  0.6508444  3
   3052   3050   3053   3064     1  0.0000000  0.6508444  3
   3052   3050   3053   3075     1  0.0000000  0.6508444  3
   3053   3054   3057   3058     1  0.0000000  0.6508444  3
   3053   3054   3057   3059     1  0.0000000  0.6508444  3
   3053   3064   3067   3068     1  0.0000000  0.6508444  3
   3053   3064   3067   3069     1  0.0000000  0.6508444  3
   3054   3053   3064   3065     1  0.0000000  0.6508444  3
   3054   3053   3064   3066     1  0.0000000  0.6508444  3
   3055   3054   3057   3060     1  0.0000000  0.6508444  3
   3055   3054   3057   3058     1  0.0000000  0.6508444  3
   3055   3054   3057   3059     1  0.0000000  0.6508444  3
   3055   3054   3053   3064     1  0.0000000  0.6508444  3
   3055   3054   3053   3075     1  0.0000000  0.6508444  3
   3056   3054   3057   3060     1  0.0000000  0.6508444  3
   3056   3054   3057   3058     1  0.0000000  0.6508444  3
   3056   3054   3057   3059     1  0.0000000  0.6508444  3
   3056   3054   3053   3064     1  0.0000000  0.6508444  3
   3056   3054   3053   3075     1  0.0000000  0.6508444  3
   3057   3060   3062   3063     1  180.0000771  9.6232000  2
   3057   3054   3053   3075     1  0.0000000  0.6508444  3
   3058   3057   3060   3061     1  0.0000000  3.3472000  1
   3058   3057   3060   3061     1  0.0000000  0.0000000  2
   3058   3057   3060   3061     1  180.0000771  0.3347200  3
   3058   3057   3060   3062     1  180.0000771  0.0000000  2
   3059   3057   3060   3061     1  0.0000000  3.3472000  1
   3059   3057   3060   3061     1  0.0000000  0.0000000  2
   3059   3057   3060   3061     1  180.0000771  0.3347200  3
   3059   3057   3060   3062     1  180.0000771  0.0000000  2
   3061   3060   3062   3063     1  0.0000000  7.9496000  1
   3061   3060   3062   3063     1  180.0000771  9.6232000  2
   3065   3064   3067   3070     1  0.0000000  0.6508444  3
   3065   3064   3067   3068     1  0.0000000  0.6508444  3
   3065   3064   3067   3069     1  0.0000000  0.6508444  3
   3065   3064   3053   3075     1  0.0000000  0.6508444  3
   3066   3064   3067   3070     1  0.0000000  0.6508444  3
   3066   3064   3067   3068     1  0.0000000  0.6508444  3
   3066   3064   3067   3069     1  0.0000000  0.6508444  3
   3066   3064   3053   3075     1  0.0000000  0.6508444  3
   3067   3070   3072   3073     1  180.0000771  9.6232000  2
   3067   3064   3053   3075     1  0.0000000  0.6508444  3
   3068   3067   3070   3071     1  0.0000000  3.3472000  1
   3068   3067   3070   3071     1  0.0000000  0.0000000  2
   3068   3067   3070   3071     1  180.0000771  0.3347200  3
   3068   3067   3070   3072     1  180.0000771  0.0000000  2
   3069   3067   3070   3071     1  0.0000000  3.3472000  1
   3069   3067   3070   3071     1  0.0000000  0.0000000  2
   3069   3067   3070   3071     1  180.0000771  0.3347200  3
   3069   3067   3070   3072     1  180.0000771  0.0000000  2
   3071   3070   3072   3073     1  0.0000000  7.9496000  1
   3071   3070   3072   3073     1  180.0000771  9.6232000  2
   3076   3079   3082   3083     1  0.0000000  0.6508444  3
   3076   3079   3082   3084     1  0.0000000  0.6508444  3
   3077   3076   3079   3082     1  0.0000000  0.6508444  3
   3077   3076   3079   3080     1  0.0000000  0.6508444  3
   3077   3076   3079   3081     1  0.0000000  0.6508444  3
   3078   3076   3079   3082     1  0.0000000  0.6508444  3
   3078   3076   3079   3080     1  0.0000000  0.6508444  3
   3078   3076   3079   3081     1  0.0000000  0.6508444  3
   3079   3082   3085   3107     1  0.0000000  0.6508444  3
   3080   3079   3076   3106     1  0.0000000  1.0460000  1
   3080   3079   3076   3106     1  0.0000000  0.0000000  3
   3080   3079   3082   3085     1  0.0000000  0.6508444  3
   3080   3079   3082   3083     1  0.0000000  0.6508444  3
   3080   3079   3082   3084     1  0.0000000  0.6508444  3
   3081   3079   3076   3106     1  0.0000000  1.0460000  1
   3081   3079   3076   3106     1  0.0000000  0.0000000  3
   3081   3079   3082   3085     1  0.0000000  0.6508444  3
   3081   3079   3082   3083     1  0.0000000  0.6508444  3
   3081   3079   3082   3084     1  0.0000000  0.6508444  3
   3082   3085   3086   3087     1  0.0000000  0.6508444  3
   3082   3085   3086   3088     1  0.0000000  0.6508444  3
   3082   3085   3096   3097     1  0.0000000  0.6508444  3
   3082   3085   3096   3098     1  0.0000000  0.6508444  3
   3083   3082   3085   3086     1  0.0000000  0.6508444  3
   3083   3082   3085   3096     1  0.0000000  0.6508444  3
   3083   3082   3085   3107     1  0.0000000  0.6508444  3
   3084   3082   3085   3086     1  0.0000000  0.6508444  3
   3084   3082   3085   3096     1  0.0000000  0.6508444  3
   3084   3082   3085   3107     1  0.0000000  0.6508444  3
   3085   3086   3089   3090     1  0.0000000  0.6508444  3
   3085   3086   3089   3091     1  0.0000000  0.6508444  3
   3085   3096   3099   3100     1  0.0000000  0.6508444  3
   3085   3096   3099   3101     1  0.0000000  0.6508444  3
   3086   3085   3096   3097     1  0.0000000  0.6508444  3
   3086   3085   3096   3098     1  0.0000000  0.6508444  3
   3087   3086   3085   3096     1  0.0000000  0.6508444  3
   3087   3086   3085   3107     1  0.0000000  0.6508444  3
   3087   3086   3089   3092     1  0.0000000  0.6508444  3
   3087   3086   3089   3090     1  0.0000000  0.6508444  3
   3087   3086   3089   3091     1  0.0000000  0.6508444  3
   3088   3086   3085   3096     1  0.0000000  0.6508444  3
   3088   3086   3085   3107     1  0.0000000  0.6508444  3
   3088   3086   3089   3092     1  0.0000000  0.6508444  3
   3088   3086   3089   3090     1  0.0000000  0.6508444  3
   3088   3086   3089   3091     1  0.0000000  0.6508444  3
   3089   3086   3085   3107     1  0.0000000  0.6508444  3
   3089   3092   3094   3095     1  180.0000771  9.6232000  2
   3090   3089   3092   3093     1  0.0000000  3.3472000  1
   3090   3089   3092   3093     1  0.0000000  0.0000000  2
   3090   3089   3092   3093     1  180.0000771  0.3347200  3
   3090   3089   3092   3094     1  180.0000771  0.0000000  2
   3091   3089   3092   3093     1  0.0000000  3.3472000  1
   3091   3089   3092   3093     1  0.0000000  0.0000000  2
   3091   3089   3092   3093     1  180.0000771  0.3347200  3
   3091   3089   3092   3094     1  180.0000771  0.0000000  2
   3093   3092   3094   3095     1  0.0000000  7.9496000  1
   3093   3092   3094   3095     1  180.0000771  9.6232000  2
   3097   3096   3085   3107     1  0.0000000  0.6508444  3
   3097   3096   3099   3102     1  0.0000000  0.6508444  3
   3097   3096   3099   3100     1  0.0000000  0.6508444  3
   3097   3096   3099   3101     1  0.0000000  0.6508444  3
   3098   3096   3085   3107     1  0.0000000  0.6508444  3
   3098   3096   3099   3102     1  0.0000000  0.6508444  3
   3098   3096   3099   3100     1  0.0000000  0.6508444  3
   3098   3096   3099   3101     1  0.0000000  0.6508444  3
   3099   3096   3085   3107     1  0.0000000  0.6508444  3
   3099   3102   3104   3105     1  180.0000771  9.6232000  2
   3100   3099   3102   3103     1  0.0000000  3.3472000  1
   3100   3099   3102   3103     1  0.0000000  0.0000000  2
   3100   3099   3102   3103     1  180.0000771  0.3347200  3
   3100   3099   3102   3104     1  180.0000771  0.0000000  2
   3101   3099   3102   3103     1  0.0000000  3.3472000  1
   3101   3099   3102   3103     1  0.0000000  0.0000000  2
   3101   3099   3102   3103     1  180.0000771  0.3347200  3
   3101   3099   3102   3104     1  180.0000771  0.0000000  2
   3103   3102   3104   3105     1  0.0000000  7.9496000  1
   3103   3102   3104   3105     1  180.0000771  9.6232000  2
   3108   3111   3114   3115     1  0.0000000  0.6508444  3
   3108   3111   3114   3116     1  0.0000000  0.6508444  3
   3109   3108   3111   3114     1  0.0000000  0.6508444  3
   3109   3108   3111   3112     1  0.0000000  0.6508444  3
   3109   3108   3111   3113     1  0.0000000  0.6508444  3
   3110   3108   3111   3114     1  0.0000000  0.6508444  3
   3110   3108   3111   3112     1  0.0000000  0.6508444  3
   3110   3108   3111   3113     1  0.0000000  0.6508444  3
   3111   3114   3117   3139     1  0.0000000  0.6508444  3
   3112   3111   3114   3117     1  0.0000000  0.6508444  3
   3112   3111   3114   3115     1  0.0000000  0.6508444  3
   3112   3111   3114   3116     1  0.0000000  0.6508444  3
   3112   3111   3108   3138     1  0.0000000  1.0460000  1
   3112   3111   3108   3138     1  0.0000000  0.0000000  3
   3113   3111   3114   3117     1  0.0000000  0.6508444  3
   3113   3111   3114   3115     1  0.0000000  0.6508444  3
   3113   3111   3114   3116     1  0.0000000  0.6508444  3
   3113   3111   3108   3138     1  0.0000000  1.0460000  1
   3113   3111   3108   3138     1  0.0000000  0.0000000  3
   3114   3117   3118   3119     1  0.0000000  0.6508444  3
   3114   3117   3118   3120     1  0.0000000  0.6508444  3
   3114   3117   3128   3129     1  0.0000000  0.6508444  3
   3114   3117   3128   3130     1  0.0000000  0.6508444  3
   3115   3114   3117   3118     1  0.0000000  0.6508444  3
   3115   3114   3117   3128     1  0.0000000  0.6508444  3
   3115   3114   3117   3139     1  0.0000000  0.6508444  3
   3116   3114   3117   3118     1  0.0000000  0.6508444  3
   3116   3114   3117   3128     1  0.0000000  0.6508444  3
   3116   3114   3117   3139     1  0.0000000  0.6508444  3
   3117   3118   3121   3122     1  0.0000000  0.6508444  3
   3117   3118   3121   3123     1  0.0000000  0.6508444  3
   3117   3128   3131   3132     1  0.0000000  0.6508444  3
   3117   3128   3131   3133     1  0.0000000  0.6508444  3
   3118   3117   3128   3129     1  0.0000000  0.6508444  3
   3118   3117   3128   3130     1  0.0000000  0.6508444  3
   3119   3118   3121   3124     1  0.0000000  0.6508444  3
   3119   3118   3121   3122     1  0.0000000  0.6508444  3
   3119   3118   3121   3123     1  0.0000000  0.6508444  3
   3119   3118   3117   3128     1  0.0000000  0.6508444  3
   3119   3118   3117   3139     1  0.0000000  0.6508444  3
   3120   3118   3121   3124     1  0.0000000  0.6508444  3
   3120   3118   3121   3122     1  0.0000000  0.6508444  3
   3120   3118   3121   3123     1  0.0000000  0.6508444  3
   3120   3118   3117   3128     1  0.0000000  0.6508444  3
   3120   3118   3117   3139     1  0.0000000  0.6508444  3
   3121   3124   3126   3127     1  180.0000771  9.6232000  2
   3121   3118   3117   3139     1  0.0000000  0.6508444  3
   3122   3121   3124   3125     1  0.0000000  3.3472000  1
   3122   3121   3124   3125     1  0.0000000  0.0000000  2
   3122   3121   3124   3125     1  180.0000771  0.3347200  3
   3122   3121   3124   3126     1  180.0000771  0.0000000  2
   3123   3121   3124   3125     1  0.0000000  3.3472000  1
   3123   3121   3124   3125     1  0.0000000  0.0000000  2
   3123   3121   3124   3125     1  180.0000771  0.3347200  3
   3123   3121   3124   3126     1  180.0000771  0.0000000  2
   3125   3124   3126   3127     1  0.0000000  7.9496000  1
   3125   3124   3126   3127     1  180.0000771  9.6232000  2
   3129   3128   3131   3134     1  0.0000000  0.6508444  3
   3129   3128   3131   3132     1  0.0000000  0.6508444  3
   3129   3128   3131   3133     1  0.0000000  0.6508444  3
   3129   3128   3117   3139     1  0.0000000  0.6508444  3
   3130   3128   3131   3134     1  0.0000000  0.6508444  3
   3130   3128   3131   3132     1  0.0000000  0.6508444  3
   3130   3128   3131   3133     1  0.0000000  0.6508444  3
   3130   3128   3117   3139     1  0.0000000  0.6508444  3
   3131   3134   3136   3137     1  180.0000771  9.6232000  2
   3131   3128   3117   3139     1  0.0000000  0.6508444  3
   3132   3131   3134   3135     1  0.0000000  3.3472000  1
   3132   3131   3134   3135     1  0.0000000  0.0000000  2
   3132   3131   3134   3135     1  180.0000771  0.3347200  3
   3132   3131   3134   3136     1  180.0000771  0.0000000  2
   3133   3131   3134   3135     1  0.0000000  3.3472000  1
   3133   3131   3134   3135     1  0.0000000  0.0000000  2
   3133   3131   3134   3135     1  180.0000771  0.3347200  3
   3133   3131   3134   3136     1  180.0000771  0.0000000  2
   3135   3134   3136   3137     1  0.0000000  7.9496000  1
   3135   3134   3136   3137     1  180.0000771  9.6232000  2
   3140   3143   3146   3147     1  0.0000000  0.6508444  3
   3140   3143   3146   3148     1  0.0000000  0.6508444  3
   3141   3140   3143   3146     1  0.0000000  0.6508444  3
   3141   3140   3143   3144     1  0.0000000  0.6508444  3
   3141   3140   3143   3145     1  0.0000000  0.6508444  3
   3142   3140   3143   3146     1  0.0000000  0.6508444  3
   3142   3140   3143   3144     1  0.0000000  0.6508444  3
   3142   3140   3143   3145     1  0.0000000  0.6508444  3
   3143   3146   3149   3171     1  0.0000000  0.6508444  3
   3144   3143   3140   3170     1  0.0000000  1.0460000  1
   3144   3143   3140   3170     1  0.0000000  0.0000000  3
   3144   3143   3146   3149     1  0.0000000  0.6508444  3
   3144   3143   3146   3147     1  0.0000000  0.6508444  3
   3144   3143   3146   3148     1  0.0000000  0.6508444  3
   3145   3143   3140   3170     1  0.0000000  1.0460000  1
   3145   3143   3140   3170     1  0.0000000  0.0000000  3
   3145   3143   3146   3149     1  0.0000000  0.6508444  3
   3145   3143   3146   3147     1  0.0000000  0.6508444  3
   3145   3143   3146   3148     1  0.0000000  0.6508444  3
   3146   3149   3150   3151     1  0.0000000  0.6508444  3
   3146   3149   3150   3152     1  0.0000000  0.6508444  3
   3146   3149   3160   3161     1  0.0000000  0.6508444  3
   3146   3149   3160   3162     1  0.0000000  0.6508444  3
   3147   3146   3149   3150     1  0.0000000  0.6508444  3
   3147   3146   3149   3160     1  0.0000000  0.6508444  3
   3147   3146   3149   3171     1  0.0000000  0.6508444  3
   3148   3146   3149   3150     1  0.0000000  0.6508444  3
   3148   3146   3149   3160     1  0.0000000  0.6508444  3
   3148   3146   3149   3171     1  0.0000000  0.6508444  3
   3149   3150   3153   3154     1  0.0000000  0.6508444  3
   3149   3150   3153   3155     1  0.0000000  0.6508444  3
   3149   3160   3163   3164     1  0.0000000  0.6508444  3
   3149   3160   3163   3165     1  0.0000000  0.6508444  3
   3150   3149   3160   3161     1  0.0000000  0.6508444  3
   3150   3149   3160   3162     1  0.0000000  0.6508444  3
   3151   3150   3149   3160     1  0.0000000  0.6508444  3
   3151   3150   3149   3171     1  0.0000000  0.6508444  3
   3151   3150   3153   3156     1  0.0000000  0.6508444  3
   3151   3150   3153   3154     1  0.0000000  0.6508444  3
   3151   3150   3153   3155     1  0.0000000  0.6508444  3
   3152   3150   3149   3160     1  0.0000000  0.6508444  3
   3152   3150   3149   3171     1  0.0000000  0.6508444  3
   3152   3150   3153   3156     1  0.0000000  0.6508444  3
   3152   3150   3153   3154     1  0.0000000  0.6508444  3
   3152   3150   3153   3155     1  0.0000000  0.6508444  3
   3153   3150   3149   3171     1  0.0000000  0.6508444  3
   3153   3156   3158   3159     1  180.0000771  9.6232000  2
   3154   3153   3156   3157     1  0.0000000  3.3472000  1
   3154   3153   3156   3157     1  0.0000000  0.0000000  2
   3154   3153   3156   3157     1  180.0000771  0.3347200  3
   3154   3153   3156   3158     1  180.0000771  0.0000000  2
   3155   3153   3156   3157     1  0.0000000  3.3472000  1
   3155   3153   3156   3157     1  0.0000000  0.0000000  2
   3155   3153   3156   3157     1  180.0000771  0.3347200  3
   3155   3153   3156   3158     1  180.0000771  0.0000000  2
   3157   3156   3158   3159     1  0.0000000  7.9496000  1
   3157   3156   3158   3159     1  180.0000771  9.6232000  2
   3161   3160   3149   3171     1  0.0000000  0.6508444  3
   3161   3160   3163   3166     1  0.0000000  0.6508444  3
   3161   3160   3163   3164     1  0.0000000  0.6508444  3
   3161   3160   3163   3165     1  0.0000000  0.6508444  3
   3162   3160   3149   3171     1  0.0000000  0.6508444  3
   3162   3160   3163   3166     1  0.0000000  0.6508444  3
   3162   3160   3163   3164     1  0.0000000  0.6508444  3
   3162   3160   3163   3165     1  0.0000000  0.6508444  3
   3163   3160   3149   3171     1  0.0000000  0.6508444  3
   3163   3166   3168   3169     1  180.0000771  9.6232000  2
   3164   3163   3166   3167     1  0.0000000  3.3472000  1
   3164   3163   3166   3167     1  0.0000000  0.0000000  2
   3164   3163   3166   3167     1  180.0000771  0.3347200  3
   3164   3163   3166   3168     1  180.0000771  0.0000000  2
   3165   3163   3166   3167     1  0.0000000  3.3472000  1
   3165   3163   3166   3167     1  0.0000000  0.0000000  2
   3165   3163   3166   3167     1  180.0000771  0.3347200  3
   3165   3163   3166   3168     1  180.0000771  0.0000000  2
   3167   3166   3168   3169     1  0.0000000  7.9496000  1
   3167   3166   3168   3169     1  180.0000771  9.6232000  2
   3172   3175   3178   3179     1  0.0000000  0.6508444  3
   3172   3175   3178   3180     1  0.0000000  0.6508444  3
   3173   3172   3175   3178     1  0.0000000  0.6508444  3
   3173   3172   3175   3176     1  0.0000000  0.6508444  3
   3173   3172   3175   3177     1  0.0000000  0.6508444  3
   3174   3172   3175   3178     1  0.0000000  0.6508444  3
   3174   3172   3175   3176     1  0.0000000  0.6508444  3
   3174   3172   3175   3177     1  0.0000000  0.6508444  3
   3175   3178   3181   3203     1  0.0000000  0.6508444  3
   3176   3175   3178   3181     1  0.0000000  0.6508444  3
   3176   3175   3178   3179     1  0.0000000  0.6508444  3
   3176   3175   3178   3180     1  0.0000000  0.6508444  3
   3176   3175   3172   3202     1  0.0000000  1.0460000  1
   3176   3175   3172   3202     1  0.0000000  0.0000000  3
   3177   3175   3178   3181     1  0.0000000  0.6508444  3
   3177   3175   3178   3179     1  0.0000000  0.6508444  3
   3177   3175   3178   3180     1  0.0000000  0.6508444  3
   3177   3175   3172   3202     1  0.0000000  1.0460000  1
   3177   3175   3172   3202     1  0.0000000  0.0000000  3
   3178   3181   3182   3183     1  0.0000000  0.6508444  3
   3178   3181   3182   3184     1  0.0000000  0.6508444  3
   3178   3181   3192   3193     1  0.0000000  0.6508444  3
   3178   3181   3192   3194     1  0.0000000  0.6508444  3
   3179   3178   3181   3182     1  0.0000000  0.6508444  3
   3179   3178   3181   3192     1  0.0000000  0.6508444  3
   3179   3178   3181   3203     1  0.0000000  0.6508444  3
   3180   3178   3181   3182     1  0.0000000  0.6508444  3
   3180   3178   3181   3192     1  0.0000000  0.6508444  3
   3180   3178   3181   3203     1  0.0000000  0.6508444  3
   3181   3182   3185   3186     1  0.0000000  0.6508444  3
   3181   3182   3185   3187     1  0.0000000  0.6508444  3
   3181   3192   3195   3196     1  0.0000000  0.6508444  3
   3181   3192   3195   3197     1  0.0000000  0.6508444  3
   3182   3181   3192   3193     1  0.0000000  0.6508444  3
   3182   3181   3192   3194     1  0.0000000  0.6508444  3
   3183   3182   3185   3188     1  0.0000000  0.6508444  3
   3183   3182   3185   3186     1  0.0000000  0.6508444  3
   3183   3182   3185   3187     1  0.0000000  0.6508444  3
   3183   3182   3181   3192     1  0.0000000  0.6508444  3
   3183   3182   3181   3203     1  0.0000000  0.6508444  3
   3184   3182   3185   3188     1  0.0000000  0.6508444  3
   3184   3182   3185   3186     1  0.0000000  0.6508444  3
   3184   3182   3185   3187     1  0.0000000  0.6508444  3
   3184   3182   3181   3192     1  0.0000000  0.6508444  3
   3184   3182   3181   3203     1  0.0000000  0.6508444  3
   3185   3188   3190   3191     1  180.0000771  9.6232000  2
   3185   3182   3181   3203     1  0.0000000  0.6508444  3
   3186   3185   3188   3189     1  0.0000000  3.3472000  1
   3186   3185   3188   3189     1  0.0000000  0.0000000  2
   3186   3185   3188   3189     1  180.0000771  0.3347200  3
   3186   3185   3188   3190     1  180.0000771  0.0000000  2
   3187   3185   3188   3189     1  0.0000000  3.3472000  1
   3187   3185   3188   3189     1  0.0000000  0.0000000  2
   3187   3185   3188   3189     1  180.0000771  0.3347200  3
   3187   3185   3188   3190     1  180.0000771  0.0000000  2
   3189   3188   3190   3191     1  0.0000000  7.9496000  1
   3189   3188   3190   3191     1  180.0000771  9.6232000  2
   3193   3192   3195   3198     1  0.0000000  0.6508444  3
   3193   3192   3195   3196     1  0.0000000  0.6508444  3
   3193   3192   3195   3197     1  0.0000000  0.6508444  3
   3193   3192   3181   3203     1  0.0000000  0.6508444  3
   3194   3192   3195   3198     1  0.0000000  0.6508444  3
   3194   3192   3195   3196     1  0.0000000  0.6508444  3
   3194   3192   3195   3197     1  0.0000000  0.6508444  3
   3194   3192   3181   3203     1  0.0000000  0.6508444  3
   3195   3198   3200   3201     1  180.0000771  9.6232000  2
   3195   3192   3181   3203     1  0.0000000  0.6508444  3
   3196   3195   3198   3199     1  0.0000000  3.3472000  1
   3196   3195   3198   3199     1  0.0000000  0.0000000  2
   3196   3195   3198   3199     1  180.0000771  0.3347200  3
   3196   3195   3198   3200     1  180.0000771  0.0000000  2
   3197   3195   3198   3199     1  0.0000000  3.3472000  1
   3197   3195   3198   3199     1  0.0000000  0.0000000  2
   3197   3195   3198   3199     1  180.0000771  0.3347200  3
   3197   3195   3198   3200     1  180.0000771  0.0000000  2
   3199   3198   3200   3201     1  0.0000000  7.9496000  1
   3199   3198   3200   3201     1  180.0000771  9.6232000  2
   3204   3207   3210   3211     1  0.0000000  0.6508444  3
   3204   3207   3210   3212     1  0.0000000  0.6508444  3
   3205   3204   3207   3210     1  0.0000000  0.6508444  3
   3205   3204   3207   3208     1  0.0000000  0.6508444  3
   3205   3204   3207   3209     1  0.0000000  0.6508444  3
   3206   3204   3207   3210     1  0.0000000  0.6508444  3
   3206   3204   3207   3208     1  0.0000000  0.6508444  3
   3206   3204   3207   3209     1  0.0000000  0.6508444  3
   3207   3210   3213   3235     1  0.0000000  0.6508444  3
   3208   3207   3204   3234     1  0.0000000  1.0460000  1
   3208   3207   3204   3234     1  0.0000000  0.0000000  3
   3208   3207   3210   3213     1  0.0000000  0.6508444  3
   3208   3207   3210   3211     1  0.0000000  0.6508444  3
   3208   3207   3210   3212     1  0.0000000  0.6508444  3
   3209   3207   3204   3234     1  0.0000000  1.0460000  1
   3209   3207   3204   3234     1  0.0000000  0.0000000  3
   3209   3207   3210   3213     1  0.0000000  0.6508444  3
   3209   3207   3210   3211     1  0.0000000  0.6508444  3
   3209   3207   3210   3212     1  0.0000000  0.6508444  3
   3210   3213   3214   3215     1  0.0000000  0.6508444  3
   3210   3213   3214   3216     1  0.0000000  0.6508444  3
   3210   3213   3224   3225     1  0.0000000  0.6508444  3
   3210   3213   3224   3226     1  0.0000000  0.6508444  3
   3211   3210   3213   3214     1  0.0000000  0.6508444  3
   3211   3210   3213   3224     1  0.0000000  0.6508444  3
   3211   3210   3213   3235     1  0.0000000  0.6508444  3
   3212   3210   3213   3214     1  0.0000000  0.6508444  3
   3212   3210   3213   3224     1  0.0000000  0.6508444  3
   3212   3210   3213   3235     1  0.0000000  0.6508444  3
   3213   3214   3217   3218     1  0.0000000  0.6508444  3
   3213   3214   3217   3219     1  0.0000000  0.6508444  3
   3213   3224   3227   3228     1  0.0000000  0.6508444  3
   3213   3224   3227   3229     1  0.0000000  0.6508444  3
   3214   3213   3224   3225     1  0.0000000  0.6508444  3
   3214   3213   3224   3226     1  0.0000000  0.6508444  3
   3215   3214   3213   3224     1  0.0000000  0.6508444  3
   3215   3214   3213   3235     1  0.0000000  0.6508444  3
   3215   3214   3217   3220     1  0.0000000  0.6508444  3
   3215   3214   3217   3218     1  0.0000000  0.6508444  3
   3215   3214   3217   3219     1  0.0000000  0.6508444  3
   3216   3214   3213   3224     1  0.0000000  0.6508444  3
   3216   3214   3213   3235     1  0.0000000  0.6508444  3
   3216   3214   3217   3220     1  0.0000000  0.6508444  3
   3216   3214   3217   3218     1  0.0000000  0.6508444  3
   3216   3214   3217   3219     1  0.0000000  0.6508444  3
   3217   3214   3213   3235     1  0.0000000  0.6508444  3
   3217   3220   3222   3223     1  180.0000771  9.6232000  2
   3218   3217   3220   3221     1  0.0000000  3.3472000  1
   3218   3217   3220   3221     1  0.0000000  0.0000000  2
   3218   3217   3220   3221     1  180.0000771  0.3347200  3
   3218   3217   3220   3222     1  180.0000771  0.0000000  2
   3219   3217   3220   3221     1  0.0000000  3.3472000  1
   3219   3217   3220   3221     1  0.0000000  0.0000000  2
   3219   3217   3220   3221     1  180.0000771  0.3347200  3
   3219   3217   3220   3222     1  180.0000771  0.0000000  2
   3221   3220   3222   3223     1  0.0000000  7.9496000  1
   3221   3220   3222   3223     1  180.0000771  9.6232000  2
   3225   3224   3213   3235     1  0.0000000  0.6508444  3
   3225   3224   3227   3230     1  0.0000000  0.6508444  3
   3225   3224   3227   3228     1  0.0000000  0.6508444  3
   3225   3224   3227   3229     1  0.0000000  0.6508444  3
   3226   3224   3213   3235     1  0.0000000  0.6508444  3
   3226   3224   3227   3230     1  0.0000000  0.6508444  3
   3226   3224   3227   3228     1  0.0000000  0.6508444  3
   3226   3224   3227   3229     1  0.0000000  0.6508444  3
   3227   3224   3213   3235     1  0.0000000  0.6508444  3
   3227   3230   3232   3233     1  180.0000771  9.6232000  2
   3228   3227   3230   3231     1  0.0000000  3.3472000  1
   3228   3227   3230   3231     1  0.0000000  0.0000000  2
   3228   3227   3230   3231     1  180.0000771  0.3347200  3
   3228   3227   3230   3232     1  180.0000771  0.0000000  2
   3229   3227   3230   3231     1  0.0000000  3.3472000  1
   3229   3227   3230   3231     1  0.0000000  0.0000000  2
   3229   3227   3230   3231     1  180.0000771  0.3347200  3
   3229   3227   3230   3232     1  180.0000771  0.0000000  2
   3231   3230   3232   3233     1  0.0000000  7.9496000  1
   3231   3230   3232   3233     1  180.0000771  9.6232000  2
   3236   3239   3242   3243     1  0.0000000  0.6508444  3
   3236   3239   3242   3244     1  0.0000000  0.6508444  3
   3237   3236   3239   3242     1  0.0000000  0.6508444  3
   3237   3236   3239   3240     1  0.0000000  0.6508444  3
   3237   3236   3239   3241     1  0.0000000  0.6508444  3
   3238   3236   3239   3242     1  0.0000000  0.6508444  3
   3238   3236   3239   3240     1  0.0000000  0.6508444  3
   3238   3236   3239   3241     1  0.0000000  0.6508444  3
   3239   3242   3245   3267     1  0.0000000  0.6508444  3
   3240   3239   3242   3245     1  0.0000000  0.6508444  3
   3240   3239   3242   3243     1  0.0000000  0.6508444  3
   3240   3239   3242   3244     1  0.0000000  0.6508444  3
   3240   3239   3236   3266     1  0.0000000  1.0460000  1
   3240   3239   3236   3266     1  0.0000000  0.0000000  3
   3241   3239   3242   3245     1  0.0000000  0.6508444  3
   3241   3239   3242   3243     1  0.0000000  0.6508444  3
   3241   3239   3242   3244     1  0.0000000  0.6508444  3
   3241   3239   3236   3266     1  0.0000000  1.0460000  1
   3241   3239   3236   3266     1  0.0000000  0.0000000  3
   3242   3245   3246   3247     1  0.0000000  0.6508444  3
   3242   3245   3246   3248     1  0.0000000  0.6508444  3
   3242   3245   3256   3257     1  0.0000000  0.6508444  3
   3242   3245   3256   3258     1  0.0000000  0.6508444  3
   3243   3242   3245   3246     1  0.0000000  0.6508444  3
   3243   3242   3245   3256     1  0.0000000  0.6508444  3
   3243   3242   3245   3267     1  0.0000000  0.6508444  3
   3244   3242   3245   3246     1  0.0000000  0.6508444  3
   3244   3242   3245   3256     1  0.0000000  0.6508444  3
   3244   3242   3245   3267     1  0.0000000  0.6508444  3
   3245   3246   3249   3250     1  0.0000000  0.6508444  3
   3245   3246   3249   3251     1  0.0000000  0.6508444  3
   3245   3256   3259   3260     1  0.0000000  0.6508444  3
   3245   3256   3259   3261     1  0.0000000  0.6508444  3
   3246   3245   3256   3257     1  0.0000000  0.6508444  3
   3246   3245   3256   3258     1  0.0000000  0.6508444  3
   3247   3246   3249   3252     1  0.0000000  0.6508444  3
   3247   3246   3249   3250     1  0.0000000  0.6508444  3
   3247   3246   3249   3251     1  0.0000000  0.6508444  3
   3247   3246   3245   3256     1  0.0000000  0.6508444  3
   3247   3246   3245   3267     1  0.0000000  0.6508444  3
   3248   3246   3249   3252     1  0.0000000  0.6508444  3
   3248   3246   3249   3250     1  0.0000000  0.6508444  3
   3248   3246   3249   3251     1  0.0000000  0.6508444  3
   3248   3246   3245   3256     1  0.0000000  0.6508444  3
   3248   3246   3245   3267     1  0.0000000  0.6508444  3
   3249   3252   3254   3255     1  180.0000771  9.6232000  2
   3249   3246   3245   3267     1  0.0000000  0.6508444  3
   3250   3249   3252   3253     1  0.0000000  3.3472000  1
   3250   3249   3252   3253     1  0.0000000  0.0000000  2
   3250   3249   3252   3253     1  180.0000771  0.3347200  3
   3250   3249   3252   3254     1  180.0000771  0.0000000  2
   3251   3249   3252   3253     1  0.0000000  3.3472000  1
   3251   3249   3252   3253     1  0.0000000  0.0000000  2
   3251   3249   3252   3253     1  180.0000771  0.3347200  3
   3251   3249   3252   3254     1  180.0000771  0.0000000  2
   3253   3252   3254   3255     1  0.0000000  7.9496000  1
   3253   3252   3254   3255     1  180.0000771  9.6232000  2
   3257   3256   3259   3262     1  0.0000000  0.6508444  3
   3257   3256   3259   3260     1  0.0000000  0.6508444  3
   3257   3256   3259   3261     1  0.0000000  0.6508444  3
   3257   3256   3245   3267     1  0.0000000  0.6508444  3
   3258   3256   3259   3262     1  0.0000000  0.6508444  3
   3258   3256   3259   3260     1  0.0000000  0.6508444  3
   3258   3256   3259   3261     1  0.0000000  0.6508444  3
   3258   3256   3245   3267     1  0.0000000  0.6508444  3
   3259   3262   3264   3265     1  180.0000771  9.6232000  2
   3259   3256   3245   3267     1  0.0000000  0.6508444  3
   3260   3259   3262   3263     1  0.0000000  3.3472000  1
   3260   3259   3262   3263     1  0.0000000  0.0000000  2
   3260   3259   3262   3263     1  180.0000771  0.3347200  3
   3260   3259   3262   3264     1  180.0000771  0.0000000  2
   3261   3259   3262   3263     1  0.0000000  3.3472000  1
   3261   3259   3262   3263     1  0.0000000  0.0000000  2
   3261   3259   3262   3263     1  180.0000771  0.3347200  3
   3261   3259   3262   3264     1  180.0000771  0.0000000  2
   3263   3262   3264   3265     1  0.0000000  7.9496000  1
   3263   3262   3264   3265     1  180.0000771  9.6232000  2
   3268   3271   3274   3275     1  0.0000000  0.6508444  3
   3268   3271   3274   3276     1  0.0000000  0.6508444  3
   3269   3268   3271   3274     1  0.0000000  0.6508444  3
   3269   3268   3271   3272     1  0.0000000  0.6508444  3
   3269   3268   3271   3273     1  0.0000000  0.6508444  3
   3270   3268   3271   3274     1  0.0000000  0.6508444  3
   3270   3268   3271   3272     1  0.0000000  0.6508444  3
   3270   3268   3271   3273     1  0.0000000  0.6508444  3
   3271   3274   3277   3299     1  0.0000000  0.6508444  3
   3272   3271   3268   3298     1  0.0000000  1.0460000  1
   3272   3271   3268   3298     1  0.0000000  0.0000000  3
   3272   3271   3274   3277     1  0.0000000  0.6508444  3
   3272   3271   3274   3275     1  0.0000000  0.6508444  3
   3272   3271   3274   3276     1  0.0000000  0.6508444  3
   3273   3271   3268   3298     1  0.0000000  1.0460000  1
   3273   3271   3268   3298     1  0.0000000  0.0000000  3
   3273   3271   3274   3277     1  0.0000000  0.6508444  3
   3273   3271   3274   3275     1  0.0000000  0.6508444  3
   3273   3271   3274   3276     1  0.0000000  0.6508444  3
   3274   3277   3278   3279     1  0.0000000  0.6508444  3
   3274   3277   3278   3280     1  0.0000000  0.6508444  3
   3274   3277   3288   3289     1  0.0000000  0.6508444  3
   3274   3277   3288   3290     1  0.0000000  0.6508444  3
   3275   3274   3277   3278     1  0.0000000  0.6508444  3
   3275   3274   3277   3288     1  0.0000000  0.6508444  3
   3275   3274   3277   3299     1  0.0000000  0.6508444  3
   3276   3274   3277   3278     1  0.0000000  0.6508444  3
   3276   3274   3277   3288     1  0.0000000  0.6508444  3
   3276   3274   3277   3299     1  0.0000000  0.6508444  3
   3277   3278   3281   3282     1  0.0000000  0.6508444  3
   3277   3278   3281   3283     1  0.0000000  0.6508444  3
   3277   3288   3291   3292     1  0.0000000  0.6508444  3
   3277   3288   3291   3293     1  0.0000000  0.6508444  3
   3278   3277   3288   3289     1  0.0000000  0.6508444  3
   3278   3277   3288   3290     1  0.0000000  0.6508444  3
   3279   3278   3277   3288     1  0.0000000  0.6508444  3
   3279   3278   3277   3299     1  0.0000000  0.6508444  3
   3279   3278   3281   3284     1  0.0000000  0.6508444  3
   3279   3278   3281   3282     1  0.0000000  0.6508444  3
   3279   3278   3281   3283     1  0.0000000  0.6508444  3
   3280   3278   3277   3288     1  0.0000000  0.6508444  3
   3280   3278   3277   3299     1  0.0000000  0.6508444  3
   3280   3278   3281   3284     1  0.0000000  0.6508444  3
   3280   3278   3281   3282     1  0.0000000  0.6508444  3
   3280   3278   3281   3283     1  0.0000000  0.6508444  3
   3281   3278   3277   3299     1  0.0000000  0.6508444  3
   3281   3284   3286   3287     1  180.0000771  9.6232000  2
   3282   3281   3284   3285     1  0.0000000  3.3472000  1
   3282   3281   3284   3285     1  0.0000000  0.0000000  2
   3282   3281   3284   3285     1  180.0000771  0.3347200  3
   3282   3281   3284   3286     1  180.0000771  0.0000000  2
   3283   3281   3284   3285     1  0.0000000  3.3472000  1
   3283   3281   3284   3285     1  0.0000000  0.0000000  2
   3283   3281   3284   3285     1  180.0000771  0.3347200  3
   3283   3281   3284   3286     1  180.0000771  0.0000000  2
   3285   3284   3286   3287     1  0.0000000  7.9496000  1
   3285   3284   3286   3287     1  180.0000771  9.6232000  2
   3289   3288   3277   3299     1  0.0000000  0.6508444  3
   3289   3288   3291   3294     1  0.0000000  0.6508444  3
   3289   3288   3291   3292     1  0.0000000  0.6508444  3
   3289   3288   3291   3293     1  0.0000000  0.6508444  3
   3290   3288   3277   3299     1  0.0000000  0.6508444  3
   3290   3288   3291   3294     1  0.0000000  0.6508444  3
   3290   3288   3291   3292     1  0.0000000  0.6508444  3
   3290   3288   3291   3293     1  0.0000000  0.6508444  3
   3291   3288   3277   3299     1  0.0000000  0.6508444  3
   3291   3294   3296   3297     1  180.0000771  9.6232000  2
   3292   3291   3294   3295     1  0.0000000  3.3472000  1
   3292   3291   3294   3295     1  0.0000000  0.0000000  2
   3292   3291   3294   3295     1  180.0000771  0.3347200  3
   3292   3291   3294   3296     1  180.0000771  0.0000000  2
   3293   3291   3294   3295     1  0.0000000  3.3472000  1
   3293   3291   3294   3295     1  0.0000000  0.0000000  2
   3293   3291   3294   3295     1  180.0000771  0.3347200  3
   3293   3291   3294   3296     1  180.0000771  0.0000000  2
   3295   3294   3296   3297     1  0.0000000  7.9496000  1
   3295   3294   3296   3297     1  180.0000771  9.6232000  2
   3300   3303   3306   3307     1  0.0000000  0.6508444  3
   3300   3303   3306   3308     1  0.0000000  0.6508444  3
   3301   3300   3303   3306     1  0.0000000  0.6508444  3
   3301   3300   3303   3304     1  0.0000000  0.6508444  3
   3301   3300   3303   3305     1  0.0000000  0.6508444  3
   3302   3300   3303   3306     1  0.0000000  0.6508444  3
   3302   3300   3303   3304     1  0.0000000  0.6508444  3
   3302   3300   3303   3305     1  0.0000000  0.6508444  3
   3303   3306   3309   3331     1  0.0000000  0.6508444  3
   3304   3303   3306   3309     1  0.0000000  0.6508444  3
   3304   3303   3306   3307     1  0.0000000  0.6508444  3
   3304   3303   3306   3308     1  0.0000000  0.6508444  3
   3304   3303   3300   3330     1  0.0000000  1.0460000  1
   3304   3303   3300   3330     1  0.0000000  0.0000000  3
   3305   3303   3306   3309     1  0.0000000  0.6508444  3
   3305   3303   3306   3307     1  0.0000000  0.6508444  3
   3305   3303   3306   3308     1  0.0000000  0.6508444  3
   3305   3303   3300   3330     1  0.0000000  1.0460000  1
   3305   3303   3300   3330     1  0.0000000  0.0000000  3
   3306   3309   3310   3311     1  0.0000000  0.6508444  3
   3306   3309   3310   3312     1  0.0000000  0.6508444  3
   3306   3309   3320   3321     1  0.0000000  0.6508444  3
   3306   3309   3320   3322     1  0.0000000  0.6508444  3
   3307   3306   3309   3310     1  0.0000000  0.6508444  3
   3307   3306   3309   3320     1  0.0000000  0.6508444  3
   3307   3306   3309   3331     1  0.0000000  0.6508444  3
   3308   3306   3309   3310     1  0.0000000  0.6508444  3
   3308   3306   3309   3320     1  0.0000000  0.6508444  3
   3308   3306   3309   3331     1  0.0000000  0.6508444  3
   3309   3310   3313   3314     1  0.0000000  0.6508444  3
   3309   3310   3313   3315     1  0.0000000  0.6508444  3
   3309   3320   3323   3324     1  0.0000000  0.6508444  3
   3309   3320   3323   3325     1  0.0000000  0.6508444  3
   3310   3309   3320   3321     1  0.0000000  0.6508444  3
   3310   3309   3320   3322     1  0.0000000  0.6508444  3
   3311   3310   3313   3316     1  0.0000000  0.6508444  3
   3311   3310   3313   3314     1  0.0000000  0.6508444  3
   3311   3310   3313   3315     1  0.0000000  0.6508444  3
   3311   3310   3309   3320     1  0.0000000  0.6508444  3
   3311   3310   3309   3331     1  0.0000000  0.6508444  3
   3312   3310   3313   3316     1  0.0000000  0.6508444  3
   3312   3310   3313   3314     1  0.0000000  0.6508444  3
   3312   3310   3313   3315     1  0.0000000  0.6508444  3
   3312   3310   3309   3320     1  0.0000000  0.6508444  3
   3312   3310   3309   3331     1  0.0000000  0.6508444  3
   3313   3316   3318   3319     1  180.0000771  9.6232000  2
   3313   3310   3309   3331     1  0.0000000  0.6508444  3
   3314   3313   3316   3317     1  0.0000000  3.3472000  1
   3314   3313   3316   3317     1  0.0000000  0.0000000  2
   3314   3313   3316   3317     1  180.0000771  0.3347200  3
   3314   3313   3316   3318     1  180.0000771  0.0000000  2
   3315   3313   3316   3317     1  0.0000000  3.3472000  1
   3315   3313   3316   3317     1  0.0000000  0.0000000  2
   3315   3313   3316   3317     1  180.0000771  0.3347200  3
   3315   3313   3316   3318     1  180.0000771  0.0000000  2
   3317   3316   3318   3319     1  0.0000000  7.9496000  1
   3317   3316   3318   3319     1  180.0000771  9.6232000  2
   3321   3320   3323   3326     1  0.0000000  0.6508444  3
   3321   3320   3323   3324     1  0.0000000  0.6508444  3
   3321   3320   3323   3325     1  0.0000000  0.6508444  3
   3321   3320   3309   3331     1  0.0000000  0.6508444  3
   3322   3320   3323   3326     1  0.0000000  0.6508444  3
   3322   3320   3323   3324     1  0.0000000  0.6508444  3
   3322   3320   3323   3325     1  0.0000000  0.6508444  3
   3322   3320   3309   3331     1  0.0000000  0.6508444  3
   3323   3326   3328   3329     1  180.0000771  9.6232000  2
   3323   3320   3309   3331     1  0.0000000  0.6508444  3
   3324   3323   3326   3327     1  0.0000000  3.3472000  1
   3324   3323   3326   3327     1  0.0000000  0.0000000  2
   3324   3323   3326   3327     1  180.0000771  0.3347200  3
   3324   3323   3326   3328     1  180.0000771  0.0000000  2
   3325   3323   3326   3327     1  0.0000000  3.3472000  1
   3325   3323   3326   3327     1  0.0000000  0.0000000  2
   3325   3323   3326   3327     1  180.0000771  0.3347200  3
   3325   3323   3326   3328     1  180.0000771  0.0000000  2
   3327   3326   3328   3329     1  0.0000000  7.9496000  1
   3327   3326   3328   3329     1  180.0000771  9.6232000  2
   3332   3335   3338   3339     1  0.0000000  0.6508444  3
   3332   3335   3338   3340     1  0.0000000  0.6508444  3
   3333   3332   3335   3338     1  0.0000000  0.6508444  3
   3333   3332   3335   3336     1  0.0000000  0.6508444  3
   3333   3332   3335   3337     1  0.0000000  0.6508444  3
   3334   3332   3335   3338     1  0.0000000  0.6508444  3
   3334   3332   3335   3336     1  0.0000000  0.6508444  3
   3334   3332   3335   3337     1  0.0000000  0.6508444  3
   3335   3338   3341   3363     1  0.0000000  0.6508444  3
   3336   3335   3332   3362     1  0.0000000  1.0460000  1
   3336   3335   3332   3362     1  0.0000000  0.0000000  3
   3336   3335   3338   3341     1  0.0000000  0.6508444  3
   3336   3335   3338   3339     1  0.0000000  0.6508444  3
   3336   3335   3338   3340     1  0.0000000  0.6508444  3
   3337   3335   3332   3362     1  0.0000000  1.0460000  1
   3337   3335   3332   3362     1  0.0000000  0.0000000  3
   3337   3335   3338   3341     1  0.0000000  0.6508444  3
   3337   3335   3338   3339     1  0.0000000  0.6508444  3
   3337   3335   3338   3340     1  0.0000000  0.6508444  3
   3338   3341   3342   3343     1  0.0000000  0.6508444  3
   3338   3341   3342   3344     1  0.0000000  0.6508444  3
   3338   3341   3352   3353     1  0.0000000  0.6508444  3
   3338   3341   3352   3354     1  0.0000000  0.6508444  3
   3339   3338   3341   3342     1  0.0000000  0.6508444  3
   3339   3338   3341   3352     1  0.0000000  0.6508444  3
   3339   3338   3341   3363     1  0.0000000  0.6508444  3
   3340   3338   3341   3342     1  0.0000000  0.6508444  3
   3340   3338   3341   3352     1  0.0000000  0.6508444  3
   3340   3338   3341   3363     1  0.0000000  0.6508444  3
   3341   3342   3345   3346     1  0.0000000  0.6508444  3
   3341   3342   3345   3347     1  0.0000000  0.6508444  3
   3341   3352   3355   3356     1  0.0000000  0.6508444  3
   3341   3352   3355   3357     1  0.0000000  0.6508444  3
   3342   3341   3352   3353     1  0.0000000  0.6508444  3
   3342   3341   3352   3354     1  0.0000000  0.6508444  3
   3343   3342   3341   3352     1  0.0000000  0.6508444  3
   3343   3342   3341   3363     1  0.0000000  0.6508444  3
   3343   3342   3345   3348     1  0.0000000  0.6508444  3
   3343   3342   3345   3346     1  0.0000000  0.6508444  3
   3343   3342   3345   3347     1  0.0000000  0.6508444  3
   3344   3342   3341   3352     1  0.0000000  0.6508444  3
   3344   3342   3341   3363     1  0.0000000  0.6508444  3
   3344   3342   3345   3348     1  0.0000000  0.6508444  3
   3344   3342   3345   3346     1  0.0000000  0.6508444  3
   3344   3342   3345   3347     1  0.0000000  0.6508444  3
   3345   3342   3341   3363     1  0.0000000  0.6508444  3
   3345   3348   3350   3351     1  180.0000771  9.6232000  2
   3346   3345   3348   3349     1  0.0000000  3.3472000  1
   3346   3345   3348   3349     1  0.0000000  0.0000000  2
   3346   3345   3348   3349     1  180.0000771  0.3347200  3
   3346   3345   3348   3350     1  180.0000771  0.0000000  2
   3347   3345   3348   3349     1  0.0000000  3.3472000  1
   3347   3345   3348   3349     1  0.0000000  0.0000000  2
   3347   3345   3348   3349     1  180.0000771  0.3347200  3
   3347   3345   3348   3350     1  180.0000771  0.0000000  2
   3349   3348   3350   3351     1  0.0000000  7.9496000  1
   3349   3348   3350   3351     1  180.0000771  9.6232000  2
   3353   3352   3341   3363     1  0.0000000  0.6508444  3
   3353   3352   3355   3358     1  0.0000000  0.6508444  3
   3353   3352   3355   3356     1  0.0000000  0.6508444  3
   3353   3352   3355   3357     1  0.0000000  0.6508444  3
   3354   3352   3341   3363     1  0.0000000  0.6508444  3
   3354   3352   3355   3358     1  0.0000000  0.6508444  3
   3354   3352   3355   3356     1  0.0000000  0.6508444  3
   3354   3352   3355   3357     1  0.0000000  0.6508444  3
   3355   3352   3341   3363     1  0.0000000  0.6508444  3
   3355   3358   3360   3361     1  180.0000771  9.6232000  2
   3356   3355   3358   3359     1  0.0000000  3.3472000  1
   3356   3355   3358   3359     1  0.0000000  0.0000000  2
   3356   3355   3358   3359     1  180.0000771  0.3347200  3
   3356   3355   3358   3360     1  180.0000771  0.0000000  2
   3357   3355   3358   3359     1  0.0000000  3.3472000  1
   3357   3355   3358   3359     1  0.0000000  0.0000000  2
   3357   3355   3358   3359     1  180.0000771  0.3347200  3
   3357   3355   3358   3360     1  180.0000771  0.0000000  2
   3359   3358   3360   3361     1  0.0000000  7.9496000  1
   3359   3358   3360   3361     1  180.0000771  9.6232000  2
   3364   3367   3370   3371     1  0.0000000  0.6508444  3
   3364   3367   3370   3372     1  0.0000000  0.6508444  3
   3365   3364   3367   3370     1  0.0000000  0.6508444  3
   3365   3364   3367   3368     1  0.0000000  0.6508444  3
   3365   3364   3367   3369     1  0.0000000  0.6508444  3
   3366   3364   3367   3370     1  0.0000000  0.6508444  3
   3366   3364   3367   3368     1  0.0000000  0.6508444  3
   3366   3364   3367   3369     1  0.0000000  0.6508444  3
   3367   3370   3373   3395     1  0.0000000  0.6508444  3
   3368   3367   3370   3373     1  0.0000000  0.6508444  3
   3368   3367   3370   3371     1  0.0000000  0.6508444  3
   3368   3367   3370   3372     1  0.0000000  0.6508444  3
   3368   3367   3364   3394     1  0.0000000  1.0460000  1
   3368   3367   3364   3394     1  0.0000000  0.0000000  3
   3369   3367   3370   3373     1  0.0000000  0.6508444  3
   3369   3367   3370   3371     1  0.0000000  0.6508444  3
   3369   3367   3370   3372     1  0.0000000  0.6508444  3
   3369   3367   3364   3394     1  0.0000000  1.0460000  1
   3369   3367   3364   3394     1  0.0000000  0.0000000  3
   3370   3373   3374   3375     1  0.0000000  0.6508444  3
   3370   3373   3374   3376     1  0.0000000  0.6508444  3
   3370   3373   3384   3385     1  0.0000000  0.6508444  3
   3370   3373   3384   3386     1  0.0000000  0.6508444  3
   3371   3370   3373   3374     1  0.0000000  0.6508444  3
   3371   3370   3373   3384     1  0.0000000  0.6508444  3
   3371   3370   3373   3395     1  0.0000000  0.6508444  3
   3372   3370   3373   3374     1  0.0000000  0.6508444  3
   3372   3370   3373   3384     1  0.0000000  0.6508444  3
   3372   3370   3373   3395     1  0.0000000  0.6508444  3
   3373   3374   3377   3378     1  0.0000000  0.6508444  3
   3373   3374   3377   3379     1  0.0000000  0.6508444  3
   3373   3384   3387   3388     1  0.0000000  0.6508444  3
   3373   3384   3387   3389     1  0.0000000  0.6508444  3
   3374   3373   3384   3385     1  0.0000000  0.6508444  3
   3374   3373   3384   3386     1  0.0000000  0.6508444  3
   3375   3374   3377   3380     1  0.0000000  0.6508444  3
   3375   3374   3377   3378     1  0.0000000  0.6508444  3
   3375   3374   3377   3379     1  0.0000000  0.6508444  3
   3375   3374   3373   3384     1  0.0000000  0.6508444  3
   3375   3374   3373   3395     1  0.0000000  0.6508444  3
   3376   3374   3377   3380     1  0.0000000  0.6508444  3
   3376   3374   3377   3378     1  0.0000000  0.6508444  3
   3376   3374   3377   3379     1  0.0000000  0.6508444  3
   3376   3374   3373   3384     1  0.0000000  0.6508444  3
   3376   3374   3373   3395     1  0.0000000  0.6508444  3
   3377   3380   3382   3383     1  180.0000771  9.6232000  2
   3377   3374   3373   3395     1  0.0000000  0.6508444  3
   3378   3377   3380   3381     1  0.0000000  3.3472000  1
   3378   3377   3380   3381     1  0.0000000  0.0000000  2
   3378   3377   3380   3381     1  180.0000771  0.3347200  3
   3378   3377   3380   3382     1  180.0000771  0.0000000  2
   3379   3377   3380   3381     1  0.0000000  3.3472000  1
   3379   3377   3380   3381     1  0.0000000  0.0000000  2
   3379   3377   3380   3381     1  180.0000771  0.3347200  3
   3379   3377   3380   3382     1  180.0000771  0.0000000  2
   3381   3380   3382   3383     1  0.0000000  7.9496000  1
   3381   3380   3382   3383     1  180.0000771  9.6232000  2
   3385   3384   3387   3390     1  0.0000000  0.6508444  3
   3385   3384   3387   3388     1  0.0000000  0.6508444  3
   3385   3384   3387   3389     1  0.0000000  0.6508444  3
   3385   3384   3373   3395     1  0.0000000  0.6508444  3
   3386   3384   3387   3390     1  0.0000000  0.6508444  3
   3386   3384   3387   3388     1  0.0000000  0.6508444  3
   3386   3384   3387   3389     1  0.0000000  0.6508444  3
   3386   3384   3373   3395     1  0.0000000  0.6508444  3
   3387   3390   3392   3393     1  180.0000771  9.6232000  2
   3387   3384   3373   3395     1  0.0000000  0.6508444  3
   3388   3387   3390   3391     1  0.0000000  3.3472000  1
   3388   3387   3390   3391     1  0.0000000  0.0000000  2
   3388   3387   3390   3391     1  180.0000771  0.3347200  3
   3388   3387   3390   3392     1  180.0000771  0.0000000  2
   3389   3387   3390   3391     1  0.0000000  3.3472000  1
   3389   3387   3390   3391     1  0.0000000  0.0000000  2
   3389   3387   3390   3391     1  180.0000771  0.3347200  3
   3389   3387   3390   3392     1  180.0000771  0.0000000  2
   3391   3390   3392   3393     1  0.0000000  7.9496000  1
   3391   3390   3392   3393     1  180.0000771  9.6232000  2
   3396   3399   3402   3403     1  0.0000000  0.6508444  3
   3396   3399   3402   3404     1  0.0000000  0.6508444  3
   3397   3396   3399   3402     1  0.0000000  0.6508444  3
   3397   3396   3399   3400     1  0.0000000  0.6508444  3
   3397   3396   3399   3401     1  0.0000000  0.6508444  3
   3398   3396   3399   3402     1  0.0000000  0.6508444  3
   3398   3396   3399   3400     1  0.0000000  0.6508444  3
   3398   3396   3399   3401     1  0.0000000  0.6508444  3
   3399   3402   3405   3427     1  0.0000000  0.6508444  3
   3400   3399   3396   3426     1  0.0000000  1.0460000  1
   3400   3399   3396   3426     1  0.0000000  0.0000000  3
   3400   3399   3402   3405     1  0.0000000  0.6508444  3
   3400   3399   3402   3403     1  0.0000000  0.6508444  3
   3400   3399   3402   3404     1  0.0000000  0.6508444  3
   3401   3399   3396   3426     1  0.0000000  1.0460000  1
   3401   3399   3396   3426     1  0.0000000  0.0000000  3
   3401   3399   3402   3405     1  0.0000000  0.6508444  3
   3401   3399   3402   3403     1  0.0000000  0.6508444  3
   3401   3399   3402   3404     1  0.0000000  0.6508444  3
   3402   3405   3406   3407     1  0.0000000  0.6508444  3
   3402   3405   3406   3408     1  0.0000000  0.6508444  3
   3402   3405   3416   3417     1  0.0000000  0.6508444  3
   3402   3405   3416   3418     1  0.0000000  0.6508444  3
   3403   3402   3405   3406     1  0.0000000  0.6508444  3
   3403   3402   3405   3416     1  0.0000000  0.6508444  3
   3403   3402   3405   3427     1  0.0000000  0.6508444  3
   3404   3402   3405   3406     1  0.0000000  0.6508444  3
   3404   3402   3405   3416     1  0.0000000  0.6508444  3
   3404   3402   3405   3427     1  0.0000000  0.6508444  3
   3405   3406   3409   3410     1  0.0000000  0.6508444  3
   3405   3406   3409   3411     1  0.0000000  0.6508444  3
   3405   3416   3419   3420     1  0.0000000  0.6508444  3
   3405   3416   3419   3421     1  0.0000000  0.6508444  3
   3406   3405   3416   3417     1  0.0000000  0.6508444  3
   3406   3405   3416   3418     1  0.0000000  0.6508444  3
   3407   3406   3405   3416     1  0.0000000  0.6508444  3
   3407   3406   3405   3427     1  0.0000000  0.6508444  3
   3407   3406   3409   3412     1  0.0000000  0.6508444  3
   3407   3406   3409   3410     1  0.0000000  0.6508444  3
   3407   3406   3409   3411     1  0.0000000  0.6508444  3
   3408   3406   3405   3416     1  0.0000000  0.6508444  3
   3408   3406   3405   3427     1  0.0000000  0.6508444  3
   3408   3406   3409   3412     1  0.0000000  0.6508444  3
   3408   3406   3409   3410     1  0.0000000  0.6508444  3
   3408   3406   3409   3411     1  0.0000000  0.6508444  3
   3409   3406   3405   3427     1  0.0000000  0.6508444  3
   3409   3412   3414   3415     1  180.0000771  9.6232000  2
   3410   3409   3412   3413     1  0.0000000  3.3472000  1
   3410   3409   3412   3413     1  0.0000000  0.0000000  2
   3410   3409   3412   3413     1  180.0000771  0.3347200  3
   3410   3409   3412   3414     1  180.0000771  0.0000000  2
   3411   3409   3412   3413     1  0.0000000  3.3472000  1
   3411   3409   3412   3413     1  0.0000000  0.0000000  2
   3411   3409   3412   3413     1  180.0000771  0.3347200  3
   3411   3409   3412   3414     1  180.0000771  0.0000000  2
   3413   3412   3414   3415     1  0.0000000  7.9496000  1
   3413   3412   3414   3415     1  180.0000771  9.6232000  2
   3417   3416   3405   3427     1  0.0000000  0.6508444  3
   3417   3416   3419   3422     1  0.0000000  0.6508444  3
   3417   3416   3419   3420     1  0.0000000  0.6508444  3
   3417   3416   3419   3421     1  0.0000000  0.6508444  3
   3418   3416   3405   3427     1  0.0000000  0.6508444  3
   3418   3416   3419   3422     1  0.0000000  0.6508444  3
   3418   3416   3419   3420     1  0.0000000  0.6508444  3
   3418   3416   3419   3421     1  0.0000000  0.6508444  3
   3419   3416   3405   3427     1  0.0000000  0.6508444  3
   3419   3422   3424   3425     1  180.0000771  9.6232000  2
   3420   3419   3422   3423     1  0.0000000  3.3472000  1
   3420   3419   3422   3423     1  0.0000000  0.0000000  2
   3420   3419   3422   3423     1  180.0000771  0.3347200  3
   3420   3419   3422   3424     1  180.0000771  0.0000000  2
   3421   3419   3422   3423     1  0.0000000  3.3472000  1
   3421   3419   3422   3423     1  0.0000000  0.0000000  2
   3421   3419   3422   3423     1  180.0000771  0.3347200  3
   3421   3419   3422   3424     1  180.0000771  0.0000000  2
   3423   3422   3424   3425     1  0.0000000  7.9496000  1
   3423   3422   3424   3425     1  180.0000771  9.6232000  2
   3428   3431   3434   3435     1  0.0000000  0.6508444  3
   3428   3431   3434   3436     1  0.0000000  0.6508444  3
   3429   3428   3431   3434     1  0.0000000  0.6508444  3
   3429   3428   3431   3432     1  0.0000000  0.6508444  3
   3429   3428   3431   3433     1  0.0000000  0.6508444  3
   3430   3428   3431   3434     1  0.0000000  0.6508444  3
   3430   3428   3431   3432     1  0.0000000  0.6508444  3
   3430   3428   3431   3433     1  0.0000000  0.6508444  3
   3431   3434   3437   3459     1  0.0000000  0.6508444  3
   3432   3431   3434   3437     1  0.0000000  0.6508444  3
   3432   3431   3434   3435     1  0.0000000  0.6508444  3
   3432   3431   3434   3436     1  0.0000000  0.6508444  3
   3432   3431   3428   3458     1  0.0000000  1.0460000  1
   3432   3431   3428   3458     1  0.0000000  0.0000000  3
   3433   3431   3434   3437     1  0.0000000  0.6508444  3
   3433   3431   3434   3435     1  0.0000000  0.6508444  3
   3433   3431   3434   3436     1  0.0000000  0.6508444  3
   3433   3431   3428   3458     1  0.0000000  1.0460000  1
   3433   3431   3428   3458     1  0.0000000  0.0000000  3
   3434   3437   3438   3439     1  0.0000000  0.6508444  3
   3434   3437   3438   3440     1  0.0000000  0.6508444  3
   3434   3437   3448   3449     1  0.0000000  0.6508444  3
   3434   3437   3448   3450     1  0.0000000  0.6508444  3
   3435   3434   3437   3438     1  0.0000000  0.6508444  3
   3435   3434   3437   3448     1  0.0000000  0.6508444  3
   3435   3434   3437   3459     1  0.0000000  0.6508444  3
   3436   3434   3437   3438     1  0.0000000  0.6508444  3
   3436   3434   3437   3448     1  0.0000000  0.6508444  3
   3436   3434   3437   3459     1  0.0000000  0.6508444  3
   3437   3438   3441   3442     1  0.0000000  0.6508444  3
   3437   3438   3441   3443     1  0.0000000  0.6508444  3
   3437   3448   3451   3452     1  0.0000000  0.6508444  3
   3437   3448   3451   3453     1  0.0000000  0.6508444  3
   3438   3437   3448   3449     1  0.0000000  0.6508444  3
   3438   3437   3448   3450     1  0.0000000  0.6508444  3
   3439   3438   3441   3444     1  0.0000000  0.6508444  3
   3439   3438   3441   3442     1  0.0000000  0.6508444  3
   3439   3438   3441   3443     1  0.0000000  0.6508444  3
   3439   3438   3437   3448     1  0.0000000  0.6508444  3
   3439   3438   3437   3459     1  0.0000000  0.6508444  3
   3440   3438   3441   3444     1  0.0000000  0.6508444  3
   3440   3438   3441   3442     1  0.0000000  0.6508444  3
   3440   3438   3441   3443     1  0.0000000  0.6508444  3
   3440   3438   3437   3448     1  0.0000000  0.6508444  3
   3440   3438   3437   3459     1  0.0000000  0.6508444  3
   3441   3444   3446   3447     1  180.0000771  9.6232000  2
   3441   3438   3437   3459     1  0.0000000  0.6508444  3
   3442   3441   3444   3445     1  0.0000000  3.3472000  1
   3442   3441   3444   3445     1  0.0000000  0.0000000  2
   3442   3441   3444   3445     1  180.0000771  0.3347200  3
   3442   3441   3444   3446     1  180.0000771  0.0000000  2
   3443   3441   3444   3445     1  0.0000000  3.3472000  1
   3443   3441   3444   3445     1  0.0000000  0.0000000  2
   3443   3441   3444   3445     1  180.0000771  0.3347200  3
   3443   3441   3444   3446     1  180.0000771  0.0000000  2
   3445   3444   3446   3447     1  0.0000000  7.9496000  1
   3445   3444   3446   3447     1  180.0000771  9.6232000  2
   3449   3448   3451   3454     1  0.0000000  0.6508444  3
   3449   3448   3451   3452     1  0.0000000  0.6508444  3
   3449   3448   3451   3453     1  0.0000000  0.6508444  3
   3449   3448   3437   3459     1  0.0000000  0.6508444  3
   3450   3448   3451   3454     1  0.0000000  0.6508444  3
   3450   3448   3451   3452     1  0.0000000  0.6508444  3
   3450   3448   3451   3453     1  0.0000000  0.6508444  3
   3450   3448   3437   3459     1  0.0000000  0.6508444  3
   3451   3454   3456   3457     1  180.0000771  9.6232000  2
   3451   3448   3437   3459     1  0.0000000  0.6508444  3
   3452   3451   3454   3455     1  0.0000000  3.3472000  1
   3452   3451   3454   3455     1  0.0000000  0.0000000  2
   3452   3451   3454   3455     1  180.0000771  0.3347200  3
   3452   3451   3454   3456     1  180.0000771  0.0000000  2
   3453   3451   3454   3455     1  0.0000000  3.3472000  1
   3453   3451   3454   3455     1  0.0000000  0.0000000  2
   3453   3451   3454   3455     1  180.0000771  0.3347200  3
   3453   3451   3454   3456     1  180.0000771  0.0000000  2
   3455   3454   3456   3457     1  0.0000000  7.9496000  1
   3455   3454   3456   3457     1  180.0000771  9.6232000  2
   3460   3463   3466   3467     1  0.0000000  0.6508444  3
   3460   3463   3466   3468     1  0.0000000  0.6508444  3
   3461   3460   3463   3466     1  0.0000000  0.6508444  3
   3461   3460   3463   3464     1  0.0000000  0.6508444  3
   3461   3460   3463   3465     1  0.0000000  0.6508444  3
   3462   3460   3463   3466     1  0.0000000  0.6508444  3
   3462   3460   3463   3464     1  0.0000000  0.6508444  3
   3462   3460   3463   3465     1  0.0000000  0.6508444  3
   3463   3466   3469   3491     1  0.0000000  0.6508444  3
   3464   3463   3460   3490     1  0.0000000  1.0460000  1
   3464   3463   3460   3490     1  0.0000000  0.0000000  3
   3464   3463   3466   3469     1  0.0000000  0.6508444  3
   3464   3463   3466   3467     1  0.0000000  0.6508444  3
   3464   3463   3466   3468     1  0.0000000  0.6508444  3
   3465   3463   3460   3490     1  0.0000000  1.0460000  1
   3465   3463   3460   3490     1  0.0000000  0.0000000  3
   3465   3463   3466   3469     1  0.0000000  0.6508444  3
   3465   3463   3466   3467     1  0.0000000  0.6508444  3
   3465   3463   3466   3468     1  0.0000000  0.6508444  3
   3466   3469   3470   3471     1  0.0000000  0.6508444  3
   3466   3469   3470   3472     1  0.0000000  0.6508444  3
   3466   3469   3480   3481     1  0.0000000  0.6508444  3
   3466   3469   3480   3482     1  0.0000000  0.6508444  3
   3467   3466   3469   3470     1  0.0000000  0.6508444  3
   3467   3466   3469   3480     1  0.0000000  0.6508444  3
   3467   3466   3469   3491     1  0.0000000  0.6508444  3
   3468   3466   3469   3470     1  0.0000000  0.6508444  3
   3468   3466   3469   3480     1  0.0000000  0.6508444  3
   3468   3466   3469   3491     1  0.0000000  0.6508444  3
   3469   3470   3473   3474     1  0.0000000  0.6508444  3
   3469   3470   3473   3475     1  0.0000000  0.6508444  3
   3469   3480   3483   3484     1  0.0000000  0.6508444  3
   3469   3480   3483   3485     1  0.0000000  0.6508444  3
   3470   3469   3480   3481     1  0.0000000  0.6508444  3
   3470   3469   3480   3482     1  0.0000000  0.6508444  3
   3471   3470   3469   3480     1  0.0000000  0.6508444  3
   3471   3470   3469   3491     1  0.0000000  0.6508444  3
   3471   3470   3473   3476     1  0.0000000  0.6508444  3
   3471   3470   3473   3474     1  0.0000000  0.6508444  3
   3471   3470   3473   3475     1  0.0000000  0.6508444  3
   3472   3470   3469   3480     1  0.0000000  0.6508444  3
   3472   3470   3469   3491     1  0.0000000  0.6508444  3
   3472   3470   3473   3476     1  0.0000000  0.6508444  3
   3472   3470   3473   3474     1  0.0000000  0.6508444  3
   3472   3470   3473   3475     1  0.0000000  0.6508444  3
   3473   3470   3469   3491     1  0.0000000  0.6508444  3
   3473   3476   3478   3479     1  180.0000771  9.6232000  2
   3474   3473   3476   3477     1  0.0000000  3.3472000  1
   3474   3473   3476   3477     1  0.0000000  0.0000000  2
   3474   3473   3476   3477     1  180.0000771  0.3347200  3
   3474   3473   3476   3478     1  180.0000771  0.0000000  2
   3475   3473   3476   3477     1  0.0000000  3.3472000  1
   3475   3473   3476   3477     1  0.0000000  0.0000000  2
   3475   3473   3476   3477     1  180.0000771  0.3347200  3
   3475   3473   3476   3478     1  180.0000771  0.0000000  2
   3477   3476   3478   3479     1  0.0000000  7.9496000  1
   3477   3476   3478   3479     1  180.0000771  9.6232000  2
   3481   3480   3469   3491     1  0.0000000  0.6508444  3
   3481   3480   3483   3486     1  0.0000000  0.6508444  3
   3481   3480   3483   3484     1  0.0000000  0.6508444  3
   3481   3480   3483   3485     1  0.0000000  0.6508444  3
   3482   3480   3469   3491     1  0.0000000  0.6508444  3
   3482   3480   3483   3486     1  0.0000000  0.6508444  3
   3482   3480   3483   3484     1  0.0000000  0.6508444  3
   3482   3480   3483   3485     1  0.0000000  0.6508444  3
   3483   3480   3469   3491     1  0.0000000  0.6508444  3
   3483   3486   3488   3489     1  180.0000771  9.6232000  2
   3484   3483   3486   3487     1  0.0000000  3.3472000  1
   3484   3483   3486   3487     1  0.0000000  0.0000000  2
   3484   3483   3486   3487     1  180.0000771  0.3347200  3
   3484   3483   3486   3488     1  180.0000771  0.0000000  2
   3485   3483   3486   3487     1  0.0000000  3.3472000  1
   3485   3483   3486   3487     1  0.0000000  0.0000000  2
   3485   3483   3486   3487     1  180.0000771  0.3347200  3
   3485   3483   3486   3488     1  180.0000771  0.0000000  2
   3487   3486   3488   3489     1  0.0000000  7.9496000  1
   3487   3486   3488   3489     1  180.0000771  9.6232000  2
   3492   3495   3498   3499     1  0.0000000  0.6508444  3
   3492   3495   3498   3500     1  0.0000000  0.6508444  3
   3493   3492   3495   3498     1  0.0000000  0.6508444  3
   3493   3492   3495   3496     1  0.0000000  0.6508444  3
   3493   3492   3495   3497     1  0.0000000  0.6508444  3
   3494   3492   3495   3498     1  0.0000000  0.6508444  3
   3494   3492   3495   3496     1  0.0000000  0.6508444  3
   3494   3492   3495   3497     1  0.0000000  0.6508444  3
   3495   3498   3501   3523     1  0.0000000  0.6508444  3
   3496   3495   3498   3501     1  0.0000000  0.6508444  3
   3496   3495   3498   3499     1  0.0000000  0.6508444  3
   3496   3495   3498   3500     1  0.0000000  0.6508444  3
   3496   3495   3492   3522     1  0.0000000  1.0460000  1
   3496   3495   3492   3522     1  0.0000000  0.0000000  3
   3497   3495   3498   3501     1  0.0000000  0.6508444  3
   3497   3495   3498   3499     1  0.0000000  0.6508444  3
   3497   3495   3498   3500     1  0.0000000  0.6508444  3
   3497   3495   3492   3522     1  0.0000000  1.0460000  1
   3497   3495   3492   3522     1  0.0000000  0.0000000  3
   3498   3501   3502   3503     1  0.0000000  0.6508444  3
   3498   3501   3502   3504     1  0.0000000  0.6508444  3
   3498   3501   3512   3513     1  0.0000000  0.6508444  3
   3498   3501   3512   3514     1  0.0000000  0.6508444  3
   3499   3498   3501   3502     1  0.0000000  0.6508444  3
   3499   3498   3501   3512     1  0.0000000  0.6508444  3
   3499   3498   3501   3523     1  0.0000000  0.6508444  3
   3500   3498   3501   3502     1  0.0000000  0.6508444  3
   3500   3498   3501   3512     1  0.0000000  0.6508444  3
   3500   3498   3501   3523     1  0.0000000  0.6508444  3
   3501   3502   3505   3506     1  0.0000000  0.6508444  3
   3501   3502   3505   3507     1  0.0000000  0.6508444  3
   3501   3512   3515   3516     1  0.0000000  0.6508444  3
   3501   3512   3515   3517     1  0.0000000  0.6508444  3
   3502   3501   3512   3513     1  0.0000000  0.6508444  3
   3502   3501   3512   3514     1  0.0000000  0.6508444  3
   3503   3502   3505   3508     1  0.0000000  0.6508444  3
   3503   3502   3505   3506     1  0.0000000  0.6508444  3
   3503   3502   3505   3507     1  0.0000000  0.6508444  3
   3503   3502   3501   3512     1  0.0000000  0.6508444  3
   3503   3502   3501   3523     1  0.0000000  0.6508444  3
   3504   3502   3505   3508     1  0.0000000  0.6508444  3
   3504   3502   3505   3506     1  0.0000000  0.6508444  3
   3504   3502   3505   3507     1  0.0000000  0.6508444  3
   3504   3502   3501   3512     1  0.0000000  0.6508444  3
   3504   3502   3501   3523     1  0.0000000  0.6508444  3
   3505   3508   3510   3511     1  180.0000771  9.6232000  2
   3505   3502   3501   3523     1  0.0000000  0.6508444  3
   3506   3505   3508   3509     1  0.0000000  3.3472000  1
   3506   3505   3508   3509     1  0.0000000  0.0000000  2
   3506   3505   3508   3509     1  180.0000771  0.3347200  3
   3506   3505   3508   3510     1  180.0000771  0.0000000  2
   3507   3505   3508   3509     1  0.0000000  3.3472000  1
   3507   3505   3508   3509     1  0.0000000  0.0000000  2
   3507   3505   3508   3509     1  180.0000771  0.3347200  3
   3507   3505   3508   3510     1  180.0000771  0.0000000  2
   3509   3508   3510   3511     1  0.0000000  7.9496000  1
   3509   3508   3510   3511     1  180.0000771  9.6232000  2
   3513   3512   3515   3518     1  0.0000000  0.6508444  3
   3513   3512   3515   3516     1  0.0000000  0.6508444  3
   3513   3512   3515   3517     1  0.0000000  0.6508444  3
   3513   3512   3501   3523     1  0.0000000  0.6508444  3
   3514   3512   3515   3518     1  0.0000000  0.6508444  3
   3514   3512   3515   3516     1  0.0000000  0.6508444  3
   3514   3512   3515   3517     1  0.0000000  0.6508444  3
   3514   3512   3501   3523     1  0.0000000  0.6508444  3
   3515   3518   3520   3521     1  180.0000771  9.6232000  2
   3515   3512   3501   3523     1  0.0000000  0.6508444  3
   3516   3515   3518   3519     1  0.0000000  3.3472000  1
   3516   3515   3518   3519     1  0.0000000  0.0000000  2
   3516   3515   3518   3519     1  180.0000771  0.3347200  3
   3516   3515   3518   3520     1  180.0000771  0.0000000  2
   3517   3515   3518   3519     1  0.0000000  3.3472000  1
   3517   3515   3518   3519     1  0.0000000  0.0000000  2
   3517   3515   3518   3519     1  180.0000771  0.3347200  3
   3517   3515   3518   3520     1  180.0000771  0.0000000  2
   3519   3518   3520   3521     1  0.0000000  7.9496000  1
   3519   3518   3520   3521     1  180.0000771  9.6232000  2
   3524   3527   3530   3531     1  0.0000000  0.6508444  3
   3524   3527   3530   3532     1  0.0000000  0.6508444  3
   3525   3524   3527   3530     1  0.0000000  0.6508444  3
   3525   3524   3527   3528     1  0.0000000  0.6508444  3
   3525   3524   3527   3529     1  0.0000000  0.6508444  3
   3526   3524   3527   3530     1  0.0000000  0.6508444  3
   3526   3524   3527   3528     1  0.0000000  0.6508444  3
   3526   3524   3527   3529     1  0.0000000  0.6508444  3
   3527   3530   3533   3555     1  0.0000000  0.6508444  3
   3528   3527   3524   3554     1  0.0000000  1.0460000  1
   3528   3527   3524   3554     1  0.0000000  0.0000000  3
   3528   3527   3530   3533     1  0.0000000  0.6508444  3
   3528   3527   3530   3531     1  0.0000000  0.6508444  3
   3528   3527   3530   3532     1  0.0000000  0.6508444  3
   3529   3527   3524   3554     1  0.0000000  1.0460000  1
   3529   3527   3524   3554     1  0.0000000  0.0000000  3
   3529   3527   3530   3533     1  0.0000000  0.6508444  3
   3529   3527   3530   3531     1  0.0000000  0.6508444  3
   3529   3527   3530   3532     1  0.0000000  0.6508444  3
   3530   3533   3534   3535     1  0.0000000  0.6508444  3
   3530   3533   3534   3536     1  0.0000000  0.6508444  3
   3530   3533   3544   3545     1  0.0000000  0.6508444  3
   3530   3533   3544   3546     1  0.0000000  0.6508444  3
   3531   3530   3533   3534     1  0.0000000  0.6508444  3
   3531   3530   3533   3544     1  0.0000000  0.6508444  3
   3531   3530   3533   3555     1  0.0000000  0.6508444  3
   3532   3530   3533   3534     1  0.0000000  0.6508444  3
   3532   3530   3533   3544     1  0.0000000  0.6508444  3
   3532   3530   3533   3555     1  0.0000000  0.6508444  3
   3533   3534   3537   3538     1  0.0000000  0.6508444  3
   3533   3534   3537   3539     1  0.0000000  0.6508444  3
   3533   3544   3547   3548     1  0.0000000  0.6508444  3
   3533   3544   3547   3549     1  0.0000000  0.6508444  3
   3534   3533   3544   3545     1  0.0000000  0.6508444  3
   3534   3533   3544   3546     1  0.0000000  0.6508444  3
   3535   3534   3533   3544     1  0.0000000  0.6508444  3
   3535   3534   3533   3555     1  0.0000000  0.6508444  3
   3535   3534   3537   3540     1  0.0000000  0.6508444  3
   3535   3534   3537   3538     1  0.0000000  0.6508444  3
   3535   3534   3537   3539     1  0.0000000  0.6508444  3
   3536   3534   3533   3544     1  0.0000000  0.6508444  3
   3536   3534   3533   3555     1  0.0000000  0.6508444  3
   3536   3534   3537   3540     1  0.0000000  0.6508444  3
   3536   3534   3537   3538     1  0.0000000  0.6508444  3
   3536   3534   3537   3539     1  0.0000000  0.6508444  3
   3537   3534   3533   3555     1  0.0000000  0.6508444  3
   3537   3540   3542   3543     1  180.0000771  9.6232000  2
   3538   3537   3540   3541     1  0.0000000  3.3472000  1
   3538   3537   3540   3541     1  0.0000000  0.0000000  2
   3538   3537   3540   3541     1  180.0000771  0.3347200  3
   3538   3537   3540   3542     1  180.0000771  0.0000000  2
   3539   3537   3540   3541     1  0.0000000  3.3472000  1
   3539   3537   3540   3541     1  0.0000000  0.0000000  2
   3539   3537   3540   3541     1  180.0000771  0.3347200  3
   3539   3537   3540   3542     1  180.0000771  0.0000000  2
   3541   3540   3542   3543     1  0.0000000  7.9496000  1
   3541   3540   3542   3543     1  180.0000771  9.6232000  2
   3545   3544   3533   3555     1  0.0000000  0.6508444  3
   3545   3544   3547   3550     1  0.0000000  0.6508444  3
   3545   3544   3547   3548     1  0.0000000  0.6508444  3
   3545   3544   3547   3549     1  0.0000000  0.6508444  3
   3546   3544   3533   3555     1  0.0000000  0.6508444  3
   3546   3544   3547   3550     1  0.0000000  0.6508444  3
   3546   3544   3547   3548     1  0.0000000  0.6508444  3
   3546   3544   3547   3549     1  0.0000000  0.6508444  3
   3547   3544   3533   3555     1  0.0000000  0.6508444  3
   3547   3550   3552   3553     1  180.0000771  9.6232000  2
   3548   3547   3550   3551     1  0.0000000  3.3472000  1
   3548   3547   3550   3551     1  0.0000000  0.0000000  2
   3548   3547   3550   3551     1  180.0000771  0.3347200  3
   3548   3547   3550   3552     1  180.0000771  0.0000000  2
   3549   3547   3550   3551     1  0.0000000  3.3472000  1
   3549   3547   3550   3551     1  0.0000000  0.0000000  2
   3549   3547   3550   3551     1  180.0000771  0.3347200  3
   3549   3547   3550   3552     1  180.0000771  0.0000000  2
   3551   3550   3552   3553     1  0.0000000  7.9496000  1
   3551   3550   3552   3553     1  180.0000771  9.6232000  2
   3556   3559   3562   3563     1  0.0000000  0.6508444  3
   3556   3559   3562   3564     1  0.0000000  0.6508444  3
   3557   3556   3559   3562     1  0.0000000  0.6508444  3
   3557   3556   3559   3560     1  0.0000000  0.6508444  3
   3557   3556   3559   3561     1  0.0000000  0.6508444  3
   3558   3556   3559   3562     1  0.0000000  0.6508444  3
   3558   3556   3559   3560     1  0.0000000  0.6508444  3
   3558   3556   3559   3561     1  0.0000000  0.6508444  3
   3559   3562   3565   3587     1  0.0000000  0.6508444  3
   3560   3559   3562   3565     1  0.0000000  0.6508444  3
   3560   3559   3562   3563     1  0.0000000  0.6508444  3
   3560   3559   3562   3564     1  0.0000000  0.6508444  3
   3560   3559   3556   3586     1  0.0000000  1.0460000  1
   3560   3559   3556   3586     1  0.0000000  0.0000000  3
   3561   3559   3562   3565     1  0.0000000  0.6508444  3
   3561   3559   3562   3563     1  0.0000000  0.6508444  3
   3561   3559   3562   3564     1  0.0000000  0.6508444  3
   3561   3559   3556   3586     1  0.0000000  1.0460000  1
   3561   3559   3556   3586     1  0.0000000  0.0000000  3
   3562   3565   3566   3567     1  0.0000000  0.6508444  3
   3562   3565   3566   3568     1  0.0000000  0.6508444  3
   3562   3565   3576   3577     1  0.0000000  0.6508444  3
   3562   3565   3576   3578     1  0.0000000  0.6508444  3
   3563   3562   3565   3566     1  0.0000000  0.6508444  3
   3563   3562   3565   3576     1  0.0000000  0.6508444  3
   3563   3562   3565   3587     1  0.0000000  0.6508444  3
   3564   3562   3565   3566     1  0.0000000  0.6508444  3
   3564   3562   3565   3576     1  0.0000000  0.6508444  3
   3564   3562   3565   3587     1  0.0000000  0.6508444  3
   3565   3566   3569   3570     1  0.0000000  0.6508444  3
   3565   3566   3569   3571     1  0.0000000  0.6508444  3
   3565   3576   3579   3580     1  0.0000000  0.6508444  3
   3565   3576   3579   3581     1  0.0000000  0.6508444  3
   3566   3565   3576   3577     1  0.0000000  0.6508444  3
   3566   3565   3576   3578     1  0.0000000  0.6508444  3
   3567   3566   3569   3572     1  0.0000000  0.6508444  3
   3567   3566   3569   3570     1  0.0000000  0.6508444  3
   3567   3566   3569   3571     1  0.0000000  0.6508444  3
   3567   3566   3565   3576     1  0.0000000  0.6508444  3
   3567   3566   3565   3587     1  0.0000000  0.6508444  3
   3568   3566   3569   3572     1  0.0000000  0.6508444  3
   3568   3566   3569   3570     1  0.0000000  0.6508444  3
   3568   3566   3569   3571     1  0.0000000  0.6508444  3
   3568   3566   3565   3576     1  0.0000000  0.6508444  3
   3568   3566   3565   3587     1  0.0000000  0.6508444  3
   3569   3572   3574   3575     1  180.0000771  9.6232000  2
   3569   3566   3565   3587     1  0.0000000  0.6508444  3
   3570   3569   3572   3573     1  0.0000000  3.3472000  1
   3570   3569   3572   3573     1  0.0000000  0.0000000  2
   3570   3569   3572   3573     1  180.0000771  0.3347200  3
   3570   3569   3572   3574     1  180.0000771  0.0000000  2
   3571   3569   3572   3573     1  0.0000000  3.3472000  1
   3571   3569   3572   3573     1  0.0000000  0.0000000  2
   3571   3569   3572   3573     1  180.0000771  0.3347200  3
   3571   3569   3572   3574     1  180.0000771  0.0000000  2
   3573   3572   3574   3575     1  0.0000000  7.9496000  1
   3573   3572   3574   3575     1  180.0000771  9.6232000  2
   3577   3576   3579   3582     1  0.0000000  0.6508444  3
   3577   3576   3579   3580     1  0.0000000  0.6508444  3
   3577   3576   3579   3581     1  0.0000000  0.6508444  3
   3577   3576   3565   3587     1  0.0000000  0.6508444  3
   3578   3576   3579   3582     1  0.0000000  0.6508444  3
   3578   3576   3579   3580     1  0.0000000  0.6508444  3
   3578   3576   3579   3581     1  0.0000000  0.6508444  3
   3578   3576   3565   3587     1  0.0000000  0.6508444  3
   3579   3582   3584   3585     1  180.0000771  9.6232000  2
   3579   3576   3565   3587     1  0.0000000  0.6508444  3
   3580   3579   3582   3583     1  0.0000000  3.3472000  1
   3580   3579   3582   3583     1  0.0000000  0.0000000  2
   3580   3579   3582   3583     1  180.0000771  0.3347200  3
   3580   3579   3582   3584     1  180.0000771  0.0000000  2
   3581   3579   3582   3583     1  0.0000000  3.3472000  1
   3581   3579   3582   3583     1  0.0000000  0.0000000  2
   3581   3579   3582   3583     1  180.0000771  0.3347200  3
   3581   3579   3582   3584     1  180.0000771  0.0000000  2
   3583   3582   3584   3585     1  0.0000000  7.9496000  1
   3583   3582   3584   3585     1  180.0000771  9.6232000  2
   3588   3591   3594   3595     1  0.0000000  0.6508444  3
   3588   3591   3594   3596     1  0.0000000  0.6508444  3
   3589   3588   3591   3594     1  0.0000000  0.6508444  3
   3589   3588   3591   3592     1  0.0000000  0.6508444  3
   3589   3588   3591   3593     1  0.0000000  0.6508444  3
   3590   3588   3591   3594     1  0.0000000  0.6508444  3
   3590   3588   3591   3592     1  0.0000000  0.6508444  3
   3590   3588   3591   3593     1  0.0000000  0.6508444  3
   3591   3594   3597   3619     1  0.0000000  0.6508444  3
   3592   3591   3588   3618     1  0.0000000  1.0460000  1
   3592   3591   3588   3618     1  0.0000000  0.0000000  3
   3592   3591   3594   3597     1  0.0000000  0.6508444  3
   3592   3591   3594   3595     1  0.0000000  0.6508444  3
   3592   3591   3594   3596     1  0.0000000  0.6508444  3
   3593   3591   3588   3618     1  0.0000000  1.0460000  1
   3593   3591   3588   3618     1  0.0000000  0.0000000  3
   3593   3591   3594   3597     1  0.0000000  0.6508444  3
   3593   3591   3594   3595     1  0.0000000  0.6508444  3
   3593   3591   3594   3596     1  0.0000000  0.6508444  3
   3594   3597   3598   3599     1  0.0000000  0.6508444  3
   3594   3597   3598   3600     1  0.0000000  0.6508444  3
   3594   3597   3608   3609     1  0.0000000  0.6508444  3
   3594   3597   3608   3610     1  0.0000000  0.6508444  3
   3595   3594   3597   3598     1  0.0000000  0.6508444  3
   3595   3594   3597   3608     1  0.0000000  0.6508444  3
   3595   3594   3597   3619     1  0.0000000  0.6508444  3
   3596   3594   3597   3598     1  0.0000000  0.6508444  3
   3596   3594   3597   3608     1  0.0000000  0.6508444  3
   3596   3594   3597   3619     1  0.0000000  0.6508444  3
   3597   3598   3601   3602     1  0.0000000  0.6508444  3
   3597   3598   3601   3603     1  0.0000000  0.6508444  3
   3597   3608   3611   3612     1  0.0000000  0.6508444  3
   3597   3608   3611   3613     1  0.0000000  0.6508444  3
   3598   3597   3608   3609     1  0.0000000  0.6508444  3
   3598   3597   3608   3610     1  0.0000000  0.6508444  3
   3599   3598   3597   3608     1  0.0000000  0.6508444  3
   3599   3598   3597   3619     1  0.0000000  0.6508444  3
   3599   3598   3601   3604     1  0.0000000  0.6508444  3
   3599   3598   3601   3602     1  0.0000000  0.6508444  3
   3599   3598   3601   3603     1  0.0000000  0.6508444  3
   3600   3598   3597   3608     1  0.0000000  0.6508444  3
   3600   3598   3597   3619     1  0.0000000  0.6508444  3
   3600   3598   3601   3604     1  0.0000000  0.6508444  3
   3600   3598   3601   3602     1  0.0000000  0.6508444  3
   3600   3598   3601   3603     1  0.0000000  0.6508444  3
   3601   3598   3597   3619     1  0.0000000  0.6508444  3
   3601   3604   3606   3607     1  180.0000771  9.6232000  2
   3602   3601   3604   3605     1  0.0000000  3.3472000  1
   3602   3601   3604   3605     1  0.0000000  0.0000000  2
   3602   3601   3604   3605     1  180.0000771  0.3347200  3
   3602   3601   3604   3606     1  180.0000771  0.0000000  2
   3603   3601   3604   3605     1  0.0000000  3.3472000  1
   3603   3601   3604   3605     1  0.0000000  0.0000000  2
   3603   3601   3604   3605     1  180.0000771  0.3347200  3
   3603   3601   3604   3606     1  180.0000771  0.0000000  2
   3605   3604   3606   3607     1  0.0000000  7.9496000  1
   3605   3604   3606   3607     1  180.0000771  9.6232000  2
   3609   3608   3597   3619     1  0.0000000  0.6508444  3
   3609   3608   3611   3614     1  0.0000000  0.6508444  3
   3609   3608   3611   3612     1  0.0000000  0.6508444  3
   3609   3608   3611   3613     1  0.0000000  0.6508444  3
   3610   3608   3597   3619     1  0.0000000  0.6508444  3
   3610   3608   3611   3614     1  0.0000000  0.6508444  3
   3610   3608   3611   3612     1  0.0000000  0.6508444  3
   3610   3608   3611   3613     1  0.0000000  0.6508444  3
   3611   3608   3597   3619     1  0.0000000  0.6508444  3
   3611   3614   3616   3617     1  180.0000771  9.6232000  2
   3612   3611   3614   3615     1  0.0000000  3.3472000  1
   3612   3611   3614   3615     1  0.0000000  0.0000000  2
   3612   3611   3614   3615     1  180.0000771  0.3347200  3
   3612   3611   3614   3616     1  180.0000771  0.0000000  2
   3613   3611   3614   3615     1  0.0000000  3.3472000  1
   3613   3611   3614   3615     1  0.0000000  0.0000000  2
   3613   3611   3614   3615     1  180.0000771  0.3347200  3
   3613   3611   3614   3616     1  180.0000771  0.0000000  2
   3615   3614   3616   3617     1  0.0000000  7.9496000  1
   3615   3614   3616   3617     1  180.0000771  9.6232000  2
   3620   3623   3626   3627     1  0.0000000  0.6508444  3
   3620   3623   3626   3628     1  0.0000000  0.6508444  3
   3621   3620   3623   3626     1  0.0000000  0.6508444  3
   3621   3620   3623   3624     1  0.0000000  0.6508444  3
   3621   3620   3623   3625     1  0.0000000  0.6508444  3
   3622   3620   3623   3626     1  0.0000000  0.6508444  3
   3622   3620   3623   3624     1  0.0000000  0.6508444  3
   3622   3620   3623   3625     1  0.0000000  0.6508444  3
   3623   3626   3629   3651     1  0.0000000  0.6508444  3
   3624   3623   3626   3629     1  0.0000000  0.6508444  3
   3624   3623   3626   3627     1  0.0000000  0.6508444  3
   3624   3623   3626   3628     1  0.0000000  0.6508444  3
   3624   3623   3620   3650     1  0.0000000  1.0460000  1
   3624   3623   3620   3650     1  0.0000000  0.0000000  3
   3625   3623   3626   3629     1  0.0000000  0.6508444  3
   3625   3623   3626   3627     1  0.0000000  0.6508444  3
   3625   3623   3626   3628     1  0.0000000  0.6508444  3
   3625   3623   3620   3650     1  0.0000000  1.0460000  1
   3625   3623   3620   3650     1  0.0000000  0.0000000  3
   3626   3629   3630   3631     1  0.0000000  0.6508444  3
   3626   3629   3630   3632     1  0.0000000  0.6508444  3
   3626   3629   3640   3641     1  0.0000000  0.6508444  3
   3626   3629   3640   3642     1  0.0000000  0.6508444  3
   3627   3626   3629   3630     1  0.0000000  0.6508444  3
   3627   3626   3629   3640     1  0.0000000  0.6508444  3
   3627   3626   3629   3651     1  0.0000000  0.6508444  3
   3628   3626   3629   3630     1  0.0000000  0.6508444  3
   3628   3626   3629   3640     1  0.0000000  0.6508444  3
   3628   3626   3629   3651     1  0.0000000  0.6508444  3
   3629   3630   3633   3634     1  0.0000000  0.6508444  3
   3629   3630   3633   3635     1  0.0000000  0.6508444  3
   3629   3640   3643   3644     1  0.0000000  0.6508444  3
   3629   3640   3643   3645     1  0.0000000  0.6508444  3
   3630   3629   3640   3641     1  0.0000000  0.6508444  3
   3630   3629   3640   3642     1  0.0000000  0.6508444  3
   3631   3630   3633   3636     1  0.0000000  0.6508444  3
   3631   3630   3633   3634     1  0.0000000  0.6508444  3
   3631   3630   3633   3635     1  0.0000000  0.6508444  3
   3631   3630   3629   3640     1  0.0000000  0.6508444  3
   3631   3630   3629   3651     1  0.0000000  0.6508444  3
   3632   3630   3633   3636     1  0.0000000  0.6508444  3
   3632   3630   3633   3634     1  0.0000000  0.6508444  3
   3632   3630   3633   3635     1  0.0000000  0.6508444  3
   3632   3630   3629   3640     1  0.0000000  0.6508444  3
   3632   3630   3629   3651     1  0.0000000  0.6508444  3
   3633   3636   3638   3639     1  180.0000771  9.6232000  2
   3633   3630   3629   3651     1  0.0000000  0.6508444  3
   3634   3633   3636   3637     1  0.0000000  3.3472000  1
   3634   3633   3636   3637     1  0.0000000  0.0000000  2
   3634   3633   3636   3637     1  180.0000771  0.3347200  3
   3634   3633   3636   3638     1  180.0000771  0.0000000  2
   3635   3633   3636   3637     1  0.0000000  3.3472000  1
   3635   3633   3636   3637     1  0.0000000  0.0000000  2
   3635   3633   3636   3637     1  180.0000771  0.3347200  3
   3635   3633   3636   3638     1  180.0000771  0.0000000  2
   3637   3636   3638   3639     1  0.0000000  7.9496000  1
   3637   3636   3638   3639     1  180.0000771  9.6232000  2
   3641   3640   3643   3646     1  0.0000000  0.6508444  3
   3641   3640   3643   3644     1  0.0000000  0.6508444  3
   3641   3640   3643   3645     1  0.0000000  0.6508444  3
   3641   3640   3629   3651     1  0.0000000  0.6508444  3
   3642   3640   3643   3646     1  0.0000000  0.6508444  3
   3642   3640   3643   3644     1  0.0000000  0.6508444  3
   3642   3640   3643   3645     1  0.0000000  0.6508444  3
   3642   3640   3629   3651     1  0.0000000  0.6508444  3
   3643   3646   3648   3649     1  180.0000771  9.6232000  2
   3643   3640   3629   3651     1  0.0000000  0.6508444  3
   3644   3643   3646   3647     1  0.0000000  3.3472000  1
   3644   3643   3646   3647     1  0.0000000  0.0000000  2
   3644   3643   3646   3647     1  180.0000771  0.3347200  3
   3644   3643   3646   3648     1  180.0000771  0.0000000  2
   3645   3643   3646   3647     1  0.0000000  3.3472000  1
   3645   3643   3646   3647     1  0.0000000  0.0000000  2
   3645   3643   3646   3647     1  180.0000771  0.3347200  3
   3645   3643   3646   3648     1  180.0000771  0.0000000  2
   3647   3646   3648   3649     1  0.0000000  7.9496000  1
   3647   3646   3648   3649     1  180.0000771  9.6232000  2
   3652   3655   3658   3659     1  0.0000000  0.6508444  3
   3652   3655   3658   3660     1  0.0000000  0.6508444  3
   3653   3652   3655   3658     1  0.0000000  0.6508444  3
   3653   3652   3655   3656     1  0.0000000  0.6508444  3
   3653   3652   3655   3657     1  0.0000000  0.6508444  3
   3654   3652   3655   3658     1  0.0000000  0.6508444  3
   3654   3652   3655   3656     1  0.0000000  0.6508444  3
   3654   3652   3655   3657     1  0.0000000  0.6508444  3
   3655   3658   3661   3683     1  0.0000000  0.6508444  3
   3656   3655   3652   3682     1  0.0000000  1.0460000  1
   3656   3655   3652   3682     1  0.0000000  0.0000000  3
   3656   3655   3658   3661     1  0.0000000  0.6508444  3
   3656   3655   3658   3659     1  0.0000000  0.6508444  3
   3656   3655   3658   3660     1  0.0000000  0.6508444  3
   3657   3655   3652   3682     1  0.0000000  1.0460000  1
   3657   3655   3652   3682     1  0.0000000  0.0000000  3
   3657   3655   3658   3661     1  0.0000000  0.6508444  3
   3657   3655   3658   3659     1  0.0000000  0.6508444  3
   3657   3655   3658   3660     1  0.0000000  0.6508444  3
   3658   3661   3662   3663     1  0.0000000  0.6508444  3
   3658   3661   3662   3664     1  0.0000000  0.6508444  3
   3658   3661   3672   3673     1  0.0000000  0.6508444  3
   3658   3661   3672   3674     1  0.0000000  0.6508444  3
   3659   3658   3661   3662     1  0.0000000  0.6508444  3
   3659   3658   3661   3672     1  0.0000000  0.6508444  3
   3659   3658   3661   3683     1  0.0000000  0.6508444  3
   3660   3658   3661   3662     1  0.0000000  0.6508444  3
   3660   3658   3661   3672     1  0.0000000  0.6508444  3
   3660   3658   3661   3683     1  0.0000000  0.6508444  3
   3661   3662   3665   3666     1  0.0000000  0.6508444  3
   3661   3662   3665   3667     1  0.0000000  0.6508444  3
   3661   3672   3675   3676     1  0.0000000  0.6508444  3
   3661   3672   3675   3677     1  0.0000000  0.6508444  3
   3662   3661   3672   3673     1  0.0000000  0.6508444  3
   3662   3661   3672   3674     1  0.0000000  0.6508444  3
   3663   3662   3661   3672     1  0.0000000  0.6508444  3
   3663   3662   3661   3683     1  0.0000000  0.6508444  3
   3663   3662   3665   3668     1  0.0000000  0.6508444  3
   3663   3662   3665   3666     1  0.0000000  0.6508444  3
   3663   3662   3665   3667     1  0.0000000  0.6508444  3
   3664   3662   3661   3672     1  0.0000000  0.6508444  3
   3664   3662   3661   3683     1  0.0000000  0.6508444  3
   3664   3662   3665   3668     1  0.0000000  0.6508444  3
   3664   3662   3665   3666     1  0.0000000  0.6508444  3
   3664   3662   3665   3667     1  0.0000000  0.6508444  3
   3665   3662   3661   3683     1  0.0000000  0.6508444  3
   3665   3668   3670   3671     1  180.0000771  9.6232000  2
   3666   3665   3668   3669     1  0.0000000  3.3472000  1
   3666   3665   3668   3669     1  0.0000000  0.0000000  2
   3666   3665   3668   3669     1  180.0000771  0.3347200  3
   3666   3665   3668   3670     1  180.0000771  0.0000000  2
   3667   3665   3668   3669     1  0.0000000  3.3472000  1
   3667   3665   3668   3669     1  0.0000000  0.0000000  2
   3667   3665   3668   3669     1  180.0000771  0.3347200  3
   3667   3665   3668   3670     1  180.0000771  0.0000000  2
   3669   3668   3670   3671     1  0.0000000  7.9496000  1
   3669   3668   3670   3671     1  180.0000771  9.6232000  2
   3673   3672   3661   3683     1  0.0000000  0.6508444  3
   3673   3672   3675   3678     1  0.0000000  0.6508444  3
   3673   3672   3675   3676     1  0.0000000  0.6508444  3
   3673   3672   3675   3677     1  0.0000000  0.6508444  3
   3674   3672   3661   3683     1  0.0000000  0.6508444  3
   3674   3672   3675   3678     1  0.0000000  0.6508444  3
   3674   3672   3675   3676     1  0.0000000  0.6508444  3
   3674   3672   3675   3677     1  0.0000000  0.6508444  3
   3675   3672   3661   3683     1  0.0000000  0.6508444  3
   3675   3678   3680   3681     1  180.0000771  9.6232000  2
   3676   3675   3678   3679     1  0.0000000  3.3472000  1
   3676   3675   3678   3679     1  0.0000000  0.0000000  2
   3676   3675   3678   3679     1  180.0000771  0.3347200  3
   3676   3675   3678   3680     1  180.0000771  0.0000000  2
   3677   3675   3678   3679     1  0.0000000  3.3472000  1
   3677   3675   3678   3679     1  0.0000000  0.0000000  2
   3677   3675   3678   3679     1  180.0000771  0.3347200  3
   3677   3675   3678   3680     1  180.0000771  0.0000000  2
   3679   3678   3680   3681     1  0.0000000  7.9496000  1
   3679   3678   3680   3681     1  180.0000771  9.6232000  2
   3684   3687   3690   3691     1  0.0000000  0.6508444  3
   3684   3687   3690   3692     1  0.0000000  0.6508444  3
   3685   3684   3687   3690     1  0.0000000  0.6508444  3
   3685   3684   3687   3688     1  0.0000000  0.6508444  3
   3685   3684   3687   3689     1  0.0000000  0.6508444  3
   3686   3684   3687   3690     1  0.0000000  0.6508444  3
   3686   3684   3687   3688     1  0.0000000  0.6508444  3
   3686   3684   3687   3689     1  0.0000000  0.6508444  3
   3687   3690   3693   3715     1  0.0000000  0.6508444  3
   3688   3687   3690   3693     1  0.0000000  0.6508444  3
   3688   3687   3690   3691     1  0.0000000  0.6508444  3
   3688   3687   3690   3692     1  0.0000000  0.6508444  3
   3688   3687   3684   3714     1  0.0000000  1.0460000  1
   3688   3687   3684   3714     1  0.0000000  0.0000000  3
   3689   3687   3690   3693     1  0.0000000  0.6508444  3
   3689   3687   3690   3691     1  0.0000000  0.6508444  3
   3689   3687   3690   3692     1  0.0000000  0.6508444  3
   3689   3687   3684   3714     1  0.0000000  1.0460000  1
   3689   3687   3684   3714     1  0.0000000  0.0000000  3
   3690   3693   3694   3695     1  0.0000000  0.6508444  3
   3690   3693   3694   3696     1  0.0000000  0.6508444  3
   3690   3693   3704   3705     1  0.0000000  0.6508444  3
   3690   3693   3704   3706     1  0.0000000  0.6508444  3
   3691   3690   3693   3694     1  0.0000000  0.6508444  3
   3691   3690   3693   3704     1  0.0000000  0.6508444  3
   3691   3690   3693   3715     1  0.0000000  0.6508444  3
   3692   3690   3693   3694     1  0.0000000  0.6508444  3
   3692   3690   3693   3704     1  0.0000000  0.6508444  3
   3692   3690   3693   3715     1  0.0000000  0.6508444  3
   3693   3694   3697   3698     1  0.0000000  0.6508444  3
   3693   3694   3697   3699     1  0.0000000  0.6508444  3
   3693   3704   3707   3708     1  0.0000000  0.6508444  3
   3693   3704   3707   3709     1  0.0000000  0.6508444  3
   3694   3693   3704   3705     1  0.0000000  0.6508444  3
   3694   3693   3704   3706     1  0.0000000  0.6508444  3
   3695   3694   3697   3700     1  0.0000000  0.6508444  3
   3695   3694   3697   3698     1  0.0000000  0.6508444  3
   3695   3694   3697   3699     1  0.0000000  0.6508444  3
   3695   3694   3693   3704     1  0.0000000  0.6508444  3
   3695   3694   3693   3715     1  0.0000000  0.6508444  3
   3696   3694   3697   3700     1  0.0000000  0.6508444  3
   3696   3694   3697   3698     1  0.0000000  0.6508444  3
   3696   3694   3697   3699     1  0.0000000  0.6508444  3
   3696   3694   3693   3704     1  0.0000000  0.6508444  3
   3696   3694   3693   3715     1  0.0000000  0.6508444  3
   3697   3700   3702   3703     1  180.0000771  9.6232000  2
   3697   3694   3693   3715     1  0.0000000  0.6508444  3
   3698   3697   3700   3701     1  0.0000000  3.3472000  1
   3698   3697   3700   3701     1  0.0000000  0.0000000  2
   3698   3697   3700   3701     1  180.0000771  0.3347200  3
   3698   3697   3700   3702     1  180.0000771  0.0000000  2
   3699   3697   3700   3701     1  0.0000000  3.3472000  1
   3699   3697   3700   3701     1  0.0000000  0.0000000  2
   3699   3697   3700   3701     1  180.0000771  0.3347200  3
   3699   3697   3700   3702     1  180.0000771  0.0000000  2
   3701   3700   3702   3703     1  0.0000000  7.9496000  1
   3701   3700   3702   3703     1  180.0000771  9.6232000  2
   3705   3704   3707   3710     1  0.0000000  0.6508444  3
   3705   3704   3707   3708     1  0.0000000  0.6508444  3
   3705   3704   3707   3709     1  0.0000000  0.6508444  3
   3705   3704   3693   3715     1  0.0000000  0.6508444  3
   3706   3704   3707   3710     1  0.0000000  0.6508444  3
   3706   3704   3707   3708     1  0.0000000  0.6508444  3
   3706   3704   3707   3709     1  0.0000000  0.6508444  3
   3706   3704   3693   3715     1  0.0000000  0.6508444  3
   3707   3710   3712   3713     1  180.0000771  9.6232000  2
   3707   3704   3693   3715     1  0.0000000  0.6508444  3
   3708   3707   3710   3711     1  0.0000000  3.3472000  1
   3708   3707   3710   3711     1  0.0000000  0.0000000  2
   3708   3707   3710   3711     1  180.0000771  0.3347200  3
   3708   3707   3710   3712     1  180.0000771  0.0000000  2
   3709   3707   3710   3711     1  0.0000000  3.3472000  1
   3709   3707   3710   3711     1  0.0000000  0.0000000  2
   3709   3707   3710   3711     1  180.0000771  0.3347200  3
   3709   3707   3710   3712     1  180.0000771  0.0000000  2
   3711   3710   3712   3713     1  0.0000000  7.9496000  1
   3711   3710   3712   3713     1  180.0000771  9.6232000  2
   3716   3719   3722   3723     1  0.0000000  0.6508444  3
   3716   3719   3722   3724     1  0.0000000  0.6508444  3
   3717   3716   3719   3722     1  0.0000000  0.6508444  3
   3717   3716   3719   3720     1  0.0000000  0.6508444  3
   3717   3716   3719   3721     1  0.0000000  0.6508444  3
   3718   3716   3719   3722     1  0.0000000  0.6508444  3
   3718   3716   3719   3720     1  0.0000000  0.6508444  3
   3718   3716   3719   3721     1  0.0000000  0.6508444  3
   3719   3722   3725   3747     1  0.0000000  0.6508444  3
   3720   3719   3716   3746     1  0.0000000  1.0460000  1
   3720   3719   3716   3746     1  0.0000000  0.0000000  3
   3720   3719   3722   3725     1  0.0000000  0.6508444  3
   3720   3719   3722   3723     1  0.0000000  0.6508444  3
   3720   3719   3722   3724     1  0.0000000  0.6508444  3
   3721   3719   3716   3746     1  0.0000000  1.0460000  1
   3721   3719   3716   3746     1  0.0000000  0.0000000  3
   3721   3719   3722   3725     1  0.0000000  0.6508444  3
   3721   3719   3722   3723     1  0.0000000  0.6508444  3
   3721   3719   3722   3724     1  0.0000000  0.6508444  3
   3722   3725   3726   3727     1  0.0000000  0.6508444  3
   3722   3725   3726   3728     1  0.0000000  0.6508444  3
   3722   3725   3736   3737     1  0.0000000  0.6508444  3
   3722   3725   3736   3738     1  0.0000000  0.6508444  3
   3723   3722   3725   3726     1  0.0000000  0.6508444  3
   3723   3722   3725   3736     1  0.0000000  0.6508444  3
   3723   3722   3725   3747     1  0.0000000  0.6508444  3
   3724   3722   3725   3726     1  0.0000000  0.6508444  3
   3724   3722   3725   3736     1  0.0000000  0.6508444  3
   3724   3722   3725   3747     1  0.0000000  0.6508444  3
   3725   3726   3729   3730     1  0.0000000  0.6508444  3
   3725   3726   3729   3731     1  0.0000000  0.6508444  3
   3725   3736   3739   3740     1  0.0000000  0.6508444  3
   3725   3736   3739   3741     1  0.0000000  0.6508444  3
   3726   3725   3736   3737     1  0.0000000  0.6508444  3
   3726   3725   3736   3738     1  0.0000000  0.6508444  3
   3727   3726   3725   3736     1  0.0000000  0.6508444  3
   3727   3726   3725   3747     1  0.0000000  0.6508444  3
   3727   3726   3729   3732     1  0.0000000  0.6508444  3
   3727   3726   3729   3730     1  0.0000000  0.6508444  3
   3727   3726   3729   3731     1  0.0000000  0.6508444  3
   3728   3726   3725   3736     1  0.0000000  0.6508444  3
   3728   3726   3725   3747     1  0.0000000  0.6508444  3
   3728   3726   3729   3732     1  0.0000000  0.6508444  3
   3728   3726   3729   3730     1  0.0000000  0.6508444  3
   3728   3726   3729   3731     1  0.0000000  0.6508444  3
   3729   3726   3725   3747     1  0.0000000  0.6508444  3
   3729   3732   3734   3735     1  180.0000771  9.6232000  2
   3730   3729   3732   3733     1  0.0000000  3.3472000  1
   3730   3729   3732   3733     1  0.0000000  0.0000000  2
   3730   3729   3732   3733     1  180.0000771  0.3347200  3
   3730   3729   3732   3734     1  180.0000771  0.0000000  2
   3731   3729   3732   3733     1  0.0000000  3.3472000  1
   3731   3729   3732   3733     1  0.0000000  0.0000000  2
   3731   3729   3732   3733     1  180.0000771  0.3347200  3
   3731   3729   3732   3734     1  180.0000771  0.0000000  2
   3733   3732   3734   3735     1  0.0000000  7.9496000  1
   3733   3732   3734   3735     1  180.0000771  9.6232000  2
   3737   3736   3725   3747     1  0.0000000  0.6508444  3
   3737   3736   3739   3742     1  0.0000000  0.6508444  3
   3737   3736   3739   3740     1  0.0000000  0.6508444  3
   3737   3736   3739   3741     1  0.0000000  0.6508444  3
   3738   3736   3725   3747     1  0.0000000  0.6508444  3
   3738   3736   3739   3742     1  0.0000000  0.6508444  3
   3738   3736   3739   3740     1  0.0000000  0.6508444  3
   3738   3736   3739   3741     1  0.0000000  0.6508444  3
   3739   3736   3725   3747     1  0.0000000  0.6508444  3
   3739   3742   3744   3745     1  180.0000771  9.6232000  2
   3740   3739   3742   3743     1  0.0000000  3.3472000  1
   3740   3739   3742   3743     1  0.0000000  0.0000000  2
   3740   3739   3742   3743     1  180.0000771  0.3347200  3
   3740   3739   3742   3744     1  180.0000771  0.0000000  2
   3741   3739   3742   3743     1  0.0000000  3.3472000  1
   3741   3739   3742   3743     1  0.0000000  0.0000000  2
   3741   3739   3742   3743     1  180.0000771  0.3347200  3
   3741   3739   3742   3744     1  180.0000771  0.0000000  2
   3743   3742   3744   3745     1  0.0000000  7.9496000  1
   3743   3742   3744   3745     1  180.0000771  9.6232000  2
   3748   3751   3754   3755     1  0.0000000  0.6508444  3
   3748   3751   3754   3756     1  0.0000000  0.6508444  3
   3749   3748   3751   3754     1  0.0000000  0.6508444  3
   3749   3748   3751   3752     1  0.0000000  0.6508444  3
   3749   3748   3751   3753     1  0.0000000  0.6508444  3
   3750   3748   3751   3754     1  0.0000000  0.6508444  3
   3750   3748   3751   3752     1  0.0000000  0.6508444  3
   3750   3748   3751   3753     1  0.0000000  0.6508444  3
   3751   3754   3757   3779     1  0.0000000  0.6508444  3
   3752   3751   3754   3757     1  0.0000000  0.6508444  3
   3752   3751   3754   3755     1  0.0000000  0.6508444  3
   3752   3751   3754   3756     1  0.0000000  0.6508444  3
   3752   3751   3748   3778     1  0.0000000  1.0460000  1
   3752   3751   3748   3778     1  0.0000000  0.0000000  3
   3753   3751   3754   3757     1  0.0000000  0.6508444  3
   3753   3751   3754   3755     1  0.0000000  0.6508444  3
   3753   3751   3754   3756     1  0.0000000  0.6508444  3
   3753   3751   3748   3778     1  0.0000000  1.0460000  1
   3753   3751   3748   3778     1  0.0000000  0.0000000  3
   3754   3757   3758   3759     1  0.0000000  0.6508444  3
   3754   3757   3758   3760     1  0.0000000  0.6508444  3
   3754   3757   3768   3769     1  0.0000000  0.6508444  3
   3754   3757   3768   3770     1  0.0000000  0.6508444  3
   3755   3754   3757   3758     1  0.0000000  0.6508444  3
   3755   3754   3757   3768     1  0.0000000  0.6508444  3
   3755   3754   3757   3779     1  0.0000000  0.6508444  3
   3756   3754   3757   3758     1  0.0000000  0.6508444  3
   3756   3754   3757   3768     1  0.0000000  0.6508444  3
   3756   3754   3757   3779     1  0.0000000  0.6508444  3
   3757   3758   3761   3762     1  0.0000000  0.6508444  3
   3757   3758   3761   3763     1  0.0000000  0.6508444  3
   3757   3768   3771   3772     1  0.0000000  0.6508444  3
   3757   3768   3771   3773     1  0.0000000  0.6508444  3
   3758   3757   3768   3769     1  0.0000000  0.6508444  3
   3758   3757   3768   3770     1  0.0000000  0.6508444  3
   3759   3758   3761   3764     1  0.0000000  0.6508444  3
   3759   3758   3761   3762     1  0.0000000  0.6508444  3
   3759   3758   3761   3763     1  0.0000000  0.6508444  3
   3759   3758   3757   3768     1  0.0000000  0.6508444  3
   3759   3758   3757   3779     1  0.0000000  0.6508444  3
   3760   3758   3761   3764     1  0.0000000  0.6508444  3
   3760   3758   3761   3762     1  0.0000000  0.6508444  3
   3760   3758   3761   3763     1  0.0000000  0.6508444  3
   3760   3758   3757   3768     1  0.0000000  0.6508444  3
   3760   3758   3757   3779     1  0.0000000  0.6508444  3
   3761   3764   3766   3767     1  180.0000771  9.6232000  2
   3761   3758   3757   3779     1  0.0000000  0.6508444  3
   3762   3761   3764   3765     1  0.0000000  3.3472000  1
   3762   3761   3764   3765     1  0.0000000  0.0000000  2
   3762   3761   3764   3765     1  180.0000771  0.3347200  3
   3762   3761   3764   3766     1  180.0000771  0.0000000  2
   3763   3761   3764   3765     1  0.0000000  3.3472000  1
   3763   3761   3764   3765     1  0.0000000  0.0000000  2
   3763   3761   3764   3765     1  180.0000771  0.3347200  3
   3763   3761   3764   3766     1  180.0000771  0.0000000  2
   3765   3764   3766   3767     1  0.0000000  7.9496000  1
   3765   3764   3766   3767     1  180.0000771  9.6232000  2
   3769   3768   3771   3774     1  0.0000000  0.6508444  3
   3769   3768   3771   3772     1  0.0000000  0.6508444  3
   3769   3768   3771   3773     1  0.0000000  0.6508444  3
   3769   3768   3757   3779     1  0.0000000  0.6508444  3
   3770   3768   3771   3774     1  0.0000000  0.6508444  3
   3770   3768   3771   3772     1  0.0000000  0.6508444  3
   3770   3768   3771   3773     1  0.0000000  0.6508444  3
   3770   3768   3757   3779     1  0.0000000  0.6508444  3
   3771   3774   3776   3777     1  180.0000771  9.6232000  2
   3771   3768   3757   3779     1  0.0000000  0.6508444  3
   3772   3771   3774   3775     1  0.0000000  3.3472000  1
   3772   3771   3774   3775     1  0.0000000  0.0000000  2
   3772   3771   3774   3775     1  180.0000771  0.3347200  3
   3772   3771   3774   3776     1  180.0000771  0.0000000  2
   3773   3771   3774   3775     1  0.0000000  3.3472000  1
   3773   3771   3774   3775     1  0.0000000  0.0000000  2
   3773   3771   3774   3775     1  180.0000771  0.3347200  3
   3773   3771   3774   3776     1  180.0000771  0.0000000  2
   3775   3774   3776   3777     1  0.0000000  7.9496000  1
   3775   3774   3776   3777     1  180.0000771  9.6232000  2
   3780   3783   3786   3787     1  0.0000000  0.6508444  3
   3780   3783   3786   3788     1  0.0000000  0.6508444  3
   3781   3780   3783   3786     1  0.0000000  0.6508444  3
   3781   3780   3783   3784     1  0.0000000  0.6508444  3
   3781   3780   3783   3785     1  0.0000000  0.6508444  3
   3782   3780   3783   3786     1  0.0000000  0.6508444  3
   3782   3780   3783   3784     1  0.0000000  0.6508444  3
   3782   3780   3783   3785     1  0.0000000  0.6508444  3
   3783   3786   3789   3811     1  0.0000000  0.6508444  3
   3784   3783   3780   3810     1  0.0000000  1.0460000  1
   3784   3783   3780   3810     1  0.0000000  0.0000000  3
   3784   3783   3786   3789     1  0.0000000  0.6508444  3
   3784   3783   3786   3787     1  0.0000000  0.6508444  3
   3784   3783   3786   3788     1  0.0000000  0.6508444  3
   3785   3783   3780   3810     1  0.0000000  1.0460000  1
   3785   3783   3780   3810     1  0.0000000  0.0000000  3
   3785   3783   3786   3789     1  0.0000000  0.6508444  3
   3785   3783   3786   3787     1  0.0000000  0.6508444  3
   3785   3783   3786   3788     1  0.0000000  0.6508444  3
   3786   3789   3790   3791     1  0.0000000  0.6508444  3
   3786   3789   3790   3792     1  0.0000000  0.6508444  3
   3786   3789   3800   3801     1  0.0000000  0.6508444  3
   3786   3789   3800   3802     1  0.0000000  0.6508444  3
   3787   3786   3789   3790     1  0.0000000  0.6508444  3
   3787   3786   3789   3800     1  0.0000000  0.6508444  3
   3787   3786   3789   3811     1  0.0000000  0.6508444  3
   3788   3786   3789   3790     1  0.0000000  0.6508444  3
   3788   3786   3789   3800     1  0.0000000  0.6508444  3
   3788   3786   3789   3811     1  0.0000000  0.6508444  3
   3789   3790   3793   3794     1  0.0000000  0.6508444  3
   3789   3790   3793   3795     1  0.0000000  0.6508444  3
   3789   3800   3803   3804     1  0.0000000  0.6508444  3
   3789   3800   3803   3805     1  0.0000000  0.6508444  3
   3790   3789   3800   3801     1  0.0000000  0.6508444  3
   3790   3789   3800   3802     1  0.0000000  0.6508444  3
   3791   3790   3789   3800     1  0.0000000  0.6508444  3
   3791   3790   3789   3811     1  0.0000000  0.6508444  3
   3791   3790   3793   3796     1  0.0000000  0.6508444  3
   3791   3790   3793   3794     1  0.0000000  0.6508444  3
   3791   3790   3793   3795     1  0.0000000  0.6508444  3
   3792   3790   3789   3800     1  0.0000000  0.6508444  3
   3792   3790   3789   3811     1  0.0000000  0.6508444  3
   3792   3790   3793   3796     1  0.0000000  0.6508444  3
   3792   3790   3793   3794     1  0.0000000  0.6508444  3
   3792   3790   3793   3795     1  0.0000000  0.6508444  3
   3793   3790   3789   3811     1  0.0000000  0.6508444  3
   3793   3796   3798   3799     1  180.0000771  9.6232000  2
   3794   3793   3796   3797     1  0.0000000  3.3472000  1
   3794   3793   3796   3797     1  0.0000000  0.0000000  2
   3794   3793   3796   3797     1  180.0000771  0.3347200  3
   3794   3793   3796   3798     1  180.0000771  0.0000000  2
   3795   3793   3796   3797     1  0.0000000  3.3472000  1
   3795   3793   3796   3797     1  0.0000000  0.0000000  2
   3795   3793   3796   3797     1  180.0000771  0.3347200  3
   3795   3793   3796   3798     1  180.0000771  0.0000000  2
   3797   3796   3798   3799     1  0.0000000  7.9496000  1
   3797   3796   3798   3799     1  180.0000771  9.6232000  2
   3801   3800   3789   3811     1  0.0000000  0.6508444  3
   3801   3800   3803   3806     1  0.0000000  0.6508444  3
   3801   3800   3803   3804     1  0.0000000  0.6508444  3
   3801   3800   3803   3805     1  0.0000000  0.6508444  3
   3802   3800   3789   3811     1  0.0000000  0.6508444  3
   3802   3800   3803   3806     1  0.0000000  0.6508444  3
   3802   3800   3803   3804     1  0.0000000  0.6508444  3
   3802   3800   3803   3805     1  0.0000000  0.6508444  3
   3803   3800   3789   3811     1  0.0000000  0.6508444  3
   3803   3806   3808   3809     1  180.0000771  9.6232000  2
   3804   3803   3806   3807     1  0.0000000  3.3472000  1
   3804   3803   3806   3807     1  0.0000000  0.0000000  2
   3804   3803   3806   3807     1  180.0000771  0.3347200  3
   3804   3803   3806   3808     1  180.0000771  0.0000000  2
   3805   3803   3806   3807     1  0.0000000  3.3472000  1
   3805   3803   3806   3807     1  0.0000000  0.0000000  2
   3805   3803   3806   3807     1  180.0000771  0.3347200  3
   3805   3803   3806   3808     1  180.0000771  0.0000000  2
   3807   3806   3808   3809     1  0.0000000  7.9496000  1
   3807   3806   3808   3809     1  180.0000771  9.6232000  2
   3812   3815   3818   3819     1  0.0000000  0.6508444  3
   3812   3815   3818   3820     1  0.0000000  0.6508444  3
   3813   3812   3815   3818     1  0.0000000  0.6508444  3
   3813   3812   3815   3816     1  0.0000000  0.6508444  3
   3813   3812   3815   3817     1  0.0000000  0.6508444  3
   3814   3812   3815   3818     1  0.0000000  0.6508444  3
   3814   3812   3815   3816     1  0.0000000  0.6508444  3
   3814   3812   3815   3817     1  0.0000000  0.6508444  3
   3815   3818   3821   3843     1  0.0000000  0.6508444  3
   3816   3815   3818   3821     1  0.0000000  0.6508444  3
   3816   3815   3818   3819     1  0.0000000  0.6508444  3
   3816   3815   3818   3820     1  0.0000000  0.6508444  3
   3816   3815   3812   3842     1  0.0000000  1.0460000  1
   3816   3815   3812   3842     1  0.0000000  0.0000000  3
   3817   3815   3818   3821     1  0.0000000  0.6508444  3
   3817   3815   3818   3819     1  0.0000000  0.6508444  3
   3817   3815   3818   3820     1  0.0000000  0.6508444  3
   3817   3815   3812   3842     1  0.0000000  1.0460000  1
   3817   3815   3812   3842     1  0.0000000  0.0000000  3
   3818   3821   3822   3823     1  0.0000000  0.6508444  3
   3818   3821   3822   3824     1  0.0000000  0.6508444  3
   3818   3821   3832   3833     1  0.0000000  0.6508444  3
   3818   3821   3832   3834     1  0.0000000  0.6508444  3
   3819   3818   3821   3822     1  0.0000000  0.6508444  3
   3819   3818   3821   3832     1  0.0000000  0.6508444  3
   3819   3818   3821   3843     1  0.0000000  0.6508444  3
   3820   3818   3821   3822     1  0.0000000  0.6508444  3
   3820   3818   3821   3832     1  0.0000000  0.6508444  3
   3820   3818   3821   3843     1  0.0000000  0.6508444  3
   3821   3822   3825   3826     1  0.0000000  0.6508444  3
   3821   3822   3825   3827     1  0.0000000  0.6508444  3
   3821   3832   3835   3836     1  0.0000000  0.6508444  3
   3821   3832   3835   3837     1  0.0000000  0.6508444  3
   3822   3821   3832   3833     1  0.0000000  0.6508444  3
   3822   3821   3832   3834     1  0.0000000  0.6508444  3
   3823   3822   3825   3828     1  0.0000000  0.6508444  3
   3823   3822   3825   3826     1  0.0000000  0.6508444  3
   3823   3822   3825   3827     1  0.0000000  0.6508444  3
   3823   3822   3821   3832     1  0.0000000  0.6508444  3
   3823   3822   3821   3843     1  0.0000000  0.6508444  3
   3824   3822   3825   3828     1  0.0000000  0.6508444  3
   3824   3822   3825   3826     1  0.0000000  0.6508444  3
   3824   3822   3825   3827     1  0.0000000  0.6508444  3
   3824   3822   3821   3832     1  0.0000000  0.6508444  3
   3824   3822   3821   3843     1  0.0000000  0.6508444  3
   3825   3828   3830   3831     1  180.0000771  9.6232000  2
   3825   3822   3821   3843     1  0.0000000  0.6508444  3
   3826   3825   3828   3829     1  0.0000000  3.3472000  1
   3826   3825   3828   3829     1  0.0000000  0.0000000  2
   3826   3825   3828   3829     1  180.0000771  0.3347200  3
   3826   3825   3828   3830     1  180.0000771  0.0000000  2
   3827   3825   3828   3829     1  0.0000000  3.3472000  1
   3827   3825   3828   3829     1  0.0000000  0.0000000  2
   3827   3825   3828   3829     1  180.0000771  0.3347200  3
   3827   3825   3828   3830     1  180.0000771  0.0000000  2
   3829   3828   3830   3831     1  0.0000000  7.9496000  1
   3829   3828   3830   3831     1  180.0000771  9.6232000  2
   3833   3832   3835   3838     1  0.0000000  0.6508444  3
   3833   3832   3835   3836     1  0.0000000  0.6508444  3
   3833   3832   3835   3837     1  0.0000000  0.6508444  3
   3833   3832   3821   3843     1  0.0000000  0.6508444  3
   3834   3832   3835   3838     1  0.0000000  0.6508444  3
   3834   3832   3835   3836     1  0.0000000  0.6508444  3
   3834   3832   3835   3837     1  0.0000000  0.6508444  3
   3834   3832   3821   3843     1  0.0000000  0.6508444  3
   3835   3838   3840   3841     1  180.0000771  9.6232000  2
   3835   3832   3821   3843     1  0.0000000  0.6508444  3
   3836   3835   3838   3839     1  0.0000000  3.3472000  1
   3836   3835   3838   3839     1  0.0000000  0.0000000  2
   3836   3835   3838   3839     1  180.0000771  0.3347200  3
   3836   3835   3838   3840     1  180.0000771  0.0000000  2
   3837   3835   3838   3839     1  0.0000000  3.3472000  1
   3837   3835   3838   3839     1  0.0000000  0.0000000  2
   3837   3835   3838   3839     1  180.0000771  0.3347200  3
   3837   3835   3838   3840     1  180.0000771  0.0000000  2
   3839   3838   3840   3841     1  0.0000000  7.9496000  1
   3839   3838   3840   3841     1  180.0000771  9.6232000  2
   3844   3847   3850   3851     1  0.0000000  0.6508444  3
   3844   3847   3850   3852     1  0.0000000  0.6508444  3
   3845   3844   3847   3850     1  0.0000000  0.6508444  3
   3845   3844   3847   3848     1  0.0000000  0.6508444  3
   3845   3844   3847   3849     1  0.0000000  0.6508444  3
   3846   3844   3847   3850     1  0.0000000  0.6508444  3
   3846   3844   3847   3848     1  0.0000000  0.6508444  3
   3846   3844   3847   3849     1  0.0000000  0.6508444  3
   3847   3850   3853   3875     1  0.0000000  0.6508444  3
   3848   3847   3844   3874     1  0.0000000  1.0460000  1
   3848   3847   3844   3874     1  0.0000000  0.0000000  3
   3848   3847   3850   3853     1  0.0000000  0.6508444  3
   3848   3847   3850   3851     1  0.0000000  0.6508444  3
   3848   3847   3850   3852     1  0.0000000  0.6508444  3
   3849   3847   3844   3874     1  0.0000000  1.0460000  1
   3849   3847   3844   3874     1  0.0000000  0.0000000  3
   3849   3847   3850   3853     1  0.0000000  0.6508444  3
   3849   3847   3850   3851     1  0.0000000  0.6508444  3
   3849   3847   3850   3852     1  0.0000000  0.6508444  3
   3850   3853   3854   3855     1  0.0000000  0.6508444  3
   3850   3853   3854   3856     1  0.0000000  0.6508444  3
   3850   3853   3864   3865     1  0.0000000  0.6508444  3
   3850   3853   3864   3866     1  0.0000000  0.6508444  3
   3851   3850   3853   3854     1  0.0000000  0.6508444  3
   3851   3850   3853   3864     1  0.0000000  0.6508444  3
   3851   3850   3853   3875     1  0.0000000  0.6508444  3
   3852   3850   3853   3854     1  0.0000000  0.6508444  3
   3852   3850   3853   3864     1  0.0000000  0.6508444  3
   3852   3850   3853   3875     1  0.0000000  0.6508444  3
   3853   3854   3857   3858     1  0.0000000  0.6508444  3
   3853   3854   3857   3859     1  0.0000000  0.6508444  3
   3853   3864   3867   3868     1  0.0000000  0.6508444  3
   3853   3864   3867   3869     1  0.0000000  0.6508444  3
   3854   3853   3864   3865     1  0.0000000  0.6508444  3
   3854   3853   3864   3866     1  0.0000000  0.6508444  3
   3855   3854   3853   3864     1  0.0000000  0.6508444  3
   3855   3854   3853   3875     1  0.0000000  0.6508444  3
   3855   3854   3857   3860     1  0.0000000  0.6508444  3
   3855   3854   3857   3858     1  0.0000000  0.6508444  3
   3855   3854   3857   3859     1  0.0000000  0.6508444  3
   3856   3854   3853   3864     1  0.0000000  0.6508444  3
   3856   3854   3853   3875     1  0.0000000  0.6508444  3
   3856   3854   3857   3860     1  0.0000000  0.6508444  3
   3856   3854   3857   3858     1  0.0000000  0.6508444  3
   3856   3854   3857   3859     1  0.0000000  0.6508444  3
   3857   3854   3853   3875     1  0.0000000  0.6508444  3
   3857   3860   3862   3863     1  180.0000771  9.6232000  2
   3858   3857   3860   3861     1  0.0000000  3.3472000  1
   3858   3857   3860   3861     1  0.0000000  0.0000000  2
   3858   3857   3860   3861     1  180.0000771  0.3347200  3
   3858   3857   3860   3862     1  180.0000771  0.0000000  2
   3859   3857   3860   3861     1  0.0000000  3.3472000  1
   3859   3857   3860   3861     1  0.0000000  0.0000000  2
   3859   3857   3860   3861     1  180.0000771  0.3347200  3
   3859   3857   3860   3862     1  180.0000771  0.0000000  2
   3861   3860   3862   3863     1  0.0000000  7.9496000  1
   3861   3860   3862   3863     1  180.0000771  9.6232000  2
   3865   3864   3853   3875     1  0.0000000  0.6508444  3
   3865   3864   3867   3870     1  0.0000000  0.6508444  3
   3865   3864   3867   3868     1  0.0000000  0.6508444  3
   3865   3864   3867   3869     1  0.0000000  0.6508444  3
   3866   3864   3853   3875     1  0.0000000  0.6508444  3
   3866   3864   3867   3870     1  0.0000000  0.6508444  3
   3866   3864   3867   3868     1  0.0000000  0.6508444  3
   3866   3864   3867   3869     1  0.0000000  0.6508444  3
   3867   3864   3853   3875     1  0.0000000  0.6508444  3
   3867   3870   3872   3873     1  180.0000771  9.6232000  2
   3868   3867   3870   3871     1  0.0000000  3.3472000  1
   3868   3867   3870   3871     1  0.0000000  0.0000000  2
   3868   3867   3870   3871     1  180.0000771  0.3347200  3
   3868   3867   3870   3872     1  180.0000771  0.0000000  2
   3869   3867   3870   3871     1  0.0000000  3.3472000  1
   3869   3867   3870   3871     1  0.0000000  0.0000000  2
   3869   3867   3870   3871     1  180.0000771  0.3347200  3
   3869   3867   3870   3872     1  180.0000771  0.0000000  2
   3871   3870   3872   3873     1  0.0000000  7.9496000  1
   3871   3870   3872   3873     1  180.0000771  9.6232000  2
   3876   3879   3882   3883     1  0.0000000  0.6508444  3
   3876   3879   3882   3884     1  0.0000000  0.6508444  3
   3877   3876   3879   3882     1  0.0000000  0.6508444  3
   3877   3876   3879   3880     1  0.0000000  0.6508444  3
   3877   3876   3879   3881     1  0.0000000  0.6508444  3
   3878   3876   3879   3882     1  0.0000000  0.6508444  3
   3878   3876   3879   3880     1  0.0000000  0.6508444  3
   3878   3876   3879   3881     1  0.0000000  0.6508444  3
   3879   3882   3885   3907     1  0.0000000  0.6508444  3
   3880   3879   3882   3885     1  0.0000000  0.6508444  3
   3880   3879   3882   3883     1  0.0000000  0.6508444  3
   3880   3879   3882   3884     1  0.0000000  0.6508444  3
   3880   3879   3876   3906     1  0.0000000  1.0460000  1
   3880   3879   3876   3906     1  0.0000000  0.0000000  3
   3881   3879   3882   3885     1  0.0000000  0.6508444  3
   3881   3879   3882   3883     1  0.0000000  0.6508444  3
   3881   3879   3882   3884     1  0.0000000  0.6508444  3
   3881   3879   3876   3906     1  0.0000000  1.0460000  1
   3881   3879   3876   3906     1  0.0000000  0.0000000  3
   3882   3885   3886   3887     1  0.0000000  0.6508444  3
   3882   3885   3886   3888     1  0.0000000  0.6508444  3
   3882   3885   3896   3897     1  0.0000000  0.6508444  3
   3882   3885   3896   3898     1  0.0000000  0.6508444  3
   3883   3882   3885   3886     1  0.0000000  0.6508444  3
   3883   3882   3885   3896     1  0.0000000  0.6508444  3
   3883   3882   3885   3907     1  0.0000000  0.6508444  3
   3884   3882   3885   3886     1  0.0000000  0.6508444  3
   3884   3882   3885   3896     1  0.0000000  0.6508444  3
   3884   3882   3885   3907     1  0.0000000  0.6508444  3
   3885   3886   3889   3890     1  0.0000000  0.6508444  3
   3885   3886   3889   3891     1  0.0000000  0.6508444  3
   3885   3896   3899   3900     1  0.0000000  0.6508444  3
   3885   3896   3899   3901     1  0.0000000  0.6508444  3
   3886   3885   3896   3897     1  0.0000000  0.6508444  3
   3886   3885   3896   3898     1  0.0000000  0.6508444  3
   3887   3886   3889   3892     1  0.0000000  0.6508444  3
   3887   3886   3889   3890     1  0.0000000  0.6508444  3
   3887   3886   3889   3891     1  0.0000000  0.6508444  3
   3887   3886   3885   3896     1  0.0000000  0.6508444  3
   3887   3886   3885   3907     1  0.0000000  0.6508444  3
   3888   3886   3889   3892     1  0.0000000  0.6508444  3
   3888   3886   3889   3890     1  0.0000000  0.6508444  3
   3888   3886   3889   3891     1  0.0000000  0.6508444  3
   3888   3886   3885   3896     1  0.0000000  0.6508444  3
   3888   3886   3885   3907     1  0.0000000  0.6508444  3
   3889   3892   3894   3895     1  180.0000771  9.6232000  2
   3889   3886   3885   3907     1  0.0000000  0.6508444  3
   3890   3889   3892   3893     1  0.0000000  3.3472000  1
   3890   3889   3892   3893     1  0.0000000  0.0000000  2
   3890   3889   3892   3893     1  180.0000771  0.3347200  3
   3890   3889   3892   3894     1  180.0000771  0.0000000  2
   3891   3889   3892   3893     1  0.0000000  3.3472000  1
   3891   3889   3892   3893     1  0.0000000  0.0000000  2
   3891   3889   3892   3893     1  180.0000771  0.3347200  3
   3891   3889   3892   3894     1  180.0000771  0.0000000  2
   3893   3892   3894   3895     1  0.0000000  7.9496000  1
   3893   3892   3894   3895     1  180.0000771  9.6232000  2
   3897   3896   3899   3902     1  0.0000000  0.6508444  3
   3897   3896   3899   3900     1  0.0000000  0.6508444  3
   3897   3896   3899   3901     1  0.0000000  0.6508444  3
   3897   3896   3885   3907     1  0.0000000  0.6508444  3
   3898   3896   3899   3902     1  0.0000000  0.6508444  3
   3898   3896   3899   3900     1  0.0000000  0.6508444  3
   3898   3896   3899   3901     1  0.0000000  0.6508444  3
   3898   3896   3885   3907     1  0.0000000  0.6508444  3
   3899   3902   3904   3905     1  180.0000771  9.6232000  2
   3899   3896   3885   3907     1  0.0000000  0.6508444  3
   3900   3899   3902   3903     1  0.0000000  3.3472000  1
   3900   3899   3902   3903     1  0.0000000  0.0000000  2
   3900   3899   3902   3903     1  180.0000771  0.3347200  3
   3900   3899   3902   3904     1  180.0000771  0.0000000  2
   3901   3899   3902   3903     1  0.0000000  3.3472000  1
   3901   3899   3902   3903     1  0.0000000  0.0000000  2
   3901   3899   3902   3903     1  180.0000771  0.3347200  3
   3901   3899   3902   3904     1  180.0000771  0.0000000  2
   3903   3902   3904   3905     1  0.0000000  7.9496000  1
   3903   3902   3904   3905     1  180.0000771  9.6232000  2

;[ system ]
;; Name
;Generic title
;
;[ molecules ]
;; Compound       #mols
;system1              1
